Protein in INSANE! Membrane UpperLeaflet>POPC=1.0 LowerLeaflet>POPC=1.0
10365
    1AU     AUC    1   5.454   7.582   6.341  0.0560  0.0699 -0.0052
    1AU     AUC    2   5.236   7.712   6.506 -0.0271  0.0428 -0.0837
    1AU     AUC    3   5.567   7.701   6.593  0.0358  0.0315  0.0432
    1AU     AUC    4   5.358   7.428   6.106  0.0756  0.0453  0.0538
    1AU     AUC    5   5.665   7.383   6.223 -0.0657 -0.0739  0.0204
    1AU     AUC    6   5.408   7.221   6.350 -0.0768  0.0140 -0.0049
    1AU     AUC    7   5.350   7.418   6.631  0.0436  0.0019 -0.0459
    1AU     AUC    8   5.562   7.692   6.045 -0.0570 -0.0193 -0.1031
    1AU     AUC    9   5.483   7.903   6.357  0.0746 -0.0564 -0.0346
    1AU     AUC   10   5.755   7.687   6.330 -0.0132 -0.1352 -0.0368
    1AU     AUC   11   5.679   7.409   6.527  0.1099  0.0453 -0.0257
    1AU     AUC   12   5.230   7.727   6.187 -0.0444  0.0033  0.1202
    1AU     AUC   13   5.144   7.442   6.352  0.0048  0.0802 -0.0010
    1AU     AUC   14   4.996   7.886   6.704  0.0626  0.0218 -0.0479
    1AU     AUC   15   5.317   7.893   6.829 -0.0756  0.0063  0.0208
    1AU     AUC   16   5.694   7.854   6.881  0.1079 -0.0118  0.0750
    1AU     AUC   17   5.257   7.297   5.791 -0.0420 -0.0222 -0.0067
    1AU     AUC   18   5.592   7.210   5.884 -0.0408 -0.0548 -0.0509
    1AU     AUC   19   5.878   7.183   6.045 -0.0696  0.1372 -0.0140
    1AU     AUC   20   5.373   6.890   6.359 -0.0798  0.0561 -0.0834
    1AU     AUC   21   5.323   7.090   6.703 -0.0052  0.0086  0.0225
    1AU     AUC   22   5.248   7.297   6.955 -0.0730  0.0739  0.0167
    1AU     AUC   23   5.671   7.811   5.775 -0.1386  0.0706  0.0882
    1AU     AUC   24   5.570   8.060   6.024 -0.0573  0.0463 -0.0271
    1AU     AUC   25   5.507   8.237   6.318  0.0369 -0.0255 -0.0472
    1AU     AUC   26   6.102   7.802   6.328 -0.0823  0.0297  0.0086
    1AU     AUC   27   6.029   7.517   6.544  0.0149 -0.0079 -0.0469
    1AU     AUC   28   5.905   7.254   6.730  0.0749 -0.0253  0.0286
    1AU     AUC   29   4.979   7.906   6.046  0.0389 -0.0204  0.0856
    1AU     AUC   30   4.879   7.639   6.193  0.0549 -0.0509  0.0142
    1AU     AUC   31   4.830   7.310   6.330 -0.0120 -0.0101  0.0806
    1AU     AUC   32   5.931   7.832   6.599 -0.0479 -0.0624 -0.0408
    1AU     AUC   33   5.841   7.582   6.857 -0.0478  0.0868 -0.1093
    1AU     AUC   34   4.921   7.918   6.414 -0.0498 -0.0652  0.0112
    1AU     AUC   35   4.860   7.565   6.536 -0.1320  0.1164 -0.0283
    1AU     AUC   36   6.031   7.478   6.205 -0.0457 -0.0568 -0.0583
    1AU     AUC   37   5.891   7.182   6.393 -0.0366 -0.0078 -0.0099
    1AU     AUC   38   5.132   7.646   5.880  0.0381 -0.0032 -0.0790
    1AU     AUC   39   5.029   7.303   6.033 -0.0820  0.0819  0.0245
    1AU     AUC   40   5.087   7.568   6.825  0.0170  0.1043 -0.0274
    1AU     AUC   41   5.448   7.594   6.936  0.0057 -0.0834 -0.0572
    1AU     AUC   42   5.288   7.061   6.073  0.0619 -0.0396  0.1178
    1AU     AUC   43   5.629   6.994   6.215  0.0259  0.0366  0.0097
    1AU     AUC   44   5.268   8.084   6.538 -0.0401 -0.0431 -0.0080
    1AU     AUC   45   5.616   8.061   6.585  0.0159  0.0425  0.0377
    1AU     AUC   46   5.499   7.580   5.727  0.0008  0.0167 -0.0913
    1AU     AUC   47   5.825   7.512   5.916  0.1085 -0.0361  0.0834
    1AU     AUC   48   5.647   7.042   6.599  0.0969 -0.1039 -0.0082
    1AU     AUC   49   5.584   7.317   6.880  0.0536  0.0282  0.0297
    1AU     AUC   50   5.903   7.820   6.045 -0.1380  0.1073  0.0791
    1AU     AUC   51   5.795   8.045   6.267  0.0408  0.0717  0.0602
    1AU     AUC   52   5.105   7.068   6.359 -0.0341  0.0873 -0.0116
    1AU     AUC   53   5.041   7.238   6.666 -0.0775  0.0286  0.0426
    1AU     AUC   54   5.323   7.908   5.879 -0.0058 -0.0404  0.0615
    1AU     AUC   55   5.247   8.117   6.224  0.0570 -0.0127  0.1158
    1AU    AUSL   56   6.125   7.909   6.923  0.0523 -0.0494 -0.0569
    1AU    AUSL   57   6.161   8.069   6.491  0.0707  0.0846 -0.0098
    1AU     AUL   58   6.298   8.182   6.797 -0.0205  0.0610 -0.1281
    1AU       S   59   6.147   8.595   6.643 -0.2564  0.0237 -0.2473
    1AU     LIG   60   6.554   8.597   6.645 -0.1674 -0.2783  0.1291
    1AU     LIG   61   6.842   8.821   6.851  0.0201 -0.1255  0.0782
    1AU     LIG   62   7.071   9.039   7.193 -0.1425  0.0952 -0.0718
    1AU       S   63   6.558   7.789   7.021  0.4056 -0.0018  0.0546
    1AU     LIG   64   6.970   7.542   6.925 -0.1299  0.0086 -0.1012
    1AU     LIG   65   7.111   7.170   6.627 -0.0999  0.2412  0.3035
    1AU     LIG   66   7.398   6.761   6.510  0.2018  0.1161  0.0526
    1AU    AUSL   67   6.324   7.690   6.618  0.0974 -0.0316  0.0848
    1AU    AUSL   68   6.213   7.252   6.630 -0.0507 -0.1194 -0.0534
    1AU     AUL   69   6.547   7.345   6.756 -0.0753  0.0531 -0.0025
    1AU       S   70   6.603   7.824   6.806  0.1640 -0.0468 -0.0293
    1AU     LIG   71   6.682   8.182   6.384 -0.3627 -0.0496 -0.1417
    1AU     LIG   72   6.601   8.216   5.928  0.1144  0.3181  0.0346
    1AU     LIG   73   6.636   8.389   5.584 -0.1199 -0.4033  0.1832
    1AU       S   74   6.660   7.194   6.340  0.3685  0.2248 -0.2005
    1AU     LIG   75   6.615   6.745   6.213 -0.0234 -0.1607  0.0583
    1AU     LIG   76   6.792   6.453   6.349  0.0691  0.0318 -0.0099
    1AU     LIG   77   7.134   6.359   6.411  0.0997  0.2760  0.1861
    1AU    AUSL   78   6.173   7.494   7.000 -0.0240 -0.0731  0.0706
    1AU    AUSL   79   5.796   7.738   7.148  0.0469  0.0658  0.0471
    1AU     AUL   80   6.131   7.886   7.235  0.0264 -0.0405  0.0655
    1AU       S   81   6.364   7.508   7.124 -0.2288  0.0920  0.6489
    1AU     LIG   82   6.684   7.281   7.256 -0.1534 -0.0851  0.1149
    1AU     LIG   83   7.045   7.060   7.133  0.1721 -0.1886  0.2391
    1AU     LIG   84   7.139   6.769   6.934  0.2032  0.3113 -0.0396
    1AU       S   85   5.883   7.648   7.548  0.0179  0.6600 -0.1155
    1AU     LIG   86   5.712   8.045   7.681 -0.1662  0.3027  0.2900
    1AU     LIG   87   5.459   8.294   7.684 -0.0776 -0.0931  0.0017
    1AU     LIG   88   5.094   8.561   7.651  0.0499 -0.3855  0.1710
    1AU    AUSL   89   4.590   7.819   6.635 -0.0761 -0.0175  0.0356
    1AU    AUSL   90   4.612   7.318   6.677 -0.0925  0.0079  0.0242
    1AU     AUL   91   4.428   7.628   6.792 -0.0302  0.0470 -0.0496
    1AU       S   92   4.180   7.696   6.416  0.4872  0.6095  0.2191
    1AU     LIG   93   4.075   7.922   6.837  0.3397 -0.1806  0.0363
    1AU     LIG   94   3.789   8.085   7.139 -0.1725 -0.4076  0.2871
    1AU     LIG   95   3.420   8.012   7.374  0.0346 -0.2821 -0.2994
    1AU       S   96   4.402   7.200   6.960 -0.0321  0.4696  0.6176
    1AU     LIG   97   3.954   7.010   6.980 -0.2490  0.1255 -0.1126
    1AU     LIG   98   3.758   6.914   6.653 -0.0683  0.0464  0.1549
    1AU     LIG   99   3.852   6.803   6.326 -0.0416  0.2272  0.1833
    1AU    AUSL  100   4.560   7.981   6.228  0.0489 -0.0684  0.1818
    1AU    AUSL  101   4.785   8.193   6.645 -0.0253 -0.0110 -0.1183
    1AU     AUL  102   4.426   8.071   6.565 -0.0522  0.0249  0.0416
    1AU       S  103   4.583   8.517   6.638 -0.8254  0.3501 -0.1264
    1AU     LIG  104   4.167   8.427   6.821 -0.1858  0.2865  0.0027
    1AU     LIG  105   3.767   8.371   6.731 -0.0511  0.2149 -0.0684
    1AU     LIG  106   3.541   8.636   6.431 -0.1432  0.1083 -0.0206
    1AU       S  107   4.148   7.849   6.278 -0.1818  0.1549  0.0485
    1AU     LIG  108   3.843   8.091   6.208 -0.2699 -0.2135  0.3419
    1AU     LIG  109   3.717   8.251   5.901 -0.1021 -0.3793 -0.0493
    1AU     LIG  110   3.866   8.659   5.887  0.1716  0.2929 -0.1363
    1AU    AUSL  111   4.584   7.537   6.294  0.0808  0.0342  0.0322
    1AU    AUSL  112   4.794   7.734   5.957  0.0235  0.0453 -0.0035
    1AU     AUL  113   4.491   7.854   5.992  0.0286  0.0555  0.0529
    1AU       S  114   4.444   7.449   5.801 -0.2930  0.0540  0.2504
    1AU     LIG  115   4.051   7.707   5.803  0.1539  0.1176 -0.0439
    1AU     LIG  116   3.637   7.641   5.846  0.2526 -0.1017  0.0968
    1AU     LIG  117   3.251   7.543   5.671 -0.0409 -0.0588 -0.0117
    1AU       S  118   4.357   7.529   6.295 -0.0254 -0.2320 -0.1376
    1AU     LIG  119   4.215   7.129   6.498 -0.2267 -0.2091  0.0961
    1AU     LIG  120   4.282   6.707   6.649  0.2060 -0.2230 -0.2001
    1AU     LIG  121   4.135   6.534   6.954  0.5081  0.2428  0.2499
    1AU    AUSL  122   6.211   7.065   6.242  0.0219 -0.0105 -0.1031
    1AU    AUSL  123   5.951   6.924   6.606  0.0649  0.0240 -0.0952
    1AU     AUL  124   6.299   6.940   6.614 -0.0732  0.0570 -0.0382
    1AU       S  125   6.545   7.224   6.302 -0.0032  0.1975 -0.1972
    1AU     LIG  126   6.763   6.859   6.644 -0.0327  0.0951  0.5223
    1AU     LIG  127   6.534   6.536   6.842  0.1113  0.0314 -0.1688
    1AU     LIG  128   6.407   6.338   7.166 -0.0703  0.1500  0.1749
    1AU       S  129   6.139   6.581   6.404 -0.6319 -0.1231 -0.1091
    1AU     LIG  130   6.163   6.226   6.714 -0.0861 -0.0135  0.0808
    1AU     LIG  131   6.652   6.033   6.780  0.3380  0.0529  0.0242
    1AU     LIG  132   6.989   5.845   6.477  0.1010  0.2138 -0.2259
    1AU    AUSL  133   6.180   7.498   6.254 -0.0173  0.0577 -0.0868
    1AU    AUSL  134   6.249   7.334   5.866  0.0458  0.0428 -0.1066
    1AU     AUL  135   6.312   7.084   5.951  0.0870 -0.1307  0.0431
    1AU       S  136   6.569   7.464   5.820 -0.0071  0.2069 -0.0655
    1AU     LIG  137   6.956   7.387   5.996 -0.1720 -0.1463  0.1721
    1AU     LIG  138   7.282   7.381   6.227  0.0988  0.0007  0.2042
    1AU     LIG  139   7.432   7.568   6.576 -0.1761  0.1504  0.4146
    1AU       S  140   6.552   7.414   6.302 -0.2064  0.2243 -0.0429
    1AU     LIG  141   6.885   7.641   6.463  0.0229  0.0607  0.0267
    1AU     LIG  142   7.152   7.981   6.684  0.1772 -0.0409 -0.0578
    1AU     LIG  143   7.426   8.211   7.113 -0.0008 -0.0875 -0.1554
    1AU    AUSL  144   4.898   7.465   5.641  0.0535 -0.0687  0.0646
    1AU    AUSL  145   5.067   7.868   5.653  0.1139  0.0404 -0.0186
    1AU     AUL  146   4.743   7.855   5.615 -0.0715 -0.0385 -0.0555
    1AU       S  147   4.453   7.457   5.586  0.0638  0.1191  0.0273
    1AU     LIG  148   4.383   7.700   5.331 -0.1023 -0.2821  0.0300
    1AU     LIG  149   4.309   8.058   5.426 -0.5308 -0.2899  0.0466
    1AU     LIG  150   3.985   8.393   5.456 -0.0133 -0.1927 -0.0896
    1AU       S  151   5.055   7.763   5.264 -0.2090 -0.1143 -0.0449
    1AU     LIG  152   4.885   8.134   5.206  0.1844 -0.2089  0.0944
    1AU     LIG  153   4.849   8.575   5.042  0.0793  0.1774  0.0261
    1AU     LIG  154   4.833   8.995   4.803  0.2230  0.2154 -0.2089
    1AU    AUSL  155   4.831   7.309   6.041 -0.1121 -0.0734 -0.0520
    1AU    AUSL  156   4.982   7.007   5.722 -0.0573 -0.1588  0.0205
    1AU     AUL  157   4.856   7.190   5.546 -0.0040 -0.1432  0.0182
    1AU       S  158   4.695   6.799   5.725 -0.2362  0.1302 -0.1679
    1AU     LIG  159   4.970   6.677   5.341 -0.2895 -0.2496 -0.1240
    1AU     LIG  160   5.214   7.089   5.084  0.1332  0.3639  0.1560
    1AU     LIG  161   5.665   7.165   4.855  0.2055 -0.1173  0.2773
    1AU       S  162   4.522   7.281   5.886 -0.3550  0.2042 -0.0865
    1AU     LIG  163   4.192   7.127   5.994 -0.4339 -0.1760 -0.3249
    1AU     LIG  164   3.837   7.306   6.174  0.4570  0.3347 -0.2243
    1AU     LIG  165   3.444   7.316   6.474  0.2795 -0.2130  0.0322
    1AU    AUSL  166   5.116   7.545   7.220 -0.0640  0.0550  0.0462
    1AU    AUSL  167   4.908   7.634   6.831 -0.0789 -0.0182 -0.0284
    1AU     AUL  168   4.712   7.647   7.157  0.0741 -0.0551  0.0060
    1AU       S  169   4.479   7.272   7.139  0.5199 -0.1962  0.0084
    1AU     LIG  170   4.163   7.531   7.201  0.0574  0.1384 -0.0159
    1AU     LIG  171   3.818   7.387   7.278 -0.2648 -0.0656  0.1514
    1AU     LIG  172   3.606   6.984   7.401 -0.0507 -0.1301 -0.0048
    1AU       S  173   5.038   7.659   7.516  0.0779 -0.0802  0.2966
    1AU     LIG  174   4.718   7.438   7.698 -0.0699 -0.1740  0.1747
    1AU     LIG  175   4.532   7.084   7.668 -0.2063  0.1698 -0.2718
    1AU     LIG  176   4.446   6.653   7.750 -0.3928 -0.2095  0.2723
    1AU    AUSL  177   5.011   7.972   7.088  0.0071 -0.0881  0.0782
    1AU    AUSL  178   5.523   8.208   7.042  0.0339 -0.0392 -0.0509
    1AU     AUL  179   5.224   8.261   7.211 -0.0500  0.0193 -0.0009
    1AU       S  180   4.923   7.967   7.447  0.0732  0.1353  0.5915
    1AU     LIG  181   4.761   8.456   7.295  0.1265 -0.3607 -0.2560
    1AU     LIG  182   4.468   8.725   7.055 -0.3314 -0.0217  0.0447
    1AU     LIG  183   4.298   9.032   6.783 -0.1080 -0.1749  0.1578
    1AU       S  184   5.521   8.612   7.140 -0.2700 -0.0576 -0.0887
    1AU     LIG  185   5.799   8.990   6.970  0.0668  0.2182  0.0498
    1AU     LIG  186   5.918   9.316   6.742 -0.0502 -0.0265  0.2878
    1AU     LIG  187   6.374   9.603   6.602 -0.2932 -0.4285  0.0995
    1AU    AUSL  188   5.414   7.800   7.001  0.0239  0.0556  0.0700
    1AU    AUSL  189   5.537   7.426   7.295  0.0071  0.0950  0.0804
    1AU     AUL  190   5.455   7.821   7.331  0.0862 -0.0109  0.0086
    1AU       S  191   5.698   7.507   7.565  0.3377 -0.0619 -0.0027
    1AU     LIG  192   5.521   7.242   7.922 -0.4420 -0.0707  0.2592
    1AU     LIG  193   5.109   7.345   8.079 -0.3107  0.1701  0.1347
    1AU     LIG  194   4.936   7.388   8.504  0.0033  0.0551 -0.1119
    1AU       S  195   5.082   7.951   7.587  0.0354  0.5683  0.0339
    1AU     LIG  196   5.317   7.765   7.871  0.0166  0.2917 -0.3619
    1AU     LIG  197   5.727   7.736   8.093  0.0421 -0.5663  0.1603
    1AU     LIG  198   6.046   7.848   8.363 -0.2583  0.3077 -0.1665
    1AU    AUSL  199   5.439   6.695   6.056 -0.1049 -0.0025 -0.1135
    1AU    AUSL  200   5.819   6.902   6.177  0.1024  0.0504  0.0822
    1AU     AUL  201   5.659   6.485   6.034  0.1423  0.0075 -0.0189
    1AU       S  202   6.064   6.638   6.148  0.3112 -0.3453  0.2284
    1AU     LIG  203   6.399   6.289   6.093  0.3834 -0.2063  0.0038
    1AU     LIG  204   6.765   6.037   6.000 -0.3635  0.0913  0.2273
    1AU     LIG  205   7.181   6.033   6.061 -0.1634  0.2711  0.2869
    1AU       S  206   5.517   6.412   5.618  0.0161 -0.0421 -0.0398
    1AU     LIG  207   5.412   6.021   5.837 -0.1871  0.0775 -0.2717
    1AU     LIG  208   5.574   5.691   5.965  0.1484  0.6835  0.4675
    1AU     LIG  209   5.859   5.423   5.903  0.0995 -0.2771 -0.3909
    1AU    AUSL  210   5.372   7.063   5.840 -0.0817  0.0274 -0.0255
    1AU    AUSL  211   5.057   6.866   6.133  0.0513  0.0315 -0.0656
    1AU     AUL  212   5.135   6.719   5.814 -0.0558  0.0664 -0.1284
    1AU       S  213   5.407   6.502   5.552 -0.1652  0.2372  0.1611
    1AU     LIG  214   5.013   6.271   5.637 -0.0624  0.3101 -0.1652
    1AU     LIG  215   4.833   5.965   5.908 -0.0804 -0.0528 -0.3541
    1AU     LIG  216   4.886   5.731   6.283  0.0068  0.2063 -0.0756
    1AU       S  217   4.745   6.523   5.959  0.5445 -0.2508  0.3391
    1AU     LIG  218   5.086   6.334   6.172 -0.2383  0.3245  0.0058
    1AU     LIG  219   5.392   6.117   6.337 -0.1061 -0.1181  0.0269
    1AU     LIG  220   5.668   6.198   6.722 -0.0002 -0.4670 -0.0632
    1AU    AUSL  221   5.745   6.868   5.762  0.0826 -0.1238  0.0047
    1AU    AUSL  222   5.560   7.203   5.470 -0.0048 -0.0850 -0.0181
    1AU     AUL  223   5.421   6.940   5.491  0.0579 -0.0050 -0.0089
    1AU       S  224   5.880   7.097   5.380 -0.0460  0.3310 -0.1669
    1AU     LIG  225   5.778   6.721   5.098 -0.5186  0.0165  0.0625
    1AU     LIG  226   5.755   6.334   5.201  0.2286 -0.1587  0.0474
    1AU     LIG  227   5.390   6.076   5.300  0.0360 -0.1165 -0.0660
    1AU       S  228   5.783   6.680   5.623  0.0934  0.2706 -0.1156
    1AU     LIG  229   6.012   6.273   5.772 -0.2096 -0.3353 -0.0373
    1AU     LIG  230   6.143   5.889   5.904  0.0546  0.3133 -0.1715
    1AU     LIG  231   6.375   5.573   6.131  0.3705  0.2873 -0.0893
    1AU    AUSL  232   5.505   8.410   6.647  0.0054  0.0493  0.0184
    1AU    AUSL  233   5.791   8.074   6.738 -0.0672 -0.0618  0.0167
    1AU     AUL  234   5.828   8.315   6.917 -0.0445  0.0747 -0.0386
    1AU       S  235   5.509   8.623   6.739  0.0665 -0.4136 -0.2770
    1AU     LIG  236   5.364   8.954   6.614  0.1171  0.6355  0.3840
    1AU     LIG  237   4.955   9.172   6.630  0.1512  0.2277  0.2359
    1AU     LIG  238   4.655   9.528   6.647  0.4530  0.0948  0.5178
    1AU       S  239   5.978   8.674   6.648  0.1311 -0.2944  0.2103
    1AU     LIG  240   6.290   8.985   6.329 -0.0344  0.2741 -0.0555
    1AU     LIG  241   6.686   9.251   6.447  0.2910  0.3054  0.0824
    1AU     LIG  242   6.760   9.423   6.860  0.4497 -0.1646  0.2428
    1AU    AUSL  243   5.208   8.100   6.728  0.0059  0.0518  0.0652
    1AU    AUSL  244   5.097   8.481   6.446  0.0835  0.1091 -0.0099
    1AU     AUL  245   5.062   8.392   6.802  0.0337 -0.0077  0.0136
    1AU       S  246   5.400   8.674   6.989  0.4180  0.1536  0.1871
    1AU     LIG  247   5.033   8.838   7.006  0.0749  0.0902 -0.2809
    1AU     LIG  248   4.717   9.193   7.077  0.2497  0.0778  0.0240
    1AU     LIG  249   4.263   9.253   7.261  0.0734  0.1238 -0.4264
    1AU       S  250   4.865   8.690   6.476  0.0023 -0.0921  0.0004
    1AU     LIG  251   4.575   8.965   6.405 -0.2351 -0.2876  0.1204
    1AU     LIG  252   4.402   9.361   6.221 -0.0917 -0.3068  0.2115
    1AU     LIG  253   4.556   9.676   5.877  0.2787  0.2460 -0.0982
    1AU    AUSL  254   5.767   7.590   5.513  0.0156 -0.0833 -0.0518
    1AU    AUSL  255   5.320   7.511   5.610 -0.0348 -0.0281  0.0511
    1AU     AUL  256   5.525   7.427   5.281  0.0099 -0.0506  0.0691
    1AU       S  257   5.129   7.623   5.241  0.2866  0.0113 -0.2313
    1AU     LIG  258   5.309   7.512   4.824 -0.2513 -0.0156  0.1779
    1AU     LIG  259   5.042   7.290   4.574 -0.4011 -0.0042  0.0843
    1AU     LIG  260   4.829   7.088   4.362 -0.1797  0.0968  0.3377
    1AU       S  261   5.981   7.206   5.276 -0.3761  0.2162  0.0867
    1AU     LIG  262   6.300   7.480   5.142 -0.2825 -0.2345 -0.0294
    1AU     LIG  263   6.209   7.835   5.238  0.2950 -0.2288  0.1065
    1AU     LIG  264   5.929   8.136   5.193  0.0060 -0.1117  0.1262
    1AU    AUSL  265   5.836   7.286   5.815  0.0853  0.0319  0.0916
    1AU    AUSL  266   6.040   7.703   5.815  0.1759  0.0844 -0.0456
    1AU     AUL  267   6.114   7.501   5.579 -0.0536  0.0097 -0.0726
    1AU       S  268   6.543   7.688   5.636  0.0536  0.0580 -0.0034
    1AU     LIG  269   6.898   7.450   5.479 -0.2034  0.1929  0.0868
    1AU     LIG  270   7.305   7.542   5.207 -0.0642  0.1220 -0.0354
    1AU     LIG  271   7.362   7.235   4.886 -0.3528 -0.0292  0.0380
    1AU       S  272   6.033   7.076   5.439  0.0061 -0.3673 -0.0004
    1AU     LIG  273   6.569   7.107   5.352  0.0130 -0.0883 -0.3079
    1AU     LIG  274   6.737   6.949   5.660 -0.1402  0.2625 -0.0159
    1AU     LIG  275   6.871   6.590   5.776  0.3395  0.2322 -0.3271
    1AU    AUSL  276   5.762   6.923   7.002  0.0456  0.2317 -0.0489
    1AU    AUSL  277   5.662   6.622   6.464  0.0983 -0.0410 -0.0551
    1AU     AUL  278   5.925   6.665   6.846 -0.0906  0.0133  0.1820
    1AU       S  279   5.919   6.462   6.397 -0.1170 -0.0380 -0.2059
    1AU     LIG  280   5.895   6.132   6.266 -0.0993  0.2873 -0.0335
    1AU     LIG  281   5.815   5.710   6.369  0.2233  0.1856 -0.1525
    1AU     LIG  282   5.568   5.347   6.291  0.3165  0.2900  0.1616
    1AU       S  283   5.612   6.650   7.327  0.3524 -0.0477  0.1552
    1AU     LIG  284   6.079   6.607   7.389 -0.1267 -0.0807 -0.2416
    1AU     LIG  285   6.567   6.801   7.494 -0.4873  0.3672  0.0679
    1AU     LIG  286   6.999   6.622   7.416  0.3792 -0.1046  0.0695
    1AU    AUSL  287   5.467   6.929   6.670 -0.0234  0.0332 -0.0270
    1AU    AUSL  288   5.074   6.856   6.882  0.0523 -0.0242 -0.0483
    1AU     AUL  289   5.410   6.629   6.878  0.0229 -0.0341 -0.0812
    1AU       S  290   5.328   6.742   7.315  0.0566  0.1588 -0.1660
    1AU     LIG  291   5.295   6.271   7.178  0.0554 -0.3054 -0.1052
    1AU     LIG  292   5.328   5.915   6.909  0.0766  0.2714 -0.0760
    1AU     LIG  293   5.344   5.655   6.559 -0.0370 -0.0553  0.0523
    1AU       S  294   4.910   6.622   7.047 -0.0615 -0.3934 -0.2799
    1AU     LIG  295   4.958   6.549   7.509  0.2062  0.2011  0.0890
    1AU     LIG  296   5.167   6.380   7.809 -0.0581  0.1710  0.1417
    1AU     LIG  297   5.010   6.047   8.039  0.0878  0.2521 -0.0503
    1AU    AUSL  298   5.361   7.141   7.047 -0.0836 -0.0516 -0.0495
    1AU    AUSL  299   5.803   7.329   6.960 -0.0003  0.0505 -0.0958
    1AU     AUL  300   5.716   7.104   7.279 -0.0437 -0.0832 -0.1100
    1AU       S  301   6.015   7.384   7.483 -0.1349  0.0568  0.2980
    1AU     LIG  302   5.919   6.960   7.738 -0.1072 -0.0231 -0.0166
    1AU     LIG  303   5.993   6.516   7.843  0.1376  0.1861 -0.0225
    1AU     LIG  304   6.288   6.204   7.629  0.1032  0.2009 -0.3355
    1AU       S  305   5.248   6.990   7.310  0.1514  0.2501 -0.2965
    1AU     LIG  306   5.060   6.995   7.729  0.1205 -0.2073 -0.1949
    1AU     LIG  307   4.808   6.914   8.080 -0.0313  0.4869  0.1778
    1AU     LIG  308   4.711   6.474   8.083  0.1354  0.2448 -0.2266
    1AU    AUSL  309   6.021   8.057   6.091  0.0202 -0.0403 -0.0552
    1AU    AUSL  310   5.825   8.329   6.392  0.0151 -0.0350  0.0277
    1AU     AUL  311   6.242   8.316   6.261  0.0226 -0.0581 -0.0793
    1AU       S  312   6.190   8.461   5.777  0.0589  0.2005 -0.4838
    1AU     LIG  313   6.601   8.637   6.139 -0.0755 -0.1873  0.1630
    1AU     LIG  314   6.913   8.839   6.243 -0.0147 -0.3560  0.0223
    1AU     LIG  315   7.365   8.816   6.350 -0.1727 -0.5327  0.1762
    1AU       S  316   5.910   8.576   6.408  0.3638 -0.0783  0.1651
    1AU     LIG  317   5.743   9.057   6.263 -0.1199  0.1826 -0.1168
    1AU     LIG  318   5.410   9.357   6.188  0.3988  0.2618 -0.1040
    1AU     LIG  319   4.916   9.490   6.215 -0.4061  0.1538 -0.0025
    1AU    AUSL  320   5.848   8.059   5.680  0.0671  0.0979  0.0229
    1AU    AUSL  321   6.385   7.821   6.075 -0.0107  0.0610 -0.0960
    1AU     AUL  322   6.212   8.013   5.762  0.0120  0.1066 -0.0157
    1AU       S  323   6.104   8.433   5.631  0.4071 -0.3137  0.3550
    1AU     LIG  324   5.914   8.626   5.368 -0.0328  0.0210 -0.1130
    1AU     LIG  325   5.613   8.842   5.343  0.1168  0.0772 -0.0035
    1AU     LIG  326   5.287   8.607   5.279  0.1818  0.0978  0.2875
    1AU       S  327   6.557   7.746   5.937  0.1271  0.1930  0.1837
    1AU     LIG  328   7.069   7.876   6.060  0.3097 -0.2383  0.2430
    1AU     LIG  329   7.502   7.951   6.300 -0.3900 -0.6325  0.1550
    1AU     LIG  330   7.595   8.389   6.584 -0.2132  0.0680 -0.6739
    1AU    AUSL  331   5.758   8.385   5.979 -0.0107  0.0215  0.0430
    1AU    AUSL  332   5.452   8.103   5.834  0.0092  0.0920 -0.0242
    1AU     AUL  333   5.666   8.321   5.594 -0.0226 -0.0044  0.0290
    1AU       S  334   5.397   8.617   5.786 -0.0848 -0.1110  0.0540
    1AU     LIG  335   5.601   9.049   5.791 -0.2022  0.0215  0.0781
    1AU     LIG  336   5.923   9.407   5.828 -0.0450  0.1503 -0.0611
    1AU     LIG  337   6.136   9.601   6.149  0.1781 -0.2209 -0.1854
    1AU       S  338   5.932   8.585   5.882  0.1090 -0.0307 -0.3627
    1AU     LIG  339   6.149   8.977   5.785 -0.1650  0.0536 -0.0176
    1AU     LIG  340   6.586   9.201   5.889  0.1688 -0.0690  0.1960
    1AU     LIG  341   6.981   9.177   5.836  0.2589  0.4030 -0.0185
    1AU    AUSL  342   4.927   7.061   6.526  0.0657 -0.1000  0.1114
    1AU    AUSL  343   4.910   7.237   6.983 -0.0763  0.0212 -0.0016
    1AU     AUL  344   4.712   6.960   6.749 -0.0367  0.0235 -0.0913
    1AU       S  345   4.763   6.498   6.755 -0.2029  0.1610 -0.1432
    1AU     LIG  346   4.539   6.293   6.375  0.1504  0.0903 -0.1454
    1AU     LIG  347   4.343   6.133   6.029 -0.2256 -0.1787 -0.2140
    1AU     LIG  348   4.167   5.878   5.667  0.3714  0.3049  0.0348
    1AU       S  349   4.776   7.172   7.193  0.2494 -0.1825 -0.1440
    1AU     LIG  350   4.534   6.774   7.248 -0.1308  0.0613  0.0194
    1AU     LIG  351   4.500   6.410   7.308 -0.1193  0.0657  0.0631
    1AU     LIG  352   4.117   6.278   7.531 -0.0827  0.1828 -0.4295
    1AU    AUSL  353   5.176   6.660   6.490  0.0389  0.0568  0.0407
    1AU    AUSL  354   4.641   6.985   6.226 -0.0525  0.0185 -0.0791
    1AU     AUL  355   4.825   6.719   6.357 -0.0035 -0.0451 -0.1066
    1AU       S  356   5.081   6.416   6.635  0.1605  0.0721 -0.1853
    1AU     LIG  357   4.924   6.045   6.624 -0.0659 -0.0785 -0.0201
    1AU     LIG  358   4.834   5.579   6.748  0.1832  0.3969 -0.0750
    1AU     LIG  359   4.619   5.406   6.549  0.3334  0.0921  0.0171
    1AU       S  360   4.570   6.795   5.979  0.3687  0.0155  0.0951
    1AU     LIG  361   4.281   6.610   6.139  0.0587 -0.1802  0.0725
    1AU     LIG  362   3.991   6.285   6.387 -0.1720 -0.0226  0.0569
    1AU     LIG  363   4.073   5.953   6.656  0.2423 -0.1853  0.0028
    1AU    AUSL  364   5.051   8.257   5.850 -0.0026 -0.0719  0.0543
    1AU    AUSL  365   5.466   7.905   5.470  0.0396  0.0495 -0.0027
    1AU     AUL  366   5.229   8.182   5.521 -0.0202 -0.0319  0.0299
    1AU       S  367   5.377   7.838   5.224 -0.0025 -0.1425 -0.4034
    1AU     LIG  368   5.445   8.140   4.984  0.2251 -0.4068  0.1244
    1AU     LIG  369   5.541   8.370   4.563  0.4859  0.2775  0.1845
    1AU     LIG  370   5.654   8.608   4.147 -0.3085 -0.0168  0.0115
    1AU       S  371   5.270   8.624   5.789  0.0351  0.0972  0.1047
    1AU     LIG  372   4.859   8.643   5.559 -0.0726 -0.2694 -0.4286
    1AU     LIG  373   4.580   8.349   5.732  0.1519 -0.2106 -0.2705
    1AU     LIG  374   4.178   8.256   5.906 -0.4025 -0.0968  0.2461
    1AU    AUSL  375   5.384   8.367   6.177  0.0052  0.0085 -0.0368
    1AU    AUSL  376   4.957   8.113   6.233  0.0084  0.1501  0.0556
    1AU     AUL  377   5.000   8.473   6.106  0.0249  0.0122  0.0075
    1AU       S  378   5.417   8.712   6.123  0.1511 -0.3118  0.0902
    1AU     LIG  379   5.071   8.967   6.064 -0.0243  0.0975  0.1936
    1AU     LIG  380   4.674   8.959   5.927  0.1255 -0.2525  0.0265
    1AU     LIG  381   4.420   9.229   5.744  0.1762 -0.4586  0.4591
    1AU       S  382   4.590   8.471   6.307  0.2480 -0.0784 -0.2395
    1AU     LIG  383   4.140   8.553   6.336 -0.1227  0.2289 -0.0907
    1AU     LIG  384   3.961   8.860   6.421 -0.0631 -0.2516 -0.6030
    1AU     LIG  385   3.879   9.303   6.520 -0.0322 -0.1620  0.2014
    2POPC   NC3  386   6.397   6.317   9.427 -0.2360 -0.2782  0.1922
    2POPC   PO4  387   5.956   6.485   9.368 -0.1726 -0.0827  0.1759
    2POPC   GL1  388   5.838   6.534   8.936  0.0741  0.1478 -0.1011
    2POPC   GL2  389   5.969   6.184   8.723 -0.4794 -0.5755  0.0940
    2POPC   C1A  390   5.750   6.939   8.713  0.0120  0.0171  0.2930
    2POPC   D2A  391   5.852   7.014   8.226 -0.1137  0.0565 -0.2839
    2POPC   C3A  392   6.068   7.382   8.072  0.1054  0.0377 -0.3294
    2POPC   C4A  393   6.497   7.508   8.151  0.0604  0.0555 -0.1400
    2POPC   C1B  394   5.778   6.095   8.369  0.0685 -0.0939 -0.1906
    2POPC   C2B  395   5.646   6.197   7.958 -0.3105  0.0950 -0.0012
    2POPC   C3B  396   5.694   6.216   7.521  0.0181 -0.2368 -0.1194
    2POPC   C4B  397   5.911   6.186   7.189 -0.0268 -0.0645 -0.2482
    3POPC   NC3  398   1.508   1.327   8.153  0.1947 -0.1158  0.2925
    3POPC   PO4  399   1.287   1.834   8.228 -0.1477 -0.0422 -0.4276
    3POPC   GL1  400   1.097   1.990   7.860  0.0621  0.0738 -0.0529
    3POPC   GL2  401   0.953   2.206   7.740 -0.0308 -0.1034  0.0162
    3POPC   C1A  402   1.147   1.826   7.389 -0.0571  0.1272  0.0722
    3POPC   D2A  403   1.207   1.366   7.229  0.0347 -0.1166  0.3270
    3POPC   C3A  404   1.281   1.318   6.762  0.1412  0.1726 -0.1552
    3POPC   C4A  405   0.815   1.319   6.558 -0.1374  0.1239 -0.1286
    3POPC   C1B  406   0.705   2.258   7.399  0.0661  0.1281 -0.3745
    3POPC   C2B  407   0.678   2.200   6.955 -0.3425 -0.0403  0.3044
    3POPC   C3B  408   0.780   2.125   6.686  0.0314 -0.0298 -0.1498
    3POPC   C4B  409   0.690   2.117   6.298 -0.1098  0.1059 -0.1457
    4POPC   NC3  410   2.757   8.687   8.518 -0.0642  0.0237 -0.4216
    4POPC   PO4  411   2.636   8.946   8.213 -0.0766  0.0305  0.0776
    4POPC   GL1  412   2.599   9.236   7.967 -0.3455  0.0621 -0.0624
    4POPC   GL2  413   2.412   9.472   7.697  0.0214  0.1126  0.2912
    4POPC   C1A  414   2.855   9.163   7.623 -0.1733 -0.3717 -0.0504
    4POPC   D2A  415   3.321   9.204   7.611 -0.1413 -0.1320 -0.3938
    4POPC   C3A  416   3.371   9.043   7.234 -0.0776  0.2215  0.0636
    4POPC   C4A  417   3.545   8.879   6.864  0.1749  0.1957 -0.0476
    4POPC   C1B  418   2.547   9.445   7.240  0.1335 -0.0685 -0.3521
    4POPC   C2B  419   2.506   9.264   6.866 -0.1771  0.1713 -0.0569
    4POPC   C3B  420   2.617   9.054   6.592  0.0038 -0.1157  0.2540
    4POPC   C4B  421   2.546   8.842   6.197  0.3420  0.1502  0.0087
    5POPC   NC3  422   8.733   6.914   8.363 -0.1366  0.0890 -0.3315
    5POPC   PO4  423   8.597   7.279   8.520  0.1015  0.0810 -0.1938
    5POPC   GL1  424   8.681   7.334   8.035  0.1069 -0.0974  0.1731
    5POPC   GL2  425   8.420   7.069   8.011  0.3865  0.1996  0.4423
    5POPC   C1A  426   8.874   7.370   7.508  0.1198 -0.2139 -0.2064
    5POPC   D2A  427   9.072   7.067   7.273 -0.1698 -0.0052 -0.0350
    5POPC   C3A  428   9.037   7.071   6.889  0.0052  0.2942 -0.2957
    5POPC   C4A  429   8.813   6.836   6.619  0.1088  0.0359 -0.3113
    5POPC   C1B  430   8.155   7.352   7.941 -0.0936 -0.0745 -0.1516
    5POPC   C2B  431   8.001   7.675   7.652  0.0602 -0.5401 -0.2385
    5POPC   C3B  432   7.936   7.979   7.321 -0.1849 -0.2563 -0.2530
    5POPC   C4B  433   7.905   8.099   6.946 -0.0539 -0.0406 -0.1036
    6POPC   NC3  434   7.277   2.438   8.125  0.1986 -0.0707  0.2004
    6POPC   PO4  435   7.054   2.152   8.219  0.1134  0.0894 -0.1173
    6POPC   GL1  436   7.254   1.783   8.063  0.1628 -0.0843  0.1087
    6POPC   GL2  437   7.290   1.265   8.109  0.2496  0.1008  0.1873
    6POPC   C1A  438   7.259   1.710   7.614  0.1998  0.1305 -0.1397
    6POPC   D2A  439   7.174   1.863   7.194 -0.2659  0.1268 -0.1368
    6POPC   C3A  440   7.200   1.547   6.869 -0.1281  0.0621 -0.2804
    6POPC   C4A  441   7.495   1.416   6.577 -0.0975 -0.1049 -0.2314
    6POPC   C1B  442   6.975   1.215   7.768 -0.3258 -0.0883  0.0768
    6POPC   C2B  443   6.775   1.446   7.406  0.0509  0.3848  0.1033
    6POPC   C3B  444   6.708   1.555   6.913 -0.0617 -0.2115  0.0931
    6POPC   C4B  445   6.814   1.933   6.858 -0.2370  0.1787 -0.0124
    7POPC   NC3  446   7.875   9.057   8.326 -0.1199 -0.0166 -0.0319
    7POPC   PO4  447   7.725   9.057   8.834  0.2661 -0.0822 -0.0349
    7POPC   GL1  448   7.496   9.310   8.386  0.1336  0.1583 -0.2448
    7POPC   GL2  449   7.609   9.428   8.059 -0.0875 -0.1503  0.0482
    7POPC   C1A  450   7.119   9.382   8.080 -0.0083 -0.1425 -0.1847
    7POPC   D2A  451   7.146   9.728   7.819  0.0290 -0.0234 -0.1791
    7POPC   C3A  452   7.482   9.926   7.567 -0.0100 -0.1712 -0.1683
    7POPC   C4A  453   7.777   9.843   7.351  0.1454  0.1042  0.0801
    7POPC   C1B  454   7.672   9.412   7.542  0.2603  0.0557 -0.2286
    7POPC   C2B  455   7.406   9.414   7.095 -0.0951 -0.0073  0.0008
    7POPC   C3B  456   7.199   9.196   6.646  0.2294 -0.0669 -0.2539
    7POPC   C4B  457   7.270   9.283   6.235 -0.2664 -0.2864  0.3404
    8POPC   NC3  458   5.039   6.404   9.061 -0.0517 -0.0600  0.0392
    8POPC   PO4  459   5.098   5.874   9.230  0.1318 -0.1953  0.0381
    8POPC   GL1  460   4.853   5.854   8.796  0.1494 -0.0605 -0.2943
    8POPC   GL2  461   4.447   5.790   8.803  0.2276 -0.1584 -0.0775
    8POPC   C1A  462   4.852   5.769   8.418 -0.1801  0.2002  0.0129
    8POPC   D2A  463   4.819   5.575   8.109  0.0878  0.3546 -0.1142
    8POPC   C3A  464   4.876   5.714   7.709 -0.3814 -0.1791 -0.0971
    8POPC   C4A  465   5.250   5.927   7.543 -0.3499 -0.1301 -0.1694
    8POPC   C1B  466   4.288   5.712   8.310 -0.1262 -0.0047  0.0961
    8POPC   C2B  467   4.391   5.729   7.860 -0.0598  0.0303  0.0001
    8POPC   C3B  468   4.108   5.787   7.485  0.0935 -0.2556 -0.2431
    8POPC   C4B  469   3.940   5.792   7.085 -0.1150  0.4997 -0.3786
    9POPC   NC3  470   1.145   5.287   8.259  0.1482 -0.2283 -0.2561
    9POPC   PO4  471   0.826   4.999   8.241 -0.4008 -0.0860 -0.1391
    9POPC   GL1  472   0.923   4.967   7.857 -0.1678 -0.0999 -0.2422
    9POPC   GL2  473   1.197   4.928   7.683  0.0226 -0.3527  0.1353
    9POPC   C1A  474   0.894   4.640   7.453  0.1158  0.0403 -0.2929
    9POPC   D2A  475   0.866   4.134   7.442 -0.1714  0.0225 -0.0712
    9POPC   C3A  476   0.454   3.891   7.343 -0.1350 -0.0486 -0.1521
    9POPC   C4A  477   0.156   4.204   7.093 -0.1905  0.0487  0.1920
    9POPC   C1B  478   1.216   4.914   7.168 -0.0607  0.2780  0.1681
    9POPC   C2B  479   0.975   4.801   6.809  0.0095  0.0763 -0.1278
    9POPC   C3B  480   0.614   4.562   6.556  0.1771  0.2313 -0.0482
    9POPC   C4B  481   0.336   4.405   6.355  0.1663 -0.0587  0.1292
   10POPC   NC3  482   7.963   0.669   8.278  0.1305 -0.1831 -0.0164
   10POPC   PO4  483   8.286   0.901   8.286 -0.2911  0.0608 -0.1088
   10POPC   GL1  484   8.338   0.832   7.845 -0.1315  0.2901 -0.0930
   10POPC   GL2  485   8.482   1.131   7.716 -0.0165 -0.0342  0.1336
   10POPC   C1A  486   8.117   0.817   7.483  0.0239  0.0979  0.2341
   10POPC   D2A  487   8.087   0.883   7.024  0.0041 -0.0821 -0.0937
   10POPC   C3A  488   8.235   1.186   6.772  0.1325 -0.1316  0.0577
   10POPC   C4A  489   7.972   1.540   6.571 -0.0332 -0.0864  0.2033
   10POPC   C1B  490   8.574   1.390   7.297 -0.1259 -0.0042 -0.0156
   10POPC   C2B  491   8.698   1.283   6.974  0.1334 -0.0294  0.1286
   10POPC   C3B  492   9.031   1.387   6.645 -0.0470 -0.0313  0.1964
   10POPC   C4B  493   9.408   1.407   6.423 -0.3227 -0.2402 -0.2205
   11POPC   NC3  494   7.922   0.344   8.694 -0.1301  0.3431  0.0704
   11POPC   PO4  495   7.698   0.210   8.368  0.2047 -0.2506  0.2032
   11POPC   GL1  496   7.869   0.133   7.942 -0.0692 -0.1674  0.2219
   11POPC   GL2  497   7.833   0.486   7.805 -0.3075  0.2448  0.1336
   11POPC   C1A  498   8.181  -0.046   7.582  0.3047  0.1613 -0.1233
   11POPC   D2A  499   8.250  -0.124   7.157  0.0749  0.0674  0.4883
   11POPC   C3A  500   7.887  -0.055   6.754  0.4327 -0.1389  0.0986
   11POPC   C4A  501   7.509  -0.021   6.508  0.1325 -0.1744 -0.2816
   11POPC   C1B  502   8.266   0.388   7.602 -0.1398 -0.0820  0.3793
   11POPC   C2B  503   8.317   0.383   7.140  0.0603 -0.2793 -0.3205
   11POPC   C3B  504   8.241   0.269   6.745 -0.1506  0.0393  0.2296
   11POPC   C4B  505   8.122   0.177   6.270 -0.0991 -0.0286 -0.0980
   12POPC   NC3  506   3.586   6.463   9.076 -0.0910 -0.5265  0.4928
   12POPC   PO4  507   3.911   6.813   9.088 -0.2215 -0.2384  0.0423
   12POPC   GL1  508   4.118   6.714   8.764  0.1567  0.2048  0.1050
   12POPC   GL2  509   3.860   6.456   8.602 -0.1639  0.0513  0.1565
   12POPC   C1A  510   4.272   6.621   8.349  0.0522 -0.2379  0.0623
   12POPC   D2A  511   4.269   6.210   8.032  0.0567  0.0804  0.0333
   12POPC   C3A  512   4.655   6.125   7.653  0.1489  0.2298 -0.1324
   12POPC   C4A  513   4.848   6.028   7.282  0.0581  0.0828 -0.2274
   12POPC   C1B  514   4.041   6.128   8.432  0.2990 -0.0956  0.1221
   12POPC   C2B  515   4.506   6.236   8.603 -0.1461  0.1595  0.1340
   12POPC   C3B  516   4.756   6.643   8.601  0.3338 -0.1610 -0.0995
   12POPC   C4B  517   4.522   6.999   8.553 -0.2350  0.0287 -0.0511
   13POPC   NC3  518   8.418   4.204   8.114 -0.2082 -0.0606 -0.3350
   13POPC   PO4  519   8.809   4.305   8.125 -0.2307  0.0526  0.2745
   13POPC   GL1  520   8.778   4.109   7.690 -0.0040  0.0154 -0.0760
   13POPC   GL2  521   9.100   3.960   7.722 -0.0130 -0.0334 -0.0364
   13POPC   C1A  522   8.927   4.181   7.282 -0.0294  0.1123 -0.0159
   13POPC   D2A  523   8.884   4.381   6.796 -0.3342  0.1861  0.0955
   13POPC   C3A  524   9.051   4.576   6.532  0.1408  0.1074 -0.0177
   13POPC   C4A  525   9.055   4.652   6.137  0.1316  0.0131  0.0217
   13POPC   C1B  526   8.968   3.711   7.371  0.0969  0.0266 -0.1975
   13POPC   C2B  527   8.850   3.838   6.905 -0.1992 -0.1250  0.0227
   13POPC   C3B  528   9.105   4.038   6.526 -0.1175  0.1263 -0.1821
   13POPC   C4B  529   9.075   4.005   6.140  0.3088  0.1081 -0.0663
   14POPC   NC3  530   1.846   5.966   8.102  0.0945 -0.2441  0.3891
   14POPC   PO4  531   1.486   5.757   8.073 -0.0818 -0.3465 -0.0860
   14POPC   GL1  532   1.772   5.735   7.650 -0.3338 -0.0721 -0.0143
   14POPC   GL2  533   2.167   5.675   7.762  0.1656  0.1633  0.0257
   14POPC   C1A  534   2.000   5.640   7.304 -0.0056 -0.0556  0.0954
   14POPC   D2A  535   2.191   5.865   6.972 -0.1525  0.0399  0.2378
   14POPC   C3A  536   2.005   6.194   6.696 -0.1307  0.3594 -0.0605
   14POPC   C4A  537   1.806   6.369   6.456  0.2024  0.2727  0.2790
   14POPC   C1B  538   2.446   5.260   7.681 -0.3605  0.2082 -0.0148
   14POPC   C2B  539   2.778   5.143   7.341 -0.2579 -0.1835  0.0675
   14POPC   C3B  540   2.650   4.903   7.103  0.0867  0.0092 -0.2065
   14POPC   C4B  541   2.665   4.905   6.697 -0.1734  0.1679 -0.2076
   15POPC   NC3  542   9.152   3.929   8.204 -0.0359 -0.1211  0.1214
   15POPC   PO4  543   9.391   4.388   8.261  0.2853 -0.2760 -0.2877
   15POPC   GL1  544   9.404   4.532   7.870 -0.1808 -0.1305  0.4106
   15POPC   GL2  545   9.028   4.567   7.737 -0.2872  0.0651 -0.2740
   15POPC   C1A  546   9.376   4.397   7.381 -0.0398  0.3086  0.2129
   15POPC   D2A  547   9.238   4.689   7.029  0.0865  0.3951  0.0518
   15POPC   C3A  548   9.477   4.880   6.694  0.0001 -0.3409 -0.0060
   15POPC   C4A  549   9.373   5.001   6.306 -0.0312  0.0258  0.0928
   15POPC   C1B  550   9.021   4.909   7.453 -0.3747 -0.1688 -0.1679
   15POPC   C2B  551   8.935   5.356   7.353  0.0283 -0.0601  0.1372
   15POPC   C3B  552   8.720   5.753   7.184 -0.0840 -0.1567  0.0201
   15POPC   C4B  553   8.640   6.098   7.261 -0.1597 -0.0197 -0.0032
   16POPC   NC3  554   2.720   7.449   8.855 -0.2564 -0.3098 -0.1699
   16POPC   PO4  555   2.863   7.752   8.535  0.2335  0.1084  0.2831
   16POPC   GL1  556   3.006   7.754   8.085 -0.0172 -0.2083 -0.2744
   16POPC   GL2  557   2.857   7.943   7.940 -0.0696  0.0427  0.0388
   16POPC   C1A  558   3.467   7.797   7.811 -0.0402 -0.2296 -0.1783
   16POPC   D2A  559   3.833   7.874   7.616 -0.2223 -0.0073 -0.0080
   16POPC   C3A  560   4.092   8.081   7.811  0.1608  0.0170  0.3331
   16POPC   C4A  561   4.549   8.254   7.796 -0.0631  0.2380  0.0790
   16POPC   C1B  562   2.952   7.793   7.491  0.0305 -0.3979 -0.0844
   16POPC   C2B  563   3.092   7.860   7.058 -0.1264 -0.2898  0.2979
   16POPC   C3B  564   3.094   7.782   6.600 -0.1204  0.1028  0.1059
   16POPC   C4B  565   3.267   7.670   6.180  0.3130 -0.2342  0.5446
   17POPC   NC3  566   7.485   7.847   9.227  0.0963  0.3347 -0.0766
   17POPC   PO4  567   7.667   8.245   9.230  0.0710  0.1608  0.2178
   17POPC   GL1  568   7.641   8.070   8.776 -0.2447  0.1805  0.0640
   17POPC   GL2  569   7.885   7.901   8.593  0.1928  0.4317 -0.2493
   17POPC   C1A  570   7.487   7.669   8.421 -0.1174  0.1456 -0.1111
   17POPC   D2A  571   7.461   7.364   8.138 -0.0977 -0.1617 -0.0175
   17POPC   C3A  572   7.256   6.999   8.061  0.3232 -0.1776 -0.2346
   17POPC   C4A  573   7.302   6.680   8.303 -0.0892 -0.0204  0.1709
   17POPC   C1B  574   8.007   7.887   8.137 -0.1140 -0.4053  0.1466
   17POPC   C2B  575   8.081   8.158   7.806 -0.0602 -0.0156 -0.0365
   17POPC   C3B  576   8.066   8.414   7.481 -0.1789 -0.0510 -0.3594
   17POPC   C4B  577   7.892   8.624   7.052  0.1010  0.2689  0.0165
   18POPC   NC3  578   6.534   4.970   8.364 -0.2763  0.2879 -0.4344
   18POPC   PO4  579   6.513   4.539   8.153  0.1179 -0.0267  0.2147
   18POPC   GL1  580   6.546   4.471   7.768 -0.0089 -0.2761  0.1283
   18POPC   GL2  581   6.247   4.466   7.609  0.3156 -0.0712  0.0210
   18POPC   C1A  582   6.833   4.327   7.575 -0.2007 -0.1659  0.1173
   18POPC   D2A  583   7.228   4.562   7.543  0.2826  0.0428 -0.0247
   18POPC   C3A  584   7.617   4.362   7.416 -0.0212 -0.0247  0.2372
   18POPC   C4A  585   8.038   4.235   7.241  0.1600 -0.1112  0.2373
   18POPC   C1B  586   6.394   4.563   7.253  0.1751 -0.2830  0.3686
   18POPC   C2B  587   6.608   4.728   6.969 -0.4225 -0.1463 -0.3014
   18POPC   C3B  588   6.583   4.963   6.556 -0.2007 -0.1280 -0.0348
   18POPC   C4B  589   6.525   5.008   6.189 -0.1488  0.0398  0.0193
   19POPC   NC3  590   5.758   3.022   8.619  0.0482  0.3978  0.1044
   19POPC   PO4  591   5.450   3.030   8.207  0.0610 -0.1257 -0.1408
   19POPC   GL1  592   5.697   3.259   7.934 -0.0864 -0.2377  0.1229
   19POPC   GL2  593   5.513   3.572   7.825  0.3083  0.0332  0.1577
   19POPC   C1A  594   5.951   3.472   7.623 -0.0323 -0.0277  0.1519
   19POPC   D2A  595   5.737   3.549   7.243  0.0058  0.0262 -0.2425
   19POPC   C3A  596   5.681   3.474   6.810 -0.1564 -0.0104 -0.4347
   19POPC   C4A  597   5.871   3.305   6.396  0.1481 -0.0091 -0.2952
   19POPC   C1B  598   5.315   3.594   7.463  0.2156  0.0542  0.0564
   19POPC   C2B  599   5.235   3.605   7.037  0.4500  0.0107  0.1605
   19POPC   C3B  600   5.098   3.809   6.708 -0.1395 -0.3158 -0.4746
   19POPC   C4B  601   5.224   4.201   6.461 -0.0473 -0.0635  0.0633
   20POPC   NC3  602   8.907   5.526   7.947 -0.3037  0.3000 -0.1776
   20POPC   PO4  603   8.522   5.532   8.116  0.0204 -0.1944 -0.0428
   20POPC   GL1  604   8.392   5.389   7.801  0.2035  0.1074 -0.1225
   20POPC   GL2  605   8.162   5.247   7.717  0.1074 -0.0483 -0.0852
   20POPC   C1A  606   8.403   5.394   7.323  0.1085  0.1438  0.3097
   20POPC   D2A  607   8.594   5.424   6.831  0.1178 -0.1809 -0.0822
   20POPC   C3A  608   8.482   5.180   6.508 -0.2246  0.2831  0.3464
   20POPC   C4A  609   8.673   4.933   6.273 -0.0732  0.2330  0.3754
   20POPC   C1B  610   7.842   5.302   7.333  0.1384 -0.1202  0.0391
   20POPC   C2B  611   7.578   5.412   6.902  0.0978  0.1054 -0.1062
   20POPC   C3B  612   7.311   5.437   6.500  0.0241  0.0337  0.2284
   20POPC   C4B  613   7.281   5.528   6.046  0.0797  0.0066 -0.1111
   21POPC   NC3  614   7.645   6.170   8.809 -0.1692 -0.0972  0.1326
   21POPC   PO4  615   8.062   6.497   8.796  0.2695  0.2856  0.3766
   21POPC   GL1  616   7.778   6.460   8.467 -0.3120 -0.1661  0.0574
   21POPC   GL2  617   7.663   6.721   8.572 -0.2006 -0.1247  0.3688
   21POPC   C1A  618   7.719   6.511   8.046  0.3016  0.5867  0.0240
   21POPC   D2A  619   7.518   6.739   7.713 -0.1181 -0.1143 -0.1332
   21POPC   C3A  620   7.496   6.918   7.308 -0.0256  0.2286 -0.1103
   21POPC   C4A  621   7.499   7.291   7.040 -0.0780 -0.3070 -0.1806
   21POPC   C1B  622   7.771   6.968   8.232  0.0215  0.2358 -0.0238
   21POPC   C2B  623   7.753   7.148   7.777 -0.2840 -0.0518  0.0687
   21POPC   C3B  624   7.383   7.346   7.523 -0.0837 -0.0059 -0.0941
   21POPC   C4B  625   7.092   7.623   7.704 -0.1278  0.0528 -0.0754
   22POPC   NC3  626   4.087   7.709   9.425 -0.0331  0.3407  0.0366
   22POPC   PO4  627   4.150   8.123   9.107  0.1428 -0.1627  0.1101
   22POPC   GL1  628   4.240   8.167   8.688  0.0596 -0.1647 -0.1488
   22POPC   GL2  629   4.108   7.855   8.663  0.1808  0.2788  0.1912
   22POPC   C1A  630   4.555   8.270   8.363 -0.0079 -0.0452 -0.2578
   22POPC   D2A  631   4.702   8.635   8.211 -0.1365  0.0275 -0.0258
   22POPC   C3A  632   4.512   8.984   8.061 -0.0867  0.0384 -0.1913
   22POPC   C4A  633   4.415   9.376   7.936  0.2754  0.3470 -0.1094
   22POPC   C1B  634   4.390   7.844   8.255 -0.0307  0.0161  0.1370
   22POPC   C2B  635   4.848   7.812   8.032  0.0521 -0.0622  0.1928
   22POPC   C3B  636   5.276   7.778   8.341  0.2211 -0.1016  0.3454
   22POPC   C4B  637   5.466   7.870   8.726 -0.1226 -0.1991 -0.1769
   23POPC   NC3  638   5.436   4.366   8.374  0.2956 -0.1020 -0.0394
   23POPC   PO4  639   5.604   4.516   8.019 -0.2111 -0.1017  0.0053
   23POPC   GL1  640   5.697   4.657   7.667 -0.0811  0.0331  0.2846
   23POPC   GL2  641   5.585   4.590   7.423 -0.2943  0.2357  0.2909
   23POPC   C1A  642   6.009   4.907   7.408  0.1109 -0.0109  0.2993
   23POPC   D2A  643   5.984   5.264   7.269  0.1101 -0.1350  0.1650
   23POPC   C3A  644   6.245   5.232   6.884  0.0440  0.1052  0.1965
   23POPC   C4A  645   6.108   5.193   6.397 -0.0576 -0.0101 -0.3287
   23POPC   C1B  646   5.862   4.623   7.013  0.0196  0.0077  0.1343
   23POPC   C2B  647   6.104   4.775   6.776  0.2814  0.0473 -0.0740
   23POPC   C3B  648   6.226   4.687   6.440  0.1537  0.3163 -0.3057
   23POPC   C4B  649   5.896   4.292   6.323 -0.0569 -0.0478  0.2776
   24POPC   NC3  650   4.696   4.563   8.568  0.1139 -0.0434 -0.2403
   24POPC   PO4  651   4.960   4.197   8.509  0.0450 -0.0930 -0.0897
   24POPC   GL1  652   4.967   4.446   8.012 -0.1923 -0.1754 -0.0706
   24POPC   GL2  653   5.062   4.303   7.660  0.0029 -0.1120 -0.3416
   24POPC   C1A  654   4.736   4.670   7.621 -0.3149  0.3359 -0.4852
   24POPC   D2A  655   4.440   4.991   7.366  0.0103  0.3493 -0.0581
   24POPC   C3A  656   4.066   4.804   7.359  0.2617  0.1274  0.2953
   24POPC   C4A  657   3.752   4.565   7.519 -0.2911 -0.0265  0.2495
   24POPC   C1B  658   5.050   4.448   7.262 -0.1182 -0.2879 -0.2081
   24POPC   C2B  659   4.691   4.646   7.009 -0.1994  0.0177  0.3251
   24POPC   C3B  660   4.363   5.081   6.847 -0.1000 -0.2592 -0.2399
   24POPC   C4B  661   4.095   5.476   6.687 -0.2093  0.2298 -0.3684
   25POPC   NC3  662   6.716   9.030   9.302 -0.0181  0.1131 -0.3750
   25POPC   PO4  663   6.960   8.784   9.108  0.0856 -0.2195  0.2742
   25POPC   GL1  664   7.148   8.730   8.702 -0.2801  0.1049  0.3191
   25POPC   GL2  665   7.238   8.963   8.626 -0.1686  0.1727 -0.1097
   25POPC   C1A  666   7.328   8.581   8.303 -0.1417 -0.1114  0.0331
   25POPC   D2A  667   7.516   8.918   8.028 -0.0059  0.0331 -0.0483
   25POPC   C3A  668   7.347   9.069   7.761 -0.0384 -0.2696  0.2000
   25POPC   C4A  669   7.055   9.319   7.596 -0.3430 -0.0247  0.2224
   25POPC   C1B  670   6.963   8.946   8.230  0.0344 -0.0766  0.1141
   25POPC   C2B  671   6.785   8.995   7.809 -0.3019 -0.0906 -0.0675
   25POPC   C3B  672   6.601   8.790   7.452 -0.1285  0.0273 -0.2958
   25POPC   C4B  673   6.380   8.543   7.141  0.0696  0.0008  0.1342
   26POPC   NC3  674   0.876   8.902   7.899  0.0019  0.1091 -0.2766
   26POPC   PO4  675   0.628   9.320   8.020  0.3448  0.2728  0.3388
   26POPC   GL1  676   0.589   9.295   7.569 -0.0743 -0.1984  0.1357
   26POPC   GL2  677   0.559   8.935   7.520 -0.3321  0.0543 -0.2377
   26POPC   C1A  678   0.373   9.213   7.161 -0.3033 -0.0203  0.0105
   26POPC   D2A  679   0.243   8.908   6.848  0.0281 -0.0843 -0.2995
   26POPC   C3A  680  -0.189   9.061   6.540  0.0543 -0.1342  0.0572
   26POPC   C4A  681  -0.381   9.298   6.215  0.0379  0.0249 -0.2776
   26POPC   C1B  682   0.955   8.920   7.282 -0.3200 -0.0496 -0.1151
   26POPC   C2B  683   1.185   8.880   6.926 -0.1673 -0.2629 -0.1665
   26POPC   C3B  684   0.994   9.170   6.653  0.1373  0.3297 -0.0480
   26POPC   C4B  685   0.951   9.616   6.796  0.0384  0.0450  0.1102
   27POPC   NC3  686   1.426   4.164   8.436  0.1455 -0.2293 -0.1494
   27POPC   PO4  687   1.016   4.172   8.319 -0.0597 -0.0162  0.0830
   27POPC   GL1  688   1.296   4.262   7.972  0.1691  0.2242  0.2025
   27POPC   GL2  689   1.604   4.264   7.961  0.1254  0.2084 -0.2231
   27POPC   C1A  690   1.303   4.458   7.581 -0.0112 -0.0182  0.0347
   27POPC   D2A  691   1.305   4.346   7.171  0.0099 -0.1493 -0.3496
   27POPC   C3A  692   1.452   4.035   6.942 -0.0053  0.1833 -0.1977
   27POPC   C4A  693   1.286   3.946   6.505  0.2428 -0.0581  0.3472
   27POPC   C1B  694   1.849   4.254   7.625  0.2079  0.0169 -0.3814
   27POPC   C2B  695   1.818   4.158   7.212 -0.1983 -0.1617 -0.1402
   27POPC   C3B  696   2.058   4.104   6.821  0.3943 -0.0466  0.1316
   27POPC   C4B  697   2.302   4.382   6.663  0.2672 -0.1428  0.2806
   28POPC   NC3  698   3.294   4.354   8.151  0.2999 -0.0271  0.2856
   28POPC   PO4  699   3.257   3.883   8.169  0.2652  0.0222  0.0459
   28POPC   GL1  700   3.550   3.900   7.852  0.1862 -0.0863  0.2798
   28POPC   GL2  701   3.265   3.821   7.565 -0.0825  0.2466  0.1870
   28POPC   C1A  702   3.864   4.089   7.610 -0.0434  0.0230  0.3599
   28POPC   D2A  703   4.057   4.038   7.219  0.2591  0.0321 -0.0529
   28POPC   C3A  704   4.005   4.370   6.901  0.0016 -0.1127  0.2768
   28POPC   C4A  705   4.196   4.632   6.529 -0.1127  0.2114 -0.1407
   28POPC   C1B  706   3.227   3.814   7.192 -0.2940 -0.2355 -0.1072
   28POPC   C2B  707   3.018   4.020   6.841 -0.0181 -0.1800  0.0953
   28POPC   C3B  708   3.261   4.162   6.453 -0.2029 -0.1501  0.0374
   28POPC   C4B  709   3.296   4.366   6.068 -0.1605 -0.4159  0.1351
   29POPC   NC3  710   7.463   2.944   8.458  0.4060  0.1046 -0.2045
   29POPC   PO4  711   7.084   2.837   8.277  0.3378  0.1184 -0.4497
   29POPC   GL1  712   6.874   2.644   7.934 -0.0140 -0.0750  0.1223
   29POPC   GL2  713   6.966   2.323   7.755  0.1707 -0.2172  0.2356
   29POPC   C1A  714   6.691   2.726   7.563  0.3344 -0.0705  0.0478
   29POPC   D2A  715   6.642   2.851   7.129 -0.0598 -0.1886  0.1753
   29POPC   C3A  716   7.008   3.012   6.829 -0.0345 -0.2105  0.0075
   29POPC   C4A  717   6.819   3.135   6.434  0.2033 -0.1533 -0.0376
   29POPC   C1B  718   7.076   2.357   7.354 -0.2003 -0.0729  0.2002
   29POPC   C2B  719   7.027   2.432   6.925 -0.0451 -0.1230  0.3700
   29POPC   C3B  720   6.938   2.602   6.548 -0.0035  0.0585 -0.0196
   29POPC   C4B  721   6.777   2.734   6.208 -0.1310 -0.0366  0.0580
   30POPC   NC3  722   4.907   0.558   9.036 -0.2181 -0.1347  0.2371
   30POPC   PO4  723   4.648   0.614   8.700 -0.1864 -0.1084 -0.1043
   30POPC   GL1  724   4.693   0.581   8.108  0.0675  0.2222  0.0883
   30POPC   GL2  725   4.976   0.775   8.057 -0.0005 -0.1857  0.0419
   30POPC   C1A  726   4.622   0.552   7.713  0.1299 -0.1579 -0.0779
   30POPC   D2A  727   4.539   0.503   7.277 -0.1619 -0.1647 -0.0552
   30POPC   C3A  728   4.139   0.371   7.243  0.0905  0.1127  0.0716
   30POPC   C4A  729   4.000   0.019   7.365  0.3555  0.3466 -0.2396
   30POPC   C1B  730   4.773   1.070   7.759 -0.0661 -0.0327  0.1590
   30POPC   C2B  731   4.721   1.043   7.322  0.1322 -0.1786 -0.1130
   30POPC   C3B  732   4.717   0.845   6.939  0.1209  0.1560 -0.0705
   30POPC   C4B  733   4.504   0.509   6.758 -0.1978  0.1902  0.2879
   31POPC   NC3  734   3.556   8.141   8.688 -0.0543  0.0011  0.0989
   31POPC   PO4  735   3.141   8.192   8.413 -0.1481 -0.1310 -0.1138
   31POPC   GL1  736   2.943   8.538   8.115  0.1503 -0.1391  0.1126
   31POPC   GL2  737   3.194   8.769   7.931  0.0444  0.0116 -0.1854
   31POPC   C1A  738   2.811   8.655   7.654  0.3601  0.1397  0.1188
   31POPC   D2A  739   2.783   8.856   7.246  0.2967  0.0187 -0.0107
   31POPC   C3A  740   2.920   8.694   6.863 -0.3365 -0.1121 -0.2937
   31POPC   C4A  741   3.021   8.631   6.468  0.0470  0.0157 -0.4648
   31POPC   C1B  742   3.334   8.712   7.596 -0.4886  0.0224  0.0077
   31POPC   C2B  743   3.306   8.497   7.189 -0.3034 -0.1330 -0.0840
   31POPC   C3B  744   3.319   8.212   6.772 -0.1182  0.2664  0.3080
   31POPC   C4B  745   3.338   8.149   6.341 -0.1047  0.2549  0.0661
   32POPC   NC3  746   2.557   2.672   8.337  0.1611 -0.2824  0.0570
   32POPC   PO4  747   2.591   3.173   8.313 -0.2204 -0.1590 -0.2646
   32POPC   GL1  748   2.768   3.119   7.954  0.2442  0.0415 -0.2508
   32POPC   GL2  749   2.922   3.326   7.746 -0.0470  0.0501 -0.0507
   32POPC   C1A  750   2.543   2.958   7.611 -0.0312  0.0407 -0.3429
   32POPC   D2A  751   2.276   2.756   7.600 -0.3042  0.0429  0.1580
   32POPC   C3A  752   2.135   2.635   7.140 -0.0866 -0.1252 -0.2722
   32POPC   C4A  753   1.897   2.578   6.731 -0.0226  0.0717  0.0244
   32POPC   C1B  754   2.900   3.443   7.292 -0.3514  0.3292 -0.0438
   32POPC   C2B  755   2.583   3.456   6.990 -0.0306  0.0993 -0.1918
   32POPC   C3B  756   2.407   3.041   6.723  0.1581  0.2360  0.0180
   32POPC   C4B  757   2.179   2.859   6.405 -0.0897 -0.1930 -0.2268
   33POPC   NC3  758   9.464   6.352   8.024  0.1144 -0.1769 -0.0086
   33POPC   PO4  759   9.509   6.732   8.301  0.1710  0.2848 -0.0407
   33POPC   GL1  760   9.341   6.835   7.859 -0.1349 -0.0052  0.0535
   33POPC   GL2  761   8.918   6.850   7.885 -0.3507  0.0585 -0.3244
   33POPC   C1A  762   9.497   6.993   7.460  0.1769 -0.0237  0.0640
   33POPC   D2A  763   9.702   6.763   7.135 -0.1385  0.1348  0.1950
   33POPC   C3A  764   9.372   6.495   6.990 -0.0922 -0.1095 -0.2479
   33POPC   C4A  765   9.101   6.402   6.654  0.0289 -0.1500 -0.3327
   33POPC   C1B  766   8.610   6.981   7.565 -0.1549 -0.1195  0.0110
   33POPC   C2B  767   8.530   7.051   7.095 -0.2100 -0.1601 -0.2323
   33POPC   C3B  768   8.260   6.866   6.689 -0.1677 -0.1255 -0.0468
   33POPC   C4B  769   8.472   6.793   6.183  0.2367  0.0799 -0.2435
   34POPC   NC3  770   4.555   1.054   8.465 -0.0988  0.2164 -0.0545
   34POPC   PO4  771   4.836   1.362   8.499 -0.1496 -0.0403  0.0622
   34POPC   GL1  772   4.603   1.630   8.184  0.0787 -0.3694 -0.1753
   34POPC   GL2  773   4.425   1.338   8.090 -0.2968 -0.1131  0.3097
   34POPC   C1A  774   4.637   1.674   7.734 -0.2727  0.0432  0.0368
   34POPC   D2A  775   4.615   1.545   7.381  0.2553  0.0479  0.3234
   34POPC   C3A  776   4.294   1.771   7.079  0.2139  0.0183  0.0894
   34POPC   C4A  777   4.035   1.984   6.950  0.2950  0.0742  0.3592
   34POPC   C1B  778   4.214   1.096   7.845 -0.0356 -0.0751  0.0012
   34POPC   C2B  779   4.267   0.988   7.465  0.1360  0.2058  0.2280
   34POPC   C3B  780   4.208   0.963   7.021  0.0566  0.3893  0.1259
   34POPC   C4B  781   4.042   0.793   6.717 -0.1550  0.0972 -0.0587
   35POPC   NC3  782   9.021   2.572   8.111  0.0988  0.3188  0.2578
   35POPC   PO4  783   8.543   2.710   8.237 -0.1355 -0.0868  0.0077
   35POPC   GL1  784   8.631   2.632   7.781 -0.0118  0.1434 -0.1734
   35POPC   GL2  785   8.597   2.755   7.537 -0.2467 -0.0311  0.0906
   35POPC   C1A  786   8.894   2.374   7.463 -0.3636 -0.2064 -0.2889
   35POPC   D2A  787   9.057   2.143   7.149  0.1635 -0.0186 -0.0652
   35POPC   C3A  788   9.040   2.445   6.747 -0.0024  0.0030 -0.0326
   35POPC   C4A  789   9.010   2.690   6.351  0.0739 -0.1112  0.0930
   35POPC   C1B  790   8.685   3.186   7.413 -0.1375  0.0911 -0.1633
   35POPC   C2B  791   8.473   3.473   7.018  0.4141  0.2949 -0.3618
   35POPC   C3B  792   8.451   3.664   6.599  0.0856 -0.1227  0.0053
   35POPC   C4B  793   8.653   3.765   6.325 -0.2907  0.0356 -0.2242
   36POPC   NC3  794   8.772   8.854   8.456 -0.3316 -0.3796  0.0958
   36POPC   PO4  795   8.369   8.980   8.135 -0.0295 -0.1346 -0.1673
   36POPC   GL1  796   8.209   8.958   7.709 -0.0505 -0.2005  0.0353
   36POPC   GL2  797   7.888   8.983   7.730  0.0057 -0.0711 -0.3626
   36POPC   C1A  798   8.067   9.081   7.226  0.0968  0.3598  0.0527
   36POPC   D2A  799   7.777   9.154   6.892 -0.3774 -0.0361 -0.1160
   36POPC   C3A  800   7.757   9.183   6.490 -0.0727 -0.2108  0.1916
   36POPC   C4A  801   7.901   9.005   6.058  0.1898 -0.0465  0.1966
   36POPC   C1B  802   7.557   8.961   7.327  0.4400 -0.3258  0.0300
   36POPC   C2B  803   7.386   8.748   6.945 -0.0478 -0.0091 -0.0503
   36POPC   C3B  804   7.106   8.482   6.638  0.0307  0.0322  0.3752
   36POPC   C4B  805   7.115   8.375   6.203  0.1567  0.0632 -0.0057
   37POPC   NC3  806   7.386   3.969   8.150  0.1766 -0.1203 -0.4517
   37POPC   PO4  807   7.836   4.128   8.013  0.0386 -0.1049 -0.3603
   37POPC   GL1  808   7.638   3.922   7.721  0.0910 -0.1930 -0.3650
   37POPC   GL2  809   7.293   4.043   7.671 -0.3199  0.4203 -0.0229
   37POPC   C1A  810   7.593   3.885   7.322  0.1625 -0.0131 -0.0988
   37POPC   D2A  811   7.453   3.802   6.939  0.0920  0.0888  0.0881
   37POPC   C3A  812   7.007   3.539   6.991  0.1026  0.0248 -0.0558
   37POPC   C4A  813   6.682   3.410   6.984 -0.1999 -0.0434 -0.2167
   37POPC   C1B  814   7.167   4.153   7.250 -0.2310 -0.0997  0.0605
   37POPC   C2B  815   6.987   4.381   6.894  0.0521  0.1078  0.0775
   37POPC   C3B  816   6.675   4.380   6.629 -0.0446 -0.0014  0.2212
   37POPC   C4B  817   6.290   4.282   6.875  0.1109  0.1605  0.2859
   38POPC   NC3  818   2.579   6.516   8.236 -0.2909 -0.1532 -0.0763
   38POPC   PO4  819   2.474   6.956   8.126 -0.0940 -0.1634 -0.0608
   38POPC   GL1  820   2.782   6.776   7.831  0.1472 -0.0280  0.4022
   38POPC   GL2  821   3.070   6.894   7.779 -0.0490 -0.1968  0.3441
   38POPC   C1A  822   2.623   6.741   7.389 -0.0504  0.2452 -0.1204
   38POPC   D2A  823   2.725   6.804   6.940 -0.2817 -0.3020  0.0479
   38POPC   C3A  824   3.116   6.854   6.709  0.1548  0.1070 -0.0549
   38POPC   C4A  825   3.249   6.899   6.263 -0.2358  0.1372 -0.4712
   38POPC   C1B  826   3.118   6.686   7.419  0.2107  0.1257  0.0968
   38POPC   C2B  827   3.414   6.664   7.055  0.3518 -0.1431 -0.0268
   38POPC   C3B  828   3.645   6.428   6.674  0.2384  0.0210  0.1991
   38POPC   C4B  829   3.516   6.450   6.228  0.0266 -0.2075  0.1523
   39POPC   NC3  830   3.595   0.724   8.480 -0.0020  0.1058  0.0203
   39POPC   PO4  831   3.328   0.509   8.147 -0.2091  0.1200 -0.0638
   39POPC   GL1  832   3.056   0.492   7.906 -0.0000  0.0582  0.1924
   39POPC   GL2  833   2.954   0.797   7.795 -0.0281  0.0108  0.1155
   39POPC   C1A  834   3.192   0.452   7.485  0.1367  0.3973  0.4167
   39POPC   D2A  835   3.083   0.741   7.052  0.1708 -0.1036  0.2371
   39POPC   C3A  836   2.807   0.623   6.815 -0.2936  0.1856  0.3587
   39POPC   C4A  837   2.606   0.533   6.429 -0.0331 -0.1780 -0.0982
   39POPC   C1B  838   2.853   0.980   7.470 -0.0265  0.5448  0.0125
   39POPC   C2B  839   2.554   0.942   7.109  0.2549 -0.0720  0.0497
   39POPC   C3B  840   2.289   0.922   6.778 -0.0782  0.1723  0.3020
   39POPC   C4B  841   2.024   0.816   6.457 -0.1532  0.1222  0.0419
   40POPC   NC3  842   5.862   8.707   9.212  0.1673  0.1428 -0.2185
   40POPC   PO4  843   5.652   8.375   9.131  0.1351 -0.0628  0.0849
   40POPC   GL1  844   5.482   8.562   8.717  0.0927 -0.6312  0.3196
   40POPC   GL2  845   5.238   8.770   8.520 -0.0762  0.0835 -0.0511
   40POPC   C1A  846   5.823   8.655   8.401  0.0781  0.1310  0.0501
   40POPC   D2A  847   6.292   8.645   8.311 -0.3124  0.0956  0.1175
   40POPC   C3A  848   6.544   8.211   8.228 -0.1298  0.0839  0.2736
   40POPC   C4A  849   6.757   7.917   7.904  0.2000  0.1972 -0.3818
   40POPC   C1B  850   5.310   8.658   8.087 -0.3494  0.0775 -0.1013
   40POPC   C2B  851   5.504   8.906   7.759  0.3681 -0.4276  0.0941
   40POPC   C3B  852   5.772   8.694   7.554  0.0132  0.0038 -0.0111
   40POPC   C4B  853   6.063   8.315   7.396  0.3215 -0.0748 -0.0180
   41POPC   NC3  854   2.573   8.177   8.406 -0.1019  0.1448 -0.0516
   41POPC   PO4  855   2.467   7.827   8.205  0.0131  0.3617 -0.1446
   41POPC   GL1  856   2.436   7.473   7.890  0.5737  0.3005  0.0894
   41POPC   GL2  857   2.673   7.533   7.777 -0.0761 -0.2667 -0.1424
   41POPC   C1A  858   2.421   7.198   7.523 -0.1169  0.1014  0.3420
   41POPC   D2A  859   2.506   7.226   7.066  0.0578 -0.1647  0.0766
   41POPC   C3A  860   2.448   7.314   6.574 -0.0259 -0.0922  0.3728
   41POPC   C4A  861   2.136   7.351   6.224 -0.0220  0.0715  0.1848
   41POPC   C1B  862   2.861   7.258   7.491  0.1149 -0.0354 -0.2874
   41POPC   C2B  863   3.052   7.155   7.121 -0.3874 -0.0446 -0.3067
   41POPC   C3B  864   3.432   7.206   6.929 -0.2681 -0.1663  0.3605
   41POPC   C4B  865   3.874   7.385   6.730  0.1640  0.0018  0.3889
   42POPC   NC3  866   8.508   9.389   8.344  0.4730  0.2832 -0.0519
   42POPC   PO4  867   8.671   9.730   8.316  0.1758 -0.2176  0.1647
   42POPC   GL1  868   8.622   9.562   7.882  0.0897 -0.1204 -0.3532
   42POPC   GL2  869   8.920   9.487   7.680 -0.0854 -0.0299 -0.0568
   42POPC   C1A  870   8.505   9.269   7.529  0.1690 -0.0698 -0.2123
   42POPC   D2A  871   8.677   9.230   7.150 -0.0499 -0.2239 -0.0589
   42POPC   C3A  872   8.355   9.254   6.802  0.2702  0.0810  0.0475
   42POPC   C4A  873   8.327   9.416   6.409 -0.0498  0.0848 -0.1228
   42POPC   C1B  874   9.057   9.583   7.312 -0.1498  0.0350  0.1226
   42POPC   C2B  875   8.708   9.774   7.116 -0.1193  0.0878 -0.0644
   42POPC   C3B  876   8.747   9.697   6.649  0.1449 -0.3933 -0.0140
   42POPC   C4B  877   8.842   9.241   6.627  0.1202  0.2782 -0.2999
   43POPC   NC3  878   3.767   2.753   7.943 -0.0464 -0.0017  0.2162
   43POPC   PO4  879   3.852   2.338   8.068 -0.1066  0.3675  0.0444
   43POPC   GL1  880   4.243   2.216   7.782  0.2335  0.2794 -0.2430
   43POPC   GL2  881   4.557   2.125   7.978  0.1250  0.1654  0.1003
   43POPC   C1A  882   4.246   2.196   7.382  0.1207 -0.0845 -0.0072
   43POPC   D2A  883   4.570   2.243   7.048  0.0854  0.0224 -0.1203
   43POPC   C3A  884   4.706   2.565   6.939  0.2245 -0.0293 -0.1471
   43POPC   C4A  885   5.076   2.790   6.731 -0.2437 -0.3533  0.0252
   43POPC   C1B  886   4.745   2.094   7.486 -0.0415  0.1741 -0.0277
   43POPC   C2B  887   4.888   1.884   7.115 -0.3160 -0.0609  0.1935
   43POPC   C3B  888   4.758   1.764   6.639 -0.3099  0.0906 -0.0725
   43POPC   C4B  889   4.231   1.692   6.540  0.0907 -0.2825 -0.1840
   44POPC   NC3  890   1.866   5.126   8.675  0.2220 -0.0079  0.1259
   44POPC   PO4  891   1.517   5.023   8.439  0.0740 -0.1168  0.0432
   44POPC   GL1  892   1.543   5.079   8.063 -0.0917 -0.1178  0.0970
   44POPC   GL2  893   1.635   4.776   7.849  0.0147  0.0809 -0.1554
   44POPC   C1A  894   1.746   5.248   7.718 -0.2535  0.0754 -0.2049
   44POPC   D2A  895   1.627   5.246   7.256  0.0428 -0.1883  0.1291
   44POPC   C3A  896   1.888   5.189   6.901 -0.0201 -0.1654  0.1680
   44POPC   C4A  897   1.773   5.231   6.492 -0.0046 -0.2765  0.0360
   44POPC   C1B  898   1.855   4.731   7.568 -0.0470 -0.0137 -0.3606
   44POPC   C2B  899   1.793   4.732   7.209  0.2594  0.2737  0.1269
   44POPC   C3B  900   1.660   4.603   6.949  0.2528  0.0759  0.2871
   44POPC   C4B  901   1.633   4.400   6.611 -0.1207 -0.4447  0.1149
   45POPC   NC3  902   6.500   0.677   9.227  0.0217 -0.0509 -0.0201
   45POPC   PO4  903   6.547   0.425   8.834 -0.0629 -0.0369 -0.3509
   45POPC   GL1  904   6.495   0.187   8.401  0.2381 -0.0982  0.3646
   45POPC   GL2  905   6.733   0.319   8.083  0.1098  0.1757 -0.0454
   45POPC   C1A  906   6.181  -0.143   8.187  0.1505 -0.2836 -0.3018
   45POPC   D2A  907   5.712  -0.228   7.894  0.4312  0.0197  0.1325
   45POPC   C3A  908   5.809  -0.444   7.530 -0.1430 -0.2404  0.4219
   45POPC   C4A  909   6.122  -0.749   7.355 -0.2101  0.2806  0.0049
   45POPC   C1B  910   6.258   0.259   7.914 -0.1829  0.0659  0.0662
   45POPC   C2B  911   6.124   0.043   7.574  0.2834 -0.3004 -0.2725
   45POPC   C3B  912   6.025  -0.073   7.138 -0.1420  0.0420  0.3612
   45POPC   C4B  913   5.601  -0.070   7.117 -0.2558  0.0526 -0.1662
   46POPC   NC3  914   6.298   8.382   9.506  0.5947  0.4080  0.0416
   46POPC   PO4  915   6.431   8.616   9.196  0.2263 -0.1641 -0.0727
   46POPC   GL1  916   6.593   8.437   8.821 -0.0784 -0.3203 -0.2110
   46POPC   GL2  917   6.989   8.265   8.895  0.2760  0.2062 -0.0736
   46POPC   C1A  918   6.832   8.492   8.468  0.0862  0.0472  0.0176
   46POPC   D2A  919   6.864   8.510   7.975  0.2290  0.0563 -0.4350
   46POPC   C3A  920   6.551   8.299   7.727 -0.3017  0.0363  0.2486
   46POPC   C4A  921   6.519   8.131   7.342 -0.1658  0.0182  0.0174
   46POPC   C1B  922   7.118   8.088   8.507 -0.1917  0.2272  0.0092
   46POPC   C2B  923   7.143   8.092   8.180  0.3169 -0.1088  0.1282
   46POPC   C3B  924   7.161   8.154   7.725  0.0175 -0.2231  0.0425
   46POPC   C4B  925   7.024   7.923   7.246 -0.0143 -0.1066  0.1311
   47POPC   NC3  926   9.311   8.208   8.171 -0.2427  0.0899  0.3724
   47POPC   PO4  927   9.209   8.695   8.096 -0.0534  0.2018  0.0735
   47POPC   GL1  928   8.779   8.674   7.914 -0.2155  0.0428 -0.1912
   47POPC   GL2  929   8.749   8.906   7.667 -0.2315  0.2460  0.0265
   47POPC   C1A  930   8.521   8.424   7.722 -0.0686 -0.1788  0.1765
   47POPC   D2A  931   8.428   8.060   7.426  0.3046  0.0833  0.3813
   47POPC   C3A  932   8.319   8.382   7.049  0.2934  0.1185 -0.2705
   47POPC   C4A  933   8.059   8.560   6.605  0.1560  0.0250  0.1185
   47POPC   C1B  934   8.528   8.775   7.327 -0.1395 -0.0417  0.2088
   47POPC   C2B  935   8.530   8.819   6.831  0.1173  0.0572 -0.2552
   47POPC   C3B  936   8.584   8.785   6.545 -0.0807  0.1806 -0.1818
   47POPC   C4B  937   8.356   8.863   6.224 -0.0069 -0.0740  0.4249
   48POPC   NC3  938   1.210   8.277   8.156  0.0700 -0.5208  0.2128
   48POPC   PO4  939   0.977   8.052   7.773  0.2854  0.0640  0.0064
   48POPC   GL1  940   1.141   7.763   7.449 -0.3742 -0.0316 -0.0556
   48POPC   GL2  941   1.050   7.434   7.377 -0.1826 -0.0588 -0.0777
   48POPC   C1A  942   1.332   7.850   7.079  0.2838 -0.0029 -0.1280
   48POPC   D2A  943   1.756   7.883   6.864 -0.1163 -0.0472  0.0237
   48POPC   C3A  944   1.775   7.821   6.379 -0.0054 -0.3105  0.1721
   48POPC   C4A  945   1.669   8.062   5.877  0.1162  0.2915 -0.0204
   48POPC   C1B  946   1.040   7.440   6.987 -0.2663  0.0065  0.2492
   48POPC   C2B  947   0.938   7.291   6.730 -0.0912 -0.0006  0.2390
   48POPC   C3B  948   0.818   7.094   6.295 -0.2240 -0.4535 -0.0483
   48POPC   C4B  949   1.140   6.821   6.098  0.2489  0.1187 -0.0631
   49POPC   NC3  950   0.453   4.740   8.004 -0.0096 -0.4635  0.1934
   49POPC   PO4  951   0.158   4.434   8.071 -0.1418  0.0256 -0.3281
   49POPC   GL1  952   0.162   4.569   7.639 -0.3657 -0.0938  0.0792
   49POPC   GL2  953   0.446   4.381   7.546 -0.0277 -0.1034  0.3125
   49POPC   C1A  954  -0.154   4.881   7.386 -0.0184  0.0654 -0.0583
   49POPC   D2A  955  -0.164   5.192   7.102  0.0975  0.0360  0.0443
   49POPC   C3A  956  -0.492   5.510   6.919  0.4089  0.1776  0.0732
   49POPC   C4A  957  -0.645   5.623   6.606 -0.0785  0.3432  0.0882
   49POPC   C1B  958   0.478   4.598   7.196  0.1505  0.0005 -0.2188
   49POPC   C2B  959   0.196   4.807   6.962 -0.1554  0.1602  0.1608
   49POPC   C3B  960   0.218   4.998   6.508  0.2081 -0.0473  0.1634
   49POPC   C4B  961   0.142   5.021   6.180 -0.1593 -0.1264 -0.0618
   50POPC   NC3  962   3.543   2.598   8.564  0.1864 -0.1322  0.1611
   50POPC   PO4  963   3.363   2.585   8.190 -0.2212 -0.0473 -0.0085
   50POPC   GL1  964   3.347   2.496   7.769 -0.0117 -0.1374 -0.2879
   50POPC   GL2  965   3.622   2.314   7.644 -0.2770 -0.1252 -0.1040
   50POPC   C1A  966   3.141   2.256   7.469  0.0433 -0.4908 -0.1311
   50POPC   D2A  967   3.043   1.959   7.150  0.4522 -0.0794  0.1593
   50POPC   C3A  968   2.696   1.717   7.052 -0.1657 -0.0603 -0.1561
   50POPC   C4A  969   2.480   1.822   6.663 -0.0160  0.1098 -0.2990
   50POPC   C1B  970   3.512   2.202   7.173  0.1357 -0.1278 -0.0432
   50POPC   C2B  971   3.553   2.103   6.777  0.1301 -0.0002 -0.0473
   50POPC   C3B  972   3.322   1.934   6.412 -0.1304 -0.3519 -0.0808
   50POPC   C4B  973   3.372   1.538   6.302  0.1448 -0.0293 -0.2271
   51POPC   NC3  974   6.619   2.378   8.472  0.0313  0.2356  0.0602
   51POPC   PO4  975   6.256   2.373   8.504  0.0578 -0.2554  0.0796
   51POPC   GL1  976   6.315   2.317   8.050  0.0106 -0.2877  0.1651
   51POPC   GL2  977   6.577   2.168   7.973 -0.1293 -0.0471 -0.1171
   51POPC   C1A  978   6.327   2.304   7.546  0.0762 -0.3214 -0.0327
   51POPC   D2A  979   6.559   2.338   7.281  0.2127  0.2002 -0.1904
   51POPC   C3A  980   6.496   2.395   6.853 -0.0520 -0.0277  0.0119
   51POPC   C4A  981   6.478   2.383   6.425  0.1087 -0.3816  0.1715
   51POPC   C1B  982   6.317   1.856   7.732  0.1537 -0.2620  0.0382
   51POPC   C2B  983   6.087   1.480   7.518 -0.0164 -0.1899  0.0107
   51POPC   C3B  984   6.042   1.165   7.160 -0.1348 -0.2352 -0.0044
   51POPC   C4B  985   5.860   1.214   6.673  0.0523  0.1181  0.1328
   52POPC   NC3  986   6.167   4.222   8.074 -0.3062  0.2341 -0.4017
   52POPC   PO4  987   5.758   3.914   8.116  0.2954 -0.0908 -0.4055
   52POPC   GL1  988   5.792   4.136   7.759 -0.1526 -0.4174 -0.2348
   52POPC   GL2  989   5.516   4.112   7.707 -0.2850  0.1660  0.1235
   52POPC   C1A  990   5.988   4.118   7.357 -0.1370 -0.1104  0.2106
   52POPC   D2A  991   5.859   4.007   6.901 -0.0373 -0.1677  0.0510
   52POPC   C3A  992   6.139   3.852   6.539 -0.1119  0.0678  0.3745
   52POPC   C4A  993   6.366   4.077   6.286 -0.1119 -0.3109 -0.0423
   52POPC   C1B  994   5.484   4.067   7.293  0.0854 -0.1393  0.1018
   52POPC   C2B  995   5.434   4.326   6.888  0.1095  0.1367  0.1148
   52POPC   C3B  996   5.560   4.547   6.613 -0.0067  0.2521 -0.3420
   52POPC   C4B  997   5.706   4.870   6.334 -0.0435  0.0441  0.0950
   53POPC   NC3  998   9.239   2.068   8.924  0.1332  0.2701 -0.0951
   53POPC   PO4  999   9.399   1.990   8.458  0.0681 -0.2283 -0.0778
   53POPC   GL1 1000   9.120   2.038   8.030 -0.3030  0.2226  0.2467
   53POPC   GL2 1001   8.815   2.089   7.853 -0.5499 -0.3463 -0.1698
   53POPC   C1A 1002   9.233   1.976   7.628  0.2570 -0.1098 -0.1703
   53POPC   D2A 1003   9.557   1.937   7.271  0.0779  0.2520 -0.3872
   53POPC   C3A 1004   9.409   1.858   6.886  0.0208  0.4006 -0.3004
   53POPC   C4A 1005   9.603   1.847   6.543 -0.2109 -0.0502  0.0635
   53POPC   C1B 1006   8.747   1.821   7.502  0.0827  0.0453  0.1224
   53POPC   C2B 1007   9.087   1.667   7.274  0.0376  0.2455  0.0766
   53POPC   C3B 1008   9.436   1.501   7.452 -0.1907 -0.0373 -0.2033
   53POPC   C4B 1009   9.356   1.363   7.836 -0.0323 -0.0408  0.5616
   54POPC   NC3 1010   8.329   8.135   8.695  0.3464  0.0668 -0.4123
   54POPC   PO4 1011   8.695   8.113   8.509  0.0141 -0.1043 -0.1795
   54POPC   GL1 1012   8.668   8.100   8.076 -0.3514 -0.2405 -0.0038
   54POPC   GL2 1013   8.923   8.200   7.853 -0.1186 -0.5145  0.0307
   54POPC   C1A 1014   8.504   7.755   7.827  0.2732  0.2101 -0.1214
   54POPC   D2A 1015   8.400   7.436   7.410  0.0094  0.2499 -0.0934
   54POPC   C3A 1016   8.277   7.734   7.072 -0.0504 -0.2815  0.1112
   54POPC   C4A 1017   8.436   7.904   6.689 -0.1270 -0.0506 -0.0558
   54POPC   C1B 1018   8.836   8.279   7.377 -0.1255  0.0957  0.3464
   54POPC   C2B 1019   8.880   8.313   7.022 -0.1576 -0.0596 -0.0827
   54POPC   C3B 1020   8.689   8.338   6.688 -0.1935  0.2224 -0.0085
   54POPC   C4B 1021   8.515   8.265   6.257 -0.4575 -0.3145  0.2297
   55POPC   NC3 1022   0.067   9.420   8.303  0.0938  0.0819  0.2608
   55POPC   PO4 1023   0.321   9.716   8.233 -0.2681 -0.0019 -0.0867
   55POPC   GL1 1024   0.199   9.851   7.791 -0.1727 -0.1854  0.4265
   55POPC   GL2 1025   0.396   9.770   7.710 -0.2602 -0.0991 -0.1107
   55POPC   C1A 1026   0.205  10.082   7.279  0.1173  0.0340  0.2676
   55POPC   D2A 1027   0.444  10.164   6.980 -0.2454 -0.1095  0.2802
   55POPC   C3A 1028   0.909  10.090   7.042 -0.0119 -0.0779 -0.1212
   55POPC   C4A 1029   1.222   9.884   7.211  0.1328 -0.0494  0.2614
   55POPC   C1B 1030   0.656  10.102   7.467 -0.1332  0.0178 -0.2638
   55POPC   C2B 1031   0.568  10.508   7.306  0.1058  0.3913 -0.0371
   55POPC   C3B 1032   0.452  10.860   6.943  0.0938  0.4839 -0.0978
   55POPC   C4B 1033   0.232  11.003   6.566 -0.3509 -0.2659 -0.2132
   56POPC   NC3 1034   1.368   9.670   7.836 -0.2405 -0.0651  0.1886
   56POPC   PO4 1035   1.177   9.310   7.989  0.1720  0.2148 -0.2507
   56POPC   GL1 1036   1.143   9.265   7.572 -0.0397 -0.0061  0.1214
   56POPC   GL2 1037   1.399   9.446   7.402 -0.0990 -0.0677  0.3235
   56POPC   C1A 1038   0.899   9.408   7.230 -0.1279 -0.1606 -0.2275
   56POPC   D2A 1039   0.543   9.688   7.197 -0.1798  0.3332  0.1196
   56POPC   C3A 1040   0.469   9.710   6.764 -0.1137 -0.0451  0.1263
   56POPC   C4A 1041   0.606   9.975   6.467  0.0099 -0.0379  0.1381
   56POPC   C1B 1042   1.569   9.349   7.013 -0.0066  0.3789 -0.0730
   56POPC   C2B 1043   1.546   9.178   6.646  0.3510  0.0794  0.0307
   56POPC   C3B 1044   1.561   8.789   6.557 -0.0480  0.1402  0.0493
   56POPC   C4B 1045   1.926   8.501   6.680  0.2465 -0.0592  0.2373
   57POPC   NC3 1046   6.796   5.576   8.595 -0.0732 -0.1800  0.2225
   57POPC   PO4 1047   6.954   5.284   8.330  0.0650  0.1074 -0.1308
   57POPC   GL1 1048   6.836   5.103   7.940  0.1708 -0.2510 -0.4011
   57POPC   GL2 1049   6.920   4.828   7.927  0.1106 -0.1544  0.1239
   57POPC   C1A 1050   6.655   5.423   7.697  0.2030  0.3214  0.2378
   57POPC   D2A 1051   6.615   5.851   7.489 -0.3768 -0.0201 -0.0165
   57POPC   C3A 1052   6.926   6.082   7.468 -0.0205  0.1130  0.1723
   57POPC   C4A 1053   7.371   6.303   7.423  0.2680  0.1803 -0.3597
   57POPC   C1B 1054   6.776   4.861   7.509 -0.0616  0.1280  0.0860
   57POPC   C2B 1055   6.608   5.180   7.257  0.1286 -0.0641 -0.1219
   57POPC   C3B 1056   6.639   5.589   6.960  0.1305  0.1251 -0.0774
   57POPC   C4B 1057   6.634   5.515   6.583 -0.2963  0.3117 -0.0737
   58POPC   NC3 1058   1.118   3.817   8.738  0.0347  0.2634 -0.1241
   58POPC   PO4 1059   1.418   3.681   8.381 -0.2030  0.0197  0.2751
   58POPC   GL1 1060   1.405   3.700   8.046 -0.0770  0.0809 -0.1254
   58POPC   GL2 1061   1.071   3.796   7.864  0.0774  0.2336  0.0930
   58POPC   C1A 1062   1.733   3.700   7.779  0.3250  0.1325 -0.0804
   58POPC   D2A 1063   2.102   3.821   7.711 -0.0155 -0.2912 -0.0353
   58POPC   C3A 1064   2.144   3.670   7.159 -0.1739 -0.1010 -0.1704
   58POPC   C4A 1065   1.909   3.605   6.797  0.1053 -0.2144  0.0306
   58POPC   C1B 1066   1.310   3.933   7.520  0.0364  0.0949 -0.1697
   58POPC   C2B 1067   1.533   3.676   7.252  0.0404  0.4276  0.1533
   58POPC   C3B 1068   1.455   3.324   6.841 -0.0413  0.0112 -0.2906
   58POPC   C4B 1069   1.764   3.066   6.786 -0.1000  0.2143 -0.0424
   59POPC   NC3 1070   0.863   3.154   8.225  0.0114 -0.1007 -0.0342
   59POPC   PO4 1071   0.461   2.988   8.157 -0.0479 -0.0223 -0.0979
   59POPC   GL1 1072   0.540   2.904   7.759  0.1512 -0.0986 -0.0011
   59POPC   GL2 1073   0.610   2.608   7.770  0.0664 -0.0416  0.1524
   59POPC   C1A 1074   0.316   2.895   7.350 -0.1302 -0.0754 -0.1458
   59POPC   D2A 1075   0.303   3.108   6.927 -0.1010  0.0495  0.1910
   59POPC   C3A 1076   0.175   3.430   6.539  0.2611 -0.1096  0.0133
   59POPC   C4A 1077   0.142   3.528   6.109 -0.2830 -0.1599 -0.1226
   59POPC   C1B 1078   0.861   2.728   7.362  0.3311  0.1393  0.2944
   59POPC   C2B 1079   0.814   2.758   6.946  0.0123  0.3238  0.1177
   59POPC   C3B 1080   0.682   2.647   6.573  0.2155 -0.1466  0.0980
   59POPC   C4B 1081   0.540   2.609   6.148  0.0818 -0.4858 -0.2895
   60POPC   NC3 1082   9.628   7.197   8.118  0.1837 -0.3620 -0.0166
   60POPC   PO4 1083   9.819   7.661   7.996  0.2397 -0.3455 -0.0627
   60POPC   GL1 1084   9.671   7.812   7.526  0.1919  0.0250  0.0154
   60POPC   GL2 1085   9.865   8.008   7.436 -0.1430  0.1936  0.3070
   60POPC   C1A 1086   9.786   7.625   7.098 -0.2626  0.1840  0.0999
   60POPC   D2A 1087   9.623   7.678   6.763  0.1077  0.0736  0.4786
   60POPC   C3A 1088   9.812   8.022   6.426  0.1940 -0.1884 -0.0448
   60POPC   C4A 1089   9.781   8.237   5.972 -0.1037  0.1347  0.0171
   60POPC   C1B 1090   9.910   8.054   6.939  0.3163 -0.2314  0.1169
   60POPC   C2B 1091  10.096   8.353   6.715  0.1034 -0.3575 -0.1078
   60POPC   C3B 1092  10.270   8.372   6.462 -0.0663  0.0264 -0.3545
   60POPC   C4B 1093  10.283   8.012   6.183  0.0286  0.2112 -0.1670
   61POPC   NC3 1094   0.351   8.351   8.453 -0.0744 -0.1803  0.0853
   61POPC   PO4 1095   0.650   8.392   8.076 -0.3223  0.4509  0.3996
   61POPC   GL1 1096   0.464   8.434   7.668  0.0810  0.2949  0.1531
   61POPC   GL2 1097   0.620   8.264   7.377 -0.0548  0.2379  0.0466
   61POPC   C1A 1098   0.200   8.496   7.274  0.2043 -0.1958  0.1267
   61POPC   D2A 1099  -0.212   8.290   7.184  0.1560 -0.1059  0.0896
   61POPC   C3A 1100  -0.231   8.183   6.775 -0.0910 -0.1448 -0.0762
   61POPC   C4A 1101  -0.580   7.933   6.705  0.2364  0.2958  0.1768
   61POPC   C1B 1102   0.609   8.642   7.135 -0.0189 -0.1366 -0.1923
   61POPC   C2B 1103   0.679   8.838   6.682  0.2974  0.4272 -0.1221
   61POPC   C3B 1104   0.494   8.796   6.238  0.2223  0.3254 -0.2330
   61POPC   C4B 1105   0.511   8.460   6.005 -0.0528 -0.0970 -0.0430
   62POPC   NC3 1106   5.260   3.500   8.222  0.1544  0.3421 -0.2242
   62POPC   PO4 1107   4.876   3.381   7.940 -0.0759  0.0469  0.0466
   62POPC   GL1 1108   4.737   3.440   7.558 -0.1713 -0.0818 -0.2083
   62POPC   GL2 1109   4.659   3.068   7.490  0.1153  0.1153 -0.0246
   62POPC   C1A 1110   4.603   3.591   7.042 -0.4841  0.1926  0.0651
   62POPC   D2A 1111   4.550   3.672   6.614 -0.2303  0.2079  0.0427
   62POPC   C3A 1112   4.595   3.631   6.232  0.0469  0.1261  0.5199
   62POPC   C4A 1113   4.424   3.553   5.823 -0.0858  0.1269  0.0789
   62POPC   C1B 1114   4.866   3.204   6.997 -0.4173  0.3180  0.1782
   62POPC   C2B 1115   4.721   3.225   6.562 -0.4844  0.1530  0.2583
   62POPC   C3B 1116   4.273   3.265   6.532 -0.0116 -0.0930 -0.0808
   62POPC   C4B 1117   3.763   3.302   6.526  0.0700 -0.0601  0.0844
   63POPC   NC3 1118   0.312   1.796   8.305  0.0634  0.1963  0.2912
   63POPC   PO4 1119   0.350   2.179   8.058 -0.0006 -0.0649 -0.4224
   63POPC   GL1 1120   0.312   2.083   7.698  0.1350 -0.0526 -0.2200
   63POPC   GL2 1121   0.020   2.223   7.684 -0.0614 -0.2644  0.0032
   63POPC   C1A 1122   0.210   1.631   7.596 -0.2022 -0.0685 -0.4579
   63POPC   D2A 1123   0.382   1.290   7.471 -0.2999  0.0009 -0.0000
   63POPC   C3A 1124   0.742   1.416   7.218 -0.0277  0.1259  0.1946
   63POPC   C4A 1125   0.948   1.676   6.903 -0.3072 -0.3921 -0.2917
   63POPC   C1B 1126   0.241   2.348   7.308  0.2072 -0.0286 -0.2029
   63POPC   C2B 1127   0.325   2.585   6.894  0.1172  0.2343  0.1284
   63POPC   C3B 1128   0.054   2.796   6.538 -0.1250  0.1116 -0.1058
   63POPC   C4B 1129   0.110   2.942   6.173 -0.0784 -0.1860  0.0128
   64POPC   NC3 1130   1.089   2.763   7.937  0.1148  0.0292 -0.0400
   64POPC   PO4 1131   1.572   2.838   7.882  0.2156 -0.1847 -0.2033
   64POPC   GL1 1132   1.474   2.494   7.647  0.2024 -0.1975 -0.3391
   64POPC   GL2 1133   1.533   2.184   7.672 -0.1097 -0.0260 -0.0794
   64POPC   C1A 1134   1.165   2.345   7.311 -0.2454 -0.2458  0.1753
   64POPC   D2A 1135   1.145   2.413   6.860  0.0645  0.0702 -0.0749
   64POPC   C3A 1136   1.393   2.754   6.738 -0.1260 -0.0121 -0.3356
   64POPC   C4A 1137   1.532   2.959   6.370 -0.1715 -0.0763 -0.0979
   64POPC   C1B 1138   1.906   1.963   7.576 -0.3125  0.2418  0.4489
   64POPC   C2B 1139   2.288   1.950   7.282  0.0482 -0.0335  0.0873
   64POPC   C3B 1140   2.470   2.162   7.039  0.0646  0.1482  0.1426
   64POPC   C4B 1141   2.426   2.538   6.773 -0.3203 -0.0987 -0.1467
   65POPC   NC3 1142   2.362   3.662   8.672 -0.0190 -0.2598 -0.2465
   65POPC   PO4 1143   2.216   3.587   8.241 -0.1600 -0.2367 -0.0829
   65POPC   GL1 1144   2.555   3.604   7.977 -0.2070 -0.1183  0.2048
   65POPC   GL2 1145   2.795   3.730   8.097  0.3497  0.1816 -0.2751
   65POPC   C1A 1146   2.430   3.450   7.530 -0.1245 -0.0076  0.0961
   65POPC   D2A 1147   2.276   3.116   7.229  0.1705  0.1916  0.2376
   65POPC   C3A 1148   1.868   3.269   7.207 -0.2225  0.1557 -0.0518
   65POPC   C4A 1149   1.600   2.898   7.206  0.0540  0.0936 -0.2458
   65POPC   C1B 1150   2.798   3.823   7.615 -0.0437  0.0582 -0.1579
   65POPC   C2B 1151   2.692   3.949   7.262 -0.1492  0.2967  0.3170
   65POPC   C3B 1152   2.528   3.993   6.842  0.0509  0.3972  0.1512
   65POPC   C4B 1153   2.658   4.174   6.404  0.2787  0.1097 -0.0747
   66POPC   NC3 1154   1.611   3.226   8.568  0.0040  0.1225  0.0362
   66POPC   PO4 1155   1.405   3.104   8.242  0.2489  0.2581 -0.1136
   66POPC   GL1 1156   1.317   3.267   7.879 -0.0137 -0.0716 -0.0969
   66POPC   GL2 1157   1.215   3.003   7.569  0.0173 -0.1303 -0.1835
   66POPC   C1A 1158   1.132   3.488   7.440  0.1780 -0.1094 -0.1060
   66POPC   D2A 1159   1.131   3.692   7.000 -0.0743 -0.1724  0.2088
   66POPC   C3A 1160   0.871   4.038   6.932  0.0375  0.1917  0.1495
   66POPC   C4A 1161   0.831   4.355   7.023  0.0745 -0.0829 -0.1748
   66POPC   C1B 1162   1.156   3.064   7.162  0.2265  0.3030 -0.2781
   66POPC   C2B 1163   0.980   3.201   6.800  0.1376  0.0780  0.0011
   66POPC   C3B 1164   1.048   3.496   6.485  0.1510  0.1467  0.1587
   66POPC   C4B 1165   0.983   3.771   6.013  0.2828  0.1256  0.0856
   67POPC   NC3 1166   9.008   4.723   8.266 -0.0337 -0.0094  0.0509
   67POPC   PO4 1167   8.892   5.188   8.329 -0.1112  0.1469  0.0766
   67POPC   GL1 1168   8.694   4.978   7.923 -0.0000 -0.0699 -0.1682
   67POPC   GL2 1169   8.535   4.613   7.895 -0.0903 -0.0694  0.0824
   67POPC   C1A 1170   8.476   4.937   7.537  0.1931  0.0015 -0.0565
   67POPC   D2A 1171   8.167   4.835   7.399  0.2210  0.1497  0.1064
   67POPC   C3A 1172   8.185   5.012   6.975 -0.0845  0.0847 -0.0661
   67POPC   C4A 1173   8.072   5.541   6.893  0.2312  0.2331 -0.0211
   67POPC   C1B 1174   8.450   4.425   7.449  0.3029  0.0672 -0.3006
   67POPC   C2B 1175   8.465   4.573   7.076 -0.2500  0.1498 -0.0730
   67POPC   C3B 1176   8.713   4.925   6.938  0.0546  0.0824  0.1120
   67POPC   C4B 1177   8.983   5.073   6.667 -0.0100  0.3333  0.0476
   68POPC   NC3 1178   9.598   0.334   8.192 -0.1293  0.0683 -0.1016
   68POPC   PO4 1179   9.837   0.677   8.087  0.4349 -0.1738 -0.0875
   68POPC   GL1 1180   9.703   0.662   7.651 -0.1512  0.0093  0.1842
   68POPC   GL2 1181   9.615   1.053   7.508  0.2328 -0.0099  0.2169
   68POPC   C1A 1182   9.792   0.839   7.149 -0.0201 -0.0526 -0.0696
   68POPC   D2A 1183   9.797   0.861   6.813  0.0808 -0.0980 -0.1692
   68POPC   C3A 1184   9.523   0.772   6.675  0.0956 -0.0823 -0.3878
   68POPC   C4A 1185   9.016   0.881   6.713 -0.1846 -0.1396 -0.0433
   68POPC   C1B 1186   9.239   0.751   7.406  0.3177 -0.1614  0.0246
   68POPC   C2B 1187   8.987   0.587   7.156 -0.0455 -0.0978 -0.0097
   68POPC   C3B 1188   9.115   0.326   6.839  0.0562 -0.2300  0.0855
   68POPC   C4B 1189   9.237   0.305   6.423  0.0813 -0.0184  0.0283
   69POPC   NC3 1190   9.504   4.896   8.307  0.1281  0.1026  0.0410
   69POPC   PO4 1191   9.720   5.015   7.976 -0.0174  0.0505 -0.0504
   69POPC   GL1 1192   9.940   5.118   7.672 -0.2431  0.2061  0.0114
   69POPC   GL2 1193  10.179   4.928   7.550  0.1304 -0.3095  0.1474
   69POPC   C1A 1194  10.005   5.212   7.189  0.1101 -0.0834  0.2201
   69POPC   D2A 1195  10.247   5.082   6.879  0.0736  0.0534  0.1652
   69POPC   C3A 1196  10.228   5.373   6.598 -0.3718 -0.2135  0.0647
   69POPC   C4A 1197   9.962   5.522   6.198 -0.1697 -0.2472  0.1591
   69POPC   C1B 1198  10.496   5.128   7.376 -0.0260 -0.0366 -0.1069
   69POPC   C2B 1199  10.737   5.342   7.041 -0.0333 -0.0920  0.1581
   69POPC   C3B 1200  11.130   5.415   6.795  0.0839 -0.0205 -0.0714
   69POPC   C4B 1201  11.440   5.620   6.904  0.1087 -0.1132  0.0305
   70POPC   NC3 1202   6.934   1.840   9.018 -0.0565  0.3242 -0.3012
   70POPC   PO4 1203   6.785   1.877   8.604  0.0711 -0.0096 -0.1153
   70POPC   GL1 1204   6.703   1.688   8.217  0.4027  0.0272 -0.1599
   70POPC   GL2 1205   6.286   1.496   8.137  0.0291 -0.1235  0.2242
   70POPC   C1A 1206   6.732   1.687   7.879  0.1970 -0.2239 -0.0491
   70POPC   D2A 1207   6.772   1.926   7.568 -0.0710  0.1635  0.0815
   70POPC   C3A 1208   6.451   1.849   7.265  0.1605  0.2891  0.0799
   70POPC   C4A 1209   6.100   1.991   7.232  0.0975  0.4978  0.2687
   70POPC   C1B 1210   6.435   1.268   7.853 -0.1066 -0.2745  0.2105
   70POPC   C2B 1211   6.448   1.032   7.430 -0.3673  0.0737  0.1263
   70POPC   C3B 1212   6.425   0.775   7.050  0.1347  0.0391 -0.2381
   70POPC   C4B 1213   6.014   0.747   6.627  0.2327  0.3123 -0.0613
   71POPC   NC3 1214   1.965   7.828   7.920 -0.0930 -0.0872 -0.4477
   71POPC   PO4 1215   2.112   8.190   8.174  0.0290 -0.3061  0.1323
   71POPC   GL1 1216   2.346   8.077   7.806 -0.2885  0.2041  0.0729
   71POPC   GL2 1217   2.240   7.952   7.553  0.0071 -0.1663  0.0948
   71POPC   C1A 1218   2.669   8.205   7.635  0.2026 -0.1345  0.1887
   71POPC   D2A 1219   2.840   8.357   7.240  0.2129 -0.5082 -0.0657
   71POPC   C3A 1220   2.832   8.181   6.830 -0.1646  0.0079  0.4035
   71POPC   C4A 1221   2.774   8.132   6.394  0.1117  0.2616 -0.1162
   71POPC   C1B 1222   2.584   7.899   7.231  0.1252 -0.0230  0.1005
   71POPC   C2B 1223   2.724   7.621   6.927  0.0304 -0.2596  0.0646
   71POPC   C3B 1224   2.957   7.308   6.603  0.2225 -0.2210  0.0668
   71POPC   C4B 1225   2.761   6.889   6.408 -0.0245 -0.1615 -0.2468
   72POPC   NC3 1226   4.809   2.588   8.058 -0.2887  0.0989  0.3058
   72POPC   PO4 1227   5.238   2.534   8.233 -0.1531  0.0528 -0.1393
   72POPC   GL1 1228   5.382   2.716   7.842  0.1864 -0.0866 -0.1575
   72POPC   GL2 1229   5.112   2.952   7.842 -0.0817 -0.2182  0.0758
   72POPC   C1A 1230   5.759   2.948   7.537 -0.2550  0.1685  0.2225
   72POPC   D2A 1231   5.856   3.107   7.165  0.0691 -0.0894  0.3672
   72POPC   C3A 1232   6.209   3.017   6.862 -0.3862  0.0156 -0.2284
   72POPC   C4A 1233   6.470   2.834   6.609 -0.0634 -0.1944  0.0344
   72POPC   C1B 1234   5.185   3.108   7.463  0.1061 -0.2109 -0.2483
   72POPC   C2B 1235   5.358   3.174   7.048  0.0330  0.4082  0.0710
   72POPC   C3B 1236   5.227   3.281   6.668  0.1866 -0.1730 -0.1873
   72POPC   C4B 1237   5.223   3.532   6.314 -0.1851  0.0850  0.1170
   73POPC   NC3 1238   3.516   4.931   8.265 -0.3124  0.1682  0.2129
   73POPC   PO4 1239   3.754   4.537   8.430  0.1220 -0.0670  0.1048
   73POPC   GL1 1240   3.863   4.600   8.031 -0.1127  0.2190  0.1288
   73POPC   GL2 1241   4.021   4.511   7.940  0.0057  0.2786 -0.1204
   73POPC   C1A 1242   4.240   4.911   7.855  0.1049 -0.1675 -0.1402
   73POPC   D2A 1243   4.173   5.295   7.649 -0.2258  0.2665 -0.2185
   73POPC   C3A 1244   4.101   5.307   7.171 -0.0595  0.1505 -0.4036
   73POPC   C4A 1245   3.883   5.019   6.810 -0.0538 -0.2362 -0.3622
   73POPC   C1B 1246   4.236   4.421   7.574  0.1453  0.1190  0.1434
   73POPC   C2B 1247   4.505   4.261   7.277 -0.2915  0.0356  0.1356
   73POPC   C3B 1248   4.393   4.079   6.845 -0.3930  0.1125 -0.2971
   73POPC   C4B 1249   4.291   4.077   6.505  0.0397  0.0209  0.0622
   74POPC   NC3 1250   5.415   2.079   8.422  0.1709 -0.0745  0.0261
   74POPC   PO4 1251   5.865   2.068   8.247  0.2746 -0.1158  0.2632
   74POPC   GL1 1252   5.880   2.051   7.847 -0.1113 -0.1027  0.1266
   74POPC   GL2 1253   5.822   2.363   7.805  0.4471  0.2089  0.2264
   74POPC   C1A 1254   5.649   1.953   7.568 -0.1447 -0.1039  0.0790
   74POPC   D2A 1255   5.463   1.928   7.154  0.1052  0.1177 -0.1475
   74POPC   C3A 1256   5.766   1.781   6.791 -0.2533 -0.0042 -0.1202
   74POPC   C4A 1257   6.123   1.880   6.603  0.1145  0.1705 -0.0142
   74POPC   C1B 1258   5.813   2.390   7.290 -0.1108  0.1282 -0.2932
   74POPC   C2B 1259   5.542   2.722   7.137 -0.1997  0.2875 -0.1419
   74POPC   C3B 1260   5.645   2.948   6.733 -0.2141 -0.3811  0.0856
   74POPC   C4B 1261   5.506   2.780   6.410 -0.0783  0.1821 -0.0705
   75POPC   NC3 1262   2.566   4.867   8.332 -0.1582 -0.0996 -0.2141
   75POPC   PO4 1263   2.860   5.262   8.205 -0.0675  0.5965 -0.4685
   75POPC   GL1 1264   3.211   5.120   7.906 -0.0061 -0.2125 -0.3361
   75POPC   GL2 1265   3.308   4.755   7.787  0.1038  0.0407  0.0662
   75POPC   C1A 1266   3.221   5.200   7.514  0.2016 -0.0057 -0.2113
   75POPC   D2A 1267   3.210   5.385   7.143  0.0009 -0.2021  0.4286
   75POPC   C3A 1268   2.961   5.324   6.866  0.0182  0.0384  0.1903
   75POPC   C4A 1269   2.829   5.310   6.444  0.3026  0.2636 -0.2751
   75POPC   C1B 1270   3.160   4.802   7.306  0.1421  0.0115  0.3511
   75POPC   C2B 1271   3.198   4.887   6.889 -0.1140 -0.0126 -0.2571
   75POPC   C3B 1272   3.398   5.048   6.593 -0.0531  0.0953 -0.1808
   75POPC   C4B 1273   3.221   5.219   6.235  0.1846 -0.0679  0.0986
   76POPC   NC3 1274   8.219   9.197   8.905  0.0824 -0.1069 -0.0071
   76POPC   PO4 1275   8.224   8.800   8.611 -0.0194  0.1421  0.2917
   76POPC   GL1 1276   8.015   8.456   8.412  0.0166  0.4562 -0.1509
   76POPC   GL2 1277   7.922   8.568   8.125 -0.0004  0.1687 -0.3131
   76POPC   C1A 1278   7.595   8.189   8.327 -0.0885 -0.1168  0.0351
   76POPC   D2A 1279   7.520   7.816   7.926 -0.2029 -0.1048 -0.1497
   76POPC   C3A 1280   7.513   7.842   7.562  0.0243 -0.2184 -0.0489
   76POPC   C4A 1281   7.546   7.755   7.091 -0.1906 -0.1119  0.0556
   76POPC   C1B 1282   7.575   8.544   7.681  0.0673 -0.1502 -0.1343
   76POPC   C2B 1283   7.199   8.636   7.594  0.1057 -0.1507 -0.0806
   76POPC   C3B 1284   6.935   8.498   7.233 -0.0665  0.1007  0.0968
   76POPC   C4B 1285   6.780   8.268   6.945 -0.1879  0.2684  0.0233
   77POPC   NC3 1286   2.628   5.738   8.521 -0.1644 -0.0193  0.2174
   77POPC   PO4 1287   2.808   6.108   8.419  0.2166 -0.0931 -0.0944
   77POPC   GL1 1288   2.769   6.106   8.002 -0.1511  0.1409  0.0668
   77POPC   GL2 1289   2.757   5.801   7.960  0.1010 -0.0149 -0.1727
   77POPC   C1A 1290   2.849   6.296   7.629  0.1904  0.1645  0.0284
   77POPC   D2A 1291   3.080   6.291   7.209 -0.3565 -0.2496  0.0088
   77POPC   C3A 1292   2.962   6.354   6.844 -0.0057 -0.1245  0.0362
   77POPC   C4A 1293   3.103   6.334   6.480  0.4179  0.2523 -0.1051
   77POPC   C1B 1294   3.026   5.676   7.660  0.4534 -0.1265 -0.0903
   77POPC   C2B 1295   3.098   5.826   7.404 -0.1374  0.0417 -0.1937
   77POPC   C3B 1296   3.283   5.863   7.065 -0.1743 -0.0588 -0.1573
   77POPC   C4B 1297   3.547   5.930   6.727  0.0572  0.0455  0.0330
   78POPC   NC3 1298   5.914   5.025   8.971 -0.0271  0.1364 -0.1307
   78POPC   PO4 1299   6.019   5.024   8.593 -0.0318  0.2088  0.2214
   78POPC   GL1 1300   5.964   5.159   8.164  0.0452 -0.1684 -0.0901
   78POPC   GL2 1301   5.941   4.936   8.006 -0.1848 -0.0349  0.0041
   78POPC   C1A 1302   6.129   5.421   7.738  0.0158  0.0437 -0.2446
   78POPC   D2A 1303   6.040   5.729   7.446 -0.2758  0.0027  0.2503
   78POPC   C3A 1304   6.254   5.866   7.172 -0.2318 -0.2857 -0.0301
   78POPC   C4A 1305   6.160   5.739   6.752 -0.1003  0.0695 -0.1340
   78POPC   C1B 1306   5.694   5.168   7.722 -0.2817 -0.1615  0.2098
   78POPC   C2B 1307   5.512   5.069   7.410  0.0429  0.0070  0.2920
   78POPC   C3B 1308   5.367   4.832   7.073  0.2123 -0.2599  0.2706
   78POPC   C4B 1309   5.101   4.707   6.736  0.2249 -0.0644 -0.0858
   79POPC   NC3 1310   3.888   1.650   8.676 -0.0676  0.1295  0.1042
   79POPC   PO4 1311   3.633   1.359   8.662 -0.0995 -0.1413 -0.0940
   79POPC   GL1 1312   3.481   1.135   8.162  0.2373 -0.1102 -0.0701
   79POPC   GL2 1313   3.740   0.896   8.042  0.0306 -0.2561  0.1324
   79POPC   C1A 1314   3.286   1.108   7.768 -0.0598  0.0566  0.2001
   79POPC   D2A 1315   3.380   1.099   7.365  0.1374  0.0114 -0.0709
   79POPC   C3A 1316   3.486   1.179   7.031  0.3526  0.0203  0.2145
   79POPC   C4A 1317   3.272   1.058   6.620  0.0387 -0.5254  0.0080
   79POPC   C1B 1318   3.671   0.830   7.687 -0.0779 -0.1053 -0.0408
   79POPC   C2B 1319   3.822   0.798   7.234 -0.0724  0.1274  0.4676
   79POPC   C3B 1320   3.557   0.677   6.855 -0.0840  0.2397 -0.2480
   79POPC   C4B 1321   3.468   0.627   6.351  0.1010  0.0776  0.0195
   80POPC   NC3 1322   0.635   5.827   7.963 -0.0208 -0.1495  0.1963
   80POPC   PO4 1323   1.036   5.603   7.834 -0.0861  0.0934  0.2860
   80POPC   GL1 1324   0.850   5.742   7.422 -0.1693  0.3000 -0.3225
   80POPC   GL2 1325   0.832   6.023   7.559  0.3174  0.2839 -0.0239
   80POPC   C1A 1326   0.622   5.685   7.055  0.1673 -0.1198 -0.0778
   80POPC   D2A 1327   0.655   5.980   6.662  0.3080 -0.1028 -0.0483
   80POPC   C3A 1328   0.937   6.169   6.385 -0.0176  0.0782  0.0209
   80POPC   C4A 1329   1.291   6.356   6.438 -0.1714 -0.0772 -0.5348
   80POPC   C1B 1330   0.940   6.236   7.260  0.1161  0.0036 -0.2021
   80POPC   C2B 1331   0.746   6.463   6.839  0.1399  0.0964  0.1567
   80POPC   C3B 1332   0.260   6.397   6.735 -0.1020  0.0817 -0.2017
   80POPC   C4B 1333  -0.106   6.349   6.370 -0.1596 -0.0624  0.0998
   81POPC   NC3 1334   8.061   3.667   7.865 -0.1786  0.0260  0.2829
   81POPC   PO4 1335   7.720   3.620   8.114 -0.1401  0.1943 -0.1256
   81POPC   GL1 1336   7.666   3.473   7.672 -0.1408  0.1691 -0.0909
   81POPC   GL2 1337   7.327   3.492   7.489 -0.0048  0.1369 -0.2078
   81POPC   C1A 1338   7.870   3.125   7.364  0.0203 -0.2226 -0.0069
   81POPC   D2A 1339   7.844   2.780   6.989 -0.0215 -0.2812  0.0637
   81POPC   C3A 1340   7.982   2.715   6.609 -0.0630  0.4149 -0.1095
   81POPC   C4A 1341   7.742   2.847   6.229  0.0509  0.1513 -0.1090
   81POPC   C1B 1342   7.406   3.265   7.145  0.1395  0.2256 -0.1337
   81POPC   C2B 1343   7.832   3.340   6.849 -0.1028 -0.0463  0.2673
   81POPC   C3B 1344   8.176   3.266   6.458  0.2678 -0.2159 -0.1027
   81POPC   C4B 1345   8.388   3.379   6.061 -0.1952 -0.1508  0.1004
   82POPC   NC3 1346   6.724   7.243   9.356  0.0507  0.0476 -0.1282
   82POPC   PO4 1347   6.997   7.124   9.037 -0.0938 -0.0896  0.3062
   82POPC   GL1 1348   6.758   7.246   8.658 -0.2053  0.2603  0.4125
   82POPC   GL2 1349   7.106   7.169   8.547  0.1727  0.0497  0.1140
   82POPC   C1A 1350   6.265   7.285   8.518 -0.4004  0.0062 -0.0104
   82POPC   D2A 1351   6.027   7.385   8.722  0.0100  0.0650 -0.0807
   82POPC   C3A 1352   5.688   7.482   8.509  0.0437  0.2507 -0.1198
   82POPC   C4A 1353   5.443   7.203   8.430  0.0653 -0.2466  0.0751
   82POPC   C1B 1354   6.732   6.892   8.326  0.1755 -0.2108 -0.0402
   82POPC   C2B 1355   6.857   6.671   7.928 -0.0015 -0.0682 -0.0939
   82POPC   C3B 1356   7.215   6.319   7.850 -0.1597 -0.0879 -0.4157
   82POPC   C4B 1357   7.588   6.043   7.827 -0.2163 -0.0561 -0.1880
   83POPC   NC3 1358   3.009   2.915   8.364 -0.1678  0.3429 -0.0605
   83POPC   PO4 1359   2.957   2.530   8.592 -0.0583 -0.0024 -0.2751
   83POPC   GL1 1360   2.882   2.390   8.082  0.0384 -0.0307 -0.3055
   83POPC   GL2 1361   2.831   2.641   7.868  0.2086 -0.0284  0.1389
   83POPC   C1A 1362   2.860   1.933   7.788 -0.1233  0.1809 -0.0205
   83POPC   D2A 1363   2.902   1.460   7.891 -0.0519 -0.0734  0.0686
   83POPC   C3A 1364   2.985   1.456   7.402  0.0509 -0.1603  0.0276
   83POPC   C4A 1365   2.956   1.287   7.047  0.1572 -0.0253 -0.0930
   83POPC   C1B 1366   3.082   2.844   7.461  0.0962  0.2599 -0.2867
   83POPC   C2B 1367   3.450   2.699   7.330 -0.2869  0.1164  0.0583
   83POPC   C3B 1368   3.879   2.539   7.237 -0.0306 -0.1410 -0.0706
   83POPC   C4B 1369   4.154   2.473   6.922  0.1032 -0.0880  0.1517
   84POPC   NC3 1370   2.307   9.541   8.195 -0.2527 -0.1258  0.0193
   84POPC   PO4 1371   1.864   9.548   8.088  0.0275  0.0425 -0.1476
   84POPC   GL1 1372   1.873   9.349   7.601  0.0550 -0.1226 -0.0819
   84POPC   GL2 1373   1.641   9.131   7.708  0.3627  0.0826  0.2105
   84POPC   C1A 1374   2.012   9.514   7.216 -0.0817 -0.1019 -0.3470
   84POPC   D2A 1375   2.202   9.669   7.001 -0.2000 -0.1132  0.0977
   84POPC   C3A 1376   2.162  10.020   6.613  0.0879 -0.3746  0.2550
   84POPC   C4A 1377   1.999  10.144   6.121  0.1509 -0.2843 -0.2413
   84POPC   C1B 1378   1.565   9.012   7.365 -0.0100  0.2421 -0.2492
   84POPC   C2B 1379   1.629   8.768   7.080 -0.2959  0.0680  0.1701
   84POPC   C3B 1380   1.479   8.399   6.887 -0.0913 -0.1241  0.0189
   84POPC   C4B 1381   1.498   8.200   6.526  0.0434  0.0400  0.1822
   85POPC   NC3 1382   9.335   3.342   8.499  0.0197 -0.0740  0.0226
   85POPC   PO4 1383   9.113   3.397   8.023  0.3626  0.1776 -0.0588
   85POPC   GL1 1384   9.159   3.324   7.543  0.2772 -0.0758 -0.1033
   85POPC   GL2 1385   9.425   3.504   7.642 -0.3259  0.2757  0.1370
   85POPC   C1A 1386   9.457   3.167   7.177  0.1181  0.1955  0.0269
   85POPC   D2A 1387   9.492   2.875   6.956  0.3710 -0.2849  0.2312
   85POPC   C3A 1388   9.337   3.094   6.622  0.0837  0.0406  0.0990
   85POPC   C4A 1389   9.319   3.086   6.160 -0.0398  0.0817 -0.0184
   85POPC   C1B 1390   9.437   3.893   7.366  0.1576  0.0908 -0.4489
   85POPC   C2B 1391   9.338   4.061   6.936  0.1459  0.0243  0.0735
   85POPC   C3B 1392   9.472   4.331   6.690 -0.2646  0.1119 -0.0533
   85POPC   C4B 1393   9.541   4.548   6.282 -0.0062 -0.0356  0.2582
   86POPC   NC3 1394   9.288   1.058   8.447 -0.1734  0.0725 -0.0400
   86POPC   PO4 1395   9.027   0.762   8.260  0.1695  0.7082 -0.0827
   86POPC   GL1 1396   8.909   0.839   7.784  0.0706  0.1516 -0.1248
   86POPC   GL2 1397   8.953   1.116   7.630  0.1127 -0.0950  0.0535
   86POPC   C1A 1398   8.614   0.744   7.418  0.1822  0.0116  0.0968
   86POPC   D2A 1399   8.552   0.794   6.933 -0.0139 -0.1673  0.2317
   86POPC   C3A 1400   8.230   0.683   6.523  0.0498 -0.2315  0.0889
   86POPC   C4A 1401   7.910   0.908   6.393  0.0852  0.4000 -0.0675
   86POPC   C1B 1402   9.178   1.143   7.139 -0.0160  0.0029 -0.4827
   86POPC   C2B 1403   9.499   1.362   6.906 -0.2451  0.0618  0.2671
   86POPC   C3B 1404   9.853   1.601   7.075 -0.2529  0.1591 -0.2590
   86POPC   C4B 1405  10.157   1.866   7.218  0.0082 -0.0946 -0.1294
   87POPC   NC3 1406   5.159   5.372   8.947 -0.0620 -0.0425 -0.0437
   87POPC   PO4 1407   5.150   5.232   8.448 -0.1545 -0.1766 -0.1045
   87POPC   GL1 1408   4.769   5.084   8.375  0.0646  0.2044  0.0814
   87POPC   GL2 1409   4.685   4.863   8.084 -0.1194 -0.0958  0.1450
   87POPC   C1A 1410   4.391   5.268   8.171  0.0057 -0.1206  0.1758
   87POPC   D2A 1411   3.945   5.205   8.074  0.1490 -0.2636  0.0579
   87POPC   C3A 1412   3.763   5.077   7.694  0.2636  0.1541 -0.0376
   87POPC   C4A 1413   3.605   4.990   7.234  0.0546 -0.0438 -0.4311
   87POPC   C1B 1414   4.663   5.223   7.750 -0.3477 -0.1217  0.0369
   87POPC   C2B 1415   4.588   5.489   7.314 -0.0032  0.1407 -0.1810
   87POPC   C3B 1416   4.389   5.717   7.135 -0.3189 -0.0775 -0.2442
   87POPC   C4B 1417   4.471   6.013   6.909 -0.1046  0.1809  0.1879
   88POPC   NC3 1418   4.389   3.779   8.406 -0.1752 -0.0551  0.0223
   88POPC   PO4 1419   4.663   3.984   8.127 -0.0587 -0.2089 -0.0284
   88POPC   GL1 1420   4.621   4.019   7.745  0.0486  0.2188  0.1046
   88POPC   GL2 1421   4.914   3.865   7.636 -0.0728  0.0404  0.0035
   88POPC   C1A 1422   4.353   3.797   7.473  0.2814  0.1670 -0.1402
   88POPC   D2A 1423   3.936   3.548   7.622  0.1762  0.2221 -0.1553
   88POPC   C3A 1424   3.668   3.618   7.305 -0.1338 -0.1836 -0.0533
   88POPC   C4A 1425   3.655   3.995   6.980 -0.2135 -0.0494  0.0761
   88POPC   C1B 1426   4.935   3.974   7.192  0.0880  0.1521  0.1199
   88POPC   C2B 1427   4.878   4.247   6.825 -0.0238 -0.0681  0.0889
   88POPC   C3B 1428   4.663   4.522   6.559 -0.0138 -0.0396  0.0103
   88POPC   C4B 1429   4.693   4.913   6.446 -0.3022  0.3064  0.0671
   89POPC   NC3 1430   6.214   7.852   9.832  0.2360 -0.3882  0.0088
   89POPC   PO4 1431   6.341   7.859   9.392 -0.3368 -0.0119  0.3155
   89POPC   GL1 1432   6.390   7.987   8.935  0.1654  0.1904 -0.1811
   89POPC   GL2 1433   6.180   8.214   9.005 -0.0953 -0.0599 -0.0490
   89POPC   C1A 1434   6.708   7.810   8.501  0.0984  0.2442 -0.1479
   89POPC   D2A 1435   7.019   7.582   8.198 -0.1406 -0.0937  0.0145
   89POPC   C3A 1436   6.827   7.235   7.906  0.0497 -0.1434  0.2637
   89POPC   C4A 1437   6.962   7.058   7.621 -0.1248  0.0990  0.2033
   89POPC   C1B 1438   6.044   8.274   8.600 -0.0125  0.2738 -0.0915
   89POPC   C2B 1439   6.062   8.275   8.144 -0.1963  0.3192 -0.4063
   89POPC   C3B 1440   6.195   7.866   7.840  0.3373  0.0465 -0.2826
   89POPC   C4B 1441   6.500   7.658   7.560  0.1733  0.0061  0.1980
   90POPC   NC3 1442   4.552   3.030   7.999  0.2641  0.0742 -0.2889
   90POPC   PO4 1443   4.319   2.633   8.007  0.3939 -0.2916 -0.3368
   90POPC   GL1 1444   4.127   2.792   7.581 -0.0641  0.1147  0.2221
   90POPC   GL2 1445   4.172   3.111   7.627 -0.1158 -0.2149 -0.2217
   90POPC   C1A 1446   4.307   2.801   7.269  0.4104 -0.0656  0.3282
   90POPC   D2A 1447   4.427   2.975   6.873  0.0507  0.0065  0.0610
   90POPC   C3A 1448   4.541   2.687   6.481  0.0107  0.4046 -0.1579
   90POPC   C4A 1449   4.923   2.676   6.307 -0.1637 -0.0928  0.0236
   90POPC   C1B 1450   4.273   3.339   7.273 -0.2852 -0.0908 -0.0828
   90POPC   C2B 1451   4.063   3.575   6.978 -0.4522  0.1580 -0.1144
   90POPC   C3B 1452   3.930   3.794   6.576 -0.0494 -0.1761 -0.2329
   90POPC   C4B 1453   3.744   4.174   6.407 -0.0491  0.1289  0.0284
   91POPC   NC3 1454   1.528   6.866   8.047  0.1388 -0.1379  0.0961
   91POPC   PO4 1455   1.877   6.637   8.161  0.2647  0.1052  0.2269
   91POPC   GL1 1456   2.046   6.981   7.790 -0.2042 -0.2259  0.0854
   91POPC   GL2 1457   1.951   7.362   7.658  0.1340  0.1789 -0.0596
   91POPC   C1A 1458   1.990   6.977   7.371 -0.1766 -0.0024  0.1780
   91POPC   D2A 1459   1.944   7.075   6.943  0.1615 -0.0461 -0.1444
   91POPC   C3A 1460   2.133   6.924   6.552  0.1017  0.1798 -0.0644
   91POPC   C4A 1461   2.089   6.772   6.163  0.1413  0.0812 -0.2234
   91POPC   C1B 1462   2.141   7.554   7.122 -0.0593  0.0349 -0.2699
   91POPC   C2B 1463   1.983   7.507   6.699 -0.0378  0.0839 -0.2069
   91POPC   C3B 1464   1.708   7.183   6.487  0.1843  0.0339  0.1583
   91POPC   C4B 1465   1.489   6.827   6.412 -0.1295  0.2434  0.0752
   92POPC   NC3 1466   8.147   2.472   8.188 -0.1906  0.2833 -0.0902
   92POPC   PO4 1467   7.782   2.610   8.062 -0.1632 -0.0126 -0.1526
   92POPC   GL1 1468   7.720   2.547   7.608 -0.1897 -0.1908  0.1766
   92POPC   GL2 1469   7.461   2.230   7.651  0.0077  0.2538 -0.0584
   92POPC   C1A 1470   8.169   2.680   7.339  0.1036 -0.0762 -0.1216
   92POPC   D2A 1471   8.389   2.984   6.985  0.2403  0.3715  0.0470
   92POPC   C3A 1472   8.602   2.874   6.576 -0.0505  0.1297 -0.1486
   92POPC   C4A 1473   8.788   3.272   6.448 -0.1412  0.1090 -0.0280
   92POPC   C1B 1474   7.545   2.210   7.203 -0.1132  0.0294  0.0267
   92POPC   C2B 1475   7.455   2.505   6.731 -0.2607  0.0917 -0.0269
   92POPC   C3B 1476   7.431   2.920   6.661 -0.0673  0.3174  0.2076
   92POPC   C4B 1477   7.381   3.340   6.644  0.1112  0.0811 -0.1470
   93POPC   NC3 1478   0.946   7.516   7.894 -0.3311 -0.1450 -0.2818
   93POPC   PO4 1479   1.018   7.076   7.978 -0.1361  0.1963 -0.2675
   93POPC   GL1 1480   1.063   6.709   7.858  0.2315  0.3168  0.0203
   93POPC   GL2 1481   0.667   6.528   7.702  0.0395 -0.1424 -0.3669
   93POPC   C1A 1482   1.198   6.623   7.472 -0.0651 -0.0217  0.1553
   93POPC   D2A 1483   1.306   6.498   7.097 -0.0493 -0.1469  0.0521
   93POPC   C3A 1484   1.658   6.615   6.922 -0.1145  0.3985  0.1967
   93POPC   C4A 1485   2.149   6.654   6.972  0.0426 -0.2117 -0.0889
   93POPC   C1B 1486   0.384   6.858   7.554 -0.0262 -0.1789  0.1472
   93POPC   C2B 1487   0.275   7.167   7.199 -0.0500  0.1067 -0.2932
   93POPC   C3B 1488  -0.087   7.153   6.889  0.0142  0.0825  0.1864
   93POPC   C4B 1489  -0.217   7.257   6.425  0.1865 -0.2025  0.0387
   94POPC   NC3 1490   7.805   4.493   8.822  0.1487  0.1253 -0.0365
   94POPC   PO4 1491   7.926   4.922   8.618  0.4695 -0.0112 -0.1050
   94POPC   GL1 1492   7.670   4.937   8.084 -0.0735  0.2949  0.0429
   94POPC   GL2 1493   7.326   5.100   8.050 -0.0794 -0.1922 -0.0031
   94POPC   C1A 1494   7.749   4.932   7.594  0.5143  0.1264 -0.1099
   94POPC   D2A 1495   7.536   4.850   7.217  0.0202  0.0344  0.3318
   94POPC   C3A 1496   7.713   4.967   6.804  0.1692  0.2964 -0.1406
   94POPC   C4A 1497   7.964   5.097   6.506  0.2771  0.0407 -0.2407
   94POPC   C1B 1498   7.207   5.133   7.600 -0.0249 -0.1345  0.3257
   94POPC   C2B 1499   7.074   5.045   7.168  0.1700  0.0521 -0.0256
   94POPC   C3B 1500   7.139   4.829   6.716  0.1495  0.0597 -0.0927
   94POPC   C4B 1501   7.178   4.440   6.332  0.0415 -0.1890  0.0656
   95POPC   NC3 1502   7.928   5.391   8.216  0.1568  0.0277  0.0391
   95POPC   PO4 1503   7.782   5.768   8.424  0.2561 -0.0420 -0.0353
   95POPC   GL1 1504   7.517   5.541   8.050 -0.0588  0.2456 -0.4206
   95POPC   GL2 1505   7.631   5.402   7.751 -0.2327 -0.1309  0.1362
   95POPC   C1A 1506   7.228   5.678   7.759  0.2017 -0.3573 -0.1241
   95POPC   D2A 1507   7.056   5.577   7.397  0.0115 -0.3502  0.1744
   95POPC   C3A 1508   7.229   5.816   6.965  0.0474  0.0535 -0.2257
   95POPC   C4A 1509   7.437   5.998   6.509  0.1221  0.4534  0.0154
   95POPC   C1B 1510   7.587   5.731   7.382 -0.3009 -0.2132 -0.3730
   95POPC   C2B 1511   7.702   6.048   7.068 -0.4457 -0.0294  0.0005
   95POPC   C3B 1512   7.375   6.344   6.863  0.2301  0.2984  0.3255
   95POPC   C4B 1513   6.944   6.350   7.028 -0.0949 -0.0818  0.5059
   96POPC   NC3 1514   1.743   2.158   8.311 -0.0909 -0.2797  0.0753
   96POPC   PO4 1515   1.995   1.625   8.325 -0.0857  0.1832  0.0463
   96POPC   GL1 1516   2.030   1.447   7.842  0.0735 -0.1847 -0.3625
   96POPC   GL2 1517   1.929   1.135   7.799  0.0448  0.0117 -0.3279
   96POPC   C1A 1518   1.973   1.484   7.345  0.0321 -0.1641  0.1424
   96POPC   D2A 1519   1.612   1.627   7.148  0.2703 -0.1560  0.1296
   96POPC   C3A 1520   1.530   1.996   7.038 -0.3678  0.0088  0.1601
   96POPC   C4A 1521   1.694   2.339   7.220  0.0278  0.0317 -0.0206
   96POPC   C1B 1522   1.627   1.171   7.510  0.0308  0.1622  0.2515
   96POPC   C2B 1523   1.478   0.827   7.257 -0.1500 -0.1425  0.4191
   96POPC   C3B 1524   1.360   0.568   6.867  0.1152  0.0746  0.1560
   96POPC   C4B 1525   1.139   0.339   6.415  0.0788  0.1160 -0.1419
   97POPC   NC3 1526   6.505   3.329   8.213 -0.0071 -0.3942 -0.0887
   97POPC   PO4 1527   6.102   3.226   8.287  0.1135  0.1910 -0.0142
   97POPC   GL1 1528   6.157   3.089   7.863 -0.1445 -0.0948 -0.1906
   97POPC   GL2 1529   6.254   2.746   7.775  0.1085 -0.0651  0.0589
   97POPC   C1A 1530   6.345   3.151   7.495  0.0261  0.0147  0.1822
   97POPC   D2A 1531   6.797   3.306   7.423  0.0142  0.0885  0.0032
   97POPC   C3A 1532   7.078   2.947   7.327 -0.0809 -0.1567 -0.1279
   97POPC   C4A 1533   7.409   2.690   7.235 -0.0764 -0.3165  0.0552
   97POPC   C1B 1534   6.179   2.721   7.308 -0.0864 -0.0876 -0.0337
   97POPC   C2B 1535   6.046   2.558   6.886  0.0054 -0.0437 -0.1807
   97POPC   C3B 1536   5.930   2.327   6.428  0.4038 -0.0568 -0.2497
   97POPC   C4B 1537   5.845   2.442   5.922  0.3793 -0.2001 -0.0731
   98POPC   NC3 1538   6.940   0.452   8.534 -0.2353 -0.0777  0.2265
   98POPC   PO4 1539   7.328   0.442   8.779  0.0303  0.1341 -0.2340
   98POPC   GL1 1540   7.342   0.616   8.287 -0.1766  0.0763 -0.2789
   98POPC   GL2 1541   7.000   0.722   8.134 -0.2854 -0.1778 -0.2962
   98POPC   C1A 1542   7.408   0.791   7.826 -0.0452 -0.0968  0.0374
   98POPC   D2A 1543   7.455   0.770   7.418 -0.3252  0.0520 -0.0027
   98POPC   C3A 1544   7.715   0.537   7.056  0.2675 -0.3831 -0.0589
   98POPC   C4A 1545   7.761   0.447   6.605  0.0391  0.1711 -0.1111
   98POPC   C1B 1546   6.917   0.737   7.677  0.2456 -0.4014 -0.0213
   98POPC   C2B 1547   6.916   0.471   7.212 -0.3211  0.3660  0.4005
   98POPC   C3B 1548   6.805   0.233   6.775  0.1327  0.0293 -0.2861
   98POPC   C4B 1549   7.013   0.065   6.500  0.3191  0.1343  0.1650
   99POPC   NC3 1550   7.740   1.598   8.082  0.1955  0.1261  0.2166
   99POPC   PO4 1551   7.710   1.168   8.343 -0.2425  0.1674  0.1047
   99POPC   GL1 1552   7.866   1.138   7.853  0.0522 -0.0310  0.0161
   99POPC   GL2 1553   7.608   1.289   7.650  0.0846  0.0689 -0.2681
   99POPC   C1A 1554   8.070   1.365   7.568 -0.2370 -0.0747 -0.3332
   99POPC   D2A 1555   8.142   1.506   7.149 -0.0302  0.2528  0.2179
   99POPC   C3A 1556   8.585   1.781   7.008  0.0367 -0.4110  0.1256
   99POPC   C4A 1557   8.937   1.869   6.686  0.2887  0.0260  0.2452
   99POPC   C1B 1558   7.248   1.287   7.316  0.1708  0.4513 -0.0277
   99POPC   C2B 1559   7.007   0.997   6.902 -0.1409 -0.1447 -0.1556
   99POPC   C3B 1560   7.206   0.604   6.743 -0.1586 -0.0459 -0.3120
   99POPC   C4B 1561   7.296   0.433   6.325 -0.3019 -0.1320  0.0916
  100POPC   NC3 1562   6.012   6.895   9.673 -0.3254  0.0599  0.3030
  100POPC   PO4 1563   6.462   6.860   9.577  0.2384  0.2079 -0.2624
  100POPC   GL1 1564   6.372   6.764   9.171 -0.1261 -0.0447 -0.0349
  100POPC   GL2 1565   6.692   6.725   9.009  0.3744 -0.1628 -0.0082
  100POPC   C1A 1566   6.291   6.775   8.718  0.0505 -0.1768 -0.0397
  100POPC   D2A 1567   6.097   6.579   8.407 -0.0450  0.5508 -0.2115
  100POPC   C3A 1568   5.647   6.537   8.432 -0.1686 -0.2532 -0.0918
  100POPC   C4A 1569   5.274   6.301   8.393  0.0145  0.1708  0.1261
  100POPC   C1B 1570   6.743   6.529   8.686 -0.3085  0.0550  0.1017
  100POPC   C2B 1571   6.804   6.333   8.320  0.1196 -0.0846  0.0704
  100POPC   C3B 1572   6.749   6.151   7.946  0.0786 -0.1541 -0.0576
  100POPC   C4B 1573   6.408   5.789   7.942 -0.0243 -0.0234 -0.0187
  101POPC   NC3 1574   9.597   9.015   8.062 -0.2818 -0.1204 -0.2447
  101POPC   PO4 1575   9.334   9.427   8.018  0.0325 -0.0055 -0.0182
  101POPC   GL1 1576   9.470   9.618   7.684  0.0525 -0.0747  0.1169
  101POPC   GL2 1577   9.398   9.928   7.659  0.0994 -0.0215  0.0381
  101POPC   C1A 1578   9.723   9.612   7.279 -0.3153 -0.2466 -0.2371
  101POPC   D2A 1579   9.713   9.356   6.885  0.2228  0.2746  0.0047
  101POPC   C3A 1580  10.145   9.266   6.613  0.0400  0.1134 -0.4952
  101POPC   C4A 1581  10.449   9.503   6.327 -0.1712  0.2115 -0.2265
  101POPC   C1B 1582   9.369   9.960   7.241  0.1396  0.0879 -0.2762
  101POPC   C2B 1583   9.648   9.863   6.843 -0.1151  0.1798  0.0676
  101POPC   C3B 1584   9.822  10.108   6.475  0.1571 -0.1397  0.3962
  101POPC   C4B 1585   9.935  10.254   6.019  0.0326  0.0468 -0.0206
  102POPC   NC3 1586   1.591   8.751   8.927 -0.0551  0.4305  0.0047
  102POPC   PO4 1587   1.764   8.742   8.473 -0.2464 -0.1924  0.1330
  102POPC   GL1 1588   1.847   8.785   8.009 -0.2294 -0.3023  0.0110
  102POPC   GL2 1589   2.085   9.027   7.961 -0.1934 -0.1783  0.0011
  102POPC   C1A 1590   1.889   8.651   7.574  0.1733 -0.1232 -0.0417
  102POPC   D2A 1591   2.288   8.485   7.336  0.1136 -0.1401 -0.1889
  102POPC   C3A 1592   2.409   8.673   6.910  0.3847 -0.1118  0.0619
  102POPC   C4A 1593   2.464   8.476   6.582  0.2150 -0.1578  0.0628
  102POPC   C1B 1594   2.332   8.885   7.691 -0.0547 -0.2604 -0.0170
  102POPC   C2B 1595   2.224   8.978   7.284 -0.2662  0.0793 -0.2860
  102POPC   C3B 1596   2.004   9.152   6.909 -0.4797 -0.2839 -0.4117
  102POPC   C4B 1597   2.074   8.973   6.526  0.4029 -0.0588 -0.0826
  103POPC   NC3 1598   2.216   2.412   9.042  0.2528  0.0994 -0.3828
  103POPC   PO4 1599   2.501   2.339   8.753 -0.0429  0.2088  0.0233
  103POPC   GL1 1600   2.570   2.106   8.436  0.4192 -0.3423  0.2311
  103POPC   GL2 1601   2.322   2.039   8.247  0.3023  0.3165 -0.0704
  103POPC   C1A 1602   2.809   1.932   8.257 -0.4227 -0.0042 -0.1266
  103POPC   D2A 1603   3.285   2.022   7.962  0.6154 -0.0498 -0.0622
  103POPC   C3A 1604   3.390   1.722   7.641  0.0295 -0.0167 -0.0260
  103POPC   C4A 1605   3.726   1.345   7.758  0.1171  0.1507 -0.2787
  103POPC   C1B 1606   2.392   2.210   7.826  0.3433  0.0429  0.0017
  103POPC   C2B 1607   2.595   2.308   7.493  0.0650 -0.2113 -0.3146
  103POPC   C3B 1608   2.753   2.588   7.168  0.3198  0.1864 -0.0848
  103POPC   C4B 1609   2.773   3.011   7.153  0.0160 -0.3534  0.3958
  104POPC   NC3 1610   8.999   5.692   8.426 -0.0315 -0.0870 -0.0939
  104POPC   PO4 1611   9.161   5.974   8.216  0.1518  0.0923 -0.1649
  104POPC   GL1 1612   9.185   5.955   7.841  0.1507  0.0900 -0.0097
  104POPC   GL2 1613   8.992   6.182   7.731  0.1467 -0.1874 -0.6896
  104POPC   C1A 1614   9.236   5.851   7.424  0.3623  0.0606 -0.0759
  104POPC   D2A 1615   9.129   6.064   7.111  0.0504 -0.2143 -0.0045
  104POPC   C3A 1616   9.410   5.936   6.730  0.1299  0.0172 -0.3275
  104POPC   C4A 1617   9.377   5.892   6.357  0.0568  0.1508 -0.0366
  104POPC   C1B 1618   8.959   6.599   7.476  0.2199 -0.1194  0.2278
  104POPC   C2B 1619   8.837   6.601   7.061 -0.0386  0.1841  0.1680
  104POPC   C3B 1620   8.525   6.474   6.820 -0.2607 -0.1533  0.1543
  104POPC   C4B 1621   8.396   6.301   6.429  0.2789 -0.2062 -0.6270
  105POPC   NC3 1622   3.598   5.518   9.208  0.1063  0.2277  0.0056
  105POPC   PO4 1623   3.642   5.450   8.752  0.1211 -0.2923 -0.1531
  105POPC   GL1 1624   3.768   5.532   8.436 -0.0286 -0.0575 -0.1208
  105POPC   GL2 1625   3.418   5.492   8.203  0.0655  0.2311  0.1668
  105POPC   C1A 1626   3.862   5.707   8.077 -0.0036 -0.1828  0.0388
  105POPC   D2A 1627   3.809   6.010   7.887  0.1873 -0.2162 -0.0743
  105POPC   C3A 1628   3.644   6.001   7.443  0.1263 -0.2375 -0.1960
  105POPC   C4A 1629   3.804   6.261   7.170 -0.0192  0.1318  0.1405
  105POPC   C1B 1630   3.515   5.582   7.760 -0.0539 -0.0512  0.2279
  105POPC   C2B 1631   3.678   5.467   7.370 -0.0836 -0.0671  0.0134
  105POPC   C3B 1632   3.640   5.465   6.930  0.5442  0.2321 -0.2533
  105POPC   C4B 1633   3.376   5.513   6.661 -0.0832  0.0599  0.0772
  106POPC   NC3 1634   2.459   4.018   8.349  0.1391 -0.0892 -0.2347
  106POPC   PO4 1635   2.841   4.324   8.299 -0.0380 -0.0150  0.2652
  106POPC   GL1 1636   2.874   4.429   7.859 -0.2060 -0.1108 -0.1610
  106POPC   GL2 1637   3.057   4.242   7.727  0.0439  0.0325 -0.0674
  106POPC   C1A 1638   2.746   4.471   7.445 -0.0050 -0.2617 -0.1455
  106POPC   D2A 1639   2.726   4.456   6.923  0.3021  0.0278 -0.0540
  106POPC   C3A 1640   3.005   4.522   6.628  0.2119 -0.2017  0.0746
  106POPC   C4A 1641   3.014   4.766   6.336  0.1879  0.3682 -0.1995
  106POPC   C1B 1642   3.289   4.293   7.365 -0.3130  0.0280 -0.1621
  106POPC   C2B 1643   3.527   4.477   7.087 -0.0823  0.4880 -0.1977
  106POPC   C3B 1644   3.623   4.603   6.664 -0.0731 -0.2572  0.0625
  106POPC   C4B 1645   3.649   4.702   6.324  0.1359  0.3380 -0.0155
  107POPC   NC3 1646   4.512   8.915   9.064 -0.1091 -0.0207  0.0221
  107POPC   PO4 1647   4.172   8.749   8.856 -0.3097  0.0060 -0.2449
  107POPC   GL1 1648   4.121   8.657   8.464  0.3012 -0.1685 -0.0987
  107POPC   GL2 1649   3.851   8.584   8.381 -0.3863  0.0267 -0.1461
  107POPC   C1A 1650   4.208   8.574   8.011  0.0858 -0.1578  0.0172
  107POPC   D2A 1651   4.138   8.721   7.599 -0.1879  0.1699 -0.3366
  107POPC   C3A 1652   4.254   8.380   7.338  0.1735 -0.2639  0.0679
  107POPC   C4A 1653   4.444   8.113   7.099 -0.3355  0.3203  0.0166
  107POPC   C1B 1654   3.968   8.244   8.279 -0.0809 -0.2653 -0.0742
  107POPC   C2B 1655   3.834   7.743   8.148 -0.1104 -0.1635 -0.0888
  107POPC   C3B 1656   3.855   7.311   8.270 -0.0802 -0.5383  0.0840
  107POPC   C4B 1657   3.840   6.953   8.386  0.2712 -0.0721 -0.2932
  108POPC   NC3 1658   6.025   6.018   9.179  0.0308  0.0237 -0.1267
  108POPC   PO4 1659   6.488   5.874   9.109  0.0108 -0.3110 -0.2032
  108POPC   GL1 1660   6.380   5.843   8.701 -0.1042 -0.1221 -0.1572
  108POPC   GL2 1661   6.044   5.712   8.702  0.3243 -0.2460 -0.1545
  108POPC   C1A 1662   6.352   6.162   8.412 -0.1192  0.1056  0.0972
  108POPC   D2A 1663   6.413   6.511   8.007 -0.2027 -0.0502  0.1752
  108POPC   C3A 1664   6.381   6.957   8.006  0.3077 -0.5213 -0.1090
  108POPC   C4A 1665   6.400   7.190   7.674  0.0252 -0.0109 -0.0003
  108POPC   C1B 1666   5.879   5.627   8.306 -0.1176  0.1636  0.1612
  108POPC   C2B 1667   5.625   5.690   7.832 -0.2760 -0.2156 -0.0235
  108POPC   C3B 1668   5.583   5.595   7.464  0.0307 -0.0510  0.0144
  108POPC   C4B 1669   5.751   5.710   7.014 -0.0040 -0.0824  0.0595
  109POPC   NC3 1670   8.638   1.761   8.270  0.0762  0.1992  0.0728
  109POPC   PO4 1671   8.466   2.125   8.217  0.0316 -0.0996  0.2922
  109POPC   GL1 1672   8.360   2.222   7.798  0.0586  0.0908 -0.2366
  109POPC   GL2 1673   8.014   2.142   7.863 -0.1335 -0.1136 -0.1893
  109POPC   C1A 1674   8.423   2.172   7.267 -0.2137 -0.3613 -0.2639
  109POPC   D2A 1675   8.015   1.948   6.997 -0.2325 -0.3200  0.0064
  109POPC   C3A 1676   7.964   2.058   6.483 -0.1650  0.3366  0.2388
  109POPC   C4A 1677   7.691   2.235   6.282 -0.0678  0.1197  0.2383
  109POPC   C1B 1678   7.861   1.923   7.517  0.0716  0.1083  0.0353
  109POPC   C2B 1679   7.669   1.627   7.263 -0.0573  0.0689 -0.2366
  109POPC   C3B 1680   7.741   1.262   7.091 -0.0369  0.3284  0.1283
  109POPC   C4B 1681   7.548   0.975   6.930 -0.1547  0.2893  0.0981
  110POPC   NC3 1682   8.192   6.119   8.430 -0.1820 -0.0809  0.2808
  110POPC   PO4 1683   8.628   6.034   8.150 -0.2375 -0.3281 -0.1257
  110POPC   GL1 1684   8.256   6.103   7.886  0.4151  0.0562  0.3359
  110POPC   GL2 1685   8.047   5.820   8.010 -0.1661 -0.2882 -0.0246
  110POPC   C1A 1686   7.943   6.291   7.596  0.3439 -0.0220  0.2374
  110POPC   D2A 1687   7.784   6.522   7.350  0.0911 -0.0926  0.1031
  110POPC   C3A 1688   7.815   6.748   6.951  0.0579  0.1361 -0.0488
  110POPC   C4A 1689   7.769   7.180   6.630  0.0259  0.0154 -0.0478
  110POPC   C1B 1690   8.039   5.716   7.608 -0.1566 -0.0696  0.0712
  110POPC   C2B 1691   8.154   5.937   7.261  0.0198  0.1778 -0.3154
  110POPC   C3B 1692   8.356   5.925   6.876  0.1847 -0.2749 -0.1540
  110POPC   C4B 1693   8.466   5.757   6.466 -0.3524  0.1332  0.1302
  111POPC   NC3 1694   0.247   6.404   8.314  0.3438  0.1376  0.0305
  111POPC   PO4 1695   0.300   6.238   7.960  0.1646  0.0099  0.2272
  111POPC   GL1 1696   0.335   6.031   7.427  0.3803  0.1945  0.2124
  111POPC   GL2 1697   0.357   5.610   7.522  0.0269 -0.2856 -0.0086
  111POPC   C1A 1698   0.157   6.004   6.986  0.3120  0.0253 -0.1462
  111POPC   D2A 1699   0.196   5.883   6.558 -0.2152 -0.2084 -0.0625
  111POPC   C3A 1700   0.368   6.041   6.208 -0.3493  0.0035  0.1364
  111POPC   C4A 1701   0.674   6.134   5.946 -0.0375 -0.2159 -0.0089
  111POPC   C1B 1702   0.072   5.625   7.266 -0.0730 -0.0132  0.1226
  111POPC   C2B 1703   0.109   5.516   6.832  0.2183 -0.0880 -0.2761
  111POPC   C3B 1704  -0.165   5.404   6.578 -0.0281 -0.5579 -0.0455
  111POPC   C4B 1705  -0.187   5.466   6.019 -0.2951 -0.2710 -0.0414
  112POPC   NC3 1706   9.031   7.469   8.613 -0.2743 -0.1348  0.4920
  112POPC   PO4 1707   9.375   7.580   8.293 -0.4191  0.1099  0.0978
  112POPC   GL1 1708   9.348   7.793   7.919 -0.1919 -0.0879 -0.2235
  112POPC   GL2 1709   9.273   7.427   7.798  0.0398 -0.4662  0.0843
  112POPC   C1A 1710   9.022   7.780   7.630 -0.0995 -0.0818 -0.2943
  112POPC   D2A 1711   8.842   7.773   7.205  0.1616  0.0024 -0.4092
  112POPC   C3A 1712   8.719   7.489   7.004 -0.0078 -0.0506  0.1390
  112POPC   C4A 1713   8.418   7.388   6.641 -0.1428  0.2256 -0.1819
  112POPC   C1B 1714   9.372   7.523   7.343 -0.2041 -0.0293 -0.1728
  112POPC   C2B 1715   9.205   7.516   6.910 -0.0547 -0.2586 -0.2443
  112POPC   C3B 1716   8.959   7.441   6.462  0.1855  0.0632 -0.0712
  112POPC   C4B 1717   8.741   7.331   6.239  0.0396  0.0221 -0.6248
  113POPC   NC3 1718   8.741   3.472   8.385  0.0515  0.2855  0.1035
  113POPC   PO4 1719   8.599   3.694   7.963 -0.0066  0.1156 -0.5063
  113POPC   GL1 1720   8.503   3.638   7.474 -0.0378  0.0623 -0.2458
  113POPC   GL2 1721   8.210   3.327   7.575 -0.1328  0.1143 -0.1062
  113POPC   C1A 1722   8.442   3.962   7.153  0.1381  0.0682 -0.2869
  113POPC   D2A 1723   8.407   4.104   6.835  0.0563  0.6017  0.2363
  113POPC   C3A 1724   8.005   4.319   6.742 -0.4939  0.2125  0.3202
  113POPC   C4A 1725   7.542   4.340   6.895 -0.1654 -0.2113  0.0754
  113POPC   C1B 1726   8.007   3.652   7.228 -0.2423 -0.3861 -0.1142
  113POPC   C2B 1727   7.982   3.822   6.819 -0.0602 -0.1003  0.0411
  113POPC   C3B 1728   7.717   3.720   6.507 -0.4068  0.0119 -0.0641
  113POPC   C4B 1729   8.079   3.779   6.247  0.1803  0.1831 -0.0267
  114POPC   NC3 1730   0.870   0.011   8.207  0.1254 -0.0622  0.0855
  114POPC   PO4 1731   1.120   0.343   8.014 -0.3004 -0.5054 -0.0127
  114POPC   GL1 1732   1.145   0.500   7.706  0.3637  0.1416  0.1148
  114POPC   GL2 1733   1.403   0.445   7.573  0.5209  0.1944  0.0761
  114POPC   C1A 1734   1.024   0.817   7.451 -0.0112 -0.2853  0.1622
  114POPC   D2A 1735   1.018   0.951   7.084 -0.0418 -0.2688  0.2663
  114POPC   C3A 1736   0.848   0.766   6.669 -0.1968  0.0234 -0.0807
  114POPC   C4A 1737   0.515   0.826   6.489 -0.1617  0.3879 -0.1918
  114POPC   C1B 1738   1.812   0.688   7.600 -0.2167  0.2936 -0.2871
  114POPC   C2B 1739   2.025   0.977   7.281  0.0529 -0.1157 -0.0065
  114POPC   C3B 1740   1.868   1.215   6.860  0.0905 -0.0211 -0.2352
  114POPC   C4B 1741   1.800   1.303   6.527  0.0715  0.0226  0.1222
  115POPC   NC3 1742   5.041   1.799   8.314 -0.1243 -0.0465  0.4008
  115POPC   PO4 1743   4.823   2.231   8.417 -0.5793 -0.2328 -0.1116
  115POPC   GL1 1744   5.075   2.126   7.979  0.0889 -0.0189  0.1673
  115POPC   GL2 1745   5.398   2.168   7.928 -0.0989  0.1177 -0.1416
  115POPC   C1A 1746   5.197   1.801   7.605  0.0495  0.1298 -0.0990
  115POPC   D2A 1747   5.114   1.443   7.338 -0.3031  0.1049  0.1735
  115POPC   C3A 1748   4.860   1.369   6.966 -0.0058 -0.0882  0.1830
  115POPC   C4A 1749   4.473   1.354   6.900 -0.2931 -0.0328 -0.1097
  115POPC   C1B 1750   5.274   2.286   7.527  0.2189  0.1656  0.1234
  115POPC   C2B 1751   5.058   2.336   7.160 -0.1668  0.2461 -0.2794
  115POPC   C3B 1752   4.993   2.293   6.648  0.0965 -0.0207 -0.3784
  115POPC   C4B 1753   4.927   2.044   6.305 -0.0209 -0.1647 -0.1434
  116POPC   NC3 1754   4.155   6.910   9.501 -0.2145 -0.4639 -0.3642
  116POPC   PO4 1755   4.407   7.324   9.538  0.0593 -0.2858  0.0916
  116POPC   GL1 1756   4.554   7.266   9.128  0.1061 -0.0463  0.1587
  116POPC   GL2 1757   4.545   7.464   8.833  0.3616  0.1543 -0.0216
  116POPC   C1A 1758   4.961   7.109   8.900  0.3383  0.1419  0.0334
  116POPC   D2A 1759   5.280   6.808   8.730 -0.3316 -0.0810 -0.1527
  116POPC   C3A 1760   5.273   6.760   8.182 -0.1016 -0.1148  0.3266
  116POPC   C4A 1761   5.521   6.735   7.808  0.1821 -0.4645  0.2839
  116POPC   C1B 1762   4.753   7.855   8.672  0.3800 -0.3160  0.1851
  116POPC   C2B 1763   5.029   8.243   8.617  0.1634 -0.2800  0.0393
  116POPC   C3B 1764   5.099   8.219   8.146  0.0780 -0.0890  0.1613
  116POPC   C4B 1765   5.576   8.236   8.193 -0.1072 -0.1328  0.1350
  117POPC   NC3 1766   2.341   6.076   8.758 -0.0304 -0.0659  0.0052
  117POPC   PO4 1767   2.305   6.084   8.249  0.1153 -0.0464  0.1707
  117POPC   GL1 1768   2.278   6.171   7.835  0.0026  0.2158 -0.0353
  117POPC   GL2 1769   2.307   6.529   7.771  0.1124 -0.1740  0.0583
  117POPC   C1A 1770   2.542   5.864   7.491  0.1982 -0.1828  0.3636
  117POPC   D2A 1771   2.732   5.616   7.255 -0.0535  0.0328  0.1128
  117POPC   C3A 1772   2.774   5.774   6.944  0.0765  0.2467 -0.2285
  117POPC   C4A 1773   3.064   5.877   6.640  0.0324  0.2902  0.1648
  117POPC   C1B 1774   2.240   6.431   7.419 -0.0509 -0.1402 -0.1117
  117POPC   C2B 1775   2.540   6.260   7.089  0.2201  0.0718 -0.2671
  117POPC   C3B 1776   2.554   6.078   6.633  0.0339  0.0689  0.0747
  117POPC   C4B 1777   2.574   5.758   6.454  0.0474 -0.0262 -0.0954
  118POPC   NC3 1778   1.881   9.581   8.615 -0.0275  0.0417  0.1145
  118POPC   PO4 1779   2.112   9.971   8.352 -0.1035  0.2321 -0.0516
  118POPC   GL1 1780   2.060   9.947   7.852 -0.1365  0.0627 -0.3760
  118POPC   GL2 1781   1.824   9.905   7.709  0.1336 -0.1341 -0.0632
  118POPC   C1A 1782   2.264   9.898   7.466 -0.0480 -0.1111 -0.2282
  118POPC   D2A 1783   2.287  10.224   7.110 -0.1135  0.1509  0.0590
  118POPC   C3A 1784   1.854  10.277   6.918 -0.1649 -0.0406  0.0004
  118POPC   C4A 1785   1.649  10.033   6.459  0.2125  0.0069  0.1087
  118POPC   C1B 1786   1.757   9.993   7.246 -0.2267  0.0119 -0.3196
  118POPC   C2B 1787   1.702   9.806   6.911 -0.1328  0.0492  0.1838
  118POPC   C3B 1788   1.921   9.565   6.614  0.0392 -0.1859  0.0845
  118POPC   C4B 1789   2.330   9.561   6.520  0.1171  0.3109 -0.1222
  119POPC   NC3 1790   0.079   3.998   8.352  0.0308 -0.1401 -0.0008
  119POPC   PO4 1791   0.371   3.669   8.334 -0.0042  0.2023  0.0617
  119POPC   GL1 1792   0.548   3.474   7.970  0.0777 -0.0077  0.0239
  119POPC   GL2 1793   0.284   3.589   7.888  0.2475 -0.0436  0.3139
  119POPC   C1A 1794   0.733   3.320   7.611  0.2081  0.1094  0.0668
  119POPC   D2A 1795   0.685   3.289   7.167  0.1766 -0.0981 -0.2079
  119POPC   C3A 1796   0.597   3.555   6.776  0.3001  0.2741 -0.1923
  119POPC   C4A 1797   0.352   4.076   6.696  0.3074  0.0099 -0.1271
  119POPC   C1B 1798   0.282   3.386   7.447 -0.0432  0.0545  0.3601
  119POPC   C2B 1799   0.107   3.561   7.044 -0.0142 -0.1908 -0.1770
  119POPC   C3B 1800  -0.317   3.573   6.979  0.3478 -0.0457  0.0173
  119POPC   C4B 1801  -0.683   3.282   7.017  0.0128 -0.1913  0.1762
  120POPC   NC3 1802   5.151   0.048   9.068  0.0984  0.4747  0.3631
  120POPC   PO4 1803   4.787  -0.216   8.905  0.4091 -0.1784 -0.3320
  120POPC   GL1 1804   5.027  -0.438   8.547  0.0299  0.1777  0.1601
  120POPC   GL2 1805   4.875  -0.428   8.300  0.0769  0.0754  0.0328
  120POPC   C1A 1806   5.411  -0.528   8.286  0.0970 -0.1495  0.2133
  120POPC   D2A 1807   5.760  -0.549   8.314 -0.3324 -0.0351 -0.2979
  120POPC   C3A 1808   5.931  -0.698   7.974 -0.0993  0.1038 -0.0976
  120POPC   C4A 1809   6.231  -0.991   7.800  0.1989  0.0884 -0.0190
  120POPC   C1B 1810   5.014  -0.623   7.920  0.5178 -0.0320  0.0462
  120POPC   C2B 1811   5.073  -0.646   7.464 -0.2909  0.0919  0.1832
  120POPC   C3B 1812   5.325  -0.471   7.089 -0.0908  0.1287  0.1562
  120POPC   C4B 1813   5.368  -0.224   6.738  0.1437 -0.1765  0.0400
  121POPC   NC3 1814   7.001   3.376   8.383 -0.1416 -0.1304  0.0142
  121POPC   PO4 1815   6.927   3.667   7.993 -0.0677 -0.1373  0.1072
  121POPC   GL1 1816   6.844   3.824   7.591 -0.0393 -0.1642  0.0061
  121POPC   GL2 1817   6.435   3.950   7.729 -0.1926 -0.5506  0.2862
  121POPC   C1A 1818   6.663   3.993   7.162 -0.6423  0.1748 -0.3034
  121POPC   D2A 1819   6.654   3.799   6.713 -0.2508  0.0736 -0.0570
  121POPC   C3A 1820   6.895   3.604   6.469  0.1745 -0.1937  0.1951
  121POPC   C4A 1821   7.326   3.685   6.193  0.1086 -0.2370  0.0360
  121POPC   C1B 1822   6.420   3.629   7.372 -0.0112 -0.0102  0.0347
  121POPC   C2B 1823   6.172   3.520   7.032  0.0457  0.0928 -0.1307
  121POPC   C3B 1824   6.380   3.372   6.610 -0.0603 -0.0441  0.0350
  121POPC   C4B 1825   6.521   3.408   6.147  0.0586 -0.2878 -0.1359
  122POPC   NC3 1826   2.238   1.165   8.272 -0.1611 -0.0580  0.1935
  122POPC   PO4 1827   2.422   0.818   8.196 -0.0815  0.2149 -0.3207
  122POPC   GL1 1828   2.445   1.035   7.829 -0.1738  0.2858 -0.1350
  122POPC   GL2 1829   2.301   0.731   7.699  0.1856  0.1163  0.0338
  122POPC   C1A 1830   2.436   1.450   7.503  0.2161  0.1818  0.1331
  122POPC   D2A 1831   2.322   1.381   7.048 -0.1184 -0.2283 -0.1355
  122POPC   C3A 1832   2.038   1.723   6.876 -0.1608 -0.0227  0.0560
  122POPC   C4A 1833   2.014   2.075   6.787 -0.0050 -0.0887 -0.3624
  122POPC   C1B 1834   2.645   0.568   7.415 -0.3214  0.2524  0.0226
  122POPC   C2B 1835   2.757   0.310   7.157  0.2314  0.1491  0.0689
  122POPC   C3B 1836   2.664   0.165   6.753 -0.0853 -0.0522 -0.1443
  122POPC   C4B 1837   2.807  -0.169   6.465  0.3992 -0.0100  0.2507
  123POPC   NC3 1838   3.330   3.482   7.959  0.0715  0.2067 -0.2524
  123POPC   PO4 1839   3.701   3.459   8.109 -0.1282  0.1093  0.0945
  123POPC   GL1 1840   3.676   3.184   7.712  0.0872  0.3019 -0.1477
  123POPC   GL2 1841   3.378   3.217   7.520  0.0019  0.3458 -0.0304
  123POPC   C1A 1842   3.831   3.098   7.256 -0.0684 -0.0259 -0.2588
  123POPC   D2A 1843   3.875   2.996   6.893  0.2716  0.3040  0.1193
  123POPC   C3A 1844   3.623   2.709   6.840 -0.0193  0.1573  0.1281
  123POPC   C4A 1845   3.205   2.496   6.972  0.3028  0.0290 -0.0348
  123POPC   C1B 1846   3.259   3.184   7.061 -0.0646 -0.0720 -0.1797
  123POPC   C2B 1847   3.235   3.446   6.724  0.0402  0.3081  0.1331
  123POPC   C3B 1848   3.422   3.672   6.408 -0.0649 -0.0734  0.1224
  123POPC   C4B 1849   3.432   3.863   6.056 -0.0083 -0.2619 -0.0532
  124POPC   NC3 1850   1.502   6.082   8.499  0.2617  0.0222 -0.1066
  124POPC   PO4 1851   1.430   6.365   8.210 -0.1529  0.0685 -0.1724
  124POPC   GL1 1852   1.532   6.357   7.763 -0.2247 -0.0308  0.1164
  124POPC   GL2 1853   1.338   6.113   7.550 -0.1469 -0.1643 -0.0971
  124POPC   C1A 1854   1.723   6.445   7.441  0.2981  0.0166  0.3933
  124POPC   D2A 1855   1.786   6.148   7.179 -0.1818 -0.2741  0.4684
  124POPC   C3A 1856   1.459   6.103   6.832 -0.1250 -0.4861  0.0985
  124POPC   C4A 1857   1.433   5.836   6.512 -0.0722  0.0989  0.1044
  124POPC   C1B 1858   1.345   5.825   7.218 -0.3680  0.1788 -0.2598
  124POPC   C2B 1859   1.063   5.841   6.917 -0.0217  0.1317  0.1850
  124POPC   C3B 1860   1.002   5.644   6.481 -0.0139  0.0386 -0.0598
  124POPC   C4B 1861   1.165   5.226   6.318 -0.0663 -0.1155 -0.1750
  125POPC   NC3 1862   4.347   2.269   8.394 -0.3568  0.0812 -0.3731
  125POPC   PO4 1863   4.190   1.895   8.352 -0.0301 -0.0004 -0.3145
  125POPC   GL1 1864   4.135   1.743   7.906  0.0529 -0.0527  0.3490
  125POPC   GL2 1865   3.850   1.918   7.835 -0.0504  0.1908  0.2575
  125POPC   C1A 1866   4.190   1.493   7.571  0.3439 -0.0852 -0.0317
  125POPC   D2A 1867   3.905   1.293   7.332  0.0871 -0.2361 -0.0843
  125POPC   C3A 1868   3.875   1.435   6.923  0.0467 -0.0512  0.1831
  125POPC   C4A 1869   3.779   1.665   6.522  0.0924 -0.0434 -0.2984
  125POPC   C1B 1870   3.852   1.831   7.348  0.0946  0.0021 -0.0072
  125POPC   C2B 1871   3.445   1.651   7.130  0.0504 -0.0226  0.0292
  125POPC   C3B 1872   3.141   1.652   6.793 -0.1382 -0.3633 -0.2085
  125POPC   C4B 1873   2.864   1.563   6.581 -0.3580  0.0597 -0.1654
  126POPC   NC3 1874   2.522   0.338   8.099 -0.1641 -0.0960  0.0323
  126POPC   PO4 1875   2.741   0.122   8.355  0.2485  0.0475 -0.0922
  126POPC   GL1 1876   2.909   0.012   7.982 -0.0469  0.1863 -0.0709
  126POPC   GL2 1877   2.765   0.100   7.585  0.0609 -0.2847 -0.0855
  126POPC   C1A 1878   3.272   0.043   7.770 -0.2396 -0.1466  0.1675
  126POPC   D2A 1879   3.509  -0.044   7.342 -0.0179  0.1318 -0.0806
  126POPC   C3A 1880   3.185   0.107   6.934 -0.1245 -0.3705 -0.2329
  126POPC   C4A 1881   3.103   0.214   6.477 -0.3055 -0.3764  0.0340
  126POPC   C1B 1882   3.022  -0.160   7.307 -0.0136 -0.0576  0.1333
  126POPC   C2B 1883   2.978  -0.419   6.968  0.1990  0.1200 -0.0891
  126POPC   C3B 1884   3.224  -0.490   6.586  0.1624 -0.0309 -0.3968
  126POPC   C4B 1885   3.444  -0.567   6.253 -0.4183  0.0845 -0.0858
  127POPC   NC3 1886   6.843   1.186   8.365 -0.0493 -0.2461 -0.1228
  127POPC   PO4 1887   6.581   0.735   8.337 -0.0373 -0.0714  0.2530
  127POPC   GL1 1888   6.491   0.751   7.898 -0.2009  0.1138 -0.1631
  127POPC   GL2 1889   6.111   0.713   7.798  0.0953  0.0696 -0.0357
  127POPC   C1A 1890   6.448   0.491   7.466 -0.2324  0.1510  0.0286
  127POPC   D2A 1891   6.439   0.254   7.168  0.3514 -0.2226  0.4450
  127POPC   C3A 1892   6.338   0.387   6.740  0.1046 -0.0694  0.0376
  127POPC   C4A 1893   6.201   0.380   6.332 -0.2275 -0.2172 -0.4842
  127POPC   C1B 1894   5.950   0.552   7.390  0.0359 -0.0173 -0.2280
  127POPC   C2B 1895   5.908   0.434   7.051  0.1541 -0.0578 -0.1865
  127POPC   C3B 1896   5.618   0.199   6.714 -0.0273  0.0290 -0.0814
  127POPC   C4B 1897   5.724   0.074   6.337 -0.0060 -0.2320  0.1024
  128POPC   NC3 1898   4.041   9.635   8.415  0.0368 -0.1262 -0.0985
  128POPC   PO4 1899   4.430   9.951   8.379  0.0661  0.0723  0.4251
  128POPC   GL1 1900   4.301   9.923   7.982  0.0974  0.2603 -0.1828
  128POPC   GL2 1901   4.127  10.174   7.744  0.0636  0.2500 -0.2817
  128POPC   C1A 1902   4.437   9.783   7.598  0.2711 -0.6011  0.1114
  128POPC   D2A 1903   4.641   9.714   7.137 -0.1185 -0.2320  0.1252
  128POPC   C3A 1904   4.276   9.564   6.911 -0.1463 -0.3128 -0.1949
  128POPC   C4A 1905   4.136   9.725   6.507 -0.0546  0.0257 -0.0330
  128POPC   C1B 1906   3.674  10.040   7.614  0.1404 -0.1502  0.0731
  128POPC   C2B 1907   3.658   9.978   7.094  0.2042 -0.2673 -0.2833
  128POPC   C3B 1908   3.722   9.870   6.682  0.0738 -0.1497 -0.1587
  128POPC   C4B 1909   3.629   9.737   6.356  0.0271 -0.0661  0.5123
  129POPC   NC3 1910   2.634   7.016   8.628  0.1697 -0.2907  0.1113
  129POPC   PO4 1911   2.954   6.812   8.503  0.1482  0.1374 -0.0310
  129POPC   GL1 1912   3.298   6.966   8.194  0.0999 -0.0518  0.3788
  129POPC   GL2 1913   3.340   7.311   8.230  0.2057 -0.1616  0.2591
  129POPC   C1A 1914   3.599   6.974   7.903  0.2488 -0.1528 -0.1050
  129POPC   D2A 1915   3.747   7.309   7.794 -0.0217  0.0482  0.2865
  129POPC   C3A 1916   4.135   7.474   7.747 -0.2117 -0.2775  0.2785
  129POPC   C4A 1917   4.399   7.773   7.603  0.0744 -0.0994  0.1748
  129POPC   C1B 1918   3.250   7.371   7.800  0.0462  0.1183 -0.3141
  129POPC   C2B 1919   3.324   7.508   7.356  0.0834  0.0679 -0.4037
  129POPC   C3B 1920   3.522   7.678   7.031 -0.1961  0.0292 -0.1751
  129POPC   C4B 1921   3.650   7.809   6.553  0.0620  0.0704  0.1000
  130POPC   NC3 1922   5.744   9.122   8.849 -0.2931 -0.2602  0.1247
  130POPC   PO4 1923   5.544   9.468   9.233 -0.2387  0.2194  0.2910
  130POPC   GL1 1924   5.565   9.660   8.733 -0.1704  0.1398 -0.2246
  130POPC   GL2 1925   5.831   9.640   8.532  0.3219 -0.0469 -0.1438
  130POPC   C1A 1926   5.289   9.647   8.407 -0.2389 -0.4129  0.2581
  130POPC   D2A 1927   5.190   9.470   8.017  0.1482 -0.3771 -0.0718
  130POPC   C3A 1928   5.301   9.467   7.535  0.0764 -0.2618 -0.0789
  130POPC   C4A 1929   5.121   9.692   7.154 -0.0973 -0.2356  0.0778
  130POPC   C1B 1930   5.734   9.882   8.137  0.1636  0.1307 -0.2417
  130POPC   C2B 1931   5.615   9.917   7.655 -0.0201  0.1845  0.1607
  130POPC   C3B 1932   5.466  10.033   7.261 -0.0132  0.2932  0.3951
  130POPC   C4B 1933   5.246  10.108   6.947  0.1859  0.2568 -0.1108
  131POPC   NC3 1934   0.700   7.469   8.314  0.1274 -0.1234  0.1076
  131POPC   PO4 1935   0.483   7.280   8.034  0.1448 -0.0118 -0.1067
  131POPC   GL1 1936   0.674   7.239   7.604  0.1388 -0.4800 -0.0863
  131POPC   GL2 1937   0.866   6.981   7.519  0.2494  0.1801 -0.0986
  131POPC   C1A 1938   0.621   7.621   7.268  0.1712 -0.3318 -0.0351
  131POPC   D2A 1939   0.812   7.993   7.003  0.1256  0.0904 -0.2258
  131POPC   C3A 1940   0.538   7.758   6.660 -0.3767  0.1632 -0.1017
  131POPC   C4A 1941   0.371   7.324   6.502 -0.2115  0.2156 -0.1219
  131POPC   C1B 1942   0.843   6.831   7.165  0.0095 -0.1201 -0.0766
  131POPC   C2B 1943   0.582   6.932   6.784 -0.1813 -0.1217  0.2156
  131POPC   C3B 1944   0.120   6.850   6.503  0.3082  0.0253 -0.1552
  131POPC   C4B 1945  -0.371   6.776   6.551 -0.1464  0.0792 -0.0109
  132POPC   NC3 1946   0.137   8.149   7.942 -0.3537 -0.2257  0.0197
  132POPC   PO4 1947   0.038   8.513   8.096 -0.0116  0.2170  0.0891
  132POPC   GL1 1948  -0.103   8.628   7.689 -0.2007 -0.0395 -0.2453
  132POPC   GL2 1949   0.092   8.925   7.586  0.2881  0.0955  0.2318
  132POPC   C1A 1950  -0.498   8.622   7.406  0.2635 -0.0701  0.0902
  132POPC   D2A 1951  -0.682   8.845   7.111  0.0899  0.0466  0.2419
  132POPC   C3A 1952  -0.450   9.229   6.993 -0.3884 -0.2947 -0.1980
  132POPC   C4A 1953  -0.410   9.497   6.681  0.2206  0.0261  0.2781
  132POPC   C1B 1954  -0.126   8.961   7.203 -0.1014 -0.2114 -0.2251
  132POPC   C2B 1955  -0.222   8.707   6.975 -0.3561 -0.3205  0.0151
  132POPC   C3B 1956  -0.456   8.597   6.702  0.3952  0.0909  0.3527
  132POPC   C4B 1957  -0.450   8.283   6.296  0.1503 -0.2973 -0.1449
  133POPC   NC3 1958   8.805   6.325   8.496  0.2481  0.0787  0.0471
  133POPC   PO4 1959   8.976   6.462   8.229 -0.2053 -0.0383  0.0987
  133POPC   GL1 1960   8.568   6.508   8.037  0.3174 -0.1407 -0.2172
  133POPC   GL2 1961   8.269   6.605   8.204 -0.1121  0.0787  0.3540
  133POPC   C1A 1962   8.492   6.443   7.597  0.0043 -0.1449 -0.2628
  133POPC   D2A 1963   8.303   6.578   7.266  0.0054  0.1537  0.3399
  133POPC   C3A 1964   8.101   6.314   6.983  0.0181  0.0327 -0.0041
  133POPC   C4A 1965   7.861   6.191   6.572 -0.0145  0.0796  0.2748
  133POPC   C1B 1966   8.058   6.770   7.772  0.0101 -0.0362  0.1678
  133POPC   C2B 1967   8.132   7.010   7.434  0.2004 -0.0176  0.0244
  133POPC   C3B 1968   8.003   7.329   7.026 -0.0470  0.1305  0.4605
  133POPC   C4B 1969   7.968   7.633   6.679  0.0304 -0.2489 -0.1176
  134POPC   NC3 1970   1.997   7.155   8.276 -0.0067  0.1602  0.3061
  134POPC   PO4 1971   1.702   7.461   8.163  0.3388  0.1647 -0.0227
  134POPC   GL1 1972   1.426   7.333   7.805 -0.0609  0.3126 -0.1334
  134POPC   GL2 1973   1.361   7.056   7.622  0.2158 -0.1122  0.0993
  134POPC   C1A 1974   1.564   7.561   7.423 -0.1001  0.2562  0.0071
  134POPC   D2A 1975   1.558   7.411   6.926 -0.1396 -0.1681 -0.1539
  134POPC   C3A 1976   1.353   7.641   6.643 -0.1801 -0.0944 -0.2752
  134POPC   C4A 1977   0.905   7.616   6.334 -0.0035 -0.1929  0.0811
  134POPC   C1B 1978   1.434   6.984   7.254 -0.3386 -0.0949  0.2780
  134POPC   C2B 1979   1.289   6.950   6.903  0.1852 -0.2209  0.1404
  134POPC   C3B 1980   1.067   6.770   6.641  0.2242  0.3265  0.1832
  134POPC   C4B 1981   0.630   6.578   6.382  0.1555  0.2690 -0.3105
  135POPC   NC3 1982   1.826   4.588   8.298 -0.0296  0.3028  0.0464
  135POPC   PO4 1983   2.299   4.472   8.311 -0.1050 -0.3885  0.1748
  135POPC   GL1 1984   2.383   4.539   7.950 -0.1071 -0.3601  0.1747
  135POPC   GL2 1985   2.407   4.199   7.846 -0.2503 -0.0322  0.1902
  135POPC   C1A 1986   2.384   4.781   7.539  0.2309  0.0045  0.2866
  135POPC   D2A 1987   2.122   5.079   7.390 -0.1110 -0.0645 -0.0529
  135POPC   C3A 1988   2.366   5.308   7.065  0.2639  0.2133 -0.0197
  135POPC   C4A 1989   2.366   5.263   6.626 -0.0150 -0.0795  0.0421
  135POPC   C1B 1990   2.283   4.196   7.402 -0.1031  0.2781  0.1119
  135POPC   C2B 1991   2.298   4.485   7.144  0.0221  0.1041 -0.1693
  135POPC   C3B 1992   2.188   4.802   6.902  0.0750 -0.1350  0.1537
  135POPC   C4B 1993   2.033   4.812   6.472 -0.1009 -0.0718  0.0872
  136POPC   NC3 1994   5.569   4.878   8.344  0.1939  0.1968 -0.0531
  136POPC   PO4 1995   5.133   4.749   8.321  0.0336  0.0381 -0.2209
  136POPC   GL1 1996   5.198   5.034   7.971  0.1011  0.1750 -0.3339
  136POPC   GL2 1997   5.223   4.754   7.722 -0.3454 -0.1728  0.0600
  136POPC   C1A 1998   5.206   5.347   7.726 -0.2808  0.0403  0.0710
  136POPC   D2A 1999   5.109   5.523   7.273  0.0869 -0.0051  0.0356
  136POPC   C3A 2000   5.330   5.388   6.984  0.2595 -0.1124  0.1319
  136POPC   C4A 2001   5.702   5.243   6.814 -0.0989  0.2464 -0.1328
  136POPC   C1B 2002   4.997   5.015   7.411  0.0773  0.2269 -0.0656
  136POPC   C2B 2003   4.811   5.131   6.975 -0.1941 -0.1787 -0.0596
  136POPC   C3B 2004   5.108   5.193   6.563  0.2254  0.3375  0.0636
  136POPC   C4B 2005   5.189   4.928   6.234 -0.1160  0.2470  0.2495
  137POPC   NC3 2006   3.157   6.340   8.722  0.2382 -0.0044  0.2691
  137POPC   PO4 2007   3.419   6.018   8.903  0.3427 -0.1789  0.0838
  137POPC   GL1 2008   3.533   6.141   8.384  0.0029 -0.1669  0.1424
  137POPC   GL2 2009   3.278   5.957   8.098  0.1549 -0.3650  0.1601
  137POPC   C1A 2010   3.527   6.509   8.155  0.4434 -0.1358 -0.1351
  137POPC   D2A 2011   3.882   6.541   7.934 -0.1575 -0.1365 -0.1196
  137POPC   C3A 2012   4.113   6.916   7.968 -0.1636  0.0246 -0.0508
  137POPC   C4A 2013   4.342   7.349   8.171 -0.1550  0.1542 -0.0000
  137POPC   C1B 2014   3.299   6.217   7.701  0.3845 -0.4021 -0.0832
  137POPC   C2B 2015   3.617   6.525   7.526 -0.0790  0.0722 -0.0195
  137POPC   C3B 2016   4.012   6.723   7.435  0.3019  0.2550 -0.0597
  137POPC   C4B 2017   4.124   7.055   7.500 -0.0996  0.0250 -0.1307
  138POPC   NC3 2018   7.015   0.064   8.920  0.0514  0.0758  0.1062
  138POPC   PO4 2019   6.665  -0.298   8.955  0.2486  0.1438  0.1157
  138POPC   GL1 2020   6.743  -0.301   8.544  0.1404  0.0204 -0.5912
  138POPC   GL2 2021   6.646  -0.715   8.579 -0.1186  0.3260  0.0371
  138POPC   C1A 2022   6.648  -0.175   8.084 -0.0649 -0.0765  0.3969
  138POPC   D2A 2023   6.609  -0.100   7.536 -0.1478 -0.2872  0.2099
  138POPC   C3A 2024   7.041  -0.002   7.262 -0.0612  0.3038  0.1637
  138POPC   C4A 2025   7.306   0.165   6.884  0.2216 -0.1880 -0.2347
  138POPC   C1B 2026   6.432  -0.599   8.148 -0.1696 -0.2559 -0.2031
  138POPC   C2B 2027   6.350  -0.449   7.707 -0.0266  0.1415  0.0083
  138POPC   C3B 2028   6.496  -0.454   7.238 -0.3347 -0.2450 -0.1266
  138POPC   C4B 2029   6.353  -0.597   6.841 -0.0858 -0.0591  0.2915
  139POPC   NC3 2030   3.122   9.580   8.563 -0.0149 -0.2920  0.1336
  139POPC   PO4 2031   3.609   9.420   8.599  0.3873  0.2961  0.0522
  139POPC   GL1 2032   3.682   9.231   8.191 -0.5579 -0.1231  0.1018
  139POPC   GL2 2033   4.025   9.115   8.344 -0.1547 -0.3047  0.1836
  139POPC   C1A 2034   3.672   8.728   7.939  0.0211  0.0021  0.1504
  139POPC   D2A 2035   3.715   8.359   7.581  0.2512  0.2026 -0.1079
  139POPC   C3A 2036   3.792   8.556   7.191  0.1791  0.1238 -0.0155
  139POPC   C4A 2037   4.019   8.873   7.152  0.0829  0.1866  0.2414
  139POPC   C1B 2038   4.055   9.061   7.899  0.0966  0.1186  0.1678
  139POPC   C2B 2039   3.824   9.180   7.486 -0.1376  0.3044 -0.1745
  139POPC   C3B 2040   3.835   9.307   7.022  0.0333 -0.1033  0.1887
  139POPC   C4B 2041   3.511   9.479   6.886 -0.0327  0.2488  0.1544
  140POPC   NC3 2042   6.307   1.861   8.463 -0.0202  0.0702 -0.1006
  140POPC   PO4 2043   5.861   1.557   8.366 -0.0478  0.0142 -0.1026
  140POPC   GL1 2044   5.889   1.324   8.006 -0.0505 -0.3435 -0.0088
  140POPC   GL2 2045   5.560   1.208   7.980  0.1129  0.3029 -0.0401
  140POPC   C1A 2046   5.818   1.006   7.575 -0.4033  0.2273  0.0675
  140POPC   D2A 2047   5.636   0.843   7.119  0.1791 -0.3218  0.0362
  140POPC   C3A 2048   5.499   0.836   6.670  0.0988 -0.2515  0.1461
  140POPC   C4A 2049   5.447   1.110   6.303  0.1257  0.0266 -0.2731
  140POPC   C1B 2050   5.553   1.411   7.610  0.0206  0.0250  0.1408
  140POPC   C2B 2051   5.576   1.355   7.162  0.2570 -0.0206  0.0752
  140POPC   C3B 2052   5.437   1.401   6.827 -0.2374  0.0901 -0.0112
  140POPC   C4B 2053   5.234   1.882   6.679 -0.0048  0.0889 -0.2124
  141POPC   NC3 2054   5.696   0.605   8.690  0.0400  0.1805  0.0559
  141POPC   PO4 2055   5.302   0.504   8.796  0.0265 -0.2730  0.2741
  141POPC   GL1 2056   5.269   0.446   8.337 -0.2465 -0.5223 -0.0602
  141POPC   GL2 2057   5.515   0.736   8.174  0.1581 -0.0979  0.1546
  141POPC   C1A 2058   5.197   0.323   7.974 -0.0274  0.1448 -0.0078
  141POPC   D2A 2059   4.939   0.179   7.592  0.1148 -0.1221 -0.3156
  141POPC   C3A 2060   4.768  -0.286   7.577 -0.2988 -0.1302  0.1797
  141POPC   C4A 2061   4.590  -0.770   7.584  0.0409  0.1593 -0.0247
  141POPC   C1B 2062   5.432   0.754   7.755 -0.3241 -0.0468  0.1037
  141POPC   C2B 2063   5.262   0.990   7.431  0.0681  0.0177 -0.3091
  141POPC   C3B 2064   5.158   0.924   7.015  0.0318 -0.0246 -0.3848
  141POPC   C4B 2065   5.051   1.176   6.514  0.2473 -0.2713 -0.1083
  142POPC   NC3 2066   0.147   2.669   8.015 -0.0753 -0.1418  0.1385
  142POPC   PO4 2067  -0.142   2.395   8.149  0.0487  0.0098 -0.0001
  142POPC   GL1 2068  -0.272   2.697   7.751  0.1498  0.0461 -0.1660
  142POPC   GL2 2069  -0.537   2.931   7.751  0.1839  0.2676 -0.2701
  142POPC   C1A 2070  -0.278   2.471   7.381  0.1028 -0.0591 -0.2860
  142POPC   D2A 2071  -0.163   2.329   6.919 -0.1494 -0.1487  0.1507
  142POPC   C3A 2072   0.224   2.051   6.822  0.1084  0.0763 -0.1793
  142POPC   C4A 2073   0.522   1.731   6.667 -0.1671  0.1744 -0.1618
  142POPC   C1B 2074  -0.587   2.863   7.288 -0.0801  0.0442 -0.2521
  142POPC   C2B 2075  -0.976   2.600   7.084 -0.2051 -0.1494  0.4182
  142POPC   C3B 2076  -1.236   2.444   6.729  0.1817  0.0725  0.0635
  142POPC   C4B 2077  -1.215   2.185   6.495 -0.1977 -0.1341  0.1313
  143POPC   NC3 2078   1.571   9.123   8.207  0.0269 -0.1428 -0.0425
  143POPC   PO4 2079   1.361   8.751   8.017  0.0400 -0.1045  0.0219
  143POPC   GL1 2080   1.318   8.539   7.609 -0.0299 -0.0225 -0.0572
  143POPC   GL2 2081   1.012   8.543   7.643  0.2144  0.2147 -0.0588
  143POPC   C1A 2082   1.531   8.271   7.358  0.1578  0.1515 -0.1923
  143POPC   D2A 2083   1.900   8.281   7.161 -0.3026  0.0470  0.1377
  143POPC   C3A 2084   2.219   8.100   6.875  0.2177  0.1144  0.1496
  143POPC   C4A 2085   2.318   7.851   6.532  0.4451 -0.2155  0.0009
  143POPC   C1B 2086   1.063   8.404   7.162 -0.1865  0.0461 -0.2428
  143POPC   C2B 2087   0.980   8.419   6.748 -0.1807 -0.2641  0.1314
  143POPC   C3B 2088   1.022   8.074   6.502 -0.3012  0.1436  0.1138
  143POPC   C4B 2089   1.347   7.862   6.146  0.1289 -0.3171  0.1421
  144POPC   NC3 2090   7.437   5.502   4.012 -0.0394 -0.0073 -0.2699
  144POPC   PO4 2091   7.666   5.315   4.347 -0.0720  0.0930  0.4034
  144POPC   GL1 2092   7.750   5.128   4.723 -0.1407 -0.1086  0.0258
  144POPC   GL2 2093   7.994   5.059   4.704 -0.0025 -0.0934 -0.0935
  144POPC   C1A 2094   7.683   4.858   5.113  0.1490 -0.0124 -0.1447
  144POPC   D2A 2095   7.466   4.879   5.555 -0.0541 -0.4012 -0.0581
  144POPC   C3A 2096   7.230   5.293   5.534 -0.2170 -0.1087  0.0205
  144POPC   C4A 2097   6.986   5.652   5.559  0.2983 -0.2698 -0.0685
  144POPC   C1B 2098   8.094   5.205   5.144 -0.2134 -0.0085 -0.0429
  144POPC   C2B 2099   8.242   5.254   5.549  0.3791 -0.0373  0.3004
  144POPC   C3B 2100   8.473   5.298   5.969  0.0445 -0.0472  0.2994
  144POPC   C4B 2101   8.843   5.529   6.099 -0.2152 -0.0979 -0.2703
  145POPC   NC3 2102   9.657   6.875   4.035  0.1694  0.1596 -0.1196
  145POPC   PO4 2103   9.588   6.399   4.167  0.0515 -0.1127  0.2656
  145POPC   GL1 2104   9.808   6.223   4.545  0.5024  0.1694 -0.1599
  145POPC   GL2 2105   9.657   6.027   4.793  0.2908  0.0146  0.1202
  145POPC   C1A 2106   9.975   6.400   4.934 -0.4969 -0.1837  0.3247
  145POPC   D2A 2107  10.189   6.564   5.376 -0.4334 -0.0309 -0.1482
  145POPC   C3A 2108  10.468   6.967   5.356  0.1383 -0.1081 -0.0432
  145POPC   C4A 2109  10.632   7.393   5.317 -0.0255  0.0046 -0.4072
  145POPC   C1B 2110   9.836   5.875   5.011 -0.1295  0.2086  0.0575
  145POPC   C2B 2111  10.164   5.560   5.278 -0.0832 -0.2448 -0.1683
  145POPC   C3B 2112  10.509   5.373   5.564  0.1217 -0.0857  0.2926
  145POPC   C4B 2113  10.816   5.210   5.814  0.1585 -0.2190  0.2275
  146POPC   NC3 2114   5.655   3.318   4.527 -0.0150 -0.0791  0.2072
  146POPC   PO4 2115   5.123   3.222   4.446 -0.4817 -0.0594 -0.2251
  146POPC   GL1 2116   5.229   3.348   4.851  0.0468 -0.2994  0.4482
  146POPC   GL2 2117   5.511   3.211   5.021  0.1151  0.1716  0.3264
  146POPC   C1A 2118   5.008   3.540   5.254 -0.0665  0.1031 -0.2807
  146POPC   D2A 2119   5.067   3.671   5.802  0.0052 -0.1769  0.1999
  146POPC   C3A 2120   5.092   4.019   5.961  0.2145 -0.2373 -0.1540
  146POPC   C4A 2121   4.984   4.410   6.061 -0.0127 -0.0574  0.0010
  146POPC   C1B 2122   5.402   3.283   5.401  0.4303  0.1630 -0.2988
  146POPC   C2B 2123   5.297   3.111   5.883  0.0653 -0.3694 -0.1088
  146POPC   C3B 2124   4.887   3.303   6.036 -0.0423 -0.0885 -0.0974
  146POPC   C4B 2125   4.506   3.086   6.016 -0.0205 -0.0367  0.4856
  147POPC   NC3 2126   8.074   7.854   4.213 -0.2051 -0.2483 -0.1288
  147POPC   PO4 2127   7.725   7.617   4.174  0.0747 -0.2864  0.0156
  147POPC   GL1 2128   7.623   7.717   4.618  0.4515  0.0473 -0.0045
  147POPC   GL2 2129   7.821   8.028   4.589  0.0835 -0.0137  0.4236
  147POPC   C1A 2130   7.080   7.610   4.737  0.0005 -0.0140  0.0930
  147POPC   D2A 2131   6.803   7.481   4.986 -0.0019  0.0020  0.0518
  147POPC   C3A 2132   7.002   7.056   5.168 -0.2048 -0.0511 -0.1795
  147POPC   C4A 2133   6.808   6.638   5.191  0.4310 -0.1454  0.1181
  147POPC   C1B 2134   7.547   8.117   4.891  0.0092  0.1532  0.1557
  147POPC   C2B 2135   7.578   8.041   5.269 -0.0245  0.1661 -0.3824
  147POPC   C3B 2136   7.478   7.896   5.638  0.1919 -0.0540  0.0817
  147POPC   C4B 2137   7.363   7.559   5.754 -0.0099  0.1068  0.0010
  148POPC   NC3 2138   2.434   8.410   3.888 -0.1515  0.0612 -0.1619
  148POPC   PO4 2139   2.485   8.837   3.998  0.0595 -0.4784 -0.1806
  148POPC   GL1 2140   2.833   8.979   4.353 -0.1156 -0.2015  0.0382
  148POPC   GL2 2141   2.723   9.215   4.460 -0.4566 -0.0501 -0.1606
  148POPC   C1A 2142   3.228   8.854   4.462 -0.1464  0.0467  0.1868
  148POPC   D2A 2143   3.488   8.526   4.657  0.0727 -0.0427 -0.1417
  148POPC   C3A 2144   3.931   8.728   4.839 -0.1817 -0.0367 -0.2010
  148POPC   C4A 2145   3.973   8.821   5.245  0.0454  0.1719 -0.1493
  148POPC   C1B 2146   2.535   9.364   4.863 -0.0587  0.0408  0.0465
  148POPC   C2B 2147   2.381   9.209   5.283 -0.0028  0.2893  0.0796
  148POPC   C3B 2148   2.345   9.143   5.749 -0.0675  0.0320  0.0948
  148POPC   C4B 2149   2.458   9.394   6.055 -0.0038 -0.0468  0.2493
  149POPC   NC3 2150   1.236   3.224   4.587 -0.0275  0.0476 -0.1228
  149POPC   PO4 2151   1.277   3.672   4.378 -0.0329 -0.2051 -0.0192
  149POPC   GL1 2152   1.297   3.986   4.747  0.2703  0.0957  0.2296
  149POPC   GL2 2153   1.541   4.143   4.878 -0.2948  0.0038  0.0669
  149POPC   C1A 2154   1.139   4.125   5.127 -0.3515  0.0772  0.3541
  149POPC   D2A 2155   1.001   4.289   5.588  0.1898  0.1976 -0.1005
  149POPC   C3A 2156   0.931   4.274   6.056  0.1842 -0.3629 -0.4940
  149POPC   C4A 2157   1.115   4.407   6.490 -0.0237  0.0432 -0.0354
  149POPC   C1B 2158   1.535   4.420   5.212  0.1684 -0.3739 -0.2525
  149POPC   C2B 2159   1.761   4.620   5.531 -0.0920 -0.1815 -0.0284
  149POPC   C3B 2160   1.802   4.696   6.045  0.1472  0.0281  0.2280
  149POPC   C4B 2161   1.506   4.842   6.346  0.4164  0.1052  0.1261
  150POPC   NC3 2162   9.660   8.102   4.072 -0.0275  0.0828 -0.1998
  150POPC   PO4 2163   9.304   8.036   4.033 -0.0175  0.1361 -0.0398
  150POPC   GL1 2164   9.305   7.662   4.440 -0.0500  0.0484 -0.0258
  150POPC   GL2 2165   9.001   7.499   4.469 -0.2314  0.3765 -0.1319
  150POPC   C1A 2166   9.416   7.546   4.843 -0.1085 -0.1387  0.1659
  150POPC   D2A 2167   9.173   7.576   5.243 -0.0505 -0.3261 -0.0099
  150POPC   C3A 2168   9.135   7.344   5.578 -0.1661  0.1336  0.0654
  150POPC   C4A 2169   9.208   7.296   5.991  0.3272  0.1956 -0.0674
  150POPC   C1B 2170   8.860   7.507   4.926  0.1916 -0.0349  0.1044
  150POPC   C2B 2171   8.690   7.634   5.380 -0.0559 -0.1798 -0.0382
  150POPC   C3B 2172   8.883   7.664   5.864  0.2970  0.0142  0.2588
  150POPC   C4B 2173   8.794   7.883   6.258 -0.1171  0.0937  0.0246
  151POPC   NC3 2174   8.449   3.584   4.209  0.1137 -0.0459 -0.2395
  151POPC   PO4 2175   8.813   3.481   4.508  0.1465  0.1604  0.2138
  151POPC   GL1 2176   8.746   3.389   4.897  0.2250 -0.0761  0.0742
  151POPC   GL2 2177   8.602   3.058   5.104 -0.4205 -0.1643  0.0831
  151POPC   C1A 2178   8.933   3.303   5.322  0.1533 -0.0077  0.3213
  151POPC   D2A 2179   9.244   3.263   5.701  0.0878 -0.0236  0.0849
  151POPC   C3A 2180   9.547   2.842   5.758 -0.2596  0.0778  0.3975
  151POPC   C4A 2181   9.535   2.472   5.797 -0.2716 -0.2283 -0.0532
  151POPC   C1B 2182   8.784   2.880   5.454  0.1483 -0.2903 -0.0705
  151POPC   C2B 2183   9.102   2.588   5.632  0.0714 -0.0956  0.0054
  151POPC   C3B 2184   9.124   2.325   5.999 -0.2891 -0.1074 -0.1035
  151POPC   C4B 2185   9.371   2.303   6.377 -0.4558  0.1952 -0.3387
  152POPC   NC3 2186   9.310   1.499   4.092  0.0295 -0.0926 -0.3810
  152POPC   PO4 2187   9.143   1.298   4.285 -0.0659  0.0784 -0.0641
  152POPC   GL1 2188   9.370   1.298   4.637 -0.1157  0.2895  0.1856
  152POPC   GL2 2189   9.551   1.540   4.674  0.0898  0.5001  0.0281
  152POPC   C1A 2190   9.333   1.379   5.075 -0.1668  0.1604 -0.0878
  152POPC   D2A 2191   9.521   1.419   5.451 -0.2525 -0.1355  0.3407
  152POPC   C3A 2192   9.257   1.335   5.809  0.0034  0.1431 -0.1845
  152POPC   C4A 2193   8.957   1.237   6.155  0.4314  0.1778  0.3636
  152POPC   C1B 2194   9.724   1.627   5.051 -0.3087  0.0388  0.3955
  152POPC   C2B 2195   9.932   1.294   5.253  0.3581  0.0316  0.0299
  152POPC   C3B 2196   9.941   1.037   5.645  0.3499 -0.1300 -0.0432
  152POPC   C4B 2197   9.941   1.165   6.089  0.0750 -0.0094 -0.1561
  153POPC   NC3 2198   5.534   2.312   4.674 -0.2680 -0.0262 -0.1425
  153POPC   PO4 2199   5.975   2.580   4.681 -0.1457 -0.0959  0.1716
  153POPC   GL1 2200   5.822   2.780   5.039 -0.1187  0.5420  0.2329
  153POPC   GL2 2201   5.570   2.715   5.078  0.1891  0.1137  0.1219
  153POPC   C1A 2202   5.936   2.763   5.486 -0.0738 -0.0382  0.2369
  153POPC   D2A 2203   6.194   2.753   5.764  0.1240 -0.2881 -0.1533
  153POPC   C3A 2204   6.250   2.897   6.173  0.1771  0.1686 -0.0797
  153POPC   C4A 2205   6.002   2.809   6.428 -0.0113 -0.2078  0.1503
  153POPC   C1B 2206   5.424   2.772   5.516 -0.2449 -0.0144  0.1468
  153POPC   C2B 2207   5.369   2.530   5.898  0.0655 -0.3267  0.1140
  153POPC   C3B 2208   5.438   2.241   6.284  0.0158  0.4321 -0.0468
  153POPC   C4B 2209   5.562   2.306   6.780  0.1087  0.2965  0.0382
  154POPC   NC3 2210   2.655   5.041   4.083 -0.0975 -0.1975 -0.3261
  154POPC   PO4 2211   3.030   5.296   4.225  0.3484  0.1855  0.3340
  154POPC   GL1 2212   3.116   5.210   4.613 -0.1985 -0.0591 -0.1524
  154POPC   GL2 2213   3.376   5.105   4.652 -0.0105  0.2205 -0.3065
  154POPC   C1A 2214   2.932   4.886   4.884  0.1512 -0.0419 -0.0441
  154POPC   D2A 2215   2.991   4.919   5.346 -0.1245  0.2866 -0.2866
  154POPC   C3A 2216   3.067   4.345   5.523  0.0754  0.3768 -0.2168
  154POPC   C4A 2217   3.016   3.880   5.603  0.1992 -0.1166 -0.0044
  154POPC   C1B 2218   3.474   5.066   5.037  0.0541 -0.1697  0.0653
  154POPC   C2B 2219   3.612   5.149   5.508  0.0246  0.5152 -0.2978
  154POPC   C3B 2220   3.598   5.278   5.955 -0.0192 -0.0187  0.1026
  154POPC   C4B 2221   3.758   5.372   6.318 -0.3330 -0.0840 -0.3340
  155POPC   NC3 2222   0.830   2.424   4.311  0.0117  0.0404 -0.0644
  155POPC   PO4 2223   0.789   2.789   4.583  0.2706 -0.0855  0.1942
  155POPC   GL1 2224   1.048   2.943   5.021  0.0332  0.1237 -0.2026
  155POPC   GL2 2225   1.494   3.034   5.057  0.1686  0.1134  0.2361
  155POPC   C1A 2226   1.126   3.218   5.417 -0.0719  0.0856  0.0479
  155POPC   D2A 2227   0.873   3.370   5.703  0.1390 -0.0593  0.2171
  155POPC   C3A 2228   0.711   3.368   6.076 -0.1393  0.0853 -0.2200
  155POPC   C4A 2229   0.583   3.134   6.473 -0.1048  0.3209 -0.2392
  155POPC   C1B 2230   1.403   3.527   5.111  0.2313 -0.5228  0.1698
  155POPC   C2B 2231   1.549   3.924   5.303 -0.0128  0.0303  0.1429
  155POPC   C3B 2232   1.503   4.106   5.706 -0.1368  0.0942  0.1685
  155POPC   C4B 2233   1.465   4.335   6.113  0.3023  0.0211  0.1252
  156POPC   NC3 2234   6.480   0.768   4.489  0.0018  0.1073 -0.1125
  156POPC   PO4 2235   6.829   0.954   4.679  0.2545 -0.1828  0.1442
  156POPC   GL1 2236   7.068   1.179   5.045  0.1488 -0.2197  0.0581
  156POPC   GL2 2237   7.268   1.247   5.146 -0.0997 -0.3540 -0.1161
  156POPC   C1A 2238   6.907   1.281   5.550 -0.1282 -0.3599  0.3308
  156POPC   D2A 2239   6.901   0.929   5.847 -0.0895  0.0280 -0.0325
  156POPC   C3A 2240   6.944   0.822   6.214  0.0598 -0.0210  0.0188
  156POPC   C4A 2241   6.705   0.745   6.588  0.2319  0.1910  0.3497
  156POPC   C1B 2242   7.403   1.330   5.591  0.0112  0.4208  0.2213
  156POPC   C2B 2243   7.136   1.382   5.982  0.0276  0.0873  0.1125
  156POPC   C3B 2244   6.918   1.727   6.041  0.1900 -0.0540  0.0278
  156POPC   C4B 2245   6.612   1.920   6.317  0.3105  0.0323  0.3115
  157POPC   NC3 2246   4.577   0.783   4.290 -0.1710  0.0157  0.0407
  157POPC   PO4 2247   4.251   0.370   4.157 -0.1750  0.0992 -0.1325
  157POPC   GL1 2248   4.295   0.158   4.503 -0.0380 -0.3101 -0.2934
  157POPC   GL2 2249   4.216   0.331   4.868  0.0592  0.0858 -0.0801
  157POPC   C1A 2250   4.689   0.190   4.757  0.1322 -0.3011 -0.1041
  157POPC   D2A 2251   5.077   0.164   4.774 -0.1914 -0.0414 -0.1854
  157POPC   C3A 2252   5.374   0.014   5.147  0.2980  0.0784 -0.2922
  157POPC   C4A 2253   5.595  -0.318   5.329 -0.1622 -0.1085  0.0748
  157POPC   C1B 2254   4.436   0.018   5.165  0.0969 -0.2624  0.2116
  157POPC   C2B 2255   4.809   0.087   5.300 -0.2153  0.1669  0.0643
  157POPC   C3B 2256   5.238  -0.125   5.603 -0.1862  0.2543 -0.0510
  157POPC   C4B 2257   5.459   0.089   5.837  0.2891 -0.0231  0.0015
  158POPC   NC3 2258   5.832   2.255   4.299 -0.0917  0.0293 -0.2778
  158POPC   PO4 2259   5.812   1.911   4.607 -0.2458 -0.1933 -0.1172
  158POPC   GL1 2260   5.960   1.776   4.993  0.1332 -0.1937  0.3701
  158POPC   GL2 2261   6.193   1.626   5.063 -0.1612  0.4264  0.3005
  158POPC   C1A 2262   5.783   1.799   5.394  0.1587 -0.1818 -0.2666
  158POPC   D2A 2263   6.087   1.656   5.675 -0.2573 -0.0984  0.1464
  158POPC   C3A 2264   6.032   1.239   5.505 -0.2013  0.3186 -0.0707
  158POPC   C4A 2265   5.892   0.959   5.213 -0.2876 -0.2499 -0.0127
  158POPC   C1B 2266   6.535   1.552   5.519  0.1012 -0.2253  0.0962
  158POPC   C2B 2267   6.416   1.325   5.923 -0.0981  0.0235  0.2656
  158POPC   C3B 2268   6.641   1.437   6.327 -0.0695 -0.1056 -0.0323
  158POPC   C4B 2269   6.966   1.364   6.486  0.1236  0.3237 -0.3250
  159POPC   NC3 2270   8.926   2.977   4.593  0.0330 -0.1133  0.0570
  159POPC   PO4 2271   8.618   2.619   4.430  0.0635 -0.1738 -0.2112
  159POPC   GL1 2272   8.603   2.622   4.856 -0.1726 -0.1825  0.2384
  159POPC   GL2 2273   8.272   2.769   4.857 -0.0414  0.0403 -0.0884
  159POPC   C1A 2274   8.796   2.406   5.196  0.1632 -0.0280  0.1511
  159POPC   D2A 2275   8.610   2.335   5.654 -0.2095 -0.1791 -0.0871
  159POPC   C3A 2276   8.776   2.652   5.939  0.0146  0.1623  0.0038
  159POPC   C4A 2277   8.765   3.048   5.955 -0.0974 -0.1317 -0.0639
  159POPC   C1B 2278   7.876   2.851   5.038 -0.0280 -0.4662  0.0180
  159POPC   C2B 2279   7.589   2.759   5.410  0.2286  0.1513 -0.1849
  159POPC   C3B 2280   7.388   2.835   5.792  0.0885 -0.1277 -0.2363
  159POPC   C4B 2281   7.278   2.620   6.093 -0.0792 -0.0449 -0.1065
  160POPC   NC3 2282   6.005   8.719   3.327 -0.0983  0.0262 -0.0714
  160POPC   PO4 2283   5.963   9.238   3.458  0.0018 -0.1275  0.2114
  160POPC   GL1 2284   6.019   8.967   3.788 -0.2384  0.0879 -0.0449
  160POPC   GL2 2285   6.044   8.571   3.857  0.2832  0.0873  0.0561
  160POPC   C1A 2286   6.007   8.886   4.218  0.1598 -0.1961  0.0773
  160POPC   D2A 2287   6.015   8.777   4.510  0.2260  0.1789  0.1399
  160POPC   C3A 2288   6.227   8.801   4.899 -0.2995 -0.3463  0.1342
  160POPC   C4A 2289   6.404   8.803   5.341 -0.0711  0.0337  0.0920
  160POPC   C1B 2290   6.469   8.775   4.008 -0.3078  0.1929 -0.0664
  160POPC   C2B 2291   6.536   8.857   4.471  0.1173  0.2751 -0.2681
  160POPC   C3B 2292   6.754   8.971   4.873  0.2514  0.1096  0.1774
  160POPC   C4B 2293   7.144   9.009   4.852  0.1735 -0.0886 -0.1443
  161POPC   NC3 2294   9.557   2.924   4.135 -0.0744 -0.3385  0.0365
  161POPC   PO4 2295   9.513   2.933   4.515  0.1402 -0.1193 -0.1998
  161POPC   GL1 2296   9.556   3.103   4.868  0.1960  0.0344 -0.1623
  161POPC   GL2 2297   9.875   3.336   4.850 -0.0859 -0.4362 -0.0342
  161POPC   C1A 2298   9.394   3.274   5.235  0.2547 -0.0297  0.0016
  161POPC   D2A 2299   9.707   3.417   5.598 -0.0117  0.1141 -0.1151
  161POPC   C3A 2300  10.059   3.132   5.773  0.0421 -0.3060 -0.1981
  161POPC   C4A 2301  10.321   2.919   5.543  0.0645 -0.0210  0.3155
  161POPC   C1B 2302   9.702   3.660   5.096 -0.2447  0.1123 -0.3042
  161POPC   C2B 2303   9.745   3.957   5.572  0.1274 -0.0432 -0.2119
  161POPC   C3B 2304   9.601   4.077   6.075 -0.0700  0.0176  0.0821
  161POPC   C4B 2305   9.564   3.861   6.519 -0.0356  0.0250 -0.1668
  162POPC   NC3 2306   8.828   2.055   3.676  0.3913 -0.0649 -0.2882
  162POPC   PO4 2307   8.878   1.730   3.912 -0.0479 -0.0616 -0.1501
  162POPC   GL1 2308   9.093   1.859   4.385 -0.2745  0.2054 -0.0341
  162POPC   GL2 2309   9.034   1.717   4.578  0.3564  0.1122 -0.0549
  162POPC   C1A 2310   9.426   2.078   4.696  0.0254  0.4156 -0.0514
  162POPC   D2A 2311   9.785   2.110   4.991 -0.2742 -0.0172  0.3102
  162POPC   C3A 2312   9.716   2.338   5.369  0.0954 -0.0737 -0.3006
  162POPC   C4A 2313   9.979   2.612   5.691 -0.4897  0.1852  0.0866
  162POPC   C1B 2314   9.063   1.877   4.957  0.0455 -0.3437 -0.0390
  162POPC   C2B 2315   9.094   1.670   5.441 -0.0456  0.2437  0.0191
  162POPC   C3B 2316   9.150   1.819   5.851 -0.0734  0.1375  0.0528
  162POPC   C4B 2317   9.158   1.751   6.209 -0.1827  0.0570 -0.0096
  163POPC   NC3 2318   0.963   5.956   4.179 -0.1910 -0.1511  0.1355
  163POPC   PO4 2319   1.153   5.931   4.501 -0.2141 -0.0030  0.0789
  163POPC   GL1 2320   1.113   6.110   4.818  0.0069 -0.0139 -0.1149
  163POPC   GL2 2321   1.376   6.454   4.988 -0.0033  0.0179 -0.3156
  163POPC   C1A 2322   0.691   6.036   5.026 -0.3886 -0.5020 -0.3898
  163POPC   D2A 2323   0.389   6.074   5.520 -0.3692  0.0249 -0.1669
  163POPC   C3A 2324   0.376   5.698   5.764  0.1696 -0.0953 -0.0257
  163POPC   C4A 2325   0.280   5.273   5.735 -0.1197  0.1980 -0.0603
  163POPC   C1B 2326   1.335   6.818   5.275 -0.0179 -0.0319  0.1123
  163POPC   C2B 2327   1.272   7.039   5.563  0.1559  0.2375  0.0490
  163POPC   C3B 2328   0.915   7.221   5.802 -0.0268 -0.0321 -0.1386
  163POPC   C4B 2329   0.625   7.410   6.004  0.1363  0.2017 -0.0912
  164POPC   NC3 2330   2.160   6.823   3.825 -0.0143 -0.0702 -0.0742
  164POPC   PO4 2331   1.886   7.149   4.116 -0.2334 -0.0994 -0.1643
  164POPC   GL1 2332   1.729   7.054   4.616 -0.1147 -0.1546  0.1136
  164POPC   GL2 2333   1.396   7.216   4.715 -0.2255  0.0528  0.1595
  164POPC   C1A 2334   1.806   6.968   5.019 -0.0145  0.0330  0.0735
  164POPC   D2A 2335   1.808   7.029   5.412  0.0450  0.0429 -0.1914
  164POPC   C3A 2336   2.049   6.652   5.710  0.0846 -0.0899 -0.4154
  164POPC   C4A 2337   1.970   6.300   5.937 -0.0497  0.1043 -0.0978
  164POPC   C1B 2338   1.410   7.343   5.182 -0.0413 -0.2834  0.1394
  164POPC   C2B 2339   1.340   7.553   5.589 -0.1035 -0.0179  0.0438
  164POPC   C3B 2340   0.972   7.744   5.776 -0.1674  0.1629 -0.2792
  164POPC   C4B 2341   1.028   8.216   5.902  0.0442  0.2298 -0.0921
  165POPC   NC3 2342   1.889   0.098   4.143 -0.0582  0.1692  0.2535
  165POPC   PO4 2343   1.780   0.256   4.595 -0.1060 -0.0437  0.0472
  165POPC   GL1 2344   1.788  -0.008   4.891  0.1308  0.2676  0.1913
  165POPC   GL2 2345   1.767   0.253   5.170  0.0911  0.0865 -0.0873
  165POPC   C1A 2346   1.461  -0.123   5.062  0.1999  0.1276 -0.2260
  165POPC   D2A 2347   1.213  -0.086   5.468  0.2107 -0.0615  0.3229
  165POPC   C3A 2348   0.804   0.227   5.484 -0.0071  0.0064 -0.1437
  165POPC   C4A 2349   0.539   0.357   5.205 -0.0915 -0.0959  0.0532
  165POPC   C1B 2350   2.196   0.052   5.219 -0.1492  0.2792 -0.1664
  165POPC   C2B 2351   2.489  -0.037   5.634 -0.1572 -0.2338  0.0771
  165POPC   C3B 2352   2.912  -0.125   5.749 -0.0043 -0.1180  0.1043
  165POPC   C4B 2353   3.186  -0.169   6.124 -0.0093  0.2126 -0.0244
  166POPC   NC3 2354   2.028   2.707   4.293 -0.3026  0.3272  0.1200
  166POPC   PO4 2355   2.208   2.473   4.678 -0.1074  0.0330  0.1938
  166POPC   GL1 2356   2.135   2.095   4.967 -0.0935  0.1164  0.2072
  166POPC   GL2 2357   1.826   2.041   5.065 -0.0809  0.1010 -0.3714
  166POPC   C1A 2358   2.241   1.928   5.321  0.0948 -0.0051 -0.1043
  166POPC   D2A 2359   2.125   1.685   5.668 -0.0017 -0.2335 -0.0897
  166POPC   C3A 2360   2.352   1.379   5.683 -0.0691  0.0040 -0.0346
  166POPC   C4A 2361   2.431   1.106   6.078 -0.4158  0.0396  0.2161
  166POPC   C1B 2362   1.800   2.138   5.446 -0.0881  0.3849 -0.0926
  166POPC   C2B 2363   1.741   2.228   5.818  0.0729 -0.1304  0.1229
  166POPC   C3B 2364   1.653   2.166   6.220 -0.0293  0.1791 -0.0438
  166POPC   C4B 2365   1.508   2.198   6.619 -0.1309 -0.2285 -0.0816
  167POPC   NC3 2366   7.935   6.189   4.422  0.0619 -0.0113 -0.2554
  167POPC   PO4 2367   7.586   6.389   4.345 -0.2197  0.0068  0.1297
  167POPC   GL1 2368   7.727   6.581   4.717  0.2629  0.1570  0.0479
  167POPC   GL2 2369   7.743   6.875   4.718 -0.0951 -0.0157 -0.0410
  167POPC   C1A 2370   7.835   6.396   5.149 -0.1622 -0.3186  0.1643
  167POPC   D2A 2371   7.819   6.590   5.568  0.2187  0.2718  0.0560
  167POPC   C3A 2372   7.782   6.895   5.882 -0.0926  0.3283 -0.1099
  167POPC   C4A 2373   7.613   7.033   6.194  0.0671 -0.0463 -0.1569
  167POPC   C1B 2374   7.838   6.976   5.041 -0.0857  0.2707 -0.0737
  167POPC   C2B 2375   7.543   7.069   5.352  0.0530  0.1418  0.0314
  167POPC   C3B 2376   7.256   7.079   5.710 -0.1194 -0.1195 -0.0424
  167POPC   C4B 2377   7.121   6.909   6.093 -0.0213  0.0206  0.2482
  168POPC   NC3 2378   4.702   0.105   4.113 -0.1305  0.0669  0.3574
  168POPC   PO4 2379   4.240  -0.054   3.878  0.1378 -0.0777 -0.1516
  168POPC   GL1 2380   4.296  -0.290   4.281  0.2374 -0.4380 -0.3786
  168POPC   GL2 2381   4.161  -0.563   4.358 -0.0397  0.0853  0.1943
  168POPC   C1A 2382   4.586  -0.326   4.602 -0.3370 -0.1264 -0.1447
  168POPC   D2A 2383   4.997  -0.234   4.985  0.3500  0.2385  0.0250
  168POPC   C3A 2384   5.217  -0.565   5.123  0.0491 -0.2709  0.3538
  168POPC   C4A 2385   5.147  -0.653   5.580 -0.3148  0.3686 -0.0935
  168POPC   C1B 2386   4.369  -0.742   4.624 -0.1623  0.1345 -0.1927
  168POPC   C2B 2387   4.404  -0.939   4.894 -0.3109  0.1444 -0.0112
  168POPC   C3B 2388   4.397  -1.132   5.279 -0.0299  0.1631 -0.0429
  168POPC   C4B 2389   4.301  -0.955   5.758  0.3002 -0.0788  0.5399
  169POPC   NC3 2390   9.413   2.469   3.818  0.1938  0.4502 -0.2110
  169POPC   PO4 2391   9.615   2.432   4.237 -0.1072 -0.0425 -0.2952
  169POPC   GL1 2392   9.713   2.527   4.754 -0.2207  0.1472 -0.0102
  169POPC   GL2 2393   9.969   2.788   4.789  0.1033 -0.0732 -0.2196
  169POPC   C1A 2394   9.305   2.353   5.067  0.0560 -0.0642 -0.0244
  169POPC   D2A 2395   9.467   1.902   5.264  0.1042  0.0016 -0.2653
  169POPC   C3A 2396   9.631   1.902   5.665 -0.2042 -0.1645 -0.2550
  169POPC   C4A 2397   9.557   2.026   6.024 -0.1571  0.0166 -0.0828
  169POPC   C1B 2398  10.064   2.522   5.090 -0.2303 -0.1232 -0.0374
  169POPC   C2B 2399  10.364   2.371   5.483 -0.3537 -0.1949 -0.0761
  169POPC   C3B 2400  10.580   2.394   5.923  0.1920  0.1823 -0.2428
  169POPC   C4B 2401  10.764   2.441   6.341 -0.0268  0.1133 -0.0025
  170POPC   NC3 2402   7.863   1.759   3.903  0.2119  0.4511 -0.2914
  170POPC   PO4 2403   7.723   2.097   4.220 -0.0603 -0.0647 -0.0125
  170POPC   GL1 2404   7.812   2.406   4.654  0.0736  0.2244  0.1814
  170POPC   GL2 2405   7.691   2.349   4.943  0.0035 -0.0224 -0.1773
  170POPC   C1A 2406   8.169   2.387   5.099  0.0735  0.1719 -0.0323
  170POPC   D2A 2407   8.207   2.595   5.448  0.3722  0.1205  0.2596
  170POPC   C3A 2408   7.986   2.547   5.712  0.0190 -0.0225 -0.1156
  170POPC   C4A 2409   7.559   2.345   5.767  0.0274  0.0066  0.1444
  170POPC   C1B 2410   7.386   2.282   5.150  0.0998 -0.1113 -0.2876
  170POPC   C2B 2411   7.130   2.446   5.509 -0.0041  0.0705 -0.0915
  170POPC   C3B 2412   6.822   2.480   5.691  0.1609 -0.1822  0.0294
  170POPC   C4B 2413   6.470   2.359   5.931  0.3606 -0.3015 -0.3525
  171POPC   NC3 2414   8.814   7.929   4.332  0.1574 -0.2569 -0.1029
  171POPC   PO4 2415   8.527   7.562   4.227  0.1434 -0.0767 -0.0713
  171POPC   GL1 2416   8.299   7.304   4.450 -0.2740 -0.0726 -0.1257
  171POPC   GL2 2417   8.043   7.504   4.563  0.1806  0.0960 -0.2403
  171POPC   C1A 2418   8.335   7.116   4.882  0.4388 -0.1967 -0.1065
  171POPC   D2A 2419   8.418   6.777   5.204  0.4571  0.1215 -0.0447
  171POPC   C3A 2420   8.816   6.566   5.212 -0.0160  0.0157  0.1638
  171POPC   C4A 2421   9.165   6.610   5.113 -0.0953  0.1432  0.1834
  171POPC   C1B 2422   7.923   7.497   4.996 -0.1428 -0.0261  0.0959
  171POPC   C2B 2423   7.743   7.512   5.418  0.0596  0.1267 -0.0884
  171POPC   C3B 2424   7.867   7.392   5.836 -0.1867  0.3051 -0.0550
  171POPC   C4B 2425   7.782   7.531   6.230 -0.1850  0.2075 -0.1529
  172POPC   NC3 2426   3.006   7.099   3.905 -0.0160 -0.2517  0.1527
  172POPC   PO4 2427   2.543   7.145   4.018 -0.0358  0.1299  0.2208
  172POPC   GL1 2428   2.588   7.244   4.492  0.1382 -0.2353  0.0480
  172POPC   GL2 2429   2.211   7.299   4.578  0.0120 -0.0883 -0.0924
  172POPC   C1A 2430   2.597   7.375   4.927 -0.1333  0.1075 -0.2078
  172POPC   D2A 2431   2.429   7.529   5.299 -0.1944  0.3038 -0.1414
  172POPC   C3A 2432   2.270   7.199   5.636  0.2564 -0.2012  0.1065
  172POPC   C4A 2433   2.450   7.072   5.936  0.0404  0.4673  0.1402
  172POPC   C1B 2434   2.254   6.944   4.799 -0.1897  0.2958 -0.0091
  172POPC   C2B 2435   2.303   6.962   5.223  0.0602  0.0006 -0.0633
  172POPC   C3B 2436   2.685   7.098   5.367  0.2020  0.3041 -0.0440
  172POPC   C4B 2437   2.707   7.465   5.706 -0.2200 -0.1248  0.2291
  173POPC   NC3 2438   5.223   5.466   3.989  0.0581  0.1357 -0.1982
  173POPC   PO4 2439   5.660   5.694   4.026 -0.3520 -0.1372 -0.1461
  173POPC   GL1 2440   5.807   5.834   4.440  0.0484 -0.0630 -0.2365
  173POPC   GL2 2441   6.149   5.920   4.496  0.1835  0.3428  0.0954
  173POPC   C1A 2442   5.917   6.019   4.890  0.1904  0.0030 -0.1143
  173POPC   D2A 2443   6.206   6.060   5.310 -0.2284  0.0482 -0.1826
  173POPC   C3A 2444   6.579   6.204   5.417 -0.2419  0.4871  0.1163
  173POPC   C4A 2445   6.984   6.217   5.506 -0.1596  0.0921 -0.1568
  173POPC   C1B 2446   5.921   6.354   4.440 -0.0308 -0.0209  0.0948
  173POPC   C2B 2447   5.842   6.694   4.564  0.2082  0.3147 -0.2497
  173POPC   C3B 2448   6.136   6.938   4.783 -0.1247 -0.2287 -0.0015
  173POPC   C4B 2449   6.472   7.003   4.913  0.1605  0.1482 -0.1062
  174POPC   NC3 2450   6.615   3.232   4.314  0.1413  0.0129 -0.1253
  174POPC   PO4 2451   6.166   3.326   4.312 -0.1812  0.0570 -0.0341
  174POPC   GL1 2452   6.115   3.109   4.736 -0.0054 -0.0086  0.1535
  174POPC   GL2 2453   5.979   3.267   4.868 -0.2716  0.1889  0.0781
  174POPC   C1A 2454   6.331   2.956   5.213 -0.1854 -0.0599  0.1809
  174POPC   D2A 2455   6.705   2.917   5.515 -0.1315  0.1256  0.0274
  174POPC   C3A 2456   6.881   3.098   5.892  0.1081 -0.1911 -0.0127
  174POPC   C4A 2457   7.237   3.103   6.250 -0.2230 -0.1766  0.0712
  174POPC   C1B 2458   5.929   3.250   5.267 -0.4068 -0.3677  0.0666
  174POPC   C2B 2459   6.194   3.372   5.645 -0.0365  0.0158  0.0823
  174POPC   C3B 2460   6.609   3.487   5.620  0.0994 -0.2903 -0.2323
  174POPC   C4B 2461   6.923   3.586   5.943  0.2040  0.0524 -0.0644
  175POPC   NC3 2462   4.968   5.095   3.053 -0.0773  0.0335 -0.1501
  175POPC   PO4 2463   4.731   5.193   3.496 -0.0606 -0.1360 -0.1141
  175POPC   GL1 2464   4.713   5.473   3.974 -0.0711 -0.3354 -0.0470
  175POPC   GL2 2465   4.887   5.293   4.311 -0.4161  0.0488  0.4206
  175POPC   C1A 2466   4.616   5.783   4.326 -0.2074  0.0305  0.0133
  175POPC   D2A 2467   4.521   5.922   4.766  0.0129  0.2794 -0.0721
  175POPC   C3A 2468   4.238   6.238   4.798 -0.0572 -0.1075 -0.0878
  175POPC   C4A 2469   4.283   6.703   4.992  0.1155 -0.2167 -0.2429
  175POPC   C1B 2470   4.946   5.588   4.701  0.1697 -0.2078 -0.2017
  175POPC   C2B 2471   4.923   5.623   5.171  0.0097 -0.0089  0.1139
  175POPC   C3B 2472   5.093   5.698   5.584 -0.0579 -0.0481 -0.1058
  175POPC   C4B 2473   5.127   5.444   5.952  0.0197  0.1889  0.3441
  176POPC   NC3 2474   1.712   5.348   4.146  0.0328 -0.0987  0.1828
  176POPC   PO4 2475   2.113   5.365   4.463  0.0214 -0.0998  0.4493
  176POPC   GL1 2476   2.382   5.603   4.749  0.1496 -0.1890  0.1565
  176POPC   GL2 2477   2.655   5.850   4.621 -0.0975  0.0512  0.1039
  176POPC   C1A 2478   2.281   5.579   5.241 -0.1297  0.5108  0.0212
  176POPC   D2A 2479   2.255   5.472   5.653 -0.0083 -0.1265  0.0009
  176POPC   C3A 2480   2.125   5.631   6.078 -0.0057 -0.0622 -0.2874
  176POPC   C4A 2481   2.035   5.695   6.511 -0.0970 -0.1085 -0.1458
  176POPC   C1B 2482   2.598   5.975   4.991 -0.3441  0.3061 -0.0112
  176POPC   C2B 2483   2.410   6.078   5.411 -0.0929 -0.1546 -0.0999
  176POPC   C3B 2484   2.472   5.963   5.842 -0.3948 -0.1270 -0.2971
  176POPC   C4B 2485   2.269   6.085   6.245 -0.0104  0.0682  0.1002
  177POPC   NC3 2486   1.039   8.574   4.043 -0.0067 -0.0694  0.4658
  177POPC   PO4 2487   1.436   8.475   4.045  0.0445  0.1294  0.1650
  177POPC   GL1 2488   1.416   8.437   4.473 -0.0136  0.0681 -0.0376
  177POPC   GL2 2489   1.674   8.353   4.741  0.3021 -0.0012  0.0956
  177POPC   C1A 2490   1.236   8.314   4.901 -0.3682  0.1786  0.2003
  177POPC   D2A 2491   1.102   7.934   4.995  0.1029  0.2919 -0.1452
  177POPC   C3A 2492   0.626   7.853   5.238 -0.1623  0.0142  0.0980
  177POPC   C4A 2493   0.477   7.529   5.535 -0.1160 -0.0568 -0.0515
  177POPC   C1B 2494   1.809   8.423   5.231 -0.2447  0.0307 -0.1757
  177POPC   C2B 2495   1.734   8.518   5.642  0.0854 -0.0286  0.0424
  177POPC   C3B 2496   1.521   8.523   6.072 -0.0859 -0.0793  0.0500
  177POPC   C4B 2497   1.170   8.550   6.239  0.0460 -0.0681  0.0251
  178POPC   NC3 2498   6.371   3.816   4.341 -0.4782 -0.1104 -0.0449
  178POPC   PO4 2499   5.956   3.757   4.455  0.0489  0.1147  0.0341
  178POPC   GL1 2500   5.647   3.753   4.754  0.0032  0.3350  0.2530
  178POPC   GL2 2501   5.287   3.817   4.737  0.0905  0.0152  0.3215
  178POPC   C1A 2502   5.517   3.700   5.201 -0.2940 -0.1363 -0.4796
  178POPC   D2A 2503   5.744   3.702   5.596 -0.0148 -0.3004  0.0217
  178POPC   C3A 2504   5.684   3.463   5.929 -0.0081  0.3965 -0.1349
  178POPC   C4A 2505   5.768   2.979   5.912 -0.5929  0.3205 -0.0557
  178POPC   C1B 2506   5.273   4.142   5.162 -0.0831  0.1521 -0.1318
  178POPC   C2B 2507   5.417   4.121   5.633 -0.1828 -0.0832  0.5036
  178POPC   C3B 2508   5.595   3.978   6.041 -0.2184  0.0822 -0.2473
  178POPC   C4B 2509   5.661   3.834   6.478  0.2644 -0.1567 -0.0413
  179POPC   NC3 2510   5.931   1.452   4.505 -0.2700  0.1923 -0.1504
  179POPC   PO4 2511   5.504   1.617   4.428 -0.0307  0.2399 -0.0285
  179POPC   GL1 2512   5.505   1.492   4.787  0.1074  0.1150 -0.1429
  179POPC   GL2 2513   5.581   1.197   4.757  0.0136  0.1507 -0.1804
  179POPC   C1A 2514   5.597   1.393   5.261  0.1380 -0.1237  0.0067
  179POPC   D2A 2515   5.622   1.402   5.740  0.0918 -0.0850 -0.2941
  179POPC   C3A 2516   5.748   1.482   6.041  0.0896  0.3665  0.1048
  179POPC   C4A 2517   5.585   1.640   6.362  0.2415  0.0693 -0.0178
  179POPC   C1B 2518   5.404   0.892   5.159 -0.2819 -0.1114 -0.0265
  179POPC   C2B 2519   5.507   0.867   5.576 -0.2140  0.1047 -0.1020
  179POPC   C3B 2520   5.397   0.590   5.955 -0.1972 -0.2086  0.0454
  179POPC   C4B 2521   5.702   0.564   6.317 -0.1860  0.1769  0.0047
  180POPC   NC3 2522   0.672   3.495   3.743 -0.1299 -0.0189 -0.2642
  180POPC   PO4 2523   0.826   3.689   4.079  0.1441 -0.0256  0.1325
  180POPC   GL1 2524   0.834   3.597   4.575  0.2267 -0.0988 -0.0612
  180POPC   GL2 2525   0.696   3.271   4.734  0.0182 -0.2174  0.1434
  180POPC   C1A 2526   0.929   3.676   5.028 -0.1615 -0.0522 -0.3160
  180POPC   D2A 2527   1.033   3.814   5.490 -0.1013  0.1540 -0.3682
  180POPC   C3A 2528   1.377   3.593   5.709  0.0303 -0.2375  0.1265
  180POPC   C4A 2529   1.474   3.525   6.110 -0.3698  0.1255 -0.1952
  180POPC   C1B 2530   0.563   3.115   5.109  0.2251 -0.0167  0.0336
  180POPC   C2B 2531   0.203   3.010   5.295  0.0892  0.0026 -0.0318
  180POPC   C3B 2532  -0.135   2.761   5.177 -0.1550  0.1673  0.2610
  180POPC   C4B 2533  -0.555   2.843   5.152 -0.2629 -0.0081 -0.2492
  181POPC   NC3 2534   4.079   9.021   3.812  0.1826 -0.2434 -0.2711
  181POPC   PO4 2535   3.841   8.711   4.150  0.2030 -0.0273 -0.0983
  181POPC   GL1 2536   3.659   9.058   4.496  0.0205  0.1388 -0.0121
  181POPC   GL2 2537   3.732   9.372   4.488  0.1524  0.0667  0.4196
  181POPC   C1A 2538   3.512   9.036   4.881 -0.3151 -0.1428  0.1940
  181POPC   D2A 2539   3.725   9.230   5.159 -0.0779  0.3150  0.0706
  181POPC   C3A 2540   3.889   9.231   5.589 -0.1615  0.2083 -0.1850
  181POPC   C4A 2541   3.974   9.126   6.009 -0.2110 -0.0562  0.1020
  181POPC   C1B 2542   3.950   9.460   4.741 -0.1781 -0.0808 -0.2303
  181POPC   C2B 2543   4.187   9.233   5.028 -0.0665  0.0761 -0.0903
  181POPC   C3B 2544   4.456   9.096   5.237  0.0036 -0.1485 -0.2727
  181POPC   C4B 2545   4.744   9.088   5.369 -0.1559  0.2914 -0.2086
  182POPC   NC3 2546   8.141   2.728   4.387  0.2880 -0.1178  0.1848
  182POPC   PO4 2547   8.019   3.208   4.243 -0.3213 -0.1224 -0.0912
  182POPC   GL1 2548   7.839   3.146   4.644  0.0498 -0.0171 -0.1650
  182POPC   GL2 2549   7.610   3.362   4.788  0.1705  0.2661 -0.3976
  182POPC   C1A 2550   8.124   3.304   5.011  0.1557 -0.1480 -0.0625
  182POPC   D2A 2551   8.194   3.112   5.347 -0.1826  0.1614 -0.1304
  182POPC   C3A 2552   8.537   3.318   5.621  0.0994  0.3245 -0.0487
  182POPC   C4A 2553   8.907   3.569   5.798  0.0060 -0.0907  0.2414
  182POPC   C1B 2554   7.197   3.398   4.945 -0.1920 -0.1880 -0.1117
  182POPC   C2B 2555   6.779   3.297   5.177 -0.0417  0.0796  0.1495
  182POPC   C3B 2556   6.395   3.445   5.043 -0.3071  0.3062 -0.1409
  182POPC   C4B 2557   6.027   3.749   5.165  0.1547 -0.0923 -0.2099
  183POPC   NC3 2558   6.916   3.780   4.112 -0.0035  0.1657 -0.0669
  183POPC   PO4 2559   7.213   3.842   4.482 -0.0958 -0.0161 -0.0210
  183POPC   GL1 2560   7.291   3.877   4.867 -0.4098  0.0712  0.0336
  183POPC   GL2 2561   7.195   4.245   4.915 -0.0151  0.1739 -0.3622
  183POPC   C1A 2562   7.588   3.681   5.183 -0.0541  0.0244 -0.0629
  183POPC   D2A 2563   7.677   3.225   5.339  0.1040 -0.0291  0.2554
  183POPC   C3A 2564   7.824   3.145   5.734 -0.2533  0.1992  0.0892
  183POPC   C4A 2565   8.259   2.942   5.875  0.1961  0.2425  0.3338
  183POPC   C1B 2566   7.078   4.257   5.385 -0.2081  0.2749 -0.0716
  183POPC   C2B 2567   7.077   4.400   5.849 -0.2147 -0.1355 -0.1140
  183POPC   C3B 2568   6.714   4.488   6.097 -0.2613 -0.0417  0.1375
  183POPC   C4B 2569   6.315   4.465   5.979 -0.0384  0.2466  0.0219
  184POPC   NC3 2570   6.716   6.825   3.682  0.0634 -0.2587  0.1138
  184POPC   PO4 2571   6.857   6.420   3.863 -0.0382  0.1847  0.1120
  184POPC   GL1 2572   6.924   6.436   4.290  0.0352  0.0057  0.2640
  184POPC   GL2 2573   7.161   6.667   4.448  0.0179 -0.1629 -0.0795
  184POPC   C1A 2574   6.632   6.526   4.604 -0.2122  0.0193 -0.2933
  184POPC   D2A 2575   6.224   6.425   4.851  0.0121 -0.0652  0.0011
  184POPC   C3A 2576   6.194   6.543   5.316 -0.2793 -0.0975  0.3071
  184POPC   C4A 2577   6.349   6.650   5.636 -0.0921 -0.2583 -0.0372
  184POPC   C1B 2578   7.273   6.648   4.911  0.1445 -0.0818  0.2431
  184POPC   C2B 2579   7.329   6.627   5.365 -0.1919  0.0196  0.0385
  184POPC   C3B 2580   7.396   6.577   5.787 -0.0773  0.0027 -0.1085
  184POPC   C4B 2581   7.587   6.414   6.105  0.3284 -0.0457  0.1462
  185POPC   NC3 2582   4.205   1.159   4.202  0.2660  0.1633  0.1517
  185POPC   PO4 2583   4.546   1.290   4.437  0.2194 -0.2908  0.0138
  185POPC   GL1 2584   4.686   1.149   4.793  0.0517  0.0982  0.1390
  185POPC   GL2 2585   4.621   0.765   4.793  0.0347 -0.0606  0.1444
  185POPC   C1A 2586   4.517   1.184   5.210 -0.0312  0.0954  0.0631
  185POPC   D2A 2587   4.605   1.319   5.624 -0.0127 -0.4080 -0.0165
  185POPC   C3A 2588   4.578   1.213   6.008  0.0502  0.1149  0.0051
  185POPC   C4A 2589   4.633   1.358   6.369  0.2343 -0.0800  0.1776
  185POPC   C1B 2590   4.623   0.502   5.123  0.3597 -0.3744  0.2041
  185POPC   C2B 2591   4.531   0.406   5.575 -0.1019  0.0197  0.0456
  185POPC   C3B 2592   4.167   0.388   5.892  0.1713  0.0846 -0.1920
  185POPC   C4B 2593   4.040   0.465   6.240  0.4705 -0.0082  0.0173
  186POPC   NC3 2594   1.623   5.258   4.621 -0.1931 -0.1115  0.2655
  186POPC   PO4 2595   1.586   4.878   4.239 -0.0672  0.4052  0.1299
  186POPC   GL1 2596   1.215   4.929   4.490  0.1948 -0.4350 -0.4232
  186POPC   GL2 2597   0.948   5.014   4.382  0.3209 -0.2465  0.2089
  186POPC   C1A 2598   1.091   5.137   4.917 -0.0270 -0.0225 -0.1407
  186POPC   D2A 2599   1.231   5.153   5.354 -0.2177  0.2389  0.1792
  186POPC   C3A 2600   1.572   5.093   5.795  0.3786 -0.3415 -0.0625
  186POPC   C4A 2601   1.612   5.449   6.062  0.1788  0.0991  0.1434
  186POPC   C1B 2602   0.768   4.823   4.752  0.0576  0.0981  0.0164
  186POPC   C2B 2603   0.638   4.613   5.090 -0.1232 -0.1050 -0.0930
  186POPC   C3B 2604   0.739   4.794   5.527  0.0279 -0.1347  0.0061
  186POPC   C4B 2605   0.656   4.973   5.894  0.4872 -0.1609  0.1028
  187POPC   NC3 2606   4.573   2.574   4.084 -0.2041 -0.1170 -0.0038
  187POPC   PO4 2607   4.516   2.343   4.326  0.1888 -0.1261  0.0307
  187POPC   GL1 2608   4.464   2.493   4.797  0.1580  0.0148  0.0711
  187POPC   GL2 2609   4.262   2.310   4.856 -0.0613 -0.2870  0.2759
  187POPC   C1A 2610   4.607   2.364   5.249  0.1851  0.2556 -0.2676
  187POPC   D2A 2611   4.509   2.062   5.612  0.0279 -0.2416  0.1502
  187POPC   C3A 2612   4.514   2.331   6.076  0.1358  0.2262  0.1231
  187POPC   C4A 2613   4.321   2.237   6.530  0.2138  0.0730  0.1787
  187POPC   C1B 2614   4.132   2.089   5.209  0.2041  0.0649 -0.2122
  187POPC   C2B 2615   3.918   2.113   5.598  0.2412  0.2488 -0.3115
  187POPC   C3B 2616   3.743   2.385   5.915  0.0111  0.2151  0.2361
  187POPC   C4B 2617   3.587   2.661   6.164 -0.2459  0.1614 -0.0758
  188POPC   NC3 2618   3.996   3.114   4.076 -0.1451 -0.2161  0.0273
  188POPC   PO4 2619   4.107   3.290   4.499  0.0256 -0.0882  0.2026
  188POPC   GL1 2620   4.055   3.223   4.949 -0.3696  0.2324 -0.0700
  188POPC   GL2 2621   4.171   2.838   4.993 -0.0063 -0.1176  0.0928
  188POPC   C1A 2622   4.512   3.377   5.253 -0.2385 -0.1929  0.0391
  188POPC   D2A 2623   4.848   3.185   5.572 -0.0402 -0.1649 -0.0022
  188POPC   C3A 2624   4.885   2.617   5.610  0.2259  0.2367 -0.0391
  188POPC   C4A 2625   4.993   2.303   5.751 -0.0893  0.0722  0.1651
  188POPC   C1B 2626   3.970   2.570   5.318 -0.0645 -0.1058  0.1227
  188POPC   C2B 2627   4.201   2.484   5.667 -0.1539 -0.1184  0.1100
  188POPC   C3B 2628   4.160   2.650   6.143  0.3478  0.1098 -0.2994
  188POPC   C4B 2629   4.006   2.736   6.511  0.0047 -0.0902  0.0138
  189POPC   NC3 2630   6.576   4.592   3.762 -0.1440 -0.0650  0.3783
  189POPC   PO4 2631   6.496   4.548   4.123  0.0366 -0.0249  0.2592
  189POPC   GL1 2632   6.317   4.504   4.515 -0.1114 -0.0100 -0.0240
  189POPC   GL2 2633   6.157   4.134   4.739  0.3499 -0.6585 -0.0294
  189POPC   C1A 2634   6.117   4.666   4.993  0.3168  0.1370  0.1142
  189POPC   D2A 2635   6.151   4.622   5.448  0.0294  0.3074 -0.1402
  189POPC   C3A 2636   5.802   4.638   5.710 -0.0817 -0.0595 -0.2414
  189POPC   C4A 2637   5.472   4.503   6.097 -0.1125  0.4243 -0.4154
  189POPC   C1B 2638   6.212   4.227   5.229 -0.4266  0.1417  0.3276
  189POPC   C2B 2639   6.453   3.975   5.472 -0.2137  0.0020  0.1391
  189POPC   C3B 2640   6.648   4.017   5.868 -0.3579 -0.2876 -0.3573
  189POPC   C4B 2641   6.848   4.040   6.216  0.1626 -0.0029 -0.0298
  190POPC   NC3 2642   2.525   6.386   4.271 -0.1320  0.0561 -0.1006
  190POPC   PO4 2643   2.635   6.673   3.967 -0.2623  0.1278 -0.1748
  190POPC   GL1 2644   2.720   6.775   4.469 -0.1654  0.1641 -0.1907
  190POPC   GL2 2645   3.068   6.858   4.503 -0.1896 -0.0962 -0.2007
  190POPC   C1A 2646   2.737   6.847   4.847  0.2125  0.0109  0.1719
  190POPC   D2A 2647   2.912   6.681   5.402  0.0401 -0.0545  0.3030
  190POPC   C3A 2648   2.876   6.824   5.779 -0.0651  0.0690  0.0387
  190POPC   C4A 2649   2.945   7.276   6.079  0.0860  0.0683  0.1538
  190POPC   C1B 2650   3.517   7.062   4.675  0.1528  0.2215 -0.1651
  190POPC   C2B 2651   3.733   7.032   4.994 -0.1905 -0.2400  0.0208
  190POPC   C3B 2652   3.805   6.856   5.470 -0.1920 -0.0531  0.0105
  190POPC   C4B 2653   3.839   6.793   5.850  0.1973  0.1949  0.3331
  191POPC   NC3 2654   0.406   3.700   4.303  0.4281  0.0819  0.2480
  191POPC   PO4 2655   0.080   3.963   4.240  0.3335 -0.1123  0.3333
  191POPC   GL1 2656   0.201   3.972   4.678  0.0966  0.2150 -0.3125
  191POPC   GL2 2657   0.487   3.749   4.851  0.2308  0.2759  0.0794
  191POPC   C1A 2658   0.243   4.124   5.052 -0.0622 -0.0248 -0.0606
  191POPC   D2A 2659   0.556   4.258   5.417 -0.2615 -0.0343 -0.0158
  191POPC   C3A 2660   0.475   4.375   5.796 -0.1801  0.0485  0.0083
  191POPC   C4A 2661   0.087   4.564   5.843  0.1267 -0.1332  0.0307
  191POPC   C1B 2662   0.453   3.753   5.294  0.0754 -0.0769 -0.1657
  191POPC   C2B 2663   0.490   3.694   5.769 -0.2927 -0.1647  0.0385
  191POPC   C3B 2664   0.411   3.927   6.238  0.4174  0.0003 -0.0406
  191POPC   C4B 2665   0.764   4.043   6.448  0.1701 -0.1329  0.0310
  192POPC   NC3 2666   3.970   4.261   4.241  0.4517 -0.0930  0.2240
  192POPC   PO4 2667   3.589   4.231   4.499  0.0424  0.0138  0.0393
  192POPC   GL1 2668   3.624   4.684   4.785  0.0405  0.1277 -0.5627
  192POPC   GL2 2669   3.319   4.587   4.915 -0.1208 -0.1015  0.2296
  192POPC   C1A 2670   3.931   4.869   5.113  0.0703 -0.2296  0.3397
  192POPC   D2A 2671   4.253   4.896   5.438  0.1688 -0.0875  0.2048
  192POPC   C3A 2672   4.256   4.907   5.853 -0.0106 -0.0155  0.2043
  192POPC   C4A 2673   4.202   5.147   6.255 -0.2233  0.1425 -0.0565
  192POPC   C1B 2674   3.455   4.661   5.368 -0.0733 -0.3769 -0.0550
  192POPC   C2B 2675   3.675   4.624   5.819 -0.3810  0.3254  0.0210
  192POPC   C3B 2676   3.963   4.468   6.049  0.0070  0.2271 -0.0948
  192POPC   C4B 2677   3.998   4.097   5.912 -0.3183  0.0075  0.1296
  193POPC   NC3 2678   8.477   0.082   4.186  0.0288 -0.6133  0.1341
  193POPC   PO4 2679   8.296  -0.278   4.140 -0.1084  0.1461 -0.0430
  193POPC   GL1 2680   8.007  -0.497   4.425  0.1513  0.2525  0.1490
  193POPC   GL2 2681   7.910  -0.866   4.448 -0.2945 -0.2658 -0.0493
  193POPC   C1A 2682   7.947  -0.616   4.888  0.2141  0.2161  0.2018
  193POPC   D2A 2683   7.718  -0.536   5.304  0.1220 -0.3843 -0.1290
  193POPC   C3A 2684   7.666  -0.979   5.632  0.0298 -0.5078  0.1762
  193POPC   C4A 2685   7.768  -1.366   5.644 -0.2384  0.0748  0.1241
  193POPC   C1B 2686   7.897  -1.185   4.805  0.1759  0.0358 -0.1696
  193POPC   C2B 2687   7.837  -1.055   5.207  0.1623 -0.1642 -0.1992
  193POPC   C3B 2688   8.119  -0.848   5.420  0.1237 -0.1396 -0.2958
  193POPC   C4B 2689   8.408  -0.641   5.763 -0.1417 -0.0286 -0.2064
  194POPC   NC3 2690   3.325   4.691   4.379  0.1770 -0.0091  0.0454
  194POPC   PO4 2691   3.541   4.586   3.911  0.2141 -0.0102 -0.0817
  194POPC   GL1 2692   3.801   4.721   4.257 -0.0403  0.0606  0.0336
  194POPC   GL2 2693   3.777   5.072   4.415  0.1705 -0.3492 -0.2912
  194POPC   C1A 2694   4.123   4.778   4.604  0.0129 -0.0184 -0.0675
  194POPC   D2A 2695   4.380   5.044   4.936  0.0354 -0.2065 -0.0460
  194POPC   C3A 2696   4.746   5.070   5.215 -0.1389 -0.0843 -0.0189
  194POPC   C4A 2697   5.057   5.227   5.489 -0.2294 -0.1107  0.1949
  194POPC   C1B 2698   3.960   5.262   4.795 -0.0779  0.1330 -0.0831
  194POPC   C2B 2699   3.967   5.367   5.280  0.0438  0.1005 -0.0968
  194POPC   C3B 2700   4.052   5.433   5.843 -0.1863  0.2291 -0.0764
  194POPC   C4B 2701   4.333   5.688   6.195 -0.0193  0.0680  0.0405
  195POPC   NC3 2702   6.971   0.100   4.601  0.0551  0.0613 -0.2602
  195POPC   PO4 2703   6.958   0.539   4.339 -0.2003  0.0582 -0.3096
  195POPC   GL1 2704   7.203   0.613   4.719 -0.0537  0.0024  0.3431
  195POPC   GL2 2705   7.342   0.876   4.737  0.2099 -0.1575  0.1069
  195POPC   C1A 2706   7.217   0.386   5.169  0.0446  0.0955 -0.0441
  195POPC   D2A 2707   7.414   0.178   5.447 -0.3830  0.0436  0.0990
  195POPC   C3A 2708   7.453  -0.235   5.575  0.1380 -0.2152 -0.1321
  195POPC   C4A 2709   7.443  -0.611   5.852 -0.0998  0.0258 -0.4750
  195POPC   C1B 2710   7.476   0.814   5.055  0.2969  0.2456  0.2276
  195POPC   C2B 2711   7.725   0.986   5.380  0.2991 -0.3471  0.1151
  195POPC   C3B 2712   7.872   0.956   5.793 -0.0202  0.3107  0.3519
  195POPC   C4B 2713   8.079   0.642   5.999 -0.0163 -0.1563 -0.0131
  196POPC   NC3 2714   8.210   5.102   4.166  0.1042  0.0757  0.0764
  196POPC   PO4 2715   8.330   4.724   4.377 -0.1051 -0.1557  0.1570
  196POPC   GL1 2716   8.377   4.783   4.823 -0.2099  0.5250  0.1714
  196POPC   GL2 2717   8.169   4.668   5.007 -0.0862  0.0384  0.0793
  196POPC   C1A 2718   8.563   5.007   5.149 -0.1325 -0.0913  0.0202
  196POPC   D2A 2719   8.691   4.957   5.606  0.1678 -0.2451 -0.2825
  196POPC   C3A 2720   8.582   4.511   5.831 -0.0621  0.0953  0.0109
  196POPC   C4A 2721   8.627   4.399   6.278 -0.2338 -0.1529  0.2181
  196POPC   C1B 2722   8.171   4.748   5.505  0.4707 -0.2100  0.1572
  196POPC   C2B 2723   8.082   4.910   5.938  0.0212 -0.0655  0.3708
  196POPC   C3B 2724   8.194   4.774   6.273 -0.2162 -0.0682 -0.0199
  196POPC   C4B 2725   8.371   4.675   6.607 -0.0943 -0.1065 -0.0501
  197POPC   NC3 2726   6.887   9.281   3.913  0.1742 -0.1014 -0.0986
  197POPC   PO4 2727   7.316   9.345   4.230  0.0356 -0.0006 -0.2884
  197POPC   GL1 2728   7.397   9.036   4.456  0.0239 -0.3686 -0.2290
  197POPC   GL2 2729   7.543   9.251   4.700  0.2686 -0.0705  0.3640
  197POPC   C1A 2730   7.057   8.739   4.349  0.2855  0.1078  0.0818
  197POPC   D2A 2731   6.998   8.435   4.603  0.0386 -0.0283 -0.0552
  197POPC   C3A 2732   6.751   8.483   4.973 -0.2629  0.1768 -0.0896
  197POPC   C4A 2733   6.390   8.309   5.170  0.1572 -0.2602  0.1140
  197POPC   C1B 2734   7.239   9.493   5.125  0.0264  0.2215 -0.5143
  197POPC   C2B 2735   6.962   9.671   5.519 -0.1181 -0.1172  0.2186
  197POPC   C3B 2736   6.809   9.696   5.913 -0.1614  0.0594  0.0961
  197POPC   C4B 2737   6.682  10.063   6.209 -0.0401  0.2298  0.0131
  198POPC   NC3 2738   0.243   4.405   4.200 -0.1041 -0.0700 -0.3756
  198POPC   PO4 2739  -0.064   4.598   4.137 -0.2807  0.1557 -0.3892
  198POPC   GL1 2740  -0.165   4.727   4.448  0.0032  0.0547  0.0715
  198POPC   GL2 2741  -0.075   4.395   4.623  0.0666  0.0745  0.0144
  198POPC   C1A 2742  -0.464   4.733   4.743 -0.1657  0.0506 -0.0008
  198POPC   D2A 2743  -0.642   4.817   5.085  0.3645 -0.0654  0.1306
  198POPC   C3A 2744  -0.509   4.933   5.435 -0.0696 -0.0948 -0.3734
  198POPC   C4A 2745  -0.658   5.122   5.900  0.1302 -0.3063 -0.0252
  198POPC   C1B 2746   0.189   4.759   4.844 -0.1424 -0.2214 -0.1394
  198POPC   C2B 2747  -0.139   4.975   5.095  0.1263  0.1034 -0.1309
  198POPC   C3B 2748  -0.106   5.181   5.427  0.1037 -0.2030  0.0668
  198POPC   C4B 2749  -0.193   4.989   5.798  0.2762 -0.2920  0.2976
  199POPC   NC3 2750   6.425   1.638   4.603 -0.3216 -0.2426 -0.0578
  199POPC   PO4 2751   6.663   1.399   4.877  0.1713 -0.1226 -0.0878
  199POPC   GL1 2752   6.535   1.127   5.178  0.0511  0.0168  0.1473
  199POPC   GL2 2753   6.592   0.827   5.138 -0.2802 -0.2342  0.1322
  199POPC   C1A 2754   6.473   0.982   5.584 -0.5855  0.0981  0.1680
  199POPC   D2A 2755   6.372   0.725   5.949 -0.0554 -0.1280 -0.3555
  199POPC   C3A 2756   6.387   0.954   6.361  0.2243 -0.0217  0.0638
  199POPC   C4A 2757   6.401   1.198   6.771 -0.1034 -0.0202  0.0828
  199POPC   C1B 2758   6.936   0.776   5.336 -0.0812 -0.0710 -0.1144
  199POPC   C2B 2759   7.300   0.752   5.559 -0.0664  0.3379 -0.0634
  199POPC   C3B 2760   7.403   0.863   5.955 -0.2162  0.0122 -0.3929
  199POPC   C4B 2761   7.421   0.894   6.401 -0.1713  0.3398  0.2158
  200POPC   NC3 2762   8.527   8.660   4.280  0.0337 -0.0478  0.1006
  200POPC   PO4 2763   8.751   8.380   4.572 -0.2864  0.0454 -0.0002
  200POPC   GL1 2764   8.337   8.151   4.625 -0.0296  0.1176  0.1421
  200POPC   GL2 2765   8.425   7.809   4.654  0.1366  0.2872  0.1417
  200POPC   C1A 2766   8.119   7.952   5.033  0.5845 -0.1338  0.0087
  200POPC   D2A 2767   8.057   7.916   5.470 -0.1691  0.5476 -0.1238
  200POPC   C3A 2768   7.942   7.947   5.934 -0.1232  0.1248 -0.1882
  200POPC   C4A 2769   8.063   8.113   6.401  0.3025  0.0048 -0.0503
  200POPC   C1B 2770   8.396   7.618   4.963  0.0842 -0.0480  0.0537
  200POPC   C2B 2771   8.278   7.317   5.322 -0.0585 -0.1208  0.3470
  200POPC   C3B 2772   8.083   7.076   5.476  0.0366  0.0264  0.1806
  200POPC   C4B 2773   8.299   6.744   5.711 -0.0539 -0.0489  0.4314
  201POPC   NC3 2774   7.318   2.374   4.314 -0.0799 -0.1178 -0.0317
  201POPC   PO4 2775   6.987   2.775   4.342  0.3297  0.2106  0.3654
  201POPC   GL1 2776   7.061   2.673   4.769  0.0633 -0.3203  0.1812
  201POPC   GL2 2777   6.949   2.362   4.788 -0.3284  0.2862  0.0259
  201POPC   C1A 2778   7.223   2.819   5.123  0.1477  0.1559 -0.0263
  201POPC   D2A 2779   7.190   3.147   5.442  0.0650  0.0974 -0.1986
  201POPC   C3A 2780   7.384   3.323   5.792  0.1201  0.1353 -0.0605
  201POPC   C4A 2781   7.645   3.343   6.208 -0.4480 -0.1432  0.2067
  201POPC   C1B 2782   6.798   2.386   5.157  0.1119  0.4411  0.0140
  201POPC   C2B 2783   6.353   2.464   5.385 -0.0959  0.1781 -0.1906
  201POPC   C3B 2784   6.146   2.182   5.564 -0.1935  0.0820  0.3398
  201POPC   C4B 2785   6.131   1.967   6.011 -0.0377 -0.0793 -0.0998
  202POPC   NC3 2786   9.420   9.363   4.280 -0.3454 -0.0547  0.0928
  202POPC   PO4 2787   9.665   9.708   4.107 -0.1656 -0.1669  0.0802
  202POPC   GL1 2788   9.603   9.774   4.562  0.0675  0.4254  0.2092
  202POPC   GL2 2789   9.497   9.480   4.791  0.1774 -0.2731 -0.1602
  202POPC   C1A 2790   9.912   9.715   4.989  0.0920  0.2100 -0.0667
  202POPC   D2A 2791   9.743   9.480   5.331  0.0588 -0.0403  0.4442
  202POPC   C3A 2792   9.716   9.576   5.746 -0.4039  0.0699 -0.1600
  202POPC   C4A 2793   9.574   9.820   6.046 -0.1019  0.2098  0.1572
  202POPC   C1B 2794   9.300   9.300   5.191  0.0546  0.1388 -0.1536
  202POPC   C2B 2795   9.249   9.434   5.577 -0.0553  0.1511 -0.1636
  202POPC   C3B 2796   9.123   9.650   5.893  0.0466 -0.2360  0.3884
  202POPC   C4B 2797   8.921   9.738   6.182  0.0747 -0.0428 -0.1537
  203POPC   NC3 2798   0.635   9.171   4.000 -0.2022 -0.3412 -0.0060
  203POPC   PO4 2799   1.035   9.045   4.276  0.1229  0.0475  0.5010
  203POPC   GL1 2800   1.041   9.345   4.563 -0.2385  0.2201 -0.2573
  203POPC   GL2 2801   0.726   9.189   4.649  0.0925  0.4667 -0.0618
  203POPC   C1A 2802   1.077   9.322   4.932  0.1168 -0.0834  0.1875
  203POPC   D2A 2803   1.190   9.183   5.286 -0.3192  0.1079 -0.0643
  203POPC   C3A 2804   0.937   9.181   5.614  0.0355  0.1054 -0.1241
  203POPC   C4A 2805   0.605   9.236   5.939 -0.1417  0.1141  0.0682
  203POPC   C1B 2806   0.747   8.983   4.979  0.1833 -0.0857  0.2014
  203POPC   C2B 2807   0.727   8.817   5.342  0.2673 -0.3389  0.1375
  203POPC   C3B 2808   0.667   8.459   5.562 -0.0226 -0.2024 -0.0178
  203POPC   C4B 2809   0.516   7.972   5.716 -0.1324 -0.4658  0.0992
  204POPC   NC3 2810   2.744   1.502   4.134 -0.0274 -0.2557  0.0186
  204POPC   PO4 2811   2.749   1.143   4.485  0.3653 -0.1735 -0.0644
  204POPC   GL1 2812   2.858   1.045   4.941  0.1423 -0.0118 -0.3099
  204POPC   GL2 2813   3.106   1.316   4.994 -0.0581 -0.0189 -0.3243
  204POPC   C1A 2814   2.942   0.794   5.307  0.1103  0.2432  0.1303
  204POPC   D2A 2815   2.658   0.830   5.634  0.2424  0.0018  0.4634
  204POPC   C3A 2816   2.464   0.485   5.848  0.0097  0.1891  0.0839
  204POPC   C4A 2817   2.637   0.144   6.083 -0.0215 -0.1121 -0.2340
  204POPC   C1B 2818   3.282   1.537   5.422 -0.3487 -0.1310  0.1115
  204POPC   C2B 2819   3.349   1.804   5.781  0.0872 -0.1615 -0.0624
  204POPC   C3B 2820   3.682   1.933   6.086 -0.1534 -0.0233  0.0501
  204POPC   C4B 2821   3.839   2.302   6.440  0.3096 -0.0375 -0.0232
  205POPC   NC3 2822   2.264   1.316   4.498  0.0455 -0.1390 -0.2049
  205POPC   PO4 2823   2.205   1.822   4.573  0.1599 -0.2838  0.0878
  205POPC   GL1 2824   2.574   1.520   4.839  0.2175 -0.0016 -0.3497
  205POPC   GL2 2825   2.642   1.608   5.094  0.3015 -0.0093 -0.0008
  205POPC   C1A 2826   2.430   1.164   5.176  0.0711 -0.2137 -0.0082
  205POPC   D2A 2827   2.049   1.094   5.259 -0.1178  0.1541  0.0211
  205POPC   C3A 2828   1.764   1.406   5.528 -0.2721  0.2034 -0.0182
  205POPC   C4A 2829   1.442   1.204   5.866 -0.0949 -0.0974  0.0214
  205POPC   C1B 2830   2.800   1.471   5.382 -0.0983 -0.1597  0.3256
  205POPC   C2B 2831   2.890   1.256   5.773  0.3154 -0.0168  0.3249
  205POPC   C3B 2832   2.889   1.231   6.186  0.4836  0.0520 -0.0610
  205POPC   C4B 2833   2.700   1.035   6.552 -0.0516 -0.1338 -0.1931
  206POPC   NC3 2834   1.339   1.266   4.698  0.1105  0.0529 -0.0634
  206POPC   PO4 2835   1.242   1.676   4.584  0.2148  0.1165  0.3138
  206POPC   GL1 2836   1.028   1.671   4.893 -0.1028  0.1477  0.0147
  206POPC   GL2 2837   1.329   1.862   5.026  0.2001 -0.1472 -0.3263
  206POPC   C1A 2838   0.819   1.718   5.281 -0.2335 -0.0547 -0.0343
  206POPC   D2A 2839   0.762   1.965   5.727  0.2468  0.1515 -0.2244
  206POPC   C3A 2840   0.375   2.150   5.870  0.0427 -0.2037 -0.4037
  206POPC   C4A 2841   0.165   2.313   6.287 -0.2067  0.1601  0.0143
  206POPC   C1B 2842   1.404   1.718   5.482 -0.1952  0.0352  0.0564
  206POPC   C2B 2843   1.586   1.713   5.904 -0.5040  0.0137  0.0393
  206POPC   C3B 2844   1.491   1.585   6.229 -0.1274  0.3151 -0.3431
  206POPC   C4B 2845   1.545   1.729   6.625 -0.0911 -0.4997  0.2466
  207POPC   NC3 2846   5.043   6.279   3.604  0.1722 -0.3284 -0.2061
  207POPC   PO4 2847   5.126   5.904   3.901  0.3854  0.1325 -0.3008
  207POPC   GL1 2848   5.242   5.807   4.431  0.0447 -0.0921  0.0701
  207POPC   GL2 2849   5.468   5.476   4.451 -0.2041 -0.1226  0.1035
  207POPC   C1A 2850   5.073   6.025   4.833 -0.0166 -0.0529  0.2603
  207POPC   D2A 2851   4.768   6.279   5.015  0.1731 -0.0557  0.1454
  207POPC   C3A 2852   4.584   6.417   5.418 -0.1664  0.0867 -0.1145
  207POPC   C4A 2853   4.274   6.429   5.664  0.2118 -0.0757 -0.2654
  207POPC   C1B 2854   5.488   5.751   4.892  0.0409 -0.3812  0.2487
  207POPC   C2B 2855   5.395   5.562   5.259  0.0373  0.3577 -0.0223
  207POPC   C3B 2856   5.515   5.284   5.609  0.0250  0.0632  0.4781
  207POPC   C4B 2857   5.516   5.062   5.902  0.2265 -0.0048  0.1718
  208POPC   NC3 2858   0.412   2.170   4.004  0.1854 -0.2467 -0.0831
  208POPC   PO4 2859   0.489   1.738   4.182  0.2185  0.0843 -0.1836
  208POPC   GL1 2860   0.475   1.705   4.542  0.1194 -0.0549 -0.0235
  208POPC   GL2 2861   0.528   1.400   4.738  0.0812 -0.3142  0.2694
  208POPC   C1A 2862   0.507   1.840   4.946  0.2410  0.1797  0.0432
  208POPC   D2A 2863   0.413   1.957   5.370 -0.1047  0.1505  0.1458
  208POPC   C3A 2864   0.341   1.600   5.693  0.0422  0.1262 -0.2837
  208POPC   C4A 2865  -0.009   1.518   5.981 -0.0234 -0.2646  0.1586
  208POPC   C1B 2866   0.751   1.226   5.131  0.0523 -0.5611 -0.2580
  208POPC   C2B 2867   0.705   1.215   5.608 -0.0861 -0.0207  0.0721
  208POPC   C3B 2868   0.885   1.075   6.056 -0.1992 -0.3753  0.1096
  208POPC   C4B 2869   1.200   1.094   6.349 -0.1738  0.0699 -0.0809
  209POPC   NC3 2870   4.412   8.020   3.043  0.3210  0.1441  0.0715
  209POPC   PO4 2871   4.369   7.771   3.451  0.0306 -0.1742  0.3074
  209POPC   GL1 2872   4.066   7.739   3.862 -0.0675 -0.1126  0.2245
  209POPC   GL2 2873   3.940   7.419   3.986 -0.2822 -0.2036  0.0928
  209POPC   C1A 2874   4.071   7.884   4.308  0.2283  0.0040 -0.1596
  209POPC   D2A 2875   3.919   8.260   4.545  0.1191  0.2089 -0.0021
  209POPC   C3A 2876   3.852   8.157   4.956  0.0495 -0.1488  0.0524
  209POPC   C4A 2877   3.865   7.790   5.246  0.2569  0.0649  0.0130
  209POPC   C1B 2878   4.255   7.417   4.263 -0.0252 -0.0423  0.1859
  209POPC   C2B 2879   4.318   7.193   4.670 -0.1248 -0.0820 -0.0971
  209POPC   C3B 2880   4.174   7.173   5.114 -0.2433  0.0518 -0.3211
  209POPC   C4B 2881   4.320   6.996   5.512  0.1930 -0.1322 -0.0889
  210POPC   NC3 2882   6.106   9.636   4.059 -0.1269 -0.2102  0.0155
  210POPC   PO4 2883   5.589   9.705   3.982 -0.0078 -0.1470 -0.2313
  210POPC   GL1 2884   5.708   9.958   4.364  0.4333 -0.0001  0.0855
  210POPC   GL2 2885   6.139  10.006   4.445  0.1512  0.0497 -0.1142
  210POPC   C1A 2886   5.674   9.800   4.781 -0.1107 -0.0492  0.3152
  210POPC   D2A 2887   5.913   9.591   5.048 -0.2522  0.1985 -0.0361
  210POPC   C3A 2888   5.986   9.709   5.433  0.1964  0.1297  0.1111
  210POPC   C4A 2889   6.314   9.527   5.589  0.0661  0.2559  0.0052
  210POPC   C1B 2890   6.302   9.827   4.803 -0.1143  0.1842  0.2372
  210POPC   C2B 2891   6.503   9.868   5.259 -0.1302 -0.1699  0.1758
  210POPC   C3B 2892   6.716  10.131   5.562  0.0367 -0.0003 -0.0031
  210POPC   C4B 2893   7.050  10.126   5.865 -0.2288  0.0195  0.2676
  211POPC   NC3 2894   3.202   0.916   4.322 -0.4128 -0.1211  0.0409
  211POPC   PO4 2895   3.514   0.621   4.336 -0.4847 -0.0957  0.2185
  211POPC   GL1 2896   3.527   0.695   4.719 -0.2480 -0.0703  0.0440
  211POPC   GL2 2897   3.422   0.992   4.814 -0.0462  0.0342 -0.1209
  211POPC   C1A 2898   3.781   0.659   5.081  0.3071 -0.2403  0.0347
  211POPC   D2A 2899   3.886   0.488   5.469  0.0633  0.4380 -0.1025
  211POPC   C3A 2900   3.669   0.617   5.862 -0.2533 -0.0495  0.0051
  211POPC   C4A 2901   3.616   1.052   5.998 -0.0760 -0.0812  0.2193
  211POPC   C1B 2902   3.478   1.049   5.198 -0.3544  0.0476  0.1564
  211POPC   C2B 2903   3.336   1.025   5.574  0.2174 -0.1313  0.1274
  211POPC   C3B 2904   3.215   0.803   5.966 -0.1485  0.2069 -0.0071
  211POPC   C4B 2905   2.992   0.652   6.215 -0.0775 -0.3372  0.3742
  212POPC   NC3 2906   4.094   6.392   3.533 -0.0194 -0.0134 -0.1212
  212POPC   PO4 2907   4.208   6.088   3.745 -0.1000  0.0521 -0.1769
  212POPC   GL1 2908   4.039   5.927   4.093 -0.0704  0.0447 -0.0402
  212POPC   GL2 2909   3.750   6.048   4.178 -0.0330  0.2656 -0.0090
  212POPC   C1A 2910   4.110   5.825   4.507 -0.2405  0.0740  0.0631
  212POPC   D2A 2911   4.003   5.778   4.969 -0.0786  0.1412  0.0024
  212POPC   C3A 2912   4.212   5.999   5.208  0.1416 -0.1601  0.0837
  212POPC   C4A 2913   4.592   5.888   5.450  0.2681  0.0167 -0.0418
  212POPC   C1B 2914   3.775   6.166   4.685 -0.3408 -0.0533  0.2104
  212POPC   C2B 2915   3.583   6.116   5.005 -0.1702  0.0684  0.0472
  212POPC   C3B 2916   3.359   6.407   5.464 -0.4368 -0.3678  0.2790
  212POPC   C4B 2917   3.394   6.645   5.799  0.1230 -0.2255 -0.3097
  213POPC   NC3 2918   3.866   4.831   3.459  0.1897  0.1032  0.1347
  213POPC   PO4 2919   3.916   5.033   3.909 -0.1256 -0.1760  0.0374
  213POPC   GL1 2920   4.335   5.184   4.130  0.2663  0.1653  0.2685
  213POPC   GL2 2921   4.278   5.452   4.316  0.5574  0.1134  0.1583
  213POPC   C1A 2922   4.609   4.930   4.496 -0.1342  0.0308 -0.0477
  213POPC   D2A 2923   4.653   4.665   4.757  0.2303  0.2664 -0.0678
  213POPC   C3A 2924   4.920   4.575   5.037  0.1324 -0.0256  0.1171
  213POPC   C4A 2925   4.929   4.283   5.469  0.0807 -0.1123  0.1123
  213POPC   C1B 2926   4.438   5.430   4.671  0.1646 -0.2718  0.2338
  213POPC   C2B 2927   4.408   5.531   5.124  0.0150  0.3468 -0.0481
  213POPC   C3B 2928   4.516   5.328   5.627 -0.0608 -0.3018  0.2351
  213POPC   C4B 2929   4.661   5.311   6.081 -0.0523  0.1157  0.0814
  214POPC   NC3 2930   5.084   1.332   4.573 -0.1308 -0.0224 -0.1270
  214POPC   PO4 2931   5.051   0.928   4.274 -0.0813  0.0998 -0.1160
  214POPC   GL1 2932   5.118   0.802   4.782  0.1041  0.0232  0.0699
  214POPC   GL2 2933   5.384   0.554   4.785 -0.2159  0.1436 -0.0705
  214POPC   C1A 2934   4.900   0.874   5.189  0.2261 -0.0523  0.0754
  214POPC   D2A 2935   4.872   0.896   5.622 -0.2334 -0.0372 -0.0415
  214POPC   C3A 2936   4.640   0.666   5.987  0.0812 -0.1791 -0.0213
  214POPC   C4A 2937   4.602   0.314   6.239  0.0600  0.0029 -0.3304
  214POPC   C1B 2938   5.233   0.441   5.226  0.0302 -0.0841  0.3573
  214POPC   C2B 2939   5.152   0.400   5.545  0.1943 -0.1246 -0.1867
  214POPC   C3B 2940   4.963   0.305   5.919 -0.0513 -0.1257 -0.1226
  214POPC   C4B 2941   5.293   0.260   6.312 -0.0291 -0.0054  0.0933
  215POPC   NC3 2942   1.661   0.981   3.877 -0.0253 -0.0401  0.1500
  215POPC   PO4 2943   1.334   0.915   4.228 -0.1286  0.2212 -0.2192
  215POPC   GL1 2944   0.962   0.739   4.602  0.2156  0.1302  0.1235
  215POPC   GL2 2945   1.024   0.763   4.850  0.2169  0.0409 -0.1504
  215POPC   C1A 2946   0.613   0.483   4.709 -0.0660  0.0260  0.1685
  215POPC   D2A 2947   0.076   0.556   4.849  0.1745  0.1180  0.3174
  215POPC   C3A 2948   0.100   0.585   5.283  0.0299  0.0936 -0.1284
  215POPC   C4A 2949   0.274   0.299   5.611 -0.0926  0.0677  0.1106
  215POPC   C1B 2950   1.043   0.646   5.347  0.1114  0.0618 -0.2541
  215POPC   C2B 2951   1.181   0.756   5.758  0.2475 -0.2776  0.3390
  215POPC   C3B 2952   1.444   0.738   6.082  0.3076  0.2469 -0.1521
  215POPC   C4B 2953   1.565   0.837   6.515 -0.2929  0.0706  0.1012
  216POPC   NC3 2954   2.220   5.882   4.374  0.2934 -0.1438 -0.0579
  216POPC   PO4 2955   1.994   6.256   4.424 -0.4200  0.3720 -0.1257
  216POPC   GL1 2956   2.097   6.204   4.729 -0.0035  0.2718 -0.1194
  216POPC   GL2 2957   2.343   6.479   4.763 -0.1277  0.0962 -0.1025
  216POPC   C1A 2958   1.958   6.495   5.128 -0.1128  0.1581  0.1287
  216POPC   D2A 2959   1.601   6.446   5.525 -0.0820 -0.3033 -0.3047
  216POPC   C3A 2960   1.569   6.791   5.890 -0.0648 -0.1129 -0.2536
  216POPC   C4A 2961   1.818   7.083   5.915 -0.1174  0.0612  0.0774
  216POPC   C1B 2962   2.459   6.466   5.139 -0.2762  0.0498  0.0663
  216POPC   C2B 2963   2.466   6.568   5.509  0.3695 -0.2627  0.0593
  216POPC   C3B 2964   2.449   6.483   6.003  0.0592 -0.0039 -0.1140
  216POPC   C4B 2965   2.444   6.509   6.462  0.2748 -0.0197  0.3559
  217POPC   NC3 2966   3.807   2.840   4.476  0.4462 -0.1316  0.2171
  217POPC   PO4 2967   3.974   2.465   4.510 -0.0070 -0.2392  0.0558
  217POPC   GL1 2968   3.601   2.482   4.725 -0.0999  0.0874 -0.0824
  217POPC   GL2 2969   3.694   2.663   4.904 -0.2042  0.0661  0.2209
  217POPC   C1A 2970   3.667   2.226   5.143  0.2787  0.2407 -0.2817
  217POPC   D2A 2971   3.373   2.246   5.528  0.1510  0.2984  0.1716
  217POPC   C3A 2972   3.336   2.657   5.803  0.1189  0.0197  0.0392
  217POPC   C4A 2973   3.305   3.038   5.773  0.1967  0.2048  0.0728
  217POPC   C1B 2974   3.434   2.676   5.315 -0.1453 -0.1995 -0.0594
  217POPC   C2B 2975   3.761   2.853   5.715 -0.0498 -0.2053 -0.2101
  217POPC   C3B 2976   3.971   3.093   6.042  0.0690  0.0280  0.3554
  217POPC   C4B 2977   3.999   3.620   6.119 -0.1680  0.1864 -0.0582
  218POPC   NC3 2978   9.338   8.587   4.045  0.3943  0.3028  0.3328
  218POPC   PO4 2979   9.184   8.355   4.405 -0.0423 -0.1595  0.2192
  218POPC   GL1 2980   9.228   8.620   4.748 -0.2104  0.1663 -0.1663
  218POPC   GL2 2981   9.470   8.502   4.967 -0.2608  0.3316  0.2350
  218POPC   C1A 2982   9.113   8.807   5.137 -0.0859  0.0288  0.2046
  218POPC   D2A 2983   8.665   8.702   5.475  0.0065  0.0541 -0.0415
  218POPC   C3A 2984   8.771   8.625   5.931 -0.0554 -0.1629 -0.4405
  218POPC   C4A 2985   9.067   8.870   6.256 -0.3531 -0.3727 -0.0154
  218POPC   C1B 2986   9.019   8.307   5.142  0.0165  0.1529  0.1105
  218POPC   C2B 2987   8.695   8.144   5.425  0.1183  0.0055 -0.0785
  218POPC   C3B 2988   8.440   7.929   5.775  0.0616  0.1014 -0.1950
  218POPC   C4B 2989   8.305   7.701   6.206  0.1349  0.1669  0.1400
  219POPC   NC3 2990   2.750   3.762   3.489  0.2183  0.1453 -0.1216
  219POPC   PO4 2991   2.657   3.859   4.045 -0.2040  0.2805 -0.1704
  219POPC   GL1 2992   2.886   3.814   4.413 -0.1265 -0.2632 -0.0554
  219POPC   GL2 2993   2.750   3.829   4.685 -0.0937  0.1878 -0.3989
  219POPC   C1A 2994   2.997   3.574   4.973 -0.0904 -0.1428 -0.0015
  219POPC   D2A 2995   3.189   3.358   5.386  0.0429 -0.1491  0.3517
  219POPC   C3A 2996   3.445   3.532   5.626 -0.3260 -0.1411  0.3231
  219POPC   C4A 2997   3.865   3.453   5.671  0.0300  0.3108  0.1962
  219POPC   C1B 2998   2.522   3.829   5.130 -0.0464 -0.0212 -0.0022
  219POPC   C2B 2999   2.493   3.750   5.648 -0.1059  0.0871 -0.2635
  219POPC   C3B 3000   2.329   3.746   6.015 -0.1214  0.1936  0.1260
  219POPC   C4B 3001   2.222   3.932   6.381 -0.0576 -0.1493 -0.1403
  220POPC   NC3 3002   0.189   1.322   4.351  0.0610  0.0363 -0.0406
  220POPC   PO4 3003   0.022   0.873   4.390  0.0958 -0.1213  0.0185
  220POPC   GL1 3004   0.122   1.048   4.765  0.2866 -0.4127 -0.2762
  220POPC   GL2 3005   0.378   0.900   4.882 -0.0266  0.0709  0.0383
  220POPC   C1A 3006  -0.073   0.989   5.062  0.1946 -0.1702  0.0061
  220POPC   D2A 3007  -0.198   0.980   5.412  0.0781  0.0340 -0.2089
  220POPC   C3A 3008  -0.597   0.915   5.672  0.2554  0.1728  0.2096
  220POPC   C4A 3009  -0.576   0.631   6.037  0.0018  0.3743 -0.1811
  220POPC   C1B 3010   0.536   0.846   5.292  0.0145 -0.1346 -0.0441
  220POPC   C2B 3011   0.604   0.696   5.691  0.2989 -0.0807  0.3563
  220POPC   C3B 3012   0.884   0.438   5.992  0.0599 -0.0085 -0.2849
  220POPC   C4B 3013   1.086   0.030   5.962  0.0939  0.1666  0.2366
  221POPC   NC3 3014   3.396   3.660   4.261  0.0740  0.0184 -0.1416
  221POPC   PO4 3015   3.594   3.278   4.308 -0.0538 -0.0938  0.2859
  221POPC   GL1 3016   3.623   3.213   4.733 -0.1502  0.1491  0.0306
  221POPC   GL2 3017   3.340   3.115   4.986  0.1385 -0.0497 -0.2934
  221POPC   C1A 3018   3.627   3.537   5.090  0.1872  0.3243  0.0426
  221POPC   D2A 3019   4.060   3.687   5.194 -0.0455  0.0102 -0.2802
  221POPC   C3A 3020   4.020   3.956   5.460  0.0444 -0.1213 -0.0961
  221POPC   C4A 3021   3.546   4.084   5.612  0.1039 -0.0323 -0.0400
  221POPC   C1B 3022   3.734   3.109   5.251 -0.1399  0.1582  0.2653
  221POPC   C2B 3023   4.144   3.035   5.412 -0.1914 -0.0315  0.1776
  221POPC   C3B 3024   4.591   2.819   5.320 -0.2146  0.2829  0.1509
  221POPC   C4B 3025   5.039   2.934   5.152  0.0278 -0.1025  0.0469
  222POPC   NC3 3026   1.349   4.177   4.045 -0.2301 -0.4506 -0.1531
  222POPC   PO4 3027   1.246   4.391   4.473  0.0075 -0.1527 -0.0505
  222POPC   GL1 3028   1.214   4.572   4.852  0.3583  0.1433  0.0284
  222POPC   GL2 3029   1.480   4.665   4.806  0.0427 -0.2787 -0.0303
  222POPC   C1A 3030   1.129   4.691   5.227  0.0836  0.2172 -0.0560
  222POPC   D2A 3031   1.303   4.678   5.715  0.0394  0.2862  0.2320
  222POPC   C3A 3032   1.060   4.743   6.125 -0.0931  0.1485 -0.0630
  222POPC   C4A 3033   0.751   4.966   6.398 -0.1460 -0.1288 -0.2103
  222POPC   C1B 3034   1.609   4.912   5.118 -0.1151  0.1226 -0.1002
  222POPC   C2B 3035   1.972   5.062   5.305  0.1053 -0.0682 -0.0281
  222POPC   C3B 3036   2.162   4.920   5.759  0.2468  0.1333 -0.0670
  222POPC   C4B 3037   2.237   5.173   6.105  0.0824 -0.4435 -0.2678
  223POPC   NC3 3038   8.889   5.796   4.498  0.2384 -0.2874 -0.2180
  223POPC   PO4 3039   9.232   6.149   4.525  0.1428 -0.0000 -0.0291
  223POPC   GL1 3040   9.184   6.054   4.952 -0.1558 -0.0637 -0.1796
  223POPC   GL2 3041   8.905   5.770   4.991 -0.1256 -0.2452  0.1109
  223POPC   C1A 3042   9.112   6.061   5.349  0.1465 -0.1124 -0.1863
  223POPC   D2A 3043   8.935   6.188   5.607 -0.2393 -0.1913  0.1167
  223POPC   C3A 3044   8.918   6.590   5.653  0.1593 -0.1719 -0.2915
  223POPC   C4A 3045   9.005   6.738   6.109  0.1618  0.1445  0.2253
  223POPC   C1B 3046   8.580   6.134   5.232 -0.0310  0.0253 -0.0588
  223POPC   C2B 3047   8.391   6.286   5.612  0.2441  0.0215 -0.1063
  223POPC   C3B 3048   8.065   6.398   6.016 -0.1446 -0.0496  0.1029
  223POPC   C4B 3049   7.921   6.693   6.347  0.2098  0.4481 -0.2072
  224POPC   NC3 3050   4.349   3.772   4.563 -0.0895  0.3266 -0.3044
  224POPC   PO4 3051   4.510   4.126   4.159  0.1944 -0.0664 -0.2791
  224POPC   GL1 3052   4.383   4.300   4.557 -0.0442  0.3235  0.3230
  224POPC   GL2 3053   4.695   4.119   4.657 -0.1731 -0.0731 -0.0180
  224POPC   C1A 3054   4.217   4.448   5.042 -0.2536  0.0168 -0.0965
  224POPC   D2A 3055   4.511   4.494   5.341  0.3651  0.0454  0.0438
  224POPC   C3A 3056   4.465   4.412   5.715 -0.0391 -0.2751 -0.1510
  224POPC   C4A 3057   4.466   4.418   6.120 -0.1944 -0.2389 -0.1593
  224POPC   C1B 3058   4.595   4.049   5.135 -0.1293 -0.1705  0.3784
  224POPC   C2B 3059   4.550   3.961   5.460  0.0471 -0.0595 -0.0424
  224POPC   C3B 3060   4.640   4.013   5.928 -0.1962  0.2542 -0.0758
  224POPC   C4B 3061   4.739   4.059   6.366  0.1237 -0.0467  0.0233
  225POPC   NC3 3062   6.823   5.957   4.004 -0.0227 -0.0298 -0.0042
  225POPC   PO4 3063   7.203   5.952   4.240  0.2671  0.1341  0.2048
  225POPC   GL1 3064   7.493   5.948   4.574 -0.1892  0.0140  0.0466
  225POPC   GL2 3065   7.569   5.693   4.707  0.2310  0.2268 -0.1120
  225POPC   C1A 3066   7.471   6.080   4.971 -0.0837 -0.0194  0.2086
  225POPC   D2A 3067   7.380   5.979   5.373  0.4258  0.1481  0.1363
  225POPC   C3A 3068   7.556   5.988   5.720 -0.2003 -0.2692 -0.2851
  225POPC   C4A 3069   7.818   6.010   6.058 -0.1086  0.1205  0.2447
  225POPC   C1B 3070   7.613   5.478   5.136 -0.0537  0.2177 -0.2355
  225POPC   C2B 3071   7.729   5.314   5.625 -0.4355  0.0937  0.2061
  225POPC   C3B 3072   7.589   5.119   6.028 -0.4100  0.0155 -0.0990
  225POPC   C4B 3073   7.589   4.757   6.344 -0.0512 -0.4529  0.1529
  226POPC   NC3 3074   2.323   3.903   4.502  0.3672 -0.4060  0.1602
  226POPC   PO4 3075   2.606   4.216   4.435  0.3531 -0.0945  0.1547
  226POPC   GL1 3076   2.535   4.238   4.828  0.0378 -0.1139 -0.1595
  226POPC   GL2 3077   2.638   4.453   5.001  0.0235 -0.3701 -0.0563
  226POPC   C1A 3078   2.600   4.224   5.392  0.0617 -0.1627 -0.2959
  226POPC   D2A 3079   2.660   4.155   5.866  0.0777  0.0305  0.1747
  226POPC   C3A 3080   2.898   3.829   6.116  0.2062  0.0387  0.0770
  226POPC   C4A 3081   2.844   3.696   6.506 -0.3956 -0.1392 -0.1415
  226POPC   C1B 3082   2.980   4.045   5.056 -0.1384 -0.2551  0.1669
  226POPC   C2B 3083   3.361   4.127   5.182 -0.0673 -0.3256  0.1406
  226POPC   C3B 3084   3.700   4.267   5.176 -0.0899  0.1701 -0.0490
  226POPC   C4B 3085   3.978   4.434   5.519  0.0115 -0.2977  0.1133
  227POPC   NC3 3086   7.305   8.123   3.518 -0.0344  0.2059  0.1732
  227POPC   PO4 3087   6.866   8.266   3.663  0.0153  0.0243 -0.0091
  227POPC   GL1 3088   6.722   8.098   4.049 -0.0482  0.3437 -0.0637
  227POPC   GL2 3089   6.644   8.364   4.258 -0.3684 -0.1893  0.1777
  227POPC   C1A 3090   6.700   7.947   4.472 -0.1878  0.2686 -0.0185
  227POPC   D2A 3091   6.575   7.875   4.844 -0.2748  0.0588  0.0461
  227POPC   C3A 3092   6.752   7.936   5.290 -0.0172  0.0382 -0.2884
  227POPC   C4A 3093   7.022   7.964   5.589  0.1188  0.0611 -0.0199
  227POPC   C1B 3094   6.336   8.318   4.650 -0.4172 -0.0359  0.1592
  227POPC   C2B 3095   5.993   8.364   4.736 -0.0659  0.1854 -0.0746
  227POPC   C3B 3096   5.673   8.612   4.929 -0.0109  0.1024 -0.1498
  227POPC   C4B 3097   5.371   8.890   4.733  0.2767 -0.1478  0.2567
  228POPC   NC3 3098   1.805   2.136   4.595  0.1756 -0.3319 -0.1081
  228POPC   PO4 3099   1.730   2.453   4.811  0.1373  0.2082 -0.1337
  228POPC   GL1 3100   1.529   2.452   5.201  0.2123 -0.1031 -0.0311
  228POPC   GL2 3101   1.338   2.546   5.123 -0.1725 -0.1327 -0.2423
  228POPC   C1A 3102   1.379   2.656   5.603  0.1537  0.1701  0.0264
  228POPC   D2A 3103   1.462   2.578   6.024 -0.3798  0.2028 -0.1600
  228POPC   C3A 3104   1.845   2.583   6.192 -0.2761  0.0102 -0.4963
  228POPC   C4A 3105   2.187   2.298   6.371  0.1123 -0.2483 -0.1731
  228POPC   C1B 3106   1.113   2.243   5.364 -0.0374 -0.0247  0.0498
  228POPC   C2B 3107   1.268   2.147   5.739  0.0055 -0.2082  0.1831
  228POPC   C3B 3108   1.117   1.947   6.111 -0.0613  0.2517 -0.0858
  228POPC   C4B 3109   1.058   1.743   6.414  0.2954 -0.0362  0.1161
  229POPC   NC3 3110   4.554   9.326   3.282  0.2732  0.2029  0.2509
  229POPC   PO4 3111   4.678   9.403   3.710 -0.1492  0.0472  0.1168
  229POPC   GL1 3112   4.606   9.077   3.983  0.2402 -0.0061 -0.2106
  229POPC   GL2 3113   4.724   9.028   4.256  0.1074  0.0938  0.1054
  229POPC   C1A 3114   4.613   8.657   3.908 -0.1421 -0.1081 -0.2965
  229POPC   D2A 3115   4.790   8.322   4.014 -0.0295 -0.1850 -0.1679
  229POPC   C3A 3116   5.173   8.272   4.037 -0.3664 -0.1035  0.3353
  229POPC   C4A 3117   5.300   7.954   4.289  0.0337 -0.1968  0.2410
  229POPC   C1B 3118   5.071   9.312   4.469  0.0809  0.0301 -0.0245
  229POPC   C2B 3119   5.402   9.393   4.722 -0.2312  0.1701 -0.3057
  229POPC   C3B 3120   5.793   9.122   4.897 -0.0385  0.0122  0.1148
  229POPC   C4B 3121   6.022   9.109   5.320  0.2267 -0.0104  0.1687
  230POPC   NC3 3122   7.966   4.483   4.515 -0.0853  0.2213 -0.1982
  230POPC   PO4 3123   7.575   4.174   4.531 -0.2115 -0.2158  0.1927
  230POPC   GL1 3124   7.743   4.096   4.926 -0.1274  0.4152  0.2302
  230POPC   GL2 3125   7.621   4.236   5.266  0.0155  0.3164 -0.3057
  230POPC   C1A 3126   8.051   3.843   5.084 -0.0500  0.0289 -0.0642
  230POPC   D2A 3127   8.060   3.556   5.510 -0.1251  0.0622 -0.2528
  230POPC   C3A 3128   8.328   3.828   5.842  0.0836  0.0196 -0.1806
  230POPC   C4A 3129   8.678   4.020   5.869 -0.2088 -0.1542  0.1118
  230POPC   C1B 3130   7.571   4.405   5.605  0.3031  0.0082  0.0496
  230POPC   C2B 3131   7.548   4.466   6.021 -0.0711  0.1343  0.3209
  230POPC   C3B 3132   7.606   4.153   6.258  0.1395  0.1782  0.1952
  230POPC   C4B 3133   7.176   4.001   6.591  0.2026  0.1206 -0.1216
  231POPC   NC3 3134   2.612   2.119   4.844  0.2178  0.0745  0.2865
  231POPC   PO4 3135   2.991   2.285   4.611  0.1822  0.1367 -0.0261
  231POPC   GL1 3136   3.035   2.294   5.070  0.2645 -0.0492  0.0354
  231POPC   GL2 3137   3.058   1.900   5.181 -0.3336  0.0836 -0.0817
  231POPC   C1A 3138   2.954   2.443   5.391 -0.2250 -0.3116  0.1410
  231POPC   D2A 3139   2.861   2.368   5.804 -0.0555 -0.1377  0.1600
  231POPC   C3A 3140   3.180   2.297   6.078 -0.0714 -0.0590  0.3257
  231POPC   C4A 3141   3.263   2.439   6.476  0.0595  0.0999  0.0683
  231POPC   C1B 3142   2.862   1.896   5.630 -0.1186 -0.2264 -0.0667
  231POPC   C2B 3143   2.870   1.779   6.005 -0.0027  0.0461  0.0100
  231POPC   C3B 3144   2.810   2.034   6.366 -0.1123  0.1404 -0.0929
  231POPC   C4B 3145   2.907   2.159   6.702 -0.1968  0.2559  0.0601
  232POPC   NC3 3146   8.513   0.976   4.282 -0.0216 -0.2158 -0.0858
  232POPC   PO4 3147   8.160   0.950   4.414  0.2518  0.2250 -0.1055
  232POPC   GL1 3148   8.219   0.640   4.547 -0.2535  0.0430 -0.0353
  232POPC   GL2 3149   8.515   0.661   4.802 -0.0187 -0.1860 -0.1154
  232POPC   C1A 3150   8.191   0.307   4.994  0.0859  0.0839 -0.1432
  232POPC   D2A 3151   8.319   0.249   5.354  0.1432  0.0477 -0.1257
  232POPC   C3A 3152   8.787   0.263   5.162 -0.1558  0.0002 -0.0347
  232POPC   C4A 3153   8.971   0.470   4.862  0.2290 -0.1502 -0.1748
  232POPC   C1B 3154   8.661   0.657   5.326  0.0929 -0.2002 -0.0092
  232POPC   C2B 3155   8.521   0.570   5.715 -0.0952  0.0704  0.1660
  232POPC   C3B 3156   8.519   0.429   6.109 -0.0009 -0.0413  0.1245
  232POPC   C4B 3157   8.738   0.496   6.457  0.1926 -0.3371  0.0661
  233POPC   NC3 3158   4.627   7.212   3.410 -0.0102  0.4971  0.0243
  233POPC   PO4 3159   4.359   6.908   3.534  0.4560  0.1400  0.0664
  233POPC   GL1 3160   4.514   6.896   3.827 -0.1185  0.0266  0.2163
  233POPC   GL2 3161   4.212   6.992   4.031  0.0486 -0.3207  0.1721
  233POPC   C1A 3162   4.701   6.652   4.070 -0.0469 -0.2840 -0.1434
  233POPC   D2A 3163   5.119   6.560   3.962  0.0355 -0.3047  0.0266
  233POPC   C3A 3164   5.281   6.979   4.149 -0.2522 -0.1801  0.1294
  233POPC   C4A 3165   5.477   7.411   4.281  0.1657 -0.2232 -0.0719
  233POPC   C1B 3166   4.288   6.790   4.336  0.0483  0.2501  0.0150
  233POPC   C2B 3167   4.561   6.697   4.600 -0.0850  0.2382  0.0755
  233POPC   C3B 3168   4.801   6.888   4.816 -0.2391  0.2405  0.1893
  233POPC   C4B 3169   4.724   7.245   5.084 -0.5053  0.3301  0.1740
  234POPC   NC3 3170   5.504   9.435   3.579 -0.1210  0.2428  0.2235
  234POPC   PO4 3171   5.569   8.939   3.365  0.1320  0.0214 -0.0701
  234POPC   GL1 3172   5.465   8.963   3.859 -0.1134 -0.4428  0.0634
  234POPC   GL2 3173   5.139   8.911   3.971  0.0424  0.0604  0.3617
  234POPC   C1A 3174   5.560   9.131   4.300  0.4182  0.2378 -0.3318
  234POPC   D2A 3175   5.899   9.425   4.498 -0.2599  0.1089  0.0575
  234POPC   C3A 3176   6.277   9.271   4.680  0.0709 -0.0723 -0.1383
  234POPC   C4A 3177   6.354   9.326   5.063  0.2026  0.0102 -0.0700
  234POPC   C1B 3178   5.038   8.687   4.404  0.0306 -0.1417 -0.3535
  234POPC   C2B 3179   4.970   8.289   4.476  0.0781 -0.1365 -0.1652
  234POPC   C3B 3180   5.008   8.007   4.778  0.0202 -0.1940 -0.1489
  234POPC   C4B 3181   4.770   7.663   4.844 -0.1645 -0.0398 -0.1495
  235POPC   NC3 3182   1.796   1.116   4.439 -0.3119  0.3399 -0.3456
  235POPC   PO4 3183   1.842   1.153   4.834  0.1619  0.1278 -0.2086
  235POPC   GL1 3184   1.560   1.083   5.140  0.1652  0.1428  0.0824
  235POPC   GL2 3185   1.670   0.785   5.279  0.0069 -0.1950 -0.2661
  235POPC   C1A 3186   1.159   1.179   5.402  0.0301  0.1941 -0.2865
  235POPC   D2A 3187   1.073   1.542   5.760  0.1184  0.1116 -0.2776
  235POPC   C3A 3188   0.720   1.599   6.072  0.2472  0.0547  0.1295
  235POPC   C4A 3189   0.322   1.808   6.221  0.0284 -0.0542 -0.1528
  235POPC   C1B 3190   1.761   0.847   5.591  0.3529 -0.0600 -0.2936
  235POPC   C2B 3191   1.942   0.969   5.921 -0.0484  0.2193 -0.1023
  235POPC   C3B 3192   2.015   1.345   6.104  0.6115  0.2376  0.2166
  235POPC   C4B 3193   1.954   1.769   6.322 -0.0567  0.3469 -0.1356
  236POPC   NC3 3194   2.486   7.562   3.558 -0.2310  0.0466  0.2279
  236POPC   PO4 3195   2.739   7.581   3.857 -0.2042 -0.0309  0.0119
  236POPC   GL1 3196   2.875   7.589   4.304  0.0983 -0.2535  0.0089
  236POPC   GL2 3197   2.662   7.710   4.496 -0.0269 -0.1387 -0.1314
  236POPC   C1A 3198   3.150   7.349   4.504  0.1952  0.2441  0.0590
  236POPC   D2A 3199   3.131   7.217   4.907  0.2515 -0.0171 -0.1590
  236POPC   C3A 3200   3.025   7.466   5.247  0.1639  0.0951 -0.0899
  236POPC   C4A 3201   3.033   7.937   5.301 -0.0787  0.0022  0.4726
  236POPC   C1B 3202   3.052   7.781   4.770 -0.3129  0.1043 -0.1750
  236POPC   C2B 3203   3.449   7.602   4.899  0.0234 -0.2354 -0.1286
  236POPC   C3B 3204   3.524   7.416   5.211 -0.0504  0.0877 -0.2611
  236POPC   C4B 3205   3.816   7.360   5.538  0.1829  0.2178  0.0087
  237POPC   NC3 3206   1.009   9.384   3.779 -0.2224 -0.0014  0.4033
  237POPC   PO4 3207   1.056   9.584   4.119  0.1275 -0.1070  0.1596
  237POPC   GL1 3208   0.983   9.819   4.494 -0.1703  0.1912  0.0236
  237POPC   GL2 3209   1.179   9.940   4.641 -0.1950  0.2153  0.2250
  237POPC   C1A 3210   0.682   9.695   4.848 -0.1401 -0.1211  0.2412
  237POPC   D2A 3211   0.604   9.413   5.155  0.3937 -0.0313  0.0447
  237POPC   C3A 3212   0.520   9.520   5.571  0.1602 -0.2831  0.0094
  237POPC   C4A 3213   0.422   9.682   6.045 -0.1590 -0.4697  0.1320
  237POPC   C1B 3214   1.338  10.046   5.043  0.2203 -0.1079 -0.0294
  237POPC   C2B 3215   1.396  10.052   5.553  0.0991  0.0118  0.2451
  237POPC   C3B 3216   1.528   9.885   5.992  0.0033  0.0081 -0.2729
  237POPC   C4B 3217   1.422   9.580   6.360  0.0727  0.0188  0.2816
  238POPC   NC3 3218   2.689   0.630   4.231  0.1146  0.1091 -0.0829
  238POPC   PO4 3219   2.312   0.866   4.334  0.1984  0.1933  0.2594
  238POPC   GL1 3220   2.354   0.763   4.733 -0.1528 -0.3958 -0.0645
  238POPC   GL2 3221   2.043   0.732   4.908  0.1960  0.1340 -0.0598
  238POPC   C1A 3222   2.530   0.696   5.085 -0.1040  0.2292  0.2045
  238POPC   D2A 3223   2.576   0.355   5.291 -0.2653 -0.0752 -0.1863
  238POPC   C3A 3224   2.953   0.357   5.606  0.4684  0.0474  0.0670
  238POPC   C4A 3225   3.219   0.303   5.963  0.2704  0.2607 -0.0641
  238POPC   C1B 3226   2.148   0.573   5.356  0.0136  0.1899 -0.3813
  238POPC   C2B 3227   1.986   0.261   5.674 -0.1635  0.0694  0.3571
  238POPC   C3B 3228   2.027  -0.163   5.855 -0.0262 -0.3739  0.1584
  238POPC   C4B 3229   1.993  -0.418   6.111 -0.0642 -0.0935 -0.0137
  239POPC   NC3 3230   1.652   3.341   4.534  0.0361  0.1815 -0.3784
  239POPC   PO4 3231   1.750   2.981   4.654  0.2961 -0.1363  0.3225
  239POPC   GL1 3232   2.025   2.976   4.992  0.0557  0.1689  0.1245
  239POPC   GL2 3233   1.964   2.627   5.191 -0.0323 -0.1325 -0.0312
  239POPC   C1A 3234   2.210   3.197   5.374  0.1134 -0.0479  0.0081
  239POPC   D2A 3235   2.196   3.299   5.714 -0.4240 -0.2880 -0.1538
  239POPC   C3A 3236   2.468   3.204   6.024  0.0059 -0.1808  0.1689
  239POPC   C4A 3237   2.761   3.188   6.435  0.1917  0.4095 -0.0212
  239POPC   C1B 3238   1.870   2.753   5.607 -0.0252  0.0430  0.3957
  239POPC   C2B 3239   1.872   3.098   5.951  0.2965 -0.2429 -0.0091
  239POPC   C3B 3240   1.970   3.326   6.231 -0.0045 -0.0743 -0.1160
  239POPC   C4B 3241   2.248   3.422   6.412  0.4298  0.2621 -0.0171
  240POPC   NC3 3242   4.839   2.785   4.494 -0.0559  0.1725 -0.4852
  240POPC   PO4 3243   5.056   2.424   4.641 -0.2861 -0.2225  0.3688
  240POPC   GL1 3244   5.213   2.325   5.047  0.0150  0.3622 -0.4633
  240POPC   GL2 3245   5.464   1.974   5.006  0.0805 -0.2381 -0.1342
  240POPC   C1A 3246   5.525   2.279   5.473 -0.0791 -0.2821  0.1393
  240POPC   D2A 3247   5.666   2.027   5.843 -0.2897  0.0685  0.2424
  240POPC   C3A 3248   5.307   1.861   5.968 -0.1481  0.1995 -0.1613
  240POPC   C4A 3249   5.061   1.586   6.247  0.1232 -0.4537  0.1444
  240POPC   C1B 3250   5.130   1.861   5.408  0.0573 -0.3123 -0.0121
  240POPC   C2B 3251   4.832   1.757   5.756  0.0828  0.2514  0.1720
  240POPC   C3B 3252   4.587   1.801   6.096  0.0548  0.4589 -0.0629
  240POPC   C4B 3253   4.141   1.997   6.065 -0.0274  0.1220 -0.0524
  241POPC   NC3 3254   2.580   3.407   4.502 -0.1887  0.1255 -0.4389
  241POPC   PO4 3255   2.256   3.462   4.666  0.2156  0.0935  0.1338
  241POPC   GL1 3256   2.145   3.646   4.871  0.0421  0.0300  0.2844
  241POPC   GL2 3257   1.808   3.694   4.817  0.2932 -0.0668 -0.1420
  241POPC   C1A 3258   2.066   3.866   5.298 -0.1050  0.1348  0.1117
  241POPC   D2A 3259   1.912   3.720   5.645  0.0640  0.0016  0.1027
  241POPC   C3A 3260   1.800   3.838   5.983 -0.0339  0.0173  0.2397
  241POPC   C4A 3261   1.756   3.932   6.361 -0.0854  0.0756  0.1683
  241POPC   C1B 3262   1.826   3.432   5.169  0.1702  0.1547  0.0595
  241POPC   C2B 3263   1.672   3.220   5.485 -0.2037 -0.2152  0.1586
  241POPC   C3B 3264   1.339   3.119   5.841  0.0004 -0.3471 -0.1325
  241POPC   C4B 3265   1.014   2.907   6.259 -0.0398 -0.2347 -0.0508
  242POPC   NC3 3266   0.703   7.784   3.792 -0.1182 -0.0707 -0.0353
  242POPC   PO4 3267   0.947   8.082   4.112 -0.1031  0.1782  0.0663
  242POPC   GL1 3268   1.004   8.025   4.440  0.1039  0.0887  0.0946
  242POPC   GL2 3269   1.125   7.697   4.574 -0.2373 -0.1643 -0.3682
  242POPC   C1A 3270   0.673   8.144   4.794 -0.3428  0.2707  0.0831
  242POPC   D2A 3271   0.636   8.343   5.078 -0.0513  0.0076 -0.2732
  242POPC   C3A 3272   1.059   8.280   5.366 -0.1265  0.2697 -0.1973
  242POPC   C4A 3273   1.406   8.020   5.442  0.4523 -0.3893  0.3276
  242POPC   C1B 3274   1.499   7.729   4.874 -0.0760 -0.1824  0.2934
  242POPC   C2B 3275   1.869   7.940   5.128 -0.1148  0.0341 -0.1755
  242POPC   C3B 3276   2.057   7.979   5.562  0.2209  0.2995  0.0875
  242POPC   C4B 3277   2.284   7.659   5.802 -0.1173  0.2458  0.3100
  243POPC   NC3 3278   3.606   7.735   3.651 -0.0008 -0.0381  0.2001
  243POPC   PO4 3279   3.424   7.361   3.616 -0.2023  0.0368  0.0717
  243POPC   GL1 3280   3.419   7.286   4.062  0.3839 -0.2127  0.1399
  243POPC   GL2 3281   3.605   7.025   4.152 -0.0303  0.1887 -0.1168
  243POPC   C1A 3282   3.602   7.553   4.329  0.0254 -0.1175 -0.1137
  243POPC   D2A 3283   3.494   8.007   4.455 -0.1832  0.0794 -0.2077
  243POPC   C3A 3284   3.379   8.098   4.931  0.3518 -0.3148 -0.0317
  243POPC   C4A 3285   3.523   8.122   5.349  0.0123 -0.0072 -0.2096
  243POPC   C1B 3286   3.902   7.127   4.407  0.0777 -0.1020  0.0713
  243POPC   C2B 3287   3.957   7.508   4.698 -0.3081 -0.0876  0.2224
  243POPC   C3B 3288   4.228   7.809   4.819 -0.2573  0.0726 -0.1760
  243POPC   C4B 3289   4.421   8.172   4.846  0.4417 -0.2893  0.4579
  244POPC   NC3 3290   2.985   2.844   3.872  0.0996 -0.1516 -0.2810
  244POPC   PO4 3291   2.843   2.922   4.394  0.2736 -0.1057 -0.2655
  244POPC   GL1 3292   2.846   3.120   4.927 -0.1457  0.0936  0.2361
  244POPC   GL2 3293   2.573   3.301   4.985 -0.0692 -0.2188 -0.0574
  244POPC   C1A 3294   2.921   2.910   5.362  0.2044 -0.2673 -0.0934
  244POPC   D2A 3295   2.812   2.933   5.822  0.0225 -0.0189 -0.0989
  244POPC   C3A 3296   2.995   2.876   6.191 -0.0650  0.1300 -0.1231
  244POPC   C4A 3297   3.308   2.977   6.438  0.1991 -0.1694  0.0336
  244POPC   C1B 3298   2.730   3.374   5.394 -0.2363  0.0577  0.2333
  244POPC   C2B 3299   2.831   3.444   5.819 -0.1226  0.2286  0.1136
  244POPC   C3B 3300   3.126   3.430   6.089  0.0010 -0.4245  0.1177
  244POPC   C4B 3301   3.500   3.281   6.116  0.0069 -0.2345 -0.1643
  245POPC   NC3 3302   9.207   5.145   3.654  0.1557 -0.1369 -0.0866
  245POPC   PO4 3303   9.018   5.333   4.025  0.4365  0.1221 -0.1579
  245POPC   GL1 3304   9.004   5.078   4.429 -0.0823 -0.0881  0.2303
  245POPC   GL2 3305   8.770   4.907   4.518 -0.2199  0.0009 -0.1745
  245POPC   C1A 3306   9.381   5.275   4.671  0.3473  0.0609 -0.2413
  245POPC   D2A 3307   9.438   5.595   5.090 -0.2937 -0.1829  0.0700
  245POPC   C3A 3308   9.639   5.812   5.443  0.2011 -0.2525  0.2477
  245POPC   C4A 3309   9.687   5.979   5.938  0.3331 -0.1579 -0.0919
  245POPC   C1B 3310   8.837   5.212   4.831 -0.1981 -0.0325  0.0349
  245POPC   C2B 3311   8.991   5.340   5.190 -0.0460 -0.3362 -0.0576
  245POPC   C3B 3312   9.224   5.507   5.568 -0.2457 -0.1042  0.2227
  245POPC   C4B 3313   9.174   5.790   5.806 -0.0750 -0.1744 -0.1312
  246POPC   NC3 3314   3.656   6.623   3.300 -0.1892 -0.1367  0.1836
  246POPC   PO4 3315   3.615   6.439   3.815 -0.2732  0.0435  0.0003
  246POPC   GL1 3316   3.983   6.525   4.072 -0.1405  0.2117  0.2193
  246POPC   GL2 3317   3.795   6.599   4.365  0.0133  0.1346  0.1360
  246POPC   C1A 3318   4.313   6.275   4.337 -0.1930 -0.1391 -0.1085
  246POPC   D2A 3319   4.715   6.255   4.479  0.0679 -0.1742  0.0256
  246POPC   C3A 3320   5.057   6.571   4.473 -0.0788 -0.1886  0.0573
  246POPC   C4A 3321   5.364   6.860   4.643 -0.0380  0.1689  0.2396
  246POPC   C1B 3322   3.884   6.658   4.768  0.1394  0.2288  0.0279
  246POPC   C2B 3323   3.776   6.529   5.129  0.0274  0.1206  0.0633
  246POPC   C3B 3324   3.864   6.331   5.407  0.1866  0.0785 -0.0018
  246POPC   C4B 3325   3.866   6.217   5.846 -0.1067 -0.1791  0.1281
  247POPC   NC3 3326   0.003   8.507   4.390 -0.1506 -0.0925 -0.1382
  247POPC   PO4 3327  -0.182   8.919   4.424  0.1915 -0.2085 -0.0069
  247POPC   GL1 3328  -0.002   9.028   4.824 -0.3545 -0.0669  0.0391
  247POPC   GL2 3329   0.287   9.115   4.949 -0.2441  0.1412 -0.3420
  247POPC   C1A 3330  -0.100   8.875   5.214  0.1448  0.0520  0.1491
  247POPC   D2A 3331  -0.336   8.960   5.619 -0.0217  0.1989  0.5133
  247POPC   C3A 3332  -0.147   8.799   5.967  0.0894  0.0727  0.2433
  247POPC   C4A 3333   0.015   8.564   6.339  0.0198  0.2558 -0.1018
  247POPC   C1B 3334   0.340   9.050   5.475 -0.0727  0.1288 -0.0790
  247POPC   C2B 3335   0.273   8.874   5.734 -0.0654  0.1093 -0.0289
  247POPC   C3B 3336   0.111   9.216   6.076  0.2726  0.2775 -0.1161
  247POPC   C4B 3337   0.102   9.546   6.438  0.1356 -0.1242  0.1385
  248POPC   NC3 3338   2.249   7.531   4.111 -0.0430 -0.0406  0.1542
  248POPC   PO4 3339   2.463   8.093   4.276  0.0830 -0.0780 -0.0196
  248POPC   GL1 3340   2.607   8.192   4.652 -0.0557  0.1733  0.0428
  248POPC   GL2 3341   2.919   8.301   4.774  0.2277  0.0716 -0.2441
  248POPC   C1A 3342   2.602   7.930   5.008  0.1795 -0.0294 -0.1353
  248POPC   D2A 3343   2.549   8.027   5.454  0.0063  0.0132 -0.0884
  248POPC   C3A 3344   2.911   7.912   5.746 -0.1537  0.1732  0.0054
  248POPC   C4A 3345   3.240   8.070   5.854  0.2067  0.0812 -0.1189
  248POPC   C1B 3346   3.117   8.613   5.043  0.2023 -0.2144  0.4407
  248POPC   C2B 3347   3.340   8.822   5.301  0.1687  0.2312  0.1988
  248POPC   C3B 3348   3.436   8.604   5.633  0.0265 -0.0167  0.1653
  248POPC   C4B 3349   3.259   8.690   5.960  0.3842  0.2337 -0.0859
  249POPC   NC3 3350   2.866   9.614   3.822 -0.1590 -0.4518  0.0815
  249POPC   PO4 3351   3.265   9.629   4.155 -0.2716  0.1432 -0.1432
  249POPC   GL1 3352   3.241   9.360   4.475  0.1190 -0.0974 -0.0585
  249POPC   GL2 3353   3.010   9.605   4.712 -0.2040  0.0312 -0.2161
  249POPC   C1A 3354   2.979   9.113   4.873 -0.1495  0.2419 -0.0617
  249POPC   D2A 3355   2.798   8.951   5.222 -0.0472  0.3344 -0.0335
  249POPC   C3A 3356   2.838   9.000   5.660  0.0488 -0.1686 -0.1696
  249POPC   C4A 3357   2.966   9.096   6.029 -0.0710  0.2102 -0.0730
  249POPC   C1B 3358   3.399   9.560   4.984 -0.2054  0.1129  0.0456
  249POPC   C2B 3359   3.808   9.791   5.167 -0.3700 -0.1374 -0.1278
  249POPC   C3B 3360   4.066   9.724   5.559 -0.1096  0.0861  0.1461
  249POPC   C4B 3361   3.969   9.644   6.011 -0.2385 -0.1794 -0.4431
  250POPC   NC3 3362   9.430   0.466   4.183 -0.2361  0.0845  0.0097
  250POPC   PO4 3363   9.169   0.174   4.347 -0.0442 -0.1615 -0.2686
  250POPC   GL1 3364   9.048   0.028   4.713  0.5304 -0.0689 -0.1936
  250POPC   GL2 3365   8.872  -0.165   4.907 -0.1795 -0.1378 -0.1137
  250POPC   C1A 3366   9.284   0.144   5.100  0.3244  0.0090 -0.0658
  250POPC   D2A 3367   9.452   0.175   5.493 -0.0148 -0.1596  0.1488
  250POPC   C3A 3368   9.473   0.521   5.734  0.0578  0.0897 -0.1274
  250POPC   C4A 3369   9.517   0.906   5.916  0.0098  0.1323 -0.1839
  250POPC   C1B 3370   8.397  -0.166   5.037  0.0925  0.2745 -0.1330
  250POPC   C2B 3371   8.278  -0.259   5.506 -0.0044  0.2407  0.0788
  250POPC   C3B 3372   8.011  -0.413   5.705 -0.3185 -0.1764 -0.0828
  250POPC   C4B 3373   7.724  -0.200   6.039 -0.2025 -0.2352  0.0245
  251POPC   NC3 3374   8.706   7.035   4.356 -0.0126 -0.1662 -0.1510
  251POPC   PO4 3375   8.613   6.684   4.550  0.0548 -0.0214  0.1865
  251POPC   GL1 3376   8.786   7.010   4.840 -0.1967 -0.0670  0.1593
  251POPC   GL2 3377   9.091   7.068   4.805 -0.0016 -0.1566 -0.1087
  251POPC   C1A 3378   8.846   7.067   5.277  0.0869  0.0805  0.0944
  251POPC   D2A 3379   8.652   7.103   5.685 -0.1496  0.0916  0.3230
  251POPC   C3A 3380   8.368   7.296   5.884  0.1507  0.2455  0.0989
  251POPC   C4A 3381   8.127   7.098   6.240  0.0252 -0.0926  0.0667
  251POPC   C1B 3382   9.350   7.089   5.254 -0.2979  0.0854  0.0730
  251POPC   C2B 3383   9.353   6.877   5.653  0.1596 -0.2665  0.1181
  251POPC   C3B 3384   9.533   6.814   6.049  0.0138  0.2427 -0.0879
  251POPC   C4B 3385   9.891   6.493   6.042  0.0851 -0.2441  0.0086
  252POPC   NC3 3386   2.334   4.590   4.605 -0.1030 -0.2573  0.1490
  252POPC   PO4 3387   2.046   4.901   4.542 -0.1649 -0.0863  0.2175
  252POPC   GL1 3388   2.375   5.075   4.917  0.1247  0.4077 -0.0290
  252POPC   GL2 3389   2.581   5.076   4.593 -0.1178 -0.1328  0.2191
  252POPC   C1A 3390   2.478   5.110   5.366  0.2026  0.0724 -0.0170
  252POPC   D2A 3391   2.695   5.214   5.794 -0.1227  0.0507 -0.0059
  252POPC   C3A 3392   2.824   5.545   6.027  0.2469 -0.0366 -0.3421
  252POPC   C4A 3393   3.189   5.755   6.180 -0.0410  0.4263  0.3465
  252POPC   C1B 3394   2.694   5.393   4.995 -0.1503 -0.1316 -0.0219
  252POPC   C2B 3395   2.742   5.603   5.422 -0.1866 -0.0805 -0.1313
  252POPC   C3B 3396   3.111   5.904   5.644  0.2181  0.1189  0.3898
  252POPC   C4B 3397   3.355   6.103   5.879  0.1652 -0.2277  0.0390
  253POPC   NC3 3398   7.627   0.778   4.356  0.0014 -0.0517 -0.1304
  253POPC   PO4 3399   7.628   1.194   4.506 -0.0950 -0.4849 -0.1205
  253POPC   GL1 3400   7.822   1.173   4.958  0.1102 -0.1597  0.0512
  253POPC   GL2 3401   7.930   0.855   4.874 -0.0124 -0.0579  0.3033
  253POPC   C1A 3402   8.079   1.390   5.341 -0.2435  0.0799  0.0446
  253POPC   D2A 3403   8.096   1.421   5.839  0.1253  0.2458  0.1831
  253POPC   C3A 3404   8.289   1.641   6.188 -0.0743  0.0325 -0.1913
  253POPC   C4A 3405   8.472   1.555   6.573  0.0551 -0.2079 -0.0935
  253POPC   C1B 3406   8.165   0.836   5.206 -0.1039  0.1641 -0.0690
  253POPC   C2B 3407   8.374   1.031   5.618  0.1347 -0.2659  0.0781
  253POPC   C3B 3408   8.519   0.981   6.076  0.0968 -0.1749 -0.3874
  253POPC   C4B 3409   8.595   1.058   6.459  0.0924  0.2858  0.1999
  254POPC   NC3 3410   6.614   2.335   4.379 -0.2202  0.1925  0.0996
  254POPC   PO4 3411   6.866   1.978   4.475 -0.0580  0.1499  0.2386
  254POPC   GL1 3412   6.987   1.840   4.870  0.0601 -0.0248 -0.4788
  254POPC   GL2 3413   6.745   1.868   5.164  0.1438  0.0734  0.4800
  254POPC   C1A 3414   7.103   1.727   5.386 -0.0060  0.0341 -0.1700
  254POPC   D2A 3415   7.270   1.974   5.770  0.1598  0.1984 -0.1311
  254POPC   C3A 3416   7.527   1.713   6.085  0.3408  0.1413 -0.0879
  254POPC   C4A 3417   7.767   1.287   6.148 -0.1728  0.1304  0.0247
  254POPC   C1B 3418   6.714   2.003   5.650  0.3179 -0.3043  0.1343
  254POPC   C2B 3419   6.957   2.227   6.031  0.1900  0.0404  0.1742
  254POPC   C3B 3420   7.212   2.158   6.404  0.2578 -0.1501 -0.0497
  254POPC   C4B 3421   7.463   1.893   6.534  0.2034  0.3074 -0.0143
  255POPC   NC3 3422   8.769   0.839   3.671 -0.0402 -0.0304  0.0891
  255POPC   PO4 3423   8.982   0.884   4.139 -0.3663  0.0624  0.0938
  255POPC   GL1 3424   8.868   1.000   4.608  0.0502  0.0063 -0.3327
  255POPC   GL2 3425   8.844   1.250   4.729 -0.2675  0.1712 -0.2182
  255POPC   C1A 3426   9.065   0.925   5.103 -0.0051 -0.3478 -0.0935
  255POPC   D2A 3427   9.187   0.655   5.276 -0.2413  0.3537  0.0589
  255POPC   C3A 3428   8.961   0.387   5.592  0.0048  0.0973  0.0135
  255POPC   C4A 3429   8.725  -0.059   5.550 -0.5951 -0.1571 -0.0251
  255POPC   C1B 3430   8.772   1.424   5.136 -0.0227  0.0315 -0.1764
  255POPC   C2B 3431   8.713   1.406   5.564 -0.1026  0.2208  0.1060
  255POPC   C3B 3432   8.636   1.766   5.799 -0.1127 -0.1356 -0.3680
  255POPC   C4B 3433   8.733   2.030   6.007 -0.1551  0.0381  0.0009
  256POPC   NC3 3434   1.539   8.944   4.272  0.0097  0.1962  0.0886
  256POPC   PO4 3435   1.822   8.776   4.498  0.0073  0.0799 -0.1179
  256POPC   GL1 3436   2.068   8.786   4.906 -0.1492  0.5083 -0.0441
  256POPC   GL2 3437   2.085   9.058   4.901 -0.0053 -0.0954  0.1320
  256POPC   C1A 3438   2.151   8.745   5.397  0.6318  0.0444 -0.1142
  256POPC   D2A 3439   2.319   8.459   5.721 -0.2884  0.0451 -0.3161
  256POPC   C3A 3440   2.455   8.068   5.996  0.3518 -0.0551  0.1580
  256POPC   C4A 3441   2.607   7.686   6.188 -0.1077 -0.3520  0.3034
  256POPC   C1B 3442   1.934   9.348   5.164  0.0181 -0.0293 -0.3651
  256POPC   C2B 3443   1.697   9.548   5.496  0.1067 -0.1785  0.0469
  256POPC   C3B 3444   1.538   9.409   5.885 -0.3706  0.1181  0.5638
  256POPC   C4B 3445   1.603   9.003   6.150  0.0408  0.1685 -0.0467
  257POPC   NC3 3446   1.450   9.534   4.424  0.1769  0.1240  0.4339
  257POPC   PO4 3447   1.811   9.303   4.499 -0.0081  0.1584 -0.0196
  257POPC   GL1 3448   1.534   9.109   4.853 -0.2900  0.2895 -0.0073
  257POPC   GL2 3449   1.297   8.882   4.752 -0.0103  0.0908  0.0091
  257POPC   C1A 3450   1.684   8.929   5.301 -0.1858 -0.0011 -0.0605
  257POPC   D2A 3451   1.873   9.082   5.647  0.1982  0.2574  0.2202
  257POPC   C3A 3452   2.018   8.785   5.964 -0.0343 -0.1334 -0.0412
  257POPC   C4A 3453   2.003   8.326   6.237 -0.1248  0.2331  0.0064
  257POPC   C1B 3454   1.209   8.723   5.133 -0.2661  0.2874  0.0175
  257POPC   C2B 3455   1.165   8.748   5.552 -0.1475  0.1311 -0.2876
  257POPC   C3B 3456   0.924   8.782   5.887  0.2776  0.3056  0.1234
  257POPC   C4B 3457   1.084   9.179   6.136 -0.2464  0.1664 -0.1587
  258POPC   NC3 3458   3.234   6.105   3.884 -0.2317 -0.1211 -0.1301
  258POPC   PO4 3459   2.855   6.012   4.200  0.0319  0.0444 -0.2214
  258POPC   GL1 3460   2.986   6.329   4.507 -0.0371  0.0112  0.0572
  258POPC   GL2 3461   3.277   6.235   4.400  0.1466  0.0347 -0.0393
  258POPC   C1A 3462   2.942   6.408   4.949 -0.0683 -0.0940 -0.0921
  258POPC   D2A 3463   2.887   6.192   5.346 -0.0195  0.0508 -0.2432
  258POPC   C3A 3464   2.874   6.294   5.765  0.1551  0.1761  0.0622
  258POPC   C4A 3465   2.764   6.146   6.186 -0.0611  0.1723 -0.1822
  258POPC   C1B 3466   3.382   6.569   4.786 -0.1561 -0.2302 -0.3834
  258POPC   C2B 3467   3.310   6.803   5.147 -0.1631 -0.0946 -0.0643
  258POPC   C3B 3468   3.265   7.049   5.492  0.0969 -0.1455  0.0490
  258POPC   C4B 3469   3.450   7.153   5.895 -0.2168  0.1702  0.0956
  259POPC   NC3 3470   1.748   4.455   4.469  0.0893  0.0561 -0.0145
  259POPC   PO4 3471   2.025   4.210   4.717 -0.1378 -0.1300 -0.2332
  259POPC   GL1 3472   1.981   4.281   5.087  0.1226  0.0765 -0.0254
  259POPC   GL2 3473   1.998   4.621   4.987  0.0545  0.2445  0.5088
  259POPC   C1A 3474   1.980   4.224   5.606  0.0761 -0.1341  0.0768
  259POPC   D2A 3475   2.128   4.302   6.110 -0.3693 -0.0573  0.1883
  259POPC   C3A 3476   2.364   4.588   6.072  0.0381 -0.0612 -0.2764
  259POPC   C4A 3477   2.599   4.859   6.129 -0.1180  0.2321  0.1166
  259POPC   C1B 3478   2.246   4.612   5.388 -0.0818  0.2200 -0.2977
  259POPC   C2B 3479   2.606   4.656   5.582 -0.0465 -0.3796 -0.0015
  259POPC   C3B 3480   2.992   4.692   5.823 -0.1011  0.2180 -0.0167
  259POPC   C4B 3481   3.272   4.818   5.787  0.0429  0.0406 -0.0014
  260POPC   NC3 3482   7.131   4.346   4.427  0.0670  0.0945 -0.1626
  260POPC   PO4 3483   6.679   4.211   4.426 -0.2699 -0.4229 -0.2060
  260POPC   GL1 3484   6.633   4.125   4.797 -0.2054  0.1234  0.0909
  260POPC   GL2 3485   6.586   4.448   5.023  0.3411  0.1080 -0.2358
  260POPC   C1A 3486   6.804   3.849   5.152 -0.0579  0.2593  0.3309
  260POPC   D2A 3487   7.048   3.667   5.479  0.1273 -0.3994  0.1476
  260POPC   C3A 3488   7.501   3.872   5.673  0.4647  0.2387  0.0848
  260POPC   C4A 3489   7.746   3.714   5.865  0.0088  0.1591 -0.1459
  260POPC   C1B 3490   6.591   4.463   5.507 -0.1047  0.0107 -0.0570
  260POPC   C2B 3491   6.505   4.858   5.711 -0.1652  0.0380  0.2129
  260POPC   C3B 3492   6.680   5.253   5.697  0.1667  0.4274 -0.0116
  260POPC   C4B 3493   6.836   5.383   5.975  0.0242 -0.1340 -0.0109
  261POPC   NC3 3494   2.921   5.721   3.794 -0.4099  0.1566 -0.2600
  261POPC   PO4 3495   3.319   5.555   3.884 -0.0145  0.3658 -0.0874
  261POPC   GL1 3496   3.391   5.659   4.344 -0.2991 -0.2909  0.0039
  261POPC   GL2 3497   3.592   5.536   4.635 -0.0504  0.0428  0.0183
  261POPC   C1A 3498   3.214   5.791   4.663  0.1278  0.0796 -0.0595
  261POPC   D2A 3499   3.111   5.842   5.118  0.2189  0.0084 -0.0205
  261POPC   C3A 3500   3.176   5.414   5.256  0.2343 -0.2694  0.0236
  261POPC   C4A 3501   3.186   5.341   5.719 -0.2531 -0.0476  0.0784
  261POPC   C1B 3502   3.530   5.638   5.039 -0.4879  0.1829 -0.1033
  261POPC   C2B 3503   3.600   5.823   5.395  0.2994  0.2286  0.1038
  261POPC   C3B 3504   3.629   5.750   5.835  0.0049  0.3130 -0.0937
  261POPC   C4B 3505   3.663   5.902   6.288  0.1454 -0.0582 -0.1231
  262POPC   NC3 3506   8.116   1.545   4.679 -0.1181 -0.0926  0.1948
  262POPC   PO4 3507   7.932   1.923   4.822  0.2434 -0.0130  0.1678
  262POPC   GL1 3508   7.779   1.676   5.040  0.4480 -0.0948 -0.0178
  262POPC   GL2 3509   7.537   1.826   5.135  0.2031  0.0799  0.1446
  262POPC   C1A 3510   7.719   1.671   5.596 -0.0134 -0.0423 -0.1221
  262POPC   D2A 3511   7.924   1.935   5.908 -0.0578  0.2352  0.0835
  262POPC   C3A 3512   8.243   2.195   5.989 -0.1953  0.1961  0.2464
  262POPC   C4A 3513   8.278   2.550   6.215  0.2847 -0.0065 -0.1999
  262POPC   C1B 3514   7.853   2.064   5.395 -0.0912  0.2471 -0.1746
  262POPC   C2B 3515   8.203   1.858   5.525 -0.0961 -0.0003 -0.4880
  262POPC   C3B 3516   8.605   1.902   5.371 -0.1397  0.0854  0.4930
  262POPC   C4B 3517   9.009   2.132   5.498 -0.0985 -0.0333  0.0537
  263POPC   NC3 3518   3.114   2.744   4.773  0.0128  0.1851  0.2130
  263POPC   PO4 3519   2.680   2.642   4.788 -0.1334 -0.1309 -0.1198
  263POPC   GL1 3520   2.421   2.732   5.182  0.1107 -0.0251  0.2924
  263POPC   GL2 3521   2.452   2.371   5.334  0.1015  0.1995 -0.1770
  263POPC   C1A 3522   2.407   2.808   5.579  0.2891  0.2154  0.1262
  263POPC   D2A 3523   2.268   2.695   5.968 -0.0477 -0.2340  0.2854
  263POPC   C3A 3524   2.639   2.542   6.268 -0.1129  0.1113 -0.0874
  263POPC   C4A 3525   2.895   2.746   6.711  0.1274 -0.1317 -0.1780
  263POPC   C1B 3526   2.337   2.247   5.721  0.1902 -0.0704  0.1530
  263POPC   C2B 3527   2.399   1.911   6.010  0.2927  0.4246 -0.0990
  263POPC   C3B 3528   2.461   1.545   6.231 -0.1585 -0.0155 -0.2639
  263POPC   C4B 3529   2.296   1.311   6.511  0.4097  0.0313  0.1624
  264POPC   NC3 3530   5.371   3.960   3.800 -0.1080 -0.0341 -0.0253
  264POPC   PO4 3531   5.542   4.215   4.102  0.0206  0.2682 -0.1499
  264POPC   GL1 3532   5.668   4.197   4.556  0.0330 -0.0468 -0.2768
  264POPC   GL2 3533   5.852   4.568   4.641 -0.1162  0.2572  0.0767
  264POPC   C1A 3534   5.776   4.130   5.036 -0.1176 -0.0040 -0.0896
  264POPC   D2A 3535   5.753   4.313   5.361  0.0713 -0.1479  0.0330
  264POPC   C3A 3536   5.953   4.164   5.717 -0.1336  0.0407  0.3137
  264POPC   C4A 3537   6.192   3.838   5.918  0.0512  0.1287 -0.0584
  264POPC   C1B 3538   5.963   4.968   4.667 -0.0802  0.0309  0.0806
  264POPC   C2B 3539   5.753   5.367   4.866  0.0807  0.0934  0.0688
  264POPC   C3B 3540   5.987   5.566   5.202 -0.3220  0.0537  0.0894
  264POPC   C4B 3541   5.831   5.884   5.536 -0.1411  0.0778  0.1816
  265POPC   NC3 3542   7.731   9.566   4.353  0.0219  0.2337  0.2082
  265POPC   PO4 3543   7.993   9.937   4.387  0.0762  0.2643  0.4403
  265POPC   GL1 3544   7.722  10.067   4.755  0.4134 -0.4334 -0.2944
  265POPC   GL2 3545   7.521   9.809   4.839 -0.1048  0.0619  0.2089
  265POPC   C1A 3546   7.745  10.134   5.178 -0.0708  0.1381  0.3602
  265POPC   D2A 3547   7.782  10.230   5.547 -0.2980 -0.0495 -0.1712
  265POPC   C3A 3548   7.523  10.023   5.881  0.0499  0.3870  0.2213
  265POPC   C4A 3549   7.305   9.724   5.979 -0.0753  0.0490  0.1408
  265POPC   C1B 3550   7.771   9.603   5.128  0.0116 -0.1420  0.1305
  265POPC   C2B 3551   7.855   9.725   5.576  0.0168  0.1909  0.0752
  265POPC   C3B 3552   8.052   9.822   5.782  0.0961  0.0792 -0.2227
  265POPC   C4B 3553   8.444   9.596   5.929  0.2420  0.3068  0.0517
  266POPC   NC3 3554   4.739   2.083   4.645  0.1260 -0.4405 -0.1958
  266POPC   PO4 3555   5.076   1.805   4.707  0.1726 -0.2959  0.2653
  266POPC   GL1 3556   4.893   1.525   5.049 -0.2298  0.0494 -0.0271
  266POPC   GL2 3557   5.107   1.331   5.075 -0.1589 -0.1275  0.4128
  266POPC   C1A 3558   4.625   1.707   5.284 -0.1532 -0.0648  0.0012
  266POPC   D2A 3559   4.222   1.649   5.628  0.0277 -0.0267  0.0847
  266POPC   C3A 3560   4.017   1.232   5.423  0.0189 -0.0400  0.2873
  266POPC   C4A 3561   3.810   0.961   5.512 -0.1300 -0.1543 -0.1721
  266POPC   C1B 3562   5.151   1.353   5.503 -0.2218 -0.2196 -0.2108
  266POPC   C2B 3563   5.122   1.272   5.892 -0.0159 -0.0007  0.1498
  266POPC   C3B 3564   5.060   0.906   6.107  0.1395  0.2475 -0.2313
  266POPC   C4B 3565   5.017   0.633   6.511 -0.2710  0.0210  0.0073
  267POPC   NC3 3566   6.156   6.871   2.888  0.2618 -0.3170 -0.0271
  267POPC   PO4 3567   6.192   6.643   3.214 -0.2833 -0.2499  0.3837
  267POPC   GL1 3568   5.975   6.596   3.620 -0.0451 -0.0936 -0.1256
  267POPC   GL2 3569   6.123   6.887   3.656 -0.0159  0.0982 -0.0856
  267POPC   C1A 3570   5.690   6.665   3.974  0.2204  0.1367  0.2017
  267POPC   D2A 3571   5.496   6.264   4.246  0.0248 -0.1942  0.0443
  267POPC   C3A 3572   5.477   6.259   4.697 -0.0885  0.0388 -0.2961
  267POPC   C4A 3573   5.290   6.495   5.064 -0.0852  0.0763 -0.1902
  267POPC   C1B 3574   5.926   7.234   3.818 -0.0963 -0.3095 -0.0674
  267POPC   C2B 3575   5.827   7.648   4.095  0.2255  0.0319  0.2294
  267POPC   C3B 3576   5.628   7.858   4.646 -0.2799  0.1316 -0.0867
  267POPC   C4B 3577   5.851   7.651   4.980 -0.0598  0.0753 -0.1467
  268POPC   NC3 3578   5.279   7.086   3.112 -0.0230  0.2012 -0.0665
  268POPC   PO4 3579   5.101   7.445   3.073 -0.1652  0.1720 -0.1455
  268POPC   GL1 3580   5.479   7.467   3.427  0.1320  0.2206 -0.1429
  268POPC   GL2 3581   5.331   7.258   3.690  0.0082 -0.2820 -0.0342
  268POPC   C1A 3582   5.443   7.767   3.845 -0.3500 -0.2949 -0.3974
  268POPC   D2A 3583   5.656   8.137   3.960 -0.2094 -0.0177 -0.1478
  268POPC   C3A 3584   5.936   8.159   4.266  0.0856 -0.0284 -0.4179
  268POPC   C4A 3585   6.107   7.887   4.545 -0.0239 -0.1160 -0.2087
  268POPC   C1B 3586   5.059   7.446   4.017  0.1515  0.0617  0.1924
  268POPC   C2B 3587   4.791   7.564   4.286  0.1005  0.4052 -0.1857
  268POPC   C3B 3588   4.577   7.950   4.365  0.0604 -0.1195 -0.0227
  268POPC   C4B 3589   4.435   8.437   4.446  0.3119 -0.1236 -0.1665
  269POPC   NC3 3590   5.732   0.823   3.898 -0.1273 -0.1784  0.0075
  269POPC   PO4 3591   6.016   0.835   4.368 -0.1665 -0.3910 -0.1402
  269POPC   GL1 3592   5.886   0.696   4.813  0.0913  0.3831 -0.0479
  269POPC   GL2 3593   6.166   0.627   4.942  0.3408  0.3160 -0.1287
  269POPC   C1A 3594   5.793   0.423   5.163  0.2705  0.2033  0.0015
  269POPC   D2A 3595   5.634   0.403   5.548 -0.5434 -0.0685 -0.2356
  269POPC   C3A 3596   5.922   0.328   5.866  0.3001  0.1254 -0.3308
  269POPC   C4A 3597   6.337   0.241   5.836 -0.1318 -0.2256 -0.2091
  269POPC   C1B 3598   6.231   0.577   5.379  0.0737 -0.1291 -0.0683
  269POPC   C2B 3599   5.999   0.783   5.660 -0.0669  0.0416 -0.0494
  269POPC   C3B 3600   5.924   1.002   6.127 -0.0771 -0.0865  0.1902
  269POPC   C4B 3601   6.147   1.393   6.312  0.0393  0.0917  0.0363
  270POPC   NC3 3602   8.082   5.610   4.484 -0.1540  0.4721  0.0214
  270POPC   PO4 3603   8.362   5.969   4.559 -0.1358  0.4698 -0.0062
  270POPC   GL1 3604   7.983   5.941   4.868 -0.1784 -0.0421 -0.2484
  270POPC   GL2 3605   8.161   5.651   5.006  0.1855 -0.2104  0.2268
  270POPC   C1A 3606   7.853   5.932   5.321 -0.2343  0.1586  0.1415
  270POPC   D2A 3607   8.142   5.828   5.661  0.0725 -0.0527  0.0819
  270POPC   C3A 3608   7.991   5.553   5.992  0.3315 -0.0363  0.1385
  270POPC   C4A 3609   7.794   5.631   6.401  0.1995 -0.1492  0.1502
  270POPC   C1B 3610   8.540   5.582   5.308 -0.1029 -0.1863 -0.0472
  270POPC   C2B 3611   8.660   5.646   5.643  0.0020 -0.0562  0.1486
  270POPC   C3B 3612   8.507   5.886   6.016 -0.3577  0.0030 -0.0405
  270POPC   C4B 3613   8.664   6.305   6.040 -0.3064  0.0316  0.0250
  271POPC   NC3 3614   9.072   6.619   4.481  0.0337  0.0260  0.0490
  271POPC   PO4 3615   9.419   6.896   4.467  0.0720 -0.3491  0.1248
  271POPC   GL1 3616   9.524   6.818   4.828  0.4091  0.1888 -0.0403
  271POPC   GL2 3617   9.469   6.476   4.776 -0.0698 -0.2557  0.5032
  271POPC   C1A 3618   9.705   6.736   5.273 -0.1259  0.0318 -0.1366
  271POPC   D2A 3619   9.944   7.072   5.462 -0.0623 -0.1000 -0.1870
  271POPC   C3A 3620   9.708   7.367   5.690  0.0882  0.0416  0.1812
  271POPC   C4A 3621   9.822   7.629   6.008  0.4685 -0.2830  0.0285
  271POPC   C1B 3622   9.578   6.254   5.249 -0.0892  0.0572 -0.0162
  271POPC   C2B 3623   9.427   6.412   5.658 -0.2632  0.0239 -0.2158
  271POPC   C3B 3624   9.168   6.270   6.025 -0.1308 -0.0908  0.2008
  271POPC   C4B 3625   8.903   6.059   6.385 -0.1370  0.0087  0.0298
  272POPC   NC3 3626   1.157   6.780   3.945  0.3465 -0.1339  0.0544
  272POPC   PO4 3627   0.916   6.551   4.344  0.1269 -0.2264  0.0006
  272POPC   GL1 3628   0.703   6.740   4.660 -0.1444 -0.1746  0.3090
  272POPC   GL2 3629   0.792   6.489   4.943 -0.0621 -0.1143  0.1933
  272POPC   C1A 3630   0.432   6.958   4.925  0.3831  0.0645 -0.1171
  272POPC   D2A 3631   0.087   7.202   5.031 -0.3412 -0.2626  0.3617
  272POPC   C3A 3632   0.103   7.703   5.241  0.0237 -0.3795  0.2757
  272POPC   C4A 3633   0.064   7.965   5.506  0.1601 -0.0828 -0.0877
  272POPC   C1B 3634   0.986   6.363   5.304  0.2100  0.1589  0.0899
  272POPC   C2B 3635   1.083   6.592   5.662 -0.2932 -0.1886 -0.0525
  272POPC   C3B 3636   0.642   6.707   5.852 -0.2231  0.0322 -0.1602
  272POPC   C4B 3637   0.338   6.978   6.111 -0.0808 -0.0322  0.4617
  273POPC   NC3 3638   9.302   3.753   4.048  0.3207  0.1671  0.1769
  273POPC   PO4 3639   9.726   3.500   4.080 -0.0361 -0.0392  0.0484
  273POPC   GL1 3640   9.503   3.690   4.489 -0.2734  0.0404  0.0260
  273POPC   GL2 3641   9.271   3.531   4.678 -0.0210 -0.1556 -0.2096
  273POPC   C1A 3642   9.322   4.016   4.834  0.2801 -0.2504  0.1733
  273POPC   D2A 3643   9.244   4.169   5.251  0.0819  0.2469  0.2824
  273POPC   C3A 3644   8.907   3.973   5.423 -0.0875 -0.1792 -0.1002
  273POPC   C4A 3645   8.595   3.693   5.307  0.1304 -0.2234  0.0680
  273POPC   C1B 3646   9.134   3.659   5.044 -0.0831  0.2607  0.1268
  273POPC   C2B 3647   9.307   3.724   5.494  0.1152  0.2076  0.0545
  273POPC   C3B 3648   9.363   3.663   5.939 -0.1009  0.0482  0.1230
  273POPC   C4B 3649   9.172   3.547   6.349  0.1130  0.3198 -0.1223
  274POPC   NC3 3650   9.150   4.723   4.083  0.1870  0.0176  0.0959
  274POPC   PO4 3651   8.806   4.431   3.957  0.0094  0.2078 -0.1857
  274POPC   GL1 3652   8.792   4.449   4.355 -0.0668  0.0108 -0.3540
  274POPC   GL2 3653   8.514   4.151   4.538  0.0305 -0.4517 -0.1532
  274POPC   C1A 3654   8.883   4.405   4.873 -0.2286 -0.0647  0.1573
  274POPC   D2A 3655   8.717   4.514   5.306 -0.2720 -0.4493  0.0453
  274POPC   C3A 3656   9.015   4.418   5.625 -0.1520  0.2703  0.2898
  274POPC   C4A 3657   9.312   4.263   5.746 -0.0530 -0.2530 -0.2848
  274POPC   C1B 3658   8.459   4.176   5.042  0.0212 -0.1213  0.0750
  274POPC   C2B 3659   8.316   4.201   5.444 -0.0947 -0.2683  0.0007
  274POPC   C3B 3660   8.005   4.217   5.883 -0.2196  0.1068  0.2090
  274POPC   C4B 3661   8.102   4.306   6.255 -0.1542  0.3616  0.1162
  275POPC   NC3 3662   7.446   7.305   3.938  0.0250  0.0551 -0.1545
  275POPC   PO4 3663   6.929   7.320   3.768  0.1034  0.1011 -0.2752
  275POPC   GL1 3664   6.930   7.484   4.258 -0.0036  0.0092  0.0829
  275POPC   GL2 3665   7.167   7.343   4.349 -0.2937  0.2156 -0.1550
  275POPC   C1A 3666   6.509   7.520   4.559  0.2287 -0.2214 -0.1662
  275POPC   D2A 3667   6.186   7.408   4.678  0.0688  0.0200  0.0789
  275POPC   C3A 3668   5.987   7.256   4.424  0.0775 -0.2197 -0.0922
  275POPC   C4A 3669   6.087   6.849   4.195  0.1945  0.0982  0.1542
  275POPC   C1B 3670   6.903   7.118   4.602 -0.2766 -0.1847 -0.1305
  275POPC   C2B 3671   6.497   7.118   4.345 -0.0185 -0.0575 -0.0844
  275POPC   C3B 3672   6.329   7.513   4.107 -0.1135 -0.2251 -0.0851
  275POPC   C4B 3673   6.216   7.904   3.874 -0.0041 -0.3174 -0.2333
  276POPC   NC3 3674   0.478   7.531   4.711  0.0156 -0.0570 -0.0498
  276POPC   PO4 3675   0.235   7.751   4.301  0.3216  0.1057 -0.4011
  276POPC   GL1 3676   0.251   7.983   4.617  0.2020 -0.0762  0.2513
  276POPC   GL2 3677  -0.108   8.056   4.630  0.0236 -0.0269 -0.0080
  276POPC   C1A 3678   0.202   8.171   5.079 -0.0089  0.2934 -0.0161
  276POPC   D2A 3679   0.222   8.492   5.380  0.0871 -0.1300 -0.1772
  276POPC   C3A 3680  -0.183   8.375   5.491  0.0577 -0.0202 -0.0276
  276POPC   C4A 3681  -0.566   8.503   5.609  0.1499 -0.2574 -0.1666
  276POPC   C1B 3682  -0.262   8.022   5.085 -0.0211  0.3214 -0.0870
  276POPC   C2B 3683  -0.503   7.986   5.499  0.3828 -0.0049 -0.0817
  276POPC   C3B 3684  -0.352   8.054   5.880 -0.1749 -0.2648  0.0666
  276POPC   C4B 3685  -0.328   7.825   6.240  0.0189 -0.2481 -0.1594
  277POPC   NC3 3686   0.721   4.964   3.898 -0.2908  0.0664 -0.2124
  277POPC   PO4 3687   0.337   4.909   4.080  0.0472 -0.1658  0.0647
  277POPC   GL1 3688   0.362   4.999   4.457  0.0579  0.6857  0.0076
  277POPC   GL2 3689   0.196   5.301   4.466  0.1348 -0.1261 -0.1411
  277POPC   C1A 3690   0.660   5.332   4.536  0.1658 -0.0057 -0.1773
  277POPC   D2A 3691   0.779   5.630   4.825 -0.3196 -0.0564 -0.0658
  277POPC   C3A 3692   0.991   5.559   5.159 -0.2762 -0.1755  0.0841
  277POPC   C4A 3693   0.904   5.888   5.556 -0.2781 -0.1369  0.1875
  277POPC   C1B 3694   0.289   5.287   4.873 -0.1601 -0.3828 -0.0258
  277POPC   C2B 3695   0.344   5.035   5.245 -0.1687 -0.1087 -0.1255
  277POPC   C3B 3696   0.211   4.612   5.334 -0.0788  0.0054 -0.2304
  277POPC   C4B 3697  -0.134   4.456   5.082  0.1073  0.0513 -0.3091
  278POPC   NC3 3698   8.851   9.432   4.322 -0.1321 -0.0251 -0.1460
  278POPC   PO4 3699   8.604   9.163   4.466 -0.3310 -0.0494  0.1264
  278POPC   GL1 3700   8.358   8.998   4.702 -0.1727  0.0599  0.0407
  278POPC   GL2 3701   8.363   8.679   4.844  0.0750 -0.1443  0.0827
  278POPC   C1A 3702   8.487   9.006   5.147  0.2145 -0.1436 -0.3701
  278POPC   D2A 3703   8.853   9.219   5.311 -0.0583  0.0749  0.0117
  278POPC   C3A 3704   8.922   9.100   5.806  0.0389 -0.3261 -0.2026
  278POPC   C4A 3705   8.771   9.267   6.127  0.1598  0.0536 -0.4535
  278POPC   C1B 3706   8.369   8.471   5.170  0.2677 -0.1065 -0.1636
  278POPC   C2B 3707   8.310   8.475   5.669 -0.1821 -0.0871 -0.2325
  278POPC   C3B 3708   8.035   8.537   6.004  0.2529 -0.0204  0.0503
  278POPC   C4B 3709   7.680   8.553   6.121  0.0181  0.1701  0.0776
  279POPC   NC3 3710   6.135   5.661   4.036 -0.0760  0.2073  0.0195
  279POPC   PO4 3711   6.481   5.603   4.191 -0.1274 -0.2685 -0.1710
  279POPC   GL1 3712   6.308   5.268   4.371 -0.0565 -0.0052 -0.2190
  279POPC   GL2 3713   6.058   5.374   4.448  0.3492 -0.0849  0.1406
  279POPC   C1A 3714   6.496   5.022   4.739  0.2393  0.4459 -0.0301
  279POPC   D2A 3715   6.675   5.052   5.079 -0.1758  0.4056 -0.0179
  279POPC   C3A 3716   6.562   5.454   5.247 -0.1164 -0.0224 -0.2720
  279POPC   C4A 3717   6.486   5.731   5.627 -0.4117 -0.0143  0.1385
  279POPC   C1B 3718   6.213   5.450   4.799  0.1373 -0.2601  0.0098
  279POPC   C2B 3719   6.186   5.101   5.105  0.0337  0.1906 -0.0399
  279POPC   C3B 3720   5.996   5.085   5.590 -0.0521  0.1005 -0.2419
  279POPC   C4B 3721   6.089   4.922   5.968  0.2503 -0.0073  0.3180
  280POPC   NC3 3722   1.665   8.118   3.827  0.0921 -0.0515 -0.2642
  280POPC   PO4 3723   1.858   8.205   4.295  0.0356  0.1505  0.5201
  280POPC   GL1 3724   2.107   8.144   4.610  0.1941 -0.0026  0.1381
  280POPC   GL2 3725   2.162   7.785   4.629  0.3055 -0.2201 -0.3888
  280POPC   C1A 3726   2.212   8.301   5.015 -0.1314 -0.2073 -0.1597
  280POPC   D2A 3727   2.621   8.455   5.122  0.3708  0.2532 -0.2300
  280POPC   C3A 3728   2.845   8.412   5.486 -0.0144 -0.0914 -0.2109
  280POPC   C4A 3729   2.841   8.381   5.980  0.1547 -0.1140 -0.0573
  280POPC   C1B 3730   1.896   7.481   4.993  0.0472  0.5276  0.2255
  280POPC   C2B 3731   1.888   7.511   5.469 -0.0436  0.3070  0.2849
  280POPC   C3B 3732   1.794   7.563   5.916 -0.1117 -0.1661 -0.1682
  280POPC   C4B 3733   1.333   7.308   6.173 -0.3283 -0.0961  0.1666
  281POPC   NC3 3734   3.581   0.397   3.786 -0.0814  0.3722 -0.1695
  281POPC   PO4 3735   3.084   0.392   4.046  0.2325 -0.1390 -0.0642
  281POPC   GL1 3736   3.121   0.378   4.501 -0.4456  0.0757  0.0891
  281POPC   GL2 3737   2.896   0.630   4.706 -0.0421  0.2252  0.1484
  281POPC   C1A 3738   3.226   0.414   5.006 -0.0769 -0.0378  0.0649
  281POPC   D2A 3739   3.400   0.537   5.356 -0.3168  0.2693  0.3524
  281POPC   C3A 3740   3.391   0.134   5.468  0.1107 -0.0507  0.2496
  281POPC   C4A 3741   3.540  -0.110   5.780  0.1547  0.0049 -0.3758
  281POPC   C1B 3742   2.723   0.228   4.853  0.1444 -0.1014 -0.1436
  281POPC   C2B 3743   2.806  -0.066   5.185  0.2838  0.0564 -0.0454
  281POPC   C3B 3744   3.138  -0.347   5.362 -0.2934 -0.0140 -0.1044
  281POPC   C4B 3745   3.377  -0.555   5.722 -0.1414 -0.0743  0.0385
  282POPC   NC3 3746   4.038   1.956   4.576  0.0032 -0.2467 -0.0229
  282POPC   PO4 3747   4.059   1.539   4.508  0.0168 -0.1283  0.1576
  282POPC   GL1 3748   4.071   1.441   4.953 -0.2687 -0.1746  0.1516
  282POPC   GL2 3749   3.986   1.125   4.827  0.3486 -0.1428 -0.0601
  282POPC   C1A 3750   3.804   1.696   5.303 -0.1848  0.2636  0.1030
  282POPC   D2A 3751   3.729   1.491   5.751 -0.1028 -0.1427  0.1378
  282POPC   C3A 3752   4.062   1.388   5.979 -0.2764 -0.3343  0.0725
  282POPC   C4A 3753   4.113   1.236   6.389  0.1595 -0.1886 -0.3502
  282POPC   C1B 3754   4.214   0.820   5.083 -0.1135 -0.1365  0.0779
  282POPC   C2B 3755   4.351   0.852   5.628 -0.0011  0.0541  0.1990
  282POPC   C3B 3756   4.200   0.900   5.966 -0.2860  0.1830  0.3436
  282POPC   C4B 3757   4.418   0.891   6.444 -0.0792  0.1650 -0.2417
  283POPC   NC3 3758   7.465   8.888   3.896 -0.1017  0.0689 -0.0043
  283POPC   PO4 3759   7.672   8.576   4.079 -0.1213  0.1286 -0.0282
  283POPC   GL1 3760   7.469   8.386   4.490 -0.1270  0.1058 -0.0872
  283POPC   GL2 3761   7.234   8.010   4.464  0.2553  0.2359  0.0037
  283POPC   C1A 3762   7.407   8.622   4.891 -0.1386  0.1961  0.0313
  283POPC   D2A 3763   7.272   8.883   5.277  0.1018 -0.1020  0.0773
  283POPC   C3A 3764   6.885   8.818   5.448  0.2880  0.1414  0.1001
  283POPC   C4A 3765   6.721   9.217   5.362 -0.0667  0.0926  0.3384
  283POPC   C1B 3766   7.050   8.068   4.893  0.1248  0.2991 -0.1649
  283POPC   C2B 3767   7.123   8.347   5.245 -0.1112  0.0986 -0.2852
  283POPC   C3B 3768   7.249   8.380   5.477 -0.2521  0.0369  0.1041
  283POPC   C4B 3769   7.146   8.695   5.811  0.0617  0.0833 -0.2068
  284POPC   NC3 3770   6.910   4.824   4.178 -0.0480  0.1840 -0.0171
  284POPC   PO4 3771   7.269   5.056   4.111  0.0007  0.2061 -0.1255
  284POPC   GL1 3772   7.272   4.940   4.602  0.2301 -0.5164  0.0485
  284POPC   GL2 3773   7.479   4.616   4.723 -0.1039 -0.1267 -0.1032
  284POPC   C1A 3774   7.309   5.201   4.901  0.4332  0.0026 -0.1687
  284POPC   D2A 3775   7.158   5.630   5.124 -0.1186 -0.1015  0.1580
  284POPC   C3A 3776   6.805   5.844   5.063  0.2318  0.0997  0.0106
  284POPC   C4A 3777   6.449   5.917   4.890 -0.1991  0.0764 -0.1509
  284POPC   C1B 3778   7.155   4.751   5.082  0.1277 -0.1161  0.2769
  284POPC   C2B 3779   7.009   4.769   5.500  0.1679 -0.2210 -0.0382
  284POPC   C3B 3780   6.987   4.885   5.914 -0.1849  0.1592 -0.3487
  284POPC   C4B 3781   7.098   5.037   6.249  0.1620 -0.0123 -0.0099
  285POPC   NC3 3782   5.676   4.647   4.068 -0.0995  0.2438  0.2883
  285POPC   PO4 3783   5.591   5.080   3.996  0.0129  0.1523  0.0382
  285POPC   GL1 3784   5.265   4.864   4.285 -0.2154 -0.0747  0.1674
  285POPC   GL2 3785   5.310   4.590   4.419 -0.0677  0.1290 -0.3608
  285POPC   C1A 3786   5.068   4.951   4.694 -0.0730  0.0514 -0.1451
  285POPC   D2A 3787   5.138   5.210   4.973  0.1024  0.2705  0.1312
  285POPC   C3A 3788   5.417   5.032   5.223  0.1440 -0.2160 -0.0368
  285POPC   C4A 3789   5.753   4.896   5.209  0.0144  0.0028 -0.2108
  285POPC   C1B 3790   5.413   4.664   4.856 -0.0332  0.3096 -0.3279
  285POPC   C2B 3791   5.333   4.584   5.377 -0.0961 -0.3133 -0.2917
  285POPC   C3B 3792   5.220   4.713   5.653 -0.1269 -0.0121  0.1302
  285POPC   C4B 3793   4.778   4.915   5.801 -0.2085 -0.1567 -0.0791
  286POPC   NC3 3794   1.607   6.164   4.691  0.4461  0.0157  0.2120
  286POPC   PO4 3795   1.744   5.773   4.445 -0.1475  0.4539 -0.1098
  286POPC   GL1 3796   1.918   5.755   4.823 -0.0934  0.0485  0.1806
  286POPC   GL2 3797   1.971   5.403   4.957  0.2634 -0.0696 -0.0921
  286POPC   C1A 3798   1.995   5.998   5.262  0.0521  0.1540 -0.0369
  286POPC   D2A 3799   1.824   5.860   5.662  0.1822 -0.1889 -0.1884
  286POPC   C3A 3800   1.613   5.977   6.053 -0.4190  0.0269  0.0271
  286POPC   C4A 3801   1.391   6.297   6.001 -0.0200  0.1140  0.2940
  286POPC   C1B 3802   1.653   5.439   5.345 -0.0825 -0.0529  0.0846
  286POPC   C2B 3803   1.312   5.614   5.595 -0.0053  0.1077  0.0362
  286POPC   C3B 3804   1.191   5.768   6.009 -0.1251  0.1053 -0.0530
  286POPC   C4B 3805   0.740   5.518   6.038  0.0287  0.2740 -0.0408
  287W        W 3806   2.353   5.147  10.768 -0.1418 -0.1014  0.1192
  288W        W 3807   0.127   4.493   8.581  0.0627 -0.0314  0.0045
  289W        W 3808   1.978   1.433   9.356  0.0414  0.0453  0.1237
  290W        W 3809   4.771   3.500   9.225 -0.0066  0.2298 -0.1225
  291W        W 3810   1.662   7.911   9.462 -0.0561 -0.1800 -0.1676
  292W        W 3811   3.124   0.231   2.960  0.0813 -0.2966 -0.1834
  293W        W 3812   6.147   5.967   2.059 -0.1721  0.1798 -0.0564
  294W        W 3813   5.616   5.413   2.497  0.0095 -0.1176  0.3414
  295W        W 3814   0.456   5.075  11.015 -0.1840 -0.0889 -0.0347
  296W        W 3815   4.439   2.265  10.908 -0.1591 -0.0859  0.0558
  297W        W 3816   0.078   2.975  11.467  0.0271 -0.3576  0.1135
  298W        W 3817   5.360   8.000  10.401 -0.2012  0.2498  0.0829
  299W        W 3818   8.499   0.302  11.752  0.0174  0.1250 -0.2313
  300W        W 3819   8.917   0.044   3.333  0.3204  0.0214 -0.4079
  301W        W 3820   8.920   8.549  10.779  0.0029 -0.2575 -0.1197
  302W        W 3821   7.572   6.205   0.929  0.0745 -0.2183  0.0437
  303W        W 3822   4.540   4.769   0.536  0.1406 -0.0503  0.1290
  304W        W 3823   6.530   3.015  11.238  0.4257  0.0856  0.0474
  305W        W 3824   8.972   4.012  12.290  0.0070 -0.1497 -0.0037
  306W        W 3825   4.092   1.593   3.944  0.1570 -0.0291  0.1433
  307W        W 3826   8.085   9.444  12.280 -0.0771 -0.0564 -0.0310
  308W        W 3827   5.606   0.085   3.187 -0.2130  0.0843  0.1292
  309W        W 3828   1.415   0.470   0.363  0.1701  0.1303  0.1668
  310W        W 3829   5.479   0.049  10.718 -0.1380 -0.1907  0.1732
  311W        W 3830   3.714   1.659   0.901 -0.0006  0.0276  0.2225
  312W        W 3831   9.492   9.268   1.292 -0.0680 -0.1278 -0.1627
  313W        W 3832   6.323   9.555   0.597 -0.0088 -0.4462 -0.0809
  314W        W 3833   7.257   3.300  11.150 -0.1645  0.1631 -0.1945
  315W        W 3834   4.207   8.018   1.690  0.2360 -0.1643 -0.0333
  316W        W 3835   5.011   7.107  12.255 -0.0429  0.0470 -0.0405
  317W        W 3836   8.588   7.707   0.732  0.1681 -0.0441  0.1254
  318W        W 3837   1.713   3.578  11.099 -0.0531  0.1377 -0.0475
  319W        W 3838   7.256   1.709   0.797 -0.2335 -0.2782  0.3277
  320W        W 3839   0.356   1.861   9.545  0.0448 -0.1455 -0.1960
  321W        W 3840   5.397   7.634   0.561 -0.0811  0.0027 -0.0960
  322W        W 3841   5.652   5.672   9.000 -0.1103  0.2030 -0.0987
  323W        W 3842   5.396   8.917  11.993  0.0541 -0.0847  0.3480
  324W        W 3843   3.202   4.263   0.891 -0.0178  0.1526  0.2161
  325W        W 3844   6.526   7.191   2.284  0.0553  0.2913  0.0159
  326W        W 3845   9.242   3.460  10.203  0.3209  0.0942 -0.2215
  327W        W 3846   7.008   3.149   3.990  0.1280 -0.3590  0.0646
  328W        W 3847   3.805   6.840   9.904 -0.1148 -0.0708 -0.3023
  329W        W 3848   3.309   1.369   9.175  0.2245 -0.0665  0.1330
  330W        W 3849   3.061   0.896  12.458 -0.0294  0.0061  0.1547
  331W        W 3850   2.798   3.084  11.854  0.4496 -0.1761 -0.0213
  332W        W 3851   8.884   0.682   2.737  0.1296  0.0238  0.0264
  333W        W 3852   5.546   3.139   2.201 -0.0504 -0.3914 -0.0634
  334W        W 3853   8.789   1.179   8.197  0.0858 -0.0826 -0.0755
  335W        W 3854   9.305   3.860   2.028 -0.4000  0.1904 -0.1074
  336W        W 3855   6.641   9.488  12.297 -0.1839 -0.0939  0.6130
  337W        W 3856   8.638   8.540   8.825  0.3003 -0.0174  0.1160
  338W        W 3857   5.513   4.693   1.351  0.0192  0.1652 -0.0396
  339W        W 3858   1.877   0.567   2.921  0.0615  0.1934 -0.2292
  340W        W 3859   4.860   6.470  10.920  0.0320 -0.2171  0.3020
  341W        W 3860   2.393   8.945   8.816 -0.2894 -0.0010 -0.4417
  342W        W 3861   2.756   5.078   1.711  0.0500 -0.0526 -0.1821
  343W        W 3862   1.884   6.416   1.231  0.3514 -0.0195  0.0483
  344W        W 3863   7.417   4.487   9.129 -0.3464  0.1165 -0.5252
  345W        W 3864   6.921   9.436  11.291  0.2448  0.0937 -0.1272
  346W        W 3865   0.936   4.050   0.488  0.1100 -0.1917 -0.1037
  347W        W 3866   5.360   2.217   1.790  0.0203  0.0019  0.1683
  348W        W 3867   3.483   1.978   3.964 -0.2679  0.4638  0.0005
  349W        W 3868   2.818   6.883  12.257  0.1891  0.0467  0.1843
  350W        W 3869   9.190   7.730   9.797  0.0930  0.2332  0.0077
  351W        W 3870   6.269   7.025   7.148  0.4663  0.0504  0.2310
  352W        W 3871   5.815   1.069  12.583  0.1136  0.3413 -0.0336
  353W        W 3872   2.219   0.762  10.587  0.3424  0.2848 -0.1260
  354W        W 3873   3.416   6.707  11.544  0.2075  0.1210 -0.0635
  355W        W 3874   1.759   3.986   3.781 -0.5417 -0.2636  0.0656
  356W        W 3875   0.934   1.236   4.400  0.0233  0.1367  0.2825
  357W        W 3876   1.301   2.914   1.853 -0.0607  0.0330 -0.1312
  358W        W 3877   5.481   9.254  10.798 -0.2859  0.0123  0.1924
  359W        W 3878   0.032   1.027  12.294  0.2082  0.2885  0.2335
  360W        W 3879   6.413   2.951  12.159  0.2127 -0.2245 -0.2106
  361W        W 3880   4.592   0.922   0.051 -0.1383  0.0238 -0.1009
  362W        W 3881   8.707   1.907   9.757 -0.0439 -0.0646 -0.3363
  363W        W 3882   2.066   8.640  11.499  0.2958  0.1601 -0.1337
  364W        W 3883   6.551   3.184   8.639 -0.2086  0.1913  0.1434
  365W        W 3884   8.813   4.211   2.755 -0.0538 -0.0371 -0.2204
  366W        W 3885   4.509   7.134   0.880  0.0005 -0.0954 -0.1320
  367W        W 3886   7.432   5.908   9.955  0.0831 -0.2976 -0.0724
  368W        W 3887   7.931   8.967   0.129 -0.1173 -0.1762 -0.0691
  369W        W 3888   3.103   5.370  11.497  0.1347 -0.1987 -0.0593
  370W        W 3889   1.469   9.493   2.430 -0.0645  0.0016 -0.4010
  371W        W 3890   8.939   8.880  12.495  0.3053 -0.0061 -0.6425
  372W        W 3891   2.424   9.524   9.686 -0.3459  0.0830 -0.1538
  373W        W 3892   4.415   0.746  12.006 -0.5979 -0.0542 -0.1905
  374W        W 3893   0.921   6.622  12.347 -0.2761  0.4684  0.0837
  375W        W 3894   7.228   8.534  10.415  0.5840 -0.2928 -0.0797
  376W        W 3895   0.563   5.574   0.576 -0.1752  0.0995  0.0434
  377W        W 3896   4.486   4.690   1.221 -0.2373 -0.2057  0.0305
  378W        W 3897   8.990   8.867   8.988 -0.2808 -0.1670 -0.1119
  379W        W 3898   0.557   8.008   0.369  0.1973  0.0488 -0.1164
  380W        W 3899   5.417   1.395  12.176  0.0262  0.1794 -0.2011
  381W        W 3900   8.324   5.934  11.532  0.0176  0.0354 -0.4070
  382W        W 3901   5.348   1.738  10.298  0.0856  0.0110  0.3449
  383W        W 3902   0.111   0.953   8.571 -0.1044 -0.1387 -0.2239
  384W        W 3903   6.203   5.764  12.577 -0.1638 -0.0204  0.1454
  385W        W 3904   6.178   8.869   9.608  0.1238  0.5728 -0.0542
  386W        W 3905   2.855   4.389  11.244 -0.0134  0.0796  0.2241
  387W        W 3906   4.338   4.678   4.193 -0.1369  0.3231  0.0810
  388W        W 3907   3.094   4.504   9.085 -0.0656  0.1661  0.0899
  389W        W 3908   4.462   6.944   2.546 -0.4806 -0.0021 -0.1864
  390W        W 3909   0.391   6.508   4.146  0.3952  0.1571  0.1424
  391W        W 3910   5.901   8.316  10.417 -0.0345  0.0747 -0.0070
  392W        W 3911   0.214   2.623   3.770 -0.0955 -0.1453  0.1237
  393W        W 3912   8.871   3.521   3.831  0.2470 -0.3444  0.1852
  394W        W 3913   7.241   7.678   2.435  0.1048  0.1265  0.1649
  395W        W 3914   5.467   0.051  12.387 -0.1085 -0.3911 -0.3169
  396W        W 3915   6.646   6.652  11.591  0.0604  0.0221 -0.2261
  397W        W 3916   9.192   2.946  10.679 -0.1730  0.1439  0.0895
  398W        W 3917   7.874   7.388  11.774  0.2237 -0.1897 -0.2170
  399W        W 3918   1.251   3.655   0.824  0.0234 -0.1289  0.1142
  400W        W 3919   0.810   6.123   0.487  0.1799  0.1478 -0.1103
  401W        W 3920   2.892   1.984   8.815 -0.1429  0.3053  0.2314
  402W        W 3921   0.220   1.265  10.934 -0.2523 -0.1318  0.1899
  403W        W 3922   1.623   6.920   3.705  0.1881 -0.0555  0.0405
  404W        W 3923   2.621   2.209   2.766 -0.0894  0.0249 -0.0603
  405W        W 3924   9.055   1.330  11.151  0.1073  0.2241 -0.3553
  406W        W 3925   8.845   0.269   7.580  0.1629  0.2038  0.2903
  407W        W 3926   2.198   6.048   1.514  0.1684 -0.2828 -0.0533
  408W        W 3927   1.236   9.380   1.200  0.0661 -0.1632 -0.1013
  409W        W 3928   9.047   3.707   2.491 -0.1083  0.1666 -0.0654
  410W        W 3929   2.694   7.664  11.014  0.2397  0.0847 -0.1157
  411W        W 3930   3.098   2.182   2.989  0.1478 -0.0677 -0.0124
  412W        W 3931   3.850   3.812   2.040  0.1723  0.2399  0.2735
  413W        W 3932   1.509   4.711   0.239 -0.3072 -0.0338  0.2571
  414W        W 3933   7.643   3.277   1.338 -0.3011 -0.3618  0.4491
  415W        W 3934   0.178   3.313   1.307 -0.0865 -0.0524  0.0543
  416W        W 3935   6.196   5.522  10.447  0.2057  0.1763 -0.2052
  417W        W 3936   8.461   8.074   4.062  0.0661 -0.1487  0.1050
  418W        W 3937   3.733   0.971   2.327  0.0354 -0.0355 -0.0965
  419W        W 3938   0.381   2.708   4.276 -0.1811 -0.0573 -0.2087
  420W        W 3939   2.052   8.809   3.094  0.0341 -0.2180  0.0867
  421W        W 3940   0.551   0.836   8.334  0.1600  0.1334  0.0433
  422W        W 3941   6.027   5.917  10.620 -0.0321 -0.0919 -0.1621
  423W        W 3942   0.177   1.316   7.951 -0.2620 -0.2772 -0.0804
  424W        W 3943   4.844   7.013   2.226 -0.0583 -0.0784  0.0460
  425W        W 3944   3.064   1.369   3.496  0.1678  0.0748 -0.0583
  426W        W 3945   1.679   8.222   0.961  0.1765  0.0400 -0.1225
  427W        W 3946   5.116   1.036   2.591  0.2979  0.4016  0.3017
  428W        W 3947   2.757   7.180   0.251 -0.0474 -0.0488 -0.2095
  429W        W 3948   2.096   9.520  12.009  0.2146  0.0558  0.2486
  430W        W 3949   1.271   3.764   0.184  0.1739 -0.1140 -0.0605
  431W        W 3950   0.806   1.389   2.175  0.1254 -0.2058  0.0321
  432W        W 3951   7.141   5.837   9.149  0.0366 -0.2226  0.0244
  433W        W 3952   6.736   4.361   1.280  0.0657  0.0023  0.4329
  434W        W 3953   2.259   2.606   3.545 -0.0940 -0.2344  0.0651
  435W        W 3954   8.035   4.552   7.822 -0.2479 -0.3220  0.0120
  436W        W 3955   5.143   3.166  12.291  0.1363  0.1508 -0.0131
  437W        W 3956   3.072   0.312   0.447  0.1954  0.0466  0.0116
  438W        W 3957   1.885   1.137  11.782 -0.1302 -0.0538 -0.0082
  439W        W 3958   8.533   2.109  10.267 -0.1321 -0.0454 -0.2920
  440W        W 3959   5.633   0.894  10.703 -0.0506 -0.1561  0.0900
  441W        W 3960   4.011   5.088  11.625 -0.0758  0.1352  0.1597
  442W        W 3961   1.159   2.474   2.007  0.2076  0.3333 -0.0560
  443W        W 3962   9.203   2.233   0.809 -0.0895  0.1689 -0.0758
  444W        W 3963   9.123   2.351  12.248 -0.0170  0.1507  0.1227
  445W        W 3964   5.841   6.690   2.546  0.1851 -0.2970  0.0876
  446W        W 3965   5.298   8.920   1.114  0.2836  0.1711 -0.0985
  447W        W 3966   1.489   6.696   1.059 -0.3288  0.3768  0.3085
  448W        W 3967   7.621   8.435  10.665  0.1694 -0.0589 -0.1377
  449W        W 3968   7.599   2.868   3.643 -0.0231 -0.0709  0.0346
  450W        W 3969   3.735   7.102   0.126  0.0218 -0.2072  0.0246
  451W        W 3970   1.769   7.955   2.786 -0.2016  0.2064  0.1016
  452W        W 3971   5.471   8.537  11.361 -0.1461  0.0612  0.1695
  453W        W 3972   4.496   4.969   1.650  0.2634  0.1524 -0.1373
  454W        W 3973   8.056   1.309   2.637 -0.0368 -0.2367  0.0075
  455W        W 3974   8.728   7.582  12.073 -0.0918  0.0115 -0.1667
  456W        W 3975   9.679   4.222   0.160  0.5816 -0.3450  0.3210
  457W        W 3976   8.834   8.624   9.419  0.0053 -0.1252 -0.0223
  458W        W 3977   5.983   3.111   1.029  0.0030 -0.1238  0.1619
  459W        W 3978   0.054   5.408   9.987 -0.0952  0.0604  0.1271
  460W        W 3979   4.156   9.536  11.981 -0.1249  0.1831 -0.0282
  461W        W 3980   5.950   6.147   3.977 -0.4238  0.1731  0.0504
  462W        W 3981   4.498   6.415   2.278 -0.1485  0.2234  0.2693
  463W        W 3982   3.842   8.234   2.977 -0.0217 -0.1763  0.0053
  464W        W 3983   1.939   5.531   2.194 -0.4900 -0.1944  0.0285
  465W        W 3984   3.589   7.417   1.042  0.1059 -0.2071  0.0875
  466W        W 3985   3.448   5.984  11.054 -0.0982 -0.1369  0.1676
  467W        W 3986   4.822   2.936   3.435 -0.2314  0.4581 -0.0591
  468W        W 3987   6.227   3.029  10.322 -0.2463 -0.1741 -0.1553
  469W        W 3988   7.897   4.742   9.241 -0.1528  0.2720  0.2814
  470W        W 3989   3.623   1.366   2.085  0.2214  0.2949 -0.0772
  471W        W 3990   2.499   4.721   2.700 -0.1375 -0.0216 -0.0317
  472W        W 3991   0.292   1.969  11.100 -0.2038 -0.0197  0.0035
  473W        W 3992   3.553   3.769   0.915  0.3122  0.1088  0.1289
  474W        W 3993   5.637   3.216   9.505 -0.4209 -0.0052 -0.0946
  475W        W 3994   3.048   8.009   3.059 -0.0684  0.2143  0.0450
  476W        W 3995   0.724   8.383  12.597 -0.0647 -0.0053  0.2153
  477W        W 3996   3.665   7.574  11.214 -0.1257  0.2227  0.0030
  478W        W 3997   7.671   4.794   4.282 -0.0688 -0.2114 -0.1821
  479W        W 3998   0.198   9.245   9.700 -0.0106  0.3398 -0.0210
  480W        W 3999   0.262   6.864  10.926  0.0719  0.0603  0.3127
  481W        W 4000   5.883   4.082   0.202 -0.1043  0.0603 -0.1115
  482W        W 4001   4.276   4.532   9.303 -0.2566 -0.1660  0.1594
  483W        W 4002   3.862   6.291  10.975  0.2464 -0.0310  0.0461
  484W        W 4003   4.932   4.656  10.027  0.0595 -0.4888 -0.0453
  485W        W 4004   3.411   4.259   1.326  0.1423 -0.1504 -0.1494
  486W        W 4005   5.630   2.720   9.553 -0.0279 -0.1402  0.1955
  487W        W 4006   7.340   5.274  10.936 -0.0839  0.0171 -0.0998
  488W        W 4007   3.776   2.807  11.167 -0.0524  0.0505  0.0403
  489W        W 4008   5.321   1.699   9.283 -0.0020 -0.2070  0.1330
  490W        W 4009   5.021   6.267   2.602 -0.2818 -0.2675  0.2407
  491W        W 4010   5.468   3.251   1.138 -0.2543  0.2607  0.0248
  492W        W 4011   1.286   4.498  12.025 -0.0228  0.1356 -0.0910
  493W        W 4012   6.229   7.653  10.692 -0.1485  0.0818 -0.0282
  494W        W 4013   8.513   8.062   2.676  0.0696  0.0606 -0.0653
  495W        W 4014   5.628   6.196  10.595  0.1024  0.2948  0.0847
  496W        W 4015   6.567   5.196  10.513  0.0636 -0.0251 -0.0683
  497W        W 4016   4.869   6.070   2.198  0.1701  0.2519  0.0220
  498W        W 4017   6.419   6.088  10.296  0.0200  0.0452 -0.1795
  499W        W 4018   7.117   2.215  12.034  0.0857 -0.2604 -0.2428
  500W        W 4019   6.300   2.678   2.136  0.0236  0.1166 -0.1517
  501W        W 4020   5.530   3.581   3.516  0.2473  0.0993  0.0007
  502W        W 4021   3.727   5.814   3.718 -0.3433 -0.0224  0.0997
  503W        W 4022   0.833   4.860  10.766 -0.0051 -0.0347  0.0687
  504W        W 4023   7.829   1.279   1.396 -0.0921 -0.0033  0.0276
  505W        W 4024   6.281   2.096   4.797 -0.0401 -0.2430 -0.1730
  506W        W 4025   6.461   5.636   0.645  0.0637 -0.0790  0.0583
  507W        W 4026   3.876   0.010   0.831 -0.1777  0.1675 -0.2953
  508W        W 4027   3.929   1.918   3.097 -0.2232 -0.2720  0.1407
  509W        W 4028   9.310   8.541  12.306  0.0777 -0.0166 -0.3867
  510W        W 4029   9.483   1.122  10.746  0.1512 -0.0331 -0.1092
  511W        W 4030   7.632   1.661   4.352  0.1418 -0.2113 -0.3234
  512W        W 4031   2.777   8.847  10.664 -0.0825  0.1354 -0.2392
  513W        W 4032   1.519   2.441   4.285 -0.2098 -0.0138 -0.0741
  514W        W 4033   6.314   2.124   0.398 -0.0843 -0.0090  0.0999
  515W        W 4034   6.775   5.703   1.685 -0.0714  0.0992  0.0116
  516W        W 4035   3.339   3.855  11.908 -0.0179  0.2870 -0.3684
  517W        W 4036   3.463   0.759   9.998  0.0610  0.1516 -0.1667
  518W        W 4037   0.029   5.888   4.134 -0.1667 -0.0260  0.1411
  519W        W 4038   8.801   1.428   3.067  0.3897 -0.0436 -0.0693
  520W        W 4039   3.792   8.786  11.226  0.0814  0.3040 -0.0845
  521W        W 4040   4.996   0.221  12.039  0.0937 -0.0319  0.2377
  522W        W 4041   9.584   3.380  11.656  0.0009  0.0020  0.0211
  523W        W 4042   7.031   4.260   8.044  0.1310 -0.1385 -0.1845
  524W        W 4043   3.080   3.022   1.358 -0.1336 -0.1963  0.1251
  525W        W 4044   0.826   2.124  12.447 -0.1330  0.1726 -0.2540
  526W        W 4045   5.741   2.951  10.438 -0.2270 -0.1349 -0.1554
  527W        W 4046   7.549   6.301  12.229 -0.1203  0.2164 -0.0876
  528W        W 4047   0.870   0.549   3.423 -0.1742  0.0432 -0.0797
  529W        W 4048   2.222   8.002   0.936 -0.0378 -0.0397  0.1733
  530W        W 4049   5.356   1.385   1.949 -0.1068  0.1254  0.0572
  531W        W 4050   0.139   2.949   9.889  0.4476  0.2525 -0.1117
  532W        W 4051   5.856   2.602   0.167  0.2159 -0.2876  0.2006
  533W        W 4052   8.353   5.673  11.085 -0.0589  0.1632 -0.0797
  534W        W 4053   3.455   0.999   3.384 -0.3231  0.0098  0.1416
  535W        W 4054   7.325   4.316  11.333 -0.1929  0.1181  0.4545
  536W        W 4055   0.730   5.105   0.780 -0.1820 -0.0575  0.2055
  537W        W 4056   9.628   4.133   1.661 -0.2748  0.0185 -0.1230
  538W        W 4057   5.610   3.115   0.076 -0.1796  0.1711 -0.1773
  539W        W 4058   8.689   3.676   3.342 -0.0959  0.2881  0.0832
  540W        W 4059   6.854   4.466  12.190 -0.1029 -0.0365 -0.1357
  541W        W 4060   4.742   7.319   0.064 -0.0271 -0.2075 -0.1563
  542W        W 4061   1.638   4.675   2.742 -0.0985 -0.0899  0.1412
  543W        W 4062   8.678   2.157   0.014  0.1688  0.4100 -0.1615
  544W        W 4063   8.445   0.363   3.556 -0.0374  0.0391 -0.1923
  545W        W 4064   2.158   5.540   3.972 -0.2709  0.0001 -0.0005
  546W        W 4065   6.276   4.841  12.583 -0.2582 -0.0480  0.0211
  547W        W 4066   7.357   1.311   1.212  0.0761  0.1589  0.0911
  548W        W 4067   5.303   3.672   9.212 -0.1242  0.0820 -0.2990
  549W        W 4068   6.731   4.224   2.895  0.1944  0.0904  0.0033
  550W        W 4069   5.568   0.362   1.887  0.3349  0.1724  0.0204
  551W        W 4070   2.251   1.438   2.821  0.1769 -0.3999  0.0696
  552W        W 4071   3.351   5.044   1.779  0.1337  0.1277 -0.3368
  553W        W 4072   6.403   9.350   9.532 -0.1715 -0.2395 -0.2283
  554W        W 4073   5.027   0.097   0.556  0.0209 -0.2199 -0.0313
  555W        W 4074   2.999   0.086  11.732  0.1161 -0.3519  0.0022
  556W        W 4075   4.920   7.921   2.914 -0.1445  0.2339 -0.0283
  557W        W 4076   6.842   5.950   0.850  0.0235  0.1051 -0.1837
  558W        W 4077   0.716   3.787   1.772  0.0700  0.1110  0.0072
  559W        W 4078   4.407   0.162   8.854 -0.3207  0.0512 -0.0551
  560W        W 4079   2.560   2.715   0.040  0.0144 -0.0531 -0.1375
  561W        W 4080   3.874   0.355   8.196  0.0088  0.0796 -0.1737
  562W        W 4081   2.627   5.562  10.550 -0.0363  0.2296 -0.0415
  563W        W 4082   2.208   8.790   0.473 -0.1319 -0.1599  0.0277
  564W        W 4083   6.486   4.383  10.551 -0.0697 -0.2017 -0.1325
  565W        W 4084   6.234   5.216   9.985 -0.3855  0.1673 -0.1673
  566W        W 4085   2.504   2.410   0.478  0.2128  0.0131  0.3305
  567W        W 4086   7.141   9.525  11.758 -0.1302 -0.3130 -0.2948
  568W        W 4087   6.934   3.927   1.215 -0.1024 -0.1336 -0.1159
  569W        W 4088   8.906   4.138   2.045  0.3810  0.0067  0.0246
  570W        W 4089   4.571   7.791   0.021  0.1190  0.0212 -0.1312
  571W        W 4090   1.155   0.269   0.040  0.1523  0.1829  0.0532
  572W        W 4091   4.467   3.125  12.408 -0.1372 -0.1661  0.1001
  573W        W 4092   4.298   5.035   9.929 -0.1175 -0.0500 -0.0750
  574W        W 4093   6.908   0.456   3.790 -0.2209  0.0607 -0.3289
  575W        W 4094   0.396   3.686  10.297 -0.2705  0.1878  0.0780
  576W        W 4095   6.168   0.635  10.625  0.1619  0.2507  0.0914
  577W        W 4096   0.373   9.596   3.723 -0.0462  0.1025  0.2369
  578W        W 4097   8.450   3.115   8.540 -0.2810  0.1200 -0.0304
  579W        W 4098   2.388   0.977   1.259 -0.2399  0.4047 -0.3432
  580W        W 4099   0.976   5.327  11.033  0.0607 -0.2440 -0.0663
  581W        W 4100   4.543   2.557   9.345 -0.0281  0.3538  0.5530
  582W        W 4101   3.141   4.752   0.971  0.0523  0.1328  0.2268
  583W        W 4102   4.313   1.633   9.120  0.2400 -0.2050  0.2988
  584W        W 4103   1.736   8.735   2.284  0.3217 -0.0941  0.0294
  585W        W 4104   3.165   1.401   2.910 -0.1751 -0.3467 -0.0362
  586W        W 4105   1.071   4.482   0.378  0.0245  0.2260  0.2025
  587W        W 4106   7.097   2.717  10.258 -0.2416 -0.1335 -0.0904
  588W        W 4107   7.720   7.381   9.167 -0.1111 -0.0341  0.5233
  589W        W 4108   8.445   6.127  10.874  0.1042  0.1728 -0.0388
  590W        W 4109   3.398   4.659   2.435  0.2119  0.0025  0.1087
  591W        W 4110   9.096   0.228   8.015  0.1146  0.1084 -0.0069
  592W        W 4111   1.951   4.076  10.911 -0.3649 -0.0290  0.0185
  593W        W 4112   1.861   9.087  12.332 -0.2418 -0.0988  0.2059
  594W        W 4113   1.079   3.079   9.576 -0.1432  0.0702 -0.0358
  595W        W 4114   5.989   9.069   0.392  0.2155  0.1486  0.0283
  596W        W 4115   9.322   6.325  12.584  0.1829  0.1099  0.1219
  597W        W 4116   2.405   7.438   8.436 -0.0684 -0.0178 -0.1127
  598W        W 4117   3.823   1.180  11.951  0.0073 -0.0745 -0.4615
  599W        W 4118   9.276   4.146   4.368  0.4412  0.0413 -0.3292
  600W        W 4119   3.917   5.843  12.350  0.0795 -0.0557  0.0948
  601W        W 4120   8.475   0.373  10.277  0.0486  0.0338 -0.0852
  602W        W 4121   7.020   1.334   3.307 -0.0006  0.1962  0.3273
  603W        W 4122   3.550   2.025   4.650  0.1542 -0.0800  0.1409
  604W        W 4123   8.109   1.258   0.608 -0.0288 -0.1822 -0.0031
  605W        W 4124   4.289   5.681  10.554  0.2714  0.3602  0.2771
  606W        W 4125   6.433   4.020   0.348 -0.0354  0.2054  0.1717
  607W        W 4126   9.440   8.981   0.027  0.2996  0.2165 -0.1765
  608W        W 4127   6.204   0.503  11.132 -0.0823  0.1874  0.2485
  609W        W 4128   6.778   8.279   2.155 -0.0834  0.0588 -0.1391
  610W        W 4129   3.953   3.917  11.396 -0.0261 -0.2585  0.0823
  611W        W 4130   5.785   2.016   0.230 -0.1424 -0.2104 -0.0593
  612W        W 4131   1.469   5.445   9.103 -0.1596 -0.0177 -0.0435
  613W        W 4132   6.893   2.661  11.287  0.0278 -0.2154 -0.2852
  614W        W 4133   1.369   1.322   2.850  0.0953 -0.1344 -0.0639
  615W        W 4134   5.536   3.786  11.456 -0.0098 -0.0525 -0.0123
  616W        W 4135   7.342   8.940   0.782  0.1693  0.0571 -0.2258
  617W        W 4136   7.558   7.279  10.623 -0.4789  0.0961  0.5274
  618W        W 4137   6.921   5.058  10.933  0.0295  0.1098 -0.0709
  619W        W 4138   0.660   4.522   8.415 -0.0885 -0.1774 -0.2851
  620W        W 4139   6.434   9.017   2.366 -0.0831 -0.1222 -0.0796
  621W        W 4140   2.255   1.903  11.675  0.0359  0.0408 -0.0792
  622W        W 4141   2.634   1.430   3.184 -0.0158  0.0707 -0.0030
  623W        W 4142   5.786   6.867  12.522  0.0257 -0.0924 -0.1289
  624W        W 4143   2.198   3.029  10.223 -0.0881  0.2154 -0.1191
  625W        W 4144   7.165   1.873   2.569  0.0177 -0.0153  0.2713
  626W        W 4145   3.953   2.130   2.221 -0.1822  0.1693 -0.0436
  627W        W 4146   1.126   8.802   2.133 -0.0307 -0.3353 -0.2335
  628W        W 4147   6.409   1.142  10.629  0.0096 -0.0061  0.0875
  629W        W 4148   4.798   2.319   9.725  0.1885 -0.0906  0.3943
  630W        W 4149   3.590   1.088   0.722  0.0746 -0.3053 -0.0073
  631W        W 4150   8.856   9.371   1.281 -0.3747 -0.1927 -0.0020
  632W        W 4151   1.717   2.830  10.220 -0.2747 -0.2970 -0.0093
  633W        W 4152   5.744   0.133   1.121 -0.1782  0.1482 -0.0596
  634W        W 4153   4.206   4.179   1.435  0.2384 -0.0492 -0.0224
  635W        W 4154   2.603   5.925   3.421 -0.0382 -0.1884 -0.1875
  636W        W 4155   2.851   7.440  11.994  0.0085  0.1789  0.0293
  637W        W 4156   8.216   6.071   2.541  0.1696 -0.0129 -0.0235
  638W        W 4157   2.014   6.714  11.235  0.0042 -0.0241 -0.0038
  639W        W 4158   0.502   3.275   2.566 -0.1500  0.1003 -0.0695
  640W        W 4159   2.722   1.946   9.656 -0.0142  0.0005 -0.0075
  641W        W 4160   8.606   4.341  11.413 -0.1806  0.0622  0.2210
  642W        W 4161   1.137   7.994  11.793  0.1853 -0.3279 -0.3008
  643W        W 4162   6.960   2.187  11.122 -0.3312  0.1223  0.3222
  644W        W 4163   6.391   4.949   7.847  0.3899  0.0845 -0.0426
  645W        W 4164   8.765   1.393   9.439 -0.1502 -0.0466  0.0267
  646W        W 4165   4.964   8.644   9.104 -0.3543  0.2052  0.0923
  647W        W 4166   4.369   1.946   2.680 -0.0524 -0.2371  0.1561
  648W        W 4167   1.476   9.121   2.114 -0.0071  0.0810 -0.0182
  649W        W 4168   3.805   0.059  11.249  0.1973 -0.0367 -0.0108
  650W        W 4169   1.554   5.185  11.990 -0.1795 -0.2372  0.3499
  651W        W 4170   1.005   5.722   9.054  0.0602  0.1921  0.0212
  652W        W 4171   2.153   3.395   1.220 -0.1374  0.1018  0.1691
  653W        W 4172   9.481   5.717   2.229 -0.0085  0.0954  0.1218
  654W        W 4173   6.134   4.828   0.605  0.2024  0.0046 -0.5120
  655W        W 4174   4.871   1.858   1.911  0.1330 -0.0705  0.3694
  656W        W 4175   8.372   0.763  11.566 -0.4577  0.1883 -0.1985
  657W        W 4176   2.198   1.366   1.072 -0.1536 -0.2872  0.0603
  658W        W 4177   9.188   7.630   1.082 -0.0381  0.3879  0.1667
  659W        W 4178   7.519   5.780  12.371 -0.0583  0.0467 -0.1785
  660W        W 4179   4.068   6.315   9.119  0.1842 -0.0375  0.0126
  661W        W 4180   9.611   7.340   1.946  0.0108  0.3593 -0.0002
  662W        W 4181   6.711   8.674  10.191 -0.3721  0.4832 -0.0280
  663W        W 4182   3.266   8.607   9.426 -0.2070  0.0385  0.0836
  664W        W 4183   6.683   7.660   3.019  0.2098 -0.1034  0.2930
  665W        W 4184   9.471   2.453   2.492  0.3235 -0.2891  0.2591
  666W        W 4185   5.275   4.875   9.705 -0.1037  0.0487  0.0970
  667W        W 4186   7.901   4.981   0.671  0.1113 -0.0531  0.1022
  668W        W 4187   4.927   4.408   9.591 -0.1843  0.0219  0.1340
  669W        W 4188   9.288   2.247   0.106  0.0670 -0.1202  0.1314
  670W        W 4189   5.521   7.521   2.332 -0.1768 -0.1319 -0.0362
  671W        W 4190   6.210   9.458  12.507  0.1770 -0.1256 -0.0211
  672W        W 4191   8.223   7.587  12.599  0.5007  0.1823  0.0768
  673W        W 4192   2.044   5.993  10.693  0.1835  0.1878  0.0184
  674W        W 4193   0.626   6.040   3.221  0.0133  0.2754  0.0512
  675W        W 4194   3.248   2.889   8.905 -0.0527  0.0526  0.0135
  676W        W 4195   1.102   0.093  12.190 -0.0459  0.0604  0.0034
  677W        W 4196   0.847   3.577   9.218  0.2247 -0.1402  0.1321
  678W        W 4197   5.236   9.041   8.940 -0.2792 -0.0460  0.2777
  679W        W 4198   0.434   0.784   3.469 -0.1395 -0.0776  0.3149
  680W        W 4199   2.946   5.816  11.282  0.1487  0.0667 -0.2489
  681W        W 4200   8.241   0.466  10.889 -0.0920 -0.0513 -0.1089
  682W        W 4201   7.255   4.004  11.794  0.0226  0.1134  0.0418
  683W        W 4202   6.533   2.495   9.473  0.1282 -0.1196 -0.0049
  684W        W 4203   1.558   0.166   2.783  0.6219  0.2376  0.1690
  685W        W 4204   3.121   6.329  10.323  0.3650 -0.1249  0.1522
  686W        W 4205   8.981   1.895  10.165  0.1803 -0.2467  0.3009
  687W        W 4206   8.931   0.144  12.564  0.3387  0.4541  0.1636
  688W        W 4207   6.333   4.259   3.392  0.2524 -0.0813 -0.0337
  689W        W 4208   2.571   0.676  11.068 -0.0352 -0.1967  0.2292
  690W        W 4209   2.803   1.034   9.271 -0.2649 -0.2362  0.1759
  691W        W 4210   8.931   1.242   8.904  0.1127 -0.1461 -0.0899
  692W        W 4211   8.046   8.006   2.486  0.3791 -0.3951  0.1526
  693W        W 4212   3.407   5.524  11.151  0.3336 -0.2425  0.3550
  694W        W 4213   8.964   8.089  10.511  0.1553  0.0085  0.1626
  695W        W 4214   4.664   5.341   8.901  0.0823 -0.0661  0.0177
  696W        W 4215   7.178   8.011   2.010  0.1444  0.1550 -0.1828
  697W        W 4216   1.130   1.808  10.798 -0.0103  0.2423 -0.0778
  698W        W 4217   8.886   6.750   0.604 -0.3982 -0.3293  0.0576
  699W        W 4218   2.851   8.253   1.389 -0.2113  0.1502 -0.2282
  700W        W 4219   2.520   4.542   4.068 -0.1528  0.1529 -0.0031
  701W        W 4220   7.991   0.940   2.287  0.0061  0.1126  0.1163
  702W        W 4221   7.898   5.849   0.193  0.0809  0.0655  0.0092
  703W        W 4222   4.660   8.972   0.719  0.0818 -0.0757 -0.1780
  704W        W 4223   5.593   1.833   0.655  0.1612 -0.0841 -0.0983
  705W        W 4224   7.763   3.532   8.892 -0.0355  0.4109 -0.1622
  706W        W 4225   5.594   3.239  10.070 -0.2734 -0.3122 -0.3660
  707W        W 4226   3.774   2.864   8.858 -0.0621 -0.1652 -0.1418
  708W        W 4227   4.443   9.275  12.595  0.2263 -0.1025 -0.1524
  709W        W 4228   6.791   6.211   9.781 -0.0342 -0.3503 -0.1752
  710W        W 4229   3.402   4.514   9.962  0.1030  0.0149 -0.2080
  711W        W 4230   1.033   9.035  12.184 -0.0611 -0.0860  0.0267
  712W        W 4231   3.561   2.240   2.491 -0.1523  0.1615 -0.0976
  713W        W 4232   8.810   9.652  11.460 -0.0727 -0.1620 -0.0462
  714W        W 4233   3.564   1.844   2.049 -0.1308 -0.2396  0.0625
  715W        W 4234   7.094   5.417   3.562  0.0094  0.0385  0.3634
  716W        W 4235   4.011   4.011  12.432  0.0852 -0.2498  0.0949
  717W        W 4236   6.151   6.381   0.167  0.1532  0.0551  0.2375
  718W        W 4237   1.813   3.697   1.535 -0.0480  0.0225  0.2475
  719W        W 4238   0.951   0.021   7.625  0.0995 -0.0899 -0.1334
  720W        W 4239   0.039   0.635   0.627  0.1628 -0.0698  0.4724
  721W        W 4240   6.438   0.814  10.155 -0.1307  0.1606 -0.0696
  722W        W 4241   0.785   4.676  11.308 -0.2486  0.2112  0.3249
  723W        W 4242   8.761   6.239   4.717 -0.1766  0.2057  0.1970
  724W        W 4243   2.677   3.318  12.368 -0.2383  0.1765  0.2266
  725W        W 4244   5.983   4.067  11.535 -0.2607 -0.0015 -0.2416
  726W        W 4245   6.839   8.437  11.523  0.0921 -0.0100  0.0606
  727W        W 4246   9.345   1.481   3.139  0.2099 -0.1682  0.1219
  728W        W 4247   3.369   9.017   4.042 -0.1104  0.3572 -0.0598
  729W        W 4248   9.582   2.885   1.450 -0.2839  0.0877  0.3322
  730W        W 4249   9.291   0.576   1.518 -0.0317 -0.0658 -0.3517
  731W        W 4250   2.506   1.622  10.132 -0.0099  0.0588 -0.0669
  732W        W 4251   0.050   6.488   2.497 -0.2119 -0.1465  0.1163
  733W        W 4252   8.864   3.896   4.226  0.0675 -0.0433  0.1609
  734W        W 4253   3.206   6.858   2.147  0.0981  0.3620 -0.1140
  735W        W 4254   2.228   5.863  10.247 -0.2020  0.2402 -0.4467
  736W        W 4255   4.893   9.157  12.459  0.0501  0.3600  0.3218
  737W        W 4256   1.011   6.411   1.563 -0.3201  0.0979  0.4361
  738W        W 4257   0.878   7.564  11.280  0.1130 -0.1789  0.4032
  739W        W 4258   5.612   7.781   9.796  0.1990 -0.1052  0.1865
  740W        W 4259   4.604   7.578   3.028  0.0288  0.0672  0.0522
  741W        W 4260   3.968   7.314   9.154  0.1747 -0.0098  0.1119
  742W        W 4261   3.242   5.893   3.432 -0.1819 -0.3514 -0.0343
  743W        W 4262   6.606   1.061   2.656 -0.0676  0.2137 -0.2015
  744W        W 4263   9.455   3.081   0.460 -0.0605  0.1700 -0.1431
  745W        W 4264   4.574   7.747   9.226  0.1171 -0.2392  0.1313
  746W        W 4265   7.505   7.777   0.852  0.0485  0.1583 -0.0197
  747W        W 4266   2.283   0.253   4.546  0.1084 -0.0095  0.1572
  748W        W 4267   5.358   3.886   8.596  0.3105 -0.1169  0.2084
  749W        W 4268   9.106   7.104   4.102  0.0114 -0.1439  0.0624
  750W        W 4269   9.393   8.403  10.932 -0.0458  0.2589  0.1027
  751W        W 4270   1.568   7.703   1.642 -0.0894  0.0753  0.0140
  752W        W 4271   9.323   4.758  11.324  0.3867 -0.0422 -0.1914
  753W        W 4272   8.101   8.793   1.321 -0.1597  0.3666  0.3063
  754W        W 4273   2.382   1.843   3.065  0.3229  0.3178  0.3522
  755W        W 4274   1.326   6.316   4.271  0.0800  0.1180 -0.0926
  756W        W 4275   7.868   9.580   9.111  0.1864  0.0013 -0.2809
  757W        W 4276   5.440   8.228   9.685  0.2419  0.3096 -0.1242
  758W        W 4277   1.484   1.926   4.244  0.0557 -0.2820  0.2900
  759W        W 4278   5.595   0.467  10.527  0.1770 -0.0147  0.1788
  760W        W 4279   0.761   0.806   3.846 -0.0809 -0.2725 -0.0537
  761W        W 4280   3.529   1.091   1.571 -0.0331  0.0856 -0.0261
  762W        W 4281   8.417   8.153   1.664  0.0368 -0.0138 -0.0633
  763W        W 4282   1.543   0.077   3.752  0.0726  0.0802  0.0453
  764W        W 4283   6.982   2.544   1.918 -0.0492  0.1333  0.2835
  765W        W 4284   8.954   3.186   3.431 -0.1345 -0.2672  0.2873
  766W        W 4285   2.432   3.339   9.045 -0.2773  0.1853 -0.0707
  767W        W 4286   0.986   3.209   0.959 -0.5000  0.1372 -0.0328
  768W        W 4287   8.386   4.791   0.641 -0.0706 -0.1916 -0.3285
  769W        W 4288   2.220   0.562   3.395 -0.0353 -0.0443 -0.0719
  770W        W 4289   8.857   4.767   3.553 -0.0631  0.1050 -0.2631
  771W        W 4290   0.307   0.966   9.522  0.1292  0.1544 -0.1467
  772W        W 4291   6.771   5.297   9.954 -0.0291  0.1238 -0.3427
  773W        W 4292   1.924   3.675   0.878  0.4273 -0.0105 -0.3062
  774W        W 4293   1.882   7.678  12.132  0.0811  0.4279  0.1804
  775W        W 4294   1.403   3.181  12.399  0.0623 -0.0346  0.1309
  776W        W 4295   1.286   2.265  11.993 -0.0037 -0.1053  0.1663
  777W        W 4296   9.679   5.865   7.790  0.0460 -0.0207 -0.1095
  778W        W 4297   6.681   1.362  12.335  0.0445 -0.3821  0.1558
  779W        W 4298   0.781   6.027   2.696 -0.2349 -0.2173 -0.5289
  780W        W 4299   4.156   8.404  12.129 -0.0609  0.3089 -0.0692
  781W        W 4300   2.730   5.428   9.452 -0.0296 -0.3812 -0.1020
  782W        W 4301   4.908   0.224   8.645  0.2935 -0.2755  0.0668
  783W        W 4302   0.776   2.674  10.351  0.1697  0.1624 -0.2506
  784W        W 4303   9.149   1.111  10.180  0.3549  0.1804  0.1032
  785W        W 4304   3.302   0.593   2.393 -0.2003 -0.1706 -0.1995
  786W        W 4305   2.682   4.111   1.108  0.0746 -0.0388 -0.0375
  787W        W 4306   0.072   0.635   9.831  0.0385  0.2851 -0.2491
  788W        W 4307   0.180   0.199   1.999 -0.0298  0.2550 -0.2132
  789W        W 4308   9.298   3.104  11.326 -0.1517  0.2076 -0.0030
  790W        W 4309   1.729   2.899   1.519 -0.2508 -0.1867  0.0584
  791W        W 4310   1.826   9.057   0.546 -0.0132 -0.0968 -0.4130
  792W        W 4311   4.110   1.564   0.636 -0.1574  0.6609  0.0503
  793W        W 4312   1.097   0.046   0.773 -0.1968  0.3653  0.1196
  794W        W 4313   1.594   3.632  12.292 -0.0175 -0.0558 -0.1883
  795W        W 4314   4.839   7.378  11.850  0.2570 -0.4287  0.1090
  796W        W 4315   7.867   1.755   9.232  0.1765  0.2169  0.3448
  797W        W 4316   8.472   2.981   0.752  0.0472  0.1898 -0.0376
  798W        W 4317   2.616   3.256   2.594 -0.2900 -0.1049 -0.1234
  799W        W 4318   1.080   0.799   8.351 -0.0937 -0.0026  0.0228
  800W        W 4319   0.623   3.501   8.716  0.1888  0.1062  0.3164
  801W        W 4320   7.738   2.600  10.785  0.0576 -0.1909 -0.3351
  802W        W 4321   8.101   7.731  12.113  0.1563 -0.2939 -0.2416
  803W        W 4322   8.977   1.855   3.212  0.3881 -0.1324  0.0594
  804W        W 4323   0.869   4.169  11.883  0.0787  0.0921  0.0860
  805W        W 4324   0.966   5.165   9.167 -0.1896 -0.3566  0.0483
  806W        W 4325   5.166   3.046  10.964  0.0019 -0.1491  0.3286
  807W        W 4326   1.458   4.065   1.718 -0.0924 -0.3438  0.1275
  808W        W 4327   7.303   3.321   7.992  0.1125 -0.5688  0.0035
  809W        W 4328   1.624   7.750   1.034 -0.1126  0.2019 -0.2089
  810W        W 4329   1.557   0.633   9.575 -0.0581 -0.3106 -0.6112
  811W        W 4330   5.055   3.694   3.453 -0.3060 -0.1238 -0.0761
  812W        W 4331   3.235   6.688   9.574 -0.0123 -0.0489  0.1993
  813W        W 4332   6.750   3.357  10.845 -0.0581 -0.0160  0.2124
  814W        W 4333   3.574   9.344  11.965 -0.0353  0.2227 -0.0237
  815W        W 4334   7.837   9.219   3.974 -0.0150 -0.0435  0.1820
  816W        W 4335   6.835   9.128   9.905  0.0015  0.5017 -0.1635
  817W        W 4336   8.813   2.474   1.729 -0.0381  0.2351  0.0384
  818W        W 4337   5.797   6.806  11.755 -0.1761  0.0860  0.0986
  819W        W 4338   0.648   4.978   2.616 -0.3259 -0.1824  0.0047
  820W        W 4339   7.975   4.217   3.596  0.1487  0.0823 -0.1357
  821W        W 4340   0.506   4.494   2.224 -0.4202  0.0928 -0.1931
  822W        W 4341   4.929   3.497   2.673  0.0604 -0.4099  0.0803
  823W        W 4342   0.921   1.625   9.442  0.0404  0.0798 -0.1290
  824W        W 4343   0.143   3.354   2.237 -0.0327  0.0601  0.1676
  825W        W 4344   2.743   5.606  11.729  0.0248  0.0657  0.1415
  826W        W 4345   7.242   8.213   0.962  0.3148  0.2433 -0.0331
  827W        W 4346   2.223   3.323  11.097 -0.1433  0.3248  0.4337
  828W        W 4347   9.509   3.312   1.782  0.1265 -0.1904 -0.0684
  829W        W 4348   5.205   4.759  11.173 -0.2360 -0.0083  0.1401
  830W        W 4349   7.751   0.982  10.768 -0.2877 -0.2126 -0.0911
  831W        W 4350   5.869   1.219   2.166  0.1774 -0.0654 -0.0297
  832W        W 4351   6.328   3.924   8.989  0.2568 -0.0683 -0.1421
  833W        W 4352   1.493   1.871   9.149 -0.0911 -0.0416 -0.1137
  834W        W 4353   3.181   2.603   2.600  0.1898  0.0558 -0.0809
  835W        W 4354   5.114   5.515   0.159  0.0465  0.0231  0.1042
  836W        W 4355   0.593   9.407   0.192  0.2633 -0.0472 -0.2507
  837W        W 4356   8.024   2.311   3.115 -0.1647  0.1156  0.1045
  838W        W 4357   8.495   3.876   3.795  0.2680 -0.1971 -0.1877
  839W        W 4358   2.563   4.484   3.161 -0.4273  0.2216  0.0168
  840W        W 4359   2.212   4.587   9.578 -0.0955 -0.2531 -0.0006
  841W        W 4360   2.353   1.785   3.959  0.2319 -0.0349 -0.1580
  842W        W 4361   2.340   6.772  12.397 -0.1583  0.2928 -0.0186
  843W        W 4362   0.696   9.204   2.822  0.2861  0.1756  0.1373
  844W        W 4363   2.561   0.433   9.911 -0.3265  0.2341  0.1148
  845W        W 4364   0.576   0.031   9.875 -0.1166  0.3364 -0.0490
  846W        W 4365   3.457   1.148  10.430 -0.0345 -0.3205  0.1429
  847W        W 4366   0.532   4.311   0.341  0.0734 -0.0065  0.0397
  848W        W 4367   5.083   1.890   9.722 -0.1326  0.0913 -0.0665
  849W        W 4368   4.851   5.067   0.309  0.0549 -0.1059  0.1630
  850W        W 4369   1.357   2.792  10.723  0.0053  0.0124 -0.3023
  851W        W 4370   5.884   0.755   1.693  0.1967 -0.1965  0.0900
  852W        W 4371   9.542   3.741   1.354  0.0179  0.4460 -0.0107
  853W        W 4372   6.813   3.142   3.015 -0.2063  0.0356 -0.0756
  854W        W 4373   1.516   2.797   2.358 -0.1003 -0.0483  0.1005
  855W        W 4374   2.039   1.850   9.144 -0.2171  0.2006 -0.1588
  856W        W 4375   4.365   3.867  11.710 -0.0777 -0.4497  0.2456
  857W        W 4376   9.080   3.148  11.774 -0.1859  0.1166 -0.1288
  858W        W 4377   5.405   6.138   3.131  0.2963 -0.3490 -0.1461
  859W        W 4378   1.102   6.199   3.304 -0.0014  0.1077 -0.1502
  860W        W 4379   8.359   3.809   0.288 -0.4901  0.2207 -0.0852
  861W        W 4380   8.934   6.246   9.922  0.0497  0.3137  0.0858
  862W        W 4381   4.865   5.663  10.094 -0.2007 -0.0897 -0.1730
  863W        W 4382   2.522   2.011   9.212 -0.1654 -0.2613 -0.1021
  864W        W 4383   9.133   5.804   0.370  0.1359  0.3258  0.0424
  865W        W 4384   3.777   1.642   9.177  0.3448 -0.2648  0.0616
  866W        W 4385   0.435   5.656   0.125 -0.2446 -0.0760 -0.1061
  867W        W 4386   2.844   8.245  10.063 -0.5001  0.4322  0.0308
  868W        W 4387   4.864   5.470   0.627 -0.0076 -0.0292 -0.2340
  869W        W 4388   3.563   6.014   1.936 -0.0452  0.3018  0.1216
  870W        W 4389   1.338   0.330   2.348  0.2519 -0.2470  0.2260
  871W        W 4390   5.756   0.620   1.013  0.1653  0.1613  0.0224
  872W        W 4391   8.173   2.292   4.034  0.0677  0.2708 -0.1062
  873W        W 4392   9.412   7.141   3.633  0.1369 -0.0465  0.1663
  874W        W 4393   8.861   5.158   1.036 -0.1952  0.0986  0.0953
  875W        W 4394   1.683   4.668   3.787 -0.2353  0.1857 -0.1543
  876W        W 4395   4.336   3.029   3.271  0.1593 -0.2257 -0.2352
  877W        W 4396   6.743   2.140   2.147 -0.0712 -0.2273 -0.0748
  878W        W 4397   1.396   5.802   4.078 -0.2905 -0.0066 -0.0045
  879W        W 4398   0.048   6.616   1.204  0.0863  0.1296 -0.2463
  880W        W 4399   6.602   5.505   0.203 -0.0371  0.2373 -0.1321
  881W        W 4400   0.340   3.787   1.438 -0.0922  0.0220  0.1765
  882W        W 4401   7.364   9.299   1.936  0.1311 -0.0776  0.1575
  883W        W 4402   1.080   2.743   8.422 -0.2933  0.0595 -0.1503
  884W        W 4403   5.613   4.211  10.350 -0.0261 -0.1504  0.2237
  885W        W 4404   5.928   0.579   2.261  0.0067 -0.0702 -0.0347
  886W        W 4405   8.091   3.767   1.835 -0.0232  0.0226  0.0094
  887W        W 4406   5.090   0.912   8.532 -0.0065 -0.1209 -0.2866
  888W        W 4407   7.900   3.234  12.411  0.3153  0.0228  0.1407
  889W        W 4408   7.234   9.069  11.062 -0.1450  0.1065 -0.2976
  890W        W 4409   7.140   0.862   1.920  0.0410 -0.1691 -0.0567
  891W        W 4410   5.285   4.618   9.258  0.3576 -0.0142  0.0612
  892W        W 4411   3.000   8.050   4.316  0.4644  0.4944  0.1163
  893W        W 4412   0.536   1.724  12.218 -0.1739  0.0761  0.3342
  894W        W 4413   5.163   6.805   9.922  0.1886  0.1620 -0.0035
  895W        W 4414   0.715   6.539   2.634 -0.2328 -0.2584  0.0086
  896W        W 4415   4.147   1.055  12.349  0.0232 -0.2151 -0.3448
  897W        W 4416   8.324   9.411  11.650 -0.0250  0.3685 -0.0239
  898W        W 4417   2.857   4.994  10.698  0.0644  0.0420 -0.2356
  899W        W 4418   7.952   7.937  11.648  0.1204  0.1547  0.2351
  900W        W 4419   0.937   7.763   1.019  0.2309  0.0463  0.1658
  901W        W 4420   7.768   0.663  12.475  0.2385 -0.1301  0.2062
  902W        W 4421   5.652   7.545   1.040 -0.0860 -0.3071  0.0150
  903W        W 4422   2.070   8.379   3.520 -0.1085 -0.1794 -0.1843
  904W        W 4423   7.148   1.482  12.357 -0.0278 -0.2039  0.1082
  905W        W 4424   0.073   1.158  10.350  0.3012  0.2050  0.1811
  906W        W 4425   0.802   2.218   0.876  0.3278  0.2653  0.1383
  907W        W 4426   0.229   0.567  11.482  0.0071 -0.0964 -0.1084
  908W        W 4427   5.363   4.782   1.813 -0.1391  0.1223  0.0628
  909W        W 4428   5.651   5.405   3.588 -0.1980  0.0185  0.1509
  910W        W 4429   0.445   7.155   1.958 -0.1276 -0.0607 -0.2184
  911W        W 4430   7.166   6.849   3.446  0.2700 -0.0548 -0.2857
  912W        W 4431   1.668   1.452   3.582 -0.0572 -0.2304  0.0476
  913W        W 4432   9.590   7.077   1.178 -0.0405 -0.2754 -0.1635
  914W        W 4433   6.837   4.003   8.913 -0.0087  0.1570 -0.0196
  915W        W 4434   6.087   1.968   1.029 -0.3600  0.0429  0.0045
  916W        W 4435   8.649   5.842   7.668 -0.1160  0.0483  0.0540
  917W        W 4436   1.068   1.474   7.684 -0.0556  0.0178  0.2683
  918W        W 4437   1.002   0.869   1.312 -0.0566  0.0215 -0.3422
  919W        W 4438   4.201   7.981   0.364 -0.1640  0.5584 -0.2826
  920W        W 4439   0.845   5.263   1.322 -0.0187  0.1582  0.1575
  921W        W 4440   2.620   9.188  10.324  0.0714 -0.2516  0.0640
  922W        W 4441   5.584   5.980   9.537  0.2430 -0.1494 -0.0165
  923W        W 4442   3.644   3.314   3.337 -0.2824 -0.1988 -0.0950
  924W        W 4443   8.980   2.083   2.826 -0.1084 -0.0903 -0.0455
  925W        W 4444   5.868   0.683  11.461  0.2590  0.0080 -0.2727
  926W        W 4445   7.449   8.967   0.277 -0.0204 -0.3268  0.2704
  927W        W 4446   3.147   2.224  10.642  0.1602 -0.1090 -0.3208
  928W        W 4447   1.990   8.646  12.027 -0.2253  0.2244  0.1116
  929W        W 4448   4.014   4.143   9.157  0.0344  0.1866  0.1344
  930W        W 4449   5.944   2.420   2.920 -0.5870  0.1551 -0.3883
  931W        W 4450   4.661   7.912   1.964 -0.1851 -0.0759  0.0850
  932W        W 4451   4.979   9.331  10.695  0.1409  0.1581 -0.0538
  933W        W 4452   8.373   4.107   3.273  0.0692 -0.1399 -0.2520
  934W        W 4453   3.890   2.937   3.039  0.0020  0.0670 -0.3382
  935W        W 4454   7.054   6.804  10.394  0.1485  0.0895 -0.2783
  936W        W 4455   4.752   1.188   3.880 -0.2292  0.1377 -0.2255
  937W        W 4456   1.588   1.891  10.603 -0.0302  0.2361 -0.3082
  938W        W 4457   9.588   8.377   8.679  0.1825 -0.3683 -0.0524
  939W        W 4458   4.283   6.064  12.015  0.0853 -0.3292  0.2234
  940W        W 4459   6.289   5.169   1.871 -0.0729  0.0123 -0.3266
  941W        W 4460   7.810   7.965   1.707  0.1418  0.2134  0.0845
  942W        W 4461   7.785   0.678   9.547 -0.1564 -0.3309 -0.2655
  943W        W 4462   8.352   5.505  10.500 -0.0863 -0.0127 -0.2433
  944W        W 4463   6.411   8.919   0.142  0.1561  0.1343  0.1820
  945W        W 4464   8.183   6.978   3.049  0.2327  0.1434 -0.2234
  946W        W 4465   8.510   6.696   8.758 -0.0411 -0.1432  0.0463
  947W        W 4466   8.497   7.389  10.268 -0.3601  0.1969  0.1943
  948W        W 4467   7.374   8.545   0.554  0.1568  0.1284  0.3445
  949W        W 4468   8.817   6.282   4.199  0.1879 -0.0296  0.2732
  950W        W 4469   0.385   2.807  12.335 -0.0609 -0.1711 -0.1661
  951W        W 4470   1.200   2.193  10.536  0.0893  0.0455  0.1378
  952W        W 4471   1.260   7.291   8.340 -0.0351 -0.0129  0.0096
  953W        W 4472   4.011   4.897   1.187  0.1574  0.1786 -0.0318
  954W        W 4473   0.543   9.143   9.002 -0.1256  0.1712 -0.1449
  955W        W 4474   7.946   8.648  10.921  0.2442 -0.2915 -0.0097
  956W        W 4475   5.894   7.395   9.913 -0.2022  0.2340 -0.1900
  957W        W 4476   5.976   1.049  10.358 -0.3435  0.0037  0.1453
  958W        W 4477   2.394   0.050   0.784 -0.1794 -0.4527  0.4393
  959W        W 4478   1.554   1.608   7.738  0.1691  0.1857  0.1704
  960W        W 4479   6.527   7.704   1.261  0.1206 -0.4270 -0.0265
  961W        W 4480   8.353   1.724   1.988  0.1177 -0.1523  0.0141
  962W        W 4481   3.186   3.956  12.353  0.1002  0.3922 -0.3021
  963W        W 4482   9.196   7.055   1.906 -0.0749  0.2252 -0.0460
  964W        W 4483   7.653   1.277  11.182 -0.4776 -0.0087 -0.2107
  965W        W 4484   4.360   8.845   2.270  0.0426  0.1079 -0.0233
  966W        W 4485   1.447   4.335   3.526 -0.1171 -0.1723  0.2340
  967W        W 4486   5.239   4.011   2.567 -0.2078 -0.0948 -0.3798
  968W        W 4487   3.589   1.548   3.151 -0.1612  0.3031 -0.0978
  969W        W 4488   4.415   4.898   8.836 -0.4031 -0.0384  0.1282
  970W        W 4489   1.255   1.893   9.719 -0.0704 -0.2381  0.3608
  971W        W 4490   7.200   2.452  10.771 -0.1617  0.1863 -0.0412
  972W        W 4491   1.915   4.518   0.477  0.3328  0.0767  0.1044
  973W        W 4492   8.122   1.115   9.987 -0.1849  0.2361 -0.2399
  974W        W 4493   1.525   6.100   0.904  0.1922  0.2479 -0.5107
  975W        W 4494   7.235   5.235  11.679  0.1687  0.3031  0.0518
  976W        W 4495   1.715   0.026   3.259 -0.1840 -0.3057 -0.2209
  977W        W 4496   2.499   4.683   9.136  0.0227 -0.2943  0.0614
  978W        W 4497   8.570   7.298  10.824 -0.2293  0.3544  0.1719
  979W        W 4498   2.279   4.672   0.777 -0.0907 -0.4273 -0.0327
  980W        W 4499   6.475   7.534   1.742 -0.0486  0.0321 -0.0216
  981W        W 4500   6.711   2.334  11.615 -0.1038  0.0842  0.1926
  982W        W 4501   4.148   1.468   2.871  0.0470 -0.0379 -0.1276
  983W        W 4502   9.367   8.209   7.677 -0.0080  0.1820 -0.0178
  984W        W 4503   6.869   9.504  10.318 -0.2382  0.4450 -0.0700
  985W        W 4504   7.434   8.368   3.123 -0.0060 -0.6446  0.2656
  986W        W 4505   6.481   0.539   3.568  0.0398  0.0233 -0.3766
  987W        W 4506   6.919   8.249   1.304  0.0505 -0.0722  0.0023
  988W        W 4507   8.210   9.597   0.235  0.0450 -0.4444 -0.0227
  989W        W 4508   8.299   8.637   0.751 -0.2233  0.1184  0.1143
  990W        W 4509   6.083   1.588   3.094 -0.0222 -0.2904  0.1475
  991W        W 4510   8.513   0.825   0.534  0.4576 -0.1220  0.3150
  992W        W 4511   3.311   9.102   0.566 -0.0908 -0.2097  0.0178
  993W        W 4512   9.179   3.488   0.511 -0.1825  0.1265  0.0745
  994W        W 4513   2.736   3.180   1.731  0.0092  0.0610  0.4799
  995W        W 4514   1.927   8.611   1.538  0.2323 -0.0938 -0.0921
  996W        W 4515   1.494   8.670   1.811  0.2938 -0.0955 -0.2666
  997W        W 4516   6.340   7.316  12.476  0.0452  0.0585  0.0565
  998W        W 4517   9.133   6.481   9.461 -0.1912  0.2613  0.0011
  999W        W 4518   4.848   3.628   4.318  0.1210  0.0503  0.0076
 1000W        W 4519   5.697   8.083  10.848  0.2300  0.0800  0.0996
 1001W        W 4520   9.168   5.594   1.245  0.0889 -0.2367  0.0397
 1002W        W 4521   7.586   2.990   2.238 -0.0866 -0.0517  0.4740
 1003W        W 4522   7.203   0.914   8.620  0.0441 -0.1464  0.1430
 1004W        W 4523   9.285   9.273   8.988 -0.1831  0.0191 -0.0187
 1005W        W 4524   5.392   6.331  11.132  0.3568 -0.2556  0.2010
 1006W        W 4525   8.156   4.565   1.533 -0.0882  0.1473 -0.1672
 1007W        W 4526   0.176   6.683   0.606  0.0356  0.0330 -0.0486
 1008W        W 4527   5.293   4.342   8.829 -0.1972 -0.1332  0.1392
 1009W        W 4528   3.262   2.453  12.078 -0.2950 -0.0806 -0.1837
 1010W        W 4529   3.450   8.436  11.439  0.1093 -0.0145  0.0517
 1011W        W 4530   2.085   2.567   9.916  0.2668  0.1942  0.2794
 1012W        W 4531   3.231   0.588  11.836 -0.1268  0.1048 -0.0442
 1013W        W 4532   4.333   3.923   0.195  0.1774 -0.0560  0.4332
 1014W        W 4533   4.361   7.075   9.939 -0.0049  0.0084  0.0801
 1015W        W 4534   9.523   0.620  11.161  0.3955  0.0661 -0.3053
 1016W        W 4535   6.424   0.074   2.624  0.2684 -0.0382 -0.0135
 1017W        W 4536   0.546   7.491   1.484  0.3449 -0.3026  0.2690
 1018W        W 4537   2.701   2.836   3.448 -0.0062 -0.4126  0.2449
 1019W        W 4538   7.688   5.409  11.757  0.2276 -0.1175 -0.1522
 1020W        W 4539   6.030   9.374   2.518  0.1803 -0.0526 -0.1454
 1021W        W 4540   0.115   7.364  10.830  0.2187  0.0981  0.1135
 1022W        W 4541   7.623   0.938   0.412  0.0270 -0.2295 -0.0986
 1023W        W 4542   6.743   5.927   2.819 -0.0800  0.0266 -0.0144
 1024W        W 4543   3.387   3.433   1.539  0.0244  0.2906  0.1515
 1025W        W 4544   8.851   8.750  11.181 -0.1092 -0.0489 -0.0789
 1026W        W 4545   7.167   0.638  12.313  0.2259  0.3756  0.0261
 1027W        W 4546   5.272   4.464  10.550  0.0294 -0.3061  0.2097
 1028W        W 4547   8.219   3.754   8.909  0.3344  0.0428 -0.3240
 1029W        W 4548   2.740   0.958   3.406  0.2816  0.1460  0.1747
 1030W        W 4549   3.077   2.056   2.452 -0.0359  0.0200 -0.2551
 1031W        W 4550   8.809   1.770   2.249  0.1129  0.1943 -0.0039
 1032W        W 4551   3.102   2.467   1.398 -0.0361  0.1019  0.0101
 1033W        W 4552   6.938   5.483   4.008  0.1331 -0.1085  0.0533
 1034W        W 4553   9.276   9.458  10.957  0.3613 -0.2092 -0.0062
 1035W        W 4554   7.269   5.725   8.600 -0.0061  0.1706 -0.1473
 1036W        W 4555   0.875   3.667   8.307 -0.2044 -0.2773 -0.0268
 1037W        W 4556   8.041   8.498   9.022  0.0741 -0.1433 -0.1843
 1038W        W 4557   0.784   5.479   1.744 -0.0143  0.0380  0.0201
 1039W        W 4558   9.418   6.880  10.452  0.1436  0.0784 -0.0185
 1040W        W 4559   3.470   7.636   0.629  0.2495 -0.4846 -0.2638
 1041W        W 4560   3.110   5.410   9.836  0.1174  0.0579  0.0975
 1042W        W 4561   8.860   5.946  12.223 -0.0045  0.0961  0.3293
 1043W        W 4562   1.013   4.559   3.527 -0.1883 -0.1983  0.1884
 1044W        W 4563   0.215   1.995  11.978 -0.3134  0.0479  0.1456
 1045W        W 4564   0.234   5.593  12.241  0.3111 -0.0591  0.0700
 1046W        W 4565   6.509   1.224   9.070  0.0229  0.1692  0.1048
 1047W        W 4566   5.527   1.238   9.405  0.1012 -0.2887 -0.3473
 1048W        W 4567   6.413   4.250   1.678  0.0426 -0.0136  0.1960
 1049W        W 4568   2.968   3.026   0.121 -0.1684 -0.0714  0.3226
 1050W        W 4569   3.460   6.323  11.843  0.2503 -0.2300  0.0492
 1051W        W 4570   4.313   2.020  11.346 -0.0881 -0.1617  0.1931
 1052W        W 4571   2.595   9.581   3.386 -0.0302 -0.2265  0.0501
 1053W        W 4572   4.881   7.609   0.577  0.2156 -0.2994 -0.0927
 1054W        W 4573   6.949   4.178   1.655  0.1313  0.0697  0.0681
 1055W        W 4574   2.498   6.758   2.657  0.1639 -0.0640 -0.1509
 1056W        W 4575   8.173   6.960   8.533 -0.0989 -0.0492  0.1538
 1057W        W 4576   6.765   0.718   2.192 -0.0913  0.1482  0.0080
 1058W        W 4577   5.331   6.722   2.712  0.4283  0.2499  0.1439
 1059W        W 4578   4.805   3.434   0.587  0.2408 -0.2162  0.3311
 1060W        W 4579   4.579   6.409   3.632  0.0779  0.0525 -0.2157
 1061W        W 4580   0.997   3.654  11.726  0.0806 -0.0736 -0.0341
 1062W        W 4581   7.276   5.318  12.188 -0.3271 -0.1512 -0.1199
 1063W        W 4582   8.180   5.094   2.804  0.0103 -0.0101  0.0366
 1064W        W 4583   0.328   5.793   2.498 -0.1201  0.2696 -0.2861
 1065W        W 4584   1.194   8.380   0.849 -0.1362  0.2195  0.1068
 1066W        W 4585   8.343   3.686   4.730 -0.2664  0.0770  0.4660
 1067W        W 4586   3.064   3.902   2.916  0.2138 -0.3935  0.1574
 1068W        W 4587   1.151   6.708  10.873 -0.4723  0.1557  0.1364
 1069W        W 4588   1.776   8.826   9.506  0.4687 -0.0908 -0.2058
 1070W        W 4589   2.528   3.552   9.495  0.2851 -0.1864 -0.4689
 1071W        W 4590   3.399   2.449   0.601  0.0592  0.2043  0.1655
 1072W        W 4591   4.418   3.550   8.874 -0.1713  0.1238 -0.1727
 1073W        W 4592   0.132   3.799   1.912  0.0512 -0.0244 -0.1478
 1074W        W 4593   4.849   2.673  10.008  0.0433  0.0871 -0.2835
 1075W        W 4594   9.426   6.127  11.197  0.1469 -0.2247  0.4376
 1076W        W 4595   5.974   7.106   0.994  0.2324 -0.0548 -0.3167
 1077W        W 4596   6.328   1.458  11.088 -0.0035  0.1244 -0.2976
 1078W        W 4597   2.285   8.765  10.510  0.0770 -0.0342 -0.1873
 1079W        W 4598   7.816   3.341   3.714 -0.3781 -0.0092  0.0358
 1080W        W 4599   3.895   9.137   1.661 -0.0077 -0.2729 -0.1083
 1081W        W 4600   3.836   0.509   9.213  0.0443  0.0664  0.0667
 1082W        W 4601   5.823   9.485   0.647  0.0132 -0.0720  0.0427
 1083W        W 4602   6.692   6.699  10.032 -0.0932 -0.1084  0.2228
 1084W        W 4603   3.831   5.351  10.344 -0.2086 -0.2471  0.1666
 1085W        W 4604   5.923   2.329   9.804 -0.2475  0.0572  0.1510
 1086W        W 4605   4.333   5.764   2.841  0.3584  0.0236  0.1718
 1087W        W 4606   7.853   2.293  12.335 -0.1518 -0.2912 -0.0333
 1088W        W 4607   8.233   4.189   8.679 -0.2903 -0.1559  0.2355
 1089W        W 4608   5.076   4.612   0.456 -0.2395 -0.1344 -0.0687
 1090W        W 4609   5.125   8.638   0.709 -0.1731  0.1162  0.2223
 1091W        W 4610   3.203   7.457   3.099  0.1529 -0.0934  0.1014
 1092W        W 4611   3.662   0.066   3.391 -0.0610 -0.3283 -0.1434
 1093W        W 4612   0.315   4.126  11.076  0.0381 -0.1904 -0.1849
 1094W        W 4613   8.794   9.660   9.118  0.1164  0.0436  0.2808
 1095W        W 4614   2.432   2.285   3.853  0.2370 -0.3657 -0.2258
 1096W        W 4615   0.138   8.631   3.905 -0.2702 -0.0486  0.3349
 1097W        W 4616   2.273   1.053   1.997 -0.1031  0.1065  0.4830
 1098W        W 4617   2.355   2.185  10.074 -0.1794  0.2433 -0.2027
 1099W        W 4618   1.501   5.695   0.214  0.0881  0.0170  0.1938
 1100W        W 4619   2.885   7.811  12.265 -0.2480 -0.1788 -0.1051
 1101W        W 4620   1.523   2.869   9.744 -0.1452 -0.2725  0.1262
 1102W        W 4621   1.076   5.529   9.568  0.0057  0.1234 -0.2213
 1103W        W 4622   0.961   8.660   4.526  0.2291  0.1399 -0.1178
 1104W        W 4623   6.015   3.585   9.348 -0.0166 -0.2289  0.3279
 1105W        W 4624   5.082   7.887   0.188  0.2611 -0.2607 -0.0195
 1106W        W 4625   7.885   3.875   9.976 -0.1522  0.0483  0.2830
 1107W        W 4626   7.276   8.710  11.529  0.0735  0.2875  0.0565
 1108W        W 4627   1.482   6.463   8.854  0.1162 -0.0894  0.1237
 1109W        W 4628   8.471   3.528  10.758  0.3145  0.2532  0.0173
 1110W        W 4629   7.113   1.052  12.080 -0.4104 -0.1160 -0.1346
 1111W        W 4630   7.436   5.552   0.212 -0.0690  0.1285 -0.2605
 1112W        W 4631   4.619   6.866   0.458  0.3015  0.0740 -0.0364
 1113W        W 4632   6.350   8.674  11.852  0.1876 -0.3425  0.0623
 1114W        W 4633   6.354   5.592   3.222 -0.4425  0.0986  0.0865
 1115W        W 4634   7.215   6.662   8.771 -0.0968  0.0863  0.0689
 1116W        W 4635   0.999   1.409   8.966 -0.1610  0.0127  0.0167
 1117W        W 4636   0.062   3.628   8.707  0.1313  0.2194 -0.4339
 1118W        W 4637   6.169   5.273   0.255  0.2338 -0.1627  0.2931
 1119W        W 4638   9.649   4.898   9.480 -0.0553  0.0723 -0.2302
 1120W        W 4639   3.850   9.629   2.904 -0.1812 -0.0454  0.0284
 1121W        W 4640   4.620   0.460  12.366 -0.1266 -0.1793 -0.4290
 1122W        W 4641   3.369   6.289   0.020  0.0309 -0.1597 -0.0528
 1123W        W 4642   8.045   8.163  10.090  0.1105  0.1161  0.0553
 1124W        W 4643   0.923   8.429   0.419  0.0297 -0.2694 -0.1969
 1125W        W 4644   6.437   0.392   4.058 -0.3451  0.1623  0.0965
 1126W        W 4645   7.633   8.593   8.712  0.0988  0.3062  0.0157
 1127W        W 4646   0.126   8.157   2.161 -0.2273 -0.0952  0.1120
 1128W        W 4647   5.809   8.728  11.761 -0.1323  0.1189  0.0009
 1129W        W 4648   5.832   2.393  10.590  0.2134  0.2133 -0.0413
 1130W        W 4649   7.582   5.699   8.935 -0.0171  0.0360 -0.2017
 1131W        W 4650   7.616   0.116  10.759  0.0715 -0.0133 -0.3649
 1132W        W 4651   0.055   4.286   2.268 -0.0223  0.3081 -0.1642
 1133W        W 4652   5.893   7.649  11.370  0.0002 -0.3601 -0.2539
 1134W        W 4653   3.344   4.868   3.532  0.2736 -0.0772 -0.1273
 1135W        W 4654   2.073   7.001  10.821  0.0193 -0.2587 -0.0450
 1136W        W 4655   5.249   1.361   0.674  0.2906 -0.0523 -0.2681
 1137W        W 4656   1.890   3.059   7.618  0.2568  0.1337 -0.0313
 1138W        W 4657   0.708   5.889  11.614  0.3062  0.0043  0.2600
 1139W        W 4658   8.189   5.473   1.379 -0.0635  0.1154  0.0705
 1140W        W 4659   6.633   2.812   3.942  0.0378  0.4791 -0.0901
 1141W        W 4660   8.844   8.523   0.744  0.1706 -0.2268  0.2588
 1142W        W 4661   4.577   2.391  10.444  0.1909 -0.1175 -0.1595
 1143W        W 4662   9.578   5.970   0.346  0.1877  0.1591  0.0315
 1144W        W 4663   2.070   1.553   5.035 -0.0516  0.0213  0.0321
 1145W        W 4664   3.853   5.059  10.718 -0.5907  0.1647 -0.0641
 1146W        W 4665   8.217   3.212   9.043  0.1858 -0.3180  0.0276
 1147W        W 4666   3.793   3.571   3.961  0.2554 -0.0133 -0.2806
 1148W        W 4667   2.342   2.186   0.968  0.1840 -0.0187 -0.0523
 1149W        W 4668   0.954   3.477  10.377  0.0934  0.0625  0.2650
 1150W        W 4669   9.677   2.320   1.296 -0.1257 -0.1748  0.0846
 1151W        W 4670   4.736   9.111  11.518  0.1750 -0.1101 -0.0660
 1152W        W 4671   5.474   7.982  11.416 -0.0124 -0.0346 -0.2510
 1153W        W 4672   9.605   5.425   2.851  0.1202 -0.1948 -0.3706
 1154W        W 4673   4.039   1.791   0.159 -0.0616  0.2336 -0.2823
 1155W        W 4674   8.688   8.785   3.272  0.1903  0.0911  0.1858
 1156W        W 4675   8.451   8.881   9.193 -0.1063  0.1528  0.1351
 1157W        W 4676   4.633   2.230   8.880 -0.1459 -0.0919 -0.1607
 1158W        W 4677   3.038   0.294   1.497  0.2176 -0.3089  0.0806
 1159W        W 4678   8.719   2.589   3.970  0.0075  0.3119  0.1494
 1160W        W 4679   7.563   2.921  11.578 -0.1129  0.4808 -0.1628
 1161W        W 4680   2.921   0.449   9.248 -0.2485 -0.1935 -0.2716
 1162W        W 4681   8.065   9.080  10.677 -0.1116  0.0576  0.1349
 1163W        W 4682   6.340   8.648  10.522 -0.3050 -0.3777 -0.0093
 1164W        W 4683   3.212   6.954   3.116  0.1600 -0.0502 -0.3985
 1165W        W 4684   6.748   6.027  12.438  0.0480 -0.0639  0.2002
 1166W        W 4685   2.533   9.037   2.447 -0.0851 -0.2802  0.1643
 1167W        W 4686   8.634   7.700  11.183  0.3749  0.1166 -0.3806
 1168W        W 4687   0.028   9.270  10.190  0.1040  0.1590 -0.2854
 1169W        W 4688   3.516   5.862   1.449 -0.1339 -0.2857  0.2384
 1170W        W 4689   0.668   2.517   8.243  0.1012 -0.0748  0.0765
 1171W        W 4690   2.575   3.486   2.128  0.0803  0.0485 -0.2627
 1172W        W 4691   5.653   3.464  11.986  0.2142  0.2322  0.2011
 1173W        W 4692   7.513   5.348   0.668 -0.1313 -0.2185 -0.0263
 1174W        W 4693   9.035   7.210  12.099  0.0833  0.2465  0.1208
 1175W        W 4694   6.978   4.218   0.400  0.0312  0.0445  0.1327
 1176W        W 4695   3.093   1.948   4.271  0.1828  0.0887  0.0024
 1177W        W 4696   5.634   0.840  10.019 -0.0282  0.1866 -0.1608
 1178W        W 4697   4.089   3.781  10.477  0.0417 -0.2190  0.2404
 1179W        W 4698   9.568   7.383   4.124  0.0999 -0.1583 -0.2055
 1180W        W 4699   4.115   2.728   1.103  0.0683  0.1506  0.0934
 1181W        W 4700   1.826   2.500   2.597 -0.1141  0.0102  0.0318
 1182W        W 4701   4.946   4.414  10.915  0.1701  0.0658  0.1706
 1183W        W 4702   2.783   9.176   9.445 -0.0222  0.1676 -0.0542
 1184W        W 4703   7.743   3.917   8.543 -0.0901 -0.2369  0.1273
 1185W        W 4704   3.548   9.354   3.166  0.0955 -0.1191  0.2484
 1186W        W 4705   8.217   7.011  10.033  0.0239  0.3807  0.1626
 1187W        W 4706   1.981   3.038   3.230  0.2663  0.0317 -0.0271
 1188W        W 4707   4.276   0.018   3.147  0.2491 -0.1833 -0.0314
 1189W        W 4708   2.916   6.879  10.514 -0.1495 -0.0724  0.2357
 1190W        W 4709   9.027   9.403  12.351 -0.2264  0.2498 -0.1306
 1191W        W 4710   8.834   8.604  10.303 -0.2722  0.3284 -0.1097
 1192W        W 4711   9.377   7.334   3.157  0.0947 -0.1953  0.1142
 1193W        W 4712   8.557   0.202   4.670 -0.2975  0.0504  0.0649
 1194W        W 4713   9.577   1.997   9.322  0.3833  0.0726 -0.1730
 1195W        W 4714   8.675   7.600   0.245 -0.3084  0.2997 -0.1584
 1196W        W 4715   1.329   0.933  10.664 -0.2437 -0.0718 -0.2703
 1197W        W 4716   3.697   1.308   2.675  0.1086 -0.2173 -0.0825
 1198W        W 4717   9.154   1.731   0.543 -0.1349  0.0017  0.1483
 1199W        W 4718   3.837   9.089   0.768  0.0095  0.1207  0.0737
 1200W        W 4719   6.262   7.824  11.705  0.2157 -0.3973  0.0681
 1201W        W 4720   7.521   7.257  11.144 -0.2125 -0.0815  0.0500
 1202W        W 4721   1.951   3.591   3.381  0.1184  0.2785 -0.2376
 1203W        W 4722   6.565   6.988  12.062  0.0656 -0.2225 -0.1949
 1204W        W 4723   0.986   1.340   1.164  0.0939 -0.3807  0.1471
 1205W        W 4724   9.400   5.864   1.617 -0.1651 -0.0233  0.2422
 1206W        W 4725   8.704   1.309   1.205  0.2104  0.0164 -0.0815
 1207W        W 4726   9.215   4.303   3.354 -0.1454  0.0629  0.0788
 1208W        W 4727   0.784   3.298   3.021  0.0479  0.2045  0.1799
 1209W        W 4728   4.591   9.128  11.058 -0.2247 -0.1086  0.4520
 1210W        W 4729   8.073   2.439  11.862  0.0492  0.0311  0.0271
 1211W        W 4730   0.389   8.446   9.644  0.1596  0.1862  0.1889
 1212W        W 4731   6.977   5.800   8.172 -0.0982 -0.0597  0.0488
 1213W        W 4732   6.391   2.484  11.205  0.0427  0.0156 -0.0367
 1214W        W 4733   9.162   6.212   2.691 -0.0398 -0.4240 -0.0774
 1215W        W 4734   9.079   6.854   2.844  0.0720 -0.3594 -0.2356
 1216W        W 4735   6.047   8.768   2.166  0.1386 -0.2044 -0.2452
 1217W        W 4736   9.480   2.542  10.566 -0.1288 -0.0264  0.0302
 1218W        W 4737   9.194   7.930  10.929 -0.4416  0.2935  0.0450
 1219W        W 4738   0.285   5.726   1.564  0.0180 -0.0569  0.0393
 1220W        W 4739   4.359   7.393   1.367 -0.0980  0.3639  0.2117
 1221W        W 4740   0.846   0.157   3.742 -0.0472 -0.1243 -0.0151
 1222W        W 4741   2.068   7.737   0.035  0.0682 -0.0422  0.0384
 1223W        W 4742   5.483   1.882  11.979  0.0919 -0.4256  0.2491
 1224W        W 4743   3.910   1.119   3.133  0.0279 -0.0161 -0.1181
 1225W        W 4744   5.655   9.337   2.901 -0.0157  0.0121  0.0950
 1226W        W 4745   4.767   5.778  10.583  0.0987  0.0370  0.0148
 1227W        W 4746   0.178   6.189   1.447  0.2234 -0.2107 -0.1954
 1228W        W 4747   8.120   5.782   2.054  0.1031 -0.2885  0.3037
 1229W        W 4748   1.034   6.256   9.001  0.0473 -0.3696  0.0027
 1230W        W 4749   9.114   1.469   1.448 -0.1180  0.2219  0.3009
 1231W        W 4750   5.410   2.284   0.797  0.1347 -0.0598 -0.0067
 1232W        W 4751   8.815   3.885   4.824  0.0849  0.0788 -0.2526
 1233W        W 4752   3.810   9.257  10.713 -0.2172 -0.1160 -0.1028
 1234W        W 4753   8.691   4.683  12.111  0.1170  0.1650 -0.2248
 1235W        W 4754   2.879   9.341   9.892 -0.1333  0.1578  0.0741
 1236W        W 4755   8.582   0.848   1.433  0.0298 -0.1680 -0.0623
 1237W        W 4756   7.282   4.110   9.456  0.3076  0.2093  0.2069
 1238W        W 4757   8.427   6.934   2.554 -0.1583 -0.0530  0.1821
 1239W        W 4758   2.951   1.558  11.962 -0.2052  0.0659 -0.0381
 1240W        W 4759   3.345   8.676   8.468 -0.0689  0.1013 -0.0369
 1241W        W 4760   4.546   3.305   8.394 -0.1934 -0.0158  0.0338
 1242W        W 4761   1.948   0.690  11.025 -0.1383  0.1318  0.3930
 1243W        W 4762   6.474   6.030   0.321 -0.0782  0.2093 -0.0048
 1244W        W 4763   5.904   4.318   3.128 -0.0788 -0.4021  0.4317
 1245W        W 4764   6.711   4.630   1.936  0.1868 -0.1284 -0.2651
 1246W        W 4765   3.169   5.210   0.687  0.3890  0.2818 -0.0412
 1247W        W 4766   2.374   9.669   8.660 -0.0202 -0.1629 -0.0604
 1248W        W 4767   9.516   3.964  12.315  0.1465  0.0733  0.2405
 1249W        W 4768   7.929   9.445   9.658 -0.3842 -0.0239  0.1271
 1250W        W 4769   7.541   7.044   0.508 -0.0174  0.3306 -0.1537
 1251W        W 4770   2.093   8.525   0.995 -0.0990 -0.1877 -0.1714
 1252W        W 4771   1.778   1.408   2.537  0.0238 -0.0880 -0.1859
 1253W        W 4772   7.369   7.800   1.551 -0.2237  0.2081 -0.3691
 1254W        W 4773   0.799   7.056   2.778  0.0048 -0.3297  0.1546
 1255W        W 4774   2.285   1.682   9.680 -0.2934  0.0719 -0.2585
 1256W        W 4775   3.876   3.408   1.067 -0.3980 -0.0855  0.0668
 1257W        W 4776   9.547   0.282   1.109  0.0174 -0.0847  0.1819
 1258W        W 4777   1.359   7.704   3.574 -0.0947 -0.0502 -0.0520
 1259W        W 4778   6.638   3.767   1.571  0.2392 -0.0543  0.0796
 1260W        W 4779   4.284   0.315  11.106 -0.2714 -0.0134  0.0179
 1261W        W 4780   0.425   8.865   8.090  0.0555  0.0558 -0.2034
 1262W        W 4781   6.417   0.814   1.584 -0.0482  0.1885  0.1702
 1263W        W 4782   4.601   9.422   9.719  0.1581  0.0712  0.2216
 1264W        W 4783   8.629   5.217   0.391  0.2033 -0.1430 -0.0311
 1265W        W 4784   4.818   9.357   0.371 -0.0222  0.1873 -0.2220
 1266W        W 4785   2.117   8.217  11.192  0.1343 -0.1618  0.0900
 1267W        W 4786   3.325   3.952   9.967 -0.0008  0.0786  0.0227
 1268W        W 4787   6.688   1.768   2.461  0.2590  0.0868  0.1119
 1269W        W 4788   7.878   9.227  11.658 -0.2304 -0.2240 -0.0129
 1270W        W 4789   8.810   1.781  11.049 -0.2169  0.0373 -0.0338
 1271W        W 4790   8.035   3.858   9.427 -0.1583 -0.0471  0.1567
 1272W        W 4791   8.238   1.347   8.124 -0.0732 -0.1135 -0.1336
 1273W        W 4792   0.574   1.067   1.099  0.3607 -0.2342 -0.0157
 1274W        W 4793   3.470   8.937  10.641  0.1640  0.4601  0.0217
 1275W        W 4794   0.211   6.125   8.697  0.1573 -0.1987 -0.1380
 1276W        W 4795   9.665   2.910   2.410 -0.1828  0.0572  0.0500
 1277W        W 4796   2.399   7.414   1.824 -0.0667  0.1771 -0.1424
 1278W        W 4797   6.748   5.076  11.484  0.1355  0.0966 -0.0161
 1279W        W 4798   2.194   1.550   3.370 -0.0491 -0.0370  0.1774
 1280W        W 4799   8.355   3.279   1.946 -0.1287  0.2279 -0.0487
 1281W        W 4800   2.047   7.053   0.731 -0.4667  0.0353  0.1618
 1282W        W 4801   4.806   3.342   0.069  0.1180 -0.0002 -0.0125
 1283W        W 4802   5.466   6.012  10.090  0.0920  0.1147 -0.1378
 1284W        W 4803   3.551   3.179   9.257  0.1416  0.2924  0.0762
 1285W        W 4804   3.906   6.885   3.685  0.2604 -0.1987 -0.2098
 1286W        W 4805   1.021   8.310   2.253  0.3403 -0.1664  0.2024
 1287W        W 4806   1.965   0.480   9.328  0.0802 -0.1500 -0.1485
 1288W        W 4807   3.412   5.921  11.550  0.0727  0.3799 -0.1852
 1289W        W 4808   0.376   3.697   9.237 -0.1736  0.0403  0.2110
 1290W        W 4809   9.342   4.086   9.214 -0.0235  0.0004 -0.0706
 1291W        W 4810   4.919   1.359  11.244 -0.0545 -0.0745  0.0302
 1292W        W 4811   2.060   8.673   9.067  0.1201 -0.2815  0.1451
 1293W        W 4812   7.623   5.197  10.524  0.1308  0.2305  0.1888
 1294W        W 4813   5.100   0.324   3.314 -0.3537 -0.0563  0.1944
 1295W        W 4814   6.584   1.170   9.679 -0.2386 -0.0832  0.2080
 1296W        W 4815   0.236   6.500  10.572  0.0736  0.1323  0.0299
 1297W        W 4816   4.314   3.977   2.967  0.1452  0.0125 -0.1058
 1298W        W 4817   7.121   8.069  11.961  0.2237 -0.0789  0.2452
 1299W        W 4818   9.684   7.956   8.391 -0.1725 -0.0588 -0.0325
 1300W        W 4819   1.932   6.004  11.728  0.0885 -0.0772 -0.1325
 1301W        W 4820   6.763   7.464  12.326  0.1702  0.0326  0.2433
 1302W        W 4821   4.754   5.890  11.891 -0.0814 -0.1487 -0.3659
 1303W        W 4822   8.864   8.324   3.269 -0.0585  0.0403 -0.2000
 1304W        W 4823   9.184   2.833  12.272  0.0495 -0.5152 -0.0970
 1305W        W 4824   6.166   2.873   1.407  0.1637  0.2786 -0.1302
 1306W        W 4825   6.654   6.239   1.802 -0.0674 -0.0671  0.1553
 1307W        W 4826   9.301   2.163   3.442 -0.0247 -0.0984  0.0519
 1308W        W 4827   6.574   2.595   1.601 -0.1919  0.0274 -0.3069
 1309W        W 4828   4.215   4.961   2.468  0.2179 -0.1953 -0.2221
 1310W        W 4829   4.972   8.094   9.115 -0.0057  0.0975 -0.5773
 1311W        W 4830   0.444   0.834   2.450 -0.1053 -0.2751  0.4101
 1312W        W 4831   3.347   3.023   1.848 -0.4066  0.0515  0.1344
 1313W        W 4832   0.413   3.922   3.848 -0.2116  0.0389  0.1097
 1314W        W 4833   5.646   5.718   0.922  0.2442  0.0967  0.1882
 1315W        W 4834   6.416   5.351  11.047  0.2136 -0.0264 -0.0621
 1316W        W 4835   8.655   4.518   2.256  0.0240  0.1256 -0.0362
 1317W        W 4836   4.817   3.829  10.863 -0.0994  0.0492  0.0560
 1318W        W 4837   5.726   1.445  10.201  0.2863  0.1542 -0.0414
 1319W        W 4838   7.903   2.422   9.361 -0.1939  0.0438  0.0230
 1320W        W 4839   4.458   8.505   1.180 -0.4565  0.2181 -0.1441
 1321W        W 4840   2.479   7.864  10.587 -0.0322  0.0659  0.4461
 1322W        W 4841   6.615   7.703   0.112 -0.1227  0.2924 -0.1195
 1323W        W 4842   3.663   5.400   1.310 -0.0586  0.1301 -0.1739
 1324W        W 4843   1.782   4.736  12.021 -0.0707  0.0357  0.1088
 1325W        W 4844   7.023   9.669   1.737  0.1829  0.3201 -0.1296
 1326W        W 4845   5.681   6.033   0.238  0.3221  0.0914 -0.0870
 1327W        W 4846   2.404   3.602  11.868  0.1526 -0.0301  0.1501
 1328W        W 4847   6.536   3.049   3.488  0.2879  0.2344  0.0453
 1329W        W 4848   1.798   8.731  10.398  0.0405 -0.3274  0.2052
 1330W        W 4849   8.230   0.500   2.193 -0.1945  0.0257  0.1537
 1331W        W 4850   0.923   2.643   3.569  0.1802 -0.3059  0.0035
 1332W        W 4851   4.075   6.588   1.354  0.3230  0.1224  0.3856
 1333W        W 4852   3.109   6.596   4.064 -0.1136  0.1195 -0.1878
 1334W        W 4853   2.153   3.755  11.294 -0.2203  0.2777  0.2122
 1335W        W 4854   6.695   0.335   1.833  0.0955 -0.2477 -0.0230
 1336W        W 4855   0.191   7.059   3.371  0.3188  0.0701  0.3981
 1337W        W 4856   3.586   8.287   1.036  0.1088  0.0858 -0.0552
 1338W        W 4857   6.880   2.413   1.220  0.1066  0.2611 -0.1282
 1339W        W 4858   3.260   1.398   4.459 -0.2111  0.2703  0.1258
 1340W        W 4859   7.688   5.916   4.043 -0.2644  0.1274 -0.2072
 1341W        W 4860   4.048   3.463   2.974  0.1728 -0.3127  0.0319
 1342W        W 4861   8.167   8.502   3.473 -0.2244  0.0506  0.2322
 1343W        W 4862   2.475   1.467  11.856  0.0369 -0.3709  0.0428
 1344W        W 4863   1.778   1.220   1.926  0.0097  0.0648 -0.0810
 1345W        W 4864   2.498   4.466  10.011 -0.0759  0.1622  0.0802
 1346W        W 4865   1.927   3.491  10.309 -0.0050  0.2603 -0.2036
 1347W        W 4866   1.401   6.451  12.310 -0.1295 -0.0370 -0.0242
 1348W        W 4867   3.559   6.454   2.260 -0.0207  0.1643 -0.0920
 1349W        W 4868   6.689   6.841  10.742 -0.0200  0.0380 -0.1764
 1350W        W 4869   0.861   0.969  12.158  0.0334  0.1953 -0.1745
 1351W        W 4870   7.305   8.147  12.428  0.0144  0.1304  0.2317
 1352W        W 4871   6.632   1.762   3.151 -0.0006  0.0568 -0.1393
 1353W        W 4872   2.235   5.504   2.566 -0.1426  0.1874 -0.2545
 1354W        W 4873   6.982   1.310   8.870  0.0731  0.0178  0.2709
 1355W        W 4874   2.400   3.129  10.667  0.0087  0.1011  0.2068
 1356W        W 4875   0.096   4.817   2.799 -0.0376 -0.2572 -0.0799
 1357W        W 4876   4.046   4.399  12.105  0.1655  0.0053 -0.0244
 1358W        W 4877   1.977   6.370   2.277 -0.2775  0.1346 -0.0356
 1359W        W 4878   2.259   7.320  10.332 -0.2836  0.0484 -0.3652
 1360W        W 4879   3.950   1.814  11.059 -0.2563 -0.0276 -0.0808
 1361W        W 4880   4.259   1.310   1.442 -0.1265 -0.1707 -0.0380
 1362W        W 4881   2.947   3.776   0.809 -0.0950  0.2493  0.3169
 1363W        W 4882   4.689   5.563  11.034  0.4764 -0.1513  0.1997
 1364W        W 4883   5.674   1.831   3.049  0.0682  0.0220 -0.4120
 1365W        W 4884   8.122   9.622   1.865  0.1247  0.0995  0.1768
 1366W        W 4885   3.523   4.080   3.959 -0.4241 -0.0912 -0.0862
 1367W        W 4886   1.517   9.481   1.648 -0.2896  0.2497  0.2122
 1368W        W 4887   1.506   2.126   1.864  0.1073  0.0387 -0.1014
 1369W        W 4888   7.187   1.301  11.098  0.2446  0.3148  0.0456
 1370W        W 4889   6.121   4.849   4.046 -0.0122  0.0221 -0.0559
 1371W        W 4890   0.402   6.554  12.377 -0.2156 -0.2840 -0.1786
 1372W        W 4891   9.607   1.473   8.432 -0.3257  0.4173  0.1456
 1373W        W 4892   7.881   3.689   0.265 -0.4217  0.0686  0.2187
 1374W        W 4893   7.588   3.715   2.944 -0.0093 -0.0627 -0.4985
 1375W        W 4894   8.138   0.596  11.973  0.0876  0.2364  0.3273
 1376W        W 4895   7.736   5.256   9.167  0.0072 -0.0048 -0.1577
 1377W        W 4896   7.955   3.025   1.697 -0.0525 -0.0206 -0.1833
 1378W        W 4897   0.277   7.008   8.451 -0.0975 -0.0567  0.1701
 1379W        W 4898   8.155   5.176  11.194  0.1620  0.0473 -0.0330
 1380W        W 4899   4.912   3.443  10.477 -0.2273  0.0833  0.1551
 1381W        W 4900   5.763   3.081   3.587  0.0716 -0.0964  0.0139
 1382W        W 4901   6.340   6.610  10.391 -0.0307 -0.1197  0.0421
 1383W        W 4902   8.973   2.556   3.510  0.3509  0.1841 -0.3090
 1384W        W 4903   3.140   2.771   0.886 -0.3143  0.3600  0.2198
 1385W        W 4904   7.949   8.400  11.424  0.0227 -0.3595  0.1804
 1386W        W 4905   2.595   3.984   9.860 -0.0767  0.0140  0.2637
 1387W        W 4906   1.087   8.491  12.068 -0.2266  0.4586  0.2218
 1388W        W 4907   4.303   6.625  10.943  0.2101  0.1014  0.0738
 1389W        W 4908   3.773   7.818   1.522  0.2132 -0.0876 -0.1965
 1390W        W 4909   7.120   3.668  10.830 -0.1879  0.0425  0.0020
 1391W        W 4910   1.280   4.664   9.903 -0.2496  0.1870 -0.1056
 1392W        W 4911   9.335   2.464   8.635 -0.0353 -0.3032 -0.2012
 1393W        W 4912   6.292   6.538   2.387  0.1513  0.0410  0.3012
 1394W        W 4913   0.663   6.736  10.608  0.2891  0.0454 -0.0270
 1395W        W 4914   8.412   8.530  11.138  0.0536  0.4959  0.1356
 1396W        W 4915   8.713   8.876   0.415  0.1580  0.1918  0.1531
 1397W        W 4916   1.936   6.662   3.394 -0.0870 -0.0249 -0.0136
 1398W        W 4917   3.111   5.852  10.030 -0.0028  0.2333 -0.0972
 1399W        W 4918   8.967   8.943   2.940  0.1062 -0.2373  0.1022
 1400W        W 4919   5.703   7.350   1.900  0.2205  0.2205 -0.0285
 1401W        W 4920   3.877   8.956   9.182  0.2684 -0.0496  0.3014
 1402W        W 4921   2.097   2.444   8.483 -0.2259 -0.3404 -0.0846
 1403W        W 4922   4.004   3.847   8.741 -0.0945  0.0589  0.2444
 1404W        W 4923   5.541   5.920   3.609  0.2263  0.1797  0.2287
 1405W        W 4924   4.136   3.378   3.629 -0.1332 -0.2033  0.0714
 1406W        W 4925   3.011   3.960   2.264 -0.0908 -0.1667  0.1834
 1407W        W 4926   5.521   9.524  11.220  0.0629 -0.0626  0.3173
 1408W        W 4927   3.359   6.114   1.036 -0.1978 -0.0974  0.0079
 1409W        W 4928   3.981   4.049   4.827 -0.0298 -0.0510 -0.3005
 1410W        W 4929   1.462   8.031   8.892 -0.0307 -0.0852 -0.1463
 1411W        W 4930   2.592   8.614   2.901  0.0620 -0.2591 -0.1239
 1412W        W 4931   8.252   8.697   1.779  0.1522  0.1182 -0.0602
 1413W        W 4932   7.559   0.698   2.137 -0.1736 -0.1418  0.4190
 1414W        W 4933   7.786   4.551  11.243  0.1692 -0.0024  0.0524
 1415W        W 4934   1.731   6.467  11.598  0.3315 -0.0101  0.0189
 1416W        W 4935   8.535   1.771   4.704 -0.0403  0.0418 -0.1598
 1417W        W 4936   4.802   7.678  11.130  0.0107  0.1902  0.0170
 1418W        W 4937   1.046   6.507   9.804  0.2747  0.3102  0.0432
 1419W        W 4938   0.688   7.238   3.218  0.1341 -0.1517 -0.2707
 1420W        W 4939   0.327   5.488   2.067 -0.1234 -0.0737 -0.1359
 1421W        W 4940   8.200   4.030   1.357  0.0965  0.0713  0.1897
 1422W        W 4941   3.652   7.133   3.064 -0.0857 -0.0959  0.0674
 1423W        W 4942   0.150   1.908   8.857  0.4545  0.0304  0.1361
 1424W        W 4943   6.270   7.886  11.150  0.1281 -0.1090 -0.0175
 1425W        W 4944   5.735   3.956   2.763 -0.3136  0.1969  0.2861
 1426W        W 4945   4.781   4.505   4.291 -0.1846  0.1150 -0.2152
 1427W        W 4946   6.381   0.261   3.116 -0.1740 -0.2894  0.0765
 1428W        W 4947   8.343   0.863   1.846  0.1957  0.0660 -0.0075
 1429W        W 4948   9.676   6.243  11.636  0.0811  0.0634  0.0139
 1430W        W 4949   3.188   2.099  11.755 -0.3072 -0.3960 -0.0463
 1431W        W 4950   6.766   2.755   2.368  0.2463 -0.0243  0.0966
 1432W        W 4951   6.270   3.185  10.778  0.2978  0.0627  0.1234
 1433W        W 4952   2.195   7.869   9.693  0.0928  0.1846 -0.0106
 1434W        W 4953   8.096   4.485   2.272 -0.0350 -0.0777  0.0252
 1435W        W 4954   0.183   4.577   1.831  0.0136 -0.0492  0.0122
 1436W        W 4955   7.240   4.127   2.685 -0.0541  0.2768 -0.4627
 1437W        W 4956   3.196   7.581  11.086 -0.1267  0.0658  0.1766
 1438W        W 4957   2.608   5.485   0.788  0.3214  0.0213 -0.1854
 1439W        W 4958   7.569   2.417  10.301  0.0349 -0.1996 -0.0552
 1440W        W 4959   8.140   3.686   3.286  0.5228  0.2172 -0.2143
 1441W        W 4960   3.620   3.993   3.057 -0.3104 -0.1194  0.0764
 1442W        W 4961   4.992   2.510  12.586  0.2122 -0.1639  0.0162
 1443W        W 4962   3.797   0.611   2.011  0.2994 -0.0581 -0.0941
 1444W        W 4963   9.646   3.052  12.223  0.1174  0.0797 -0.0190
 1445W        W 4964   6.150   2.479   9.048 -0.0449  0.1114  0.0291
 1446W        W 4965   5.739   9.214  11.658  0.0575 -0.1853  0.0364
 1447W        W 4966   0.634   5.469   2.724  0.0792  0.0988 -0.0090
 1448W        W 4967   0.547   9.642   4.214 -0.0460 -0.1484 -0.4130
 1449W        W 4968   6.747   5.833  10.549  0.1006  0.0264 -0.1766
 1450W        W 4969   0.279   4.708  10.677  0.2541  0.0506  0.0822
 1451W        W 4970   0.643   5.067   8.822 -0.0580 -0.4034  0.0501
 1452W        W 4971   8.638   9.136   3.956  0.1949 -0.0101  0.0189
 1453W        W 4972   3.897   4.110   1.013 -0.0365  0.1328  0.2863
 1454W        W 4973   7.578   4.353   3.139 -0.1246 -0.1258  0.0921
 1455W        W 4974   8.744   0.573  12.031  0.1243  0.0650  0.3015
 1456W        W 4975   2.633   0.005  10.205  0.1457  0.1320 -0.1994
 1457W        W 4976   9.244   5.410  10.046  0.2542  0.0473 -0.1853
 1458W        W 4977   3.987   5.718   1.657  0.0083  0.0170 -0.0777
 1459W        W 4978   0.850   3.922  10.206 -0.0342  0.0367 -0.0505
 1460W        W 4979   8.284   0.647  12.445 -0.2703  0.1145  0.1130
 1461W        W 4980   1.333   3.142   3.148  0.0878 -0.0752  0.0617
 1462W        W 4981   8.508   8.090  10.269  0.0143  0.0812  0.2052
 1463W        W 4982   8.447   7.365   2.847  0.1085 -0.1507 -0.0424
 1464W        W 4983   4.506   1.756   9.709 -0.0677 -0.4025 -0.0436
 1465W        W 4984   2.072   9.566  11.123 -0.5461 -0.0077 -0.4605
 1466W        W 4985   0.001   4.086   2.755  0.0131 -0.3524  0.1729
 1467W        W 4986   1.471   9.392  11.968  0.1174  0.5002  0.0366
 1468W        W 4987   5.013   4.233   3.507  0.1047  0.0714  0.1114
 1469W        W 4988   9.031   2.866   9.986 -0.1811 -0.0099  0.0857
 1470W        W 4989   4.490   7.282  11.346 -0.2050 -0.0916 -0.0700
 1471W        W 4990   6.029   4.543  11.801 -0.0185  0.3212  0.0462
 1472W        W 4991   4.900   7.286   9.767  0.0164  0.1623 -0.1589
 1473W        W 4992   6.120   1.202   1.785 -0.0223  0.3402 -0.0032
 1474W        W 4993   0.039   3.126   7.848 -0.1287 -0.0101  0.2665
 1475W        W 4994   9.182   3.794   3.409 -0.3284 -0.1365 -0.2804
 1476W        W 4995   6.028   9.537   9.980  0.1188  0.0040  0.3079
 1477W        W 4996   5.274   0.934   3.762  0.0846  0.2815 -0.2235
 1478W        W 4997   4.501   4.416   7.961  0.3475 -0.0992  0.1296
 1479W        W 4998   7.002   4.665   1.560 -0.1234  0.0465  0.4205
 1480W        W 4999   1.698   2.366  10.832  0.1793 -0.0785  0.1680
 1481W        W 5000   6.284   6.498   9.904 -0.1202  0.3495  0.2948
 1482W        W 5001   7.228   2.132   1.990  0.1940  0.2202  0.0319
 1483W        W 5002   2.492   2.864  12.155 -0.1318 -0.1410 -0.0111
 1484W        W 5003   0.698   7.173  11.017  0.0118  0.2701 -0.1951
 1485W        W 5004   7.815   3.481  11.372  0.0112  0.3873 -0.1970
 1486W        W 5005   8.745   4.400  10.375  0.0598 -0.1742  0.1504
 1487W        W 5006   0.027   3.799  11.358 -0.0370  0.1015  0.2403
 1488W        W 5007   8.468   2.751   1.634  0.3437  0.2144  0.1871
 1489W        W 5008   8.653   3.761  10.273 -0.2557  0.0632  0.0740
 1490W        W 5009   9.347   0.353   1.955  0.1717  0.3105  0.1690
 1491W        W 5010   6.111   3.790   1.573 -0.0087  0.3652 -0.1805
 1492W        W 5011   8.049   1.566  11.547  0.2050  0.2467 -0.4316
 1493W        W 5012   0.449   7.905  11.291 -0.0091  0.1777  0.2197
 1494W        W 5013   2.631   4.722   2.142  0.1104  0.2223 -0.1879
 1495W        W 5014   6.399   0.651   0.409 -0.0576  0.0324  0.4741
 1496W        W 5015   0.945   4.659   0.928  0.0729  0.0660  0.0653
 1497W        W 5016   0.497   7.258   9.269 -0.0777 -0.0472 -0.0969
 1498W        W 5017   5.820   1.923   2.514  0.1813  0.3766 -0.1213
 1499W        W 5018   2.057   4.160   8.621  0.3336  0.1199  0.1797
 1500W        W 5019   2.921   9.069   0.906  0.1022  0.1062 -0.1890
 1501W        W 5020   9.429   8.288   1.361  0.2348  0.0404 -0.2570
 1502W        W 5021   7.862   1.731   1.661 -0.0354  0.0083 -0.2129
 1503W        W 5022   6.842   8.049  12.424  0.0641 -0.2498 -0.1282
 1504W        W 5023   5.218   3.881   2.057  0.1941  0.2382  0.0481
 1505W        W 5024   8.272   4.631  12.463  0.0918 -0.1690 -0.1143
 1506W        W 5025   0.112   3.225   8.382 -0.0474  0.1189  0.5395
 1507W        W 5026   0.776   7.907   9.095 -0.0097  0.0589 -0.0015
 1508W        W 5027   8.714   3.169   9.199 -0.2205 -0.0072 -0.1100
 1509W        W 5028   9.274   8.056   9.459  0.2368  0.0807  0.2736
 1510W        W 5029   0.941   2.662   1.617 -0.0804  0.0668  0.3776
 1511W        W 5030   8.198   7.678   3.688 -0.1233  0.0194 -0.0847
 1512W        W 5031   5.320   0.578  10.969 -0.0737 -0.2655  0.0499
 1513W        W 5032   7.200   2.970   2.583  0.1138 -0.1231 -0.0702
 1514W        W 5033   4.227   5.382   1.351 -0.1720  0.2312  0.1330
 1515W        W 5034   0.633   8.764   3.760 -0.0330 -0.2084  0.4493
 1516W        W 5035   0.542   2.682   9.922  0.1266  0.3291  0.0928
 1517W        W 5036   3.423   6.598  11.042  0.0652 -0.0038  0.1726
 1518W        W 5037   3.760   7.880   0.093  0.1759 -0.1218 -0.1555
 1519W        W 5038   1.901   0.519   3.797 -0.0537 -0.0183 -0.1410
 1520W        W 5039   4.130   1.991  10.603  0.0445 -0.5111  0.0163
 1521W        W 5040   4.134   0.956   2.727 -0.1444  0.0475 -0.1158
 1522W        W 5041   5.244   4.614  11.676  0.1202 -0.0650 -0.1982
 1523W        W 5042   1.845   0.665   4.259  0.1331  0.3151 -0.2291
 1524W        W 5043   0.317   8.525   3.413  0.0439  0.0742 -0.0583
 1525W        W 5044   6.855   9.511   1.260 -0.1097  0.0509 -0.1753
 1526W        W 5045   3.803   8.751   1.309  0.1313  0.1724 -0.1291
 1527W        W 5046   0.557   6.365   9.677  0.1501  0.1134 -0.0761
 1528W        W 5047   4.113   3.101   8.194  0.0610  0.0248 -0.0556
 1529W        W 5048   0.104   4.390   3.660  0.0023  0.2265  0.0989
 1530W        W 5049   4.705   4.868   2.655 -0.1561 -0.1998  0.1565
 1531W        W 5050   1.607   1.797   8.664  0.0493 -0.0138  0.1847
 1532W        W 5051   6.172   2.057   3.273  0.0754  0.2270 -0.1585
 1533W        W 5052   1.743   7.560   3.901 -0.4142  0.0416 -0.1355
 1534W        W 5053   5.715   4.680  10.484 -0.3751 -0.2923 -0.1460
 1535W        W 5054   8.070   2.356   0.369  0.0447 -0.1519 -0.1100
 1536W        W 5055   1.479   5.381  10.940 -0.1169  0.3289  0.0768
 1537W        W 5056   9.294   8.174   0.548  0.1244  0.3619  0.3074
 1538W        W 5057   1.705   3.972   4.336 -0.3105  0.0025 -0.2003
 1539W        W 5058   4.154   5.492   3.727  0.2642 -0.2191 -0.0878
 1540W        W 5059   7.590   2.150  11.756 -0.2031  0.1832 -0.1367
 1541W        W 5060   7.267   3.274   4.480 -0.0021 -0.3087 -0.4112
 1542W        W 5061   3.236   4.640  11.689 -0.0604  0.0921 -0.2348
 1543W        W 5062   7.218   4.368  12.598  0.1382 -0.1981  0.0717
 1544W        W 5063   0.467   6.938   8.914  0.1424  0.0501 -0.0684
 1545W        W 5064   8.906   0.486  11.554  0.1234  0.0790  0.0549
 1546W        W 5065   7.901   7.602   1.309 -0.0216 -0.2637 -0.0665
 1547W        W 5066   1.222   5.840  12.371 -0.1141 -0.1733 -0.0933
 1548W        W 5067   4.525   4.153  11.268  0.0511  0.1349 -0.0379
 1549W        W 5068   3.869   2.390   0.800 -0.3122  0.0113  0.1027
 1550W        W 5069   3.777   2.284  11.209 -0.0148 -0.1751  0.1692
 1551W        W 5070   0.103   0.501   2.404 -0.0246  0.1398 -0.0386
 1552W        W 5071   6.877   4.949  12.000 -0.1433  0.1851 -0.2307
 1553W        W 5072   3.438   1.742   0.078 -0.0464  0.0184 -0.2618
 1554W        W 5073   4.828   0.535   0.311  0.1426  0.3318 -0.2151
 1555W        W 5074   8.222   2.944   1.207  0.0628 -0.0181 -0.1739
 1556W        W 5075   2.256   6.863   3.100  0.2052  0.0507  0.1652
 1557W        W 5076   4.802   3.756  11.432  0.3092  0.3489  0.1655
 1558W        W 5077   4.831   1.909   2.456  0.0475 -0.0927 -0.0176
 1559W        W 5078   4.883   0.520   0.910  0.2670  0.0048 -0.0535
 1560W        W 5079   7.295   3.820  11.303 -0.0795  0.2249 -0.0303
 1561W        W 5080   4.012   5.694   3.269  0.0351  0.2428  0.0863
 1562W        W 5081   6.715   3.047   4.775 -0.1067 -0.1228 -0.0212
 1563W        W 5082   6.208   9.368   3.049  0.0793 -0.6200  0.0918
 1564W        W 5083   4.787   2.922   2.916 -0.0641  0.0729  0.1631
 1565W        W 5084   2.762   3.442   1.196 -0.1071  0.0941 -0.0418
 1566W        W 5085   9.338   8.186  11.835  0.2112 -0.1943 -0.0878
 1567W        W 5086   8.109   3.408   0.669  0.0558 -0.1747  0.1485
 1568W        W 5087   2.505   3.174   0.870  0.0608 -0.1480 -0.2072
 1569W        W 5088   3.607   2.413   3.637 -0.2499 -0.0540  0.0354
 1570W        W 5089   9.497   1.501   2.603 -0.0845  0.0073 -0.0851
 1571W        W 5090   9.385   1.524   8.943 -0.1161 -0.1035  0.0640
 1572W        W 5091   6.711   0.107   0.885 -0.3966 -0.0875  0.1410
 1573W        W 5092   8.405   9.122   0.981 -0.3985  0.0881 -0.0929
 1574W        W 5093   4.117   3.093   2.241  0.2803  0.0579  0.2667
 1575W        W 5094   4.055   9.279   8.786 -0.2164 -0.2800  0.2422
 1576W        W 5095   9.578   8.467   9.414  0.2872  0.0994 -0.1432
 1577W        W 5096   2.799   6.269   3.714  0.0351  0.0668 -0.0446
 1578W        W 5097   9.408   5.168   2.330 -0.0659 -0.1240  0.3368
 1579W        W 5098   8.536   8.588   2.140 -0.2990  0.2139 -0.1176
 1580W        W 5099   5.821   1.899  10.624  0.0140 -0.1499 -0.1737
 1581W        W 5100   8.418   9.456  10.438 -0.0528 -0.0477  0.1322
 1582W        W 5101   6.194   0.998   8.189  0.0373  0.3973  0.1673
 1583W        W 5102   8.310   8.485   0.294  0.1262 -0.0601 -0.1064
 1584W        W 5103   8.912   1.379  12.444  0.3181  0.0835 -0.1226
 1585W        W 5104   3.886   1.159   3.755 -0.1271  0.0995  0.2055
 1586W        W 5105   7.641   7.862   2.698  0.1835 -0.2398  0.0258
 1587W        W 5106   8.842   3.730   9.804 -0.0160  0.3618 -0.1050
 1588W        W 5107   1.761   6.618   4.164  0.0021  0.1683  0.0882
 1589W        W 5108   6.473   5.080   3.431  0.1849 -0.1428  0.1377
 1590W        W 5109   2.030   9.342   3.299 -0.0263  0.1143 -0.3288
 1591W        W 5110   7.870   5.633   3.041  0.3101 -0.0942 -0.1523
 1592W        W 5111   5.418   1.422   3.526 -0.0329 -0.0095  0.1445
 1593W        W 5112   8.121   6.392  10.269  0.0422  0.1039 -0.0388
 1594W        W 5113   9.194   9.116   2.080 -0.0059 -0.0282  0.2474
 1595W        W 5114   5.878   8.237  11.412  0.0553 -0.0283 -0.0015
 1596W        W 5115   5.532   6.106   2.685 -0.1995  0.1617 -0.0363
 1597W        W 5116   1.953   9.579   2.634  0.1631  0.1401  0.4582
 1598W        W 5117   3.249   2.811   3.409  0.1661 -0.2398  0.1498
 1599W        W 5118   6.012   1.265   3.594  0.3502 -0.0731 -0.1646
 1600W        W 5119   7.833   7.139   1.104  0.0498 -0.1353 -0.0145
 1601W        W 5120   7.143   4.026   2.070  0.3476  0.2973  0.1753
 1602W        W 5121   7.109   0.309   9.837 -0.2675 -0.0300  0.0459
 1603W        W 5122   9.412   0.200   3.218  0.0134 -0.1595  0.0399
 1604W        W 5123   0.237   8.795   9.346  0.1047  0.2281 -0.1021
 1605W        W 5124   0.455   5.584   1.117  0.1588  0.0062  0.0039
 1606W        W 5125   8.816   8.165   9.677  0.0870 -0.0011 -0.1655
 1607W        W 5126   6.966   5.442  11.304 -0.1824 -0.0266 -0.5199
 1608W        W 5127   8.572   9.251   3.213 -0.1260  0.0785  0.0860
 1609W        W 5128   5.157   2.619  12.080  0.0823  0.2108 -0.1766
 1610W        W 5129   2.114   9.169   2.257 -0.0331  0.3253 -0.1212
 1611W        W 5130   4.701   8.045   0.466  0.1939 -0.2432 -0.0661
 1612W        W 5131   7.752   1.404  11.995  0.1527 -0.2429 -0.1415
 1613W        W 5132   8.086   4.167   0.037  0.0714  0.1275  0.2780
 1614W        W 5133   5.209   0.200  11.449  0.5008 -0.1736  0.3517
 1615W        W 5134   4.541   3.538   1.458 -0.0080  0.0813 -0.0230
 1616W        W 5135   6.682   7.121   2.793 -0.2146 -0.0230  0.1541
 1617W        W 5136   1.637   4.112   2.558 -0.1782  0.4058 -0.2355
 1618W        W 5137   7.265   2.081   8.717  0.0293 -0.0645  0.0662
 1619W        W 5138   5.537   7.179   1.407  0.0121 -0.1348 -0.0879
 1620W        W 5139   3.177   7.673   9.899 -0.1135 -0.0629 -0.2333
 1621W        W 5140   6.371   9.134  11.490 -0.1297  0.0782 -0.0093
 1622W        W 5141   0.543   9.122   8.504  0.0237  0.0302  0.3914
 1623W        W 5142   2.874   4.917  12.244 -0.3503  0.0464 -0.3014
 1624W        W 5143   6.191   1.643  11.578  0.1323  0.0060  0.0682
 1625W        W 5144   5.523   4.446   2.739  0.0750  0.0046  0.0514
 1626W        W 5145   0.084   7.739  11.757 -0.1424 -0.1810  0.0370
 1627W        W 5146   1.978   7.456   1.454  0.2854 -0.0569  0.4059
 1628W        W 5147   2.093   7.222  12.256 -0.0151  0.1745 -0.0506
 1629W        W 5148   2.888   1.901  10.373  0.0859  0.1314  0.3570
 1630W        W 5149   5.085   3.856   9.575 -0.1879 -0.2697  0.1244
 1631W        W 5150   0.833   3.539   0.563  0.0359 -0.3597  0.2125
 1632W        W 5151   6.736   0.589  11.062 -0.1408 -0.1640  0.0934
 1633W        W 5152   1.486   4.058  10.990  0.0151 -0.0718 -0.0975
 1634W        W 5153   2.622   2.723   2.599  0.1056  0.1481  0.1048
 1635W        W 5154   9.171   8.960  10.700  0.0900  0.0528  0.0429
 1636W        W 5155   2.922   1.655   0.262 -0.2711  0.2831  0.1238
 1637W        W 5156   1.881   4.772   1.161  0.1358 -0.0163 -0.1977
 1638W        W 5157   0.211   5.901  11.360 -0.1158  0.0621  0.1514
 1639W        W 5158   2.435   2.858   4.027 -0.2663  0.0423 -0.3501
 1640W        W 5159   2.200   2.495  10.451  0.0473 -0.0879  0.1225
 1641W        W 5160   3.089   9.248   2.422  0.0269  0.1949 -0.1725
 1642W        W 5161   9.285   3.762  11.892  0.1625  0.0886  0.0862
 1643W        W 5162   1.848   5.507  10.147  0.0570 -0.1241 -0.0296
 1644W        W 5163   9.181   2.574   0.461 -0.0771  0.1795  0.1400
 1645W        W 5164   5.434   1.405   1.177  0.1837 -0.3107  0.1631
 1646W        W 5165   5.928   2.644  11.626  0.0124  0.0442  0.0245
 1647W        W 5166   3.533   1.556   4.855  0.2135 -0.0004  0.1841
 1648W        W 5167   1.861   2.485   1.995  0.1358  0.0099 -0.2127
 1649W        W 5168   6.935   8.523   3.191 -0.1951 -0.0666 -0.0000
 1650W        W 5169   9.024   4.967  12.510  0.2615 -0.0652  0.0057
 1651W        W 5170   4.932   6.422  11.471  0.1657 -0.0631 -0.0343
 1652W        W 5171   6.319   1.614  10.523 -0.0703 -0.0237 -0.0093
 1653W        W 5172   8.510   7.047   9.483 -0.0103 -0.1593 -0.0349
 1654W        W 5173   3.729   1.560   1.571 -0.2589 -0.0368  0.4042
 1655W        W 5174   2.142   8.948   3.591 -0.2790 -0.0196  0.0616
 1656W        W 5175   5.208   8.790   2.462 -0.1069 -0.0886 -0.1968
 1657W        W 5176   0.089   4.634  11.696 -0.1850 -0.1634  0.0177
 1658W        W 5177   7.507   9.013  12.337 -0.0089  0.4330  0.0227
 1659W        W 5178   1.040   8.445  11.538 -0.0081  0.1455  0.3094
 1660W        W 5179   9.616   4.051  10.150  0.0824  0.1622 -0.0025
 1661W        W 5180   5.378   2.409   0.280  0.2088  0.2226 -0.0932
 1662W        W 5181   5.989   3.832   3.939 -0.2815 -0.1211  0.1461
 1663W        W 5182   2.475   9.461   9.158 -0.0621 -0.0453  0.2467
 1664W        W 5183   6.107   4.097   2.064 -0.2087 -0.2167 -0.1985
 1665W        W 5184   3.869   3.407   9.586  0.2032  0.2141  0.0049
 1666W        W 5185   1.126   6.163  12.009  0.1794  0.4338 -0.3370
 1667W        W 5186   0.688   4.627   3.082 -0.0562  0.0349  0.0290
 1668W        W 5187   4.329   9.588  11.516  0.1407  0.0491  0.0541
 1669W        W 5188   5.518   1.671   9.796  0.0278 -0.0947 -0.1833
 1670W        W 5189   9.674   5.373   1.384  0.0421 -0.0674  0.0609
 1671W        W 5190   2.986   8.538   0.996  0.1130 -0.2876 -0.0501
 1672W        W 5191   2.205   7.052   9.403 -0.0055  0.0577  0.4585
 1673W        W 5192   2.675   8.705  10.184 -0.2392  0.0982  0.0905
 1674W        W 5193   2.970   5.195   3.713  0.1544  0.0460 -0.2643
 1675W        W 5194   7.497   8.118   9.731 -0.2022  0.2349 -0.1324
 1676W        W 5195   5.945   8.665   0.731  0.1878  0.2916 -0.1549
 1677W        W 5196   2.448   9.216  10.877 -0.2539 -0.2164 -0.0844
 1678W        W 5197   0.091   6.499   0.158  0.3931 -0.1083  0.0511
 1679W        W 5198   6.735   1.087  11.040 -0.0384  0.1237 -0.0530
 1680W        W 5199   1.785   4.302   9.491 -0.2397  0.1266 -0.1088
 1681W        W 5200   1.077   5.112  12.020  0.1075  0.1200 -0.1025
 1682W        W 5201   4.851   5.172  12.402  0.0677  0.1813  0.1625
 1683W        W 5202   7.699   0.153   3.080 -0.3024  0.3416  0.1582
 1684W        W 5203   1.659   4.560  11.205 -0.0467 -0.0624  0.1320
 1685W        W 5204   0.885   4.685   9.108  0.1136  0.1044 -0.3080
 1686W        W 5205   7.943   8.966   9.253 -0.1445  0.0610  0.1833
 1687W        W 5206   1.937   7.777  11.308 -0.1583  0.2545  0.4659
 1688W        W 5207   3.710   5.934   2.554  0.0091 -0.1212 -0.2247
 1689W        W 5208   5.691   5.711   3.117  0.2787  0.1727  0.0196
 1690W        W 5209   4.586   2.314  11.735  0.2312 -0.0399 -0.0954
 1691W        W 5210   8.390   2.848  11.931  0.1891 -0.1019  0.0440
 1692W        W 5211   8.214   6.009   3.072 -0.0967  0.0742  0.3371
 1693W        W 5212   1.349   8.164   2.597 -0.0739  0.3615 -0.1093
 1694W        W 5213   5.293   1.522  11.528 -0.0051 -0.1791 -0.2780
 1695W        W 5214   2.496   9.004   9.801 -0.0052 -0.2952 -0.0646
 1696W        W 5215   5.046   5.988  10.997 -0.2510 -0.4418  0.4447
 1697W        W 5216   1.399   0.800   1.962 -0.0506 -0.0395  0.0964
 1698W        W 5217   5.277   4.196   9.896 -0.3299  0.3312 -0.0896
 1699W        W 5218   7.203   3.745   1.645  0.1910  0.2635 -0.0415
 1700W        W 5219   2.129   2.186   4.185  0.1972 -0.0156 -0.0976
 1701W        W 5220   2.562   0.910  10.006 -0.1178  0.0317  0.2282
 1702W        W 5221   7.954   8.280   0.646 -0.1284  0.1192 -0.0045
 1703W        W 5222   1.837   7.387   2.817  0.0857 -0.1663 -0.1967
 1704W        W 5223   6.723   2.742  10.747  0.3262  0.0896  0.0948
 1705W        W 5224   7.363   4.592   3.994 -0.2960  0.2299  0.0938
 1706W        W 5225   1.110   3.321   8.604  0.0776 -0.1844  0.0158
 1707W        W 5226   2.528   3.015   1.309 -0.0802  0.0926 -0.1430
 1708W        W 5227   9.067   8.087   2.032 -0.1050 -0.0638 -0.1002
 1709W        W 5228   6.640   3.904  10.684 -0.0935  0.2391  0.1280
 1710W        W 5229   0.211   9.612   1.252 -0.0587  0.2663 -0.0237
 1711W        W 5230   8.579   7.948  12.441  0.2220  0.3037 -0.0256
 1712W        W 5231   8.464   1.673   2.662 -0.2572  0.0543 -0.1337
 1713W        W 5232   9.519   0.111   1.537  0.0385  0.1203  0.0655
 1714W        W 5233   4.309   2.706  10.743 -0.1290 -0.1869 -0.2711
 1715W        W 5234   0.362   8.637   1.739 -0.1955  0.1165  0.1903
 1716W        W 5235   5.123   0.050   2.110  0.3911  0.3688 -0.0545
 1717W        W 5236   6.332   0.357  11.625  0.1890  0.0189 -0.2545
 1718W        W 5237   0.610   6.581   0.221  0.1337  0.1771  0.0447
 1719W        W 5238   7.640   3.810   2.459  0.0654 -0.0077 -0.0074
 1720W        W 5239   4.693   5.825   3.547  0.0098 -0.0070 -0.0445
 1721W        W 5240   4.442   6.025   1.875  0.0214 -0.1197  0.4494
 1722W        W 5241   8.583   4.626   8.472  0.2472 -0.2616  0.1623
 1723W        W 5242   7.665   5.212   2.791  0.1675 -0.3550  0.0470
 1724W        W 5243   5.378   9.239  12.497  0.1417  0.0400  0.1964
 1725W        W 5244   7.195   0.837   3.475 -0.1836 -0.2825 -0.2241
 1726W        W 5245   1.275   2.633  10.222 -0.0351  0.2944 -0.0445
 1727W        W 5246   3.905   0.755   3.996  0.0470  0.1057 -0.3583
 1728W        W 5247   1.370   1.875   3.755  0.0912  0.0785  0.1017
 1729W        W 5248   0.743   9.444   1.352  0.0349  0.1497 -0.4767
 1730W        W 5249   1.275   1.040   9.324 -0.0395 -0.1376  0.0267
 1731W        W 5250   1.820   5.302   1.113 -0.2863 -0.0594 -0.1421
 1732W        W 5251   4.628   3.840  10.364 -0.0604 -0.0702  0.0286
 1733W        W 5252   0.298   6.513   1.874  0.1377 -0.0135  0.4097
 1734W        W 5253   8.922   6.989   2.356 -0.0598  0.0669  0.2993
 1735W        W 5254   7.126   6.432   0.991  0.0868 -0.0558 -0.3145
 1736W        W 5255   7.995   5.452   8.750  0.1497  0.3566  0.0214
 1737W        W 5256   0.523   6.493   9.207  0.0627 -0.1734 -0.1712
 1738W        W 5257   6.599   0.855   1.058 -0.2373  0.1046  0.1352
 1739W        W 5258   2.067   0.255   8.910  0.1495 -0.0709 -0.2124
 1740W        W 5259   2.063   9.013  11.149  0.1522  0.1682  0.0582
 1741W        W 5260   2.613   8.332  10.560  0.0710  0.0918  0.0597
 1742W        W 5261   1.729   1.608   1.619  0.1394 -0.0390 -0.0129
 1743W        W 5262   6.756   3.792   9.453 -0.3632 -0.0677 -0.0466
 1744W        W 5263   7.905   5.829   1.203  0.1262 -0.0749  0.1768
 1745W        W 5264   7.840   2.819   3.089 -0.0221  0.1386 -0.1682
 1746W        W 5265   0.713   0.369   8.523  0.1465 -0.2215  0.2908
 1747W        W 5266   0.801   8.854  11.698 -0.0067  0.1153 -0.0495
 1748W        W 5267   7.777   3.150   0.260 -0.0519 -0.2525 -0.2575
 1749W        W 5268   5.205   3.377   0.349 -0.1664 -0.0925  0.1869
 1750W        W 5269   7.320   6.769  12.124 -0.2285  0.3045 -0.1154
 1751W        W 5270   7.767   5.052   3.816 -0.0635  0.1342 -0.1691
 1752W        W 5271   1.967   9.283   9.680 -0.1750  0.3521  0.1730
 1753W        W 5272   7.576   1.625   2.646  0.0553  0.0030 -0.1310
 1754W        W 5273   8.076   5.274  12.183  0.0520 -0.0383 -0.0302
 1755W        W 5274   4.959   7.571   3.551  0.0372  0.1776 -0.2026
 1756W        W 5275   2.720   5.930   9.459  0.0197 -0.1380  0.3099
 1757W        W 5276   8.359   6.633   9.209  0.0965  0.0505  0.0231
 1758W        W 5277   3.470   7.727   8.488  0.1870  0.1109 -0.0805
 1759W        W 5278   2.044   1.808   1.244  0.1077  0.0115  0.3109
 1760W        W 5279   6.379   4.597   1.036 -0.1618 -0.0135 -0.1177
 1761W        W 5280   4.589   4.119   1.140 -0.1040  0.3415 -0.2489
 1762W        W 5281   2.999   0.750   9.748  0.0139  0.3186 -0.0312
 1763W        W 5282   0.221   0.846   3.956 -0.2772 -0.0252 -0.2747
 1764W        W 5283   9.057   2.590  11.818  0.2227  0.2076  0.0548
 1765W        W 5284   3.762   0.589  11.470  0.2366 -0.0996  0.1233
 1766W        W 5285   4.619   0.006   9.327 -0.0833  0.0348 -0.0514
 1767W        W 5286   0.691   5.833  12.268  0.0993  0.0844  0.0222
 1768W        W 5287   9.263   8.472  11.388  0.1010 -0.1640 -0.1072
 1769W        W 5288   5.991   7.398   1.478  0.1319 -0.1437 -0.1571
 1770W        W 5289   9.074   5.272  10.539 -0.0151  0.1022 -0.1465
 1771W        W 5290   8.236   9.127  11.157  0.3110 -0.0173  0.1450
 1772W        W 5291   8.464   2.781   9.046 -0.0763 -0.0679 -0.0069
 1773W        W 5292   8.280   5.555  12.585  0.1462  0.1445 -0.1168
 1774W        W 5293   2.925   0.477   1.955 -0.1249  0.0978  0.3469
 1775W        W 5294   4.997   0.596   2.826  0.1025 -0.1284  0.0043
 1776W        W 5295   5.479   8.299   0.071 -0.1498  0.0618  0.1198
 1777W        W 5296   0.541   2.249   2.700  0.1519  0.1053 -0.0927
 1778W        W 5297   0.213   6.643  11.877 -0.0686  0.0457 -0.4680
 1779W        W 5298   0.323   1.335   9.907 -0.1285  0.1240  0.2589
 1780W        W 5299   3.862   9.369  11.574  0.0133  0.0233 -0.0954
 1781W        W 5300   4.694   0.595  10.200 -0.1374  0.0135  0.0614
 1782W        W 5301   6.587   5.539   3.680 -0.0871  0.2113  0.1991
 1783W        W 5302   0.293   8.542   1.095  0.3279  0.0679 -0.1666
 1784W        W 5303   0.533   1.280  12.596 -0.1896 -0.0898 -0.1334
 1785W        W 5304   5.427   3.850   0.365  0.1276 -0.0171 -0.2884
 1786W        W 5305   1.372   0.968   0.526  0.0659  0.0188  0.1657
 1787W        W 5306   0.060   7.420  12.470  0.0348  0.0973 -0.0426
 1788W        W 5307   7.782   8.979   9.777  0.0477  0.1764 -0.2445
 1789W        W 5308   2.075   0.413   0.582 -0.0815  0.0108 -0.0362
 1790W        W 5309   1.050   9.440  12.600  0.0083  0.2297  0.2371
 1791W        W 5310   6.121   3.461   8.732  0.2107  0.0171  0.2779
 1792W        W 5311   2.556   8.046   3.358  0.1191  0.0485  0.1094
 1793W        W 5312   3.510   8.969  11.608 -0.0579  0.1463 -0.0968
 1794W        W 5313   1.710   2.919   0.307 -0.1572 -0.0294 -0.1218
 1795W        W 5314   0.196   0.731  10.794 -0.2179 -0.2365  0.1079
 1796W        W 5315   1.903   0.760   2.105  0.2465  0.0581  0.1439
 1797W        W 5316   4.441   1.873   4.297  0.2357 -0.0163  0.2983
 1798W        W 5317   5.818   6.179  11.448  0.0688  0.2097 -0.0395
 1799W        W 5318   6.835   3.108  10.349 -0.0537  0.0812  0.0119
 1800W        W 5319   3.665   5.649   9.790 -0.0624 -0.0200  0.2316
 1801W        W 5320   8.365   4.656  10.151  0.1777  0.1053  0.0400
 1802W        W 5321   0.884   8.109   2.788  0.3060 -0.0525 -0.1077
 1803W        W 5322   6.058   1.057   3.069  0.0396  0.2791 -0.0087
 1804W        W 5323   8.084   3.059   2.694 -0.1860  0.3211  0.1257
 1805W        W 5324   0.942   5.145  11.513 -0.1921 -0.1485  0.2239
 1806W        W 5325   7.185   8.109  10.779  0.0712  0.1061  0.0034
 1807W        W 5326   2.232   8.638   8.451 -0.1828  0.2333  0.1065
 1808W        W 5327   7.844   0.248   2.254 -0.0278 -0.1485 -0.3379
 1809W        W 5328   7.290   1.781  11.079  0.1466  0.0362  0.1045
 1810W        W 5329   7.650   6.202  10.840  0.1161 -0.1307 -0.3501
 1811W        W 5330   8.048   2.077  11.511  0.1158 -0.1737 -0.1971
 1812W        W 5331   8.938   2.126   0.427 -0.0804 -0.0902  0.0574
 1813W        W 5332   4.282   2.712   2.476 -0.3239 -0.1116  0.0093
 1814W        W 5333   2.933   1.793   3.256 -0.0753 -0.3193  0.0069
 1815W        W 5334   2.463   4.097  11.037  0.0359  0.1354  0.1699
 1816W        W 5335   1.556   2.441   0.518  0.1191  0.0418 -0.1368
 1817W        W 5336   1.844   0.857  10.220  0.0826 -0.1311 -0.0659
 1818W        W 5337   2.105   4.340   9.105 -0.2061 -0.1254  0.0156
 1819W        W 5338   3.185   9.675  12.232 -0.1716 -0.1187  0.0437
 1820W        W 5339   1.301   6.934   1.980 -0.3048  0.0692  0.1218
 1821W        W 5340   7.940   7.968   3.348  0.3159 -0.0237  0.3115
 1822W        W 5341   3.468   2.004   3.297  0.0254  0.3010 -0.1764
 1823W        W 5342   1.493   5.979   3.568  0.0121  0.0705 -0.2706
 1824W        W 5343   2.266   9.483   1.874  0.1340 -0.1134 -0.1396
 1825W        W 5344   2.827   4.697   4.431 -0.0968  0.0681  0.0293
 1826W        W 5345   6.370   0.467   0.911 -0.0380  0.1445 -0.0227
 1827W        W 5346   9.652   0.997   1.498  0.0744  0.5581  0.0308
 1828W        W 5347   1.879   8.327   9.725 -0.0576  0.1150  0.1813
 1829W        W 5348   8.356   2.618  11.246 -0.2716 -0.3401  0.2445
 1830W        W 5349   1.685   2.117   0.178 -0.3054  0.2778 -0.1692
 1831W        W 5350   2.272   1.388  12.484 -0.0679  0.2550 -0.2164
 1832W        W 5351   0.541   1.631  11.627  0.2622  0.2294 -0.0365
 1833W        W 5352   6.737   3.767   3.050 -0.0354 -0.1117 -0.1756
 1834W        W 5353   3.666   0.931   8.924  0.1497 -0.1936 -0.2934
 1835W        W 5354   8.512   8.178  10.815 -0.0358  0.0798 -0.1620
 1836W        W 5355   4.922   0.591   2.346  0.0090 -0.1301 -0.0765
 1837W        W 5356   9.193   5.647   2.666 -0.1359 -0.2092  0.1673
 1838W        W 5357   7.157   1.212   0.579  0.1539 -0.1686  0.1945
 1839W        W 5358   3.288   6.743  10.037 -0.0025 -0.1435 -0.1495
 1840W        W 5359   3.108   9.223   8.111  0.1622  0.2523 -0.1338
 1841W        W 5360   0.602   4.358  10.350  0.2101  0.4769 -0.1733
 1842W        W 5361   5.266   5.024   0.092  0.0846  0.0748 -0.1246
 1843W        W 5362   9.222   6.013   9.422 -0.0967 -0.1250  0.4251
 1844W        W 5363   3.435   5.102   3.999 -0.0564 -0.0338 -0.1672
 1845W        W 5364   0.896   3.038  10.705  0.0644  0.1882 -0.0160
 1846W        W 5365   3.146   3.814   1.314  0.2238  0.1696 -0.0088
 1847W        W 5366   8.710   7.029   3.110  0.0571 -0.0690  0.3766
 1848W        W 5367   7.230   0.643  11.197 -0.1143 -0.2742 -0.1253
 1849W        W 5368   2.359   5.314  10.240  0.1396  0.1920 -0.1411
 1850W        W 5369   2.243   1.099  11.040  0.1106  0.1494  0.0277
 1851W        W 5370   2.763   1.856  11.382 -0.2631 -0.1290  0.0129
 1852W        W 5371   7.771   2.442   0.910 -0.1847 -0.4043 -0.0310
 1853W        W 5372   3.592   7.311   1.878  0.2994  0.0328 -0.0498
 1854W        W 5373   5.285   0.308   9.534  0.1588 -0.1705  0.0812
 1855W        W 5374   0.843   8.673   2.726 -0.0431 -0.3550 -0.1061
 1856W        W 5375   6.193   3.202   2.277 -0.1380 -0.2794  0.0190
 1857W        W 5376   3.723   7.776   9.798  0.0136 -0.2819  0.0181
 1858W        W 5377   5.258   0.055   1.613 -0.1534  0.1384 -0.1213
 1859W        W 5378   3.515   3.302   0.022 -0.0317 -0.0925  0.1519
 1860W        W 5379   8.425   6.735  11.550  0.0299  0.1279 -0.1444
 1861W        W 5380   3.312   8.153   3.764  0.0136 -0.0967 -0.1508
 1862W        W 5381   5.042   1.635  11.974 -0.0580  0.1736  0.3250
 1863W        W 5382   0.457   5.621  10.295 -0.0633 -0.1249  0.0142
 1864W        W 5383   8.437   8.143   0.772  0.2143 -0.3543 -0.2484
 1865W        W 5384   1.327   6.107  10.035  0.1077 -0.0300  0.0643
 1866W        W 5385   7.514   1.749   2.062  0.2091 -0.0941 -0.4091
 1867W        W 5386   5.331   3.995  11.897 -0.0991  0.0673 -0.2159
 1868W        W 5387   6.328   3.634  11.147 -0.1190  0.4977  0.1998
 1869W        W 5388   7.098   1.301   9.866  0.1609  0.0440  0.0855
 1870W        W 5389   5.758   7.656   3.096 -0.1322 -0.2806  0.2866
 1871W        W 5390   4.237   8.105   9.669 -0.0038 -0.2513 -0.0784
 1872W        W 5391   7.952   6.983   9.535  0.2450 -0.0813 -0.2487
 1873W        W 5392   4.302   0.186   9.660 -0.1984 -0.2195 -0.4731
 1874W        W 5393   1.430   4.497   9.226  0.1108  0.1863  0.0789
 1875W        W 5394   9.337   6.787   1.519  0.0877  0.1281 -0.1025
 1876W        W 5395   2.428   1.679   0.216  0.2259 -0.0962  0.3408
 1877W        W 5396   8.276   1.496  11.975  0.1419  0.1902 -0.1815
 1878W        W 5397   9.203   7.128  11.517  0.0977  0.0728 -0.2215
 1879W        W 5398   8.844   6.138   0.123  0.0360 -0.1909 -0.2966
 1880W        W 5399   7.647   7.976  11.250  0.4882 -0.3878  0.2067
 1881W        W 5400   5.505   6.170   9.062 -0.1734 -0.0789  0.0923
 1882W        W 5401   7.810   7.089   3.622 -0.0432 -0.0148 -0.0590
 1883W        W 5402   5.628   5.859   2.231 -0.0112  0.1059 -0.3729
 1884W        W 5403   7.626   0.402   9.162 -0.0844  0.0675 -0.3178
 1885W        W 5404   6.272   1.953   2.803 -0.3496  0.1275 -0.0224
 1886W        W 5405   8.111   9.401   8.021  0.0773  0.3122 -0.1015
 1887W        W 5406   8.930   9.012   2.491 -0.1763  0.0393  0.2934
 1888W        W 5407   0.027   7.841  10.938 -0.1000 -0.0868 -0.0990
 1889W        W 5408   2.608   3.830   9.041  0.1187  0.0699 -0.1322
 1890W        W 5409   6.643   5.127  12.378  0.3291  0.0093  0.0064
 1891W        W 5410   9.204   4.472   9.992  0.0537 -0.4466 -0.1261
 1892W        W 5411   6.890   0.593   0.667  0.0151 -0.2031 -0.4664
 1893W        W 5412   1.876   2.885  11.191 -0.2309  0.0613 -0.0742
 1894W        W 5413   8.757   3.901  11.094 -0.1683  0.3555  0.0972
 1895W        W 5414   5.582   8.803   0.222 -0.2084 -0.3833  0.1646
 1896W        W 5415   3.888   2.107   1.734  0.2881 -0.0467  0.3483
 1897W        W 5416   0.231   5.308   2.510  0.0129  0.0021  0.0809
 1898W        W 5417   6.004   1.650   1.890  0.1405 -0.2261 -0.2059
 1899W        W 5418   1.891   1.613   4.180  0.1020 -0.2350 -0.0635
 1900W        W 5419   8.643   7.679   9.750 -0.2345  0.1095  0.0045
 1901W        W 5420   3.412   2.495  11.545 -0.4397 -0.0511 -0.0144
 1902W        W 5421   5.609   2.393  11.933 -0.0067 -0.3321  0.1891
 1903W        W 5422   2.560   0.164   1.811  0.0872 -0.1993  0.1943
 1904W        W 5423   8.033   7.815   0.807 -0.0280  0.2796 -0.3393
 1905W        W 5424   3.197   0.019  11.011 -0.0976  0.2971 -0.0181
 1906W        W 5425   9.164   7.996   8.635 -0.2775  0.2494 -0.0462
 1907W        W 5426   4.161   8.775   2.691 -0.1127  0.2777  0.0908
 1908W        W 5427   5.736   0.110  10.244 -0.0834  0.0140 -0.2270
 1909W        W 5428   9.174   8.143  10.056  0.2177  0.2084 -0.0906
 1910W        W 5429   7.238   7.451  11.477  0.3107  0.1854 -0.0773
 1911W        W 5430   1.396   6.045   5.243 -0.2273  0.2258 -0.2563
 1912W        W 5431   8.420   0.402   1.619 -0.2368  0.2368  0.2683
 1913W        W 5432   9.462   6.345  10.034  0.0579  0.1877  0.3673
 1914W        W 5433   8.549   0.930  11.148 -0.1626  0.1836  0.3243
 1915W        W 5434   7.071   0.352  10.798 -0.1008 -0.1062 -0.0612
 1916W        W 5435   5.269   2.459  10.332 -0.0194 -0.2377 -0.0087
 1917W        W 5436   9.632   3.645   0.521  0.3077 -0.2356  0.0000
 1918W        W 5437   4.619   8.943   2.974  0.0893  0.1412  0.0824
 1919W        W 5438   6.876   5.449   2.531  0.2275  0.0186 -0.2444
 1920W        W 5439   5.505   7.144  10.799 -0.3293 -0.0845 -0.0628
 1921W        W 5440   1.469   5.057   2.033 -0.1296  0.0598 -0.0398
 1922W        W 5441   7.464   5.176   2.272  0.2158 -0.1748  0.3557
 1923W        W 5442   7.134   3.589   2.758  0.1006  0.1520 -0.0893
 1924W        W 5443   3.229   1.021  10.840  0.1597 -0.1214 -0.2773
 1925W        W 5444   2.952   0.826   8.311 -0.0139 -0.1296 -0.2804
 1926W        W 5445   5.921   5.355  11.948 -0.3294 -0.0896  0.0277
 1927W        W 5446   8.737   7.237   1.607 -0.1766  0.0181  0.2044
 1928W        W 5447   2.090   6.521   9.555 -0.1351  0.1663  0.0687
 1929W        W 5448   1.164   0.946  11.553 -0.1147 -0.0314 -0.1263
 1930W        W 5449   1.703   3.959  11.401 -0.1522 -0.1095  0.0766
 1931W        W 5450   8.061   3.216  10.687  0.0955 -0.1021  0.1237
 1932W        W 5451   0.071   4.035  11.878 -0.2730  0.2458  0.1441
 1933W        W 5452   5.856   5.811  12.238 -0.2217  0.0489 -0.0255
 1934W        W 5453   7.332   6.260  11.281 -0.0113  0.1103 -0.0983
 1935W        W 5454   8.862   3.895   0.176  0.2648 -0.0736  0.1037
 1936W        W 5455   3.995   3.388   9.073 -0.1953  0.0287  0.2772
 1937W        W 5456   1.588   6.860   0.578  0.1011  0.1022 -0.2637
 1938W        W 5457   3.337   7.834  11.500  0.2959  0.0269 -0.0771
 1939W        W 5458   0.170   3.766   0.961  0.2894 -0.2048 -0.2599
 1940W        W 5459   5.899   2.409   1.183  0.3017 -0.1153  0.0108
 1941W        W 5460   1.989   6.325  12.144 -0.2176 -0.0583  0.1090
 1942W        W 5461   6.432   4.102  11.097 -0.0816  0.2761 -0.1454
 1943W        W 5462   7.697   5.577   1.640 -0.0072  0.1340  0.1535
 1944W        W 5463   8.418   5.265   4.625 -0.0374  0.1121 -0.0311
 1945W        W 5464   3.728   9.434   3.963 -0.2733  0.2646 -0.1595
 1946W        W 5465   2.934   1.180   0.667 -0.1585  0.1156  0.4263
 1947W        W 5466   0.062   1.934   4.342 -0.1579  0.0811 -0.1505
 1948W        W 5467   3.953   5.364   0.902 -0.1996  0.0689  0.3125
 1949W        W 5468   4.391   2.114   3.823 -0.0748 -0.1318  0.0446
 1950W        W 5469   5.473   0.572   3.091  0.3711 -0.5496  0.3426
 1951W        W 5470   9.399   6.843   0.462  0.1713 -0.0252  0.1895
 1952W        W 5471   2.666   5.629   9.927  0.0199  0.3288 -0.1758
 1953W        W 5472   1.771   9.515   1.158 -0.1421  0.2396  0.1841
 1954W        W 5473   9.019   4.486   9.111  0.1038  0.4413 -0.2756
 1955W        W 5474   0.790   8.309   1.255  0.0030  0.1104 -0.2854
 1956W        W 5475   6.271   6.133  12.234  0.0067  0.0502  0.0027
 1957W        W 5476   5.929   7.780   8.962 -0.0422  0.2068 -0.1552
 1958W        W 5477   8.437   5.902   1.678  0.0262  0.3860 -0.1030
 1959W        W 5478   1.289   8.570   9.313 -0.2556  0.0111 -0.0042
 1960W        W 5479   1.597   6.890  10.934  0.0163  0.1643 -0.0988
 1961W        W 5480   0.046   9.382  12.322  0.0131 -0.0148 -0.0270
 1962W        W 5481   4.441   4.198  10.757 -0.1526 -0.2450  0.1107
 1963W        W 5482   4.073   8.348  10.930  0.3162 -0.2556 -0.3916
 1964W        W 5483   3.678   4.612  12.449 -0.2781  0.0255 -0.0829
 1965W        W 5484   8.281   1.395   9.261 -0.0609 -0.0053 -0.0326
 1966W        W 5485   8.775   3.067  12.164 -0.0311  0.4562 -0.0788
 1967W        W 5486   2.744   1.118   2.701  0.1448  0.1607 -0.0166
 1968W        W 5487   1.814   7.373  10.650  0.1295  0.1113  0.1512
 1969W        W 5488   2.416   0.233   9.373 -0.2087 -0.1888  0.1364
 1970W        W 5489   0.729   1.725   9.930  0.2919 -0.1036  0.0724
 1971W        W 5490   0.132   5.960   1.960 -0.1818 -0.0036  0.0391
 1972W        W 5491   4.294   9.197   1.003 -0.3287 -0.0459  0.2567
 1973W        W 5492   7.745   0.348  10.106 -0.0291  0.0825  0.2174
 1974W        W 5493   1.926   4.143   3.357  0.2075 -0.0683  0.2623
 1975W        W 5494   1.325   7.198   9.996 -0.0940  0.0330 -0.0435
 1976W        W 5495   8.909   7.417   9.409  0.5012 -0.0880  0.3623
 1977W        W 5496   0.547   3.693  11.182 -0.0939  0.2575 -0.0619
 1978W        W 5497   8.507   8.457   9.878  0.1713  0.2904 -0.2665
 1979W        W 5498   2.347   0.196  11.469 -0.4194  0.1406  0.0643
 1980W        W 5499   0.571   2.225   3.477 -0.0103  0.0201  0.0774
 1981W        W 5500   0.092   7.316   7.652 -0.1614  0.1404  0.2358
 1982W        W 5501   2.986   3.149  10.671 -0.0276  0.1015 -0.0271
 1983W        W 5502   3.898   8.243  10.491 -0.0250 -0.1858 -0.1028
 1984W        W 5503   0.154   4.981  12.046 -0.0429  0.1026 -0.2214
 1985W        W 5504   1.218   0.835   0.069 -0.2641  0.2730 -0.1048
 1986W        W 5505   3.083   1.502  11.068  0.0446 -0.1505 -0.0191
 1987W        W 5506   1.230   2.671   3.176  0.0317 -0.1666  0.0041
 1988W        W 5507   1.127   0.424  11.727 -0.1334 -0.0853 -0.3132
 1989W        W 5508   3.361   1.653   2.461 -0.2627  0.0102  0.1638
 1990W        W 5509   1.539   0.242  11.939 -0.2785  0.0413  0.0785
 1991W        W 5510   6.404   7.306   3.716 -0.1018  0.3292 -0.0493
 1992W        W 5511   8.483   6.692  10.999 -0.0186  0.1903 -0.3839
 1993W        W 5512   3.651   9.034  10.025 -0.3644  0.1469 -0.1499
 1994W        W 5513   5.423   3.025   4.060  0.1400  0.3322  0.0201
 1995W        W 5514   0.938   6.265   2.261 -0.0800 -0.0215  0.4178
 1996W        W 5515   7.322   9.170   1.316  0.0994  0.2063  0.1294
 1997W        W 5516   7.011   2.215  10.217 -0.1353 -0.3829 -0.0951
 1998W        W 5517   0.172   0.468   1.599  0.3563 -0.0350 -0.0590
 1999W        W 5518   7.775   8.981   3.510  0.1786  0.2431 -0.0262
 2000W        W 5519   3.344   8.870   0.989  0.0764  0.0406 -0.2761
 2001W        W 5520   3.756   9.550   2.373 -0.1235  0.2278  0.2811
 2002W        W 5521   6.926   7.015  12.430  0.0623  0.1555 -0.1796
 2003W        W 5522   0.284   2.888   1.022  0.1271  0.2116 -0.3934
 2004W        W 5523   2.463   5.571   9.010 -0.1299 -0.0065 -0.1238
 2005W        W 5524   7.356   2.415   1.574  0.2185  0.3553 -0.0593
 2006W        W 5525   9.038   4.147   9.645  0.2929  0.0648  0.1503
 2007W        W 5526   1.695   0.429   8.629  0.0445  0.3479 -0.3751
 2008W        W 5527   3.926   5.338  11.207 -0.1218 -0.0977 -0.1952
 2009W        W 5528   8.365   0.976   0.984 -0.3017  0.1129  0.0690
 2010W        W 5529   4.492   4.037   3.443  0.0003 -0.0456  0.0424
 2011W        W 5530   9.045   0.171   2.857 -0.0466  0.1031  0.2560
 2012W        W 5531   4.197   8.833  12.513  0.1829  0.0964 -0.3137
 2013W        W 5532   7.388   6.560   1.751 -0.2658 -0.0803  0.0358
 2014W        W 5533   0.958   5.643   0.925  0.0565 -0.2095 -0.1013
 2015W        W 5534   7.167   2.816   1.341 -0.1870  0.0078  0.0644
 2016W        W 5535   8.671   2.576  12.192 -0.1501  0.1681  0.1130
 2017W        W 5536   0.486   5.545  10.847 -0.0398  0.2764  0.0846
 2018W        W 5537   6.014   4.429   2.465  0.1473 -0.0406  0.2308
 2019W        W 5538   0.475   6.412  11.526 -0.0382 -0.3395 -0.0440
 2020W        W 5539   3.048   6.695   2.619 -0.0191  0.0590 -0.0625
 2021W        W 5540   1.923   7.832   8.965  0.1401  0.0572 -0.2684
 2022W        W 5541   8.402   3.218   3.016 -0.1128 -0.0976 -0.0523
 2023W        W 5542   6.164   4.917  10.432  0.2942  0.1809 -0.1387
 2024W        W 5543   5.597   6.873   3.523  0.3459 -0.3622 -0.1739
 2025W        W 5544   8.254   1.532   1.009 -0.0710  0.0493  0.3968
 2026W        W 5545   4.444   1.707  10.977 -0.3532 -0.1953 -0.2812
 2027W        W 5546   7.476   0.179  11.589 -0.3969 -0.0421 -0.2260
 2028W        W 5547   1.241   4.692   3.032 -0.0395 -0.0501 -0.2122
 2029W        W 5548   9.217   8.008   2.995 -0.0706  0.1894 -0.1236
 2030W        W 5549   1.735   3.247  10.712  0.1399 -0.0475 -0.0598
 2031W        W 5550   2.890   8.814   1.424 -0.1489 -0.0636  0.1925
 2032W        W 5551   6.940   7.211   3.206  0.2098 -0.1449 -0.1350
 2033W        W 5552   6.250   0.265   9.794 -0.1731  0.2393 -0.2943
 2034W        W 5553   4.590   8.934  10.049 -0.0635 -0.0533  0.0670
 2035W        W 5554   4.858   8.387  10.750 -0.0485  0.5440  0.0553
 2036W        W 5555   2.410   0.801   3.836  0.0631  0.1827  0.0200
 2037W        W 5556   8.461   9.637   1.468  0.1043 -0.1019 -0.1054
 2038W        W 5557   0.673   8.763   0.874 -0.1894  0.0135 -0.1579
 2039W        W 5558   4.318   8.031  10.222 -0.0227  0.1359  0.0771
 2040W        W 5559   6.002   4.367  12.372  0.1273  0.1781  0.2637
 2041W        W 5560   2.706   9.301   2.101  0.1758 -0.1610  0.1491
 2042W        W 5561   0.113   8.130   2.651  0.0948 -0.0211 -0.1909
 2043W        W 5562   7.109   1.978  11.565  0.0031  0.0830  0.2473
 2044W        W 5563   3.107   8.895   0.064 -0.3802  0.1610  0.1442
 2045W        W 5564   3.711   3.815   1.375 -0.0866 -0.1226  0.0272
 2046W        W 5565   1.208   9.153   9.571  0.0086 -0.0411 -0.0723
 2047W        W 5566   5.981   4.490  11.300 -0.3737 -0.2772 -0.1368
 2048W        W 5567   4.402   2.549   3.537  0.1180  0.1331  0.0242
 2049W        W 5568   0.979   4.242   1.790 -0.0142  0.0201 -0.0401
 2050W        W 5569   0.613   1.604  10.861 -0.1504 -0.0319  0.0631
 2051W        W 5570   8.380   4.895   9.676 -0.1745  0.2433  0.4959
 2052W        W 5571   8.020   8.159   3.800  0.0027  0.0225  0.0957
 2053W        W 5572   2.309   8.811   1.375 -0.1276  0.0059  0.0750
 2054W        W 5573   5.816   5.439   1.356  0.4446 -0.1942  0.2389
 2055W        W 5574   7.744   1.724   1.066  0.0515 -0.2410  0.3849
 2056W        W 5575   4.081   4.314  11.132 -0.0648 -0.1084  0.1222
 2057W        W 5576   6.564   9.170  11.039 -0.2582  0.3007  0.0403
 2058W        W 5577   8.862   7.206   9.888  0.1472 -0.0790  0.2003
 2059W        W 5578   3.260   7.707   8.918  0.1416 -0.0474 -0.0975
 2060W        W 5579   5.139   3.342   9.618  0.0449  0.3137 -0.1888
 2061W        W 5580   7.075   1.438  11.770  0.0121  0.1979  0.1157
 2062W        W 5581   0.641   4.052   2.853  0.0044 -0.1594  0.0282
 2063W        W 5582   9.158   3.330   9.729 -0.0207 -0.2512 -0.1880
 2064W        W 5583   0.239   5.956  11.934 -0.2557 -0.0412  0.5532
 2065W        W 5584   8.094   1.469  12.522  0.2005 -0.2116 -0.1648
 2066W        W 5585   9.207   7.631  11.795  0.2255 -0.2140 -0.3580
 2067W        W 5586   8.909   3.452   2.088 -0.1723 -0.2433  0.3784
 2068W        W 5587   0.417   4.469   2.731 -0.0527  0.0428  0.4195
 2069W        W 5588   1.048   3.519   3.385 -0.1555  0.0221 -0.2212
 2070W        W 5589   7.017   0.465   9.211  0.1750  0.1516 -0.1427
 2071W        W 5590   1.476   2.766  12.135 -0.0443 -0.4063 -0.1317
 2072W        W 5591   1.539   6.451   2.474 -0.1283 -0.1531  0.1718
 2073W        W 5592   9.095   6.177  11.599 -0.1028  0.1314  0.0497
 2074W        W 5593   6.888   9.066   3.175 -0.0994  0.1353  0.0757
 2075W        W 5594   4.278   2.173  12.131 -0.0616 -0.0711 -0.3830
 2076W        W 5595   5.865   6.734  10.128  0.3414  0.3529 -0.1837
 2077W        W 5596   8.599   5.930   3.490  0.0166 -0.0327  0.1433
 2078W        W 5597   8.373   1.751   7.849  0.2952 -0.0824  0.1321
 2079W        W 5598   3.319   2.736  10.511  0.2946 -0.4070  0.2540
 2080W        W 5599   1.415   2.827   3.610 -0.1710 -0.0167 -0.1798
 2081W        W 5600   9.421   1.535  10.258  0.3306 -0.0091 -0.0647
 2082W        W 5601   5.599   7.583  10.562  0.0503 -0.4950  0.0956
 2083W        W 5602   1.072   2.247   1.400  0.2551 -0.0321  0.4146
 2084W        W 5603   9.311   2.932   0.982  0.3100  0.0149 -0.2768
 2085W        W 5604   4.833   8.038  10.404  0.0307  0.1841 -0.1059
 2086W        W 5605   4.566   3.212   2.305 -0.2159  0.1866  0.1555
 2087W        W 5606   4.961   4.667   1.328  0.0654  0.0326  0.2196
 2088W        W 5607   8.904   7.947  11.627 -0.0845  0.2349 -0.1437
 2089W        W 5608   5.122   0.091   3.749 -0.2510  0.1882 -0.0579
 2090W        W 5609   9.045   6.252  10.906  0.0020 -0.4615  0.1011
 2091W        W 5610   1.084   4.615  10.410  0.0082  0.0805  0.1355
 2092W        W 5611   8.022   0.883  11.195 -0.1821 -0.3434  0.0513
 2093W        W 5612   7.754   2.050   9.655 -0.2115 -0.0516 -0.0332
 2094W        W 5613   8.622   1.536   4.268 -0.1588  0.1755  0.2329
 2095W        W 5614   0.103   7.447   2.510 -0.0389  0.0747 -0.1362
 2096W        W 5615   0.675   3.469   2.126 -0.1780  0.1106  0.0574
 2097W        W 5616   5.156   2.823   1.287  0.0029 -0.2229 -0.0561
 2098W        W 5617   6.643   4.044   2.057  0.0225  0.2743  0.1345
 2099W        W 5618   4.976   5.148  10.927  0.0195  0.0269 -0.0364
 2100W        W 5619   1.037   9.064   8.453  0.2921  0.0985  0.0428
 2101W        W 5620   6.959   4.551   9.485 -0.0693  0.1672  0.2040
 2102W        W 5621   8.520   1.916   1.314 -0.0541 -0.1088 -0.1084
 2103W        W 5622   8.687   2.706  10.352 -0.0817 -0.0489  0.1250
 2104W        W 5623   0.088   5.979   3.165  0.2412 -0.2995  0.0654
 2105W        W 5624   2.302   2.730   9.459  0.4479 -0.0495  0.2764
 2106W        W 5625   8.108   6.734   1.211  0.0984  0.0211  0.2321
 2107W        W 5626   6.495   9.173   1.334  0.2974 -0.1214  0.0524
 2108W        W 5627   7.497   7.008  11.725  0.3568 -0.0238 -0.0494
 2109W        W 5628   8.805   2.878  11.469  0.3431 -0.0884  0.0463
 2110W        W 5629   1.851   3.701   8.604 -0.1075 -0.0562 -0.2544
 2111W        W 5630   1.200   7.947   9.293  0.0677  0.0536 -0.1355
 2112W        W 5631   5.207   5.370   1.003  0.2735  0.0631  0.2363
 2113W        W 5632   0.510   8.281   2.430 -0.0661  0.3482 -0.0187
 2114W        W 5633   3.040   1.773   4.748  0.1597 -0.5580  0.1838
 2115W        W 5634   2.376   0.257   3.985 -0.1917  0.2734  0.0286
 2116W        W 5635   4.158   7.909   2.174  0.0730 -0.0059 -0.0591
 2117W        W 5636   6.165   5.756  11.190 -0.1525 -0.0498 -0.1605
 2118W        W 5637   6.989   2.468   9.745  0.3015 -0.1613  0.1666
 2119W        W 5638   1.850   6.931  10.334 -0.0666  0.2411  0.2628
 2120W        W 5639   6.894   8.881   0.351 -0.3522 -0.2797 -0.2210
 2121W        W 5640   8.583   0.058   1.949  0.2644 -0.0551  0.0755
 2122W        W 5641   6.988   8.436   1.770  0.3691 -0.1404 -0.1115
 2123W        W 5642   4.327   6.501   0.235 -0.3514  0.0940 -0.4116
 2124W        W 5643   3.410   4.268   2.139 -0.0490 -0.3346  0.0917
 2125W        W 5644   8.528   1.456  11.447  0.0123 -0.0501  0.1532
 2126W        W 5645   8.068   2.973  11.554 -0.3376  0.2379  0.2098
 2127W        W 5646   5.849   1.629   9.371 -0.0394  0.2905 -0.1962
 2128W        W 5647   2.669   8.769   9.155  0.0688 -0.2072 -0.1742
 2129W        W 5648   1.853   8.663  10.864 -0.1612 -0.1052 -0.0747
 2130W        W 5649   3.549   0.563   1.546  0.0669  0.0414 -0.2648
 2131W        W 5650   7.456   1.401  10.698 -0.1164  0.1031 -0.1108
 2132W        W 5651   6.855   1.544   9.428  0.0405  0.0875 -0.1913
 2133W        W 5652   2.960   9.592   0.218  0.0880  0.3181  0.2232
 2134W        W 5653   5.370   2.123  10.763 -0.0084  0.2331  0.0917
 2135W        W 5654   2.447   0.009   2.320  0.0077  0.0147 -0.2001
 2136W        W 5655   5.705   1.257   0.786  0.4558 -0.0972  0.0906
 2137W        W 5656   2.539   7.055   0.680 -0.0540  0.0814 -0.1906
 2138W        W 5657   4.434   7.253  12.342  0.3150  0.0497 -0.0656
 2139W        W 5658   3.324   0.555   8.934 -0.0082 -0.0534  0.1790
 2140W        W 5659   8.139   0.576   9.865 -0.3998  0.2216 -0.0083
 2141W        W 5660   7.588   4.009   0.025  0.0498 -0.0771  0.0337
 2142W        W 5661   5.989   1.798   9.851  0.1084  0.1794 -0.0834
 2143W        W 5662   4.403   8.266   3.597 -0.1159 -0.1591  0.0539
 2144W        W 5663   2.029   1.440   8.807 -0.2784 -0.2956  0.1445
 2145W        W 5664   1.870   5.493   8.158 -0.2311  0.2122 -0.1317
 2146W        W 5665   4.417   7.348   0.384 -0.1005 -0.0029  0.0444
 2147W        W 5666   4.351   3.274   1.820 -0.1710  0.2802 -0.0519
 2148W        W 5667   3.111   6.613   1.435  0.1725  0.1316 -0.2360
 2149W        W 5668   4.060   8.719  10.180 -0.1958 -0.0346 -0.0793
 2150W        W 5669   6.803   1.349   4.357  0.0297 -0.2952 -0.2214
 2151W        W 5670   8.141   4.519   8.346  0.0276  0.2343 -0.1232
 2152W        W 5671   4.505   0.991  11.432  0.1625 -0.1426 -0.2018
 2153W        W 5672   0.218   5.770   3.606  0.0825 -0.0032 -0.2029
 2154W        W 5673   6.980   5.860   0.303  0.1286  0.4305  0.1928
 2155W        W 5674   7.476   6.080   0.143 -0.0570  0.3076  0.0951
 2156W        W 5675   4.437   2.278   1.228 -0.2019  0.3769 -0.0915
 2157W        W 5676   7.463   5.685   2.145  0.1173  0.0889  0.0731
 2158W        W 5677   5.637   3.913   1.787  0.2008  0.1920  0.0074
 2159W        W 5678   6.199   1.152   4.774  0.0185  0.0068  0.0349
 2160W        W 5679   0.665   1.314   0.695 -0.0065 -0.2463  0.1721
 2161W        W 5680   2.003   1.694   0.705 -0.3929 -0.0516 -0.2073
 2162W        W 5681   5.337   8.445   3.566 -0.1304 -0.0650 -0.1839
 2163W        W 5682   0.884   6.729  11.552 -0.3308 -0.0820  0.1584
 2164W        W 5683   6.291   7.110  10.563  0.3815  0.2844  0.2396
 2165W        W 5684   4.040   3.325  11.487  0.1659 -0.2963 -0.1685
 2166W        W 5685   6.251   2.616   3.493 -0.1268 -0.2895  0.3188
 2167W        W 5686   3.891   9.338   1.230 -0.2162 -0.1461  0.1348
 2168W        W 5687   7.308   3.411   3.757  0.0974 -0.1096 -0.1667
 2169W        W 5688   6.499   2.598   4.859 -0.2021 -0.2099  0.1177
 2170W        W 5689   4.046   5.782   1.130 -0.1056  0.0162  0.4867
 2171W        W 5690   8.816   5.721   9.394  0.1757 -0.3587  0.3360
 2172W        W 5691   3.887   0.761   3.488  0.0299 -0.2050 -0.1402
 2173W        W 5692   0.024   1.148   3.089  0.0630  0.3900 -0.1768
 2174W        W 5693   9.340   4.637   8.711  0.0201  0.1313 -0.2748
 2175W        W 5694   0.872   6.885   9.451 -0.0892  0.2554  0.1065
 2176W        W 5695   4.333   5.235   0.457 -0.2993 -0.0108 -0.0479
 2177W        W 5696   8.929   5.544   2.234 -0.3538 -0.0571  0.0433
 2178W        W 5697   4.921   4.737   3.456 -0.1205 -0.1370 -0.4293
 2179W        W 5698   8.098   0.384  11.431  0.0130 -0.1449 -0.0975
 2180W        W 5699   7.800   3.123   7.998 -0.0793  0.1330  0.2769
 2181W        W 5700   8.238   7.073   1.580 -0.0759  0.0033  0.1358
 2182W        W 5701   6.084   1.219   0.343  0.0193  0.1511 -0.0907
 2183W        W 5702   1.337   1.834   0.004  0.3708 -0.0454 -0.0372
 2184W        W 5703   8.001   5.115   9.550  0.2410  0.1782 -0.0660
 2185W        W 5704   3.174   8.625   9.977 -0.0031 -0.1469 -0.0338
 2186W        W 5705   5.486   1.156  11.261 -0.0063  0.0495  0.1679
 2187W        W 5706   9.363   2.572  11.316  0.2359  0.0912  0.0623
 2188W        W 5707   0.543   0.156   1.586 -0.0080  0.2340  0.2344
 2189W        W 5708   4.523   3.273   9.651 -0.0760 -0.0172 -0.1458
 2190W        W 5709   7.921   3.780   0.932 -0.0276  0.1354 -0.2148
 2191W        W 5710   7.161   1.912  10.628  0.1969 -0.2684  0.1776
 2192W        W 5711   4.575   5.424   9.729  0.3533 -0.2557 -0.2621
 2193W        W 5712   6.210   7.376   2.933 -0.0318 -0.0362 -0.3285
 2194W        W 5713   9.025   8.514   0.246 -0.0740 -0.0859  0.1448
 2195W        W 5714   3.936   0.540   9.766 -0.0684  0.2562  0.2278
 2196W        W 5715   3.890   2.036   1.198  0.1239  0.1768 -0.1125
 2197W        W 5716   6.424   7.428   8.962  0.3449 -0.0731  0.3125
 2198W        W 5717   8.722   5.881   3.936 -0.0443 -0.2554 -0.0807
 2199W        W 5718   1.851   1.656   0.001  0.1098 -0.3038 -0.1684
 2200W        W 5719   0.137   4.050   3.237 -0.1477  0.3737  0.4257
 2201W        W 5720   2.154   8.664   2.598 -0.1335 -0.3433 -0.1504
 2202W        W 5721   1.292   5.987   2.418 -0.1426  0.4195 -0.4650
 2203W        W 5722   7.355   0.891   9.095 -0.2790 -0.0613  0.0299
 2204W        W 5723   2.231   7.973   3.804  0.3375  0.1284 -0.1400
 2205W        W 5724   7.334   5.643   1.090 -0.0680 -0.0943 -0.0211
 2206W        W 5725   9.644   1.941   0.390  0.1573 -0.1149 -0.1058
 2207W        W 5726   6.635   9.578  11.678 -0.1372 -0.0309 -0.0170
 2208W        W 5727   4.118   8.585   1.730  0.0057 -0.0821  0.1059
 2209W        W 5728   8.687   1.650   0.295 -0.0561 -0.1427 -0.1267
 2210W        W 5729   0.625   3.001   8.622 -0.0888  0.0663 -0.0241
 2211W        W 5730   8.222   0.279   8.318  0.1236  0.3918  0.0923
 2212W        W 5731   1.786   3.051   2.021 -0.0584  0.0151 -0.0989
 2213W        W 5732   9.469   7.779   2.210  0.1125 -0.0596 -0.3345
 2214W        W 5733   2.001   7.705   1.943  0.1853  0.1522 -0.0667
 2215W        W 5734   3.051   7.383  12.445 -0.0483  0.1199  0.1977
 2216W        W 5735   0.345   5.784   4.548 -0.3662 -0.0727 -0.0563
 2217W        W 5736   0.104   2.097   3.643  0.1318  0.1873 -0.2592
 2218W        W 5737   6.013   1.946   1.530  0.2079 -0.1793 -0.0943
 2219W        W 5738   3.784   4.387   9.633 -0.0783  0.0698 -0.1326
 2220W        W 5739   1.750   4.940  10.819  0.2087 -0.2643  0.1278
 2221W        W 5740   7.461   2.972  12.391  0.0462  0.0555  0.0788
 2222W        W 5741   4.498   8.365   0.076  0.0481 -0.0492 -0.1511
 2223W        W 5742   1.154   5.444   4.485  0.1291 -0.1784  0.4622
 2224W        W 5743   4.467   3.172  10.283 -0.3100  0.0285  0.3927
 2225W        W 5744   7.905   5.374   0.322  0.0528 -0.0401  0.1758
 2226W        W 5745   3.971   7.753  11.690 -0.0441 -0.1035  0.3066
 2227W        W 5746   2.275   8.601   9.591 -0.2773 -0.1031  0.2245
 2228W        W 5747   0.291   2.548  10.349  0.1621  0.0611  0.2244
 2229W        W 5748   5.701   5.142   2.059 -0.2985  0.0529  0.0918
 2230W        W 5749   5.799   5.637   1.832  0.1038 -0.2298  0.2496
 2231W        W 5750   5.158   0.237  10.430 -0.0468  0.1286  0.0414
 2232W        W 5751   4.843   3.872   3.839 -0.0133 -0.0070  0.0832
 2233W        W 5752   1.924   5.765   8.782  0.0108  0.2384 -0.2903
 2234W        W 5753   9.320   0.903   0.467 -0.2941 -0.0388 -0.2407
 2235W        W 5754   7.209   4.536   1.975  0.4272  0.0368 -0.2737
 2236W        W 5755   5.526   4.570   0.075 -0.2438  0.0478  0.0347
 2237W        W 5756   8.634   9.613   0.474 -0.0474  0.2362  0.1651
 2238W        W 5757   1.618   2.643   8.443  0.0239 -0.2507  0.1810
 2239W        W 5758   7.185   5.559   1.578 -0.3418 -0.0656 -0.3367
 2240W        W 5759   1.503   3.914   1.199 -0.0000 -0.3840  0.0671
 2241W        W 5760   0.413   5.321   3.587 -0.0663 -0.1039 -0.1610
 2242W        W 5761   7.634   3.802   3.466 -0.1546 -0.1636  0.0457
 2243W        W 5762   6.943   0.002   3.585 -0.3607 -0.2354 -0.0735
 2244W        W 5763   0.935   3.390  11.093 -0.3911 -0.1160  0.2629
 2245W        W 5764   1.990   1.492  11.433 -0.0480 -0.1292  0.0182
 2246W        W 5765   6.978   3.055   9.839 -0.0373  0.0476 -0.0717
 2247W        W 5766   8.950   5.893   8.912 -0.0695 -0.1065 -0.3113
 2248W        W 5767   6.324   7.537  10.221 -0.1068  0.0178  0.2523
 2249W        W 5768   3.410   6.719   0.300 -0.0550  0.0860 -0.1021
 2250W        W 5769   0.186   2.760   8.470  0.3546 -0.1133  0.2687
 2251W        W 5770   6.059   6.051   9.676  0.4018 -0.0756 -0.0944
 2252W        W 5771   0.316   5.160  10.401  0.0040  0.2116 -0.2259
 2253W        W 5772   2.132   3.156   8.491  0.0563 -0.0773 -0.2691
 2254W        W 5773   5.482   9.661  11.750 -0.0177  0.0451 -0.0340
 2255W        W 5774   3.091   9.626   1.928 -0.0581 -0.1577 -0.0455
 2256W        W 5775   1.447   9.370   0.755 -0.0410  0.0036 -0.3206
 2257W        W 5776   7.850   2.549  11.366  0.1756  0.0378 -0.0987
 2258W        W 5777   9.075   3.469   2.910 -0.1128  0.1942 -0.1363
 2259W        W 5778   2.297   9.120   0.135  0.1921 -0.0553 -0.0655
 2260W        W 5779   2.037   2.806   8.164  0.1249 -0.0615 -0.2180
 2261W        W 5780   7.158   0.868   1.016 -0.3451 -0.0496 -0.1781
 2262W        W 5781   8.790   3.067  10.917  0.0468  0.1654  0.2754
 2263W        W 5782   0.713   9.376   9.514 -0.1554 -0.6089 -0.2031
 2264W        W 5783   0.400   7.933  12.286 -0.1899 -0.0532 -0.2921
 2265W        W 5784   5.069   3.780  10.040  0.0183  0.1497 -0.0182
 2266W        W 5785   1.851   7.272   9.181 -0.2860  0.0461  0.0669
 2267W        W 5786   7.942   5.078   3.261 -0.0245  0.0530  0.0026
 2268W        W 5787   4.720   7.275  10.738 -0.2525 -0.4112 -0.0937
 2269W        W 5788   0.498   2.528   0.672 -0.0393  0.0597 -0.2344
 2270W        W 5789   2.903   5.060   2.502  0.3327  0.2058 -0.2126
 2271W        W 5790   9.332   7.203   2.502  0.0642 -0.0335  0.1429
 2272W        W 5791   6.640   3.050   0.266 -0.0710 -0.0418  0.1300
 2273W        W 5792   7.769   8.561  12.312  0.1827 -0.1513  0.2675
 2274W        W 5793   3.226   1.654  11.497  0.3493 -0.3452 -0.2000
 2275W        W 5794   5.359   7.888   1.973 -0.2506  0.0928 -0.1252
 2276W        W 5795   5.502   3.702  10.208 -0.3288  0.0199 -0.1147
 2277W        W 5796   9.592   5.398   1.844 -0.4723  0.3301 -0.1030
 2278W        W 5797   4.873   8.503  10.221 -0.1328  0.1575  0.2945
 2279W        W 5798   9.517   4.821  12.475  0.1345 -0.0292  0.0433
 2280W        W 5799   6.355   5.070   2.957  0.0189 -0.0991  0.0374
 2281W        W 5800   5.381   3.322  10.572 -0.1309 -0.4194 -0.2658
 2282W        W 5801   6.688   9.363   0.153 -0.0821  0.0763  0.0032
 2283W        W 5802   4.670   2.819  11.150  0.4364  0.2061  0.3082
 2284W        W 5803   8.322   3.816  11.945 -0.0951 -0.2153 -0.3515
 2285W        W 5804   9.020   0.758   9.027 -0.1194 -0.2729 -0.0911
 2286W        W 5805   0.890   4.352   9.951 -0.0447 -0.0209  0.0304
 2287W        W 5806   9.111   3.553   1.618  0.1923  0.1468 -0.0523
 2288W        W 5807   5.384   2.630   3.566 -0.1859 -0.0958 -0.3503
 2289W        W 5808   4.668   6.889   9.537 -0.2026 -0.1002  0.0994
 2290W        W 5809   1.000   0.718   2.430  0.1193 -0.0684  0.1205
 2291W        W 5810   7.702   8.867  11.296  0.2083 -0.0941 -0.2698
 2292W        W 5811   3.167   0.701   0.763 -0.0334 -0.1423 -0.0439
 2293W        W 5812   2.973   6.968  11.475 -0.0862  0.0698  0.1633
 2294W        W 5813   2.537   4.241  10.576  0.1659 -0.1844  0.1303
 2295W        W 5814   2.908   1.027  11.916  0.1570 -0.1549 -0.1836
 2296W        W 5815   4.540   8.962   8.573  0.1853  0.1286 -0.1610
 2297W        W 5816   9.206   1.065   1.785 -0.1544  0.0042 -0.0076
 2298W        W 5817   7.952   9.492   8.536 -0.1460  0.2647  0.0800
 2299W        W 5818   9.354   4.655   3.626  0.1085  0.0138  0.2554
 2300W        W 5819   2.509   8.882  11.593 -0.0173 -0.1454  0.0744
 2301W        W 5820   5.869   3.925  11.987  0.0003  0.0183 -0.0169
 2302W        W 5821   1.090   5.334   8.762 -0.0021  0.1277  0.0443
 2303W        W 5822   1.614   6.329   3.134 -0.1242  0.0767 -0.1989
 2304W        W 5823   6.386   7.226   1.290  0.0476  0.2524  0.1696
 2305W        W 5824   5.311   0.507   4.025  0.1023  0.1947 -0.0492
 2306W        W 5825   7.529   2.802   4.548  0.1331  0.1131  0.3570
 2307W        W 5826   6.927   3.455   8.878 -0.2856  0.1084 -0.0391
 2308W        W 5827   9.293   6.620   2.368  0.6427 -0.3580  0.3873
 2309W        W 5828   8.779   7.701   1.821  0.0377 -0.2126 -0.1634
 2310W        W 5829   7.170   0.289   1.139 -0.0364 -0.2175 -0.0464
 2311W        W 5830   5.064   7.288  11.147 -0.1689  0.1446 -0.2776
 2312W        W 5831   7.160   3.004  10.697 -0.1090 -0.2355 -0.2481
 2313W        W 5832   7.648   2.082   8.214 -0.4228 -0.1187 -0.4515
 2314W        W 5833   3.772   2.656   0.345 -0.1039  0.0339  0.1685
 2315W        W 5834   8.990   9.123   3.454 -0.0469  0.3515 -0.1185
 2316W        W 5835   5.457   6.147   0.703  0.0065  0.0381  0.0128
 2317W        W 5836   7.651   0.368   0.299  0.0560  0.0475  0.0648
 2318W        W 5837   2.947   0.369  12.597  0.0070 -0.4300  0.1114
 2319W        W 5838   5.990   5.730   3.542 -0.0528 -0.2753 -0.1294
 2320W        W 5839   2.187   4.907   9.968 -0.0675 -0.1307  0.0939
 2321W        W 5840   3.845   8.876   3.100  0.4178 -0.2070  0.0529
 2322W        W 5841   0.124   0.029   9.574 -0.0557  0.0697 -0.2883
 2323W        W 5842   6.941   1.862   9.817  0.0224 -0.0225  0.2808
 2324W        W 5843   6.928   0.806   9.961 -0.2587 -0.2989 -0.0354
 2325W        W 5844   8.437   5.362   3.830 -0.3877 -0.3876 -0.0899
 2326W        W 5845   5.535   5.018   0.981  0.1275 -0.0177  0.0062
 2327W        W 5846   8.159   2.849   3.806  0.1632 -0.1939 -0.1305
 2328W        W 5847   8.476   6.160   8.906 -0.0352 -0.1294 -0.1092
 2329W        W 5848   6.227   2.476   4.055 -0.1381 -0.0471 -0.0135
 2330W        W 5849   0.648   5.504   8.372 -0.0625  0.0859  0.0162
 2331W        W 5850   8.886   6.859  10.797 -0.0029  0.0758  0.0116
 2332W        W 5851   5.939   6.321  10.934 -0.0191 -0.2102  0.0485
 2333W        W 5852   4.088   8.790  10.690  0.0337  0.1031  0.3979
 2334W        W 5853   0.216   1.622   2.880 -0.1982  0.2010  0.2057
 2335W        W 5854   2.313   4.887   1.550 -0.2867  0.0279  0.1999
 2336W        W 5855   9.138   9.175   4.692  0.1726  0.0426 -0.1441
 2337W        W 5856   6.545   0.281  10.691 -0.0792  0.1462  0.1398
 2338W        W 5857   5.712   1.303   3.987  0.0646  0.4117 -0.3347
 2339W        W 5858   2.174   0.912   0.855  0.1499  0.0413  0.0655
 2340W        W 5859   0.282   6.142  10.209  0.0421 -0.2148  0.5677
 2341W        W 5860   2.925   7.673   0.528 -0.0577  0.0793 -0.0572
 2342W        W 5861   6.242   7.081  11.577 -0.3312  0.0320  0.0261
 2343W        W 5862   4.888   1.649   4.258  0.0467 -0.3184 -0.2767
 2344W        W 5863   6.191   2.992   3.867 -0.1155 -0.3906  0.2366
 2345W        W 5864   1.292   3.594  10.820 -0.4295 -0.2289  0.0379
 2346W        W 5865   0.998   0.509  11.189  0.0024  0.1513 -0.1091
 2347W        W 5866   6.193   6.339   1.534  0.1141 -0.0583 -0.1301
 2348W        W 5867   0.469   1.761   3.653 -0.2035 -0.3023  0.2733
 2349W        W 5868   6.565   0.246   1.360  0.1953 -0.0937  0.1371
 2350W        W 5869   6.910   0.229  11.998 -0.0665 -0.3962  0.0959
 2351W        W 5870   0.108   7.105  11.696  0.1091  0.1055 -0.0616
 2352W        W 5871   6.056   6.339   2.801 -0.2020 -0.0529  0.2778
 2353W        W 5872   7.034   4.727   3.659  0.0722 -0.0808  0.2971
 2354W        W 5873   0.397   0.319   3.299  0.1126 -0.1592 -0.1071
 2355W        W 5874   6.614   1.987   9.398 -0.0874  0.1097 -0.1512
 2356W        W 5875   6.775   6.399  11.160 -0.0113 -0.0877  0.1576
 2357W        W 5876   2.882   0.778   0.374  0.1499  0.0916 -0.2979
 2358W        W 5877   1.905   3.957   8.166  0.0394  0.0045  0.1591
 2359W        W 5878   8.337   3.158  11.123 -0.2490 -0.3485 -0.1390
 2360W        W 5879   3.121   9.019  10.311  0.0690  0.2649  0.1214
 2361W        W 5880   4.114   0.356  10.270 -0.2152  0.2949  0.0617
 2362W        W 5881   5.762   8.885   1.738  0.1975 -0.0638  0.1272
 2363W        W 5882   1.853   5.834  11.259 -0.0938 -0.1912 -0.1810
 2364W        W 5883   3.730   1.504  12.356  0.0964  0.1519  0.0301
 2365W        W 5884   6.950   6.583   1.993 -0.2790 -0.1066  0.2067
 2366W        W 5885   4.883   6.440   1.847  0.0840  0.0960 -0.0041
 2367W        W 5886   2.297   5.426   1.438  0.1616 -0.2266 -0.1459
 2368W        W 5887   5.896   2.301   0.602 -0.1792 -0.1195 -0.3907
 2369W        W 5888   4.909   4.853  10.541 -0.3103  0.0853 -0.2370
 2370W        W 5889   6.279   1.271   0.898 -0.1715  0.2274 -0.3976
 2371W        W 5890   7.434   0.019   3.911  0.1017 -0.3003 -0.3045
 2372W        W 5891   3.251   1.086   2.555 -0.1172  0.2076  0.1221
 2373W        W 5892   2.493   8.140  12.426 -0.4422  0.1923 -0.2101
 2374W        W 5893   0.747   4.725   0.108  0.3173 -0.3461 -0.4155
 2375W        W 5894   9.287   3.363  12.295  0.0569  0.2443 -0.2118
 2376W        W 5895   2.930   3.780   8.593 -0.0658  0.0243 -0.3355
 2377W        W 5896   6.080   9.119  12.018  0.1958  0.0682 -0.1199
 2378W        W 5897   7.612   1.239   4.025 -0.1954 -0.2107 -0.0880
 2379W        W 5898   8.175   8.873   3.147 -0.0281 -0.0269 -0.0255
 2380W        W 5899   8.265   4.260   4.110  0.0553 -0.0908  0.1257
 2381W        W 5900   4.570   4.454   1.632 -0.6054 -0.1162 -0.3314
 2382W        W 5901   2.674   6.243  11.237  0.0525  0.1816 -0.0746
 2383W        W 5902   5.751   2.843   9.075 -0.0959 -0.1543  0.2656
 2384W        W 5903   3.354   0.531  12.319 -0.0932 -0.2860  0.0709
 2385W        W 5904   6.466   9.120  10.236 -0.0712 -0.0008  0.1497
 2386W        W 5905   9.160   9.384   1.670 -0.2658 -0.0411  0.2856
 2387W        W 5906   6.054   3.516   3.551 -0.3398 -0.2382  0.0435
 2388W        W 5907   9.255   8.877   9.426 -0.6112  0.1054  0.1707
 2389W        W 5908   3.555   5.047   0.863  0.0884 -0.0613  0.1480
 2390W        W 5909   5.603   5.354   8.624 -0.1130  0.2544 -0.1817
 2391W        W 5910   6.794   3.252   0.769  0.0541 -0.0035 -0.0565
 2392W        W 5911   6.806   1.861  12.291  0.0340  0.0911  0.0104
 2393W        W 5912   2.849   2.309  10.054 -0.1340  0.1870  0.0522
 2394W        W 5913   8.573   0.982   3.187  0.0922 -0.2004  0.4163
 2395W        W 5914   6.513   4.513   0.388 -0.1765  0.2954  0.1676
 2396W        W 5915   4.589   8.764   1.737  0.0075  0.0635 -0.0015
 2397W        W 5916   1.698   3.649  11.825 -0.3142  0.0042 -0.0879
 2398W        W 5917   2.335   1.002   3.036  0.0885  0.1611 -0.1090
 2399W        W 5918   3.409   0.625  10.555 -0.2366 -0.1558  0.1457
 2400W        W 5919   9.357   8.477  10.432 -0.2152 -0.0372 -0.0575
 2401W        W 5920   7.054   4.151  10.541  0.2295 -0.0890 -0.0078
 2402W        W 5921   1.551   2.827   1.063 -0.1247  0.1648  0.1983
 2403W        W 5922   3.037   1.902   3.740 -0.0358  0.0959  0.1426
 2404W        W 5923   8.445   6.284   1.320  0.0023 -0.1021  0.0643
 2405W        W 5924   2.881   3.869   9.474 -0.2682  0.0751 -0.2597
 2406W        W 5925   4.954   6.871   1.039  0.3844 -0.0247  0.1002
 2407W        W 5926   3.067   4.292   4.025 -0.1613  0.1142 -0.0216
 2408W        W 5927   2.657   0.783   0.833 -0.2516 -0.2618  0.2361
 2409W        W 5928   1.659   8.262   8.373  0.5050  0.3349  0.1636
 2410W        W 5929   7.032   8.006   3.063 -0.1025  0.1508 -0.2457
 2411W        W 5930   2.269   3.532   9.971  0.1085  0.1119  0.0711
 2412W        W 5931   8.449   4.787   1.873  0.1582  0.2234  0.2530
 2413W        W 5932   4.859   9.567  11.704 -0.2741 -0.0334  0.0990
 2414W        W 5933   3.700   5.233  12.075 -0.0138  0.0688  0.1272
 2415W        W 5934   2.648   2.262  10.551 -0.1780 -0.1727  0.0478
 2416W        W 5935   8.068   8.953  12.159  0.0667  0.1328  0.2031
 2417W        W 5936   0.556   0.801  11.159  0.1794 -0.5395  0.3038
 2418W        W 5937   8.744   5.537   3.064 -0.3115 -0.0803 -0.2188
 2419W        W 5938   8.649   9.474  12.028 -0.0639 -0.1417  0.1616
 2420W        W 5939   2.629   1.962   4.359 -0.0474 -0.3208  0.0967
 2421W        W 5940   5.149   6.571   3.160 -0.0615 -0.1242 -0.0044
 2422W        W 5941   5.076   5.580   1.461 -0.0131  0.1390 -0.0622
 2423W        W 5942   3.004   6.320   9.820  0.0217 -0.0247 -0.0941
 2424W        W 5943   3.143   0.699   3.599  0.4818 -0.0986 -0.1460
 2425W        W 5944   3.329   4.186   9.463  0.1696  0.1875  0.0812
 2426W        W 5945   4.649   5.093   2.184  0.4019 -0.0046  0.1786
 2427W        W 5946   7.549   6.778  10.808 -0.0130  0.1509  0.0185
 2428W        W 5947   7.477   8.617   9.624 -0.2375 -0.2864  0.0140
 2429W        W 5948   0.545   4.072   8.055  0.3186 -0.0613  0.0371
 2430W        W 5949   7.008   6.982   0.642 -0.1200  0.1622  0.0650
 2431W        W 5950   7.113   3.378   0.370 -0.1163 -0.4276  0.0791
 2432W        W 5951   1.430   9.287   3.905 -0.1789  0.0626  0.1208
 2433W        W 5952   9.192   7.912   3.537 -0.1317  0.0632  0.3768
 2434W        W 5953   5.140   5.541   3.373  0.3608 -0.3413  0.1757
 2435W        W 5954   0.378   3.669   9.771 -0.0408  0.0225  0.0517
 2436W        W 5955   4.109   5.325   8.672 -0.1349  0.2617  0.1853
 2437W        W 5956   8.431   2.906  12.476  0.1134 -0.0926 -0.0182
 2438W        W 5957   9.421   1.739  11.164  0.1370  0.1340  0.0389
 2439W        W 5958   4.252   7.438   2.384 -0.1320  0.1049  0.2564
 2440W        W 5959   0.445   1.295   3.858 -0.0696  0.0080 -0.3053
 2441W        W 5960   7.288   1.571  10.250 -0.0558 -0.0363  0.0778
 2442W        W 5961   5.939   2.894  12.351  0.0443 -0.3172  0.1825
 2443W        W 5962   3.712   7.474   2.342  0.0379  0.0197  0.0824
 2444W        W 5963   0.280   1.327   2.394  0.0253 -0.1302 -0.0596
 2445W        W 5964   3.326   0.303  11.388  0.1105 -0.0512 -0.0329
 2446W        W 5965   9.559   4.700   0.514  0.2090  0.1909  0.1279
 2447W        W 5966   8.291   9.512   2.307 -0.3999  0.0165 -0.4065
 2448W        W 5967   7.769   7.684  10.831 -0.1660 -0.1243 -0.0331
 2449W        W 5968   7.331   9.536   0.835  0.1209  0.1934 -0.0751
 2450W        W 5969   7.007   6.478   1.458  0.0839  0.2642  0.0140
 2451W        W 5970   2.100   4.042  11.762 -0.0647 -0.0028 -0.3519
 2452W        W 5971   1.345   7.703  12.157 -0.0415 -0.3403 -0.0908
 2453W        W 5972   0.345   1.625   0.371 -0.2874  0.2995  0.0157
 2454W        W 5973   0.004   9.670   2.805  0.0050  0.0218 -0.2073
 2455W        W 5974   2.581   8.473   1.771 -0.3781 -0.2371 -0.0884
 2456W        W 5975   9.351   7.031  12.491  0.1243 -0.1240  0.0784
 2457W        W 5976   1.288   3.709   3.850  0.1549 -0.1852 -0.1631
 2458W        W 5977   0.459   1.630   1.836  0.0878 -0.0110 -0.0479
 2459W        W 5978   0.378   7.574   3.447  0.1951 -0.4666  0.0092
 2460W        W 5979   7.899   1.430   9.646 -0.1767 -0.2423  0.0912
 2461W        W 5980   3.295   0.912   9.252  0.2581  0.0735  0.2276
 2462W        W 5981   2.361   6.347  10.392 -0.0835 -0.1498 -0.2092
 2463W        W 5982   3.399   0.252   1.005  0.0494 -0.0251 -0.2839
 2464W        W 5983   3.459   0.498   3.237  0.1720 -0.5370 -0.2344
 2465W        W 5984   0.842   3.538   9.850  0.1911  0.1220  0.1267
 2466W        W 5985   9.589   1.868   8.047  0.1320  0.3865 -0.0244
 2467W        W 5986   9.225   3.938   2.917  0.0994  0.1556  0.2689
 2468W        W 5987   9.191   8.469   2.822 -0.1273  0.0524 -0.2119
 2469W        W 5988   9.629   5.814   9.719  0.2828  0.2360 -0.0887
 2470W        W 5989   8.483   0.879  10.320 -0.1059 -0.1105 -0.1605
 2471W        W 5990   7.751   9.116   1.609  0.1824  0.4281 -0.1334
 2472W        W 5991   5.618   6.675   0.850  0.0691  0.2888 -0.0401
 2473W        W 5992   0.329   2.250   9.172  0.0778 -0.1371  0.0886
 2474W        W 5993   6.839   7.655  11.901 -0.3733  0.1880 -0.0747
 2475W        W 5994   6.364   8.093  10.299  0.2545 -0.0398  0.0181
 2476W        W 5995   3.257   4.540   0.476 -0.3675  0.6067  0.0764
 2477W        W 5996   8.798   5.305   2.661  0.1345  0.0033 -0.0611
 2478W        W 5997   8.698   2.180  11.302  0.0014  0.0968 -0.2774
 2479W        W 5998   8.664   3.041   0.254 -0.1599  0.0149 -0.2764
 2480W        W 5999   5.572   8.685   2.902 -0.0145 -0.0285  0.1307
 2481W        W 6000   1.957   4.328   1.523 -0.0913 -0.2224 -0.0550
 2482W        W 6001   3.973   6.392  11.840  0.0524  0.0619 -0.0890
 2483W        W 6002   8.391   1.830   3.892  0.2023  0.4629 -0.3839
 2484W        W 6003   7.141   6.569  11.705 -0.2837  0.0150 -0.1343
 2485W        W 6004   7.194   2.702   3.900 -0.3025 -0.0820  0.0281
 2486W        W 6005   8.493   8.116  11.916 -0.0508 -0.0912 -0.0558
 2487W        W 6006   7.740   6.422   9.512  0.0912  0.0241 -0.0790
 2488W        W 6007   8.909   9.219  10.294 -0.0509  0.1573  0.2262
 2489W        W 6008   6.419   1.670   9.015  0.2832  0.0413 -0.2795
 2490W        W 6009   9.019   2.608   9.119 -0.4730  0.3112 -0.3335
 2491W        W 6010   7.687   5.392  11.257  0.1244 -0.1803  0.1937
 2492W        W 6011   8.780   2.722   8.693  0.0372  0.1567  0.2002
 2493W        W 6012   7.907   3.367   9.395  0.4159 -0.0089  0.1386
 2494W        W 6013   1.687   2.086   0.878 -0.1744  0.0001 -0.1117
 2495W        W 6014   8.438   5.374   9.513 -0.0637 -0.0733  0.2131
 2496W        W 6015   1.779   6.765   2.075  0.0200 -0.2461 -0.0417
 2497W        W 6016   7.175   9.248   9.038 -0.1302  0.1978  0.2851
 2498W        W 6017   0.169   3.756   0.025 -0.5156  0.1483 -0.1524
 2499W        W 6018   0.023   1.434  11.830 -0.2106 -0.2851  0.1653
 2500W        W 6019   7.251   5.382   8.943  0.3940  0.4464 -0.2097
 2501W        W 6020   3.141   7.729   9.423 -0.1910 -0.0898  0.2768
 2502W        W 6021   5.091   9.350   1.237  0.1091 -0.2005  0.0215
 2503W        W 6022   6.846   0.347   2.827  0.0283  0.1832  0.0652
 2504W        W 6023   9.462   3.004  10.231  0.4613 -0.0524 -0.2247
 2505W        W 6024   7.445   4.986   3.331  0.3605 -0.0638 -0.0311
 2506W        W 6025   3.464   6.726   8.614  0.1950  0.2165 -0.1521
 2507W        W 6026   2.409   4.861  12.142 -0.2805 -0.1006  0.0246
 2508W        W 6027   4.557   9.610  10.954 -0.3194 -0.2234  0.2563
 2509W        W 6028   6.345   4.714   8.798  0.3010  0.0618  0.1201
 2510W        W 6029   6.483   2.795   8.204  0.0322  0.2478 -0.0895
 2511W        W 6030   8.347   6.313   3.746 -0.0317 -0.1818 -0.0628
 2512W        W 6031   9.230   1.191   9.428 -0.1396  0.2947  0.2583
 2513W        W 6032   2.294   9.056  12.048  0.0748  0.2344 -0.0414
 2514W        W 6033   9.426   7.524  10.519  0.0626  0.0269 -0.1914
 2515W        W 6034   2.773   2.396   2.235 -0.0654 -0.0177 -0.0616
 2516W        W 6035   8.020   1.053   0.160  0.1190 -0.0238 -0.0826
 2517W        W 6036   6.216   7.905   3.010 -0.2249  0.1405 -0.1639
 2518W        W 6037   4.611   3.269  11.484 -0.0306 -0.0894 -0.1960
 2519W        W 6038   7.119   3.423   9.392  0.4622 -0.0105 -0.1472
 2520W        W 6039   6.620   1.840   4.032  0.2167 -0.0291 -0.2306
 2521W        W 6040   6.352   6.327   8.962  0.2402 -0.0873  0.3966
 2522W        W 6041   6.066   7.862   1.307  0.3190  0.0348  0.0767
 2523W        W 6042   1.053   8.857  10.662 -0.2471 -0.2602 -0.1333
 2524W        W 6043   7.666   2.085  10.726  0.1235  0.1063 -0.1362
 2525W        W 6044   8.032   1.361  10.887 -0.0043  0.2207  0.0049
 2526W        W 6045   2.573   8.022   2.770 -0.3914 -0.0464  0.1414
 2527W        W 6046   2.197   6.350   0.381  0.4768 -0.0036  0.1994
 2528W        W 6047   7.347   3.386  12.159 -0.2833 -0.1650  0.3024
 2529W        W 6048   5.651   2.726   0.932  0.1853 -0.1386  0.0739
 2530W        W 6049   8.222   4.094   2.783 -0.0828  0.1644  0.0347
 2531W        W 6050   7.769   2.609   0.089 -0.0879 -0.2077  0.0812
 2532W        W 6051   0.526   7.171  10.543 -0.0693 -0.2152  0.2507
 2533W        W 6052   5.562   6.679   1.349 -0.2250  0.1066 -0.0508
 2534W        W 6053   2.386   6.746   0.255 -0.5574 -0.0291 -0.2393
 2535W        W 6054   6.107   2.561  10.185 -0.0929  0.0661  0.0462
 2536W        W 6055   3.098   3.617   0.072  0.1359 -0.0881  0.0745
 2537W        W 6056   4.300   0.090   2.620  0.3177  0.1245  0.1603
 2538W        W 6057   1.411   0.302   4.198 -0.0565  0.0247  0.1699
 2539W        W 6058   1.679   5.209   0.309 -0.2100 -0.1098 -0.0407
 2540W        W 6059   5.628   6.187  11.909 -0.0754  0.1342 -0.5270
 2541W        W 6060   5.843   1.784   3.517  0.0214  0.2358  0.0523
 2542W        W 6061   5.654   2.844   2.745 -0.1361 -0.1315  0.0124
 2543W        W 6062   1.689   2.898   2.870 -0.0006 -0.0794  0.3573
 2544W        W 6063   3.734   4.888   2.683  0.0857 -0.0385 -0.1280
 2545W        W 6064   3.246   2.260   1.968  0.1041 -0.1025  0.2320
 2546W        W 6065   8.195   8.841   3.959  0.2689 -0.1037  0.0100
 2547W        W 6066   1.931   5.359  11.215 -0.5999 -0.0979 -0.1410
 2548W        W 6067   8.663   5.067  11.827  0.0177 -0.0109 -0.0466
 2549W        W 6068   8.792   7.343  11.630 -0.2809  0.0554 -0.4024
 2550W        W 6069   3.589   1.015  11.242  0.1948  0.2475 -0.3581
 2551W        W 6070   1.315   4.232  10.186 -0.0525 -0.1958 -0.1767
 2552W        W 6071   7.046   4.971   9.225  0.0871  0.0277 -0.3523
 2553W        W 6072   4.516   9.493   8.513  0.3400 -0.0668  0.0850
 2554W        W 6073   7.546   5.640   2.639 -0.0275  0.1328 -0.0105
 2555W        W 6074   4.826   3.488   1.904  0.2657 -0.2130 -0.1552
 2556W        W 6075   9.549   3.595   8.141  0.1201  0.1378  0.1116
 2557W        W 6076   2.182   3.891   1.242 -0.0269 -0.2130 -0.0821
 2558W        W 6077   7.229   0.159   0.480 -0.2166 -0.1162 -0.1122
 2559W        W 6078   7.443   2.292   3.818  0.0100  0.1881 -0.3683
 2560W        W 6079   6.059   8.306  11.946 -0.1721  0.2482 -0.2046
 2561W        W 6080   4.975   2.030  10.467 -0.0747  0.0878  0.3380
 2562W        W 6081   6.361   8.273   3.582  0.2942 -0.0880 -0.1983
 2563W        W 6082   8.571   5.129  10.247  0.1805  0.3462  0.1401
 2564W        W 6083   2.409   1.101   8.743 -0.3203 -0.1795  0.3439
 2565W        W 6084   1.189   6.391   2.841 -0.1045  0.0609 -0.2152
 2566W        W 6085   6.803   4.691   0.741 -0.1836 -0.2160 -0.1396
 2567W        W 6086   5.669   4.823   0.500  0.0238  0.0893 -0.0573
 2568W        W 6087   1.522   0.737   1.480  0.2006  0.0599  0.2167
 2569W        W 6088   7.682   1.712  12.382  0.1203  0.3787 -0.0142
 2570W        W 6089   9.118   1.596  10.693 -0.1194 -0.2213  0.0028
 2571W        W 6090   5.870   4.809   2.921  0.1258  0.0130  0.0551
 2572W        W 6091   1.057   3.531  12.386  0.0706 -0.0591  0.2515
 2573W        W 6092   5.978   8.477   0.009 -0.0363  0.0956 -0.1206
 2574W        W 6093   3.153   5.484   9.004 -0.2057 -0.0023 -0.1667
 2575W        W 6094   9.553   1.489   1.715  0.2333 -0.1758 -0.0063
 2576W        W 6095   6.701   1.485   0.445  0.0422  0.2112  0.0812
 2577W        W 6096   3.577   3.754   3.511  0.0411 -0.1632 -0.3749
 2578W        W 6097   2.708   7.520   9.865 -0.0644 -0.3831  0.0972
 2579W        W 6098   3.607   6.779  11.997  0.3469 -0.0097 -0.0754
 2580W        W 6099   2.000   6.541  10.708  0.0773 -0.0693 -0.0162
 2581W        W 6100   4.691   5.562   3.121 -0.2171 -0.2185  0.0114
 2582W        W 6101   7.249   0.637  11.718 -0.1146 -0.0587 -0.2745
 2583W        W 6102   2.102   3.385   9.450  0.1503  0.0739  0.0575
 2584W        W 6103   5.838   8.199   3.416 -0.0552 -0.3466  0.0381
 2585W        W 6104   6.462   5.144   0.927 -0.0150  0.4936 -0.1019
 2586W        W 6105   2.959   8.447   2.557 -0.1654 -0.5750  0.0081
 2587W        W 6106   1.012   2.534   0.552  0.1449  0.1834  0.1766
 2588W        W 6107   4.268   9.307   2.404  0.0941 -0.0526 -0.0066
 2589W        W 6108   4.471   0.253   0.666 -0.1346 -0.0759 -0.1795
 2590W        W 6109   3.355   3.051   2.413 -0.2329 -0.1081  0.0057
 2591W        W 6110   3.512   3.389   8.825 -0.0461 -0.1478 -0.1679
 2592W        W 6111   8.782   5.787  10.781 -0.0060  0.3219  0.1296
 2593W        W 6112   8.162   0.280   0.620 -0.0885  0.0354  0.0134
 2594W        W 6113   0.960   0.939   0.801 -0.0148  0.1032 -0.3946
 2595W        W 6114   2.344   0.286   0.041  0.1839 -0.1997 -0.2184
 2596W        W 6115   8.109   7.019   8.994  0.2102  0.0750 -0.0564
 2597W        W 6116   8.098   6.874  11.874 -0.0104 -0.0052  0.0986
 2598W        W 6117   3.832   9.103   2.184  0.1429  0.3618 -0.0502
 2599W        W 6118   2.519   8.370  11.517  0.3089 -0.0907  0.0006
 2600W        W 6119   7.546   6.617   0.137 -0.1155  0.3240 -0.1991
 2601W        W 6120   1.264   0.638   3.807  0.0614  0.2410 -0.2424
 2602W        W 6121   8.425   1.941   3.143 -0.2542 -0.0046 -0.2026
 2603W        W 6122   8.568   2.256  10.810 -0.0347  0.2587  0.0233
 2604W        W 6123   5.749   1.883  11.553  0.2805 -0.2939 -0.0938
 2605W        W 6124   2.145   6.881   1.580  0.2934  0.0276 -0.3106
 2606W        W 6125   4.734   7.527   1.062  0.2151  0.0232 -0.1047
 2607W        W 6126   0.196   9.052   3.458 -0.2467 -0.2956  0.2583
 2608W        W 6127   9.569   6.922   2.952  0.1501 -0.2945  0.2241
 2609W        W 6128   6.962   0.463   3.293 -0.1510 -0.0991  0.1227
 2610W        W 6129   3.661   7.008  10.351  0.0683 -0.1080  0.3313
 2611W        W 6130   1.126   0.503   9.266 -0.0155  0.0384 -0.1263
 2612W        W 6131   8.812   8.844   4.797  0.0603 -0.0439 -0.0514
 2613W        W 6132   0.834   5.757   3.727 -0.0606  0.0798  0.2192
 2614W        W 6133   8.785   5.409   8.796 -0.1023 -0.4476 -0.1307
 2615W        W 6134   5.267   4.444   0.963 -0.0253  0.0808 -0.1536
 2616W        W 6135   4.222   8.499   3.169 -0.0519 -0.0819  0.2966
 2617W        W 6136   4.385   1.496  11.453  0.0602 -0.0792 -0.1156
 2618W        W 6137   9.454   9.153   3.172  0.1854  0.1425  0.1010
 2619W        W 6138   0.091   5.910   9.210  0.2456 -0.3694  0.1423
 2620W        W 6139   5.454   5.739  11.989 -0.2077  0.0854  0.0689
 2621W        W 6140   4.778   1.027   9.947 -0.1160 -0.0297 -0.3903
 2622W        W 6141   5.823   2.135   2.038 -0.1571 -0.0303  0.1774
 2623W        W 6142   3.542   3.131  11.408  0.2516  0.2108  0.1604
 2624W        W 6143   3.649   9.005   3.518  0.0391 -0.1799 -0.0095
 2625W        W 6144   0.780   4.122   9.056 -0.0551 -0.1506 -0.0568
 2626W        W 6145   7.810   1.619   0.332 -0.0692 -0.2128 -0.2100
 2627W        W 6146   7.384   7.508   0.392 -0.1167 -0.2404 -0.0400
 2628W        W 6147   8.576   0.264   3.044  0.1275 -0.0838 -0.0297
 2629W        W 6148   2.661   3.294  10.151  0.1097  0.1545 -0.1134
 2630W        W 6149   6.363   6.080   2.536  0.1170  0.0075 -0.0325
 2631W        W 6150   1.871   4.238   0.993  0.1870 -0.2691 -0.0228
 2632W        W 6151   0.296   3.198   4.435  0.0404 -0.1128 -0.1553
 2633W        W 6152   6.688   2.210  10.598  0.1215 -0.1818  0.1876
 2634W        W 6153   6.826   7.144   1.866 -0.1967 -0.4496 -0.1095
 2635W        W 6154   3.479   3.773   8.571  0.2477 -0.1166  0.0598
 2636W        W 6155   4.978   6.164  10.010  0.0349 -0.6262 -0.1096
 2637W        W 6156   2.309   0.292  10.967  0.0861  0.2544  0.1113
 2638W        W 6157   3.720   8.180   9.499 -0.4001 -0.0028  0.1108
 2639W        W 6158   5.520   0.783   4.389  0.0685  0.1610  0.2464
 2640W        W 6159   2.435   1.703   1.677 -0.1850 -0.0086  0.5378
 2641W        W 6160   9.238   0.761   9.837  0.0560  0.0591 -0.0290
 2642W        W 6161   2.084   4.555  10.750 -0.1216 -0.0080 -0.0510
 2643W        W 6162   5.346   2.373   1.293  0.1796  0.1539  0.2265
 2644W        W 6163   0.097   6.684   9.957  0.2232  0.1747  0.2063
 2645W        W 6164   5.648   2.798   1.399 -0.0101 -0.1460 -0.1575
 2646W        W 6165   5.776   3.377   3.979 -0.0405  0.0504  0.0981
 2647W        W 6166   1.118   4.634   4.078 -0.5916 -0.3644 -0.1387
 2648W        W 6167   5.210   7.968  10.855 -0.0194 -0.2058 -0.3626
 2649W        W 6168   4.054   2.650   3.913  0.1123  0.0141 -0.1072
 2650W        W 6169   3.659   4.535   0.853 -0.1029  0.1351 -0.2047
 2651W        W 6170   4.494   2.125  12.601  0.4786 -0.0423  0.2543
 2652W        W 6171   5.895   7.190   3.241 -0.0214  0.2810 -0.0901
 2653W        W 6172   9.399   4.429   1.937  0.0113 -0.0250 -0.2425
 2654W        W 6173   6.319   4.101   1.177 -0.2635 -0.1703  0.0220
 2655W        W 6174   6.713   1.471  11.386 -0.1760  0.1036  0.1275
 2656W        W 6175   6.823   0.776  10.521 -0.0922 -0.0683  0.0780
 2657W        W 6176   6.404   6.475   0.584 -0.0310 -0.4673  0.1542
 2658W        W 6177   8.393   8.931   0.045 -0.0611 -0.0422  0.5170
 2659W        W 6178   4.352   6.482   1.770 -0.1072 -0.1108 -0.1627
 2660W        W 6179   3.484   1.917   2.834  0.0938 -0.3199 -0.0361
 2661W        W 6180   8.101   4.697   3.895  0.1641  0.1446 -0.1209
 2662W        W 6181   0.964   7.089   4.335 -0.0720  0.1053  0.1740
 2663W        W 6182   4.462   0.445   9.260  0.3940 -0.0993  0.0639
 2664W        W 6183   8.931   8.053   0.917  0.0768  0.2013 -0.0213
 2665W        W 6184   8.053   1.518   8.856  0.4423 -0.3705  0.4812
 2666W        W 6185   1.171   1.434  11.255  0.0315 -0.2171 -0.0717
 2667W        W 6186   6.039   0.163  10.710  0.0685  0.0823  0.1056
 2668W        W 6187   0.557   7.033   0.531  0.0896 -0.1435 -0.1086
 2669W        W 6188   6.682   5.864  11.088  0.3648  0.1049  0.1792
 2670W        W 6189   6.900   0.032   4.134 -0.2125 -0.4380  0.4149
 2671W        W 6190   5.080   6.997   0.547  0.1893  0.2199  0.0423
 2672W        W 6191   2.715   2.797   9.974 -0.0795  0.0998  0.2571
 2673W        W 6192   0.432   5.794   9.812 -0.2958 -0.3842 -0.2273
 2674W        W 6193   1.542   0.209   9.403  0.1949  0.0072  0.1053
 2675W        W 6194   0.863   1.526   3.062 -0.0291  0.1910 -0.0879
 2676W        W 6195   6.604   9.589   9.905  0.2262 -0.0418 -0.4491
 2677W        W 6196   5.054   7.952  11.900  0.1580 -0.1482 -0.0352
 2678W        W 6197   4.453   3.915   0.640 -0.3501 -0.1280 -0.1174
 2679W        W 6198   0.509   6.999   4.178 -0.0033 -0.0895  0.3363
 2680W        W 6199   3.908   2.647   9.829 -0.0079  0.1563 -0.1419
 2681W        W 6200   2.627   4.498  11.728 -0.1459 -0.2571  0.0431
 2682W        W 6201   5.060   0.890  11.333 -0.1250 -0.1482 -0.0914
 2683W        W 6202   7.813   6.151   1.841  0.0767 -0.2051  0.2243
 2684W        W 6203   4.279   8.965  11.452 -0.1286  0.1578  0.3307
 2685W        W 6204   6.855   7.123  11.589 -0.1955 -0.2881 -0.1368
 2686W        W 6205   4.646   8.685  11.262 -0.0087 -0.4223  0.0188
 2687W        W 6206   2.038   0.784  11.498  0.1205 -0.3114 -0.0691
 2688W        W 6207   7.731   0.374  12.085 -0.1219 -0.1151 -0.3412
 2689W        W 6208   3.931   6.115   2.957 -0.0535  0.2703  0.1806
 2690W        W 6209   3.189   3.343  11.636  0.2112 -0.1965  0.0289
 2691W        W 6210   3.025   0.569  10.882 -0.1529 -0.1728  0.0862
 2692W        W 6211   7.325   6.222   8.426 -0.1563  0.1523 -0.2163
 2693W        W 6212   9.226   0.483   0.749 -0.0990  0.2698  0.2166
 2694W        W 6213   2.698   6.489   8.782 -0.2781  0.1285 -0.0494
 2695W        W 6214   1.173   7.092  11.253 -0.1868  0.0398  0.0352
 2696W        W 6215   3.698   6.342  11.425 -0.0589  0.0243 -0.0508
 2697W        W 6216   5.134   8.645   3.116  0.1466  0.0060  0.0625
 2698W        W 6217   8.916   9.522   2.298  0.1446  0.0973  0.1139
 2699W        W 6218   1.693   7.107   3.252 -0.0934  0.2113 -0.0635
 2700W        W 6219   3.046   7.364   0.902 -0.0513 -0.2150 -0.0400
 2701W        W 6220   9.039   7.143   1.225 -0.1479 -0.2217 -0.3113
 2702W        W 6221   0.070   4.953   8.789 -0.3341 -0.0133  0.1223
 2703W        W 6222   0.076   1.688   3.340  0.1084 -0.2285  0.0307
 2704W        W 6223   4.427   9.611  10.152 -0.1397  0.3685 -0.1281
 2705W        W 6224   4.451   0.572   2.698  0.2504 -0.0273 -0.3418
 2706W        W 6225   0.214   9.100   0.272 -0.0202  0.0346 -0.1634
 2707W        W 6226   5.806   0.967   9.066  0.3684  0.0744 -0.1997
 2708W        W 6227   8.391   2.413   9.394  0.0833  0.3644  0.2130
 2709W        W 6228   8.499   7.462   3.334  0.2601 -0.0304 -0.0158
 2710W        W 6229   9.578   8.805   1.350 -0.2593  0.3144 -0.1118
 2711W        W 6230   1.060   4.812   8.648 -0.2905  0.1259  0.2962
 2712W        W 6231   0.241   7.015  12.238 -0.0080 -0.1322 -0.3351
 2713W        W 6232   2.294   4.208   0.046 -0.0635  0.1079  0.0062
 2714W        W 6233   4.906   5.279   2.553 -0.0566 -0.1439 -0.1254
 2715W        W 6234   2.549   5.103  12.596 -0.2177  0.0539  0.1783
 2716W        W 6235   3.882   7.094   2.640 -0.1511  0.1398 -0.1146
 2717W        W 6236   8.944   3.605   9.353 -0.2137  0.0838  0.0554
 2718W        W 6237   2.315   4.147   0.782  0.1307 -0.0064  0.2382
 2719W        W 6238   8.983   3.218   8.824  0.0125 -0.2975  0.0334
 2720W        W 6239   9.015   6.516   3.219 -0.1414  0.1886  0.0860
 2721W        W 6240   2.389   5.887  11.371  0.1345 -0.2629  0.2670
 2722W        W 6241   7.925   1.609   2.260 -0.0992  0.0265 -0.0666
 2723W        W 6242   0.296   9.648   2.394  0.0934  0.5475 -0.1611
 2724W        W 6243   5.509   2.374  11.388 -0.0931 -0.1986 -0.0463
 2725W        W 6244   1.487   1.846   2.638 -0.3545 -0.0410  0.0253
 2726W        W 6245   8.607   1.345   0.736 -0.1237  0.0035  0.5939
 2727W        W 6246   2.453   3.684   0.875  0.0571  0.2495 -0.2117
 2728W        W 6247   2.629   5.221   2.875 -0.1277 -0.0310  0.0112
 2729W        W 6248   4.514   1.808  11.896  0.0470 -0.0931  0.1617
 2730W        W 6249   4.694   6.381  12.243  0.2220 -0.0109 -0.0411
 2731W        W 6250   9.402   5.296  12.273  0.1281 -0.0634  0.0053
 2732W        W 6251   0.447   9.438  11.035  0.0000  0.3366  0.1601
 2733W        W 6252   1.252   6.817   8.529  0.0862  0.1811  0.3004
 2734W        W 6253   5.864   8.535  10.944  0.1109  0.0977  0.0263
 2735W        W 6254   7.160   8.685   1.242 -0.1639 -0.1466  0.2053
 2736W        W 6255   7.356   2.124   9.920 -0.5046 -0.2066 -0.1043
 2737W        W 6256   5.188   9.127   2.987  0.2265 -0.2182  0.1962
 2738W        W 6257   5.994   5.224   3.288 -0.1111  0.0263 -0.3947
 2739W        W 6258   0.891   6.766   1.117 -0.0675  0.1865  0.2780
 2740W        W 6259   6.813   4.775   0.054 -0.0697 -0.0188 -0.0695
 2741W        W 6260   5.510   9.477   2.013 -0.0242  0.0049  0.0491
 2742W        W 6261   9.547   0.813   9.425  0.1160 -0.1351 -0.1755
 2743W        W 6262   4.423   4.841  10.376  0.2316  0.0137 -0.2590
 2744W        W 6263   6.388   3.644   2.078 -0.0493  0.0015 -0.2279
 2745W        W 6264   2.649   4.539   1.674 -0.0775 -0.3981  0.0675
 2746W        W 6265   6.821   2.638  11.983 -0.2537 -0.0565 -0.0499
 2747W        W 6266   1.656   9.328  11.106  0.2332 -0.1665  0.2424
 2748W        W 6267   0.445   3.124  10.286  0.1776 -0.1533  0.1651
 2749W        W 6268   1.426   2.269   2.405  0.3663 -0.0321  0.1083
 2750W        W 6269   3.150   0.129   2.384  0.2479  0.2027  0.1837
 2751W        W 6270   5.228   5.102   3.631 -0.0559  0.2267 -0.1110
 2752W        W 6271   6.975   5.811  10.097  0.1641  0.4222 -0.1480
 2753W        W 6272   7.141   6.138   2.988  0.0554 -0.1116  0.3552
 2754W        W 6273   1.161   9.152   0.327  0.2304 -0.0494 -0.2467
 2755W        W 6274   5.389   2.269   3.170 -0.1098  0.1691  0.2215
 2756W        W 6275   8.381   6.004  12.431 -0.1416 -0.1621 -0.1128
 2757W        W 6276   0.627   3.781   3.284  0.2288 -0.2217  0.0233
 2758W        W 6277   7.679   5.203  12.452 -0.1818 -0.0474  0.4354
 2759W        W 6278   2.069   5.847   2.982  0.1358  0.1212 -0.2374
 2760W        W 6279   6.895   3.865   2.447 -0.0545 -0.0180 -0.2034
 2761W        W 6280   0.886   8.607   3.366  0.1988  0.2651  0.0400
 2762W        W 6281   5.125   2.173  11.793  0.2762 -0.1095  0.0283
 2763W        W 6282   0.341   8.066   3.432 -0.0437 -0.1513 -0.5858
 2764W        W 6283   7.268   5.953  10.504  0.2152 -0.2712  0.2561
 2765W        W 6284   5.936   0.121  11.474 -0.0664  0.2138  0.2620
 2766W        W 6285   7.829   2.466   9.898 -0.3132  0.0621  0.2735
 2767W        W 6286   3.664   3.417  11.812 -0.1240 -0.5047 -0.0546
 2768W        W 6287   1.318   8.585   8.487  0.3679  0.1460  0.0172
 2769W        W 6288   9.529   4.969   3.283  0.0582  0.2932  0.0057
 2770W        W 6289   6.831   4.352   8.544  0.2234  0.0222  0.0349
 2771W        W 6290   7.373   3.250   8.996  0.0595 -0.4282 -0.1288
 2772W        W 6291   5.165   0.844   9.680  0.2434  0.0639  0.0248
 2773W        W 6292   8.355   4.126  10.155 -0.0273 -0.3200  0.0811
 2774W        W 6293   4.860   6.997   2.900  0.0519 -0.1796  0.0342
 2775W        W 6294   7.801   2.228   1.830  0.2646  0.0801  0.1856
 2776W        W 6295   8.079   6.828   4.356 -0.0564  0.0950 -0.0837
 2777W        W 6296   3.148   5.710   8.532 -0.1199  0.0078  0.2192
 2778W        W 6297   0.910   4.161   0.001  0.0948 -0.4002  0.0604
 2779W        W 6298   1.106   8.880  11.256 -0.3992 -0.3526 -0.0716
 2780W        W 6299   5.965   1.485   2.607  0.1772  0.4554  0.2238
 2781W        W 6300   8.018   0.083  11.838 -0.3233  0.1478 -0.1265
 2782W        W 6301   0.207   5.499   8.024 -0.1920  0.1097 -0.2929
 2783W        W 6302   5.334   2.756  11.620 -0.0041  0.0498  0.0532
 2784W        W 6303   1.363   4.335  12.484 -0.1282 -0.1533 -0.0148
 2785W        W 6304   1.704   3.959  12.606 -0.0669 -0.0607 -0.3744
 2786W        W 6305   7.635   2.964   9.400  0.0213 -0.2405 -0.1691
 2787W        W 6306   3.615   4.553   9.206 -0.2590  0.4120 -0.2265
 2788W        W 6307   6.246   0.894   3.843  0.4103  0.0192  0.1261
 2789W        W 6308   4.129   0.042   2.109  0.1525 -0.2724 -0.1445
 2790W        W 6309   3.702   2.730   2.605 -0.2573  0.1951  0.1347
 2791W        W 6310   6.739   7.197  10.412 -0.0459  0.0138  0.0791
 2792W        W 6311   3.155   9.074   1.878 -0.0281  0.0090 -0.0301
 2793W        W 6312   2.512   7.230  12.462 -0.4707 -0.1469 -0.1530
 2794W        W 6313   2.143   8.255  10.626 -0.2407  0.2048 -0.1247
 2795W        W 6314   2.903   3.635  11.887  0.0045  0.3053  0.3593
 2796W        W 6315   4.216   9.001   0.418 -0.0605  0.3079 -0.1953
 2797W        W 6316   3.717   5.438  12.512 -0.1478 -0.2822 -0.0843
 2798W        W 6317   1.572   6.722   1.558  0.2996  0.1588 -0.1451
 2799W        W 6318   6.003   3.124  11.323 -0.2777 -0.2956 -0.1422
 2800W        W 6319   0.308   2.032  12.569 -0.1606 -0.5161  0.1235
 2801W        W 6320   5.621   2.122  10.142 -0.0305 -0.0492 -0.1020
 2802W        W 6321   6.320   7.055  10.044  0.2837 -0.1085 -0.0749
 2803W        W 6322   8.195   0.250   9.426 -0.0554  0.3749  0.0308
 2804W        W 6323   8.089   9.593   4.720  0.0409  0.1692 -0.0663
 2805W        W 6324   4.870   2.909   9.553  0.2699 -0.0480 -0.1253
 2806W        W 6325   3.127   7.219   8.676 -0.0300 -0.0054 -0.1526
 2807W        W 6326   6.041   0.107   3.477 -0.1127 -0.0216  0.0601
 2808W        W 6327   3.974   3.734   0.695 -0.2105  0.2865  0.1618
 2809W        W 6328   0.698   0.738  11.684  0.0133  0.0995  0.0754
 2810W        W 6329   1.196   2.259   9.216 -0.0010  0.2431 -0.1581
 2811W        W 6330   1.424   5.604   1.142  0.1246  0.2639 -0.1569
 2812W        W 6331   4.996   3.987   8.985  0.3720  0.0176  0.1928
 2813W        W 6332   7.470   9.323  11.429 -0.2515 -0.0380  0.1135
 2814W        W 6333   6.905   7.338   0.362  0.0340 -0.0996 -0.1527
 2815W        W 6334   1.064   4.394   9.522  0.1919  0.2196  0.1971
 2816W        W 6335   5.009   7.648  12.342  0.2184 -0.1631  0.0587
 2817W        W 6336   7.045   4.564  11.687 -0.0025  0.0887  0.0246
 2818W        W 6337   8.609   4.721   0.169 -0.0602  0.1470 -0.3059
 2819W        W 6338   0.262   1.567   0.908  0.0481  0.0962  0.2520
 2820W        W 6339   8.478   9.569  11.137 -0.0728 -0.2399 -0.0492
 2821W        W 6340   6.492   4.399  11.530  0.3997 -0.0131 -0.2775
 2822W        W 6341   3.335   7.698  10.579 -0.2224 -0.0324 -0.0203
 2823W        W 6342   7.840   6.367   1.381 -0.2035  0.0800 -0.0648
 2824W        W 6343   3.688   2.898  10.192  0.0129  0.0410 -0.1206
 2825W        W 6344   8.503   2.724   2.664  0.2457 -0.0093 -0.0718
 2826W        W 6345   7.487   2.864   1.788  0.0865  0.0098 -0.0293
 2827W        W 6346   0.158   9.334   7.814  0.0836 -0.1216 -0.0131
 2828W        W 6347   1.115   1.854   8.746  0.1018 -0.2577  0.0258
 2829W        W 6348   0.364   7.427  11.444 -0.0665  0.4410 -0.0875
 2830W        W 6349   6.625   6.389   1.160  0.1877  0.1413 -0.1666
 2831W        W 6350   4.699   5.996  11.395 -0.0694 -0.0720  0.1298
 2832W        W 6351   3.195   3.137  10.125 -0.2250  0.0565  0.2446
 2833W        W 6352   0.216   4.163  10.559  0.1300 -0.5142  0.3293
 2834W        W 6353   2.287   6.007   2.566 -0.0296  0.0820 -0.0180
 2835W        W 6354   3.736   4.330   3.464 -0.0062 -0.0417  0.0161
 2836W        W 6355   8.835   2.834   9.528  0.0313  0.1443 -0.1926
 2837W        W 6356   3.225   6.774   9.041  0.1135 -0.2755 -0.3011
 2838W        W 6357   6.623   2.654   8.879  0.0105 -0.2924 -0.2013
 2839W        W 6358   8.449   8.069   3.431 -0.0098 -0.0540  0.2349
 2840W        W 6359   4.186   0.107  12.535  0.1898 -0.0454  0.2278
 2841W        W 6360   1.773   8.280  10.232 -0.3196 -0.0087  0.1909
 2842W        W 6361   8.212   1.911   9.545  0.0150 -0.1500  0.2021
 2843W        W 6362   0.507   7.864   2.997 -0.3599  0.0281  0.1228
 2844W        W 6363   5.128   5.883   0.965  0.2872  0.2688 -0.0510
 2845W        W 6364   3.205   7.918   2.341  0.2317  0.0456 -0.1439
 2846W        W 6365   4.731   4.946   3.992 -0.3374  0.2135  0.2896
 2847W        W 6366   7.655   8.435   3.571  0.0422 -0.0280 -0.3106
 2848W        W 6367   5.899   8.355   2.412 -0.2275 -0.2043  0.3337
 2849W        W 6368   8.531   0.182   2.558  0.1323 -0.3310 -0.0248
 2850W        W 6369   6.643   6.106  11.845 -0.0731  0.1408  0.1372
 2851W        W 6370   8.197   9.661   3.309 -0.1428 -0.0920  0.3498
 2852W        W 6371   1.395   7.621   2.668  0.2121  0.0152  0.1494
 2853W        W 6372   4.709   9.467   0.883  0.1545  0.2296  0.2191
 2854W        W 6373   6.926   1.546   1.490  0.0847 -0.0336 -0.1196
 2855W        W 6374   3.645   2.166   9.788  0.0776 -0.4610 -0.0264
 2856W        W 6375   5.175   1.037   3.113  0.2379  0.2865 -0.1145
 2857W        W 6376   6.908   0.963   9.345  0.0183  0.3230 -0.0872
 2858W        W 6377   9.146   0.077   1.022 -0.0897  0.1190 -0.2463
 2859W        W 6378   5.259   1.963   2.720 -0.4886 -0.2138  0.1185
 2860W        W 6379   6.378   5.326   1.382  0.0095 -0.1103 -0.0679
 2861W        W 6380   2.481   6.794  11.416  0.0631 -0.0799 -0.1654
 2862W        W 6381   1.713   9.350   0.175  0.0689 -0.1000  0.1006
 2863W        W 6382   6.075   4.729   9.812 -0.1645 -0.2471 -0.1261
 2864W        W 6383   5.117   7.544  10.588  0.0607 -0.2072  0.3532
 2865W        W 6384   3.602   3.070   8.408  0.4073 -0.3861  0.2753
 2866W        W 6385   8.125   1.902  10.603  0.1985  0.3307  0.3864
 2867W        W 6386   6.053   4.446   3.734  0.2975 -0.1169  0.0666
 2868W        W 6387   3.110   5.868  10.616  0.0654 -0.3293  0.0688
 2869W        W 6388   6.115   8.726  11.355 -0.0426  0.0820  0.4111
 2870W        W 6389   2.945   1.994   1.258  0.2094  0.1340  0.1603
 2871W        W 6390   5.912   6.303   0.578  0.2102  0.2017 -0.0813
 2872W        W 6391   1.789   6.793   9.250 -0.2666 -0.1907  0.3577
 2873W        W 6392   6.728   7.341   0.916  0.3421 -0.1793  0.1164
 2874W        W 6393   7.079   8.497   9.867  0.2889  0.2996 -0.1660
 2875W        W 6394   1.431   2.677  11.257 -0.0186  0.2365  0.3616
 2876W        W 6395   4.144   4.623  10.725  0.2455 -0.1268  0.1790
 2877W        W 6396   2.414   1.971  11.055 -0.0896  0.0797 -0.0134
 2878W        W 6397   3.951   1.381   8.233  0.1066 -0.2058 -0.2664
 2879W        W 6398   5.758   2.326   3.492 -0.2351  0.0821  0.2198
 2880W        W 6399   4.534   1.605   3.182  0.1218 -0.2219  0.0898
 2881W        W 6400   4.632   3.398   3.621  0.0640  0.2418 -0.0781
 2882W        W 6401   0.392   4.138   9.942  0.0413 -0.1874  0.0516
 2883W        W 6402   0.630   8.267  11.820 -0.1566  0.2244  0.0782
 2884W        W 6403   3.831   2.448  10.692 -0.1199  0.1944 -0.2047
 2885W        W 6404   2.899   2.924   2.198  0.0895 -0.0071  0.1162
 2886W        W 6405   3.259   5.132   1.273  0.1337  0.0946  0.0706
 2887W        W 6406   3.582   9.442   1.935  0.1129 -0.0309 -0.3891
 2888W        W 6407   6.192   3.959   3.017  0.1910  0.0908 -0.2996
 2889W        W 6408   7.075   3.625   9.859  0.1332 -0.0858  0.2023
 2890W        W 6409   0.913   6.178  12.589  0.1432  0.0535 -0.4708
 2891W        W 6410   4.115   2.793  12.152  0.2487 -0.5117  0.0980
 2892W        W 6411   7.526   8.283  11.684  0.0244  0.0806  0.0754
 2893W        W 6412   4.891   0.576  10.679  0.2991  0.1261 -0.2236
 2894W        W 6413   2.439   5.909   3.878  0.0574  0.3292  0.1673
 2895W        W 6414   3.813   4.132  10.122  0.2250  0.3224 -0.0997
 2896W        W 6415   2.668   4.212   0.326 -0.0491 -0.1033 -0.0591
 2897W        W 6416   9.297   5.078   1.277 -0.1200  0.1763 -0.0042
 2898W        W 6417   3.485   6.185   9.793 -0.2320  0.0395 -0.2282
 2899W        W 6418   7.689   7.819   2.183  0.1586 -0.1575  0.0401
 2900W        W 6419   0.908   9.648  11.258 -0.2888 -0.0774 -0.1714
 2901W        W 6420   8.590   4.589   9.346  0.2200  0.2531 -0.0995
 2902W        W 6421   2.292   1.871   2.566 -0.1078 -0.2806  0.3249
 2903W        W 6422   5.847   4.116   8.576  0.1048 -0.1077  0.1356
 2904W        W 6423   8.096   1.325   3.580  0.0146 -0.0562 -0.0216
 2905W        W 6424   2.927   4.997   3.261  0.2922  0.1560  0.2294
 2906W        W 6425   3.020   4.114  11.681  0.1312 -0.0879  0.0190
 2907W        W 6426   7.313   2.197   0.951 -0.1359 -0.0384 -0.0287
 2908W        W 6427   5.010   8.187  11.311  0.0021 -0.1437 -0.0886
 2909W        W 6428   5.894   2.255   5.105 -0.0965 -0.0470 -0.0352
 2910W        W 6429   2.510   7.923   1.763 -0.1147 -0.0214  0.0149
 2911W        W 6430   1.477   5.110   1.431 -0.0565  0.1649 -0.3259
 2912W        W 6431   2.775   1.312  12.330 -0.0996  0.3650 -0.1252
 2913W        W 6432   2.675   4.518  12.515 -0.1996  0.2324  0.0004
 2914W        W 6433   4.875   6.955  11.595 -0.0805  0.1778 -0.0153
 2915W        W 6434   2.172   8.700  12.461 -0.3163 -0.0318  0.0432
 2916W        W 6435   4.026   6.167  10.520  0.1992 -0.3601 -0.2936
 2917W        W 6436   1.408   3.741  10.271  0.1122  0.0147 -0.1099
 2918W        W 6437   6.516   2.571   0.386 -0.0544 -0.2515  0.0495
 2919W        W 6438   9.233   2.493   1.248  0.0036  0.1752  0.1577
 2920W        W 6439   8.893   1.746   1.038 -0.0351  0.1473  0.0392
 2921W        W 6440   8.043   1.922   2.819  0.0815 -0.0898 -0.1797
 2922W        W 6441   6.244   2.009   4.326  0.0897 -0.1006  0.0033
 2923W        W 6442   4.631   6.603   3.163 -0.0586 -0.1028  0.0449
 2924W        W 6443   8.678   4.937   4.050 -0.1561  0.0468 -0.0441
 2925W        W 6444   9.173   6.988   9.555 -0.1226 -0.0204  0.0054
 2926W        W 6445   4.684   8.414   2.998  0.1056  0.2927 -0.1929
 2927W        W 6446   7.425   6.527   3.077 -0.2271 -0.0035  0.1436
 2928W        W 6447   6.747   0.371  10.229  0.3509 -0.2785  0.2677
 2929W        W 6448   8.839   2.814   3.034  0.1415 -0.0911 -0.3045
 2930W        W 6449   5.009   9.475   3.286 -0.3394 -0.0469 -0.0082
 2931W        W 6450   0.183   2.477  11.101  0.0108 -0.0676  0.0044
 2932W        W 6451   2.716   8.941  11.182  0.3118 -0.0595 -0.1678
 2933W        W 6452   8.723   2.351   3.136 -0.4265 -0.1826 -0.3681
 2934W        W 6453   4.179   5.474  11.983 -0.2094 -0.0797  0.0410
 2935W        W 6454   2.100   4.706   8.717  0.1220  0.1883  0.1039
 2936W        W 6455   5.633   8.025   1.541 -0.0041  0.2337  0.1623
 2937W        W 6456   3.717   6.276  12.277 -0.0521 -0.4074  0.1476
 2938W        W 6457   6.083   2.743   9.463 -0.0789 -0.1738 -0.0661
 2939W        W 6458   3.375   5.887  12.295  0.0306  0.3111  0.2007
 2940W        W 6459   3.325   9.414  10.599  0.0995 -0.3799  0.1397
 2941W        W 6460   4.960   6.673  11.990 -0.2162 -0.0196 -0.0901
 2942W        W 6461   2.077   9.126   8.470  0.0089  0.2175 -0.1585
 2943W        W 6462   0.556   4.052   8.644  0.4535 -0.0518 -0.2341
 2944W        W 6463   7.029   7.752   0.611 -0.2951  0.0270  0.2170
 2945W        W 6464   4.223   4.317   1.991 -0.1738  0.0516 -0.1006
 2946W        W 6465   0.982   8.016  11.329  0.0418  0.2689  0.0186
 2947W        W 6466   6.504   9.272   3.536 -0.0668 -0.1481  0.0210
 2948W        W 6467   2.280   9.347  11.505 -0.1533  0.0408  0.2288
 2949W        W 6468   7.724   6.046  10.328 -0.2485  0.2517  0.0215
 2950W        W 6469   6.080   0.759   9.785 -0.3405  0.0921  0.1049
 2951W        W 6470   4.652   0.981   2.379  0.2754 -0.2331 -0.1467
 2952W        W 6471   6.461   4.826  10.894  0.1368 -0.2361 -0.4359
 2953W        W 6472   1.013   9.546  11.750  0.0370 -0.1153 -0.2638
 2954W        W 6473   7.683   2.013   0.645  0.3318 -0.2723  0.1517
 2955W        W 6474   4.434   9.068  12.133  0.1249 -0.0593  0.2030
 2956W        W 6475   8.289   7.937   0.330  0.0113  0.2375 -0.2045
 2957W        W 6476   1.041   5.835   1.425 -0.1073 -0.1322  0.0107
 2958W        W 6477   3.085   6.453   8.155  0.0949 -0.1831 -0.2497
 2959W        W 6478   2.255   1.242  10.428 -0.0083 -0.0219  0.0113
 2960W        W 6479   5.506   3.630  12.521 -0.3041 -0.0029  0.1879
 2961W        W 6480   6.489   7.480  11.384 -0.0900 -0.2847 -0.2446
 2962W        W 6481   0.464   3.322  12.409  0.0834  0.0868  0.0542
 2963W        W 6482   2.647   7.372   9.361  0.1840 -0.0281 -0.0177
 2964W        W 6483   3.299   2.338   8.964  0.0805  0.0646 -0.2566
 2965W        W 6484   8.073   5.911  10.688  0.5777 -0.1049  0.1035
 2966W        W 6485   6.082   3.545   9.935 -0.0860  0.0473 -0.3592
 2967W        W 6486   9.234   2.139   9.838 -0.0384 -0.0707 -0.1955
 2968W        W 6487   2.026   4.355   2.867  0.3175  0.0948  0.0463
 2969W        W 6488   9.387   5.656   4.382  0.1033  0.0726  0.0835
 2970W        W 6489   1.072   5.655  10.171  0.2920  0.4180 -0.0743
 2971W        W 6490   9.539   7.673   0.704  0.4204  0.0970 -0.0921
 2972W        W 6491   6.592   3.016   9.218 -0.3380 -0.1418 -0.0058
 2973W        W 6492   9.319   9.351  10.481  0.3523  0.1371 -0.0703
 2974W        W 6493   9.202   5.012   7.914  0.1405 -0.2863  0.1841
 2975W        W 6494   8.865   8.217  11.206 -0.0220  0.3423  0.5613
 2976W        W 6495   2.830   0.284  11.272 -0.1155 -0.1538  0.0946
 2977W        W 6496   7.321   4.504  12.111  0.0242 -0.4288 -0.0299
 2978W        W 6497   0.124   7.278   8.974  0.3346  0.2852 -0.0101
 2979W        W 6498   2.874   1.596   9.313  0.2038 -0.2563  0.0415
 2980W        W 6499   1.753   5.140   2.502  0.2574  0.1968  0.1872
 2981W        W 6500   9.622   4.683   1.015  0.1849  0.0811 -0.0568
 2982W        W 6501   8.206   2.853   2.228 -0.3465 -0.1755 -0.2339
 2983W        W 6502   7.613   6.980   3.120 -0.0301  0.4121 -0.1978
 2984W        W 6503   6.393   6.177  11.440  0.0251 -0.1876 -0.2126
 2985W        W 6504   0.644   0.413   2.514  0.2438  0.0565  0.0878
 2986W        W 6505   8.087   5.864   3.570 -0.1058  0.0923 -0.1066
 2987W        W 6506   4.861   7.188   1.437 -0.2877 -0.0181  0.0205
 2988W        W 6507   4.996   0.988   0.859  0.1396  0.0354  0.1825
 2989W        W 6508   2.690   6.282   2.672  0.3160 -0.2130 -0.1252
 2990W        W 6509   2.945   7.545   2.662  0.1046  0.0247 -0.2008
 2991W        W 6510   9.644   3.877   3.690  0.2622 -0.2370 -0.0773
 2992W        W 6511   1.672   4.253  10.533 -0.1721  0.1638  0.1390
 2993W        W 6512   3.126   8.899   3.379  0.1253  0.3203  0.2143
 2994W        W 6513   1.409   6.382   1.993  0.2053 -0.2780 -0.2197
 2995W        W 6514   4.028   0.997  11.569 -0.2631 -0.2150 -0.1880
 2996W        W 6515   0.492   4.261  11.560  0.1097 -0.0651 -0.1207
 2997W        W 6516   1.094   9.640   9.370  0.0797 -0.1931 -0.1664
 2998W        W 6517   1.840   7.237   1.986 -0.1751 -0.4577  0.0169
 2999W        W 6518   1.591   4.685  10.367  0.0430  0.1275  0.3443
 3000W        W 6519   1.296   1.241   1.539 -0.1496 -0.1636  0.0263
 3001W        W 6520   0.934   7.183   8.986  0.0276 -0.2469  0.0475
 3002W        W 6521   4.270   6.211  11.370 -0.1992 -0.1064  0.4381
 3003W        W 6522   0.537   5.459  11.381  0.2962  0.2002 -0.1035
 3004W        W 6523   1.320   6.955  12.435  0.2538  0.3841  0.1797
 3005W        W 6524   4.924   1.020   1.906  0.0117  0.1775 -0.2196
 3006W        W 6525   5.436   6.641  10.746 -0.3563  0.1835  0.1805
 3007W        W 6526   3.199   6.427   3.437 -0.1115  0.1402 -0.0361
 3008W        W 6527   0.682   3.734   0.128 -0.0887  0.0323  0.0534
 3009W        W 6528   4.415   1.546  10.505  0.2557  0.1764  0.2120
 3010W        W 6529   0.425   4.173   0.934  0.3011 -0.0743 -0.0974
 3011W        W 6530   9.107   8.651   2.137 -0.0166  0.2118 -0.1180
 3012W        W 6531   0.676   5.458  11.894 -0.1376 -0.3035 -0.1261
 3013W        W 6532   7.672   6.631   9.945 -0.2737 -0.0033 -0.2231
 3014W        W 6533   7.690   6.490   2.639 -0.1980  0.0574  0.1193
 3015W        W 6534   2.305   9.635  10.600 -0.0777  0.1374 -0.0995
 3016W        W 6535   2.682   0.378   3.679 -0.0539 -0.1369  0.0456
 3017W        W 6536   0.082   6.291   9.612  0.1140  0.2619  0.0708
 3018W        W 6537   9.330   4.991   2.797 -0.2853  0.0956  0.2213
 3019W        W 6538   3.360   8.150  10.189 -0.2334 -0.2362 -0.0243
 3020W        W 6539   0.594   9.091   1.814 -0.1147 -0.1464  0.0213
 3021W        W 6540   1.402   4.951   8.983  0.0288  0.2751 -0.4964
 3022W        W 6541   1.418   6.613  10.127 -0.2667 -0.2162  0.0852
 3023W        W 6542   1.133   4.093   2.636  0.0857 -0.3687  0.2577
 3024W        W 6543   3.355   6.554   0.821 -0.1953 -0.1211 -0.2430
 3025W        W 6544   6.545   5.113   2.239 -0.0855 -0.2614  0.0969
 3026W        W 6545   8.638   3.756   2.777 -0.2694  0.2190  0.4029
 3027W        W 6546   5.891   7.813  10.243 -0.2032  0.1088  0.1303
 3028W        W 6547   6.496   4.086   3.931 -0.1782 -0.3149  0.2643
 3029W        W 6548   0.447   6.906  11.399  0.2577  0.2610 -0.1179
 3030W        W 6549   0.208   4.097   8.936 -0.1134  0.0962  0.0910
 3031W        W 6550   0.378   6.830   2.857 -0.0645  0.1626  0.2187
 3032W        W 6551   1.993   6.842   2.502  0.2266 -0.0482  0.4671
 3033W        W 6552   9.153   5.295   3.132 -0.0392 -0.4289  0.1769
 3034W        W 6553   1.467   8.170   0.460  0.1089 -0.1180 -0.0007
 3035W        W 6554   6.425   6.928   0.781  0.0548  0.0872 -0.3238
 3036W        W 6555   4.435   0.576   3.216 -0.1480  0.0526 -0.1871
 3037W        W 6556   9.684   8.299  10.081  0.2510 -0.1058  0.2985
 3038W        W 6557   1.280   6.605   9.290  0.0689  0.1131 -0.2817
 3039W        W 6558   0.199   5.432   9.547 -0.0208  0.2715  0.2232
 3040W        W 6559   8.043   0.690   9.110  0.2269  0.1128 -0.0262
 3041W        W 6560   6.818   7.775   9.152 -0.2820 -0.0543  0.1514
 3042W        W 6561   4.931   0.459   4.408 -0.1173 -0.0108 -0.0568
 3043W        W 6562   3.273   4.715   9.516  0.3042 -0.0408  0.2661
 3044W        W 6563   4.765   2.369   1.642  0.0435  0.3689 -0.0400
 3045W        W 6564   4.348   3.101   1.368 -0.0372  0.3998  0.2015
 3046W        W 6565   5.849   5.432  10.856  0.3785 -0.1738 -0.0943
 3047W        W 6566   0.648   1.530   7.898 -0.2532 -0.3104 -0.0805
 3048W        W 6567   9.642   8.281   3.155 -0.1149 -0.3353 -0.1293
 3049W        W 6568   6.689   8.213   9.307 -0.1191  0.1180  0.0036
 3050W        W 6569   0.585   8.909   9.703 -0.2631  0.1071  0.1477
 3051W        W 6570   2.070   7.801   3.344 -0.0237 -0.1747 -0.3681
 3052W        W 6571   6.203   2.847   8.664 -0.0177  0.1275  0.2008
 3053W        W 6572   6.033   7.074  12.126  0.0140 -0.2006 -0.2739
 3054W        W 6573   1.573   5.970  10.841 -0.2088 -0.2024  0.1515
 3055W        W 6574   7.321   8.577  12.086  0.0799  0.0429  0.0229
 3056W        W 6575   0.571   1.741   2.513 -0.0331 -0.2042  0.1030
 3057W        W 6576   2.154   5.640   3.478 -0.2074  0.0846 -0.0409
 3058W        W 6577   2.611   9.560  12.418 -0.1956  0.3043 -0.2450
 3059W        W 6578   8.293   1.344  10.467  0.1687  0.0630 -0.1209
 3060W        W 6579   2.896   3.182   8.800 -0.4693 -0.1895  0.3290
 3061W        W 6580   1.591   0.494  12.507  0.0928 -0.0240 -0.0561
 3062W        W 6581   9.310   0.764  11.610  0.0127  0.0800  0.2620
 3063W        W 6582   6.602   8.769   2.931  0.1909 -0.0040  0.1516
 3064W        W 6583   4.632   5.640   1.167 -0.0330 -0.0125  0.0065
 3065W        W 6584   5.686   3.805  10.678  0.0083  0.2081 -0.3103
 3066W        W 6585   1.455   2.807   8.884  0.0275  0.1929 -0.1965
 3067W        W 6586   7.521   8.463  11.166  0.3726 -0.1961  0.3098
 3068W        W 6587   7.113   7.206  10.779  0.0340 -0.2094  0.2447
 3069W        W 6588   8.897   5.013   2.147 -0.0640 -0.1141  0.0418
 3070W        W 6589   3.562   2.571   1.691 -0.0320 -0.1613 -0.1955
 3071W        W 6590   3.940   6.263   0.980 -0.3414  0.0216  0.1757
 3072W        W 6591   0.760   7.563   4.285  0.1872  0.0654 -0.1425
 3073W        W 6592   6.154   8.467   2.859  0.2265  0.1687  0.0809
 3074W        W 6593   7.310   5.175   1.297  0.1089 -0.1226  0.3625
 3075W        W 6594   1.059   7.825   8.251 -0.3862  0.3116  0.1421
 3076W        W 6595   4.307   4.286   8.389 -0.0386 -0.1511 -0.1669
 3077W        W 6596   2.413   8.999   1.807 -0.4195  0.2915  0.1196
 3078W        W 6597   9.620   5.861   1.157 -0.0405  0.1106 -0.0424
 3079W        W 6598   9.500   5.382   7.658  0.1211  0.0856 -0.0857
 3080W        W 6599   2.385   0.413   2.674 -0.1235  0.0970  0.0446
 3081W        W 6600   0.426   0.432  10.430 -0.0310 -0.2646  0.1266
 3082W        W 6601   0.470   2.895   1.507 -0.2324 -0.0959  0.2512
 3083W        W 6602   4.916   0.097  10.000  0.0025  0.0280 -0.0393
 3084W        W 6603   3.562   9.233  11.126  0.1710 -0.1447 -0.3444
 3085W        W 6604   2.716   1.234   8.343 -0.1646  0.1076  0.1627
 3086W        W 6605   8.341   0.589   8.711 -0.0964 -0.2189 -0.1438
 3087W        W 6606   2.462   6.205   9.895 -0.1700 -0.0786  0.4940
 3088W        W 6607   0.550   9.371  11.518  0.0456 -0.2848  0.0313
 3089W        W 6608   3.282   7.710  11.982  0.2821  0.2387 -0.1156
 3090W        W 6609   3.740   3.889   9.635 -0.0088 -0.1154 -0.0279
 3091W        W 6610   6.384   5.299   8.722  0.0509  0.1268 -0.1503
 3092W        W 6611   4.561   0.104   0.227  0.1401 -0.1433  0.1840
 3093W        W 6612   9.023   0.165  11.908  0.2070 -0.1764 -0.1818
 3094W        W 6613   4.409   0.610  10.617 -0.1181  0.0904  0.0493
 3095W        W 6614   1.341   7.167   0.303  0.0664  0.0336  0.3735
 3096W        W 6615   3.375   2.055   1.013 -0.1579  0.0653 -0.0456
 3097W        W 6616   7.701   8.781  11.811 -0.2441  0.1354  0.1406
 3098W        W 6617   0.444   8.360  10.345 -0.2179 -0.0272  0.0859
 3099W        W 6618   6.273   3.259   0.674  0.1577  0.2312  0.1025
 3100W        W 6619   1.136   8.961   0.781  0.2970  0.1153 -0.1491
 3101W        W 6620   8.972   1.694  11.504  0.0588  0.2356  0.1024
 3102W        W 6621   0.177   0.099  11.535  0.0636 -0.1284  0.0611
 3103W        W 6622   7.903   2.426   3.630  0.3836 -0.2390 -0.0044
 3104W        W 6623   3.506   6.179   0.489 -0.0376 -0.3585 -0.2720
 3105W        W 6624   6.183   9.644   1.179 -0.0427 -0.1217  0.0628
 3106W        W 6625   7.366   0.740   3.933  0.4041  0.0332 -0.0350
 3107W        W 6626   1.532   8.705  12.187  0.1962  0.1759 -0.1134
 3108W        W 6627   2.551   6.560  10.796 -0.0412 -0.1317 -0.0125
 3109W        W 6628   8.669   4.192  11.973 -0.6348 -0.0987 -0.1414
 3110W        W 6629   9.207   3.635  11.410  0.0727 -0.0371  0.0848
 3111W        W 6630   0.860   2.341   4.973 -0.0884  0.0933 -0.0486
 3112W        W 6631   8.848   6.447   0.971  0.3375 -0.0434  0.3184
 3113W        W 6632   1.837   1.062  10.707 -0.0034  0.1107 -0.3022
 3114W        W 6633   5.092   1.298   1.525  0.0598 -0.4876  0.0958
 3115W        W 6634   2.660   2.799  10.435  0.5188  0.0114 -0.1446
 3116W        W 6635   5.163   6.434  12.580 -0.1357  0.1818 -0.0148
 3117W        W 6636   0.581   7.870   9.584  0.2409  0.0787 -0.1129
 3118W        W 6637   3.490   6.207  10.615  0.3944  0.1626  0.0128
 3119W        W 6638   2.862   5.232  10.268 -0.1358 -0.1260 -0.1636
 3120W        W 6639   3.573   2.229  12.604 -0.1867  0.0833  0.0769
 3121W        W 6640   9.199   1.114   2.841 -0.1500  0.2141 -0.1222
 3122W        W 6641   2.124   3.335  12.225 -0.1846 -0.1035 -0.0354
 3123W        W 6642   2.035   7.479   0.920  0.3389 -0.2035  0.0817
 3124W        W 6643   2.585   3.790   0.427  0.0518  0.1586 -0.1689
 3125W        W 6644   0.107   3.332   9.506  0.1484  0.1502 -0.0857
 3126W        W 6645   9.435   3.954  10.995  0.1556  0.1379 -0.1446
 3127W        W 6646   7.513   2.218  11.236 -0.1710 -0.0652  0.1678
 3128W        W 6647   3.311   5.523  11.964  0.0918 -0.0837 -0.0362
 3129W        W 6648   5.516   5.217  11.198 -0.2213  0.0613  0.0636
 3130W        W 6649   5.699   8.530  12.231 -0.1035  0.2479  0.0245
 3131W        W 6650   4.190   7.308  10.386 -0.0153  0.0880 -0.3795
 3132W        W 6651   5.902   4.901  11.054 -0.2551 -0.0045 -0.2161
 3133W        W 6652   1.513   8.324  10.670 -0.3616 -0.0322  0.2059
 3134W        W 6653   3.561   3.005   9.729  0.1014 -0.2206 -0.3107
 3135W        W 6654   1.149   8.401  10.990 -0.2406 -0.3985 -0.0644
 3136W        W 6655   3.932   2.958   1.786  0.2312  0.0354 -0.1038
 3137W        W 6656   7.201   5.145   2.793 -0.0298 -0.1445 -0.0034
 3138W        W 6657   8.252   2.548   0.847  0.1495 -0.0783 -0.3092
 3139W        W 6658   8.375   7.238  11.326 -0.0829  0.0941 -0.0066
 3140W        W 6659   7.657   8.470  10.072 -0.1279 -0.2116  0.1087
 3141W        W 6660   9.386   5.335   9.517 -0.1746  0.2159  0.0123
 3142W        W 6661   6.399   5.954   3.750  0.0209  0.0208 -0.2712
 3143W        W 6662   0.865   1.827  11.255 -0.0700  0.2648 -0.2586
 3144W        W 6663   5.452   3.573   2.428 -0.2312  0.0330  0.0536
 3145W        W 6664   2.313   8.389  10.116  0.2916 -0.0295 -0.0527
 3146W        W 6665   2.971   8.592  11.509 -0.0712  0.2372  0.2712
 3147W        W 6666   6.034   3.090  11.834  0.0799  0.0546 -0.1010
 3148W        W 6667   2.462   5.998  11.877  0.1434 -0.1265  0.1384
 3149W        W 6668   0.411   8.659   8.868 -0.0474 -0.0044  0.0179
 3150W        W 6669   9.654   2.553  12.238 -0.1379 -0.1542  0.3672
 3151W        W 6670   7.988   5.665   9.296  0.1141  0.0026  0.0722
 3152W        W 6671   4.295   8.922   1.395  0.0086  0.0037  0.2116
 3153W        W 6672   8.359   0.739   2.602  0.0552  0.0459  0.0414
 3154W        W 6673   4.812   3.864   3.028 -0.0880 -0.1538  0.1708
 3155W        W 6674   0.462   5.529   8.817 -0.1469 -0.1559 -0.1481
 3156W        W 6675   2.908   2.552  11.707  0.1070  0.2098 -0.3339
 3157W        W 6676   0.170   3.136   8.904  0.0426  0.0449  0.1660
 3158W        W 6677   6.861   3.137   7.884 -0.1802 -0.1385 -0.1003
 3159W        W 6678   3.313   8.178   9.087  0.2263  0.1962  0.1703
 3160W        W 6679   4.439   5.111   0.948  0.3898  0.0441  0.3864
 3161W        W 6680   3.217   1.602  10.596  0.0426 -0.1306 -0.1760
 3162W        W 6681   4.641   9.501   2.171  0.0956 -0.1237  0.1146
 3163W        W 6682   6.367   8.285  11.439 -0.2529 -0.2091 -0.0796
 3164W        W 6683   1.753   1.196   1.309 -0.1714  0.3851  0.0700
 3165W        W 6684   0.045   5.362   9.073 -0.0416 -0.1358 -0.0058
 3166W        W 6685   8.838   3.343  11.307 -0.0230 -0.1766  0.0387
 3167W        W 6686   4.864   7.125  10.220 -0.2319  0.0414  0.2490
 3168W        W 6687   0.255   4.410   1.317  0.0961  0.4163  0.1331
 3169W        W 6688   0.510   2.958   2.174 -0.0751  0.2490 -0.2166
 3170W        W 6689   5.933   0.292   0.643 -0.2243 -0.1209 -0.1763
 3171W        W 6690   9.576   4.159   1.159 -0.0837 -0.1795  0.0078
 3172W        W 6691   4.080   4.506   8.787 -0.0242 -0.1023 -0.1170
 3173W        W 6692   1.408   7.140   4.110 -0.2008 -0.0207  0.0969
 3174W        W 6693   8.173   3.501   1.417 -0.0292 -0.2365  0.0583
 3175W        W 6694   0.504   7.553  10.209 -0.1917  0.0488  0.2603
 3176W        W 6695   6.508   9.533   1.684  0.0471 -0.0894  0.1076
 3177W        W 6696   9.036   2.074   1.420  0.0854 -0.1320  0.2800
 3178W        W 6697   2.694   2.494   9.581  0.2824 -0.1360 -0.0054
 3179W        W 6698   0.444   8.836   4.381  0.0917  0.3948 -0.1352
 3180W        W 6699   9.177   4.142  11.628  0.2461 -0.4269  0.2577
 3181W        W 6700   6.699   0.461   4.812  0.1616  0.2839  0.0796
 3182W        W 6701   9.486   0.407  11.906 -0.2368 -0.0302  0.0082
 3183W        W 6702   3.998   2.940   0.020 -0.1936 -0.5421 -0.0632
 3184W        W 6703   6.408   8.518   0.517  0.0586 -0.1212  0.2965
 3185W        W 6704   8.573   7.648   2.465  0.1746 -0.5641 -0.1016
 3186W        W 6705   8.701   5.793   2.589  0.1447 -0.1590  0.3138
 3187W        W 6706   8.975   1.263   2.288 -0.1057  0.0742 -0.0881
 3188W        W 6707   7.794   4.285  10.213 -0.1548  0.1697 -0.2309
 3189W        W 6708   5.571   2.361   2.560  0.0340  0.1065  0.1127
 3190W        W 6709   5.064   8.168   2.263  0.2750 -0.0998  0.2984
 3191W        W 6710   4.092   3.670   9.970  0.2369  0.2411 -0.0931
 3192W        W 6711   8.036   7.454   2.472  0.0080  0.2444 -0.2942
 3193W        W 6712   9.577   9.065   1.748  0.0414 -0.1094 -0.1269
 3194W        W 6713   7.334   0.419   1.772  0.1273 -0.2295 -0.0353
 3195W        W 6714   6.872   1.341   0.987 -0.1237 -0.0566  0.3517
 3196W        W 6715   7.550   3.304   2.677 -0.2908 -0.1516  0.0236
 3197W        W 6716   2.663   3.018  11.101  0.3345  0.1216  0.3705
 3198W        W 6717   3.874   6.171   1.566 -0.3203  0.0282  0.3365
 3199W        W 6718   6.840   9.342   0.622 -0.2092  0.3428  0.4811
 3200W        W 6719   8.438   4.490   3.612 -0.1616  0.3455 -0.3395
 3201W        W 6720   9.038   1.581   2.673  0.4133  0.0335 -0.1912
 3202W        W 6721   5.305   0.433  10.010  0.0225 -0.1618 -0.0547
 3203W        W 6722   2.731   7.122   2.918  0.1146  0.2035 -0.0399
 3204W        W 6723   2.975   8.027   1.886  0.3124  0.2612 -0.1081
 3205W        W 6724   1.588   2.382   9.804  0.2106 -0.0025 -0.0421
 3206W        W 6725   5.130   3.974   1.175  0.0779  0.1158  0.1219
 3207W        W 6726   2.805   2.137   1.808  0.0652 -0.0649 -0.1434
 3208W        W 6727   1.708   8.341   7.886 -0.1150 -0.1436 -0.0135
 3209W        W 6728   3.933   9.667   9.030  0.2277 -0.2041 -0.0126
 3210W        W 6729   9.456   6.371   1.783 -0.1729  0.1601  0.3570
 3211W        W 6730   3.746   5.314   3.561  0.0792  0.2773  0.0113
 3212W        W 6731   6.825   0.084   2.313 -0.0951 -0.2262 -0.1829
 3213W        W 6732   4.901   2.977   4.046  0.1621  0.5954  0.1447
 3214W        W 6733   1.838   0.849   0.382  0.0015  0.1954 -0.1720
 3215W        W 6734   3.577   4.715   1.372  0.0862 -0.2275 -0.0911
 3216W        W 6735   1.342   0.825   2.987  0.1318 -0.0723  0.1883
 3217W        W 6736   5.930   3.412  12.401  0.1271  0.1233 -0.0029
 3218W        W 6737   9.326   0.705   4.669 -0.0592 -0.2440 -0.1223
 3219W        W 6738   3.598   9.664   1.463  0.1389 -0.0190  0.2992
 3220W        W 6739   6.385   0.355   2.228  0.0882  0.0320  0.0785
 3221W        W 6740   6.128   5.830  11.745  0.0890  0.0784  0.3704
 3222W        W 6741   4.439   2.506   0.787 -0.1958 -0.1018  0.1024
 3223W        W 6742   5.517   0.439   3.558 -0.0012  0.0946 -0.1950
 3224W        W 6743   4.876   2.046  10.961  0.2351 -0.0623  0.0144
 3225W        W 6744   9.680   5.100   3.763  0.1496  0.0470 -0.0040
 3226W        W 6745   1.388   7.745  11.191  0.0414 -0.2910  0.1374
 3227W        W 6746   8.965   0.419   8.685 -0.3399  0.3061  0.0769
 3228W        W 6747   3.201   9.111   8.674 -0.0777 -0.0098 -0.2569
 3229W        W 6748   8.164   7.056   0.738  0.0119 -0.0453  0.0096
 3230W        W 6749   4.239   5.379   1.870  0.0615 -0.0549 -0.3275
 3231W        W 6750   2.453   3.609   1.562  0.1683  0.0273  0.1277
 3232W        W 6751   8.237   6.551   2.254  0.3103 -0.0326  0.1018
 3233W        W 6752   3.176   8.803   2.829 -0.0343  0.0021 -0.2399
 3234W        W 6753   2.696   6.001  10.339 -0.0717  0.0163  0.0771
 3235W        W 6754   8.742   4.435   9.837  0.1785 -0.0418  0.3053
 3236W        W 6755   2.422   8.617  10.950 -0.0880  0.4764 -0.0640
 3237W        W 6756   9.064   5.949  10.418  0.2185  0.2181 -0.2329
 3238W        W 6757   4.153   8.484   0.359 -0.0681 -0.0526 -0.1399
 3239W        W 6758   9.645   6.694  11.363 -0.0544 -0.1860 -0.2970
 3240W        W 6759   8.069   7.763   2.904  0.1996 -0.1679  0.0281
 3241W        W 6760   4.067   4.865   0.632  0.1553 -0.1839  0.0837
 3242W        W 6761   1.784   5.064  12.434 -0.1182  0.2869  0.2543
 3243W        W 6762   0.631   6.544   0.774 -0.1176 -0.1453  0.1290
 3244W        W 6763   6.909   4.335   2.355  0.4929  0.0743 -0.6263
 3245W        W 6764   5.760   3.140   0.549 -0.0922  0.1789  0.1999
 3246W        W 6765   0.347   5.067   8.403 -0.2438  0.1262  0.0795
 3247W        W 6766   8.391   1.132   4.828 -0.1939 -0.1816 -0.4782
 3248W        W 6767   0.871   8.133   3.263 -0.1177  0.2613  0.1698
 3249W        W 6768   7.753   4.245   4.037  0.0587 -0.1153  0.1128
 3250W        W 6769   8.382   6.955   3.476 -0.2693 -0.1868 -0.3139
 3251W        W 6770   7.419   6.929   9.401 -0.0435 -0.1892  0.2037
 3252W        W 6771   4.885   2.704   9.003 -0.1253  0.0250 -0.4806
 3253W        W 6772   8.639   4.001   8.510  0.2723  0.2995  0.1244
 3254W        W 6773   8.275   5.591   9.977  0.2664 -0.0083  0.1175
 3255W        W 6774   4.201   6.955   0.136 -0.2815  0.3177 -0.0251
 3256W        W 6775   7.170   4.005  12.276 -0.2364 -0.0992 -0.2009
 3257W        W 6776   6.292   3.256   9.583  0.1004  0.0038 -0.2527
 3258W        W 6777   5.441   7.570  11.018 -0.4216  0.0692 -0.0641
 3259W        W 6778   8.630   2.457   1.208  0.0948 -0.0874 -0.0017
 3260W        W 6779   2.100   6.237  11.126  0.0470 -0.1357 -0.0025
 3261W        W 6780   6.367   8.233   1.480  0.2117  0.1282  0.0449
 3262W        W 6781   5.328   8.958   2.015 -0.1776 -0.1794 -0.2383
 3263W        W 6782   1.936   6.316   8.532 -0.0387  0.0586  0.0401
 3264W        W 6783   9.618   1.242   3.586 -0.1278 -0.2319 -0.0001
 3265W        W 6784   1.924   5.967   9.835  0.0023 -0.2161 -0.0160
 3266W        W 6785   2.708   5.957   0.682 -0.0694 -0.1501 -0.1961
 3267W        W 6786   7.350   7.179   0.009 -0.0744 -0.0804 -0.2200
 3268W        W 6787   4.873   9.346  10.236  0.0702  0.1900  0.3196
 3269W        W 6788   0.390   4.404   4.674 -0.0433 -0.0362  0.2771
 3270W        W 6789   1.495   2.486   1.576 -0.2732  0.0714 -0.0880
 3271W        W 6790   1.822   5.882   1.206  0.0584  0.1174 -0.2670
 3272W        W 6791   6.001   9.661   9.468  0.3231 -0.1628  0.1070
 3273W        W 6792   8.694   7.743  10.690 -0.1371 -0.0729  0.0215
 3274W        W 6793   3.594   2.516   1.219  0.1902 -0.0566  0.0624
 3275W        W 6794   2.222   6.582   8.959 -0.0924  0.4561 -0.0890
 3276W        W 6795   0.362   3.317   1.776  0.1519 -0.0448  0.4119
 3277W        W 6796   8.840   0.821   9.501 -0.0231 -0.0819 -0.3646
 3278W        W 6797   2.683   1.346   9.720  0.1594 -0.1323  0.3228
 3279W        W 6798   9.617   4.420  12.202 -0.1856  0.0493 -0.0418
 3280W        W 6799   4.129   0.350   3.613  0.1941  0.0420 -0.2251
 3281W        W 6800   7.732   3.074  11.066 -0.1821 -0.2622  0.1703
 3282W        W 6801   2.193   6.338   3.867 -0.0100  0.0203  0.1025
 3283W        W 6802   2.926   3.358   4.084 -0.0738  0.0368  0.1382
 3284W        W 6803   9.069   2.992   1.667 -0.3506  0.1265 -0.0096
 3285W        W 6804   2.380   4.041   3.295  0.0523  0.0293 -0.2676
 3286W        W 6805   9.656   2.878  10.930 -0.1762  0.0709  0.0593
 3287W        W 6806   6.377   2.820   4.374  0.3247 -0.1755 -0.2321
 3288W        W 6807   8.433   5.660  12.051 -0.1758 -0.2186 -0.0068
 3289W        W 6808   5.136   6.094  10.478 -0.2246 -0.0678 -0.2608
 3290W        W 6809   7.279   8.972  10.075 -0.0396  0.1559  0.1289
 3291W        W 6810   9.673   2.320   2.048 -0.0932  0.4272 -0.3085
 3292W        W 6811   5.097   7.800   9.591  0.1114 -0.3143 -0.3986
 3293W        W 6812   9.015   6.400   8.996 -0.1269 -0.0763  0.2794
 3294W        W 6813   1.539   7.912   0.050  0.1295  0.1261 -0.1380
 3295W        W 6814   8.394   7.225  11.859 -0.1102  0.2844  0.0743
 3296W        W 6815   6.989   2.976   8.768  0.5311 -0.1434 -0.4496
 3297W        W 6816   6.558   5.086   3.931 -0.2670  0.0014  0.0867
 3298W        W 6817   9.153   1.556   1.987  0.1049  0.0536  0.1950
 3299W        W 6818   0.876   7.323   9.820 -0.2229  0.0252 -0.0907
 3300W        W 6819   0.813   0.129   0.358  0.2900 -0.0433 -0.2433
 3301W        W 6820   0.042   8.903  12.111  0.2667 -0.0505 -0.2852
 3302W        W 6821   6.542   3.711   0.825  0.5764  0.3885  0.0155
 3303W        W 6822   9.168   6.018   4.032  0.0977 -0.3918 -0.0227
 3304W        W 6823   2.347   5.206   3.250 -0.0037 -0.1169 -0.2048
 3305W        W 6824   0.141   8.271  11.559 -0.2031 -0.3572 -0.1929
 3306W        W 6825   3.421   3.636   2.391  0.0753 -0.2639  0.3089
 3307W        W 6826   2.036   8.171  12.209 -0.2450  0.0030 -0.1635
 3308W        W 6827   4.817   0.142   2.526  0.0099  0.0286  0.0904
 3309W        W 6828   6.258   2.085  10.802  0.1703  0.0889 -0.1885
 3310W        W 6829   3.875   0.510  12.565  0.2807  0.1563  0.0479
 3311W        W 6830   2.774   5.249   1.231 -0.0336  0.1225  0.2332
 3312W        W 6831   8.804   5.768  11.725  0.3580 -0.2830 -0.0663
 3313W        W 6832   6.243   7.488   0.873  0.3054 -0.0330  0.1442
 3314W        W 6833   8.781   3.486  12.491  0.0604 -0.0073 -0.1453
 3315W        W 6834   8.671   6.336  11.292 -0.0993  0.0582  0.0997
 3316W        W 6835   1.190   2.297   8.651  0.0033 -0.2279 -0.0360
 3317W        W 6836   0.640   3.120   3.450 -0.0322 -0.0626 -0.0012
 3318W        W 6837   3.308   9.522   2.756  0.0749 -0.3417  0.0028
 3319W        W 6838   5.191   2.563   9.380  0.1418 -0.1773  0.0379
 3320W        W 6839   1.841   2.300  11.922  0.0776  0.2648  0.1301
 3321W        W 6840   8.718   0.856   8.618 -0.2225  0.0364 -0.2204
 3322W        W 6841   9.216   0.694  10.702  0.0600 -0.1247  0.0131
 3323W        W 6842   9.451   0.611   8.567  0.0292  0.0532  0.0243
 3324W        W 6843   4.311   1.456   8.569 -0.0485  0.3303  0.0656
 3325W        W 6844   8.112   6.231   0.922 -0.0200 -0.1364  0.2423
 3326W        W 6845   1.223   4.929  11.142  0.4565 -0.1384 -0.1793
 3327W        W 6846   8.563   9.419  12.551 -0.0281  0.2720  0.1392
 3328W        W 6847   2.984   3.936  11.167  0.1500 -0.0428 -0.2041
 3329W        W 6848   6.862   6.372   0.455 -0.0761 -0.0619 -0.1033
 3330W        W 6849   2.579   3.923  11.530 -0.0045 -0.0068 -0.1158
 3331W        W 6850   0.244   0.494   8.576  0.1124  0.0335 -0.0035
 3332W        W 6851   9.479   9.010  11.090 -0.0914  0.1259  0.2534
 3333W        W 6852   0.920   0.518   1.656 -0.1004 -0.1108 -0.0305
 3334W        W 6853   7.331   8.802   3.378 -0.0885 -0.0019 -0.0613
 3335W        W 6854   0.120   5.513  11.730 -0.0804 -0.1978  0.2547
 3336W        W 6855   3.524   4.620   3.107  0.3683  0.2502  0.1299
 3337W        W 6856   7.228   1.758   3.088 -0.0567 -0.2414 -0.1862
 3338W        W 6857   4.857   0.772   3.352  0.0205  0.1848 -0.1407
 3339W        W 6858   1.825   1.150   2.973  0.3202  0.5476  0.1106
 3340W        W 6859   5.869   3.538  11.088  0.3924  0.0287 -0.0613
 3341W        W 6860   5.245   3.561   0.788 -0.1820 -0.2359 -0.0144
 3342W        W 6861   0.649   7.734  11.716  0.0437  0.1487 -0.0420
 3343W        W 6862   2.391   7.756   2.252 -0.1957  0.0753 -0.3179
 3344W        W 6863   1.003   2.007   2.799  0.0449  0.0926  0.0093
 3345W        W 6864   2.691   3.407  11.472  0.0362 -0.0676  0.0844
 3346W        W 6865   5.838   1.634  12.442 -0.1833  0.2402  0.1457
 3347W        W 6866   7.200   6.355  10.028  0.3281 -0.4550 -0.1985
 3348W        W 6867   8.912   5.799  11.264 -0.0548 -0.0404 -0.1456
 3349W        W 6868   2.654   4.078  12.062  0.0788 -0.1577  0.0971
 3350W        W 6869   9.345   6.308   8.570 -0.2651  0.0445 -0.2299
 3351W        W 6870   8.170   8.827  11.662 -0.0483 -0.4807  0.0488
 3352W        W 6871   9.381   4.314  10.508  0.1071 -0.1261 -0.1501
 3353W        W 6872   3.892   8.425  11.641  0.0551  0.2381  0.2444
 3354W        W 6873   2.557   2.346   1.452  0.0836 -0.1167  0.0861
 3355W        W 6874   0.717   8.732   9.266  0.1905  0.3495  0.2070
 3356W        W 6875   5.959   4.182   9.283 -0.2330  0.3013 -0.0235
 3357W        W 6876   3.275   1.971  12.225 -0.2272 -0.0700 -0.0422
 3358W        W 6877   1.227   6.649   0.272 -0.0486  0.1870 -0.2074
 3359W        W 6878   6.798   4.584   8.967 -0.0133 -0.0510  0.0565
 3360W        W 6879   7.382   0.648  10.110 -0.0892 -0.0091  0.0367
 3361W        W 6880   3.107   4.301   4.608 -0.0571  0.2678 -0.0820
 3362W        W 6881   5.608   4.388  12.021  0.1039  0.0337 -0.0343
 3363W        W 6882   9.157   0.442   9.379 -0.2368  0.1482  0.0440
 3364W        W 6883   1.982   5.353   9.160  0.0210  0.0848  0.0854
 3365W        W 6884   2.223   3.654   0.058 -0.1672 -0.1760  0.0069
 3366W        W 6885   8.222   6.421  12.141  0.0974 -0.4033  0.4905
 3367W        W 6886   7.573   2.483   8.562  0.0409  0.0675  0.1649
 3368W        W 6887   9.080   5.470   1.761  0.2866 -0.0647  0.3017
 3369W        W 6888   7.313   2.498  12.415 -0.0942 -0.3486 -0.1750
 3370W        W 6889   8.152   4.229  11.094 -0.0663  0.1397 -0.0379
 3371W        W 6890   6.107   8.939   2.783  0.0733  0.2254 -0.1289
 3372W        W 6891   8.277   1.435   1.541 -0.1232  0.1433 -0.1416
 3373W        W 6892   5.297   7.922   3.325  0.0723  0.0914 -0.2270
 3374W        W 6893   7.925   5.955  12.175 -0.0968  0.1218 -0.3442
 3375W        W 6894   3.130   6.247   2.457 -0.0030 -0.1406  0.0423
 3376W        W 6895   0.500   2.197   9.971  0.1691  0.2563  0.2170
 3377W        W 6896   4.602   7.741   9.729 -0.0807 -0.0488 -0.1048
 3378W        W 6897   4.227   1.156   0.923  0.0616 -0.0369 -0.2403
 3379W        W 6898   4.024   1.269   8.997 -0.2203  0.3621  0.4299
 3380W        W 6899   8.515   1.356  10.941 -0.1419 -0.0389 -0.0696
 3381W        W 6900   5.987   4.557   8.406 -0.2192 -0.1112 -0.0925
 3382W        W 6901   8.180   1.879   4.317 -0.1218  0.0860 -0.2082
 3383W        W 6902   8.844   5.204   9.755 -0.1916 -0.0679  0.0783
 3384W        W 6903   3.800   4.630  11.427 -0.2402 -0.1012  0.1699
 3385W        W 6904   3.191   2.098   0.307  0.1208  0.2155  0.2051
 3386W        W 6905   1.312   8.892  11.796 -0.1525  0.2593  0.2592
 3387W        W 6906   2.281   6.797   9.929  0.1376 -0.0418  0.1130
 3388W        W 6907   9.421   7.376   0.249  0.3021 -0.1821 -0.0695
 3389W        W 6908   5.736   0.321   9.804 -0.0094 -0.0900 -0.1792
 3390W        W 6909   0.123   8.909   0.715  0.2499  0.2686  0.1799
 3391W        W 6910   6.119   3.134   9.100 -0.3099  0.0769  0.0669
 3392W        W 6911   3.649   0.095  10.727  0.0371  0.0187  0.2427
 3393W        W 6912   6.039   0.977   1.223  0.0899 -0.2378  0.1799
 3394W        W 6913   6.015   7.811   1.760  0.0835  0.1517 -0.3586
 3395W        W 6914   7.661   4.006  11.042  0.1932  0.1849 -0.1004
 3396W        W 6915   4.271   3.066   8.737  0.1524 -0.0111  0.0909
 3397W        W 6916   2.577   0.786  12.492 -0.1354 -0.0297 -0.0726
 3398W        W 6917   4.375   0.785   3.794  0.2619  0.1012 -0.0245
 3399W        W 6918   8.900   0.065  10.148  0.1392 -0.0799 -0.0177
 3400W        W 6919   6.487   3.881  10.171 -0.0118  0.3000 -0.0445
 3401W        W 6920   7.476   4.946  10.041  0.3416 -0.0233  0.1103
 3402W        W 6921   9.608   6.591  12.287  0.0355  0.0325  0.1532
 3403W        W 6922   7.746   4.021   9.038  0.0220 -0.1177 -0.2683
 3404W        W 6923   1.333   5.949   2.950  0.1492  0.2270 -0.1285
 3405W        W 6924   5.863   2.269  12.421  0.1202  0.0213 -0.1232
 3406W        W 6925   8.663   0.464   9.826  0.5988 -0.0347  0.1180
 3407W        W 6926   5.195   8.141   0.647 -0.2447  0.0450  0.1244
 3408W        W 6927   4.799   5.817   2.741 -0.0795 -0.0112 -0.0262
 3409W        W 6928   0.348   7.445   3.926 -0.1738  0.0965  0.1373
 3410W        W 6929   8.215   8.566   2.557 -0.0308  0.1545  0.4528
 3411W        W 6930   2.625   2.440  11.308 -0.0022 -0.1402  0.0175
 3412W        W 6931   7.153   3.819   0.156 -0.2563  0.1958  0.1866
 3413W        W 6932   5.100   6.381   0.987  0.2545  0.0750  0.1638
 3414W        W 6933   9.035   7.404  10.835 -0.1211 -0.1852  0.0849
 3415W        W 6934   8.107   9.452   0.780 -0.3496  0.0524  0.2292
 3416W        W 6935   1.898   3.166   9.841  0.0864 -0.1376 -0.1066
 3417W        W 6936   6.203   4.727   3.329 -0.0338 -0.0174 -0.0425
 3418W        W 6937   8.013   6.045   9.857 -0.1277 -0.3427  0.0073
 3419W        W 6938   6.041   0.521   8.340 -0.0639  0.0980  0.1668
 3420W        W 6939   5.890   0.162   2.697  0.1744 -0.3257  0.2320
 3421W        W 6940   3.949   9.323  12.462  0.1144  0.1257  0.0746
 3422W        W 6941   3.495   4.971   0.412 -0.0320 -0.0370  0.2125
 3423W        W 6942   1.298   6.004   9.487 -0.2557 -0.1202 -0.0066
 3424W        W 6943   6.825   3.313   2.402 -0.1180  0.0871  0.0032
 3425W        W 6944   4.431   6.094   0.006  0.1547  0.0739  0.0436
 3426W        W 6945   4.516   2.765   0.157  0.1455  0.0258 -0.0207
 3427W        W 6946   0.366   4.977   9.890  0.0824 -0.0081  0.0789
 3428W        W 6947   8.943   1.180   0.409 -0.0834 -0.1282  0.0245
 3429W        W 6948   8.912   2.624   0.013  0.2603  0.0107 -0.2535
 3430W        W 6949   0.072   9.176   2.270  0.3498  0.1426  0.1733
 3431W        W 6950   8.220   0.581   3.113 -0.0047 -0.0865  0.2762
 3432W        W 6951   0.760   0.664  10.692 -0.4452  0.0848  0.0471
 3433W        W 6952   8.534   4.076   9.508  0.1198 -0.3718  0.1130
 3434W        W 6953   7.418   2.894   7.861  0.0930  0.4740 -0.2140
 3435W        W 6954   3.407   4.264  10.473  0.3260  0.0945  0.1837
 3436W        W 6955   6.118   4.243   0.688  0.2549  0.2512  0.0612
 3437W        W 6956   9.323   3.314   2.267  0.2069  0.1958 -0.1599
 3438W        W 6957   8.035   7.914   9.063 -0.2735 -0.3013  0.0347
 3439W        W 6958   8.451   2.219   2.726  0.0270  0.2704  0.0977
 3440W        W 6959   6.064   3.037   3.088 -0.2918  0.0172 -0.0452
 3441W        W 6960   5.275   8.734  12.431 -0.1511  0.0172  0.1524
 3442W        W 6961   2.891   4.090  10.241 -0.2220 -0.0021  0.0320
 3443W        W 6962   1.171   3.230  11.967 -0.0798  0.0278  0.4368
 3444W        W 6963   1.271   7.882   3.036 -0.0098  0.0729  0.1639
 3445W        W 6964   2.746   4.904   7.876 -0.1733 -0.1749  0.1428
 3446W        W 6965   8.239   9.453   2.800 -0.1213  0.2676 -0.1960
 3447W        W 6966   1.871   5.138   3.629  0.2114 -0.4087  0.0483
 3448W        W 6967   9.561   4.290  11.422 -0.0098  0.0243  0.0159
 3449W        W 6968   6.901   9.322   2.195 -0.0441 -0.0617 -0.0606
 3450W        W 6969   2.363   1.020  12.118  0.1069 -0.0638  0.1835
 3451W        W 6970   5.474   9.617   2.467  0.3268  0.1809  0.0314
 3452W        W 6971   2.907   2.666   2.998  0.3631 -0.0462  0.3232
 3453W        W 6972   6.223   1.357   9.996  0.2729 -0.0456 -0.4423
 3454W        W 6973   1.600   7.299  11.183 -0.1274 -0.2484  0.1618
 3455W        W 6974   5.700   1.388  11.762  0.1147  0.5937  0.1701
 3456W        W 6975   6.937   1.955   1.161 -0.2580  0.2431 -0.2257
 3457W        W 6976   4.661   5.642   0.230  0.2358  0.1448  0.0588
 3458W        W 6977   8.187   7.528   8.814 -0.0087 -0.1319 -0.1354
 3459W        W 6978   2.045   4.495  10.246  0.0970  0.0578 -0.0589
 3460W        W 6979   2.315   2.351   1.853 -0.0394 -0.0748 -0.4949
 3461W        W 6980   0.891   4.542  12.310 -0.2585  0.1502  0.3114
 3462W        W 6981   1.793   4.965   0.714 -0.0785 -0.0597 -0.4040
 3463W        W 6982   0.022   5.212   0.441 -0.0271 -0.0008  0.0405
 3464W        W 6983   0.616   6.187   4.495 -0.2465  0.3614  0.0450
 3465W        W 6984   4.150   5.612   9.990 -0.1555 -0.0579  0.0575
 3466W        W 6985   3.296   0.117   9.179  0.0528  0.0819 -0.1089
 3467W        W 6986   4.101   5.705   0.210  0.1216  0.4324 -0.0358
 3468W        W 6987   2.291   0.575  11.916  0.1740 -0.0195  0.0982
 3469W        W 6988   3.868   5.571   2.216 -0.0162 -0.2954  0.1301
 3470W        W 6989   7.960   1.041  11.701  0.0092  0.1154  0.0883
 3471W        W 6990   4.565   7.918   3.918  0.0177 -0.1337  0.0467
 3472W        W 6991   5.353   5.173   1.478  0.4129 -0.3148  0.0169
 3473W        W 6992   3.740   4.754  11.890  0.0596 -0.0596  0.0109
 3474W        W 6993   1.781   7.866  10.786  0.1130 -0.2016 -0.0954
 3475W        W 6994   4.112   2.434  12.518 -0.0183  0.0838 -0.2031
 3476W        W 6995   3.123   4.000   9.035  0.0601 -0.1574 -0.2334
 3477W        W 6996   8.187   2.065   9.099 -0.2126 -0.1819 -0.1117
 3478W        W 6997   2.222   7.602   9.257 -0.3777  0.4110  0.0281
 3479W        W 6998   2.457   4.735  10.432  0.3129  0.0927  0.4477
 3480W        W 6999   2.028   6.454   2.842 -0.1294  0.1529 -0.3933
 3481W        W 7000   7.929   3.156   9.865 -0.0759  0.0491  0.2051
 3482W        W 7001   3.436   0.273   1.996 -0.3805  0.2094  0.0241
 3483W        W 7002   3.893   4.640  10.198  0.1878  0.1269 -0.0566
 3484W        W 7003   8.575   8.565   3.721  0.0857  0.3413  0.0779
 3485W        W 7004   5.065   5.596  12.210  0.2462 -0.2994 -0.2449
 3486W        W 7005   5.256   5.547  10.896 -0.2414  0.3074 -0.3606
 3487W        W 7006   4.907   1.537  10.711  0.0121 -0.1521 -0.0118
 3488W        W 7007   1.699   8.807   0.126 -0.1708  0.1373 -0.0056
 3489W        W 7008   0.568   7.322   2.412 -0.2082  0.1517 -0.1613
 3490W        W 7009   2.224   2.757   1.622  0.1332  0.1632 -0.0078
 3491W        W 7010   7.624   7.253  12.164  0.4146  0.0853  0.0667
 3492W        W 7011   0.757   2.535   2.324 -0.0924 -0.0245 -0.0368
 3493W        W 7012   9.543   7.520  11.354  0.0498  0.0618  0.0051
 3494W        W 7013   4.345   3.529   7.901 -0.1249  0.0350  0.3731
 3495W        W 7014   4.112   0.393  12.130  0.0621  0.1343  0.0250
 3496W        W 7015   0.893   7.408   0.492  0.0980 -0.1669  0.0307
 3497W        W 7016   6.228   4.652   9.253  0.1310 -0.0105  0.1280
 3498W        W 7017   3.736   1.517  11.491 -0.1560 -0.6452  0.4051
 3499W        W 7018   7.443   1.813   3.626 -0.1755 -0.1582 -0.1612
 3500W        W 7019   6.996   7.721  11.122  0.0751 -0.0722 -0.0236
 3501W        W 7020   3.064   5.458   1.613  0.3018 -0.0823 -0.1291
 3502W        W 7021   8.269   0.845   3.589 -0.0138 -0.0265 -0.2555
 3503W        W 7022   7.873   0.616   1.775 -0.2729 -0.1731 -0.0499
 3504W        W 7023   4.401   1.608   1.055  0.1297 -0.2193  0.1323
 3505W        W 7024   9.195   2.971   2.663  0.2495  0.0106 -0.0267
 3506W        W 7025   0.842   8.291   9.976 -0.2081  0.0533  0.2240
 3507W        W 7026   8.447   7.344   2.063 -0.0546 -0.0071  0.2619
 3508W        W 7027   5.439   2.650  10.747 -0.3854  0.1251 -0.0838
 3509W        W 7028   2.719   9.650  10.781  0.0210  0.3578 -0.0731
 3510W        W 7029   8.834   4.438   0.651 -0.1793  0.2482  0.3559
 3511W        W 7030   3.374   8.547   1.405 -0.1477  0.2254  0.2400
 3512W        W 7031   6.324   7.314   0.388 -0.0156 -0.0633 -0.1635
 3513W        W 7032   8.657   6.722   3.932 -0.2913 -0.1571  0.2127
 3514W        W 7033   8.341   4.956   3.528  0.0023  0.0313 -0.0292
 3515W        W 7034   1.255   1.167   8.610  0.0997 -0.0150  0.0864
 3516W        W 7035   1.077   1.618   2.526 -0.3129 -0.1790 -0.1501
 3517W        W 7036   2.869   1.332   8.885  0.0282 -0.0445  0.1213
 3518W        W 7037   5.151   5.338   9.530  0.2118  0.3832 -0.0060
 3519W        W 7038   2.566   8.816   4.774  0.1010 -0.1450  0.3150
 3520W        W 7039   8.100   5.110  10.090  0.1858  0.0990  0.0262
 3521W        W 7040   5.113   3.500   1.387  0.0353 -0.0039  0.0019
 3522W        W 7041   6.044   3.746   2.458 -0.2032  0.2561  0.1548
 3523W        W 7042   3.416   9.057   1.476  0.0455  0.1199  0.0850
 3524W        W 7043   1.066   4.833   1.381 -0.0465  0.0202 -0.2506
 3525W        W 7044   0.641   3.152   9.138 -0.2690  0.4438 -0.1590
 3526W        W 7045   4.484   1.675   2.219  0.0181 -0.1404  0.1141
 3527W        W 7046   3.069   0.402   8.579  0.1979 -0.0072 -0.0993
 3528W        W 7047   8.249   4.733  11.021 -0.0032 -0.3450  0.0691
 3529W        W 7048   1.733   5.962  10.356 -0.0255 -0.0158  0.3368
 3530W        W 7049   8.453   5.656   9.072  0.1100  0.0300  0.0562
 3531W        W 7050   4.229   7.204   3.021  0.2500 -0.1552 -0.2593
 3532W        W 7051   3.853   0.916   0.347 -0.2747  0.0485  0.1839
 3533W        W 7052   6.757   9.079  11.879  0.2475 -0.0267 -0.0968
 3534W        W 7053   6.813   3.604  11.302  0.1980 -0.1987  0.1250
 3535W        W 7054   2.992   8.194  11.807 -0.0137  0.0981 -0.1127
 3536W        W 7055   9.005   0.540   3.331  0.0823 -0.0147  0.1611
 3537W        W 7056   3.178   7.487   2.084 -0.1539 -0.2539 -0.0686
 3538W        W 7057   1.260   1.155   2.314 -0.0096 -0.0902  0.0540
 3539W        W 7058   8.506   8.963  10.207 -0.1748  0.0022 -0.0146
 3540W        W 7059   1.531   9.247   8.703 -0.2319 -0.1210 -0.0839
 3541W        W 7060   0.570   9.133  10.554  0.2023 -0.0865  0.1087
 3542W        W 7061   7.867   4.939  11.575 -0.1665 -0.1736 -0.1215
 3543W        W 7062   2.245   5.910   2.040 -0.1849 -0.3011 -0.0181
 3544W        W 7063   3.877   4.383   2.838  0.2126  0.1446  0.2510
 3545W        W 7064   8.694   4.824  10.642 -0.0823 -0.1787  0.2541
 3546W        W 7065   5.588   4.553   9.971 -0.2491 -0.0878 -0.4106
 3547W        W 7066   4.749   3.296  11.991  0.0716  0.1369  0.1192
 3548W        W 7067   5.773   8.124   2.871 -0.4811  0.2525 -0.2233
 3549W        W 7068   9.276   9.423   2.649  0.0322  0.0097 -0.2488
 3550W        W 7069   3.423   0.166   0.122 -0.0094  0.1185  0.1482
 3551W        W 7070   4.669   1.173  12.298  0.3311  0.0161 -0.0300
 3552W        W 7071   7.676   0.805   3.575 -0.3442 -0.1697  0.2216
 3553W        W 7072   6.777   8.510  12.594 -0.1861 -0.0488  0.0656
 3554W        W 7073   2.092   5.393   0.005 -0.0256  0.3319  0.1340
 3555W        W 7074   1.289   2.368   8.151 -0.0343  0.4124  0.1531
 3556W        W 7075   6.967   0.937   2.999 -0.0445 -0.1034  0.1353
 3557W        W 7076   0.796   5.246   0.281 -0.0335  0.2162  0.3063
 3558W        W 7077   8.839   8.375   2.486 -0.0916  0.1387 -0.1216
 3559W        W 7078   2.045   5.068   2.034  0.0254  0.2324  0.3374
 3560W        W 7079   4.152   3.442  11.977  0.0842  0.4521 -0.0930
 3561W        W 7080   0.181   0.593   2.898  0.0386  0.0674  0.1985
 3562W        W 7081   3.248   7.179   2.523 -0.1771 -0.1663 -0.4233
 3563W        W 7082   5.004   1.593   0.308  0.1716  0.0175 -0.1673
 3564W        W 7083   0.442   1.259  12.093 -0.0828  0.0335 -0.1759
 3565W        W 7084   6.287   4.154  12.014  0.3658  0.1957  0.1719
 3566W        W 7085   2.170   4.696   3.209  0.0641  0.1564 -0.3181
 3567W        W 7086   5.653   7.215   2.770  0.2989  0.3966  0.0000
 3568W        W 7087   0.839   2.962  12.250 -0.1886 -0.0483  0.0508
 3569W        W 7088   2.811   7.308   8.218 -0.3121 -0.0554 -0.2183
 3570W        W 7089   7.799   7.834   0.394  0.5584 -0.0392 -0.0458
 3571W        W 7090   7.005   8.106  10.254 -0.1850  0.3050  0.0042
 3572W        W 7091   0.433   8.224   9.192 -0.3602  0.0401 -0.3385
 3573W        W 7092   8.458   4.968   2.410 -0.1717  0.0337  0.0681
 3574W        W 7093   2.779   1.808  12.420  0.0386 -0.0589  0.1264
 3575W        W 7094   6.919   5.601  11.879  0.0212 -0.1681 -0.0311
 3576W        W 7095   7.179   1.039   4.305  0.1918 -0.1940 -0.2727
 3577W        W 7096   0.541   2.163  11.502 -0.0368  0.0543 -0.0159
 3578W        W 7097   7.110   9.414  12.223  0.0565 -0.1285 -0.3737
 3579W        W 7098   7.572   3.287   0.785  0.0328 -0.1543  0.2142
 3580W        W 7099   5.252   2.391   9.849 -0.0079 -0.1470  0.1137
 3581W        W 7100   7.834   4.279   1.861  0.1420  0.0189 -0.3603
 3582W        W 7101   9.583   1.125   9.828  0.2826 -0.2027  0.0647
 3583W        W 7102   0.541   7.777   7.724 -0.0812  0.2159  0.0464
 3584W        W 7103   0.104   2.414   9.722  0.4498  0.1061  0.0929
 3585W        W 7104   7.312   8.801   1.712  0.2759  0.1350 -0.0066
 3586W        W 7105   6.734   1.781  11.785  0.2208 -0.1154  0.2319
 3587W        W 7106   6.813   4.553  11.221 -0.0550 -0.0596  0.3035
 3588W        W 7107   1.134   3.493   1.664 -0.0738 -0.1790 -0.2451
 3589W        W 7108   2.117   4.892   4.006 -0.0893 -0.4097  0.0606
 3590W        W 7109   9.594   5.452  10.608  0.6199  0.1915 -0.0161
 3591W        W 7110   9.310   4.972   9.152  0.1225  0.0273 -0.0230
 3592W        W 7111   1.151   0.883   9.828 -0.1956 -0.1012 -0.1101
 3593W        W 7112   4.342   4.077   2.417 -0.0633 -0.0931  0.0573
 3594W        W 7113   0.189   1.099   0.767  0.2015 -0.0222  0.0888
 3595W        W 7114   9.229   8.871   0.575 -0.3730  0.0197  0.4836
 3596W        W 7115   4.813   8.916   1.214  0.1332 -0.0388  0.4090
 3597W        W 7116   7.292   1.351   1.907 -0.1886  0.1701  0.0300
 3598W        W 7117   1.400   9.096  12.472 -0.0287  0.3389  0.0883
 3599W        W 7118   5.268   7.854   1.077 -0.0972 -0.2277  0.1330
 3600W        W 7119   1.870   1.210  12.351 -0.2525  0.2279  0.2205
 3601W        W 7120   8.623   7.224   9.019 -0.0101 -0.3689  0.1428
 3602W        W 7121   1.971   7.934   1.374 -0.0444 -0.1345  0.1762
 3603W        W 7122   0.867   6.817   3.516 -0.2058  0.2043 -0.0644
 3604W        W 7123   0.589   9.605   8.709 -0.1327 -0.1064 -0.2782
 3605W        W 7124   0.758   7.288   0.994 -0.0929  0.0437 -0.1463
 3606W        W 7125   0.149   8.190   1.668 -0.3354 -0.1382  0.2090
 3607W        W 7126   0.484   7.705   0.728 -0.0401 -0.0914  0.0059
 3608W        W 7127   1.063   2.339  11.530  0.1648  0.0543  0.0255
 3609W        W 7128   5.080   1.402   9.653 -0.0894  0.2229  0.0473
 3610W        W 7129   1.662   0.300   8.152  0.1589  0.0883  0.0798
 3611W        W 7130   4.919   8.161  12.415  0.1027  0.2033 -0.0441
 3612W        W 7131   4.491   3.072   9.198  0.5035  0.0300  0.2922
 3613W        W 7132   4.533   1.979  10.186 -0.0010 -0.3596  0.0275
 3614W        W 7133   1.447   5.469   3.667 -0.2584  0.1830  0.0254
 3615W        W 7134   6.506   1.746   9.976 -0.0207  0.2154  0.0653
 3616W        W 7135   9.457   7.664   2.738  0.1365 -0.1515 -0.1359
 3617W        W 7136   5.915   9.402  10.494  0.1047 -0.0320  0.1987
 3618W        W 7137   2.403   7.820   0.501 -0.2338  0.0747 -0.0037
 3619W        W 7138   7.250   1.838   4.104  0.1113 -0.0514 -0.2756
 3620W        W 7139   0.789   6.819   2.056  0.1238  0.1759  0.2994
 3621W        W 7140   3.624   5.458  11.581 -0.1930 -0.2192 -0.0613
 3622W        W 7141   0.756   0.823  12.586  0.1352  0.1120 -0.2206
 3623W        W 7142   5.840   1.219   9.729 -0.2330  0.0666 -0.2019
 3624W        W 7143   1.086   5.748  11.305 -0.6354 -0.1868  0.1658
 3625W        W 7144   2.250   5.244   0.576  0.2494  0.1618  0.2172
 3626W        W 7145   6.105   8.766   8.764 -0.0750  0.0435  0.0313
 3627W        W 7146   6.694   8.068   0.933 -0.1045  0.1243  0.0733
 3628W        W 7147   5.861   7.626   0.585  0.1212  0.2186  0.0620
 3629W        W 7148   1.921   0.740   8.147  0.0003  0.2134 -0.1687
 3630W        W 7149   0.077   5.107  11.500  0.2663  0.2171 -0.2709
 3631W        W 7150   0.015   0.262  10.649  0.0831  0.0548  0.1085
 3632W        W 7151   4.114   3.440  12.494  0.2310  0.1167 -0.1065
 3633W        W 7152   1.983   7.749   8.477 -0.1856 -0.0807  0.0546
 3634W        W 7153   3.536   6.504   1.273  0.1605 -0.0165  0.0826
 3635W        W 7154   4.619   7.570  10.290 -0.1554 -0.0381  0.3045
 3636W        W 7155   4.934   2.494   3.726  0.3981  0.1395 -0.0156
 3637W        W 7156   1.082   1.632  10.338 -0.0947  0.2158  0.0371
 3638W        W 7157   2.190   7.563  11.713 -0.0425  0.1957 -0.0734
 3639W        W 7158   7.322   3.329  10.313 -0.1097  0.2341 -0.1588
 3640W        W 7159   2.791   5.476   3.266 -0.2770  0.1190  0.1338
 3641W        W 7160   9.080   7.590  11.312 -0.0445  0.2433  0.2533
 3642W        W 7161   8.999   0.148   1.628 -0.3031 -0.2131 -0.0687
 3643W        W 7162   4.119   4.890  11.179 -0.0786 -0.1315 -0.2115
 3644W        W 7163   6.152   3.080   0.171 -0.0003  0.1949  0.2833
 3645W        W 7164   3.716   7.862   9.108  0.0225  0.2114 -0.0724
 3646W        W 7165   5.103   8.854   1.595 -0.0127  0.2799  0.0588
 3647W        W 7166   6.597   6.535   2.801  0.1201 -0.2069  0.4115
 3648W        W 7167   6.760   3.940  11.962  0.0300  0.0771  0.0879
 3649W        W 7168   5.721   2.461   8.723  0.4124 -0.1756 -0.0186
 3650W        W 7169   0.841   5.375  12.403 -0.1921  0.2448  0.0118
 3651W        W 7170   3.394   4.980   9.094 -0.0153 -0.1282 -0.1384
 3652W        W 7171   4.990   2.595   0.766  0.0917 -0.1172  0.0869
 3653W        W 7172   1.317   5.493   1.747 -0.1155  0.0876  0.6976
 3654W        W 7173   5.603   7.826   0.141  0.2411  0.0654  0.1946
 3655W        W 7174   4.681   4.165  12.428 -0.2936  0.1174  0.1677
 3656W        W 7175   6.519   2.161   8.967  0.1977  0.5141 -0.0455
 3657W        W 7176   8.639   1.710  10.575 -0.3585  0.2547 -0.0099
 3658W        W 7177   9.383   0.051   9.304 -0.2032  0.1638 -0.1491
 3659W        W 7178   9.015   4.866  10.194 -0.1735 -0.2012  0.1573
 3660W        W 7179   2.950   8.062  11.326 -0.2357 -0.0868 -0.0589
 3661W        W 7180   6.593   2.608  10.269  0.1389  0.1046 -0.1653
 3662W        W 7181   5.004   0.164  10.920 -0.0183  0.1023  0.1688
 3663W        W 7182   0.752   6.577   8.180 -0.0758  0.3373 -0.2146
 3664W        W 7183   5.031   3.319   3.125  0.1369 -0.0230  0.1315
 3665W        W 7184   5.448   7.931   9.249 -0.0490 -0.1925 -0.1855
 3666W        W 7185   8.223   5.955   4.055  0.0547 -0.1589  0.1179
 3667W        W 7186   3.343   9.483  10.077  0.0509  0.0934 -0.1907
 3668W        W 7187   1.276   8.067   1.247 -0.2071 -0.2624 -0.0870
 3669W        W 7188   0.767   8.905   1.365  0.1842  0.2301 -0.0690
 3670W        W 7189   6.389   8.494   2.440 -0.0112 -0.0913  0.1187
 3671W        W 7190   8.539   6.879   1.958 -0.3216  0.3612  0.2371
 3672W        W 7191   3.397   6.889   3.662  0.1045  0.1824  0.3423
 3673W        W 7192   3.153   8.265   7.762 -0.0138  0.1416 -0.0695
 3674W        W 7193   6.746   7.165   9.879  0.0403  0.1724 -0.0624
 3675W        W 7194   3.579   2.093   9.290  0.1265  0.0187  0.2044
 3676W        W 7195   2.115   3.716   9.073 -0.2096  0.3678 -0.1073
 3677W        W 7196   0.612   1.653   8.699 -0.0339  0.1802  0.0267
 3678W        W 7197   7.632   2.119   0.123  0.0064  0.2607 -0.4222
 3679W        W 7198   2.651   9.310  11.843  0.0455  0.0780  0.0116
 3680W        W 7199   0.096   2.279   8.586  0.3590  0.1205 -0.3011
 3681W        W 7200   3.558   4.103  10.988  0.1809  0.2744  0.1746
 3682W        W 7201   1.156   1.894   0.970 -0.0007 -0.0316 -0.1997
 3683W        W 7202   0.386   6.819   2.336 -0.0851  0.0601  0.0542
 3684W        W 7203   4.297   8.178   0.810 -0.0196 -0.1776  0.0158
 3685W        W 7204   8.859   9.221   0.802  0.1500  0.1825  0.0114
 3686W        W 7205   6.556   6.939  11.214 -0.5208 -0.0504  0.1368
 3687W        W 7206   8.750   0.835   2.291  0.1727  0.0898  0.4183
 3688W        W 7207   7.020   2.350   0.297  0.0981  0.1266 -0.2198
 3689W        W 7208   4.542   7.774  12.153  0.1319  0.1489  0.1014
 3690W        W 7209   2.225   4.772  11.688 -0.0754  0.0993  0.1201
 3691W        W 7210   5.530   8.524   1.454 -0.1261 -0.1761  0.2853
 3692W        W 7211   4.648   0.985   2.925 -0.1502 -0.0084 -0.1621
 3693W        W 7212   5.149   7.683  10.064  0.1694 -0.0064  0.2866
 3694W        W 7213   7.654   2.192   9.005  0.0876 -0.1178 -0.0621
 3695W        W 7214   4.027   6.213   2.117 -0.2428  0.3725  0.2548
 3696W        W 7215   2.745   7.347  10.554 -0.1353 -0.0768  0.0769
 3697W        W 7216   6.108   8.996  10.877  0.1463  0.4330 -0.2120
 3698W        W 7217   8.927   6.660  11.680  0.2895  0.0871 -0.2568
 3699W        W 7218   4.311   1.264  11.930  0.1678  0.1479  0.4325
 3700W        W 7219   3.190   3.389   8.404 -0.1159 -0.3347 -0.2104
 3701W        W 7220   2.446   9.546   0.287 -0.3542 -0.1734  0.0115
 3702W        W 7221   9.022   9.243   0.267 -0.1259  0.1148  0.1315
 3703W        W 7222   5.377   0.844   1.633 -0.1426 -0.0752  0.1005
 3704W        W 7223   5.036   9.154   9.805 -0.0587  0.0461  0.5396
 3705W        W 7224   7.418   2.548   3.252 -0.3594  0.0080 -0.1331
 3706W        W 7225   0.290   7.704   1.931  0.0874 -0.2403 -0.0203
 3707W        W 7226   8.841   9.376  10.749 -0.0828 -0.1444 -0.1399
 3708W        W 7227   4.297   5.177  10.867 -0.0005 -0.0867  0.0874
 3709W        W 7228   4.465   5.244   2.856 -0.0694  0.0605 -0.0729
 3710W        W 7229   8.442   8.439   2.984 -0.0407  0.3833  0.2974
 3711W        W 7230   7.602   0.943  12.073  0.0766 -0.0286  0.1165
 3712W        W 7231   7.503   4.256   2.256  0.2362 -0.0805 -0.0539
 3713W        W 7232   7.048   1.393   2.778 -0.0928 -0.0476 -0.0620
 3714W        W 7233   3.287   3.377   3.743  0.0026 -0.1004  0.0498
 3715W        W 7234   8.967   0.528  10.187  0.0280 -0.1182 -0.2905
 3716W        W 7235   6.933   0.290  11.377  0.1579 -0.1590  0.0114
 3717W        W 7236   3.628   3.647  12.309 -0.0829  0.2396 -0.1801
 3718W        W 7237   8.492   1.678  12.446  0.0787 -0.3190 -0.0524
 3719W        W 7238   9.101   2.788   4.144 -0.1216 -0.1274 -0.1820
 3720W        W 7239   7.007   6.759   2.958  0.0044  0.2806  0.0371
 3721W        W 7240   1.957   2.089   2.926  0.0108  0.0909  0.0640
 3722W        W 7241   2.523   0.124  11.931  0.0037  0.0466 -0.1588
 3723W        W 7242   5.535   4.386   3.574 -0.1555 -0.2189  0.1018
 3724W        W 7243   5.647   0.994   3.369 -0.3967  0.3056 -0.0003
 3725W        W 7244   5.790   4.570   0.921 -0.1008 -0.1052 -0.0572
 3726W        W 7245   9.681   0.053   8.701  0.1110 -0.0507 -0.0652
 3727W        W 7246   3.058   3.338   4.544 -0.2676  0.1095 -0.0360
 3728W        W 7247   2.728   5.546   2.504  0.1265 -0.1344 -0.1552
 3729W        W 7248   9.280   4.201   3.854  0.1335  0.2496  0.3495
 3730W        W 7249   3.610   3.833   9.149  0.0599 -0.3644 -0.1511
 3731W        W 7250   2.052   5.162  11.964  0.1842 -0.0183  0.1531
 3732W        W 7251   0.892   7.212   4.803  0.1278  0.0399 -0.1055
 3733W        W 7252   6.697   3.052   1.522  0.1502 -0.0103  0.0052
 3734W        W 7253   4.012   7.281  11.425  0.0717  0.0829 -0.1205
 3735W        W 7254   3.365   3.832   4.746 -0.0073  0.1911  0.2313
 3736W        W 7255   8.443   5.727   0.494 -0.2230 -0.3957  0.1483
 3737W        W 7256   4.114   1.352   2.331 -0.0861  0.2093  0.1165
 3738W        W 7257   3.711   0.954  10.780 -0.0674  0.1323  0.0085
 3739W        W 7258   1.209   7.537   1.352  0.0556 -0.0717  0.4383
 3740W        W 7259   0.517   8.345   4.270  0.1044  0.2625  0.0676
 3741W        W 7260   0.916   7.784   9.955 -0.2118  0.0329 -0.0890
 3742W        W 7261   6.496   3.499   9.146 -0.1045  0.1066  0.1204
 3743W        W 7262   1.628   0.194   0.817 -0.3933 -0.0797 -0.0647
 3744W        W 7263   4.095   2.355  11.696  0.0395  0.3167 -0.0189
 3745W        W 7264   7.329   3.008   3.046 -0.2317  0.2682  0.4420
 3746W        W 7265   2.310   9.503   4.259 -0.2331  0.1439  0.0634
 3747W        W 7266   7.180   4.909  11.299 -0.1112 -0.0820 -0.1675
 3748W        W 7267   8.119   4.769  11.997  0.0479  0.3243 -0.2102
 3749W        W 7268   2.756   9.640   2.735 -0.0094 -0.1226  0.1123
 3750W        W 7269   8.663   3.152   7.901 -0.2665  0.1742  0.2274
 3751W        W 7270   7.174   7.642  10.558 -0.3519 -0.0377 -0.0896
 3752W        W 7271   3.523   4.336  12.070  0.0398 -0.1335  0.3380
 3753W        W 7272   7.420   0.352   2.649 -0.3711  0.0669 -0.1401
 3754W        W 7273   5.085   5.600  11.403  0.0460 -0.1597 -0.0377
 3755W        W 7274   3.371   5.468  10.470  0.0745 -0.2549  0.1000
 3756W        W 7275   8.235   5.147   9.076  0.0332 -0.1906  0.2317
 3757W        W 7276   2.569   6.400   1.382 -0.2831  0.1181 -0.0105
 3758W        W 7277   3.843   2.004   3.619 -0.4357  0.4866  0.1102
 3759W        W 7278   3.278   8.809  11.149  0.2550 -0.2409 -0.0938
 3760W        W 7279   0.644   6.078   1.645 -0.1321 -0.0583 -0.1455
 3761W        W 7280   2.888   5.926   8.980 -0.1308 -0.0562 -0.0332
 3762W        W 7281   7.396   5.742  11.472 -0.0682 -0.0278 -0.0792
 3763W        W 7282   1.784   1.624   3.045 -0.1325 -0.1567 -0.0507
 3764W        W 7283   2.744   9.338   1.597 -0.0548 -0.2524  0.0396
 3765W        W 7284   7.144   3.218   1.636 -0.1622 -0.0253  0.0316
 3766W        W 7285   5.893   2.471   1.675 -0.1278 -0.1136 -0.1824
 3767W        W 7286   0.480   2.567   1.851 -0.0474  0.1770 -0.0331
 3768W        W 7287   6.163   5.268  12.345  0.2657  0.0624  0.1759
 3769W        W 7288   9.093   1.520   9.835 -0.1564 -0.3157  0.3514
 3770W        W 7289   2.652   5.131   9.843  0.1928 -0.0825  0.2243
 3771W        W 7290   5.021   9.585   9.538 -0.2508  0.0361 -0.2273
 3772W        W 7291   4.207   2.030   8.835 -0.0333 -0.2616 -0.4954
 3773W        W 7292   3.641   5.165   3.100 -0.3355 -0.0315 -0.2272
 3774W        W 7293   0.688   1.991  10.507 -0.1907  0.2079  0.1071
 3775W        W 7294   0.765   0.085  10.776 -0.2114 -0.2390  0.3275
 3776W        W 7295   4.291   0.526   0.186 -0.3990 -0.1038 -0.0099
 3777W        W 7296   5.394   7.008  10.319 -0.3569 -0.0233  0.3672
 3778W        W 7297   6.398   5.177  11.857  0.1183  0.1168 -0.1384
 3779W        W 7298   0.274   7.420   1.058  0.1928  0.0606 -0.1563
 3780W        W 7299   7.212   7.381   9.536  0.0019 -0.3022  0.1696
 3781W        W 7300   3.692   5.051   2.217  0.1711  0.0916  0.0200
 3782W        W 7301   1.496   0.210   1.319 -0.0859 -0.2180 -0.0465
 3783W        W 7302   9.023   9.296  11.753 -0.0785  0.1638  0.1787
 3784W        W 7303   1.904   2.808  10.696  0.0742  0.0101 -0.0737
 3785W        W 7304   8.135   6.765   3.863 -0.0661 -0.0170  0.0150
 3786W        W 7305   3.715   1.077   4.391 -0.1668  0.2475 -0.0161
 3787W        W 7306   7.732   4.637   3.484  0.0004  0.1758 -0.1786
 3788W        W 7307   9.346   4.959   1.789 -0.0355  0.0134  0.1060
 3789W        W 7308   3.891   7.317   9.717  0.1401  0.2013 -0.0739
 3790W        W 7309   5.886   6.753  10.618  0.0204  0.0422  0.4598
 3791W        W 7310   5.298   5.689   8.164 -0.1678 -0.1554 -0.1215
 3792W        W 7311   0.375   2.245   4.549 -0.0070  0.1857 -0.0452
 3793W        W 7312   2.116   2.949  12.563  0.2184  0.1206 -0.1947
 3794W        W 7313   9.036   6.490  10.439  0.2563 -0.0887 -0.2380
 3795W        W 7314   5.811   0.649   0.211  0.0204  0.3185 -0.2613
 3796W        W 7315   2.441   8.391   8.892 -0.3691  0.0655 -0.0363
 3797W        W 7316   3.824   6.489   9.504 -0.3227  0.0371 -0.1487
 3798W        W 7317   8.223   4.435   9.681 -0.0190  0.0643  0.0735
 3799W        W 7318   0.625   3.870  10.679  0.3118 -0.0474 -0.1980
 3800W        W 7319   9.485   6.316   7.524  0.0837  0.1983 -0.0911
 3801W        W 7320   0.241   6.793   7.999 -0.0589  0.3604 -0.0178
 3802W        W 7321   4.648   5.281  10.519  0.1250 -0.0090  0.0369
 3803W        W 7322   1.202   7.207   3.045  0.1806 -0.0890  0.0019
 3804W        W 7323   0.921   3.043  10.052 -0.0340  0.0123 -0.1027
 3805W        W 7324   3.549   0.270   2.682 -0.0647  0.0884  0.0016
 3806W        W 7325   1.509   0.720   4.710 -0.1770  0.1272  0.0771
 3807W        W 7326   4.623   8.822   0.242 -0.1131  0.0690  0.0442
 3808W        W 7327   3.955   5.010   0.121 -0.0318  0.0675  0.1227
 3809W        W 7328   4.479   9.246  10.563  0.3380  0.0475  0.1214
 3810W        W 7329   2.486   4.220   9.400  0.0522 -0.0052 -0.2611
 3811W        W 7330   1.557   7.270  11.991  0.1354 -0.0739 -0.0813
 3812W        W 7331   1.693   4.801   3.253  0.1007 -0.1218  0.0998
 3813W        W 7332   2.123   1.598   2.097 -0.0211 -0.0634  0.2228
 3814W        W 7333   2.074   2.432  11.377 -0.3624  0.2719 -0.0613
 3815W        W 7334   9.116   2.306   2.151  0.0656  0.0808  0.1316
 3816W        W 7335   1.321   3.268   4.052 -0.1624 -0.1562 -0.0676
 3817W        W 7336   7.763   4.261   2.676  0.0648  0.0292  0.1590
 3818W        W 7337   8.210   4.064   7.608  0.3826  0.2533 -0.1417
 3819W        W 7338   3.579   7.409  10.074  0.4565 -0.0408 -0.3106
 3820W        W 7339   5.647   1.851   4.050  0.0517 -0.1500  0.1439
 3821W        W 7340   5.919   3.974   3.447  0.0115  0.0791  0.1925
 3822W        W 7341   5.604   1.894   1.152 -0.0370  0.0258  0.0517
 3823W        W 7342   4.616   4.448   3.755 -0.1596 -0.3469  0.0915
 3824W        W 7343   2.654   7.693   0.079  0.2542 -0.1376  0.0394
 3825W        W 7344   9.441   1.040   8.959 -0.1607 -0.1360  0.0748
 3826W        W 7345   0.049   5.499  11.133  0.1119  0.3072 -0.0310
 3827W        W 7346   1.519   9.160   9.207 -0.0913 -0.3358 -0.0668
 3828W        W 7347   6.538   4.826  10.153  0.1077  0.0923  0.1624
 3829W        W 7348   2.121   1.260   9.956  0.3998  0.2880  0.0150
 3830W        W 7349   7.924   6.933   2.625  0.0829 -0.0259  0.1230
 3831W        W 7350   0.411   2.688   3.307 -0.1283  0.5367 -0.0988
 3832W        W 7351   5.155   2.288   8.836  0.1410  0.0355 -0.0886
 3833W        W 7352   2.477   1.357   2.347 -0.2436  0.2659 -0.2089
 3834W        W 7353   9.677   2.031  11.492 -0.2059 -0.0883 -0.0058
 3835W        W 7354   9.264   1.608   3.593 -0.0411 -0.0883 -0.0607
 3836W        W 7355   1.362   4.949   3.581 -0.0206  0.1761  0.1127
 3837W        W 7356   4.400   2.102   3.177  0.2147 -0.0962  0.3948
 3838W        W 7357   7.074   2.489   8.725  0.2496 -0.0636 -0.0479
 3839W        W 7358   4.588   0.184   3.578  0.0432 -0.0783  0.1501
 3840W        W 7359   7.311   0.055  11.119  0.2968 -0.2757 -0.0727
 3841W        W 7360   0.364   1.140   1.941 -0.0175  0.0672 -0.0275
 3842W        W 7361   5.498   7.221  12.313 -0.3471 -0.3140  0.2467
 3843W        W 7362   7.911   6.368  11.712  0.2227 -0.1178 -0.2274
 3844W        W 7363   1.644   5.961  12.105  0.1341 -0.1251  0.2272
 3845W        W 7364   6.049   6.861   0.340 -0.0681 -0.0553 -0.3389
 3846W        W 7365   5.453   8.913   9.382  0.0778  0.1198 -0.1491
 3847W        W 7366   7.119   7.766   0.078  0.1295  0.2835 -0.0677
 3848W        W 7367   7.740   4.574  12.431 -0.1555  0.0539 -0.0712
 3849W        W 7368   5.744   8.024   0.928  0.0784 -0.1685 -0.1142
 3850W        W 7369   9.063   7.665   0.539 -0.0999 -0.2109 -0.3267
 3851W        W 7370   1.720   1.618   4.664  0.1663  0.0990  0.0919
 3852W        W 7371   9.545   3.570   3.166 -0.2986 -0.0483  0.1264
 3853W        W 7372   3.145   2.483  12.548  0.1236  0.0461 -0.0605
 3854W        W 7373   1.818   3.368   8.111 -0.0286  0.1969  0.1142
 3855W        W 7374   4.892   3.279  10.040  0.2134  0.1931 -0.0286
 3856W        W 7375   8.716   6.148   3.050 -0.3243  0.1625  0.0419
 3857W        W 7376   0.760   0.440  12.274 -0.2705  0.1423  0.2284
 3858W        W 7377   8.532   6.517   3.341  0.1792 -0.1098 -0.1240
 3859W        W 7378   1.757   0.714   0.933  0.0950 -0.1086  0.3396
 3860W        W 7379   7.133   6.818  11.155 -0.1843  0.0524 -0.0125
 3861W        W 7380   5.243   1.349   4.040  0.3027 -0.2433 -0.3262
 3862W        W 7381   5.898   2.649  11.077  0.0027  0.2134 -0.1098
 3863W        W 7382   1.727   3.182  11.951 -0.3569  0.1353  0.2184
 3864W        W 7383   8.095   9.254  10.130 -0.3052  0.0345  0.0192
 3865W        W 7384   1.010   5.080   1.853 -0.1330  0.2973  0.2336
 3866W        W 7385   4.195   7.579   9.973  0.0392  0.1091  0.0424
 3867W        W 7386   2.057   4.937   0.224 -0.0452  0.2221  0.1458
 3868W        W 7387   3.247   1.530   0.663  0.1745 -0.5184  0.0674
 3869W        W 7388   1.986   4.980  10.430  0.1758  0.0676  0.1496
 3870W        W 7389   4.018   6.900  11.779  0.1326  0.1613  0.3016
 3871W        W 7390   2.794   2.833   0.529 -0.2021 -0.1540  0.2972
 3872W        W 7391   8.384   4.843  11.520  0.1471 -0.0221  0.0229
 3873W        W 7392   9.401   3.442   3.650  0.1879  0.1464 -0.2816
 3874W        W 7393   6.038   1.597   0.659 -0.0176  0.0136 -0.0290
 3875W        W 7394   5.647   3.946   9.017  0.3667  0.1764  0.2542
 3876W        W 7395   8.124   2.089   2.316 -0.1768 -0.0209  0.1825
 3877W        W 7396   3.715   2.145   8.491 -0.0376 -0.2470  0.2338
 3878W        W 7397   4.323   4.342  10.300  0.0112 -0.2556  0.1108
 3879W        W 7398   7.188   1.745   0.334  0.1691 -0.2840  0.0546
 3880W        W 7399   3.065   3.584  10.442 -0.0625 -0.1767  0.1107
 3881W        W 7400   7.972   6.321  12.589 -0.1556 -0.2243 -0.2453
 3882W        W 7401   3.771   3.343  11.002 -0.0843 -0.0387 -0.0053
 3883W        W 7402   4.303   7.852   1.220  0.2669 -0.1619  0.1028
 3884W        W 7403   3.705   0.172  11.761  0.0801 -0.0454  0.0654
 3885W        W 7404   9.176   5.914   3.104 -0.1401  0.0701  0.2594
 3886W        W 7405   9.502   8.858  11.665 -0.0948  0.0477 -0.2354
 3887W        W 7406   4.183   6.480  10.032 -0.1492  0.2785  0.3438
 3888W        W 7407   5.682   3.461   8.456 -0.1672  0.4719 -0.1352
 3889W        W 7408   2.785   0.484  12.130  0.1988 -0.1532  0.2190
 3890W        W 7409   9.174   8.477   9.754  0.1559  0.1704 -0.0837
 3891W        W 7410   3.326   9.479  11.453 -0.1563  0.1995  0.0627
 3892W        W 7411   3.736   9.232   9.533 -0.1127  0.0651 -0.0815
 3893W        W 7412   4.257   0.815   9.000 -0.2513  0.0504  0.1181
 3894W        W 7413   8.382   3.859   0.792 -0.0250 -0.3779  0.1214
 3895W        W 7414   7.404   2.821   0.863 -0.2458  0.1104  0.1195
 3896W        W 7415   8.192   4.236  11.637 -0.2130 -0.2190  0.0384
 3897W        W 7416   4.701   1.081  10.439 -0.1108 -0.0092 -0.0881
 3898W        W 7417   2.820   3.306   3.600 -0.2154  0.0827 -0.3225
 3899W        W 7418   9.016   9.167  11.267  0.0332  0.0094 -0.2502
 3900W        W 7419   7.783   9.411   2.247 -0.0896 -0.0846  0.2135
 3901W        W 7420   3.375   3.035  10.936 -0.0846 -0.2396 -0.1488
 3902W        W 7421   4.517   3.436   3.124 -0.0248 -0.3970  0.0850
 3903W        W 7422   5.115   8.164   1.602 -0.1483 -0.2337 -0.0754
 3904W        W 7423   1.190   1.568   1.929  0.0975 -0.3340 -0.3240
 3905W        W 7424   3.433   9.363   0.990 -0.0051 -0.1222 -0.2204
 3906W        W 7425   4.884   4.822  12.007 -0.1358  0.1776  0.1897
 3907W        W 7426   0.541   2.647  11.345  0.0108 -0.0836  0.0279
 3908W        W 7427   5.865   4.033  11.084 -0.1853  0.1481 -0.0702
 3909W        W 7428   7.498   2.459   0.477 -0.0275  0.0388 -0.1230
 3910W        W 7429   8.759   9.448   2.756 -0.1448  0.1337  0.1474
 3911W        W 7430   3.665   6.004   9.380 -0.0971  0.0730  0.4105
 3912W        W 7431   4.726   1.983   0.968 -0.2081  0.0055  0.3328
 3913W        W 7432   5.888   8.030  12.408 -0.0111 -0.1402 -0.2686
 3914W        W 7433   4.165   4.017   7.967 -0.1678 -0.0813 -0.2640
 3915W        W 7434   0.491   5.025   9.328 -0.2909 -0.1447 -0.2960
 3916W        W 7435   8.191   3.739   8.351  0.0142 -0.0897  0.2538
 3917W        W 7436   6.976   6.752   9.451  0.4191 -0.2147  0.2006
 3918W        W 7437   8.425   1.432   9.810 -0.0328 -0.3264 -0.0599
 3919W        W 7438   3.696   0.068  12.336 -0.1272 -0.2425  0.3144
 3920W        W 7439   7.474   3.428   0.020  0.2167  0.0271 -0.0688
 3921W        W 7440   8.456   1.095   0.066  0.1672  0.0849  0.3968
 3922W        W 7441   7.697   8.447   2.458 -0.0494  0.4524  0.2052
 3923W        W 7442   1.607   4.586   8.771  0.0678  0.5098  0.1004
 3924W        W 7443   4.132   4.902   1.996  0.3539  0.0706 -0.0327
 3925W        W 7444   3.997   3.794  10.929  0.0897 -0.1623 -0.1477
 3926W        W 7445   3.708   4.639  10.937  0.1380  0.1067 -0.2563
 3927W        W 7446   6.634   2.272   3.165 -0.1754 -0.1508 -0.0638
 3928W        W 7447   1.356   7.153   9.495 -0.2000  0.2458  0.0628
 3929W        W 7448   1.011   6.357  10.324  0.1663 -0.2702 -0.0970
 3930W        W 7449   6.302   4.841  11.454 -0.2624  0.0636  0.2499
 3931W        W 7450   6.026   2.044   8.802  0.1118 -0.2649 -0.0858
 3932W        W 7451   8.226   6.511   9.733 -0.2586 -0.0297 -0.3757
 3933W        W 7452   5.978   1.536   1.255 -0.0921  0.1777 -0.1481
 3934W        W 7453   9.498   7.302  12.058 -0.1496  0.0691 -0.1127
 3935W        W 7454   8.681   3.084   4.090 -0.0315 -0.1444 -0.0042
 3936W        W 7455   2.657   1.228   1.752 -0.1493 -0.1401  0.1478
 3937W        W 7456   6.426   6.236   4.320  0.1731  0.1280  0.2934
 3938W        W 7457   6.700   1.198   1.857  0.0027  0.0446 -0.0992
 3939W        W 7458   7.787   2.530   2.222  0.0449  0.2981 -0.3249
 3940W        W 7459   5.532   2.114   9.547 -0.0284 -0.0380 -0.1540
 3941W        W 7460   3.702   0.690  11.936  0.1595  0.0110 -0.3762
 3942W        W 7461   6.176   3.788  10.737 -0.0070 -0.1386  0.3417
 3943W        W 7462   8.647   3.446   0.572 -0.0142 -0.3828 -0.0789
 3944W        W 7463   2.710   3.923  12.514  0.3432 -0.0855 -0.2801
 3945W        W 7464   2.329   6.702   1.046 -0.0217 -0.2784 -0.4271
 3946W        W 7465   3.153   2.333   3.465  0.3578  0.0102 -0.1647
 3947W        W 7466   5.077   9.374   4.019 -0.2137 -0.2553 -0.0541
 3948W        W 7467   2.314   2.909   2.055  0.0056 -0.0688  0.3177
 3949W        W 7468   0.212   9.500   3.220 -0.3099  0.1723  0.0301
 3950W        W 7469   4.498   6.230   2.783  0.0643 -0.2306  0.0878
 3951W        W 7470   2.599   5.804   2.895 -0.1632  0.0984 -0.2161
 3952W        W 7471   2.258   7.304   9.839  0.0029 -0.0848  0.0650
 3953W        W 7472   9.089   4.781   3.135 -0.1209 -0.1422 -0.0400
 3954W        W 7473   0.188   6.724   4.540  0.2666 -0.1451  0.0614
 3955W        W 7474   0.930   1.573   3.549 -0.0148 -0.0484  0.1055
 3956W        W 7475   9.407   6.738  11.843  0.2259  0.0734  0.1992
 3957W        W 7476   7.860   0.717   2.717 -0.0952  0.1485  0.0263
 3958W        W 7477   6.892   9.054   1.032 -0.0563 -0.0949  0.1306
 3959W        W 7478   4.931   8.966  11.992  0.2429  0.0091  0.0312
 3960W        W 7479   3.575   8.514  10.821  0.1098  0.1233 -0.0380
 3961W        W 7480   1.595   8.674   9.936 -0.4158 -0.3594 -0.0923
 3962W        W 7481   7.137   4.561   2.987  0.0589 -0.0394 -0.2072
 3963W        W 7482   3.141   1.343   1.620 -0.1689  0.0507 -0.2815
 3964W        W 7483   9.459   7.362   9.375 -0.0427 -0.1750  0.1652
 3965W        W 7484   1.159   7.969  10.807  0.2079 -0.0677  0.2916
 3966W        W 7485   1.919   3.255   8.930  0.0569 -0.0904  0.1162
 3967W        W 7486   4.155   2.860   0.587 -0.0362 -0.1692  0.1470
 3968W        W 7487   0.416   7.786   2.513 -0.3048 -0.0496  0.1859
 3969W        W 7488   9.666   0.288   3.669  0.0104  0.0494  0.0039
 3970W        W 7489   4.811   2.800   2.418  0.3412  0.1332  0.0784
 3971W        W 7490   2.111   5.687  12.127 -0.0607 -0.3331 -0.1228
 3972W        W 7491   2.585   6.517   0.679 -0.2043 -0.0929  0.0650
 3973W        W 7492   9.367   9.334   0.668  0.0294 -0.1603 -0.0621
 3974W        W 7493   2.376   6.827  10.418  0.1994 -0.1396 -0.1952
 3975W        W 7494   6.552   1.344   3.820  0.2244  0.0503 -0.0026
 3976W        W 7495   1.301   4.072  11.666 -0.0809  0.1421 -0.1553
 3977W        W 7496   1.318   4.627   1.800 -0.0943  0.2220  0.0494
 3978W        W 7497   4.731   0.161   3.031  0.2956 -0.1731  0.0869
 3979W        W 7498   3.747   8.486   9.046 -0.0264 -0.2673 -0.1096
 3980W        W 7499   4.463   8.095  11.082  0.1321  0.0559  0.0828
 3981W        W 7500   3.679   8.615   0.705  0.2095 -0.3772  0.0235
 3982W        W 7501   8.475   3.999  10.712  0.2732 -0.0981  0.0858
 3983W        W 7502   0.704   1.901   9.116 -0.0980 -0.3380  0.0285
 3984W        W 7503   2.576   5.149  11.302  0.1287  0.2671  0.2697
 3985W        W 7504   9.447   4.139   8.728  0.1059 -0.0440 -0.1664
 3986W        W 7505   6.149   6.617  11.429  0.0183 -0.0684 -0.1924
 3987W        W 7506   1.482   1.846  11.166 -0.3558  0.3047 -0.0043
 3988W        W 7507   5.209   3.087   2.678 -0.1235  0.0274  0.1832
 3989W        W 7508   6.732   8.726   1.485 -0.4982 -0.2470 -0.1191
 3990W        W 7509   0.390   6.891   1.070  0.0418 -0.0607  0.2544
 3991W        W 7510   7.564   6.645   3.646 -0.1441  0.0432  0.1613
 3992W        W 7511   9.611   4.542   9.132 -0.1739 -0.3666  0.4422
 3993W        W 7512   3.867   4.202  10.596 -0.0308 -0.0269 -0.0168
 3994W        W 7513   8.555   1.242   3.879  0.0190  0.0479  0.4994
 3995W        W 7514   4.546   0.759   0.662  0.1882  0.0087 -0.0744
 3996W        W 7515   3.573   0.229   8.687  0.0904 -0.3275 -0.0562
 3997W        W 7516   7.184   7.858   3.903 -0.1518 -0.0473  0.1469
 3998W        W 7517   6.961   9.459   9.514 -0.0503  0.1422 -0.1710
 3999W        W 7518   7.982   3.963  10.538 -0.0391  0.1613  0.0997
 4000W        W 7519   5.636   2.681  10.058 -0.3024  0.1301 -0.0436
 4001W        W 7520   9.251   5.933   0.871  0.3346 -0.1777  0.1250
 4002W        W 7521   1.247   5.611  11.861 -0.0774 -0.2603 -0.1105
 4003W        W 7522   1.921   2.059   2.276  0.1317 -0.0450  0.1001
 4004W        W 7523   0.047   2.779   2.903  0.0774 -0.0451 -0.2187
 4005W        W 7524   8.793   2.401   9.935 -0.0291  0.0485  0.2428
 4006W        W 7525   4.896   1.337   3.423  0.1781 -0.1336  0.0320
 4007W        W 7526   6.872   3.514   1.925  0.2707 -0.2242 -0.1848
 4008W        W 7527   2.564   5.988  10.788  0.0963 -0.0065 -0.0446
 4009W        W 7528   2.602   5.561   4.218  0.2047  0.4062 -0.0792
 4010W        W 7529   4.061   9.486   9.791 -0.2298 -0.0568 -0.1869
 4011W        W 7530   2.305   9.042   9.337  0.1763  0.3785 -0.0180
 4012W        W 7531   0.368   7.480   9.732  0.3587  0.0841  0.0800
 4013W        W 7532   6.330   7.407  11.957 -0.1066 -0.1585  0.1111
 4014W        W 7533   1.642   1.145   9.733  0.1254 -0.4183  0.1936
 4015W        W 7534   2.166   4.429  12.113 -0.0179  0.0367 -0.0392
 4016W        W 7535   3.058   0.870  11.290  0.4197 -0.0002  0.0267
 4017W        W 7536   6.819   6.218   9.221 -0.1175  0.3242 -0.0018
 4018W        W 7537   3.264   3.332   1.005  0.0213 -0.0908 -0.0153
 4019W        W 7538   1.415   0.166  11.439  0.0915  0.0752  0.4209
 4020W        W 7539   4.816   2.822  11.806 -0.2938  0.0202 -0.1358
 4021W        W 7540   3.304   6.936  12.459 -0.6571 -0.2277  0.0463
 4022W        W 7541   2.218   7.312   0.236  0.0370 -0.1246  0.0694
 4023W        W 7542   5.528   2.957  12.021  0.1074  0.2660 -0.0571
 4024W        W 7543   2.906   9.148   3.802  0.2035 -0.0315 -0.4199
 4025W        W 7544   7.638   4.764   2.892 -0.0407  0.0277 -0.1596
 4026W        W 7545   7.801   5.879  11.167  0.0439 -0.2897 -0.1076
 4027W        W 7546   6.892   5.677   9.577  0.5174  0.1494 -0.0086
 4028W        W 7547   3.216   7.794   0.115  0.0342 -0.0693  0.0001
 4029W        W 7548   4.619   1.815   8.639  0.1442  0.0735 -0.1045
 4030W        W 7549   3.726   2.466  12.197 -0.0588 -0.2794  0.1124
 4031W        W 7550   4.254   5.812  11.058 -0.1894  0.1827  0.0365
 4032W        W 7551   1.598   8.223   1.637 -0.0468  0.0035  0.0384
 4033W        W 7552   3.200   0.180   3.482 -0.3512 -0.0919 -0.0996
 4034W        W 7553   8.438   5.478   2.328 -0.4015  0.1047  0.0769
 4035W        W 7554   4.847   0.138   1.322 -0.0076  0.1382 -0.0653
 4036W        W 7555   2.071   7.280   3.652  0.0905  0.0693 -0.0574
 4037W        W 7556   5.470   5.218   3.200  0.1222  0.1370 -0.2062
 4038W        W 7557   2.754   4.487   0.756 -0.3257  0.1475 -0.0401
 4039W        W 7558   4.512   0.896   1.607 -0.1415 -0.0686  0.0267
 4040W        W 7559   5.312   8.313   2.722 -0.2665  0.0980 -0.0090
 4041W        W 7560   9.049   7.548  12.497 -0.2698  0.2369  0.0222
 4042W        W 7561   4.395   5.740   0.729 -0.0398 -0.3105  0.0490
 4043W        W 7562   0.766   5.309  10.493 -0.0387 -0.0162 -0.3473
 4044W        W 7563   1.302   0.266   3.353  0.0749 -0.2118 -0.0372
 4045W        W 7564   1.803   6.881   9.796 -0.0720  0.0632  0.0535
 4046W        W 7565   1.704   7.360   8.687 -0.1787 -0.0889 -0.3083
 4047W        W 7566   8.434   3.513   2.380  0.0493  0.5329 -0.0069
 4048W        W 7567   6.468   0.367  12.191 -0.2125 -0.0763  0.0493
 4049W        W 7568   3.541   1.448  10.977 -0.0740 -0.0497  0.1929
 4050W        W 7569   1.973   3.309  11.518 -0.0550 -0.1798 -0.2193
 4051W        W 7570   0.882   1.975   4.557 -0.1158  0.3644  0.0730
 4052W        W 7571   3.143   9.024   9.177 -0.1255 -0.0340  0.0597
 4053W        W 7572   3.045   1.760   1.964 -0.0156  0.0952  0.0312
 4054W        W 7573   0.660   6.964   1.534 -0.3120 -0.2386 -0.1178
 4055W        W 7574   1.626   1.052  11.320  0.0550 -0.1246 -0.2965
 4056W        W 7575   4.853   3.135   0.981  0.3842  0.3000  0.0343
 4057W        W 7576   7.542   3.463   9.776 -0.2635 -0.1605  0.0469
 4058W        W 7577   7.714   6.050   2.378  0.0959  0.0425  0.3322
 4059W        W 7578   0.223   9.388   4.473 -0.1209  0.1186  0.0323
 4060W        W 7579   2.532   4.074   1.598  0.1165  0.1567  0.0840
 4061W        W 7580   1.334   4.536  10.802 -0.0715  0.0310  0.0725
 4062W        W 7581   1.311   2.733   4.647 -0.0089 -0.2480 -0.1301
 4063W        W 7582   0.127   0.176  10.115 -0.2718 -0.2119 -0.0330
 4064W        W 7583   3.596   2.466   4.167  0.3387  0.1181 -0.1942
 4065W        W 7584   9.619   6.816   2.033  0.0148  0.0314  0.1768
 4066W        W 7585   8.529   8.890  10.707  0.0310 -0.2303 -0.3845
 4067W        W 7586   0.619   7.545   8.813  0.0540 -0.0099  0.0154
 4068W        W 7587   7.789   8.591   1.636  0.1644  0.1451  0.0395
 4069W        W 7588   1.073   4.142   3.188 -0.1097  0.0517 -0.0877
 4070W        W 7589   5.983   9.400  11.115  0.0749 -0.3973  0.3700
 4071W        W 7590   9.194   9.311   9.764 -0.1019 -0.2616 -0.1924
 4072W        W 7591   6.699   3.863  12.588 -0.2626 -0.4139  0.0458
 4073W        W 7592   8.599   6.660  10.120 -0.1462 -0.0446 -0.0251
 4074W        W 7593   3.370   4.465  11.265 -0.1494 -0.1172 -0.3407
 4075W        W 7594   2.290   3.276   3.554 -0.0304  0.0319  0.1744
 4076W        W 7595   5.706   3.084  10.933  0.1144  0.0308 -0.0790
 4077W        W 7596   8.701   0.968   9.917 -0.2136  0.0190  0.1916
 4078W        W 7597   4.579   8.271   1.595 -0.0456 -0.0474  0.2055
 4079W        W 7598   0.129   2.821   9.404 -0.0455  0.6153 -0.0071
 4080W        W 7599   7.820   6.602   0.732  0.2719 -0.4224  0.2712
 4081W        W 7600   3.196   4.225   8.595 -0.1186  0.2759 -0.3640
 4082W        W 7601   4.866   3.643   8.603 -0.3158  0.0280 -0.1433
 4083W        W 7602   4.792   3.334  10.998  0.0544 -0.0648  0.1828
 4084W        W 7603   2.026   2.043  10.704 -0.1898 -0.4875 -0.0534
 4085W        W 7604   0.593   9.279  12.041  0.0052 -0.2170 -0.0904
 4086W        W 7605   3.246   7.346   0.308 -0.0655 -0.0085  0.5392
 4087W        W 7606   2.579   4.298   8.761  0.3733 -0.0364 -0.0208
 4088W        W 7607   9.650   5.948   8.273  0.0303 -0.1849 -0.4302
 4089W        W 7608   0.722   3.033   0.567  0.0261 -0.2458 -0.0173
 4090W        W 7609   2.751   6.597  10.115  0.0251 -0.2138  0.0669
 4091W        W 7610   7.752   3.170  11.960  0.0973 -0.0602  0.2324
 4092W        W 7611   3.489   7.693   2.755 -0.0601  0.2034  0.1249
 4093W        W 7612   6.357   9.487   2.188 -0.5203 -0.1200  0.2243
 4094W        W 7613   5.546   3.196   3.138  0.0480 -0.1695 -0.2197
 4095W        W 7614   9.453   5.574   3.859 -0.0151  0.2970 -0.2075
 4096W        W 7615   6.419   5.544   2.676 -0.1164  0.0594 -0.4086
 4097W        W 7616   0.402   6.210   2.240  0.0403 -0.1415 -0.1237
 4098W        W 7617   3.431   2.013   1.512  0.1419 -0.1744 -0.3299
 4099W        W 7618   5.700   1.243   1.582  0.1662  0.0851 -0.0949
 4100W        W 7619   8.735   7.261   0.679 -0.0987 -0.2344 -0.0895
 4101W        W 7620   5.580   5.729  10.479 -0.1427  0.1483  0.0590
 4102W        W 7621   1.759   6.864   8.737  0.1042 -0.0371  0.2344
 4103W        W 7622   4.213   4.431   3.296  0.3333  0.1485 -0.2477
 4104W        W 7623   4.729   5.572   2.134 -0.1721 -0.0852  0.0571
 4105W        W 7624   9.220   8.692   3.282 -0.0158  0.2083 -0.0830
 4106W        W 7625   2.422   5.407   1.960 -0.1173  0.2918 -0.1597
 4107W        W 7626   2.576   0.411   0.468 -0.2227 -0.3126 -0.0401
 4108W        W 7627   3.255   1.569   1.179 -0.2111 -0.2962 -0.4549
 4109W        W 7628   4.366   5.415   2.401  0.0442  0.1901  0.0923
 4110W        W 7629   0.125   2.021   2.478  0.1046 -0.2708 -0.3352
 4111W        W 7630   5.659   6.235   1.149  0.1355  0.1668 -0.1574
 4112W        W 7631   1.722   7.570   4.422  0.0380  0.0612 -0.0455
 4113W        W 7632   5.533   2.589  12.406  0.0346  0.1439 -0.2420
 4114W        W 7633   5.404   6.538  11.615 -0.5198 -0.0967  0.2441
 4115W        W 7634   5.324   0.579   0.673  0.2216 -0.1002  0.0074
 4116W        W 7635   2.425   1.367   0.616  0.0494 -0.1327 -0.0458
 4117W        W 7636   8.836   3.533  12.022 -0.1063  0.3911 -0.0143
 4118W        W 7637   7.622   4.210   0.964  0.1349 -0.0543  0.1735
 4119W        W 7638   8.036   4.537   0.933  0.0419 -0.0143 -0.0031
 4120W        W 7639   0.649   9.224   3.435  0.1637  0.0471 -0.2614
 4121W        W 7640   7.578   1.204   2.334 -0.1056 -0.0726 -0.2374
 4122W        W 7641   4.202   6.568  12.323  0.2065 -0.2819 -0.2123
 4123W        W 7642   2.073   4.706   2.428  0.4601 -0.0536  0.1020
 4124W        W 7643   9.492   2.492  10.092 -0.2327 -0.0397  0.2182
 4125W        W 7644   2.892   3.248   9.669 -0.1431 -0.1315 -0.2606
 4126W        W 7645   4.803   3.139   1.572  0.0770  0.0177 -0.1244
 4127W        W 7646   7.613   2.094   2.484 -0.0177 -0.0713  0.2593
 4128W        W 7647   9.361   0.254   2.504 -0.2019  0.1100 -0.0762
 4129W        W 7648   4.037   1.312  11.055 -0.1777  0.0873 -0.0360
 4130W        W 7649   7.041   5.392   2.070 -0.2381  0.0719  0.2841
 4131W        W 7650   9.031   8.750  11.752  0.0057  0.2021  0.0221
 4132W        W 7651   7.379   4.486  10.338  0.3133  0.1294  0.0410
 4133W        W 7652   3.004   6.286   0.504  0.1148  0.1214 -0.0526
 4134W        W 7653   8.842   5.105   1.523  0.1768  0.2966  0.0312
 4135W        W 7654   5.480   9.086   9.877 -0.1858  0.0276  0.0427
 4136W        W 7655   7.563   4.677   0.708 -0.4895  0.2222 -0.1058
 4137W        W 7656   8.057   3.939   4.410  0.2825 -0.2658 -0.0180
 4138W        W 7657   0.924   9.240  10.915  0.2038 -0.2632  0.1561
 4139W        W 7658   0.595   3.167   9.661  0.1399  0.0980  0.1356
 4140W        W 7659   2.529   0.644   1.678  0.2447 -0.2805 -0.0802
 4141W        W 7660   8.023   0.247   2.705 -0.0191  0.1999 -0.0143
 4142W        W 7661   1.175   2.816   0.126  0.1175 -0.0380 -0.0636
 4143W        W 7662   2.633   5.881   1.218 -0.1628  0.0144 -0.0645
 4144W        W 7663   1.178   5.021   2.635 -0.1434 -0.3360  0.3478
 4145W        W 7664   7.223   6.197   9.597 -0.2651 -0.0278 -0.0143
 4146W        W 7665   4.189   9.645  10.597 -0.1887  0.0297 -0.1747
 4147W        W 7666   2.446   1.489  11.188 -0.1530  0.2817  0.4452
 4148W        W 7667   9.560   9.471   0.242 -0.0326 -0.0743 -0.0623
 4149W        W 7668   8.737   5.232   3.477  0.0053 -0.2781 -0.1859
 4150W        W 7669   1.027   9.566   9.840 -0.0925  0.3530 -0.2647
 4151W        W 7670   8.583   9.416   9.909  0.2434 -0.3075  0.1670
 4152W        W 7671   0.916   0.931   1.953  0.0915 -0.1325 -0.0737
 4153W        W 7672   6.426   8.556   1.886 -0.1714 -0.2118 -0.0084
 4154W        W 7673   4.236   1.094  10.477 -0.1368 -0.0922 -0.0713
 4155W        W 7674   9.560   1.461   0.583  0.0111 -0.3326 -0.0993
 4156W        W 7675   6.171   7.543   2.172  0.1179 -0.0381 -0.1422
 4157W        W 7676   0.661   6.338   3.611  0.1145  0.0576  0.0025
 4158W        W 7677   3.158   3.531   3.259 -0.0418 -0.1125 -0.0537
 4159W        W 7678   0.390   6.863   9.503 -0.3320  0.0010 -0.2699
 4160W        W 7679   7.266   5.876   3.723  0.1063 -0.0886 -0.2205
 4161W        W 7680   6.347   1.624   9.517 -0.0993  0.1923 -0.1516
 4162W        W 7681   6.759   0.680  11.774 -0.1879 -0.1223 -0.2355
 4163W        W 7682   1.228   5.213   3.988 -0.0223 -0.3709 -0.2018
 4164W        W 7683   7.961   8.121  10.819  0.1698  0.2599 -0.0329
 4165W        W 7684   4.641   5.655   1.659  0.0087 -0.5286  0.0338
 4166W        W 7685   6.803   5.457   9.121 -0.2080 -0.1163 -0.0057
 4167W        W 7686   0.016   6.069  12.404 -0.3953  0.3845  0.1019
 4168W        W 7687   1.856   5.347   1.660  0.1766  0.1488 -0.1292
 4169W        W 7688   4.465   2.377   2.210 -0.1902  0.2399  0.0091
 4170W        W 7689   8.214   2.834   0.379 -0.2050  0.3007  0.1190
 4171W        W 7690   5.095   2.474   2.799  0.0959 -0.1501  0.0074
 4172W        W 7691   6.892   4.491  10.224 -0.0845  0.1769 -0.1859
 4173W        W 7692   0.570   8.626  12.150  0.0394 -0.1452 -0.1251
 4174W        W 7693   7.522   4.275   0.416 -0.0493  0.2407 -0.1215
 4175W        W 7694   6.696   0.999   0.524 -0.0378  0.0285  0.1519
 4176W        W 7695   7.873   5.882  11.703  0.1892 -0.0429  0.0576
 4177W        W 7696   9.478   7.138   8.604 -0.2562  0.1022 -0.0040
 4178W        W 7697   3.867   7.860   0.937  0.1078 -0.0405 -0.2256
 4179W        W 7698   8.876   5.601   0.794 -0.0394  0.3248 -0.2719
 4180W        W 7699   9.352   3.080   3.138  0.1762  0.0870  0.1370
 4181W        W 7700   2.920   9.388   8.999  0.2527 -0.2729  0.0871
 4182W        W 7701   7.093   3.032   3.498  0.0232 -0.2696 -0.0855
 4183W        W 7702   1.396   1.099  12.187 -0.1659  0.3164 -0.0111
 4184W        W 7703   4.367   3.682  11.216 -0.0986 -0.1197 -0.2113
 4185W        W 7704   7.010   9.467  10.804  0.4060  0.1120 -0.1925
 4186W        W 7705   7.621   5.741  10.738  0.0969 -0.0752 -0.3083
 4187W        W 7706   3.674   3.341   2.059  0.1991  0.0137  0.0590
 4188W        W 7707   0.626   4.977  12.133  0.0749 -0.0020 -0.1444
 4189W        W 7708   6.738   7.813  10.679  0.0060 -0.0284 -0.0107
 4190W        W 7709   8.619   0.474   9.198 -0.1410  0.1332  0.0408
 4191W        W 7710   0.827   6.069   9.958 -0.1273  0.4293 -0.2932
 4192W        W 7711   2.220   8.181   9.300 -0.0702  0.2873 -0.0510
 4193W        W 7712   3.353   8.429   4.201 -0.1235 -0.0033  0.0265
 4194W        W 7713   7.272   8.700   2.216  0.3218 -0.0553 -0.3153
 4195W        W 7714   6.365   7.803  12.248  0.1704  0.0705  0.0250
 4196W        W 7715   0.172   6.315   3.720  0.0517 -0.0198  0.1245
 4197W        W 7716   1.827   0.136   0.261 -0.1229 -0.0030 -0.0674
 4198W        W 7717   6.129   5.239   3.787  0.6218 -0.2775  0.0568
 4199W        W 7718   2.126   1.170   3.996  0.1868  0.0954  0.0755
 4200W        W 7719   2.322   5.085   8.949  0.1283  0.1330  0.1991
 4201W        W 7720   3.146   8.466  10.546 -0.1514 -0.1688  0.4338
 4202W        W 7721   5.997   9.307   1.973  0.2747  0.1572 -0.2040
 4203W        W 7722   6.357   0.095  10.282  0.2671 -0.4550 -0.0182
 4204W        W 7723   8.187   4.258  12.156 -0.0834 -0.1351  0.0419
 4205W        W 7724   8.631   5.367  11.391  0.2634  0.0704 -0.0033
 4206W        W 7725   8.071   8.304   2.103 -0.3252  0.1776 -0.3057
 4207W        W 7726   7.622   7.240   4.467 -0.0344  0.1089  0.0789
 4208W        W 7727   3.503   6.891   1.627 -0.0691 -0.0698  0.2970
 4209W        W 7728   3.786   1.966  12.226  0.0642 -0.1892  0.3041
 4210W        W 7729   6.252   1.619   0.112 -0.2523  0.0650 -0.2361
 4211W        W 7730   4.809   9.015   2.148 -0.0331 -0.2997 -0.2163
 4212W        W 7731   3.309   2.857   4.325 -0.1358 -0.0111  0.1128
 4213W        W 7732   9.448   7.928   1.755  0.2722  0.2568  0.2201
 4214W        W 7733   8.302   8.495  10.479 -0.0473  0.4351  0.0297
 4215W        W 7734   4.843   9.200   9.350 -0.1436  0.2504  0.1406
 4216W        W 7735   1.640   2.344   8.871 -0.1179 -0.2562  0.2264
 4217W        W 7736   2.001   9.175  10.644  0.0547  0.0283  0.3001
 4218W        W 7737   7.390   9.258  10.561  0.1834 -0.1283 -0.1859
 4219W        W 7738   0.135   1.524  12.387 -0.0914 -0.2091  0.1543
 4220W        W 7739   2.950   6.105  11.786  0.0730 -0.2342 -0.0011
 4221W        W 7740   0.171   7.028   0.138 -0.1845  0.2287 -0.0621
 4222W        W 7741   5.272   3.139   3.558  0.1646 -0.0278  0.0235
 4223W        W 7742   8.392   2.150  12.122  0.0539 -0.0183 -0.1793
 4224W        W 7743   2.516   5.392   3.676  0.1806 -0.1648  0.3002
 4225W        W 7744   0.466   2.150   2.159 -0.1215  0.1693  0.3308
 4226W        W 7745   3.654   0.952  12.433 -0.4034  0.0999 -0.0767
 4227W        W 7746   5.849   2.137  11.129 -0.0846 -0.1060  0.0810
 4228W        W 7747   7.057   3.891   3.647 -0.0069  0.0676 -0.2071
 4229W        W 7748   3.395   8.465   0.289 -0.1289  0.0490  0.0809
 4230W        W 7749   1.494   1.245   0.117 -0.2480  0.0227  0.0518
 4231W        W 7750   9.320   5.354   0.724  0.0687 -0.1762 -0.2306
 4232W        W 7751   5.643   9.321   1.112 -0.0993  0.2786 -0.0241
 4233W        W 7752   1.139   8.692  12.582  0.1114  0.2969  0.0350
 4234W        W 7753   1.327   9.319  10.520  0.1728 -0.1866  0.0517
 4235W        W 7754   8.723   0.657  10.731  0.1390 -0.1582  0.1156
 4236W        W 7755   6.899   2.085   0.676 -0.3775  0.0673  0.0873
 4237W        W 7756   8.908   7.077  10.371  0.1427  0.0665  0.2458
 4238W        W 7757   6.465   2.365   0.884  0.1663 -0.3564 -0.1777
 4239W        W 7758   6.473   6.332  10.811 -0.3099  0.0971 -0.0406
 4240W        W 7759   4.976   6.809   3.555  0.3358 -0.1773  0.2629
 4241W        W 7760   1.179   3.097   1.396  0.1208  0.1649 -0.0252
 4242W        W 7761   4.213   5.356  12.461  0.3851  0.1721  0.1014
 4243W        W 7762   1.951   1.878  10.204 -0.0078  0.2244 -0.0203
 4244W        W 7763   0.461   0.924   7.763 -0.1887 -0.0574 -0.0826
 4245W        W 7764   2.631   7.117  10.095  0.4621  0.1965 -0.2861
 4246W        W 7765   7.112   8.930   9.559  0.1875  0.1217  0.0797
 4247W        W 7766   3.615   3.014   1.356 -0.0485  0.1302 -0.3111
 4248W        W 7767   7.636   1.117   9.837  0.1653 -0.0078 -0.1002
 4249W        W 7768   6.467   6.108   3.181 -0.0405  0.0687  0.0421
 4250W        W 7769   0.458   1.222   2.876  0.4942  0.1434 -0.3442
 4251W        W 7770   5.713   8.855  10.511  0.2081 -0.0772  0.1124
 4252W        W 7771   2.909   6.581   0.127 -0.0763 -0.1277 -0.0864
 4253W        W 7772   1.600   6.389   9.647  0.1611  0.0497  0.1401
 4254W        W 7773   5.740   6.157   1.920 -0.1689  0.0521  0.1174
 4255W        W 7774   7.031   4.890   9.859  0.0606  0.0955 -0.1877
 4256W        W 7775   4.033   1.559   3.439  0.3758 -0.1016  0.0454
 4257W        W 7776   6.782   0.876   8.847  0.4211  0.0620  0.1866
 4258W        W 7777   7.531   0.549  10.597  0.0172 -0.1338  0.1401
 4259W        W 7778   6.863   4.651   4.656  0.0926  0.1113  0.2745
 4260W        W 7779   1.764   6.231   9.214  0.2486  0.0603 -0.0397
 4261W        W 7780   0.474   8.386   2.960  0.0439  0.0787 -0.1247
 4262W        W 7781   3.597   5.692   3.044  0.3199  0.0010 -0.1679
 4263W        W 7782   7.644   3.333   3.274 -0.1291  0.2651 -0.0304
 4264W        W 7783   8.584   2.450  11.722 -0.2487 -0.1490  0.3447
 4265W        W 7784   6.505   4.351  12.507  0.2471  0.2497 -0.3125
 4266W        W 7785   7.690   8.929  10.379 -0.0269 -0.2363  0.1637
 4267W        W 7786   7.472   3.916  10.538 -0.1760 -0.0508 -0.1433
 4268W        W 7787   4.545   5.684  12.340 -0.2147  0.0223  0.1759
 4269W        W 7788   2.945   8.009  10.755 -0.1113 -0.2974  0.0148
 4270W        W 7789   2.537   8.504  12.071 -0.1504 -0.1353 -0.0554
 4271W        W 7790   8.349   6.741  12.473 -0.0068 -0.0399 -0.0014
 4272W        W 7791   5.723   5.128   9.818 -0.0021  0.3620  0.0557
 4273W        W 7792   2.458   8.536   7.981 -0.1334  0.1078  0.1699
 4274W        W 7793   4.667   0.125  10.517  0.4930  0.0780 -0.3669
 4275W        W 7794   8.746   2.168   8.961 -0.1053  0.0020  0.2806
 4276W        W 7795   6.844   5.431   3.025 -0.1506 -0.4474  0.0409
 4277W        W 7796   8.275   2.267   4.614 -0.0787 -0.2083 -0.2594
 4278W        W 7797   9.197   7.498   1.677  0.0300 -0.0736  0.1083
 4279W        W 7798   4.811   4.908   9.583 -0.0448  0.0341  0.3848
 4280W        W 7799   9.304   4.563   1.423  0.0429  0.1234  0.1105
 4281W        W 7800   5.726   4.851   3.546 -0.2481  0.0131  0.0082
 4282W        W 7801   9.131   7.169   8.188 -0.0865 -0.1541  0.1368
 4283W        W 7802   5.366   5.483   1.972 -0.0575  0.1776 -0.1599
 4284W        W 7803   8.740   7.571   1.247  0.0168  0.1838  0.5761
 4285W        W 7804   6.363   8.151   0.110  0.0585 -0.0964  0.2411
 4286W        W 7805   1.459   7.908   7.884 -0.1690  0.0311 -0.4568
 4287W        W 7806   3.868   2.944  10.728  0.1425  0.1450  0.4291
 4288W        W 7807   8.464   8.516   8.280 -0.0642 -0.1978  0.0005
 4289W        W 7808   7.241   7.473   2.893  0.0732  0.1010 -0.0297
 4290W        W 7809   2.507   7.327  11.408  0.2815 -0.2177  0.0859
 4291W        W 7810   3.420   0.026   8.199 -0.1651  0.1182 -0.1442
 4292W        W 7811   6.046   7.175   9.199  0.0098  0.4017 -0.2765
 4293W        W 7812   1.466   7.652  10.419  0.1176 -0.0764  0.1673
 4294W        W 7813   4.356   3.127   2.765  0.2776 -0.1823 -0.2879
 4295W        W 7814   1.188   8.281   3.573  0.1781 -0.0897 -0.3339
 4296W        W 7815   3.956   6.765  11.275  0.2611  0.0594 -0.3120
 4297W        W 7816   8.662   8.975  12.057 -0.1712 -0.2582 -0.1551
 4298W        W 7817   1.161   4.015  10.632  0.1102  0.1728  0.4019
 4299W        W 7818   2.118   3.984  10.377 -0.0614  0.1312  0.0914
 4300W        W 7819   1.960   5.959  12.578 -0.1478  0.1539  0.0001
 4301W        W 7820   4.435   6.869  12.014 -0.0579 -0.0501 -0.1230
 4302W        W 7821   5.539   5.314  12.316  0.1424 -0.2592 -0.0682
 4303W        W 7822   9.491   8.008  10.567  0.0988 -0.1334  0.2771
 4304W        W 7823   9.146   4.848   9.635  0.3414  0.0106 -0.1723
 4305W        W 7824   4.086   7.753   2.741 -0.0451 -0.1017  0.2100
 4306W        W 7825   0.892   3.234   0.111 -0.2075 -0.2272 -0.3614
 4307W        W 7826   3.795   8.085  11.267  0.0518 -0.1988 -0.0190
 4308W        W 7827   1.045   6.353   8.519  0.0384 -0.4675 -0.0620
 4309W        W 7828   7.296   4.861  12.475 -0.1958  0.3410  0.0118
 4310W        W 7829   6.939   4.131  11.004 -0.4669 -0.0766 -0.2959
 4311W        W 7830   8.599   7.212  12.459  0.0127 -0.1400  0.0889
 4312W        W 7831   7.273   7.520   1.948  0.1575  0.0489 -0.0146
 4313W        W 7832   8.791   0.515   4.409 -0.4523 -0.0639  0.1295
 4314W        W 7833   4.904   6.000  12.518 -0.4429 -0.0338  0.0164
 4315W        W 7834   1.170   8.930   3.681  0.4706  0.0157  0.1715
 4316W        W 7835   8.100   2.256  11.007 -0.2799 -0.3259 -0.0314
 4317W        W 7836   7.235   7.381   0.880 -0.2192  0.1988  0.1943
 4318W        W 7837   0.347   5.109   3.144 -0.0528 -0.0589  0.2047
 4319W        W 7838   4.734   1.144   1.213 -0.1034  0.0979  0.1543
 4320W        W 7839   8.871   2.198   4.692 -0.1223  0.3150 -0.2043
 4321W        W 7840   1.036   5.856   8.510  0.1164  0.2614 -0.3087
 4322W        W 7841   0.781   7.228  11.607 -0.0968  0.1174  0.0182
 4323W        W 7842   7.067   5.486  10.573  0.4810  0.0608  0.2173
 4324W        W 7843   3.070   4.778   8.252 -0.1469  0.1367 -0.2319
 4325W        W 7844   4.631   0.670  11.121  0.0789  0.1779 -0.1897
 4326W        W 7845   5.290   2.917   9.827 -0.2239  0.0228 -0.0322
 4327W        W 7846   9.381   2.932   8.808 -0.1457 -0.0590  0.0489
 4328W        W 7847   8.386   7.751   8.372  0.0362  0.1985  0.4796
 4329W        W 7848   1.091   9.411   8.836 -0.0656 -0.1206  0.0549
 4330W        W 7849   6.029   7.179   2.432  0.4123 -0.0520  0.0515
 4331W        W 7850   7.084   6.768   0.210  0.0385  0.0729  0.1141
 4332W        W 7851   0.095   3.021   3.510  0.0718  0.2599  0.1646
 4333W        W 7852   5.811   2.617   2.193  0.1184 -0.1740  0.0075
 4334W        W 7853   3.763   3.678   0.249 -0.0432 -0.1148 -0.3045
 4335W        W 7854   0.567   4.805   1.270 -0.0418  0.2469  0.1933
 4336W        W 7855   3.361   6.681  10.561 -0.5509 -0.2152  0.1954
 4337W        W 7856   7.912   9.602  11.348  0.0607 -0.1487  0.0273
 4338W        W 7857   4.442   2.049   1.824 -0.2521  0.1367  0.1024
 4339W        W 7858   5.289   5.216  11.853  0.0545  0.2745 -0.1156
 4340W        W 7859   2.612   1.817   2.185  0.1310  0.1562  0.3876
 4341W        W 7860   9.573   0.673  10.285 -0.1477 -0.0073  0.1411
 4342W        W 7861   9.651   7.779   3.233  0.0205  0.1403  0.1127
 4343W        W 7862   3.909   5.013   9.174  0.0624  0.0049  0.2031
 4344W        W 7863   4.844   3.861   0.272 -0.0077  0.3971 -0.0461
 4345W        W 7864   7.296   5.058   1.814  0.0139 -0.2600 -0.1154
 4346W        W 7865   1.754   4.764   1.723  0.1095 -0.1870 -0.1482
 4347W        W 7866   9.490   8.299   3.606 -0.0905 -0.1047 -0.0633
 4348W        W 7867   7.281   6.365   2.335  0.2373  0.2257 -0.1214
 4349W        W 7868   1.240   7.157   3.531 -0.0232 -0.0368 -0.1028
 4350W        W 7869   7.700   1.866  10.196  0.0445 -0.3473 -0.2100
 4351W        W 7870   3.944   3.437   1.590  0.2390  0.1221  0.2445
 4352W        W 7871   0.207   0.716   1.110 -0.0715  0.2668  0.0600
 4353W        W 7872   0.042   5.485   8.523  0.1397 -0.0358  0.1904
 4354W        W 7873   2.217   8.644   2.068  0.3954  0.0708 -0.3090
 4355W        W 7874   3.372   0.664   0.210  0.1594 -0.0051 -0.1104
 4356W        W 7875   0.968   1.454   8.329 -0.2993 -0.1242 -0.3038
 4357W        W 7876   2.569   3.718  10.460 -0.2189  0.0318  0.2266
 4358W        W 7877   7.625   3.372   1.814 -0.3863  0.1402 -0.0121
 4359W        W 7878   6.949   2.394   9.224  0.1804  0.1544  0.0252
 4360W        W 7879   6.471   5.448   9.536  0.0431 -0.0257  0.5743
 4361W        W 7880   1.692   3.826   9.400  0.0802 -0.0163 -0.1735
 4362W        W 7881   7.997   5.459   2.473  0.0260  0.0471 -0.0085
 4363W        W 7882   1.775   5.568  11.735 -0.1020 -0.2099 -0.0110
 4364W        W 7883   5.311   3.653   2.940 -0.0168 -0.1073  0.0066
 4365W        W 7884   6.151   5.438   9.107  0.2345  0.0507 -0.1935
 4366W        W 7885   4.716   9.393   2.831  0.1829  0.0832  0.0114
 4367W        W 7886   3.399   5.050  12.469  0.2514  0.0534  0.2827
 4368W        W 7887   4.162   8.701   0.851 -0.0048  0.1208  0.1229
 4369W        W 7888   7.938   7.430   3.285  0.0156 -0.4571  0.0249
 4370W        W 7889   5.495   4.198   9.434  0.2373  0.1886  0.0994
 4371W        W 7890   1.753   8.340   0.017  0.1046 -0.1263  0.0672
 4372W        W 7891   1.336   7.587   9.702 -0.2224  0.2430 -0.0103
 4373W        W 7892   3.302   3.612   9.577 -0.1232  0.0381  0.4275
 4374W        W 7893   2.023   6.762  11.847 -0.1600  0.2932  0.1750
 4375W        W 7894   8.383   0.422   1.061 -0.2710  0.1735  0.0103
 4376W        W 7895   7.904   5.312   1.999  0.1545  0.0388  0.0251
 4377W        W 7896   9.160   1.348   0.890  0.4197 -0.0802 -0.2149
 4378W        W 7897   6.109   2.066   9.330  0.0734 -0.0511  0.1430
 4379W        W 7898   7.464   7.363   1.313  0.0536  0.1091 -0.3454
 4380W        W 7899   1.525   9.543   9.681  0.0017  0.1772 -0.2044
 4381W        W 7900   2.788   8.506   4.321  0.3910 -0.1210  0.2777
 4382W        W 7901   0.577   6.502  10.176 -0.2442 -0.2101  0.3357
 4383W        W 7902   2.742   5.038  11.760  0.1933  0.0216 -0.0012
 4384W        W 7903   2.310   2.436   2.356  0.1209 -0.1040  0.1638
 4385W        W 7904   2.442   5.101   2.376 -0.2209  0.1859  0.2918
 4386W        W 7905   5.179   8.667   9.805  0.0131  0.1914 -0.0810
 4387W        W 7906   1.789   1.186   0.728 -0.0098 -0.2428  0.0149
 4388W        W 7907   1.096   2.795   4.085  0.4851  0.0139 -0.0293
 4389W        W 7908   9.422   8.006  11.338  0.3991 -0.0808  0.0498
 4390W        W 7909   0.027   3.244  10.586  0.1880  0.0711  0.0125
 4391W        W 7910   3.802   9.563  10.283 -0.0235 -0.0813  0.0999
 4392W        W 7911   8.883   2.278   9.473  0.1641 -0.3482  0.2610
 4393W        W 7912   3.484   5.184  10.014  0.0668 -0.1742  0.0059
 4394W        W 7913   1.212   2.512   0.972  0.2636  0.2858  0.3171
 4395W        W 7914   9.278   0.716   3.766 -0.0664 -0.2659  0.1212
 4396W        W 7915   7.298   7.672   9.933 -0.0829 -0.2504  0.1423
 4397W        W 7916   6.165   2.058  10.257  0.0281 -0.0079  0.2672
 4398W        W 7917   7.722   7.572   9.618 -0.3265 -0.2300  0.0663
 4399W        W 7918   2.024   4.041   0.435  0.0326 -0.1275 -0.2032
 4400W        W 7919   1.346   3.122   0.632 -0.0661 -0.1182 -0.2215
 4401W        W 7920   1.112   7.003   1.488  0.0829 -0.0723  0.1348
 4402W        W 7921   0.691   4.350  10.880 -0.3665  0.3437  0.0350
 4403W        W 7922   5.801   5.361   0.597 -0.0835  0.2344 -0.0485
 4404W        W 7923   4.787   3.670   1.023  0.1234  0.2161  0.2200
 4405W        W 7924   0.423   8.532   0.424  0.1329 -0.1065  0.3503
 4406W        W 7925   8.888   4.573   1.791  0.1098 -0.0628  0.0412
 4407W        W 7926   9.354   0.804   7.921 -0.1331 -0.2436  0.3693
 4408W        W 7927   7.238   2.005  12.480  0.0317 -0.0641 -0.0457
 4409W        W 7928   4.067   4.514   3.809  0.1875  0.0956  0.2580
 4410W        W 7929   8.360   4.214   1.903 -0.0323  0.3714  0.0500
 4411W        W 7930   4.040   2.309   2.723  0.2087  0.0496  0.1020
 4412W        W 7931   5.782   5.037   0.055  0.1681  0.3634 -0.0432
 4413W        W 7932   9.487   6.575   3.465 -0.4149 -0.1892 -0.1156
 4414W        W 7933   8.440   4.537   2.709 -0.0320  0.0678  0.0434
 4415W        W 7934   8.585   8.042   2.113 -0.0029 -0.0905 -0.1511
 4416W        W 7935   4.468   1.662   4.770 -0.0736  0.0063  0.0775
 4417W        W 7936   0.598   7.433  12.485  0.1557  0.1703  0.2192
 4418W        W 7937   5.398   0.860   2.198  0.2136  0.2174 -0.5827
 4419W        W 7938   3.016   0.831   1.584 -0.0695 -0.3628 -0.3357
 4420W        W 7939   0.446   6.139   0.077  0.0209 -0.0845  0.3242
 4421W        W 7940   6.271   7.999   2.462 -0.4054 -0.2629  0.3124
 4422W        W 7941   8.473   2.780   9.864  0.1224  0.0249 -0.1959
 4423W        W 7942   1.592   0.801   2.563  0.0568 -0.0803 -0.1290
 4424W        W 7943   5.423   2.811   4.585  0.3083  0.2442 -0.0364
 4425W        W 7944   6.049   0.455   9.379 -0.1520 -0.1525  0.5463
 4426W        W 7945   3.735   8.034  12.059 -0.2135 -0.1560  0.0309
 4427W        W 7946   7.343   2.794  11.158 -0.1380  0.1150  0.0249
 4428W        W 7947   9.514   6.429   2.990 -0.0209  0.0966 -0.0168
 4429W        W 7948   9.622   0.710   3.365 -0.1215 -0.0637 -0.2095
 4430W        W 7949   3.619   0.718   1.064 -0.0261 -0.0401 -0.1462
 4431W        W 7950   0.669   5.387   9.860  0.0289 -0.2648  0.2044
 4432W        W 7951   3.700   5.831  10.325  0.2109  0.1770 -0.1673
 4433W        W 7952   3.526   4.135   0.063 -0.2618 -0.1903 -0.0895
 4434W        W 7953   8.251   7.684  10.922  0.1130  0.1344 -0.4216
 4435W        W 7954   2.267   2.407  12.268 -0.0884 -0.1844 -0.2177
 4436W        W 7955   8.216   4.299   9.170 -0.1134 -0.3751  0.1874
 4437W        W 7956   4.054   3.138   9.969  0.0974  0.5560 -0.2418
 4438W        W 7957   8.846   0.878   0.911 -0.0617 -0.0833 -0.0642
 4439W        W 7958   3.556   1.701   8.257  0.0984  0.1080 -0.1925
 4440W        W 7959   6.197   9.237   8.601  0.1244  0.1424 -0.1332
 4441W        W 7960   7.033   3.860   8.468 -0.1299  0.1220 -0.0288
 4442W        W 7961   1.134   6.493   0.713 -0.4332 -0.0912 -0.0823
 4443W        W 7962   5.016   8.589   1.997 -0.0208  0.0396 -0.4705
 4444W        W 7963   6.815   2.585   3.503  0.0542  0.0481  0.1952
 4445W        W 7964   8.165   7.452   9.344 -0.3628  0.0704 -0.0007
 4446W        W 7965   8.655   7.729   8.778  0.0579  0.4141 -0.0146
 4447W        W 7966   1.939   3.743   2.428  0.0247 -0.1652 -0.0306
 4448W        W 7967   1.795   1.405  10.343 -0.0971  0.1338 -0.1860
 4449W        W 7968   5.365   9.415   0.389  0.2610  0.0152 -0.1321
 4450W        W 7969   4.777   4.249   2.637  0.4473 -0.2342  0.2352
 4451W        W 7970   7.692   0.397  11.140 -0.0331  0.0312  0.2227
 4452W        W 7971   7.067   6.037  12.103 -0.7346  0.0933 -0.2270
 4453W        W 7972   7.352   4.267   8.671 -0.3357 -0.2987  0.1350
 4454W        W 7973   9.150   8.570   8.636 -0.1388 -0.0366 -0.2066
 4455W        W 7974   8.154   7.791   2.047  0.3647 -0.0309 -0.0260
 4456W        W 7975   1.738   8.328   9.145  0.1849 -0.0007  0.0613
 4457W        W 7976   5.657   0.750   9.489  0.0270 -0.0443  0.1144
 4458W        W 7977   5.065   1.974   1.365 -0.1515 -0.0183 -0.1330
 4459W        W 7978   1.008   2.943   2.293  0.0242  0.1185 -0.0556
 4460W        W 7979   2.648   2.289   3.298  0.3371  0.3642 -0.0375
 4461W        W 7980   3.913   7.066  12.218 -0.1684 -0.1783 -0.1653
 4462W        W 7981   2.210   7.316   3.189  0.0260 -0.2963  0.1244
 4463W        W 7982   7.652   1.266  12.485  0.0581  0.1564 -0.0207
 4464W        W 7983   3.402   2.528  11.043 -0.1116 -0.0547 -0.0426
 4465W        W 7984   8.555   2.824   3.505 -0.4061 -0.0859  0.3922
 4466W        W 7985   2.487   8.550   3.406  0.1845 -0.2142  0.2923
 4467W        W 7986   1.144   6.810   2.447 -0.1507  0.2963 -0.0727
 4468W        W 7987   4.248   7.352  11.856  0.3383 -0.0464  0.1895
 4469W        W 7988   3.568   4.124   0.556 -0.3911  0.0400  0.0747
 4470W        W 7989   1.271   3.680  11.331  0.0866 -0.1787 -0.3576
 4471W        W 7990   5.848   9.027  12.463  0.0425  0.4691  0.4366
 4472W        W 7991   0.476   1.406   3.325 -0.1684  0.2092  0.0722
 4473W        W 7992   3.366   8.130  10.987 -0.0816 -0.0124  0.3062
 4474W        W 7993   0.269   0.594  12.099  0.0476 -0.1242  0.3077
 4475W        W 7994   8.497   8.472  11.615  0.2093  0.1403  0.0982
 4476W        W 7995   4.772   3.591   4.871  0.1692  0.0923  0.1080
 4477W        W 7996   8.256   4.444  10.613  0.0902 -0.0911  0.1555
 4478W        W 7997   4.463   5.993  10.164 -0.3090  0.0946  0.0864
 4479W        W 7998   3.200   4.599  10.858  0.3066 -0.2553  0.0590
 4480W        W 7999   9.301   0.655   2.960  0.1470  0.3160  0.0375
 4481W        W 8000   4.167   8.048  12.455  0.0337 -0.2325 -0.0536
 4482W        W 8001   6.398   3.512   3.912  0.0480  0.3182 -0.1550
 4483W        W 8002   8.725   1.417  10.198  0.0931 -0.1196 -0.1857
 4484W        W 8003   6.039   4.599   1.470  0.1239  0.0241  0.4238
 4485W        W 8004   1.053   1.386  12.453  0.1891  0.1068  0.0372
 4486W        W 8005   5.564   7.120   0.465 -0.1950 -0.1275  0.1577
 4487W        W 8006   7.675   4.501  11.769 -0.0774 -0.0848  0.0834
 4488W        W 8007   6.089   2.472  12.089  0.0771 -0.3070  0.0406
 4489W        W 8008   8.806   3.273  10.334 -0.0462  0.3404  0.0645
 4490W        W 8009   7.436   1.227   3.069 -0.0565 -0.1377  0.0270
 4491W        W 8010   8.513   1.396   8.597 -0.1629 -0.2867 -0.2680
 4492W        W 8011   1.941   2.974   3.718  0.2034  0.0710  0.2549
 4493W        W 8012   9.502   1.236   2.172 -0.0309  0.1632 -0.1693
 4494W        W 8013   4.035   1.897   9.586  0.5123 -0.2449  0.0033
 4495W        W 8014   0.017   4.220   0.666 -0.0053 -0.0046  0.1283
 4496W        W 8015   7.971   8.944   2.596  0.0522 -0.1492  0.0056
 4497W        W 8016   5.183   7.311   1.015  0.3015 -0.0865 -0.3393
 4498W        W 8017   3.642   2.886   0.857  0.2458  0.0285 -0.4581
 4499W        W 8018   4.739   6.501   1.322 -0.1861  0.1001 -0.1995
 4500W        W 8019   2.375   7.664  12.201 -0.1541 -0.0614 -0.0154
 4501W        W 8020   5.501   3.269  11.431 -0.0163  0.0121 -0.1242
 4502W        W 8021   9.386   0.240   9.814 -0.1472 -0.3076 -0.2056
 4503W        W 8022   1.201   5.954   1.884 -0.1357 -0.1342  0.2299
 4504W        W 8023   6.153   2.160  11.628 -0.2618  0.3193 -0.1036
 4505W        W 8024   0.092   4.853   2.271  0.1585 -0.0802  0.1235
 4506W        W 8025   5.143   5.827   9.713  0.2540  0.2108  0.0064
 4507W        W 8026   3.142   4.537   0.003 -0.1777  0.0986 -0.0490
 4508W        W 8027   0.920   7.632   3.362  0.0225  0.0629 -0.2114
 4509W        W 8028   2.078   2.925   2.496 -0.1701 -0.0065  0.1628
 4510W        W 8029   5.700   9.403  12.123 -0.0536 -0.0263 -0.0051
 4511W        W 8030   8.934   4.892   8.773 -0.0666  0.0499  0.1874
 4512W        W 8031   7.607   4.543   8.359  0.4263 -0.1620 -0.1204
 4513W        W 8032   0.885   1.050  10.198  0.0035  0.0644 -0.1888
 4514W        W 8033   0.054   7.812   0.175 -0.2995 -0.0653 -0.0697
 4515W        W 8034   8.020   4.090   0.572  0.0322 -0.2024  0.0298
 4516W        W 8035   2.046   4.983   8.136  0.0352  0.0853  0.0029
 4517W        W 8036   3.959   2.407   3.320 -0.1255  0.1800  0.2051
 4518W        W 8037   5.200   5.639   2.418 -0.0292 -0.3370 -0.1430
 4519W        W 8038   0.687   0.690   2.971  0.2789  0.1372 -0.1425
 4520W        W 8039   0.785   6.955   8.483  0.2097  0.1665 -0.2479
 4521W        W 8040   9.674   3.472  10.007 -0.1263  0.3606  0.0542
 4522W        W 8041   7.773   9.412   0.004 -0.0887  0.2483 -0.2483
 4523W        W 8042   3.953   8.907  12.016  0.3933  0.2577 -0.0105
 4524W        W 8043   7.983   0.943   3.953 -0.2146  0.3249 -0.3922
 4525W        W 8044   6.509   8.947  12.285  0.3144 -0.0268  0.1330
 4526W        W 8045   3.979   7.548   0.503  0.2547  0.1151  0.0421
 4527W        W 8046   1.022   7.385   1.795  0.1298  0.0688  0.0830
 4528W        W 8047   0.912   0.305   2.115  0.3542 -0.0603  0.2139
 4529W        W 8048   9.535   8.499   0.308  0.0015  0.2528  0.4325
 4530W        W 8049   6.484   4.664   2.389 -0.0873  0.1144 -0.4551
 4531W        W 8050   0.843   9.330   0.674 -0.0510  0.0423 -0.1896
 4532W        W 8051   2.788   8.140   0.240 -0.2501 -0.1069  0.0431
 4533W        W 8052   6.935   4.124   9.837  0.3688 -0.1347  0.2982
 4534W        W 8053   6.794   7.668   2.141 -0.0651 -0.2528 -0.2408
 4535W        W 8054   3.067   9.456   3.244  0.1841  0.2765  0.1416
 4536W        W 8055   3.781   8.206   4.000 -0.2442 -0.3036  0.1533
 4537W        W 8056   1.357   6.187   0.129 -0.4017 -0.0063 -0.0118
 4538W        W 8057   0.831   3.088  11.574  0.3876 -0.1487  0.1581
 4539W        W 8058   1.533   3.369   3.561  0.1276 -0.1568  0.0073
 4540W        W 8059   2.403   9.197   0.687  0.2178  0.1238  0.0999
 4541W        W 8060   0.771   3.839   1.077  0.1902  0.0822 -0.2149
 4542W        W 8061   8.334   7.562   1.616 -0.1161 -0.0544  0.0110
 4543W        W 8062   6.766   4.851   2.756  0.3464 -0.2283 -0.0822
 4544W        W 8063   0.842   3.232   4.211 -0.0792  0.0122  0.1360
 4545W        W 8064   0.101   5.675   0.721 -0.1577  0.1398 -0.2241
 4546W        W 8065   6.020   4.517   0.278  0.1958 -0.0442  0.0138
 4547W        W 8066   8.478   5.292   1.843  0.3824 -0.3655 -0.1967
 4548W        W 8067   5.771   9.474   0.115 -0.1807 -0.3080  0.1957
 4549W        W 8068   1.591   7.113   2.435  0.0944  0.1698  0.1085
 4550W        W 8069   9.562   2.051  12.341 -0.4266 -0.0772 -0.1457
 4551W        W 8070   3.566   6.654   2.756 -0.1723 -0.0019 -0.3576
 4552W        W 8071   6.823   8.175   0.373 -0.0321  0.1046 -0.0336
 4553W        W 8072   4.846   2.110  12.239  0.1575 -0.0646  0.0132
 4554W        W 8073   0.939   1.141   2.733 -0.0336  0.0630  0.2104
 4555W        W 8074   4.275   3.603   2.207  0.2072 -0.0205 -0.1234
 4556W        W 8075   7.748   9.283  11.006 -0.1923 -0.0196 -0.1437
 4557W        W 8076   5.354   4.881   8.799 -0.1399 -0.2578  0.2681
 4558W        W 8077   4.961   2.465  11.392 -0.4297 -0.2362  0.0106
 4559W        W 8078   1.584   1.292   8.992 -0.0391 -0.0143 -0.0137
 4560W        W 8079   6.232   9.053   9.144 -0.2169 -0.0645  0.1501
 4561W        W 8080   9.451   6.605  10.827 -0.2766  0.5183 -0.3285
 4562W        W 8081   2.951   8.592   0.486 -0.0072 -0.0549 -0.1185
 4563W        W 8082   5.427   6.745  12.153 -0.0625 -0.0900 -0.0677
 4564W        W 8083   3.662   2.009   0.486  0.2772  0.0709  0.1576
 4565W        W 8084   7.649   8.719   1.136 -0.6782 -0.2495  0.0984
 4566W        W 8085   2.041   8.860   9.965 -0.1744  0.1468  0.1370
 4567W        W 8086   6.862   8.429   2.705  0.1323 -0.2451  0.0227
 4568W        W 8087   1.362   4.781  11.595 -0.1971 -0.0792  0.0381
 4569W        W 8088   8.764   7.822   3.077  0.0151  0.2853  0.2144
 4570W        W 8089   7.616   9.455  12.117  0.0851  0.0434  0.0284
 4571W        W 8090   8.786   3.800  11.579  0.1423  0.2096 -0.2311
 4572W        W 8091   6.925   6.871   1.086 -0.0738 -0.1341  0.0574
 4573W        W 8092   3.486   1.558  10.112 -0.1567 -0.0997  0.0244
 4574W        W 8093   1.194   5.551   2.668  0.2092 -0.0162 -0.4826
 4575W        W 8094   6.439   3.334  11.567 -0.2486 -0.0542  0.1072
 4576W        W 8095   6.087   2.846   2.597 -0.3800 -0.1049 -0.2482
 4577W        W 8096   6.761   8.175  11.097 -0.1215 -0.2387  0.2341
 4578W        W 8097   7.737   1.584   3.136 -0.0242  0.0846  0.0509
 4579W        W 8098   0.193   2.204   3.141 -0.0473  0.1091  0.0525
 4580W        W 8099   2.229   3.203   7.938 -0.1940  0.1328  0.0056
 4581W        W 8100   6.051   4.224   4.202  0.0219 -0.1281 -0.2071
 4582W        W 8101   0.612   8.977  11.217 -0.0766 -0.1559  0.2325
 4583W        W 8102   4.843   3.820  11.937 -0.4095 -0.0095 -0.0247
 4584W        W 8103   2.924   3.288   0.643  0.1967  0.1411  0.2824
 4585W        W 8104   7.731   3.787   1.461 -0.1287 -0.2528 -0.0126
 4586W        W 8105   9.340   3.532   9.026 -0.1525  0.2426 -0.3232
 4587W        W 8106   8.159   2.412  10.455 -0.4736 -0.1423 -0.0593
 4588W        W 8107   5.171   3.912  10.519  0.1771 -0.0760  0.0309
 4589W        W 8108   1.090   7.445  10.804  0.0893 -0.2042 -0.1052
 4590W        W 8109   2.749   5.277   8.709  0.0350  0.1115 -0.1604
 4591W        W 8110   2.208   0.392  10.211  0.1698 -0.1772  0.0736
 4592W        W 8111   2.422   7.828   8.766  0.0591 -0.3276  0.0554
 4593W        W 8112   3.892   5.131   1.619 -0.2200 -0.0220  0.1235
 4594W        W 8113   1.549   8.289   2.126  0.0797 -0.0173 -0.0935
 4595W        W 8114   5.298   5.782   8.623  0.0504  0.0836  0.2343
 4596W        W 8115   8.884   7.729   8.197  0.1244  0.0007 -0.2098
 4597W        W 8116   1.544   8.813   3.124  0.0890 -0.2293 -0.2247
 4598W        W 8117   6.007   7.639   3.520  0.0657  0.1341  0.5639
 4599W        W 8118   2.272   4.353  11.364 -0.2006  0.0169  0.0857
 4600W        W 8119   5.104   4.506   3.876 -0.1715 -0.2935 -0.2207
 4601W        W 8120   6.276   6.075   0.877 -0.0865  0.0722  0.1331
 4602W        W 8121   8.088   7.243  12.298 -0.0805  0.0622  0.0051
 4603W        W 8122   2.839   9.534   0.740  0.1624  0.1415 -0.1030
 4604W        W 8123   2.021   9.516   0.576 -0.1505 -0.1367  0.3471
 4605W        W 8124   1.701   0.333  10.066 -0.0378 -0.0988  0.3630
 4606W        W 8125   2.987   6.198   3.079  0.0222  0.0374 -0.1723
 4607W        W 8126   4.702   4.183   9.966  0.2520  0.2155 -0.1116
 4608W        W 8127   1.775   7.381  10.098  0.3452 -0.3144 -0.0452
 4609W        W 8128   9.040   1.225   3.767  0.1248  0.2298  0.1704
 4610W        W 8129   4.309   6.103   1.362 -0.0601  0.0447  0.2642
 4611W        W 8130   5.706   5.530   0.160  0.0833  0.2261 -0.1427
 4612W        W 8131   3.957   0.472   2.448  0.3437 -0.1495  0.0127
 4613W        W 8132   4.920   4.955   0.815  0.0944 -0.0709 -0.0396
 4614W        W 8133   7.112   6.891   3.948 -0.0785  0.2381  0.1175
 4615W        W 8134   6.935   3.648  10.369  0.0237 -0.1234  0.0781
 4616W        W 8135   1.546   5.132   9.993  0.1169 -0.1839 -0.0474
 4617W        W 8136   2.909   5.039   9.157  0.1227 -0.0781  0.1458
 4618W        W 8137   1.733   4.770   9.677 -0.1968 -0.0464  0.0068
 4619W        W 8138   0.727   0.545   0.918  0.1324 -0.2211  0.3370
 4620W        W 8139   2.819   0.793   8.799 -0.0438  0.0484 -0.1168
 4621W        W 8140   3.834   6.591   0.510 -0.2168  0.0286 -0.0192
 4622W        W 8141   8.183   1.860   0.575  0.0068 -0.0723  0.2263
 4623W        W 8142   7.999   3.345   2.287  0.0198 -0.1945 -0.2774
 4624W        W 8143   1.265   3.965   9.781  0.1913 -0.0441  0.0056
 4625W        W 8144   0.247   2.104   0.914  0.1573 -0.0311  0.0579
 4626W        W 8145   7.079   2.229   2.953  0.2552  0.3308  0.1398
 4627W        W 8146   8.718   9.314   1.782  0.1617  0.0829  0.0883
 4628W        W 8147   0.529   0.889   4.339 -0.1775  0.1450  0.1563
 4629W        W 8148   3.612   7.109   0.611  0.0796  0.0145  0.1354
 4630W        W 8149   2.969   3.613   9.984  0.3197  0.1230  0.1276
 4631W        W 8150   4.413   4.925  11.868 -0.1905  0.1011  0.2552
 4632W        W 8151   2.578   8.143  11.017 -0.0679 -0.4379 -0.3029
 4633W        W 8152   8.421   7.660  11.624  0.1024 -0.1112  0.0425
 4634W        W 8153   6.685   8.647   9.654  0.0270 -0.1367 -0.0031
 4635W        W 8154   3.736   3.114  12.184 -0.3183 -0.2096 -0.1761
 4636W        W 8155   2.909   4.555  10.410  0.3010 -0.1697 -0.1464
 4637W        W 8156   4.549   3.726   9.869  0.1323 -0.2405 -0.0830
 4638W        W 8157   6.006   5.029   1.090 -0.0319  0.1638  0.0304
 4639W        W 8158   3.625   0.328  10.102 -0.0367  0.1010 -0.1360
 4640W        W 8159   8.345   4.879   1.241  0.3612 -0.2071 -0.0874
 4641W        W 8160   3.769   8.247   1.901 -0.2826  0.2802 -0.1815
 4642W        W 8161   4.833   1.652  12.490 -0.0361 -0.0440  0.3502
 4643W        W 8162   1.465   1.436  10.832 -0.1144  0.1903  0.1201
 4644W        W 8163   8.070   7.102  10.948 -0.1221  0.1370 -0.2806
 4645W        W 8164   7.916   5.403   1.005  0.1637  0.1139  0.3162
 4646W        W 8165   7.096   3.007   2.035 -0.1053 -0.1597  0.2829
 4647W        W 8166   5.343   9.679   0.911 -0.0453 -0.2157  0.4738
 4648W        W 8167   0.947   5.284   3.557 -0.1216 -0.1496 -0.3170
 4649W        W 8168   2.753   9.494  11.264  0.0056  0.0133  0.0035
 4650W        W 8169   2.433   3.451   3.970 -0.2913 -0.1494 -0.1708
 4651W        W 8170   2.623   3.582  10.957  0.0408  0.1150  0.0163
 4652W        W 8171   3.402   2.978   2.943  0.0740 -0.1648 -0.0924
 4653W        W 8172   1.395   3.326   9.935  0.0010 -0.1700  0.0039
 4654W        W 8173   2.892   1.322  11.498  0.2904 -0.2443 -0.2014
 4655W        W 8174   0.811   1.730   0.175 -0.1820  0.0417  0.0868
 4656W        W 8175   0.406   5.224   1.631  0.2379  0.1420 -0.1079
 4657W        W 8176   9.605   3.332   2.738  0.0701  0.0729  0.0375
 4658W        W 8177   2.706   0.504   3.230 -0.1483 -0.3018 -0.0510
 4659W        W 8178   7.360   9.126   2.404  0.4195 -0.3107 -0.0323
 4660W        W 8179   8.712   0.385   0.675  0.3154  0.0020  0.0796
 4661W        W 8180   1.532   8.206  12.221  0.1217 -0.0575  0.3552
 4662W        W 8181   0.083   8.795   8.491 -0.0965 -0.1731 -0.1722
 4663W        W 8182   4.161   5.426   9.089 -0.2688  0.0033 -0.0749
 4664W        W 8183   5.018   9.638   0.023  0.0118  0.0161 -0.0481
 4665W        W 8184   5.012   1.057  10.851  0.3801 -0.1560 -0.2585
 4666W        W 8185   3.042   4.102  10.727  0.1663 -0.0243  0.1433
 4667W        W 8186   2.125   8.216   1.808 -0.3048  0.1531  0.1155
 4668W        W 8187   9.152   4.534  12.192 -0.0211  0.2221  0.0307
 4669W        W 8188   0.469   6.021   3.987 -0.0609 -0.2742  0.0540
 4670W        W 8189   8.773   5.096   9.228 -0.2113  0.0397  0.0325
 4671W        W 8190   6.796   5.931   4.511  0.3983  0.1948  0.2146
 4672W        W 8191   2.221   0.058   3.014  0.3559  0.1542  0.0897
 4673W        W 8192   2.849   1.860  10.865  0.3035  0.1597  0.0707
 4674W        W 8193   8.390   3.350  11.573 -0.0278 -0.0394 -0.2531
 4675W        W 8194   1.248   8.402   3.026  0.4204 -0.1660 -0.0915
 4676W        W 8195   0.625   2.184   0.364  0.0642  0.1100 -0.2833
 4677W        W 8196   6.649   1.204  11.850 -0.2113 -0.2399 -0.4108
 4678W        W 8197   3.066   3.815   3.850 -0.1455  0.0688  0.0894
 4679W        W 8198   5.963   5.895   1.361  0.0108 -0.1246  0.1843
 4680W        W 8199   0.855   3.103   1.764  0.0613 -0.0389  0.0760
 4681W        W 8200   0.571   0.074   2.857  0.0837  0.1711  0.1655
 4682W        W 8201   5.359   4.802  12.245 -0.1667  0.0732  0.0892
 4683W        W 8202   6.821   6.549  12.141  0.1451  0.0193  0.0473
 4684W        W 8203   5.536   3.741   9.672 -0.0498 -0.1927  0.1872
 4685W        W 8204   2.761   6.586   2.240  0.1553  0.1706 -0.0575
 4686W        W 8205   1.093   8.119  12.420  0.0169  0.3668 -0.1047
 4687W        W 8206   9.683   0.773   1.983 -0.0638 -0.0164 -0.0858
 4688W        W 8207   2.476   2.979   2.997  0.0791 -0.1788  0.1777
 4689W        W 8208   8.256   9.210   3.611  0.3069 -0.2165 -0.0333
 4690W        W 8209   0.629   0.448   8.041 -0.0669  0.0175  0.0938
 4691W        W 8210   7.654   7.731   3.698 -0.2605 -0.0405 -0.3238
 4692W        W 8211   1.998   8.285   8.735  0.2615  0.0409  0.4822
 4693W        W 8212   1.787   4.184   2.031 -0.0381 -0.0683  0.1848
 4694W        W 8213   1.214   7.606   4.006  0.0417  0.4536 -0.2935
 4695W        W 8214   7.464   4.892   9.510 -0.2012  0.0849  0.0149
 4696W        W 8215   8.197   0.027  10.002  0.0061 -0.0875  0.0103
 4697W        W 8216   3.601   0.489   0.603  0.1889  0.1190 -0.4222
 4698W        W 8217   7.716   8.925   2.128 -0.2291  0.1075 -0.2323
 4699W        W 8218   8.618   6.260  11.800  0.3002  0.1705 -0.2922
 4700W        W 8219   0.944   4.595   2.602 -0.1097  0.2251 -0.0952
 4701W        W 8220   4.596   0.129   1.761  0.5418  0.1310  0.2420
 4702W        W 8221   3.930   5.888   8.967  0.0573 -0.2785  0.0804
 4703W        W 8222   8.623   9.021  11.540  0.3764 -0.1200 -0.0195
 4704W        W 8223   0.657   1.068   8.812 -0.0476 -0.0652  0.2654
 4705W        W 8224   3.337   1.892  11.010  0.0709 -0.0410 -0.0517
 4706W        W 8225   2.883   3.678   1.745 -0.1449 -0.0587 -0.1032
 4707W        W 8226   1.467   5.502   2.244  0.0778 -0.1949  0.4014
 4708W        W 8227   3.399   4.156   2.636 -0.4959  0.1100 -0.1090
 4709W        W 8228   3.856   2.376   8.901 -0.0159  0.1313 -0.0437
 4710W        W 8229   1.064   9.014   3.159 -0.3488  0.0791 -0.0258
 4711W        W 8230   2.276   0.497   1.095  0.0303  0.0320  0.0399
 4712W        W 8231   0.265   2.529   2.413 -0.0007  0.3296 -0.4320
 4713W        W 8232   1.284   4.255   2.175  0.1833  0.7081  0.0779
 4714W        W 8233   6.994   4.905   2.261  0.0655  0.0533  0.1807
 4715W        W 8234   0.948   7.475  10.348 -0.1388  0.0492 -0.0379
 4716W        W 8235   7.266   9.283   3.521  0.2294 -0.1474  0.5641
 4717W        W 8236   3.256   7.235  10.679  0.1416  0.4130 -0.0184
 4718W        W 8237   1.765   9.488  11.614 -0.1352  0.0627  0.3757
 4719W        W 8238   6.982   6.771   2.427 -0.1749  0.0604  0.0045
 4720W        W 8239   4.241   7.628  11.101  0.1240  0.1185  0.0208
 4721W        W 8240   5.276   6.903   0.081 -0.4963  0.3779 -0.3910
 4722W        W 8241   8.711   7.781   3.786 -0.1992  0.0362 -0.0348
 4723W        W 8242   3.488   0.527  11.012 -0.0766  0.0724  0.0540
 4724W        W 8243   0.777   8.651   8.450  0.0004 -0.2041 -0.0059
 4725W        W 8244   5.657   4.092   2.270  0.0404  0.0398  0.3293
 4726W        W 8245   3.253   9.077   9.725  0.2125 -0.1276  0.1459
 4727W        W 8246   3.313   2.586   9.943  0.0378 -0.3509 -0.1002
 4728W        W 8247   3.514   9.343   9.095  0.3555  0.0653 -0.1732
 4729W        W 8248   0.729   8.905   0.409  0.0407 -0.0795  0.0577
 4730W        W 8249   7.681   4.168  12.148  0.1117  0.0721  0.1006
 4731W        W 8250   5.737   2.744   3.259 -0.4667 -0.1010 -0.1267
 4732W        W 8251   4.776   4.478   0.846  0.1968 -0.2628  0.0462
 4733W        W 8252   9.334   3.739   0.093 -0.0168  0.2687 -0.1538
 4734W        W 8253   4.347   2.880  11.622 -0.1258 -0.0866 -0.2014
 4735W        W 8254   4.526   6.145  10.870  0.1996 -0.0081  0.2288
 4736W        W 8255   0.170   2.451   0.279  0.0694  0.1609  0.0257
 4737W        W 8256   7.152   4.692   0.371  0.1721  0.0416  0.1298
 4738W        W 8257   9.280   9.054   7.723 -0.1483  0.1328 -0.1064
 4739W        W 8258   1.153   3.168   9.104 -0.3081  0.0474  0.0699
 4740W        W 8259   2.057   0.759   8.646 -0.1909 -0.0404 -0.2885
 4741W        W 8260   3.061   5.305   2.100  0.1433  0.1386 -0.2610
 4742W        W 8261   4.651   2.721   1.240  0.2132 -0.2883  0.0227
 4743W        W 8262   5.058   1.358   8.025  0.1173  0.0478  0.1372
 4744W        W 8263   6.481   1.663   1.832  0.0996 -0.0483 -0.3017
 4745W        W 8264   1.590   1.654   0.418  0.0401 -0.0681 -0.2468
 4746W        W 8265   7.931   2.941   0.789  0.2258  0.0984 -0.1975
 4747W        W 8266   3.682   8.113   0.555  0.1098 -0.2147  0.2196
 4748W        W 8267   3.339   6.413   1.830 -0.1855  0.0824  0.3618
 4749W        W 8268   4.713   0.234  11.326 -0.1742 -0.0508  0.4278
 4750W        W 8269   4.310   4.896   3.654 -0.3263 -0.0294 -0.2372
 4751W        W 8270   0.908   7.585   2.853 -0.0695  0.3517  0.1916
 4752W        W 8271   5.059   0.498   1.874 -0.2692 -0.1518  0.0530
 4753W        W 8272   0.405   3.380  11.538 -0.1630  0.1280 -0.0888
 4754W        W 8273   6.584   8.232   3.085  0.2357  0.1055  0.1563
 4755W        W 8274   1.650   2.060   3.355 -0.1886  0.1627 -0.2423
 4756W        W 8275   8.407   8.340   9.341 -0.0534  0.3284  0.3281
 4757W        W 8276   4.575   7.899   2.476  0.0717 -0.0902  0.1316
 4758W        W 8277   7.275   9.039  11.907  0.3986 -0.3254  0.1648
 4759W        W 8278   7.551   9.565   2.685 -0.0867 -0.1625  0.0206
 4760W        W 8279   0.961   3.952  11.075  0.0330  0.1288 -0.2988
 4761W        W 8280   7.455   6.441  10.441 -0.1771 -0.0111 -0.1186
 4762W        W 8281   4.622   7.400   1.959  0.0751  0.0137  0.1413
 4763W        W 8282   1.711   4.193  12.150 -0.1569 -0.2882 -0.1861
 4764W        W 8283   9.492   4.836  10.461 -0.2212 -0.3057  0.0882
 4765W        W 8284   5.972   5.788  10.093  0.1423 -0.2437 -0.2645
 4766W        W 8285   8.400   3.228   4.549  0.1476 -0.0529 -0.0717
 4767W        W 8286   0.089   1.166   0.240 -0.0371  0.1127  0.0536
 4768W        W 8287   2.984   2.946  12.269 -0.1729  0.0037  0.1421
 4769W        W 8288   5.629   9.051   2.472 -0.0341  0.1645  0.0836
 4770W        W 8289   5.370   0.910   1.133  0.1055  0.0113  0.1882
 4771W        W 8290   5.443   1.610  11.004  0.1884  0.1491  0.1322
 4772W        W 8291   3.319   7.189  12.060  0.0413 -0.1451  0.0108
 4773W        W 8292   2.481   5.525  11.037  0.2879  0.1376 -0.1773
 4774W        W 8293   8.990   1.873  12.323  0.1617 -0.2356  0.0141
 4775W        W 8294   0.679   0.291   9.436  0.3147 -0.1911  0.1494
 4776W        W 8295   0.891   3.658   2.557  0.0179 -0.0135  0.1015
 4777W        W 8296   5.251   1.973  11.346 -0.0436  0.0470  0.1053
 4778W        W 8297   4.635   2.564  12.232 -0.2041  0.1848  0.0598
 4779W        W 8298   1.982   0.086   9.694 -0.2468 -0.2290 -0.2016
 4780W        W 8299   3.855   8.507  12.548 -0.0103 -0.1940 -0.3134
 4781W        W 8300   6.189   0.806   8.748  0.3476 -0.3875 -0.0156
 4782W        W 8301   8.629   4.297  12.506  0.2379  0.1968 -0.1571
 4783W        W 8302   2.536   7.509   0.851 -0.0205  0.2266  0.0872
 4784W        W 8303   7.434   1.678   9.754  0.0560  0.0512  0.0972
 4785W        W 8304   3.886   6.184   0.178 -0.3780  0.0770 -0.2065
 4786W        W 8305   5.362   7.610   1.552  0.0013 -0.1223 -0.2682
 4787W        W 8306   1.630   7.404  12.505 -0.2845  0.1109 -0.0408
 4788W        W 8307   5.833   7.192  10.393  0.1153  0.2096 -0.0126
 4789W        W 8308   5.476   5.868   1.403  0.1279  0.1357  0.0400
 4790W        W 8309   0.755   5.425   4.072  0.3124  0.0611  0.2605
 4791W        W 8310   6.291   5.678   1.723 -0.1406 -0.2345 -0.0208
 4792W        W 8311   3.189   7.183   9.745 -0.1411  0.2142  0.0446
 4793W        W 8312   1.118   2.570   2.664  0.1248 -0.1808 -0.0806
 4794W        W 8313   3.515   8.941  12.327 -0.0152 -0.3578 -0.1791
 4795W        W 8314   3.363   2.904  11.831  0.1222  0.1471  0.1208
 4796W        W 8315   2.989   4.555   3.541 -0.2804  0.2200  0.3049
 4797W        W 8316   1.671   3.221   2.500 -0.0786 -0.0953 -0.0025
 4798W        W 8317   0.941   6.728   8.913  0.1258  0.1600 -0.2948
 4799W        W 8318   3.790   6.887   0.968 -0.0461 -0.1763 -0.2098
 4800W        W 8319   9.656   5.598   0.036 -0.1159 -0.1443  0.1101
 4801W        W 8320   9.103   2.317   4.198  0.1472  0.0217 -0.1100
 4802W        W 8321   2.123   3.911  12.267 -0.2138  0.1558  0.1176
 4803W        W 8322   7.540   9.598   1.284  0.1481  0.2641  0.0332
 4804W        W 8323   4.425   2.802   1.956 -0.2559 -0.1071  0.3320
 4805W        W 8324   5.577   4.480  10.918  0.0357  0.1713  0.1072
 4806W        W 8325   0.693   4.621   4.270 -0.0604 -0.0037 -0.1898
 4807W        W 8326   1.450   7.560   2.148  0.1280  0.0832 -0.0709
 4808W        W 8327   0.027   9.350  10.739  0.1152 -0.0043  0.1499
 4809W        W 8328   4.462   2.066   9.330 -0.0613  0.0719 -0.1154
 4810W        W 8329   8.867   4.763   2.700 -0.1548 -0.0532 -0.0135
 4811W        W 8330   2.035   6.182   3.396  0.1074  0.1739  0.1865
 4812W        W 8331   4.087   1.682   1.967 -0.0207 -0.0381  0.1429
 4813W        W 8332   1.430   5.314  11.456 -0.1392 -0.0582  0.0637
 4814W        W 8333   3.107   0.867   3.030 -0.1322 -0.1444  0.1119
 4815W        W 8334   7.790   1.227   9.153  0.0422  0.0138 -0.0129
 4816W        W 8335   6.563   7.788   3.545 -0.0904 -0.0139 -0.5776
 4817W        W 8336   3.258   3.359  12.178  0.2810 -0.0880  0.1024
 4818W        W 8337   9.189   4.859   0.792  0.0286 -0.0592 -0.1433
 4819W        W 8338   1.419   7.568   9.105 -0.2784  0.0699 -0.1800
 4820W        W 8339   7.438   1.127  11.641 -0.0093  0.0768 -0.0269
 4821W        W 8340   5.066   4.134   4.311 -0.2112 -0.1090 -0.0030
 4822W        W 8341   9.023   7.404   2.141  0.1229 -0.3091 -0.0197
 4823W        W 8342   0.212   2.182  10.642  0.3008 -0.0638 -0.0813
 4824W        W 8343   4.259   1.665  12.341  0.0041  0.3316  0.1667
 4825W        W 8344   2.809   8.093   3.836 -0.0304 -0.0354 -0.3113
 4826W        W 8345   2.284   4.438   1.207 -0.2328 -0.1882 -0.0747
 4827W        W 8346   7.291   6.982   2.037  0.2009 -0.1613 -0.2001
 4828W        W 8347   6.028   2.077   3.823  0.1358 -0.0888  0.0406
 4829W        W 8348   8.173   6.144   9.315 -0.0504  0.1616 -0.0861
 4830W        W 8349   9.183   2.161  11.452 -0.1703 -0.0363  0.0433
 4831W        W 8350   8.996   6.603   1.989  0.1493 -0.1338  0.0291
 4832W        W 8351   6.126   1.163  12.185  0.3262  0.1926  0.1323
 4833W        W 8352   6.015   3.892  10.267  0.0143  0.0552  0.1703
 4834W        W 8353   9.371   4.844  11.887  0.0460 -0.2372  0.4311
 4835W        W 8354   0.708   1.158  10.618 -0.1552  0.2190 -0.1169
 4836W        W 8355   8.980   6.105   1.736  0.0106 -0.1046 -0.0528
 4837W        W 8356   4.659   1.330   0.667  0.1428  0.1556  0.1992
 4838W        W 8357   2.073   4.247   4.152 -0.2168  0.1472  0.0170
 4839W        W 8358   6.424   5.912   1.307 -0.2270  0.0037 -0.1820
 4840W        W 8359   6.969   0.991  11.453  0.1699 -0.0730 -0.1141
 4841W        W 8360   6.862   2.127   1.642  0.0237  0.2053 -0.0400
 4842W        W 8361   0.239   2.943   0.510 -0.0750 -0.0135  0.0454
 4843W        W 8362   4.843   3.927   1.582 -0.0829 -0.0074  0.4459
 4844W        W 8363   6.489   3.585   2.655 -0.3069 -0.1207  0.1437
 4845W        W 8364   4.191   2.548   1.589 -0.0943  0.4777  0.0271
 4846W        W 8365   6.641   7.678   9.734  0.2824 -0.0225  0.2570
 4847W        W 8366   7.359   4.609   2.557 -0.0071  0.0962  0.3754
 4848W        W 8367   3.829   0.758  10.291 -0.2387  0.0769  0.1524
 4849W        W 8368   4.638   8.191  11.928  0.0275  0.0796  0.0590
 4850W        W 8369   0.821   8.070   8.635 -0.1234 -0.3152  0.1200
 4851W        W 8370   5.165   6.569   2.224  0.1736  0.0967 -0.0874
 4852W        W 8371   9.489   1.972   2.934 -0.0258  0.1656 -0.0799
 4853W        W 8372   1.684   5.529  12.296  0.1095 -0.2515 -0.2780
 4854W        W 8373   9.188   9.600   8.473 -0.0447  0.1478 -0.0252
 4855W        W 8374   2.958   8.355   3.377  0.2787 -0.2931 -0.0603
 4856W        W 8375   2.493   1.590   8.075  0.1335  0.0669 -0.1610
 4857W        W 8376   9.294   6.297   1.341 -0.1882 -0.0559 -0.1470
 4858W        W 8377   3.060   3.381  11.183 -0.0371  0.0755  0.1212
 4859W        W 8378   7.343   1.766  11.980  0.1703  0.0180 -0.1558
 4860W        W 8379   8.419   3.841  12.417 -0.2931 -0.1829  0.0330
 4861W        W 8380   2.889   8.197   8.831  0.0162 -0.2353 -0.2560
 4862W        W 8381   3.899   8.570   2.283 -0.0498 -0.0039  0.1114
 4863W        W 8382   5.249   2.510   4.148 -0.1326 -0.1074  0.1279
 4864W        W 8383   0.403   6.464   7.253 -0.1786 -0.0808 -0.0839
 4865W        W 8384   0.040   7.953   9.664  0.2931  0.0444  0.2799
 4866W        W 8385   6.081   3.610   0.381  0.4780  0.0394  0.2549
 4867W        W 8386   9.012   8.501   1.301  0.0032  0.0250 -0.0799
 4868W        W 8387   2.760   0.043   4.296 -0.0940 -0.0880 -0.0262
 4869W        W 8388   5.303   4.081  10.996  0.2444 -0.1408 -0.3445
 4870W        W 8389   6.991   8.964  12.370  0.0360 -0.2152 -0.0951
 4871W        W 8390   4.562   4.830   3.167 -0.2707 -0.0661  0.2042
 4872W        W 8391   0.921   7.498   9.368  0.1956 -0.1438  0.1279
 4873W        W 8392   2.259   6.129   0.946 -0.1830 -0.1756  0.2441
 4874W        W 8393   2.806   0.883  10.561 -0.0010 -0.1930 -0.0515
 4875W        W 8394   1.265   1.993   0.508  0.0370 -0.1178 -0.2826
 4876W        W 8395   5.265   5.989   1.922  0.0205 -0.2701 -0.0809
 4877W        W 8396   3.081   4.023   0.362 -0.2419  0.0368 -0.4027
 4878W        W 8397   3.669   9.148   2.695 -0.1670 -0.3150  0.0212
 4879W        W 8398   3.026   4.924  11.221 -0.1183 -0.1621 -0.0840
 4880W        W 8399   6.776   0.906   4.070  0.0440  0.2884 -0.0599
 4881W        W 8400   7.975   1.886  12.017  0.0024 -0.1818  0.3661
 4882W        W 8401   9.097   4.045   1.561  0.1053 -0.1054  0.1193
 4883W        W 8402   2.662   7.581   3.074 -0.1482 -0.2858 -0.0553
 4884W        W 8403   0.774   7.941  10.391 -0.0146  0.1399 -0.1757
 4885W        W 8404   5.367   9.438  10.177  0.0908  0.1086 -0.0346
 4886W        W 8405   3.455   9.661   0.592  0.2656 -0.1958  0.1929
 4887W        W 8406   9.570   6.283   0.875 -0.4431  0.0251  0.2792
 4888W        W 8407   8.938   5.461  12.180 -0.1631 -0.1455  0.0606
 4889W        W 8408   7.768   0.479   3.983  0.5338 -0.1091  0.3648
 4890W        W 8409   0.668   8.990  12.528  0.0979 -0.0564 -0.1309
 4891W        W 8410   2.633   0.386  10.556 -0.0981 -0.2606 -0.0195
 4892W        W 8411   9.436   7.777  12.212  0.1828  0.2002 -0.1171
 4893W        W 8412   1.862   4.531  12.544  0.0413 -0.0639 -0.0681
 4894W        W 8413   0.495   7.918   8.201 -0.2511  0.2309  0.2324
 4895W        W 8414   4.921   1.453   2.238  0.0991  0.0610 -0.2857
 4896W        W 8415   1.406   5.133   9.490  0.1528 -0.1080 -0.2916
 4897W        W 8416   2.060   2.860   1.137 -0.2037  0.2529 -0.1796
 4898W        W 8417   9.455   5.118   4.179 -0.1667 -0.0169 -0.1247
 4899W        W 8418   4.913   1.539   1.039 -0.0759 -0.1002  0.2510
 4900W        W 8419   0.272   0.029  12.049  0.1274 -0.0749 -0.0129
 4901W        W 8420   6.599   7.350  10.919 -0.3467 -0.1271 -0.1063
 4902W        W 8421   6.515   7.790   0.575  0.0161 -0.3924  0.1936
 4903W        W 8422   2.675   6.893   9.574  0.2038  0.0237 -0.0729
 4904W        W 8423   2.487   1.614   8.596  0.0496  0.0281 -0.0021
 4905W        W 8424   3.611   8.761   1.841 -0.0223 -0.1338  0.0254
 4906W        W 8425   1.137   3.795   2.116 -0.0832  0.2992  0.0662
 4907W        W 8426   4.038   2.659   8.404  0.0154 -0.1757 -0.3028
 4908W        W 8427   3.787   4.186   1.689  0.1260 -0.2553 -0.1699
 4909W        W 8428   2.572   1.842   3.547  0.0064  0.0369 -0.1959
 4910W        W 8429   1.014   1.652   4.114  0.2776  0.1514 -0.3678
 4911W        W 8430   9.090   3.432   1.045 -0.2367 -0.1019  0.0691
 4912W        W 8431   0.239   4.661  11.258  0.0322  0.1923 -0.0119
 4913W        W 8432   4.927   0.703   1.382  0.0521  0.2176 -0.0268
 4914W        W 8433   5.542   4.310  11.436 -0.1509  0.2429  0.5777
 4915W        W 8434   9.269   9.031  12.156  0.0340 -0.1149 -0.1374
 4916W        W 8435   4.851   6.117   3.133  0.0796 -0.1382 -0.0277
 4917W        W 8436   2.547   3.283   0.243  0.1677 -0.1864  0.1217
 4918W        W 8437   0.288   0.316  12.526 -0.2416  0.2699 -0.3072
 4919W        W 8438   0.771   8.788  10.213  0.1351  0.0934  0.3942
 4920W        W 8439   4.819   8.046   1.009 -0.0031 -0.0684  0.3551
 4921W        W 8440   0.565   1.851   3.173  0.1274 -0.5505  0.1169
 4922W        W 8441   5.109   8.984   0.243  0.3184  0.0114  0.0702
 4923W        W 8442   4.153   2.704  10.266  0.1804  0.1142 -0.0365
 4924W        W 8443   1.849   7.412   9.631  0.0710  0.1123  0.1331
 4925W        W 8444   2.126   3.646  10.769 -0.3081  0.0873  0.1872
 4926W        W 8445   5.600   4.029   0.884  0.1635 -0.0151  0.0170
 4927W        W 8446   1.070   2.535   9.734  0.1085  0.0155 -0.1199
 4928W        W 8447   9.673   7.158   9.823  0.1011  0.1033  0.1039
 4929W        W 8448   2.844   0.578   2.653 -0.1074 -0.0894  0.1638
 4930W        W 8449   6.779   3.600   4.623  0.1439  0.1173  0.2534
 4931W        W 8450   4.071   4.188   0.468  0.0782 -0.2810  0.1921
 4932W        W 8451   5.025   2.056   0.096 -0.1850 -0.2809 -0.0233
 4933W        W 8452   6.676   8.167   9.859  0.0866 -0.3023  0.4036
 4934W        W 8453   3.988   5.324   9.598 -0.0434  0.1442 -0.0587
 4935W        W 8454   0.265   5.463   4.039  0.1620  0.2634  0.1740
 4936W        W 8455   6.425   3.846  11.565 -0.2045 -0.0600  0.3174
 4937W        W 8456   3.829   2.801  11.730  0.0847 -0.0484 -0.2981
 4938W        W 8457   7.586   4.959  12.021 -0.0357 -0.2026 -0.0019
 4939W        W 8458   6.264   1.640  12.065 -0.0446  0.0326 -0.0849
 4940W        W 8459   1.068   7.657   8.764  0.1228  0.0435  0.0466
 4941W        W 8460   8.894   2.510   2.512  0.1037  0.0816  0.0927
 4942W        W 8461   2.600   3.567   3.060  0.3056  0.3173  0.2338
 4943W        W 8462   7.096   6.285  10.819 -0.0667 -0.2650 -0.0841
 4944W        W 8463   7.134   4.223   0.846 -0.0305  0.1280  0.5011
 4945W        W 8464   1.235   8.039   1.886  0.2603  0.0740  0.1751
 4946W        W 8465   9.325   4.476   2.806  0.2363 -0.0523  0.2535
 4947W        W 8466   8.674   4.483   3.154  0.0473  0.0235 -0.0494
 4948W        W 8467   8.946   2.212   8.498 -0.1602  0.1065 -0.1354
 4949W        W 8468   1.725   8.534   2.792 -0.0824  0.0079 -0.2918
 4950W        W 8469   7.130   7.207  11.975 -0.4388  0.3904  0.0921
 4951W        W 8470   0.119   8.652  11.153 -0.3001  0.4309 -0.2229
 4952W        W 8471   3.417   1.833   8.816  0.0317  0.1988 -0.4235
 4953W        W 8472   6.963   2.938  12.406 -0.0791  0.2844  0.1358
 4954W        W 8473   8.243   5.021  10.625  0.4345 -0.0269  0.5802
 4955W        W 8474   8.691   6.244   9.338  0.0083  0.2213  0.0692
 4956W        W 8475   9.121   8.854   1.669  0.0168 -0.2470 -0.1360
 4957W        W 8476   0.865   2.115   3.864  0.2154 -0.4279  0.1027
 4958W        W 8477   4.369   1.117   3.412 -0.0976  0.0382 -0.0353
 4959W        W 8478   1.913   4.807   9.176 -0.2856 -0.5745  0.0782
 4960W        W 8479   1.137   3.206   2.672 -0.0929 -0.1139 -0.0392
 4961W        W 8480   1.603   3.262   9.354 -0.2195 -0.2082  0.1121
 4962W        W 8481   9.438   8.959   3.728  0.1646 -0.2376 -0.1388
 4963W        W 8482   2.008   2.457   0.656 -0.0404 -0.2373  0.1042
 4964W        W 8483   0.300   8.560   4.821  0.0659  0.0027  0.0721
 4965W        W 8484   0.783   7.021   0.095 -0.0778 -0.0861  0.0827
 4966W        W 8485   6.037   3.661   1.022  0.0181  0.0532 -0.0648
 4967W        W 8486   8.677   3.227   9.854 -0.0117  0.1453  0.0249
 4968W        W 8487   7.679   7.249   8.671  0.4885  0.3605  0.0531
 4969W        W 8488   9.250   1.120   0.051  0.3016  0.0288 -0.0864
 4970W        W 8489   6.513   8.187  11.950 -0.2026  0.0360  0.0831
 4971W        W 8490   2.682   5.786   1.713 -0.1696  0.1640  0.1793
 4972W        W 8491   3.779   8.716   9.710 -0.2853  0.1387  0.2619
 4973W        W 8492   7.816   5.730   0.681 -0.0813 -0.1265  0.0556
 4974W        W 8493   1.309   8.067  10.308  0.0913  0.0584  0.1723
 4975W        W 8494   9.267   2.484   2.973 -0.1616 -0.2228 -0.1435
 4976W        W 8495   5.495   8.500   1.936 -0.3198 -0.2186  0.2563
 4977W        W 8496   8.666   3.311   1.550  0.0647  0.0505 -0.0718
 4978W        W 8497   2.035   1.605  12.063 -0.3486 -0.2395  0.1516
 4979W        W 8498   9.064   7.730   9.046  0.0562  0.2559 -0.1535
 4980W        W 8499   4.754   0.877   9.399  0.1511 -0.1098 -0.1482
 4981W        W 8500   7.476   4.460   7.906 -0.1165 -0.0281  0.0212
 4982W        W 8501   5.667   3.415   9.012  0.1058 -0.1643  0.0692
 4983W        W 8502   4.210   0.475   1.756  0.3447 -0.2742  0.1790
 4984W        W 8503   8.385   7.930   1.215  0.0034  0.2225  0.1714
 4985W        W 8504   5.351   5.445   9.997  0.0251  0.0738 -0.1989
 4986W        W 8505   1.767   7.423   0.488  0.2808  0.1000  0.1351
 4987W        W 8506   1.653   6.971  11.566  0.0166 -0.2153 -0.2631
 4988W        W 8507   4.812   8.066   3.372 -0.2241  0.2409 -0.1964
 4989W        W 8508   3.430   8.624   3.694 -0.1170 -0.1386  0.2292
 4990W        W 8509   5.296   2.032   4.279  0.1742 -0.1637  0.1932
 4991W        W 8510   1.855   3.550   3.988  0.0989 -0.3422 -0.0622
 4992W        W 8511   5.644   6.528   0.230  0.0823 -0.1487 -0.0560
 4993W        W 8512   7.605   0.495   1.263  0.1487  0.2154  0.2393
 4994W        W 8513   1.494   5.666   9.801 -0.1782  0.1268 -0.0233
 4995W        W 8514   6.506   9.593   4.439 -0.2262 -0.1608 -0.0970
 4996W        W 8515   4.557   6.366  11.738 -0.1495  0.1691 -0.2228
 4997W        W 8516   0.099   1.824   1.329 -0.0331 -0.0305  0.0732
 4998W        W 8517   2.349   8.289   1.327 -0.2793 -0.1299  0.2109
 4999W        W 8518   6.192   1.178  11.704  0.1702 -0.1708  0.3087
 5000W        W 8519   4.539   1.598   3.683  0.0520 -0.2765  0.0570
 5001W        W 8520   7.164   1.598   8.513  0.0382  0.1823 -0.1399
 5002W        W 8521   4.489   5.163  11.358  0.0318 -0.1313  0.1561
 5003W        W 8522   3.435   6.219   2.898 -0.0993  0.2764  0.0477
 5004W        W 8523   3.131   5.835   2.742  0.0074 -0.0711 -0.1038
 5005W        W 8524   5.188   2.957  10.315 -0.0983  0.1187  0.2453
 5006W        W 8525   2.601   0.090   1.269 -0.0775  0.1986 -0.1020
 5007W        W 8526   2.156   2.556   3.038 -0.0879 -0.1617  0.2530
 5008W        W 8527   6.314   8.199  10.790  0.0630 -0.2219 -0.2393
 5009W        W 8528   1.536   4.250   3.029  0.1208  0.0894 -0.0359
 5010W        W 8529   8.328   6.171   0.309 -0.0052  0.0461  0.1118
 5011W        W 8530   2.144   3.916   9.632 -0.2936  0.1414 -0.3364
 5012W        W 8531   9.435   9.394  11.425 -0.0219  0.0147  0.0347
 5013W        W 8532   7.988   2.165   8.645 -0.0331 -0.2889  0.2538
 5014W        W 8533   3.954   5.400   2.720  0.5816 -0.0073 -0.0432
 5015W        W 8534   1.385   1.028   1.015  0.0517  0.2046 -0.0887
 5016W        W 8535   8.158   6.477   2.856 -0.0769 -0.2003 -0.1344
 5017W        W 8536   8.483   5.765   8.568 -0.0200 -0.2224 -0.0076
 5018W        W 8537   1.845   2.491   3.839  0.0993 -0.1579  0.0060
 5019W        W 8538   2.978   4.449   2.519  0.2160 -0.1322 -0.3353
 5020W        W 8539   5.639   4.688   2.284 -0.0226  0.0284  0.1806
 5021W        W 8540   2.971   1.405   2.286 -0.0594 -0.1929 -0.2721
 5022W        W 8541   6.629   0.540   9.670 -0.0897  0.0609 -0.1647
 5023W        W 8542   7.472   0.547   0.730 -0.0639 -0.4318  0.1516
 5024W        W 8543   5.357   7.594  11.932  0.0948 -0.0885 -0.0450
 5025W        W 8544   9.384   0.846   1.074  0.4111  0.2047 -0.0424
 5026W        W 8545   4.134   9.288  11.117 -0.0287  0.1867  0.3220
 5027W        W 8546   2.748   6.661   3.117  0.2606  0.0787  0.0932
 5028W        W 8547   2.316   0.821   0.312  0.0151  0.0184 -0.0094
 5029W        W 8548   8.208   9.184   1.646  0.0744  0.2219  0.0208
 5030W        W 8549   9.421   0.440   0.267 -0.2328  0.2021  0.2530
 5031W        W 8550   2.412   7.700   1.331 -0.1945 -0.0676  0.0493
 5032W        W 8551   5.393   4.696   3.189 -0.0227  0.1512 -0.1778
 5033W        W 8552   5.637   0.372   9.136 -0.1012  0.0402  0.1158
 5034W        W 8553   3.806   1.269   1.166  0.1773 -0.0408  0.1276
 5035W        W 8554   4.982   2.103   9.251 -0.0875 -0.0490  0.0144
 5036W        W 8555   8.122   4.970   0.139 -0.0156 -0.1514 -0.0633
 5037W        W 8556   3.819   4.870   9.704  0.1361 -0.2999  0.0635
 5038W        W 8557   4.710   4.324   3.144 -0.2378 -0.0856 -0.0958
 5039W        W 8558   6.223   8.139   0.775  0.2763 -0.1202 -0.0014
 5040W        W 8559   1.568   0.710   9.073 -0.0422  0.0431 -0.0494
 5041W        W 8560   8.053   8.564   9.574 -0.0258 -0.1639 -0.0021
 5042W        W 8561   6.405   7.115   3.271 -0.1015  0.3007  0.0918
 5043W        W 8562   8.751   1.234   1.751  0.1388 -0.0613  0.2003
 5044W        W 8563   1.187   9.035  10.077 -0.0514  0.2008 -0.0147
 5045W        W 8564   3.013   7.126   1.792  0.1701 -0.2711  0.0464
 5046W        W 8565   5.389   3.438   1.797  0.2576  0.2810  0.2304
 5047W        W 8566   1.912   6.429  10.140  0.1097 -0.2144  0.1136
 5048W        W 8567   9.329   9.032   8.438  0.3155 -0.0040 -0.3096
 5049W        W 8568   1.177   9.108   1.635  0.1421  0.5303 -0.0861
 5050W        W 8569   7.584   8.009  10.395 -0.0991 -0.0704 -0.0146
 5051W        W 8570   2.679   6.439   9.341  0.1236  0.2376 -0.1656
 5052W        W 8571   8.054   8.338  11.918 -0.2070  0.2339 -0.4101
 5053W        W 8572   5.689   4.818  11.640 -0.1395 -0.1022  0.1919
 5054W        W 8573   8.110   8.709  10.087 -0.0011  0.1010  0.1531
 5055W        W 8574   8.751   2.947   2.145  0.0995 -0.2577  0.0675
 5056W        W 8575   3.395   8.383   2.190  0.2006  0.2645  0.0254
 5057W        W 8576   5.929   4.233   9.775  0.1827 -0.0336 -0.2464
 5058W        W 8577   7.956   6.954  11.387  0.1781 -0.0539  0.1375
 5059W        W 8578   9.595   2.535   3.366 -0.0670  0.2020  0.0239
 5060W        W 8579   3.337   4.709   8.702 -0.0359 -0.3490 -0.2101
 5061W        W 8580   1.156   1.189   3.821 -0.0478  0.2087  0.1374
 5062W        W 8581   1.057   2.538  12.342 -0.3163  0.1022 -0.1266
 5063W        W 8582   2.618   4.232   3.681  0.0676 -0.2315 -0.1301
 5064W        W 8583   8.627   6.611   2.873  0.1213  0.2874 -0.1788
 5065W        W 8584   6.997   1.100   0.003  0.3917 -0.2362  0.1111
 5066W        W 8585   8.752   6.075   0.629 -0.4266  0.1063 -0.0835
 5067W        W 8586   0.204   0.734   0.123 -0.1639 -0.0417 -0.0792
 5068W        W 8587   4.972   5.066  11.538 -0.3534  0.2000  0.0610
 5069W        W 8588   3.022   0.560  10.212 -0.0211  0.0993  0.0809
 5070W        W 8589   5.952   6.203   3.270 -0.0167  0.1748  0.1399
 5071W        W 8590   5.723   8.650   9.774 -0.3557 -0.2513 -0.0191
 5072W        W 8591   1.962   9.272   3.941  0.1767 -0.2357 -0.0918
 5073W        W 8592   0.965   0.179   1.245 -0.2875 -0.0782 -0.1183
 5074W        W 8593   6.552   8.613  10.954 -0.0712  0.1365 -0.1444
 5075W        W 8594   3.019   4.216   1.807 -0.2838  0.0780 -0.3008
 5076W        W 8595   1.450   4.468   1.360  0.2974 -0.1581 -0.1942
 5077W        W 8596   0.407   0.457   3.818  0.0774  0.0269 -0.1104
 5078W        W 8597   2.010   9.061   1.018 -0.3957 -0.1269 -0.1631
 5079W        W 8598   7.828   3.972  11.532  0.1915  0.0764  0.0396
 5080W        W 8599   3.073   2.210  11.253 -0.1350 -0.1736  0.0531
 5081W        W 8600   0.227   8.681  12.509 -0.2044  0.1759 -0.0239
 5082W        W 8601   7.592   5.937   9.359  0.1410 -0.3151 -0.4498
 5083W        W 8602   8.214   2.853   9.481  0.1248 -0.0797 -0.1757
 5084W        W 8603   0.771   2.779   1.031  0.0659 -0.3736  0.0925
 5085W        W 8604   8.679   5.511   1.371  0.4815 -0.0735 -0.3396
 5086W        W 8605   4.561   1.180   9.000 -0.1448  0.0649 -0.1636
 5087W        W 8606   8.026   7.067   2.134 -0.1943 -0.0525  0.1757
 5088W        W 8607   2.155   9.320   1.402  0.0134 -0.0867  0.2025
 5089W        W 8608   5.995   9.191   1.472  0.0087  0.1935  0.3354
 5090W        W 8609   7.007   1.263   2.292 -0.0030 -0.0579 -0.2447
 5091W        W 8610   5.779   7.342  11.837 -0.1790  0.0166  0.0619
 5092W        W 8611   0.222   4.144   9.432 -0.3576  0.2007  0.1745
 5093W        W 8612   1.266   8.613   1.295 -0.0640  0.1512  0.1025
 5094W        W 8613   5.728   5.683  11.542  0.2713 -0.1830  0.2358
 5095W        W 8614   1.678   9.217  10.109 -0.1790  0.1349  0.1881
 5096W        W 8615   0.203   9.209   2.751  0.2106  0.0788  0.0289
 5097W        W 8616   2.856   5.961  12.218 -0.2135  0.0778  0.1167
 5098W        W 8617   8.082   8.366   4.266 -0.3233  0.2249  0.0937
 5099W        W 8618   4.710   7.396   2.549  0.0171 -0.1185  0.0038
 5100W        W 8619   4.191   2.561  11.254  0.0909 -0.1741  0.0020
 5101W        W 8620   3.669   2.066  11.646  0.0885 -0.0867  0.1478
 5102W        W 8621   3.740   7.354  10.661 -0.0129 -0.0285  0.1270
 5103W        W 8622   4.975   9.028   3.488  0.5992 -0.2533 -0.1775
 5104W        W 8623   0.597   9.260  10.063 -0.0531  0.0197  0.2049
 5105W        W 8624   7.337   6.524   0.584 -0.1169 -0.0327  0.1103
 5106W        W 8625   5.290   7.384   0.136 -0.1627 -0.0586 -0.1116
 5107W        W 8626   2.954   3.569   2.550 -0.2083 -0.1637 -0.2089
 5108W        W 8627   3.846   3.758   4.461 -0.1531 -0.3145 -0.0383
 5109W        W 8628   2.184   6.777   4.376 -0.0207  0.1816 -0.0596
 5110W        W 8629   2.665   8.266   2.230 -0.3564  0.0971  0.1612
 5111W        W 8630   4.359   1.376   0.221 -0.3207 -0.1191  0.0679
 5112W        W 8631   6.799   5.070   1.690  0.0897 -0.1578 -0.1704
 5113W        W 8632   6.815   5.496   1.244  0.0456 -0.0747 -0.2709
 5114W        W 8633   5.441   1.374   2.465  0.0656 -0.0615  0.1800
 5115W        W 8634   3.996   0.669   4.490  0.1187  0.2881 -0.2765
 5116W        W 8635   7.333   0.023   9.318  0.0550 -0.1915 -0.1607
 5117W        W 8636   1.753   0.718  12.037 -0.0221  0.1557  0.0091
 5118W        W 8637   5.723   4.179   1.378 -0.1422 -0.1756 -0.0817
 5119W        W 8638   9.379   5.678  11.494 -0.0775  0.1469 -0.2126
 5120W        W 8639   4.695   2.944   0.566  0.0256  0.1187 -0.0097
 5121W        W 8640   0.203   1.355   8.851 -0.1196  0.0374 -0.0601
 5122W        W 8641   0.753   2.338  10.993 -0.1734 -0.1445  0.3673
 5123W        W 8642   0.262   6.560   3.260 -0.2181  0.1395  0.0933
 5124W        W 8643   4.338   9.205   1.891  0.1869 -0.0770 -0.0809
 5125W        W 8644   1.837   6.972   0.166 -0.1182  0.4062 -0.1756
 5126W        W 8645   6.140   2.766   0.690 -0.1145 -0.0412 -0.3948
 5127W        W 8646   1.424   3.234  11.530  0.0775  0.3436 -0.0588
 5128W        W 8647   6.452   1.319   3.304  0.0159  0.5205 -0.0071
 5129W        W 8648   5.528   6.942   2.247 -0.0773 -0.0044 -0.0217
 5130W        W 8649   5.342   2.181  12.324 -0.1998  0.2821 -0.0809
 5131W        W 8650   5.230   6.815  11.244 -0.0452  0.2154  0.4758
 5132W        W 8651   8.162   7.819  10.439  0.3152  0.2327 -0.2153
 5133W        W 8652   1.482   0.599  11.025  0.3280  0.2726  0.1215
 5134W        W 8653   1.987   0.801   1.610 -0.2438 -0.2151 -0.2341
 5135W        W 8654   4.438   3.534  10.712 -0.0261  0.2488 -0.2604
 5136W        W 8655   2.526   1.783   1.150 -0.0367 -0.1654  0.1647
 5137W        W 8656   9.216   3.259   4.213 -0.1679 -0.0517 -0.3217
 5138W        W 8657   9.636   7.666  10.114  0.2093 -0.3039  0.5088
 5139W        W 8658   7.302   0.031   2.208  0.0531  0.1169 -0.0926
 5140W        W 8659   0.155   7.018   1.615 -0.1146  0.1931  0.3018
 5141W        W 8660   4.187   9.202   2.899 -0.2084 -0.1187 -0.0298
 5142W        W 8661   6.610   4.241   0.815  0.0142  0.2832  0.2721
 5143W        W 8662   7.459   6.113   1.474  0.0194  0.0762  0.0708
 5144W        W 8663   2.156   2.107   3.396  0.2636  0.1372 -0.1216
 5145W        W 8664   1.368   5.208   3.074  0.1302  0.1206  0.3604
 5146W        W 8665   3.400   8.880   2.290  0.1241 -0.3709  0.1257
 5147W        W 8666   9.471   2.768   0.029  0.3438  0.4062 -0.1430
 5148W        W 8667   2.751   7.973   9.683 -0.1871  0.3545 -0.1274
 5149W        W 8668   2.005   5.478  10.673  0.0431  0.3606  0.3436
 5150W        W 8669   5.930   7.657   2.629 -0.0222  0.1007  0.1377
 5151W        W 8670   5.163   0.781  10.302 -0.1278  0.1080 -0.2200
 5152W        W 8671   6.955   8.799   3.740  0.2750 -0.2028  0.0297
 5153W        W 8672   3.065   3.477   9.192 -0.0035 -0.1781 -0.2065
 5154W        W 8673   1.213   4.177   0.886  0.1318  0.0737 -0.0541
 5155W        W 8674   6.260   0.736  11.970  0.1867 -0.2638  0.0725
 5156W        W 8675   4.062   6.588   2.638 -0.0919  0.0448  0.0418
 5157W        W 8676   7.656   6.874   4.129 -0.1479  0.4866  0.0265
 5158W        W 8677   1.982   0.290  12.163 -0.2445 -0.0222  0.1081
 5159W        W 8678   9.666   1.454   9.332 -0.3389 -0.1576  0.1996
 5160W        W 8679   3.861   1.746   2.527  0.2120  0.1142  0.3304
 5161W        W 8680   4.218   4.100   9.711  0.0526  0.1141 -0.0208
 5162W        W 8681   0.771   4.300   1.329  0.2704  0.0123  0.1686
 5163W        W 8682   6.584   6.816   1.468  0.0629  0.1870  0.0477
 5164W        W 8683   2.937   7.825  10.306  0.2118 -0.0486  0.2539
 5165W        W 8684   1.774   2.302   9.337  0.2223  0.0305  0.0926
 5166W        W 8685   7.560   3.018   4.115 -0.0167 -0.1898  0.1801
 5167W        W 8686   8.609   4.227   1.503 -0.0715  0.1053 -0.0893
 5168W        W 8687   0.527   4.998   2.111  0.2164 -0.0250  0.0035
 5169W        W 8688   7.998   6.758   0.329  0.1596 -0.0117  0.3370
 5170W        W 8689   1.395   0.801   7.994  0.0846 -0.1446 -0.3380
 5171W        W 8690   4.940   4.922   9.101 -0.1530  0.3124 -0.1072
 5172W        W 8691   4.078   4.638   1.598  0.1381  0.1591 -0.0710
 5173W        W 8692   3.525   7.803   1.997 -0.0536 -0.0206  0.0662
 5174W        W 8693   4.106   7.040   0.594  0.1196 -0.1426  0.1332
 5175W        W 8694   1.758   1.864   9.623 -0.2050 -0.3178 -0.0690
 5176W        W 8695   9.640   0.144   0.609  0.2541 -0.2490  0.2907
 5177W        W 8696   3.124   9.212  12.227  0.3540  0.0008  0.0151
 5178W        W 8697   5.110   4.212   0.082 -0.0253 -0.1077  0.2653
 5179W        W 8698   2.914   6.761   3.606  0.1435  0.0106  0.0171
 5180W        W 8699   4.643   6.082   1.008 -0.0675  0.2043 -0.2224
 5181W        W 8700   7.438   6.176  11.768 -0.2697  0.0565  0.4815
 5182W        W 8701   4.030   0.766   1.360 -0.0116 -0.1412 -0.2017
 5183W        W 8702   2.605   7.842   9.229 -0.1216 -0.2099 -0.0546
 5184W        W 8703   8.446   0.173  12.220  0.0933  0.0826 -0.0491
 5185W        W 8704   2.192   9.397  10.109  0.2182  0.1021  0.0652
 5186W        W 8705   5.116   9.417  12.102  0.1146  0.0325 -0.0117
 5187W        W 8706   4.757   8.579   2.528 -0.2458  0.1267 -0.1812
 5188W        W 8707   6.915   2.684   3.058 -0.0206  0.1916 -0.0614
 5189W        W 8708   5.107   3.410   3.925  0.2299 -0.0575  0.2618
 5190W        W 8709   7.242   0.129  10.374  0.1174 -0.2250 -0.1804
 5191W        W 8710   4.427   2.769   9.794  0.1340 -0.0889  0.0318
 5192W        W 8711   4.639   2.589   7.600 -0.1377  0.1357  0.1010
 5193W        W 8712   8.523   2.355   2.192 -0.2762 -0.0102 -0.1240
 5194W        W 8713   9.333   2.524   1.728  0.1868 -0.1118 -0.0179
 5195W        W 8714   1.856   9.004  11.801  0.1059 -0.6103  0.3483
 5196W        W 8715   6.459   3.460  10.430 -0.1340 -0.0858  0.0261
 5197W        W 8716   9.365   1.729   0.007 -0.0172 -0.1017  0.1261
 5198W        W 8717   1.731   2.037  12.294  0.1183  0.2184  0.0887
 5199W        W 8718   3.595   0.781   2.813 -0.2417 -0.0407  0.0289
 5200W        W 8719   9.332   6.740   9.120 -0.0927 -0.0348  0.0612
 5201W        W 8720   1.961   5.280   9.699  0.0371  0.1869  0.2149
 5202W        W 8721   0.061   7.225   0.606  0.0276 -0.1206 -0.0282
 5203W        W 8722   3.556   7.487   9.384 -0.1610  0.2579 -0.0639
 5204W        W 8723   3.598   1.941  10.546  0.3997 -0.0433 -0.1124
 5205W        W 8724   8.932   8.272   3.763 -0.2302 -0.3936  0.0779
 5206W        W 8725   2.938   6.803  11.017  0.1791  0.0520  0.2068
 5207W        W 8726   6.409   8.577   1.021 -0.2910 -0.1684  0.1333
 5208W        W 8727   7.705   8.785   3.018  0.2325 -0.0498 -0.0088
 5209W        W 8728   8.423   5.156   8.496  0.2268  0.0628 -0.0468
 5210W        W 8729   0.975   7.197  12.118  0.1054 -0.1889 -0.1213
 5211W        W 8730   1.669   7.855   9.963 -0.0046  0.0926 -0.1228
 5212W        W 8731   2.012   7.846  10.369 -0.2215 -0.0910  0.2782
 5213W        W 8732   9.536   1.127  11.294 -0.0317  0.2155 -0.0099
 5214W        W 8733   5.562   7.206   9.066  0.0287 -0.0787 -0.0498
 5215W        W 8734   0.394   7.467   0.309  0.0227  0.1922 -0.1245
 5216W        W 8735   2.763   2.400  12.198 -0.3728  0.1692 -0.0305
 5217W        W 8736   5.936   1.968  12.029 -0.0919  0.0130 -0.0192
 5218W        W 8737   3.092   0.149  10.518 -0.0737 -0.0395  0.0565
 5219W        W 8738   5.972   0.639   3.438 -0.1793 -0.3068  0.1540
 5220W        W 8739   3.232   5.188   8.625  0.0211  0.0928  0.1582
 5221W        W 8740   8.934   3.004   8.340  0.0146  0.2469  0.2433
 5222W        W 8741   7.924   6.484   3.327  0.1426  0.3112  0.0261
 5223W        W 8742   3.837   8.286   9.957  0.0289  0.1151 -0.1965
 5224W        W 8743   8.295   5.590   2.822 -0.0387  0.0615  0.0549
 5225W        W 8744   5.963   8.316   1.812  0.0607  0.0975 -0.0337
 5226W        W 8745   6.342   2.240   1.346 -0.2694 -0.1924  0.2870
 5227W        W 8746   1.074   3.130   3.669  0.1675 -0.0436 -0.1803
 5228W        W 8747   0.946   5.328   2.274  0.0620 -0.1436 -0.1527
 5229W        W 8748   1.269   9.584  10.911 -0.1617 -0.0940 -0.2459
 5230W        W 8749   4.504   1.070  10.893  0.3339 -0.1212 -0.0180
 5231W        W 8750   4.686   6.684  10.001 -0.0103 -0.1372  0.0001
 5232W        W 8751   6.370   1.236   8.585 -0.1134 -0.4855  0.0586
 5233W        W 8752   0.003   4.501   3.158  0.2780 -0.1665  0.1043
 5234W        W 8753   3.562   8.515  11.999  0.1343  0.1937  0.0016
 5235W        W 8754   8.494   0.302   0.205 -0.0619 -0.0925 -0.4481
 5236W        W 8755   0.318   7.352   2.933 -0.0370  0.0138 -0.0167
 5237W        W 8756   2.153   4.227   2.389  0.3501 -0.2858 -0.0383
 5238W        W 8757   5.667   9.009  11.209 -0.1443 -0.0806 -0.1275
 5239W        W 8758   3.348   3.638  10.894  0.1376 -0.1096 -0.2847
 5240W        W 8759   5.523   4.328   0.487  0.1043 -0.3170  0.0322
 5241W        W 8760   4.891   2.704   1.941 -0.2738 -0.2933 -0.2381
 5242W        W 8761   6.475   6.678   1.934  0.0047  0.2637  0.0072
 5243W        W 8762   8.831   9.146   9.417  0.0368  0.0967 -0.0587
 5244W        W 8763   2.575   1.341   3.699  0.0873 -0.1292  0.1028
 5245W        W 8764   3.647   4.218   8.789 -0.0989  0.1422 -0.2308
 5246W        W 8765   7.257   7.589  12.266 -0.1229 -0.4917  0.1916
 5247W        W 8766   7.684   8.028  12.148  0.0378  0.0096 -0.0161
 5248W        W 8767   6.412   6.431   3.734 -0.0677  0.2386 -0.1437
 5249W        W 8768   5.715   5.886  10.999  0.1906 -0.0731  0.0362
 5250W        W 8769   7.984   0.177   1.439  0.1647  0.0538  0.0950
 5251W        W 8770   2.932   8.461  12.376 -0.2681  0.0473 -0.0918
 5252W        W 8771   2.974   5.419  12.312  0.0439 -0.2384  0.1116
 5253W        W 8772   8.034   0.299  10.475 -0.3745  0.1572 -0.1419
 5254W        W 8773   5.994   0.518  10.192 -0.1788  0.1285 -0.3049
 5255W        W 8774   2.756   9.109   0.340  0.2857  0.1470 -0.0320
 5256W        W 8775   0.195   0.490   9.344  0.1785 -0.1644 -0.2643
 5257W        W 8776   7.743   9.580   0.494 -0.0149  0.2819  0.0387
 5258W        W 8777   3.459   3.589   2.872 -0.1607 -0.0482  0.3273
 5259W        W 8778   0.658   1.314  11.252 -0.1262 -0.1337  0.0843
 5260W        W 8779   6.727   0.618   0.056 -0.0283 -0.0232  0.0868
 5261W        W 8780   7.494   7.790   3.192 -0.3001  0.2740  0.2317
 5262W        W 8781   1.908   7.987   0.574  0.2109 -0.1633 -0.1347
 5263W        W 8782   0.107   8.115   0.594  0.1536  0.5189  0.1776
 5264W        W 8783   3.488   5.584   0.871 -0.3346 -0.3643 -0.2330
 5265W        W 8784   8.360   2.166   1.782  0.1235 -0.1337  0.1387
 5266W        W 8785   2.037   0.763   9.752 -0.0359 -0.1418 -0.0133
 5267W        W 8786   7.065   7.643   3.420  0.0818 -0.0403  0.0414
 5268W        W 8787   5.171   2.941   0.175  0.4344 -0.3458 -0.0325
 5269W        W 8788   2.197   7.728   2.886  0.1252 -0.0630  0.3434
 5270W        W 8789   8.185   4.556   3.230  0.1095  0.1841  0.2236
 5271W        W 8790   8.279   3.273   8.133  0.0401 -0.3813 -0.1537
 5272W        W 8791   3.915   0.468  10.743 -0.4834  0.1604 -0.3879
 5273W        W 8792   0.841   6.589   3.103 -0.0720  0.2525  0.0432
 5274W        W 8793   4.682   6.358  10.452  0.1859 -0.2235  0.1442
 5275W        W 8794   9.301   7.285  10.137  0.0616  0.2272  0.1591
 5276W        W 8795   0.329   5.166  12.523 -0.0800 -0.0043  0.1763
 5277W        W 8796   8.012   5.083   1.581 -0.0978  0.2265 -0.0815
 5278W        W 8797   3.699   1.410   0.287  0.0193  0.3235 -0.2002
 5279W        W 8798   3.485   5.032  11.379 -0.0639 -0.2367 -0.2514
 5280W        W 8799   6.559   0.724   3.115  0.0203 -0.3554 -0.1840
 5281W        W 8800   4.949   4.668  12.571 -0.2873 -0.1162 -0.2002
 5282W        W 8801   8.820   4.120   3.564 -0.3202 -0.0293  0.0971
 5283W        W 8802   3.364   3.527   0.492  0.1582  0.2983  0.0898
 5284W        W 8803   3.529   2.428   3.001 -0.1829 -0.1878  0.0482
 5285W        W 8804   0.470   8.856   3.070  0.1599 -0.0246  0.4041
 5286W        W 8805   2.247   3.837   3.740  0.1475  0.0163  0.0158
 5287W        W 8806   7.992   3.799   3.933  0.1540  0.1867 -0.3911
 5288W        W 8807   0.988   0.190   8.934  0.0145 -0.3351 -0.0966
 5289W        W 8808   7.924   0.391   3.452  0.2761  0.0702  0.0964
 5290W        W 8809   2.614   1.206   0.205 -0.1217  0.1829 -0.0961
 5291W        W 8810   5.220   0.057   2.886 -0.0699  0.0668  0.0223
 5292W        W 8811   5.652   7.204  11.354 -0.2380 -0.1924  0.1329
 5293W        W 8812   7.656   0.153   9.642 -0.1302  0.1900  0.1146
 5294W        W 8813   0.442   8.035   9.996 -0.0466  0.1638  0.0169
 5295W        W 8814   8.887   0.487   1.209 -0.2215 -0.1231 -0.1734
 5296W        W 8815   2.227   2.166   9.568 -0.0137  0.1711  0.2399
 5297W        W 8816   7.929   8.152   0.034 -0.1324 -0.0558 -0.2205
 5298W        W 8817   8.564   6.934   1.037 -0.1767  0.0057  0.0848
 5299W        W 8818   1.331   6.722   4.594 -0.1687  0.1793 -0.1157
 5300W        W 8819   7.106   6.271   4.744 -0.1305  0.0597  0.1497
 5301W        W 8820   7.529   8.372   1.992  0.0474  0.4296  0.0756
 5302W        W 8821   4.712   6.931  11.104 -0.2511 -0.3270  0.0579
 5303W        W 8822   7.600   2.596  11.993 -0.2358 -0.3263 -0.0090
 5304W        W 8823   8.632   0.152  10.695 -0.0362  0.1000 -0.1124
 5305W        W 8824   6.941   5.979  11.448 -0.5298 -0.1994 -0.0398
 5306W        W 8825   5.126   4.384  12.151  0.2096 -0.2113 -0.1380
 5307W        W 8826   3.952   8.069   3.473  0.1933 -0.1220 -0.1205
 5308W        W 8827   1.583   1.734   2.153 -0.0797 -0.5403  0.1116
 5309W        W 8828   7.948   4.538   0.374 -0.0146 -0.0166  0.1973
 5310W        W 8829   9.037   7.963   4.787 -0.2672  0.2612  0.2506
 5311W        W 8830   7.186   3.563  11.709  0.0669  0.1899  0.0908
 5312W        W 8831   7.188   5.004  10.414  0.1161  0.2271  0.1163
 5313W        W 8832   4.290   3.749   1.067  0.1258  0.0205  0.2974
 5314W        W 8833   7.424   2.923   9.941 -0.2285 -0.2971  0.1434
 5315W        W 8834   8.991   7.490   2.765  0.1099  0.2780 -0.0217
 5316W        W 8835   6.455   9.483  10.717  0.1642 -0.0562 -0.0682
 5317W        W 8836   5.539   6.979   9.594 -0.1188 -0.1151  0.1477
 5318W        W 8837   9.406   2.042  10.432  0.1405 -0.0089  0.0870
 5319W        W 8838   2.160   1.299   1.619 -0.0602  0.0122  0.3194
 5320W        W 8839   3.159   6.256   9.284 -0.0361 -0.1610 -0.2021
 5321W        W 8840   9.328   1.429  12.150 -0.0929 -0.0839 -0.0487
 5322W        W 8841   5.884   0.366  11.893 -0.0079 -0.2938 -0.0215
 5323W        W 8842   7.061   2.161   3.457  0.0236  0.0904 -0.0659
 5324W        W 8843   7.908   3.731  12.377 -0.1407 -0.1057  0.0174
 5325W        W 8844   2.185   0.952   2.526 -0.2285 -0.2098  0.1274
 5326W        W 8845   6.852   5.033   8.716  0.1023  0.1288 -0.2741
 5327W        W 8846   6.480   5.029   9.134  0.1055  0.0242  0.0458
 5328W        W 8847   4.082   7.410   0.954 -0.0330  0.0845 -0.1663
 5329W        W 8848   7.964   5.424  10.806 -0.3341 -0.3339  0.1253
 5330W        W 8849   2.168   7.231   8.778 -0.1011  0.1076  0.0046
 5331W        W 8850   3.255   7.717   3.994  0.4351 -0.4052 -0.0149
 5332W        W 8851   9.340   3.450  10.933  0.1362 -0.1715  0.0042
 5333W        W 8852   4.125   9.185  10.192 -0.1938  0.0223  0.2903
 5334W        W 8853   7.756   1.383  10.251  0.1280 -0.1515 -0.1043
 5335W        W 8854   0.558   8.660  10.784 -0.2853 -0.1150 -0.3720
 5336W        W 8855   1.200   7.457  11.659 -0.3546  0.0573 -0.2408
 5337W        W 8856   5.825   2.897   4.331  0.0531  0.0125 -0.2921
 5338W        W 8857   1.665   3.675   0.449 -0.1450  0.4010 -0.2082
 5339W        W 8858   4.060   7.470   1.841  0.0991 -0.1321  0.1233
 5340W        W 8859   6.201   3.878  12.509  0.4576  0.1092  0.2329
 5341W        W 8860   8.545   6.488  10.567  0.0087  0.0539 -0.0025
 5342W        W 8861   8.289   3.316  12.114 -0.2750  0.1506  0.1973
 5343W        W 8862   8.758   1.745   1.708 -0.2036  0.1820  0.1547
 5344W        W 8863   4.300   6.643   0.881 -0.2576  0.2283  0.1569
 5345W        W 8864   9.363   5.387   8.197 -0.2476  0.2785 -0.0588
 5346W        W 8865   9.209   7.239   0.774 -0.0822  0.0337  0.0822
 5347W        W 8866   4.263   3.459   0.398 -0.0563  0.1695 -0.0908
 5348W        W 8867   3.989   1.735  10.159 -0.1702  0.5447  0.3459
 5349W        W 8868   2.535   4.208   2.757  0.1490  0.0165 -0.0855
 5350W        W 8869   1.904   1.907   3.778 -0.0271  0.1813 -0.0883
 5351W        W 8870   6.700   1.924   0.231 -0.1392 -0.0028  0.3114
 5352W        W 8871   6.138   2.354   2.499 -0.0447 -0.0691  0.0495
 5353W        W 8872   3.632   4.639   1.913  0.0339 -0.2976 -0.1255
 5354W        W 8873   1.900   5.975   0.479  0.0595 -0.2710 -0.2925
 5355W        W 8874   7.765   2.604   4.079  0.0275  0.3580 -0.2974
 5356W        W 8875   7.151   6.952   1.533 -0.0227  0.0003 -0.0260
 5357W        W 8876   9.386   0.668  12.455 -0.2613  0.2375 -0.0460
 5358W        W 8877   2.702   5.007   0.740  0.0660 -0.3167 -0.0888
 5359W        W 8878   7.278   2.060   9.343  0.2354  0.0674 -0.2592
 5360W        W 8879   7.920   1.031   3.229 -0.3437  0.0880 -0.1579
 5361W        W 8880   7.422   0.287   4.328 -0.0962 -0.1915  0.0080
 5362W        W 8881   0.436   5.594   3.166  0.3167 -0.1869 -0.0951
 5363W        W 8882   3.393   3.893   1.783  0.1190 -0.1198 -0.3062
 5364W        W 8883   4.119   0.771  11.073  0.2247 -0.3729 -0.2438
 5365W        W 8884   8.122   1.991   0.057  0.0722  0.1101  0.3089
 5366W        W 8885   7.043   3.714   0.739  0.0468 -0.1082  0.2466
 5367W        W 8886   1.407   7.039   9.045 -0.1292 -0.1756  0.1738
 5368W        W 8887   3.697   6.387  10.198  0.2837  0.2288 -0.0205
 5369W        W 8888   4.018   3.960   3.798 -0.1725 -0.4874  0.1852
 5370W        W 8889   2.313   0.683   9.055 -0.4537  0.0043  0.2695
 5371W        W 8890   1.283   0.517   1.000 -0.0724 -0.2891 -0.0624
 5372W        W 8891   4.422   7.688   0.741  0.1746  0.1545 -0.0364
 5373W        W 8892   7.867   7.197   0.133 -0.1078 -0.0609  0.0871
 5374W        W 8893   8.028   7.252   4.018  0.2116 -0.2886 -0.1958
 5375W        W 8894   5.852   4.871  12.146  0.0409 -0.3588  0.1712
 5376W        W 8895   1.826   5.009  11.560  0.1803  0.0974  0.4449
 5377W        W 8896   0.922   2.711   8.930  0.1003 -0.0042 -0.1211
 5378W        W 8897   4.791   2.028   3.491  0.3631  0.2107 -0.2521
 5379W        W 8898   7.218   0.044   3.105  0.1271 -0.0047  0.2481
 5380W        W 8899   6.429   7.988   2.000  0.1803 -0.3614 -0.0147
 5381W        W 8900   1.627   3.375   1.254 -0.4781  0.0002  0.1064
 5382W        W 8901   3.068   4.795   3.959  0.0305  0.1798 -0.2971
 5383W        W 8902   2.415   1.106  11.538  0.2287  0.0738 -0.1581
 5384W        W 8903   9.474   6.044   3.566 -0.0789  0.1750 -0.1188
 5385W        W 8904   2.313   5.654   9.596  0.0338  0.1907 -0.2350
 5386W        W 8905   0.974   2.150  10.059 -0.0177  0.2524 -0.0258
 5387W        W 8906   3.510   3.226  10.517  0.2480  0.0578 -0.1116
 5388W        W 8907   5.806   4.530   8.921 -0.2332  0.0098  0.0526
 5389W        W 8908   1.752   5.591   2.741  0.3349  0.2424 -0.0853
 5390W        W 8909   5.075   7.459   9.247  0.1842 -0.1498 -0.1030
 5391W        W 8910   7.279   7.254  10.216 -0.0145 -0.0810  0.2089
 5392W        W 8911   7.292   8.173   2.489 -0.1279  0.2816  0.2439
 5393W        W 8912   6.855   7.633  10.162 -0.2113 -0.0182  0.2361
 5394W        W 8913   5.046   8.473   1.172 -0.1294  0.0520 -0.1491
 5395W        W 8914   7.423   3.859   4.033 -0.1904  0.1052 -0.0525
 5396W        W 8915   2.294   9.249   2.881  0.2683 -0.2673 -0.0714
 5397W        W 8916   1.653   3.482   2.925 -0.3188 -0.1207  0.3152
 5398W        W 8917   2.354   5.758   0.403 -0.0991  0.0230 -0.0897
 5399W        W 8918   6.652   2.837   1.073 -0.1931 -0.2091 -0.1628
 5400W        W 8919   8.524   6.383   1.835 -0.1275 -0.1461 -0.0870
 5401W        W 8920   9.002   8.891   4.319  0.1848  0.0028  0.3157
 5402W        W 8921   9.081   1.810   9.365  0.3020 -0.1437  0.3375
 5403W        W 8922   1.632   8.137   3.321  0.1284  0.3292 -0.1107
 5404W        W 8923   9.610   5.442   3.363  0.3998 -0.0554 -0.0923
 5405W        W 8924   8.604   1.805   9.218 -0.2513  0.4656 -0.1910
 5406W        W 8925   1.483   0.266   1.849 -0.1909 -0.2197 -0.0454
 5407W        W 8926   9.592   9.439   3.600  0.1329 -0.2405 -0.1947
 5408W        W 8927   8.572   0.366  11.204  0.1115  0.1318  0.1737
 5409W        W 8928   7.590   4.699   1.533  0.1092 -0.0136 -0.1449
 5410W        W 8929   9.582   3.738   2.408 -0.0054  0.0542 -0.0658
 5411W        W 8930   1.707   2.298  10.353  0.0688  0.5420  0.0801
 5412W        W 8931   5.553   3.685   1.324 -0.2010 -0.1251 -0.0704
 5413W        W 8932   2.727   0.600   1.273 -0.2427 -0.0127 -0.1668
 5414W        W 8933   1.801   4.388  11.685  0.1901  0.0966  0.2114
 5415W        W 8934   1.058   5.103  10.139  0.1375  0.2580 -0.2163
 5416W        W 8935   4.347   1.316  10.055  0.0879 -0.3950  0.1670
 5417W        W 8936   6.123   9.189   0.929 -0.1252  0.0697  0.0710
 5418W        W 8937   3.285   2.975   7.914  0.0508  0.1573  0.1129
 5419W        W 8938   7.163   6.118   1.858 -0.1633 -0.0036 -0.3789
 5420W        W 8939   1.344   9.652   0.370  0.0817 -0.2389 -0.3342
 5421W        W 8940   4.780   1.910  11.460 -0.3488  0.1789  0.0809
 5422W        W 8941   0.411   0.875  10.172  0.3294  0.0599  0.0918
 5423W        W 8942   5.477   1.662   8.069 -0.1225 -0.0391  0.0289
 5424W        W 8943   0.499   4.963  11.643 -0.0852 -0.0634 -0.3714
 5425W        W 8944   4.077   1.433   9.515  0.1664  0.0902  0.5110
 5426W        W 8945   5.379   4.984   2.697  0.0590 -0.2366 -0.1552
 5427W        W 8946   1.661   0.673   3.380 -0.3359  0.0957  0.2136
 5428W        W 8947   8.482   3.393   1.032 -0.3228 -0.0867 -0.2647
 5429W        W 8948   2.662   4.754   1.184 -0.3198  0.1006 -0.0003
 5430W        W 8949   1.958   9.177   8.941 -0.3633 -0.0737  0.2566
 5431W        W 8950   3.030   8.786  11.977  0.1588  0.0057  0.1415
 5432W        W 8951   0.857   7.703  12.155 -0.2143 -0.2577  0.0293
 5433W        W 8952   1.279   5.977  10.474 -0.1199 -0.0363 -0.0823
 5434W        W 8953   8.846   6.565   1.439  0.0138  0.0136 -0.0161
 5435W        W 8954   2.497   6.566  11.928 -0.0488 -0.1382  0.0768
 5436W        W 8955   6.322   4.211   8.565  0.0341  0.3039  0.0003
 5437W        W 8956   3.141   4.668   1.581 -0.3760 -0.1389  0.1722
 5438W        W 8957   3.289   0.947   2.014 -0.1955 -0.0322  0.1982
 5439W        W 8958   6.465   3.828   3.538 -0.2061 -0.0263  0.4862
 5440W        W 8959   6.148   6.568   1.050 -0.0150 -0.1725 -0.3305
 5441W        W 8960   8.320   2.670   3.126  0.0062 -0.1232 -0.1752
 5442W        W 8961   5.038   4.230  11.424  0.1601 -0.2872 -0.3176
 5443W        W 8962   7.783   5.515   9.749  0.2169 -0.1332 -0.2470
 5444W        W 8963   0.555   4.585   9.525 -0.2137  0.1912  0.1032
 5445W        W 8964   7.322   1.602   9.080 -0.3097 -0.2097  0.0732
 5446W        W 8965   2.616   9.055   3.435 -0.1155  0.1599  0.1217
 5447W        W 8966   9.184   4.338   0.043  0.0055 -0.2679 -0.1394
 5448W        W 8967   5.459   1.723   1.594  0.3054 -0.2249 -0.1632
 5449W        W 8968   5.485   9.550   9.746 -0.4017 -0.2812  0.1932
 5450W        W 8969   3.811   6.863  10.834 -0.0632  0.0438 -0.1857
 5451W        W 8970   4.790   1.259  11.735 -0.2058  0.2101  0.1330
 5452W        W 8971   9.151   1.531   8.339 -0.0335  0.2997  0.2333
 5453W        W 8972   0.546   3.817  12.262  0.1234  0.2425 -0.1844
 5454W        W 8973   0.812   1.925   8.283 -0.0509 -0.0051 -0.0739
 5455W        W 8974   4.092   6.819  10.445 -0.0232 -0.0793  0.4688
 5456W        W 8975   1.657   5.569   0.719  0.1681  0.1000  0.1474
 5457W        W 8976   3.612   6.984   9.464  0.2746 -0.0186  0.2614
 5458W        W 8977   7.440   7.327   3.435  0.0300 -0.0800 -0.2590
 5459W        W 8978   0.563   0.858   1.583  0.2020 -0.1957  0.0064
 5460W        W 8979   3.597   1.625   9.637 -0.2007 -0.0537  0.2155
 5461W        W 8980   4.667   8.775   9.588  0.2051 -0.0342 -0.0490
 5462W        W 8981   3.599   0.190   4.697 -0.2493 -0.0549  0.1343
 5463W        W 8982   9.418   2.928   8.208 -0.4824 -0.1085 -0.1134
 5464W        W 8983   8.743   8.112   9.050 -0.1283 -0.0274  0.0794
 5465W        W 8984   8.818   6.798   9.169  0.2529  0.0620  0.0703
 5466W        W 8985   8.875   0.801  12.446 -0.1035  0.2427  0.3699
 5467W        W 8986   1.387   7.206   0.926  0.0189 -0.3529 -0.1228
 5468W        W 8987   3.836   7.858  10.804  0.0323 -0.0276 -0.1690
 5469W        W 8988   3.121   6.369  12.212 -0.2916 -0.1144  0.0434
 5470W        W 8989   3.374   5.118  10.881 -0.3976 -0.0387 -0.0850
 5471W        W 8990   8.084   3.071   3.403  0.1179 -0.0260  0.0794
 5472W        W 8991   5.473   0.455   2.575  0.0184 -0.0470  0.3174
 5473W        W 8992   2.933   5.395  11.000  0.1039  0.2798 -0.2006
 5474W        W 8993   1.834   6.598   4.663  0.4626  0.0145 -0.0793
 5475W        W 8994   7.821   5.593  10.248 -0.3959 -0.1203  0.0272
 5476W        W 8995   4.763   8.615  12.350  0.0318 -0.1083 -0.0796
 5477W        W 8996   4.127   9.571   1.623  0.1156  0.1544 -0.0208
 5478W        W 8997   3.036   3.377   2.079 -0.4706 -0.0551  0.0621
 5479W        W 8998   7.664   7.619  12.567  0.2228  0.5334 -0.2215
 5480W        W 8999   4.000   3.319  10.429 -0.0363  0.1033  0.1754
 5481W        W 9000   6.989   1.046   1.483  0.6351  0.2126 -0.1543
 5482W        W 9001   7.861   6.779  12.358 -0.1879  0.3592  0.2912
 5483W        W 9002   2.938   6.394   1.037 -0.1170  0.1651  0.1331
 5484W        W 9003   8.421   2.437   8.663  0.0055  0.1267 -0.1272
 5485W        W 9004   6.416   0.574   2.656  0.0297  0.2971  0.1085
 5486W        W 9005   5.330   1.726  12.512 -0.4835  0.2018  0.1032
 5487W        W 9006   4.751   4.469   9.112  0.2938 -0.1997  0.0008
 5488W        W 9007   4.307   0.791  10.024  0.3427 -0.3475  0.0676
 5489W        W 9008   8.650   2.539   0.414 -0.1644 -0.1595 -0.3436
 5490W        W 9009   4.207   4.471   0.921 -0.2298  0.1183  0.2146
 5491W        W 9010   4.100   4.846   3.015 -0.0382 -0.1328 -0.2230
 5492W        W 9011   6.448   5.795   9.835  0.2294 -0.0214  0.0434
 5493W        W 9012   6.147   0.287   0.179  0.1414  0.0858 -0.0157
 5494W        W 9013   4.847   1.993   2.961 -0.2169  0.4598 -0.0536
 5495W        W 9014   8.065   3.564   2.763  0.1686  0.1386 -0.1997
 5496W        W 9015   0.490   3.800  11.759 -0.2006  0.1692  0.0875
 5497W        W 9016   0.189   2.511  11.686 -0.1238 -0.2392 -0.0650
 5498W        W 9017   9.361   1.828  11.862  0.0324  0.1127 -0.1056
 5499W        W 9018   0.552   5.601   9.269 -0.0053  0.3449  0.2612
 5500W        W 9019   9.464   5.768  12.024 -0.0328 -0.0755 -0.0594
 5501W        W 9020   0.580   8.130  10.834  0.1567 -0.0078  0.2046
 5502W        W 9021   6.080   4.408  10.200 -0.0024 -0.1288  0.3169
 5503W        W 9022   9.094   3.993  10.179 -0.0139 -0.0110  0.0266
 5504W        W 9023   2.178   4.500   1.970  0.0323 -0.0038  0.1664
 5505W        W 9024   2.525   8.022  11.892  0.2621 -0.4916 -0.0255
 5506W        W 9025   4.276   2.024   0.795  0.2609 -0.0749  0.1583
 5507W        W 9026   7.491   7.709  11.815  0.0820 -0.3709 -0.1468
 5508W        W 9027   2.769   1.640   2.696 -0.0342 -0.2177 -0.0045
 5509W        W 9028   0.727   6.545  11.067 -0.4295 -0.0467  0.1316
 5510W        W 9029   3.556   5.500   1.857 -0.0795 -0.1208  0.1828
 5511W        W 9030   2.827   0.929   2.219  0.1805  0.0404  0.3706
 5512W        W 9031   1.735   5.793   1.831 -0.2106  0.0352 -0.1178
 5513W        W 9032   1.290   6.723  11.926  0.1036 -0.3624  0.2447
 5514W        W 9033   0.365   3.889   2.370  0.1005 -0.2796  0.1216
 5515W        W 9034   6.484   0.037   3.727 -0.3048  0.3663  0.0716
 5516W        W 9035   4.356   4.483   2.777  0.0574 -0.2210  0.1152
 5517W        W 9036   3.233   1.928  10.026  0.1899  0.1013 -0.1012
 5518W        W 9037   8.040   3.984   2.287 -0.1377 -0.0674 -0.0114
 5519W        W 9038   3.800   3.217   0.529 -0.0531  0.0068  0.2387
 5520W        W 9039   1.383   1.159   3.316  0.0073  0.3059 -0.0679
 5521W        W 9040   4.835   2.490   3.244  0.0652  0.2057 -0.3058
 5522W        W 9041   1.528   1.583  12.158 -0.1100  0.0440 -0.1013
 5523W        W 9042   2.514   5.691  12.448  0.2088  0.2638  0.0317
 5524W        W 9043   4.056   0.508   0.798 -0.0870 -0.3259 -0.1623
 5525W        W 9044   1.211   4.317   8.830 -0.1745 -0.0224  0.3555
 5526W        W 9045   2.319   1.132   9.501 -0.0020  0.3351  0.2680
 5527W        W 9046   7.262   5.668   3.092  0.2892  0.1909 -0.0817
 5528W        W 9047   4.424   4.572   9.871  0.3711  0.2839  0.3023
 5529W        W 9048   6.527   8.732   3.459  0.0761  0.3750  0.4006
 5530W        W 9049   5.089   8.891  11.084 -0.3513 -0.1222  0.2251
 5531W        W 9050   1.483   7.769   8.454  0.0185 -0.0800  0.3965
 5532W        W 9051   7.421   9.518   9.950 -0.0464  0.1806 -0.1476
 5533W        W 9052   7.180   6.828   9.932 -0.1134  0.0314  0.3911
 5534W        W 9053   7.368   8.040   0.441  0.0610  0.0319  0.2707
 5535W        W 9054   8.553   9.645   1.023  0.0796 -0.2860  0.0241
 5536W        W 9055   0.741   2.865   2.745 -0.0948 -0.0006  0.0377
 5537W        W 9056   9.673   2.452   0.774  0.0592 -0.2006 -0.0066
 5538W        W 9057   8.287   3.222  10.223  0.0062 -0.1787 -0.1172
 5539W        W 9058   2.940   3.190   2.971  0.1104 -0.0772  0.1180
 5540W        W 9059   8.766   9.266   8.769  0.0809 -0.1702 -0.0856
 5541W        W 9060   6.871   4.958   1.162 -0.0229 -0.4147  0.0517
 5542W        W 9061   3.226   1.297   0.174  0.0498 -0.0805 -0.0169
 5543W        W 9062   5.502   1.348   8.948 -0.3835  0.2491  0.0840
 5544W        W 9063   0.490   1.530  10.345 -0.3112 -0.0446 -0.0972
 5545W        W 9064   7.050   7.927   9.581  0.1355  0.0585 -0.3224
 5546W        W 9065   0.849   1.934   1.737 -0.0040 -0.1033 -0.2517
 5547W        W 9066   0.016   8.804   2.930  0.0439  0.2237  0.0936
 5548W        W 9067   8.933   1.569   7.878 -0.2172 -0.2683 -0.2705
 5549W        W 9068   6.004   8.359   1.174  0.1181 -0.2897 -0.0019
 5550W        W 9069   7.767   3.028   8.848 -0.4494 -0.2212 -0.0349
 5551W        W 9070   1.638   3.634   1.969  0.2441 -0.1429 -0.1088
 5552W        W 9071   8.361   9.474   9.335  0.4273  0.3950  0.1805
 5553W        W 9072   1.549   3.630   8.956  0.1232  0.0188 -0.2016
 5554W        W 9073   6.053   9.493   8.988 -0.3305 -0.0075 -0.1122
 5555W        W 9074   8.457   3.570   9.327 -0.0144  0.0147  0.1518
 5556W        W 9075   0.797   4.152   4.225  0.1205 -0.2464 -0.0877
 5557W        W 9076   1.489   6.399  10.564  0.1671  0.2460 -0.2741
 5558W        W 9077   3.347   7.819   1.168 -0.2977 -0.0353  0.3523
 5559W        W 9078   4.000   2.169   4.135 -0.0395  0.1306  0.1627
 5560W        W 9079   5.075   1.485   2.822 -0.1493 -0.0847 -0.3362
 5561W        W 9080   7.133   4.703   8.358 -0.2156  0.0062 -0.1738
 5562W        W 9081   5.043   1.732   8.812 -0.0761 -0.2670  0.1736
 5563W        W 9082   0.539   3.366  10.733 -0.0919  0.0082  0.2465
 5564W        W 9083   4.763   0.046   8.052  0.0969 -0.2214 -0.0359
 5565W        W 9084   5.301   2.750   2.293  0.0055 -0.0973 -0.1606
 5566W        W 9085   1.740   1.824  11.729 -0.0129 -0.1498 -0.1701
 5567W        W 9086   2.463   0.453   8.653 -0.1027 -0.0859 -0.2475
 5568W        W 9087   8.031   2.837  10.225  0.3941 -0.2343 -0.0224
 5569W        W 9088   8.108   9.660  10.799 -0.4250  0.0677 -0.2455
 5570W        W 9089   5.573   9.000   0.696 -0.1744 -0.0315  0.0726
 5571W        W 9090   0.276   0.886   9.029 -0.0279  0.3221 -0.1368
 5572W        W 9091   0.881   5.140   3.072  0.0870  0.1045  0.0200
 5573W        W 9092   4.214   0.944   9.438  0.2181 -0.0056 -0.0442
 5574W        W 9093   5.967   6.873   1.520 -0.1899 -0.2168 -0.0569
 5575W        W 9094   1.631   8.851  11.324 -0.0341 -0.4070 -0.1517
 5576W        W 9095   6.197   9.582  11.930  0.1968  0.0554 -0.0118
 5577W        W 9096   9.580   4.029   7.840  0.0913  0.2048 -0.4046
 5578W        W 9097   2.785   0.151   8.911 -0.1397 -0.3869  0.2593
 5579W        W 9098   6.049   4.267  10.682  0.0323 -0.2405  0.1509
 5580W        W 9099   5.616   1.326   2.981 -0.0960  0.0237  0.0507
 5581W        W 9100   1.560   1.593   1.092 -0.2899  0.0676 -0.3243
 5582W        W 9101   5.498   0.962   0.406  0.5340  0.1932  0.0167
 5583W        W 9102   4.443   8.443   9.970 -0.1669 -0.2827 -0.0712
 5584W        W 9103   4.459   4.083   8.842  0.3413 -0.0852 -0.0817
 5585W        W 9104   4.646   2.395   2.678  0.2791  0.0186 -0.2724
 5586W        W 9105   8.047   2.830   8.500 -0.1275 -0.0244  0.0871
 5587W        W 9106   7.570   7.312   2.337 -0.1098  0.1433 -0.1338
 5588W        W 9107   1.243   5.938   0.582 -0.0700  0.0201 -0.1100
 5589W        W 9108   8.805   4.640   1.215 -0.0523 -0.1104  0.0746
 5590W        W 9109   9.430   8.526   0.881  0.2585  0.2242  0.0734
 5591W        W 9110   0.056   4.906   1.466  0.3003 -0.0273  0.0464
 5592W        W 9111   4.623   9.631  12.269  0.1427  0.2567  0.0799
 5593W        W 9112   0.152   1.547  11.329 -0.2437 -0.0738 -0.0019
 5594W        W 9113   9.324   6.274  12.053 -0.1714  0.1746 -0.2937
 5595W        W 9114   6.500   5.682  12.127  0.1136  0.0163 -0.1187
 5596W        W 9115   9.344   2.628   9.588 -0.0060  0.0022 -0.0704
 5597W        W 9116   4.038   2.400   9.389 -0.0685 -0.0151  0.1505
 5598W        W 9117   8.258   3.366   0.133  0.1655 -0.1394 -0.0535
 5599W        W 9118   3.255   1.066   8.656 -0.2882 -0.0561 -0.1490
 5600W        W 9119   3.960   0.492   2.988  0.1226  0.3727 -0.0320
 5601W        W 9120   8.886   2.091  11.898  0.5224  0.0879  0.0087
 5602W        W 9121   4.599   7.756  11.553  0.1788 -0.0107 -0.1924
 5603W        W 9122   6.467   7.566   2.560  0.0684  0.2577 -0.1911
 5604W        W 9123   0.564   6.531   8.637  0.0266  0.0303  0.2211
 5605W        W 9124   0.051   9.245   8.745  0.3992 -0.1296  0.2296
 5606W        W 9125   0.495   7.044  10.046  0.3288 -0.2117 -0.0202
 5607W        W 9126   9.337   3.824   0.854 -0.0683 -0.1389 -0.4716
 5608W        W 9127   2.707   2.964   9.281  0.3574 -0.1415 -0.3563
 5609W        W 9128   9.613   7.706   3.724 -0.0081 -0.0213 -0.1390
 5610W        W 9129   8.605   1.607   3.487 -0.0056 -0.3855 -0.2716
 5611W        W 9130   6.472   8.986   0.654 -0.0991 -0.2561  0.0423
 5612W        W 9131   0.324   3.634   2.858  0.2318 -0.1743 -0.0704
 5613W        W 9132   6.928   1.670   1.996 -0.3174 -0.2113  0.2995
 5614W        W 9133   2.391   6.957   2.000 -0.1738 -0.2208 -0.1268
 5615W        W 9134   7.753   4.279   9.516 -0.1229 -0.2832 -0.2139
 5616W        W 9135   0.853   4.232   4.735  0.0191  0.4155 -0.0292
 5617W        W 9136   9.186   6.120   2.174 -0.1729 -0.0128  0.1750
 5618W        W 9137   1.315   4.840  12.401  0.2194  0.0831  0.2791
 5619W        W 9138   3.091   7.755   3.533 -0.1575  0.1153  0.2041
 5620W        W 9139   0.924   0.534   4.193 -0.3238 -0.1704  0.0064
 5621W        W 9140   4.850   2.134   4.037  0.0855  0.2373  0.0582
 5622W        W 9141   8.538   7.791   9.298  0.3220 -0.0077  0.1677
 5623W        W 9142   4.551   1.856   0.395  0.0866  0.3154 -0.1008
 5624W        W 9143   0.195   9.464   1.751  0.1751  0.0236  0.0531
 5625W        W 9144   6.392   3.375   1.197 -0.1283  0.0304 -0.1913
 5626W        W 9145   3.328   4.856  10.450 -0.1655  0.2101 -0.0058
 5627W        W 9146   7.406   3.960  10.031 -0.1016 -0.0384 -0.0833
 5628W        W 9147   9.523   2.470   9.128  0.0356  0.1604 -0.0632
 5629W        W 9148   1.241   0.637  12.187  0.0883  0.1653  0.2647
 5630W        W 9149   0.658   6.048  11.131  0.1737  0.1912 -0.2315
 5631W        W 9150   5.325   3.616  11.002  0.0086  0.5156 -0.1690
 5632W        W 9151   3.190   5.716   0.547  0.1569 -0.2460  0.1350
 5633W        W 9152   9.056   7.874   2.472  0.0103 -0.0010 -0.2115
 5634W        W 9153   2.759   5.508   0.242  0.2913  0.1691 -0.0118
 5635W        W 9154   3.868   7.281   1.432  0.2763  0.1151  0.1376
 5636W        W 9155   0.069   2.847   1.907 -0.4498 -0.1727 -0.0917
 5637W        W 9156   3.463   8.512   3.168  0.2827 -0.0188  0.0338
 5638W        W 9157   0.395   3.839   0.520  0.0025 -0.0907 -0.0137
 5639W        W 9158   4.114   6.700   3.112 -0.1313  0.1880 -0.0718
 5640W        W 9159   0.262   9.457   0.733 -0.0060  0.4559 -0.0133
 5641W        W 9160   0.303   6.216   0.542  0.2690 -0.0274  0.2193
 5642W        W 9161   5.542   1.861   8.881 -0.1746 -0.1289  0.0574
 5643W        W 9162   5.966   3.578  11.545 -0.0989  0.1481 -0.0227
 5644W        W 9163   8.836   2.985   1.168  0.1344  0.0458 -0.1647
 5645W        W 9164   5.631   0.937   2.691 -0.0587 -0.2030  0.1217
 5646W        W 9165   6.570   3.681   8.625 -0.0929 -0.4231  0.0681
 5647W        W 9166   0.754   1.776   0.682 -0.0029 -0.4662 -0.1554
 5648W        W 9167   1.892   7.648   2.394  0.2971  0.1299 -0.1646
 5649W        W 9168   1.420   3.125  11.041  0.0486  0.0521  0.1262
 5650W        W 9169   1.945   3.888   2.923  0.1032  0.0097 -0.0068
 5651W        W 9170   4.461   8.858   3.451  0.0703  0.3913  0.2212
 5652W        W 9171   1.407   5.678   4.870 -0.2126  0.0721 -0.0038
 5653W        W 9172   4.017   0.450   8.709  0.3011 -0.2143  0.2735
 5654W        W 9173   7.098   6.381  12.561  0.1103 -0.1800  0.0395
 5655W        W 9174   8.363   0.075   8.875 -0.0387 -0.0838 -0.0235
 5656W        W 9175   7.955   7.484  11.262 -0.3241  0.0329 -0.1730
 5657W        W 9176   9.516   7.663   8.827 -0.0961  0.0289  0.1935
 5658W        W 9177   8.774   1.548  11.977 -0.1943  0.2316  0.0828
 5659W        W 9178   3.132   5.349   2.897  0.2713 -0.3769  0.1803
 5660W        W 9179   2.413   0.595   2.244 -0.1339 -0.0639 -0.1140
 5661W        W 9180   2.846   6.398   1.798  0.0170 -0.4150  0.0012
 5662W        W 9181   4.253   7.139  10.925  0.1048  0.0596  0.0909
 5663W        W 9182   1.082   8.702   9.745 -0.0633  0.1315  0.0543
 5664W        W 9183   3.387   8.199   2.710 -0.1964  0.0807  0.1251
 5665W        W 9184   1.024   2.041   3.332 -0.3643 -0.3816 -0.1145
 5666W        W 9185   5.872   3.551   1.999  0.1696 -0.0396 -0.1778
 5667W        W 9186   4.190   4.442   0.025 -0.1141  0.0506  0.1964
 5668W        W 9187   3.465   7.095  11.133 -0.0693  0.2382  0.0397
 5669W        W 9188   4.289   0.018   1.156  0.2689  0.0661 -0.1325
 5670W        W 9189   6.923   3.450   1.184  0.2239  0.4563 -0.1783
 5671W        W 9190   5.846   3.598   3.138  0.1074 -0.0995  0.1242
 5672W        W 9191   7.277   5.398   9.965 -0.1466 -0.2556  0.0767
 5673W        W 9192   5.306   7.140  11.786  0.1285 -0.3492  0.2107
 5674W        W 9193   4.688   4.667  11.478  0.0064 -0.1358  0.3470
 5675W        W 9194   8.833   7.128  11.192  0.2392  0.1189 -0.1358
 5676W        W 9195   9.080   4.798   0.352 -0.0734  0.0552 -0.4111
 5677W        W 9196   3.104   4.775   2.061  0.1391 -0.3799  0.1257
 5678W        W 9197   3.784   4.947   8.703  0.1433  0.1692 -0.0407
 5679W        W 9198   0.221   3.480   3.521  0.0809  0.0279  0.2820
 5680W        W 9199   3.844   9.655   7.873  0.0852 -0.2669  0.3847
 5681W        W 9200   1.886   3.181   0.799  0.0502 -0.0028 -0.0330
 5682W        W 9201   6.447   9.287   4.079  0.1976  0.1836 -0.2099
 5683W        W 9202   1.766   5.445   3.222  0.0827  0.0532 -0.0322
 5684W        W 9203   5.277   3.038   0.748 -0.3854 -0.2300 -0.0756
 5685W        W 9204   5.452   6.509  10.237 -0.0109 -0.0653 -0.0966
 5686W        W 9205   4.360   5.916   2.358  0.2022 -0.1672 -0.2970
 5687W        W 9206   1.751   3.671   9.883 -0.2744 -0.2470  0.1021
 5688W        W 9207   1.477   2.297   2.910 -0.1651  0.0705 -0.3360
 5689W        W 9208   0.432   0.328   0.512  0.3072 -0.1836  0.0182
 5690W        W 9209   4.559   6.851  10.538  0.1104 -0.2174  0.0296
 5691W        W 9210   1.741   6.052   2.691  0.0483 -0.0687  0.2533
 5692W        W 9211   5.122   9.293   2.369 -0.2851 -0.2460  0.0500
 5693W        W 9212   3.705   6.943   2.188  0.0483  0.0675  0.0112
 5694W        W 9213   7.758   7.427   1.818 -0.3163  0.3380  0.1864
 5695W        W 9214   9.159   0.117  10.584 -0.5095  0.1501  0.0363
 5696W        W 9215   1.815   6.337   1.746 -0.1094 -0.3548  0.2418
 5697W        W 9216   3.900   3.943  11.921  0.2737 -0.1671  0.1717
 5698W        W 9217   0.644   6.832  12.031 -0.0623 -0.1668 -0.1491
 5699W        W 9218   5.711   6.408   9.821 -0.0258  0.3663  0.0815
 5700W        W 9219   0.174   5.122   1.014 -0.0608 -0.0959  0.3695
 5701W        W 9220   3.101   4.866   9.976 -0.0954  0.2474  0.0571
 5702W        W 9221   4.192   9.013   9.732 -0.1831  0.0184 -0.0661
 5703W        W 9222   6.695   9.579   3.119  0.2417  0.0776 -0.0629
 5704W        W 9223   0.789   1.353   1.610  0.2611 -0.3715 -0.0568
 5705W        W 9224   2.875   0.316   0.926 -0.3547 -0.3313 -0.0159
 5706W        W 9225   2.149   3.442   0.508  0.0349  0.2588  0.1709
 5707W        W 9226   7.510   3.676   9.294 -0.2718  0.1727 -0.4951
 5708W        W 9227   1.304   3.333   2.142 -0.0891 -0.2660  0.2495
 5709W        W 9228   6.764   6.264   2.287  0.1349 -0.2492  0.0723
 5710W        W 9229   8.135   1.055   8.741  0.0793  0.0728 -0.1939
 5711W        W 9230   5.565   8.297  11.797 -0.0904 -0.0415 -0.0591
 5712W        W 9231   9.103   5.802   9.824 -0.0047 -0.0995 -0.3612
 5713W        W 9232   2.790   7.139   2.232 -0.2962  0.1698  0.1444
 5714W        W 9233   1.737   1.111   8.527 -0.3310 -0.1282  0.0550
 5715W        W 9234   8.331   8.060  11.288 -0.0829  0.2518 -0.0099
 5716W        W 9235   6.554   1.782   0.828  0.1032  0.2466 -0.0061
 5717W        W 9236   5.504   0.249   0.263  0.1414  0.2117  0.2601
 5718W        W 9237   2.411   7.849  11.399  0.0082 -0.0637 -0.2034
 5719W        W 9238   0.273   9.566   9.097 -0.2011  0.1740 -0.0369
 5720W        W 9239   5.810   3.289   1.492  0.0399  0.1035 -0.4329
 5721W        W 9240   6.321   0.844   2.085  0.0237 -0.0111  0.2381
 5722W        W 9241   3.381   2.914   0.444  0.1488 -0.1309 -0.3602
 5723W        W 9242   8.492   8.468   1.230  0.0820  0.0361  0.2582
 5724W        W 9243   9.208   2.540   4.612 -0.1271  0.1387 -0.1005
 5725W        W 9244   4.450   5.069   9.319  0.2948  0.0722 -0.3583
 5726W        W 9245   2.169   4.486   3.711  0.3189 -0.0650  0.2008
 5727W        W 9246   2.934   8.596   3.832  0.2276 -0.1234 -0.3368
 5728W        W 9247   4.866   8.520   3.523  0.1822 -0.0314  0.2791
 5729W        W 9248   0.111   9.288  11.843  0.0746 -0.0202  0.5131
 5730W        W 9249   6.547   2.226   3.694  0.1062 -0.0098  0.1311
 5731W        W 9250   8.642   3.573   8.881  0.1740  0.0305 -0.1693
 5732W        W 9251   0.353   4.790   3.599  0.0607 -0.0353  0.0070
 5733W        W 9252   9.163   4.642   2.296  0.0602  0.1102  0.1895
 5734W        W 9253   2.932   4.324   9.783 -0.0270  0.2024 -0.0064
 5735W        W 9254   7.772   9.294   3.072  0.1415 -0.0374 -0.4424
 5736W        W 9255   3.007   1.609   8.467  0.5132  0.0141 -0.0588
 5737W        W 9256   1.224   5.158   0.983 -0.0684  0.3317 -0.4459
 5738W        W 9257   2.029   0.742  12.442 -0.2440 -0.2802 -0.1083
 5739W        W 9258   3.991   2.912   9.359  0.2403 -0.1397  0.1366
 5740W        W 9259   6.278   2.211   1.882  0.0141 -0.1481 -0.1826
 5741W        W 9260   8.990   7.689  10.232 -0.2550 -0.0014 -0.3643
 5742W        W 9261   7.023   5.951   1.322  0.0288  0.0198  0.0236
 5743W        W 9262   2.065   1.260   0.296  0.2522 -0.1559  0.1906
 5744W        W 9263   3.943   8.564   3.599  0.0387 -0.1325 -0.3050
 5745W        W 9264   6.202   1.012   9.403  0.0722 -0.2452  0.1897
 5746W        W 9265   3.976   7.614  12.197 -0.0076  0.0538  0.0819
 5747W        W 9266   8.063   7.359  10.532  0.0228 -0.2185 -0.1686
 5748W        W 9267   2.533   9.327   1.133 -0.2108 -0.0114  0.1264
 5749W        W 9268   0.261   0.469   4.315 -0.1489 -0.1755  0.2761
 5750W        W 9269   3.822   5.887  11.878 -0.1723 -0.4712  0.1775
 5751W        W 9270   6.914   3.071  11.574  0.1071  0.2072  0.1708
 5752W        W 9271   9.640   7.844   1.183 -0.0020 -0.3070 -0.0307
 5753W        W 9272   5.717   0.273  11.064 -0.4433 -0.2190  0.1439
 5754W        W 9273   6.262   3.586  11.956 -0.0078 -0.2647  0.1757
 5755W        W 9274   1.011   2.832  11.141  0.0024 -0.2045  0.3692
 5756W        W 9275   6.866   8.894  11.391  0.1450  0.0323 -0.1375
 5757W        W 9276   0.887   7.909   1.548 -0.0440 -0.1151 -0.0240
 5758W        W 9277   7.577   2.097   3.030  0.0570 -0.2653 -0.2569
 5759W        W 9278   6.475   5.436   8.205  0.0820  0.1374 -0.0081
 5760W        W 9279   0.605   4.444   3.829 -0.2248  0.4618 -0.0051
 5761W        W 9280   8.732   8.484  12.137 -0.1479 -0.1490  0.0758
 5762W        W 9281   7.095   1.249   3.875 -0.0945  0.0866  0.2411
 5763W        W 9282   4.612   3.251   4.348 -0.0175  0.3605  0.0487
 5764W        W 9283   4.810   1.667   9.363  0.2046  0.2498  0.2611
 5765W        W 9284   1.407   6.168   1.353  0.1762 -0.1383 -0.2059
 5766W        W 9285   0.000   1.696   2.159  0.3715 -0.1251  0.2126
 5767W        W 9286   6.014   7.323  10.973 -0.0052 -0.0803  0.2339
 5768W        W 9287   4.429   3.772  12.221 -0.0437  0.2337 -0.1639
 5769W        W 9288   4.182   7.045   1.712  0.0187  0.0429 -0.3039
 5770W        W 9289   7.507   1.328   8.757  0.2646 -0.1727  0.0355
 5771W        W 9290   5.950   3.410  10.492 -0.1058 -0.0273  0.0322
 5772W        W 9291   2.032   2.796  12.042 -0.0686 -0.1576 -0.0590
 5773W        W 9292   8.331   3.777   9.832 -0.0718 -0.2754  0.3117
 5774W        W 9293   2.160   5.644   0.945  0.0628 -0.2930 -0.1808
 5775W        W 9294   2.455   7.895  10.104 -0.2400 -0.0866 -0.0790
 5776W        W 9295   3.746   7.322  11.858 -0.2503  0.0839 -0.1677
 5777W        W 9296   9.031   7.938   1.438  0.1128  0.1246 -0.2101
 5778W        W 9297   1.517   7.221   1.597 -0.0064 -0.0692 -0.0620
 5779W        W 9298   4.352   6.099   3.228 -0.0170 -0.1782  0.1314
 5780W        W 9299   6.360   1.329   2.271  0.0332 -0.0781 -0.3679
 5781W        W 9300   0.843   4.691  11.788 -0.3339 -0.0842  0.2127
 5782W        W 9301   6.881   8.889   2.512  0.0953 -0.1223 -0.0227
 5783W        W 9302   0.793   7.244   3.791  0.1852  0.1156 -0.1743
 5784W        W 9303   7.935   3.321   8.504 -0.0564  0.0881 -0.1534
 5785W        W 9304   6.704   7.933  11.534 -0.2500 -0.1020  0.0834
 5786W        W 9305   8.107   2.072   1.010  0.0338 -0.0808  0.1989
 5787W        W 9306   5.982   5.333   2.808  0.0590 -0.2512 -0.4472
 5788W        W 9307   2.527   8.294   0.633 -0.1473 -0.0088 -0.1821
 5789W        W 9308   0.938   8.359  10.573  0.0161 -0.1874  0.1751
 5790W        W 9309   4.004   1.011   8.593 -0.3333  0.0275 -0.3763
 5791W        W 9310   3.209   8.150   0.684 -0.3326 -0.2927 -0.0333
 5792W        W 9311   3.270   1.374  12.261 -0.2062  0.2590  0.2493
 5793W        W 9312   8.582   3.778   1.756 -0.2535  0.1271  0.0194
 5794W        W 9313   8.665   5.225  10.915 -0.0501 -0.1016  0.3497
 5795W        W 9314   8.349   1.877  11.108 -0.0961  0.2304  0.1910
 5796W        W 9315   8.369   1.291   2.213 -0.1554 -0.2341  0.0250
 5797W        W 9316   4.288   3.133  10.993 -0.3056  0.0402 -0.4331
 5798W        W 9317   0.800   5.788   2.106  0.0243  0.1494  0.0259
 5799W        W 9318   8.060   0.597   0.241 -0.2707 -0.1455  0.1561
 5800W        W 9319   1.470   5.958  11.618  0.2949  0.0653 -0.1532
 5801W        W 9320   5.616   5.257   9.288 -0.0440 -0.1118 -0.2120
 5802W        W 9321   5.261   5.730   2.920 -0.3703  0.3206  0.2445
 5803W        W 9322   7.706   0.827   8.759  0.4423  0.0455  0.0405
 5804W        W 9323   3.659   6.147   3.369  0.0207 -0.1950  0.1895
 5805W        W 9324   9.149   6.665  11.194 -0.0207  0.4282 -0.0588
 5806W        W 9325   7.085   2.863   9.384  0.2616  0.1225  0.0940
 5807W        W 9326   8.941   4.670  11.642  0.2781 -0.1693 -0.2390
 5808W        W 9327   8.086   0.686   1.335  0.1980 -0.0217 -0.2758
 5809W        W 9328   3.916   2.934   3.548  0.2653 -0.1326 -0.2103
 5810W        W 9329   4.720   7.838   1.488 -0.0793 -0.1828  0.2262
 5811W        W 9330   8.150   7.512   9.940  0.0116  0.1734  0.1460
 5812W        W 9331   5.301   6.326   1.508 -0.1495  0.1337 -0.0722
 5813W        W 9332   8.651   4.412  10.927 -0.3057  0.1172  0.1716
 5814W        W 9333   8.642   8.871   1.477 -0.1166  0.1815  0.3252
 5815W        W 9334   9.280   4.070   0.454  0.3485 -0.0638 -0.3338
 5816W        W 9335   4.246   5.258   3.300  0.0708 -0.1966  0.2743
 5817W        W 9336   5.831   8.862   1.154  0.0303 -0.2017 -0.1747
 5818W        W 9337   1.351   7.685   0.630  0.2435 -0.2456 -0.0113
 5819W        W 9338   2.554   7.148  10.972 -0.0367  0.1493  0.2197
 5820W        W 9339   4.166   8.577   9.416 -0.0120  0.1762  0.2211
 5821W        W 9340   1.574   9.669  12.412  0.0636 -0.0197 -0.0340
 5822W        W 9341   2.902   7.725   1.532  0.1744 -0.0555 -0.0918
 5823W        W 9342   8.462   5.882   1.010  0.0609  0.0621  0.1002
 5824W        W 9343   6.481   2.142  11.979  0.0135  0.1114 -0.1388
 5825W        W 9344   5.059   3.084  11.430 -0.3731 -0.2009 -0.2792
 5826W        W 9345   3.888   5.872   0.661  0.1118  0.0643  0.3187
 5827W        W 9346   2.233   1.926  12.397 -0.0196 -0.0314 -0.0773
 5828W        W 9347   1.594   2.241  11.488  0.2106 -0.0202  0.2003
 5829W        W 9348   1.539   0.618  11.584  0.2047 -0.1331 -0.3046
 5830W        W 9349   8.049   5.943   8.857 -0.3814  0.3769 -0.3141
 5831W        W 9350   6.963   2.630   0.692 -0.2003 -0.1155 -0.3305
 5832W        W 9351   9.282   1.904   2.389  0.3472  0.0049 -0.0452
 5833W        W 9352   7.272   0.903   2.599  0.1329  0.2942  0.0202
 5834W        W 9353   4.601   1.424   2.685  0.1146  0.1008  0.0351
 5835W        W 9354   6.175   3.729   8.282  0.3591 -0.0194 -0.0630
 5836W        W 9355   7.006   5.468   0.768  0.1050 -0.0477 -0.0640
 5837W        W 9356   1.302   9.395   3.378 -0.2188 -0.2141  0.0554
 5838W        W 9357   7.717   6.963   1.632  0.1193 -0.5012  0.2231
 5839W        W 9358   5.316   6.039  11.570 -0.0907 -0.3481  0.0307
 5840W        W 9359   7.653   1.351   0.690 -0.0389 -0.2588  0.0696
 5841W        W 9360   8.891   1.733   8.731  0.0994  0.0738 -0.1940
 5842W        W 9361   2.281   5.461  11.636  0.1469  0.1849  0.2577
 5843W        W 9362   3.254   5.409   0.130  0.1846  0.3089  0.0985
 5844W        W 9363   6.916   4.626  10.707 -0.1171  0.3535  0.0149
 5845W        W 9364   6.081   5.285  11.467 -0.0358 -0.0540 -0.1857
 5846W        W 9365   4.871   0.633   3.915  0.2713 -0.2984 -0.1009
 5847W        W 9366   0.086   1.616   3.944  0.0177 -0.0493  0.1894
 5848W        W 9367   0.338   3.117   3.925  0.2000  0.1437  0.1437
 5849W        W 9368   0.557   8.229   0.822 -0.2549  0.0055  0.1827
 5850W        W 9369   9.173   4.751  10.862  0.1768 -0.3429  0.5193
 5851W        W 9370   2.837   8.283   9.333 -0.1516  0.1691 -0.3281
 5852W        W 9371   0.502   0.378   8.976 -0.4118 -0.1650 -0.0266
 5853W        W 9372   2.199   8.242   0.229 -0.2294 -0.0281 -0.0495
 5854W        W 9373   7.598   3.876   1.953 -0.0077 -0.0807  0.0823
 5855W        W 9374   1.782   6.865  12.227 -0.0556  0.0195  0.1156
 5856W        W 9375   8.066   3.706  10.969 -0.3302  0.1581  0.0205
 5857W        W 9376   5.843   1.079   8.563  0.2706  0.2366 -0.0916
 5858W        W 9377   3.151   2.402   3.965 -0.1687 -0.1336  0.0346
 5859W        W 9378   9.097   4.219   1.116  0.3246  0.2979  0.0782
 5860W        W 9379   1.553   8.251  11.251  0.0270 -0.2703  0.0586
 5861W        W 9380   4.740   2.955  10.622  0.2096  0.0866  0.0008
 5862W        W 9381   6.327   8.492   9.993  0.2204  0.0500 -0.1872
 5863W        W 9382   3.275   8.116  12.268 -0.1897  0.0190  0.0710
 5864W        W 9383   5.860   1.483  11.228 -0.0566 -0.0448  0.0317
 5865W        W 9384   0.632   6.012   8.944  0.2229 -0.0178 -0.1496
 5866W        W 9385   9.118   1.080   3.332  0.1865 -0.0153  0.0309
 5867W        W 9386   1.203   3.951   9.237 -0.0208 -0.0127 -0.2778
 5868W        W 9387   3.111   5.802   2.068  0.0559 -0.1487 -0.2805
 5869W        W 9388   5.317   1.216  10.047 -0.1674  0.3324 -0.2281
 5870W        W 9389   1.371   9.575   8.364  0.0048 -0.0938 -0.0938
 5871W        W 9390   2.074   5.024   2.871  0.1106  0.1285 -0.2630
 5872W        W 9391   2.541   4.673  10.930  0.0908  0.0447  0.1202
 5873W        W 9392   8.421   6.581   0.682  0.1993 -0.0709  0.2179
 5874W        W 9393   2.908   7.963   0.965  0.0451 -0.1821  0.1654
 5875W        W 9394   7.412   8.277   1.449  0.1378  0.0404 -0.0742
 5876W        W 9395   2.791   7.317   1.331 -0.2121  0.1097  0.0024
 5877W        W 9396   3.463   5.485   2.560 -0.1894 -0.1016  0.0408
 5878W        W 9397   9.312   6.723   0.974 -0.0327 -0.0242 -0.1732
 5879W        W 9398   9.654   3.313   0.890 -0.2231  0.1367 -0.1999
 5880W        W 9399   6.388   2.673   2.963 -0.2178  0.1554  0.0856
 5881W        W 9400   7.643   6.658   2.138  0.1382 -0.0012 -0.2271
 5882W        W 9401   0.344   4.675  12.485  0.0547  0.0597 -0.1073
 5883W        W 9402   0.079   3.599  12.078 -0.0794  0.0107 -0.0456
 5884W        W 9403   7.027   7.761   1.094  0.0262 -0.0127  0.2451
 5885W        W 9404   5.121   0.464  12.490  0.2254  0.0270 -0.1350
 5886W        W 9405   7.373   6.961   2.615  0.1386 -0.0283 -0.3567
 5887W        W 9406   5.833   6.328  12.379  0.1963  0.2985 -0.0984
 5888W        W 9407   1.145   8.894   8.938 -0.1050 -0.0317 -0.1436
 5889W        W 9408   3.748   8.068   2.419 -0.0925 -0.2142 -0.3859
 5890W        W 9409   5.656   2.396   9.179 -0.1709 -0.0157 -0.2312
 5891W        W 9410   8.962   6.893   3.552  0.0169  0.1755 -0.2888
 5892W        W 9411   9.641   8.118   9.118  0.2539 -0.0007 -0.1222
 5893W        W 9412   3.476   3.683  11.354  0.0609  0.1707  0.0527
 5894W        W 9413   4.343   6.442   9.585 -0.3513 -0.0852  0.3335
 5895W        W 9414   9.573   9.252   9.378  0.1305  0.2582  0.2834
 5896W        W 9415   8.112   6.565   1.746  0.1675 -0.1689  0.1795
 5897W        W 9416   9.137   3.158   0.085  0.1964  0.0704  0.0903
 5898W        W 9417   7.227   7.555   8.821  0.4182 -0.0482  0.0988
 5899W        W 9418   8.617   2.103   4.269  0.2848  0.1144 -0.0351
 5900W        W 9419   7.267   8.676   2.768 -0.1039  0.0665 -0.1660
 5901W        W 9420   0.549   4.258   3.378 -0.1682 -0.0011  0.0243
 5902W        W 9421   8.339   7.420   1.047  0.1355 -0.3803 -0.0707
 5903W        W 9422   7.325   4.473   9.828  0.0053 -0.2182  0.0796
 5904W        W 9423   4.004   2.587   2.085  0.2991  0.1841 -0.0843
 5905W        W 9424   5.199   1.826   3.265  0.1648  0.3797 -0.1225
 5906W        W 9425   5.145   5.384  10.426  0.3600 -0.0446  0.1110
 5907W        W 9426   0.491   1.312   8.318 -0.1433  0.3867 -0.0387
 5908W        W 9427   5.007   7.604   2.181 -0.0913 -0.2416 -0.1765
 5909W        W 9428   1.156   0.392  10.679  0.1040  0.1044  0.1924
 5910W        W 9429   2.698   6.035   2.215 -0.4804 -0.1619  0.1935
 5911W        W 9430   3.809   7.747  10.303  0.1724 -0.1150  0.1232
 5912W        W 9431   8.625   5.033   3.034 -0.0980  0.0098  0.0566
 5913W        W 9432   9.145   7.172   9.020 -0.0648 -0.0108 -0.1998
 5914W        W 9433   3.499   1.508   3.623 -0.1138  0.1131 -0.3417
 5915W        W 9434   0.461   6.092   1.085  0.0279  0.1675 -0.0634
 5916W        W 9435   7.419   4.928   8.780 -0.1453 -0.2664  0.0148
 5917W        W 9436   6.031   5.779   0.439  0.0591 -0.0770  0.0395
 5918W        W 9437   2.081   8.178  11.716 -0.0154  0.1764 -0.0447
 5919W        W 9438   0.551   9.173   2.378  0.0299  0.0121  0.1051
 5920W        W 9439   5.909   2.997   1.868  0.1025 -0.1869 -0.0653
 5921W        W 9440   8.780   5.591  10.167  0.1389  0.1434 -0.1917
 5922W        W 9441   0.980   5.723   0.205  0.1120  0.2630  0.1162
 5923W        W 9442   6.741   0.944   3.519 -0.3448 -0.1479 -0.2060
 5924W        W 9443   7.803   4.953  10.915  0.1300 -0.1139 -0.3235
 5925W        W 9444   1.665   8.463  11.713  0.0488  0.1511  0.2353
 5926W        W 9445   2.418   1.488   9.110  0.3349 -0.1750  0.1250
 5927W        W 9446   9.036   0.840  11.188 -0.1966  0.0564 -0.2152
 5928W        W 9447   1.399   3.642   2.480  0.1550  0.2713 -0.2686
 5929W        W 9448   0.602   2.226   8.581 -0.3836  0.5468 -0.3479
 5930W        W 9449   9.601   5.028  10.935  0.1896  0.0821 -0.2149
 5931W        W 9450   2.603   6.178   0.201  0.0277  0.0354 -0.1617
 5932W        W 9451   1.000   9.301   2.093 -0.3691  0.0228 -0.0887
 5933W        W 9452   5.086   4.455   2.328  0.0145  0.0263  0.2774
 5934W        W 9453   4.012   2.229  10.190  0.3612 -0.2168 -0.0708
 5935W        W 9454   6.880   7.828   1.681 -0.0648  0.2296  0.2598
 5936W        W 9455   2.074   1.042   3.520 -0.2346  0.0153 -0.1267
 5937W        W 9456   8.245   1.420   3.101 -0.0154 -0.0585 -0.1072
 5938W        W 9457   7.695   2.774   1.273 -0.1820 -0.2927 -0.0228
 5939W        W 9458   2.683   0.628  11.637  0.0683 -0.0844  0.2243
 5940W        W 9459   0.659   6.124  10.544  0.1926  0.2870  0.1187
 5941W        W 9460   3.488   8.033   3.275  0.1240  0.0870 -0.0672
 5942W        W 9461   9.096   6.701  12.221  0.1481  0.0903 -0.3221
 5943W        W 9462   6.457   3.478  12.414 -0.0178 -0.0170  0.0490
 5944W        W 9463   7.732   9.459   3.539 -0.1388 -0.3445 -0.5407
 5945W        W 9464   0.640   8.450  11.274  0.0686  0.2094 -0.0861
 5946W        W 9465   9.191   6.315   0.521  0.0374 -0.0370  0.1893
 5947W        W 9466   1.952   9.555   9.208 -0.2480 -0.1345 -0.0704
 5948W        W 9467   2.997   4.971   0.237  0.2541  0.2360 -0.2311
 5949W        W 9468   6.890   6.020   8.736 -0.1789 -0.0687 -0.1300
 5950W        W 9469   5.428   0.498  11.795  0.2908  0.0144  0.3842
 5951W        W 9470   4.732   4.266  11.817 -0.1881  0.1390  0.1927
 5952W        W 9471   4.179   0.711   8.186 -0.1748 -0.0816 -0.2301
 5953W        W 9472   0.327   4.839   0.315  0.1208  0.1288 -0.2333
 5954W        W 9473   7.167   5.781  11.002 -0.0798  0.0099  0.2813
 5955W        W 9474   0.167   5.930  10.665 -0.0143  0.2833 -0.1177
 5956W        W 9475   6.961   0.559   1.463 -0.1453 -0.2991 -0.1319
 5957W        W 9476   5.213   7.157   2.549  0.0080 -0.1812  0.1706
 5958W        W 9477   1.859   2.831   9.315 -0.2085 -0.3523 -0.0447
 5959W        W 9478   3.547   1.615  11.919  0.2287  0.0857 -0.0283
 5960W        W 9479   7.735   6.525  11.185  0.0943 -0.3150  0.3712
 5961W        W 9480   9.471   9.555   2.062  0.0200 -0.3622 -0.0550
 5962W        W 9481   9.273   4.161   2.393  0.0005  0.0858  0.0554
 5963W        W 9482   9.658   0.970   2.636  0.0347  0.0220  0.1591
 5964W        W 9483   5.365   1.405   8.463 -0.1428 -0.0599 -0.4461
 5965W        W 9484   7.730   6.091   3.017  0.0427 -0.2554 -0.2491
 5966W        W 9485   1.003   1.009  11.082 -0.2752  0.2375  0.2644
 5967W        W 9486   1.419   1.393   4.165 -0.1995  0.1969  0.0790
 5968W        W 9487   5.292   2.908   1.759  0.2129 -0.1870  0.0116
 5969W        W 9488   2.783   1.417  10.538  0.0384  0.4049  0.2326
 5970W        W 9489   0.967   5.645   3.208 -0.1227  0.0518 -0.3052
 5971W        W 9490   6.892   8.587   0.791 -0.3749  0.1643 -0.3265
 5972W        W 9491   5.916   0.602   2.923  0.2451 -0.0598 -0.0635
 5973W        W 9492   7.630   6.112   3.530 -0.0796 -0.0883  0.1455
 5974W        W 9493   5.034   3.183   2.176 -0.0997  0.1846 -0.0009
 5975W        W 9494   5.362   3.691   4.249 -0.0262  0.1272 -0.3427
 5976W        W 9495   9.028   0.293  11.036  0.3193 -0.0470 -0.0273
 5977W        W 9496   2.733   9.139   2.944 -0.1374 -0.1353 -0.1453
 5978W        W 9497   5.842   9.216   9.572 -0.1577 -0.0681 -0.1369
 5979W        W 9498   8.888   6.015   1.270  0.2701 -0.1456 -0.1892
 5980W        W 9499   2.754   1.267   1.148 -0.2294 -0.0552  0.0384
 5981W        W 9500   5.703   6.609   3.058  0.1637 -0.0085 -0.1028
 5982W        W 9501   8.041   9.400   1.243  0.3474 -0.1857  0.1115
 5983W        W 9502   9.476   2.281  11.867  0.1820  0.1192  0.1816
 5984W        W 9503   6.133   5.516   1.004 -0.2116 -0.1107  0.0164
 5985W        W 9504   6.105   7.729   0.173 -0.1579  0.0046  0.0104
 5986W        W 9505   2.991   2.217   0.800  0.1838  0.2685  0.0587
 5987W        W 9506   0.109   9.185   4.023 -0.3275  0.0348  0.0132
 5988W        W 9507   7.106   5.178   0.229 -0.0559 -0.1514  0.2253
 5989W        W 9508   2.131   4.849  11.174 -0.0185  0.0393 -0.0403
 5990W        W 9509   0.161   6.354  11.042  0.0665  0.0323  0.2009
 5991W        W 9510   6.088   4.736   1.995  0.0006 -0.1136 -0.0619
 5992W        W 9511   6.689   1.251  10.216 -0.0823 -0.0725 -0.1151
 5993W        W 9512   2.810   8.759   2.151 -0.0310 -0.1735 -0.2924
 5994W        W 9513   1.324   0.606  10.220  0.2386  0.1003  0.0863
 5995W        W 9514   7.893   0.794  10.291 -0.2819  0.0137  0.0189
 5996W        W 9515   7.740   0.611  11.657  0.3135  0.0801 -0.0853
 5997W        W 9516   8.599   2.113   0.757  0.0466 -0.0434 -0.3118
 5998W        W 9517   2.330   2.627  10.944  0.0986  0.1838  0.3358
 5999W        W 9518   8.658   1.172   2.665  0.1686 -0.3087 -0.0037
 6000W        W 9519   1.174   0.340   9.723 -0.0926  0.2773  0.0521
 6001W        W 9520   0.487   3.385   0.912 -0.0941  0.0597 -0.0607
 6002W        W 9521   1.182   9.524   2.890  0.3397 -0.1189 -0.1969
 6003W        W 9522   5.046   4.588   2.866 -0.0133 -0.2374 -0.1759
 6004W        W 9523   8.956   2.579  10.951  0.1474 -0.0431  0.1198
 6005W        W 9524   8.320   8.361  12.357  0.0433  0.1263 -0.0967
 6006W        W 9525   2.890   0.002   9.465  0.1017  0.1138 -0.0717
 6007W        W 9526   1.629   4.590   2.258  0.0455 -0.0315  0.3105
 6008W        W 9527   5.756   9.630   1.619  0.0874  0.1562  0.1164
 6009W        W 9528   7.608   3.497  10.798  0.2210  0.2085 -0.3493
 6010W        W 9529   5.516   6.401   3.560 -0.1132  0.1125 -0.1018
 6011W        W 9530   1.200   1.741   1.469 -0.1886  0.0052  0.2370
 6012W        W 9531   2.377   6.168  12.364  0.2534 -0.3549 -0.0551
 6013W        W 9532   4.463   4.920   0.025 -0.1462 -0.5701 -0.0383
 6014W        W 9533   5.815   8.217   0.413  0.2409  0.0103 -0.1724
 6015W        W 9534   8.220   7.941   9.651 -0.0985 -0.1474  0.1239
 6016W        W 9535   8.317   9.022   9.653 -0.0649 -0.0119 -0.1458
 6017W        W 9536   8.755   3.207   2.569  0.1203  0.1045 -0.3212
 6018W        W 9537   5.610   1.461   0.339 -0.0532 -0.2229 -0.1738
 6019W        W 9538   1.890   2.431   7.882 -0.0604  0.2099 -0.1535
 6020W        W 9539   6.614   0.149   9.270 -0.2181  0.0017  0.0280
 6021W        W 9540   8.569   9.617   3.711 -0.1289  0.1766 -0.2651
 6022W        W 9541   6.083   0.968  11.004  0.1184 -0.0044 -0.1030
 6023W        W 9542   0.431   4.222  12.490  0.0518  0.0190 -0.0543
 6024W        W 9543   1.228   3.925  12.176  0.1411 -0.0349  0.2072
 6025W        W 9544   6.797   4.256   3.492 -0.0318  0.1438 -0.0628
 6026W        W 9545   7.296   8.610   0.009  0.2034 -0.1677 -0.0981
 6027W        W 9546   7.316   5.810   0.662 -0.0927  0.0530  0.0917
 6028W        W 9547   8.711   6.400  12.348 -0.1813 -0.0340 -0.2786
 6029W        W 9548   8.309   5.449   3.327 -0.0308 -0.2665 -0.1499
 6030W        W 9549   4.458   3.655   2.682  0.3617 -0.0679  0.0816
 6031W        W 9550   3.054   6.083   1.457  0.1889  0.2431  0.1687
 6032W        W 9551   2.120   9.561  12.486 -0.1232 -0.3874 -0.0789
 6033W        W 9552   1.332   9.255  11.477 -0.1078 -0.0316 -0.1555
 6034W        W 9553   3.698   8.915   0.294  0.1902 -0.2795 -0.3563
 6035W        W 9554   9.173   8.388   9.118  0.1306  0.1242 -0.1452
 6036W        W 9555   1.160   6.305  11.492  0.0025  0.0768 -0.1646
 6037W        W 9556   7.399   3.745   1.119  0.3601 -0.1020  0.0482
 6038W        W 9557   9.140   7.593   3.970 -0.1641 -0.2153  0.2365
 6039W        W 9558   7.428   2.497   9.567  0.1525  0.2715  0.1792
 6040W        W 9559   0.631   9.663  12.348 -0.0773 -0.0769 -0.3501
 6041W        W 9560   6.603   6.895   0.303  0.0960  0.0738 -0.0691
 6042W        W 9561   0.327   1.348   1.431 -0.1151 -0.4032 -0.0487
 6043W        W 9562   2.237   9.032   4.439 -0.2997  0.0580 -0.0405
 6044W        W 9563   3.877   3.901   2.614  0.1775  0.0580 -0.2417
 6045W        W 9564   9.186   8.923   1.066  0.1469 -0.1210 -0.0654
 6046W        W 9565   6.731   5.516   4.676  0.0943  0.1548 -0.0518
 6047W        W 9566   4.371   8.468  10.475 -0.1000  0.2110  0.0852
 6048W        W 9567   0.387   2.968  11.870 -0.0972 -0.0907 -0.2613
 6049W        W 9568   7.977   0.718   0.756 -0.1664  0.1616  0.0378
 6050W        W 9569   7.681   7.156   9.921  0.1110 -0.4287  0.1410
 6051W        W 9570   7.962   0.210  12.491  0.4577 -0.0968  0.2500
 6052W        W 9571   3.772   5.385   0.400  0.2433 -0.0891 -0.4339
 6053W        W 9572   9.132   6.601   3.971  0.1542  0.0865 -0.2982
 6054W        W 9573   4.560   2.755   8.466  0.0260  0.1371  0.0387
 6055W        W 9574   9.116   4.356  11.131  0.2309  0.2317  0.0633
 6056W        W 9575   2.596   8.666   0.178  0.2651  0.2754  0.0256
 6057W        W 9576   3.462   5.178   9.565  0.0808  0.1986  0.0054
 6058W        W 9577   9.396   1.944   1.808  0.1047 -0.0400  0.2067
 6059W        W 9578   5.438   5.831  12.492  0.1992 -0.4423  0.2243
 6060W        W 9579   7.297   0.732   9.593  0.2173 -0.2546 -0.0319
 6061W        W 9580   5.304   1.080  11.730 -0.0600 -0.0774  0.3153
 6062W        W 9581   2.939   8.489  11.036 -0.2550 -0.0090 -0.0510
 6063W        W 9582   0.239   2.100   1.714 -0.0880 -0.0294  0.1102
 6064W        W 9583   8.172   1.764  10.039 -0.0994 -0.0896  0.1587
 6065W        W 9584   2.519   4.737   0.351  0.0316  0.0574  0.1440
 6066W        W 9585   6.907   5.559  12.475 -0.0768  0.2601  0.1722
 6067W        W 9586   6.647   2.262   2.642 -0.0511 -0.1077 -0.3607
 6068W        W 9587   3.803   7.672   3.143 -0.0655 -0.0319  0.3943
 6069W        W 9588   4.589   4.717  10.977  0.0725 -0.2368  0.1086
 6070W        W 9589   7.606   2.987  10.487  0.1635  0.1816  0.1809
 6071W        W 9590   8.594   7.256   3.852  0.1183 -0.0353 -0.1393
 6072W        W 9591   5.382   7.755   2.753  0.2517  0.0764  0.0082
 6073W        W 9592   1.296   8.633  10.287 -0.1317  0.0165 -0.3412
 6074W        W 9593   9.036   5.595   3.555 -0.1588 -0.0287  0.0637
 6075W        W 9594   3.014   9.538   1.232 -0.1428 -0.1786  0.0604
 6076W        W 9595   8.485   0.978   9.079 -0.0421 -0.1266 -0.0965
 6077W        W 9596   0.254   7.694   9.251  0.0976  0.1047 -0.3403
 6078W        W 9597   8.065   2.525   2.633 -0.1824 -0.1817  0.1404
 6079W        W 9598   0.624   8.088   2.030 -0.1554  0.2221  0.0879
 6080W        W 9599   4.514   8.392   2.081 -0.4789  0.0060  0.1073
 6081W        W 9600   8.421   4.330   0.349 -0.2299  0.1478 -0.0484
 6082W        W 9601   6.149   0.215   1.810 -0.1135  0.0077  0.0338
 6083W        W 9602   7.899   4.946   2.409 -0.0488  0.2097 -0.3281
 6084W        W 9603   1.424   5.482  10.456  0.2811  0.0755  0.1185
 6085W        W 9604   9.188   5.331  11.069  0.0999 -0.1987 -0.0613
 6086W        W 9605   3.217   4.885   2.830 -0.0959 -0.1348 -0.2175
 6087W        W 9606   4.429   6.756  11.484  0.2269 -0.0248  0.0461
 6088W        W 9607   7.012   7.260   2.415 -0.4022  0.0700  0.1328
 6089W        W 9608   4.183   2.291   0.379 -0.0501 -0.0643 -0.1447
 6090W        W 9609   8.787   8.097   0.356  0.0843  0.1981 -0.0165
 6091W        W 9610   4.330   2.295   9.824  0.0418 -0.1664 -0.3925
 6092W        W 9611   6.414   1.470   2.772 -0.1978  0.0174 -0.1554
 6093W        W 9612   6.446   9.662  11.209  0.2470 -0.5331 -0.0971
 6094W        W 9613   4.807   4.184   1.982  0.2240  0.1380  0.2865
 6095W        W 9614   5.963   6.271  10.229  0.0873 -0.2314 -0.0770
 6096W        W 9615   9.234   3.071   9.284  0.2022  0.2898 -0.0572
 6097W        W 9616   9.422   5.789  10.882  0.2103  0.0456 -0.3018
 6098W        W 9617   7.157   5.469   4.456  0.1222 -0.0648  0.1951
 6099W        W 9618   0.699   8.264   3.739  0.0486 -0.1114 -0.3230
 6100W        W 9619   8.483   1.872  11.735  0.1983 -0.2155 -0.0802
 6101W        W 9620   6.552   4.939   9.621  0.1265  0.2685 -0.0479
 6102W        W 9621   1.091   6.191  10.879  0.1191 -0.1820  0.1179
 6103W        W 9622   8.531   5.532   4.241 -0.0278 -0.0229  0.2507
 6104W        W 9623   9.147   6.755   9.970 -0.4701 -0.3855  0.1042
 6105W        W 9624   5.314   5.169   0.554  0.0473 -0.0584  0.0538
 6106W        W 9625   7.174   0.039   8.390  0.3853  0.2470 -0.0234
 6107W        W 9626   4.683   5.640   9.292  0.2709  0.2375  0.0094
 6108W        W 9627   6.970   2.273   4.038  0.1067 -0.0033  0.0511
 6109W        W 9628   3.317   7.432   1.477  0.1570 -0.2605 -0.1164
 6110W        W 9629   2.216   2.895   0.517  0.2304  0.1053 -0.0401
 6111W        W 9630   0.437   2.787  10.767 -0.0296 -0.1433  0.0420
 6112W        W 9631   0.962   4.682   2.132 -0.1950 -0.1577  0.0064
 6113W        W 9632   3.806   0.122   9.490  0.0170  0.0494  0.2040
 6114W        W 9633   2.819   4.730   8.710  0.1277 -0.3493  0.1760
 6115W        W 9634   6.043   0.299   8.809  0.0466 -0.2184  0.0177
 6116W        W 9635   0.737   4.007   9.584  0.1263 -0.3307 -0.0447
 6117W        W 9636   2.819   6.867   1.056 -0.0316 -0.0798  0.0725
 6118W        W 9637   4.917   5.172  10.013 -0.1540  0.0308  0.0174
 6119W        W 9638   5.082   8.445  11.966 -0.0006  0.2880 -0.2702
 6120W        W 9639   4.370   3.201   0.881 -0.2462  0.2493 -0.1358
 6121W        W 9640   0.294   9.116   1.439 -0.4397 -0.0802  0.0213
 6122W        W 9641   9.204   7.939   0.124  0.2610  0.0996 -0.2437
 6123W        W 9642   3.871   5.835  11.364  0.3251 -0.1332 -0.1033
 6124W        W 9643   4.019   8.319   1.293 -0.0832 -0.2142 -0.1643
 6125W        W 9644   0.147   7.205   4.487  0.0806 -0.0651 -0.2176
 6126W        W 9645   9.074   5.282  11.665  0.1661 -0.1794  0.0644
 6127W        W 9646   1.134   6.239   3.779 -0.3051 -0.0750  0.2365
 6128W        W 9647   7.503   0.907   1.562  0.0595 -0.0084 -0.0132
 6129W        W 9648   7.855   6.347   3.902 -0.1886  0.3799  0.1293
 6130W        W 9649   9.470   1.066   4.029 -0.3233 -0.1851  0.0788
 6131W        W 9650   9.574   8.842   9.777  0.1127  0.1344 -0.1452
 6132W        W 9651   2.441   3.762   2.564 -0.0033  0.1065  0.2489
 6133W        W 9652   5.533   8.488   0.946  0.1547 -0.1404  0.1513
 6134W        W 9653   1.265   1.421   0.763  0.0085  0.0569  0.1649
 6135W        W 9654   2.700   9.263   8.584  0.2946 -0.3832  0.2931
 6136W        W 9655   0.595   9.600   2.033 -0.1697  0.1186 -0.0591
 6137W        W 9656   9.389   0.138  12.364 -0.1069  0.1596 -0.0826
 6138W        W 9657   1.347   2.738   9.334 -0.1933 -0.2924  0.0488
 6139W        W 9658   2.115   2.015   0.381 -0.1244  0.3144  0.1344
 6140W        W 9659   2.242   6.123   9.262  0.0202  0.3457 -0.0650
 6141W        W 9660   7.312   1.837   1.552 -0.4367  0.1297 -0.0702
 6142W        W 9661   0.132   8.371  12.059  0.0218  0.0231 -0.0953
 6143W        W 9662   7.642   3.692  11.909 -0.1663 -0.2094  0.3469
 6144W        W 9663   5.289   3.264   8.691  0.0861 -0.2308 -0.1616
 6145W        W 9664   4.464   0.350   2.230  0.3115 -0.1105  0.2836
 6146W        W 9665   0.291   8.741   2.515 -0.0618  0.0431 -0.2287
 6147W        W 9666   1.771   3.348   0.080 -0.0735 -0.0419  0.0014
 6148W        W 9667   8.880   1.162  10.637 -0.1819  0.1094  0.0679
 6149W        W 9668   3.278   4.157   3.437 -0.0771 -0.0118  0.0252
 6150W        W 9669   3.087   2.848  11.286  0.3654  0.2859  0.2877
 6151W        W 9670   7.493   9.630   8.805 -0.1891  0.1388  0.1522
 6152W        W 9671   4.713   5.367  11.952 -0.1879  0.2248 -0.0221
 6153W        W 9672   7.647   2.116   1.305 -0.1456  0.0147  0.1223
 6154W        W 9673   7.157   8.379   9.368  0.3219 -0.0615 -0.3567
 6155W        W 9674   4.080   4.915  12.227  0.0460 -0.2174 -0.1420
 6156W        W 9675   4.299   2.634   3.002 -0.0245 -0.0816 -0.2564
 6157W        W 9676   6.340   1.222   4.262  0.0640  0.0336  0.3187
 6158W        W 9677   0.293   3.192   3.013 -0.2075  0.0094 -0.1207
 6159W        W 9678   1.327   8.633   2.518  0.1201  0.1401  0.1770
 6160W        W 9679   8.735   4.012   8.994  0.2702  0.1358  0.0160
 6161W        W 9680   4.979   8.500   0.180  0.2360 -0.1461  0.1893
 6162W        W 9681   0.680   0.672   9.802  0.1149 -0.0905  0.1574
 6163W        W 9682   7.421   2.665   8.985 -0.1541  0.0649 -0.0988
 6164W        W 9683   0.744   1.168   9.697 -0.0986  0.3691  0.1679
 6165W        W 9684   0.535   6.526   1.370 -0.0131 -0.3246 -0.1447
 6166W        W 9685   8.291   9.092   0.510 -0.1876 -0.0895  0.0293
 6167W        W 9686   2.327   6.445   1.795 -0.1202 -0.2243  0.0535
 6168W        W 9687   8.661   6.577   0.219 -0.0636  0.1449 -0.2132
 6169W        W 9688   1.260   4.357  11.287 -0.2418 -0.0411 -0.3512
 6170W        W 9689   5.032   3.719  12.407 -0.0649 -0.2929 -0.0308
 6171W        W 9690   5.260   3.100   9.161  0.0121  0.1796 -0.2542
 6172W        W 9691   8.888   1.008  11.616 -0.2006 -0.1573  0.0364
 6173W        W 9692   2.617   6.912   9.105 -0.3382 -0.1764 -0.0029
 6174W        W 9693   3.228   5.062  11.927 -0.1566  0.0376  0.0770
 6175W        W 9694   9.098   0.994  12.054  0.2174  0.1046 -0.0138
 6176W        W 9695   6.098   1.619   4.060  0.0206  0.1461  0.0258
 6177W        W 9696   2.430   3.119   9.737  0.2456  0.1456  0.0525
 6178W        W 9697   1.349   7.094  10.553  0.0734 -0.1072 -0.2829
 6179W        W 9698   3.248   1.060   1.110  0.3110 -0.1337  0.0796
 6180W        W 9699   2.712   4.716   9.590 -0.0857 -0.2759  0.0643
 6181W        W 9700   9.513   8.828   9.005  0.1325  0.1148  0.1302
 6182W        W 9701   4.974   1.068   0.336  0.0755 -0.0911  0.3610
 6183W        W 9702   2.418   9.404   3.783  0.2342  0.0271 -0.0803
 6184W        W 9703   0.180   4.570  10.084 -0.0364 -0.1833 -0.4221
 6185W        W 9704   7.805   8.832   0.630  0.0906  0.0183  0.1235
 6186W        W 9705   0.997   5.695  10.708  0.2403  0.0560  0.3077
 6187W        W 9706   7.350   4.717  10.845  0.2668 -0.2175 -0.1663
 6188W        W 9707   6.213   7.104   1.875  0.0052 -0.1313  0.0968
 6189W        W 9708   3.997   9.347   3.384  0.1391  0.1774  0.4728
 6190W        W 9709   5.824   3.341   2.708 -0.0079 -0.5220  0.1321
 6191W        W 9710   3.000   9.210  10.906  0.4438  0.0700  0.0401
 6192W        W 9711   4.493   4.561  12.190  0.2583 -0.2085 -0.1182
 6193W        W 9712   5.188   2.808   3.133  0.1165  0.0963 -0.0080
 6194W        W 9713   5.491   7.488   9.445 -0.0089 -0.2841  0.1030
 6195W        W 9714   8.347   6.404   4.248 -0.2109 -0.1013  0.3856
 6196W        W 9715   8.422   1.892   8.682 -0.0646 -0.1561 -0.1704
 6197W        W 9716   0.466   7.357  11.980  0.1447  0.1500 -0.1609
 6198W        W 9717   0.535   0.905   0.458 -0.0441 -0.2247 -0.2177
 6199W        W 9718   4.358   7.824  10.676 -0.1073  0.0030 -0.2131
 6200W        W 9719   1.584   7.801  11.701  0.1107 -0.2327  0.0286
 6201W        W 9720   8.186   6.334  11.281  0.1775  0.1351 -0.0732
 6202W        W 9721   1.042   0.025   1.717 -0.0752 -0.2009 -0.0705
 6203W        W 9722   9.508   6.232  10.513  0.0886  0.2995  0.1190
 6204W        W 9723   7.158   3.480   3.262 -0.1774  0.3160  0.3909
 6205W        W 9724   6.434   1.728   1.361  0.0287  0.0472  0.1147
 6206W        W 9725   1.586   6.399   0.529 -0.0858 -0.1751  0.0659
 6207W        W 9726   9.248   0.772   2.371 -0.1165  0.3175 -0.0116
 6208W        W 9727   0.603   6.280  11.983 -0.0471  0.0242  0.0400
 6209W        W 9728   4.910   6.036   1.480 -0.0842 -0.0579 -0.0486
 6210W        W 9729   4.414   3.029   3.889  0.1677  0.2289  0.0354
 6211W        W 9730   7.320   9.126   2.930  0.2045 -0.0036 -0.3190
 6212W        W 9731   0.742   3.390   1.393  0.1773 -0.1036  0.0850
 6213W        W 9732   7.770   4.380  10.730 -0.1390  0.0284 -0.4452
 6214W        W 9733   2.510   7.072  11.895  0.0794 -0.1610 -0.3157
 6215W        W 9734   5.186   7.170   1.900  0.0649  0.0462 -0.0011
 6216W        W 9735   5.088   4.107   0.674  0.1089  0.1331 -0.1209
 6217W        W 9736   9.623   1.641  10.730 -0.3499 -0.2352 -0.1715
 6218W        W 9737   0.963   1.066   7.940 -0.0328  0.0857  0.0260
 6219W        W 9738   5.341   0.390   1.238  0.0165 -0.1112 -0.0409
 6220W        W 9739   0.862   0.373  10.165  0.3939  0.0644 -0.1863
 6221W        W 9740   0.916   7.811   2.275 -0.2585 -0.0134 -0.2471
 6222W        W 9741   6.782   3.254  12.061  0.0442 -0.0704  0.3198
 6223W        W 9742   6.449   4.791   1.472 -0.4360 -0.0280 -0.1621
 6224W        W 9743   7.581   1.317   3.557  0.0952  0.5112  0.2485
 6225W        W 9744   0.747   2.132   9.524  0.0536  0.0373 -0.4557
 6226W        W 9745   6.072   5.087   9.467 -0.0711  0.2657  0.0480
 6227W        W 9746   8.162   2.819   7.863 -0.1109 -0.3288  0.0948
 6228W        W 9747   6.784   1.809  10.326  0.3150 -0.1921  0.1756
 6229W        W 9748   8.238   7.478   0.487  0.0305  0.3473 -0.0745
 6230W        W 9749   4.801   4.344  10.450  0.1132  0.1258  0.2260
 6231W        W 9750   5.858   7.321   0.124  0.1407 -0.1152 -0.3063
 6232W        W 9751   3.525   7.501  12.444 -0.1312  0.2266 -0.0032
 6233W        W 9752   6.302   4.582   2.870  0.0802 -0.0784 -0.1843
 6234W        W 9753   5.168   6.519   0.466 -0.2211 -0.0178  0.0946
 6235W        W 9754   2.908   2.696  10.831  0.1503  0.1229 -0.4768
 6236W        W 9755   8.625   6.804  12.075  0.0143  0.3049  0.2484
 6237W        W 9756   9.014   2.356  10.433 -0.2549  0.1475 -0.2248
 6238W        W 9757   5.329   2.121   3.729  0.3127  0.0002  0.2023
 6239W        W 9758   8.303   4.692   8.859  0.2302 -0.1279 -0.2210
 6240W        W 9759   1.038   6.960   0.607 -0.3586 -0.1234 -0.1480
 6241W        W 9760   0.363   7.970   8.795  0.0072  0.0500  0.1906
 6242W        W 9761   5.348   1.347  10.609 -0.2857  0.0125 -0.0743
 6243W        W 9762   0.982   6.917  10.242  0.2015 -0.0407 -0.3887
 6244W        W 9763   8.682   5.970   2.092  0.0521  0.0753  0.0959
 6245W        W 9764   5.989   9.035  10.080  0.1877  0.0596 -0.0929
 6246W        W 9765   0.875   0.035   3.243  0.1539  0.0074 -0.1357
 6247W        W 9766   0.669   2.747   0.147  0.3441  0.1544  0.0673
 6248W        W 9767   6.596   3.989   8.197 -0.1483  0.1109  0.1814
 6249W        W 9768   1.242   4.677   8.199 -0.0582  0.0959  0.3772
 6250W        W 9769   3.196   5.715   9.473 -0.1852  0.1370 -0.0292
 6251W        W 9770   1.938   8.646   3.989  0.3285 -0.0863  0.0340
 6252W        W 9771   5.839   1.372  10.705  0.1712  0.1208 -0.2124
 6253W        W 9772   6.869   0.192  12.513 -0.1365  0.0314 -0.3581
 6254W        W 9773   9.425   3.773  10.523 -0.0443 -0.2262  0.0838
 6255W        W 9774   2.198   7.484  10.922  0.1284 -0.0298 -0.3596
 6256W        W 9775   9.272   1.306  11.639 -0.1668 -0.0709  0.0821
 6257W        W 9776   1.975   2.303   1.350 -0.0183  0.2576  0.0022
 6258W        W 9777   8.026   7.422   8.381 -0.0499 -0.0220  0.0208
 6259W        W 9778   4.653   8.500   0.649 -0.2199  0.0057  0.2933
 6260W        W 9779   8.390   5.314   0.861 -0.2212 -0.0307  0.0962
 6261W        W 9780   5.836   7.592  12.293 -0.3459 -0.2057 -0.0844
 6262W        W 9781   7.658   1.743   8.677 -0.0851 -0.0953  0.0636
 6263W        W 9782   4.459   8.668  11.859  0.0411 -0.3021 -0.2684
 6264W        W 9783   4.592   4.078   9.373  0.1207  0.0066  0.3435
 6265W        W 9784   9.368   8.271   2.407 -0.2191  0.0416  0.0917
 6266W        W 9785   4.295   2.600   8.922  0.1399  0.1342  0.1462
 6267W        W 9786   1.326   6.674   3.333  0.0468  0.2852  0.2126
 6268W        W 9787   0.961   6.259   1.082  0.3054  0.2990  0.0050
 6269W        W 9788   8.514   4.032   2.380  0.0413 -0.0208  0.2288
 6270W        W 9789   4.231   3.714   9.389 -0.0325  0.1644 -0.0221
 6271W        W 9790   0.636   1.894   1.199 -0.0786  0.4828 -0.0266
 6272W        W 9791   5.525   4.113  12.412 -0.2477  0.0442 -0.0873
 6273W        W 9792   2.841   7.686  11.608 -0.0357  0.1794 -0.2535
 6274W        W 9793   5.800   7.923   2.226 -0.1131  0.2222  0.0588
 6275W        W 9794   5.463   9.229   1.537 -0.0333 -0.1849 -0.0292
 6276W        W 9795   2.469   2.841   8.821 -0.0945 -0.1137  0.1074
 6277W        W 9796   9.442   2.194  10.958  0.0744 -0.1817 -0.0509
 6278W        W 9797   1.644   6.380  11.034  0.0685 -0.4121  0.0624
 6279W        W 9798   7.182   5.010   0.764  0.3559 -0.1083  0.0538
 6280W        W 9799   4.750   8.877  10.684 -0.0398 -0.1359  0.2533
 6281W        W 9800   3.713   0.961   9.463 -0.1060  0.0704 -0.0898
 6282W        W 9801   8.297   2.436  12.539 -0.0648  0.0098 -0.1123
 6283W        W 9802   1.477   1.335  11.714 -0.0792 -0.1297  0.0340
 6284W        W 9803   3.557   5.834   0.150  0.1566  0.1711 -0.1041
 6285W        W 9804   6.708   6.518   3.314 -0.2110 -0.0567  0.1117
 6286W        W 9805   5.467   5.103  10.710 -0.2861  0.4126  0.0898
 6287W        W 9806   4.396   3.863   1.797 -0.2436  0.0354  0.0225
 6288W        W 9807   0.445   4.191   1.783 -0.2874  0.0440 -0.0041
 6289W        W 9808   6.813   5.979   3.498 -0.1439  0.1589  0.2029
 6290W        W 9809   4.321   0.531  11.541  0.0722 -0.2790  0.2458
 6291W        W 9810   3.919   3.380   8.538 -0.2273  0.2417 -0.1033
 6292W        W 9811   6.587   5.003   0.463  0.0612 -0.1633  0.0896
 6293W        W 9812   4.018   3.808   3.316  0.0669 -0.2420  0.1864
 6294W        W 9813   2.496   2.675   0.943 -0.0672  0.0841 -0.2448
 6295W        W 9814   2.810   8.661   9.633 -0.1253 -0.4647  0.2897
 6296W        W 9815   7.554   1.657  11.549  0.1811 -0.0482  0.0475
 6297W        W 9816   7.182   8.096  11.408  0.0857  0.0275  0.2159
 6298W        W 9817   6.033   4.950   2.462  0.0526 -0.0514  0.2573
 6299W        W 9818   7.253   1.066  10.302 -0.1729 -0.3994  0.0516
 6300W        W 9819   6.483   1.058   0.101  0.3634  0.1319  0.3605
 6301W        W 9820   3.334   7.340  11.575  0.0308  0.3597 -0.1401
 6302W        W 9821   7.243   2.505  11.634 -0.0185  0.4146 -0.0575
 6303W        W 9822   2.351   7.183   1.185  0.0617 -0.0155  0.0760
 6304W        W 9823   1.882   0.314  11.394 -0.1915  0.1379  0.2306
 6305W        W 9824   0.471   4.481   8.930 -0.0460 -0.1895 -0.1835
 6306W        W 9825   8.329   3.828  11.385 -0.2113 -0.2603  0.2953
 6307W        W 9826   7.718   4.779   1.991  0.4731 -0.2672 -0.1090
 6308W        W 9827   7.906   8.228   1.177  0.0865  0.0419 -0.0606
 6309W        W 9828   1.892   5.956   3.973 -0.0286 -0.0662 -0.0663
 6310W        W 9829   3.896   1.100   9.972 -0.1679 -0.2593  0.0976
 6311W        W 9830   5.102   6.794   1.550  0.0711  0.2067 -0.2176
 6312W        W 9831   9.438   7.068  11.051 -0.0057  0.2206  0.2110
 6313W        W 9832   1.950   6.577   0.766 -0.2801  0.3147 -0.0289
 6314W        W 9833   0.788   6.003   9.470  0.0751 -0.2254  0.1611
 6315W        W 9834   5.351   4.938  10.184 -0.0404  0.0056 -0.2080
 6316W        W 9835   3.509   2.655   2.165  0.1540 -0.1427 -0.4326
 6317W        W 9836   8.693   3.852   1.172  0.1203 -0.0462  0.0732
 6318W        W 9837   2.972   6.617  11.785 -0.2758  0.0256  0.0024
 6319W        W 9838   3.687   8.933   8.672  0.0347 -0.0480 -0.0135
 6320W        W 9839   6.606   3.045   2.000 -0.1804 -0.5538  0.1079
 6321W        W 9840   5.685   4.416   1.812  0.0266  0.3847 -0.2136
 6322W        W 9841   9.677   8.617   2.147 -0.0068 -0.2463  0.1163
 6323W        W 9842   0.942   1.371  11.800 -0.2442 -0.1490 -0.1024
 6324W        W 9843   0.087   7.217  10.316  0.1546  0.1712  0.0569
 6325W        W 9844   6.131   0.493   1.334  0.5097 -0.4150 -0.2368
 6326W        W 9845   9.628   7.536   1.509 -0.0410  0.0354  0.0596
 6327W        W 9846   0.184   3.719  10.792  0.0513 -0.0023 -0.3376
 6328W        W 9847   2.906   7.232   3.420 -0.1445  0.0619  0.0693
 6329W        W 9848   0.444   4.682   0.756 -0.0007  0.2963 -0.0478
 6330W        W 9849   9.646   8.212  12.500  0.1713 -0.0286 -0.1010
 6331W        W 9850   0.832   4.450   7.913 -0.5415  0.1000  0.1833
 6332W        W 9851   0.677   4.830  10.291  0.1449 -0.7250  0.2993
 6333W        W 9852   0.298   8.697  11.690  0.1271  0.0596 -0.0475
 6334W        W 9853   3.385   1.189  11.692  0.0372  0.2966  0.1167
 6335W        W 9854   6.666   4.601   3.180 -0.1504  0.3654 -0.0818
 6336W        W 9855   9.463   3.759   9.536  0.2868  0.0626 -0.0153
 6337W        W 9856   4.456   1.217   1.992 -0.0090  0.3985 -0.0990
 6338W        W 9857   2.461   7.050   3.524 -0.2239 -0.0628  0.0501
 6339W        W 9858   1.240   5.391   0.515  0.1963 -0.1212  0.0081
 6340W        W 9859   9.177   5.307   0.214  0.1933 -0.4766 -0.0090
 6341W        W 9860   2.287   5.067   1.074  0.0496  0.0698 -0.0770
 6342W        W 9861   6.282   2.025  12.429 -0.1842 -0.1644 -0.1615
 6343W        W 9862   4.782   5.180   1.329 -0.0894  0.0647 -0.1527
 6344W        W 9863   8.145   1.410   4.082  0.1713  0.0865 -0.1200
 6345W        W 9864   4.655   1.616   1.484 -0.0930  0.1369 -0.0958
 6346W        W 9865   7.751   0.177   0.910 -0.3143 -0.3935 -0.2078
 6347W        W 9866   4.334   3.582   4.110 -0.1589 -0.1328 -0.3518
 6348W        W 9867   0.382   3.399   0.359  0.1259  0.1851 -0.2563
 6349W        W 9868   9.616   1.298   1.132 -0.1124 -0.2787  0.1767
 6350W        W 9869   3.067   5.649   1.152 -0.1198 -0.1034 -0.1655
 6351W        W 9870   7.887   4.772  10.387  0.2718 -0.0343 -0.1549
 6352W        W 9871   0.264   7.884  10.455  0.1826 -0.1841 -0.1944
 6353W        W 9872   6.035   0.815   0.652  0.1191  0.1342  0.1881
 6354W        W 9873   0.527   2.369   1.296  0.0518  0.2145 -0.0764
 6355W        W 9874   0.858   8.252   9.443  0.1367  0.1002 -0.1608
 6356W        W 9875   1.303   5.309  12.606 -0.0657 -0.0542 -0.1823
 6357W        W 9876   2.163   8.197   3.054  0.3998 -0.1152 -0.0815
 6358W        W 9877   3.043   6.321  10.819 -0.2044 -0.1280  0.0102
 6359W        W 9878   0.338   2.705   8.976 -0.0228 -0.0151 -0.0813
 6360W        W 9879   0.503   3.072  11.146  0.3446 -0.3387 -0.0306
 6361W        W 9880   7.951   1.926   3.445 -0.0253  0.0686 -0.0639
 6362W        W 9881   8.085   6.468  10.783  0.1204  0.0432 -0.4207
 6363W        W 9882   1.099   3.907   1.441 -0.0724  0.2988 -0.0553
 6364W        W 9883   8.320   0.590   4.053 -0.3254 -0.0153  0.3739
 6365W        W 9884   7.697   7.590  10.238 -0.1066  0.1339 -0.0588
 6366W        W 9885   5.243   0.068   4.339 -0.2329 -0.1913 -0.1651
 6367W        W 9886   6.599   3.418   9.917 -0.2430 -0.0843  0.2044
 6368W        W 9887   7.426   6.839   0.976 -0.1595 -0.0943  0.0479
 6369W        W 9888   6.486   2.861   9.854  0.1125  0.2015  0.0905
 6370W        W 9889   0.615   5.312   7.883  0.0830 -0.1921  0.2927
 6371W        W 9890   0.612   0.071   0.912  0.0603 -0.1790 -0.0649
 6372W        W 9891   2.116   0.361   1.919 -0.0425  0.1228  0.3467
 6373W        W 9892   8.401   7.053   0.301  0.1764 -0.1127  0.0464
 6374W        W 9893   3.400   9.399   0.040  0.1092 -0.0807 -0.0399
 6375W        W 9894   4.026   1.717  11.846 -0.2700  0.0345 -0.0426
 6376W        W 9895   0.655   0.232  11.739 -0.1683 -0.0827  0.0679
 6377W        W 9896   1.637   2.885   4.109  0.1380  0.3498  0.0044
 6378W        W 9897   3.275   8.149   9.707 -0.1576 -0.2678  0.2156
 6379W        W 9898   0.177   9.119  11.351  0.0615 -0.0600 -0.0963
 6380W        W 9899   3.086   7.295  10.188 -0.0070 -0.0418 -0.4459
 6381W        W 9900   1.485   3.864   3.382 -0.0974  0.2096  0.4370
 6382W        W 9901   1.226   2.256  11.059 -0.0579  0.1594 -0.2599
 6383W        W 9902   6.106   0.991   2.568  0.4356  0.1930 -0.0345
 6384W        W 9903   5.421   4.047   3.200 -0.2292 -0.4420 -0.3664
 6385W        W 9904   6.743   2.348  12.499  0.2613 -0.0123 -0.1490
 6386W        W 9905   1.637   7.624   3.167  0.0024 -0.3172 -0.2078
 6387W        W 9906   4.611   4.313   0.341 -0.2978  0.0100  0.0721
 6388W        W 9907   5.076   1.984   0.584 -0.2027 -0.0187  0.0975
 6389W        W 9908   0.443   7.972   1.311 -0.2141 -0.1062  0.3706
 6390W        W 9909   4.887   2.543  10.820 -0.3956  0.4236 -0.1307
 6391W        W 9910   1.796   6.432  12.585  0.0585  0.3775 -0.2590
 6392W        W 9911   1.474   4.580   0.791  0.4184 -0.1071 -0.0630
 6393W        W 9912   8.765   4.819  11.177  0.0956 -0.0821 -0.0833
 6394W        W 9913   4.211   4.409  11.640 -0.2981 -0.0569  0.0156
 6395W        W 9914   5.993   1.454   8.912 -0.0593  0.1305 -0.0168
 6396W        W 9915   5.360   5.674   0.528  0.4894  0.1959  0.2890
 6397W        W 9916   5.166   6.174  12.102 -0.3034  0.0745 -0.0483
 6398W        W 9917   1.368   8.215   9.792 -0.1734 -0.3637 -0.2707
 6399W        W 9918   2.544   8.768   0.907 -0.1103  0.0301  0.2079
 6400W        W 9919   7.196   0.564   0.211 -0.3044 -0.1151  0.0228
 6401W        W 9920   2.566   4.114   2.091 -0.2648 -0.2454 -0.0170
 6402W        W 9921   5.253   4.275   1.543  0.1077  0.1565  0.0457
 6403W        W 9922   4.805   3.848   2.361 -0.1919  0.0262 -0.1095
 6404W        W 9923   4.335   2.835   4.413 -0.0747 -0.2905 -0.1674
 6405W        W 9924   4.300   5.716  11.548  0.2869  0.0043 -0.3019
 6406W        W 9925   8.277   2.300   9.898  0.1344 -0.1048  0.0430
 6407W        W 9926   6.289   2.577  12.527  0.1382  0.1976  0.1127
 6408W        W 9927   4.181   4.837   8.406 -0.1291  0.1365  0.4588
 6409W        W 9928   1.063   0.362   2.787  0.1032 -0.1560  0.0657
 6410W        W 9929   0.243   7.553   8.545 -0.0184  0.3174  0.1609
 6411W        W 9930   4.240   8.236   2.621  0.0915 -0.2442 -0.2267
 6412W        W 9931   3.147   8.623   8.932  0.0201 -0.0600  0.2326
 6413W        W 9932   9.391   8.450   1.791  0.2368  0.1525  0.0672
 6414W        W 9933   8.958   7.158   0.251 -0.1491  0.2486  0.1177
 6415W        W 9934   5.101   0.836  12.086  0.0405  0.0373 -0.1163
 6416W        W 9935   2.070   2.014   8.700 -0.2190  0.1525 -0.2281
 6417W        W 9936   7.422   0.256   3.502 -0.0938  0.0196  0.1087
 6418W        W 9937   8.180   4.986   8.108  0.0628 -0.0753 -0.1507
 6419W        W 9938   4.203   1.800   1.474 -0.1018  0.0196  0.0272
 6420W        W 9939   3.018   1.100  10.149 -0.2375 -0.1200  0.3868
 6421W        W 9940   2.110   3.383   2.184  0.2235  0.1955 -0.3537
 6422W        W 9941   6.582   3.535   0.353 -0.2865 -0.0293  0.2856
 6423W        W 9942   2.124   0.158   1.402 -0.1811  0.1994 -0.2850
 6424W        W 9943   7.447   5.327   8.483  0.0481  0.2556  0.2950
 6425W        W 9944   4.281   0.796   2.155 -0.1733  0.3467  0.1823
 6426W        W 9945   7.811   7.408   0.679 -0.0030  0.1895 -0.0575
 6427W        W 9946   3.981   0.245   0.376 -0.0264  0.1132 -0.2628
 6428W        W 9947   0.453   0.338  11.018  0.0832  0.0312  0.1272
 6429W        W 9948   1.294   5.040  10.602 -0.0420  0.2569  0.2076
 6430W        W 9949   4.544   0.282  11.915 -0.1977 -0.3829  0.1890
 6431W        W 9950   1.154   4.896   0.549  0.2038 -0.0313  0.0235
 6432W        W 9951   1.366   1.153  10.214  0.1492 -0.1571  0.5274
 6433W        W 9952   7.048   8.591  11.042 -0.1182 -0.0059  0.0000
 6434W        W 9953   7.673   5.524   3.540  0.1952 -0.5758  0.1805
 6435W        W 9954   6.363   3.416   3.096 -0.0834 -0.1392  0.1508
 6436W        W 9955   5.772   5.244  10.275 -0.0006 -0.4083 -0.0405
 6437W        W 9956   1.854   9.038   1.827 -0.4635  0.0509  0.1427
 6438W        W 9957   9.487   0.489   9.019  0.0357 -0.1142 -0.2547
 6439W        W 9958   2.445   5.443   8.135  0.0098  0.1652 -0.1866
 6440W        W 9959   3.601   4.159  11.584 -0.1958  0.2924  0.1499
 6441W        W 9960   4.997   9.330   1.832  0.0118  0.3196  0.2033
 6442W        W 9961   5.015   9.474  11.208  0.1442  0.4174 -0.2035
 6443W        W 9962   9.318   5.212   8.674  0.0771  0.0412 -0.2408
 6444W        W 9963   6.666   0.871  12.251  0.0242 -0.2059  0.1923
 6445W        W 9964   7.995   5.534   3.977  0.2773 -0.0811  0.0193
 6446W        W 9965   5.911   0.040   2.207 -0.1181 -0.1525 -0.1210
 6447W        W 9966   1.435   8.002   4.234  0.1070 -0.3262 -0.0064
 6448W        W 9967   5.045   1.733   3.775 -0.0320  0.0417  0.1505
 6449W        W 9968   3.284   5.406   3.378 -0.2774  0.0424  0.2253
 6450W        W 9969   0.774   2.472   3.037 -0.0535  0.0212 -0.1934
 6451W        W 9970   0.372   6.782   3.713 -0.1146  0.3615  0.0286
 6452W        W 9971   0.940   8.447   1.747 -0.1306 -0.0930  0.1232
 6453W        W 9972   8.368   2.299   3.535 -0.0212  0.1145 -0.2288
 6454W        W 9973   4.754   3.134   8.786 -0.2212  0.0732  0.0780
 6455W        W 9974   0.043   3.336  11.156 -0.0406  0.0074 -0.0613
 6456W        W 9975   4.615   6.802  12.553 -0.0502 -0.3825 -0.0641
 6457W        W 9976   2.374   7.296   2.596 -0.1010  0.0968  0.0769
 6458W        W 9977   6.882   4.127  11.487  0.0573  0.2675 -0.1688
 6459W        W 9978   0.030   3.238   0.045  0.0383 -0.1987 -0.0323
 6460W        W 9979   2.668   6.833   1.570  0.0206  0.1833  0.2311
 6461W        W 9980   0.093   1.967  10.173 -0.1488 -0.3914  0.1428
 6462W        W 9981   3.496   2.809  12.530  0.1094 -0.1771  0.2066
 6463W        W 9982   2.463   6.556   3.511 -0.0103 -0.1923 -0.0958
 6464W        W 9983   3.781   4.542   0.350 -0.2309  0.2685  0.3104
 6465W        W 9984   5.754   6.754  11.109  0.2291  0.1613 -0.0041
 6466W        W 9985   4.697   6.422   0.610 -0.2554 -0.1735 -0.2269
 6467W        W 9986   7.730   7.361   2.861 -0.0840 -0.3502  0.0729
 6468W        W 9987   8.451   9.011   2.757 -0.3174 -0.0358  0.4269
 6469W        W 9988   4.359   8.311  11.525 -0.2815 -0.2711  0.1516
 6470W        W 9989   7.588   8.071   4.087 -0.0024  0.0259 -0.3512
 6471W        W 9990   8.840   2.565   0.836  0.0968 -0.2503  0.1271
 6472W        W 9991   7.185   6.340   3.471 -0.0170 -0.1953  0.1439
 6473W        W 9992   8.975   8.042  12.212  0.1167 -0.0915  0.2986
 6474W        W 9993   5.947   7.602   9.420  0.2408 -0.4625  0.2521
 6475W        W 9994   9.235   0.168   3.739  0.2164  0.0321  0.1866
 6476W        W 9995   6.462   1.984  11.253  0.3240  0.2192 -0.0903
 6477W        W 9996   9.029   6.240   3.622  0.2550  0.0644  0.1488
 6478W        W 9997   3.319   9.331   3.659 -0.0611  0.2680 -0.1548
 6479W        W 9998   8.303   0.957   9.555 -0.1837  0.2807 -0.1018
 6480W        W 9999   4.278   6.189   0.594  0.2573  0.1308 -0.0772
 6481W        W10000   5.012   8.668  11.558 -0.0361 -0.3664  0.0271
 6482W        W10001   1.484   4.204   0.391  0.1925  0.0177  0.0498
 6483W        W10002   0.381   9.597  10.463 -0.0385 -0.2388  0.0982
 6484W        W10003   6.489   2.231   9.892 -0.1334  0.0366 -0.0437
 6485W        W10004   1.458   1.465   9.420  0.1618 -0.4281 -0.0384
 6486W        W10005   7.441   3.463   8.510  0.1626  0.1729  0.1022
 6487W        W10006   3.173   2.767   9.415 -0.0935 -0.0502  0.0967
 6488W        W10007   7.429   0.707   3.067 -0.1028 -0.1148  0.1542
 6489W        W10008   7.367   5.452   9.462  0.0241  0.0795  0.1107
 6490W        W10009   6.016   3.017   9.899  0.3224 -0.1261  0.3028
 6491W        W10010   9.137   0.051   0.454 -0.0834 -0.5240  0.0607
 6492W        W10011   3.647   8.632   2.682 -0.3516 -0.1011  0.1968
 6493W        W10012   7.308   3.504   2.191  0.1024 -0.2345  0.2106
 6494W        W10013   5.415   8.014  12.249  0.0485 -0.4698 -0.0945
 6495W        W10014   8.082   1.079  12.229 -0.0649  0.1834 -0.2716
 6496W        W10015   6.326   7.331   9.633  0.0261  0.4485  0.3242
 6497W        W10016   0.962   4.958   9.681  0.1815 -0.2344  0.0962
 6498W        W10017   7.500   3.833   0.622  0.0503  0.0010  0.0519
 6499W        W10018   3.684   1.588   4.221  0.1923 -0.0098 -0.1071
 6500W        W10019   5.776   2.597   3.905  0.2330  0.1687  0.0395
 6501W        W10020   3.594   7.289   8.820 -0.0464 -0.2600 -0.0420
 6502W        W10021   8.929   0.367   2.250  0.2702  0.0285  0.1090
 6503W        W10022   6.216   0.692  12.495 -0.0167 -0.3789  0.1501
 6504W        W10023   3.156   6.313  11.364 -0.1414  0.4277  0.3773
 6505W        W10024   7.790   6.876  10.364 -0.0633  0.0822  0.0293
 6506W        W10025   1.343   8.646   0.431 -0.0658  0.0600 -0.3111
 6507W        W10026   0.883   4.038   3.707  0.0732 -0.2390  0.2755
 6508W        W10027   1.534   0.058   8.903  0.3232 -0.1774  0.2309
 6509W        W10028   6.879   7.316   1.386 -0.3852 -0.0875  0.0965
 6510W        W10029   7.683   0.978   1.031  0.0696 -0.0720  0.0374
 6511W        W10030   5.239   9.193  11.543 -0.0097  0.2285  0.0489
 6512W        W10031   9.481   4.407   9.592 -0.2987 -0.2380  0.0358
 6513W        W10032   5.982   6.648   1.994  0.0039  0.1689 -0.0784
 6514W        W10033   3.466   0.938   3.876  0.1158  0.0822 -0.0062
 6515W        W10034   6.832   6.358  10.410 -0.0860  0.2406 -0.1214
 6516W        W10035   1.762   4.142  10.056  0.0523 -0.0319  0.2934
 6517W        W10036   4.617   8.303   9.442  0.0949  0.2042  0.2425
 6518W        W10037   9.368   1.976   3.979  0.1630  0.2389  0.2044
 6519W        W10038   5.943   0.139  12.353 -0.0238  0.1106 -0.1065
 6520W        W10039   6.421   4.678  12.064 -0.4858 -0.2454 -0.1673
 6521W        W10040   2.293   6.379  11.521 -0.1638  0.2188 -0.0277
 6522W        W10041   2.361   5.086   9.432 -0.4724  0.3008 -0.1231
 6523W        W10042   5.801   4.999   1.614 -0.0869 -0.0270  0.1380
 6524W        W10043   0.588   7.644  10.748 -0.0747  0.1428 -0.1548
 6525W        W10044   4.469   7.424   3.869 -0.1200  0.0985 -0.0415
 6526W        W10045   3.903   0.299   1.262 -0.0757  0.0430 -0.1042
 6527W        W10046   9.440   8.902   2.550  0.2101  0.2347  0.0079
 6528W        W10047   2.594   2.469   4.296  0.6419 -0.0993  0.1568
 6529W        W10048   1.916   0.350   2.440  0.1268 -0.0204  0.2371
 6530W        W10049   1.982   1.992   1.734 -0.0482 -0.5506  0.2408
 6531W        W10050   8.740   6.523   2.396 -0.0714 -0.0457 -0.1512
 6532W        W10051   9.605   1.667   9.760 -0.1660 -0.3279 -0.0289
 6533W        W10052   1.071   1.763  12.167 -0.0490 -0.1711  0.1882
 6534W        W10053   2.209   6.780   8.494 -0.2036  0.1623 -0.0423
 6535W        W10054   6.490   3.070   2.655  0.4056  0.0644 -0.3746
 6536W        W10055   6.352   1.760   3.628  0.0855 -0.0153  0.0002
 6537W        W10056   6.934   1.712   3.661  0.1824 -0.2144  0.0285
 6538W        W10057   4.973   3.050   8.326  0.2667  0.1520  0.0493
 6539W        W10058   4.846   0.664  11.714 -0.1459  0.2100  0.3875
 6540W        W10059   2.832   2.486   9.094  0.0403  0.2025 -0.1316
 6541W        W10060   6.847   7.944   2.598  0.0513  0.0687 -0.3033
 6542W        W10061   2.407   6.265   3.058  0.1534 -0.2309 -0.1467
 6543W        W10062   3.918   4.582   2.366 -0.0053 -0.2283 -0.3316
 6544W        W10063   8.253   6.409   4.758  0.3190  0.2839  0.2480
 6545W        W10064   1.643   6.397   3.758  0.3304 -0.1225  0.1929
 6546W        W10065   1.201   2.298   0.158 -0.0674  0.0327 -0.0443
 6547W        W10066   8.989   4.289   8.681  0.0098 -0.1142  0.0370
 6548W        W10067   2.409   2.445  11.793  0.3543 -0.0635  0.4418
 6549W        W10068   9.244   8.882  10.173 -0.0646  0.1961 -0.1758
 6550W        W10069   3.047   5.863   0.050 -0.4273 -0.1632 -0.0119
 6551W        W10070   2.704   1.996  11.893  0.0776  0.2324  0.1369
 6552W        W10071   1.294   3.121  10.423 -0.0451  0.1013 -0.2547
 6553W        W10072   5.906   8.072   9.464 -0.2098 -0.1609 -0.2507
 6554W        W10073   7.306   4.583   1.161 -0.0435  0.0302 -0.2538
 6555W        W10074   0.355   1.149  11.612 -0.1256  0.0160 -0.1974
 6556W        W10075   5.180   4.966   2.220 -0.1356  0.0651 -0.0942
 6557W        W10076   6.649   0.180   0.331 -0.0988 -0.3049 -0.3406
 6558W        W10077   3.344   9.537   9.599  0.3335  0.0352  0.1082
 6559W        W10078   8.237   0.945  10.740 -0.2154  0.1278 -0.0448
 6560W        W10079   0.808   4.122   2.263  0.1023 -0.0558 -0.0745
 6561W        W10080   3.988   6.067   9.853 -0.1999 -0.4546  0.1778
 6562W        W10081   7.291   3.834   8.892  0.1902  0.1712 -0.0510
 6563W        W10082   2.538   1.888   0.663 -0.0094  0.0886  0.3433
 6564W        W10083   1.591   8.607   3.569  0.1330  0.0947  0.0197
 6565W        W10084   4.549   6.138   9.194  0.1382 -0.0221 -0.3063
 6566W        W10085   6.202   6.757  10.929 -0.1558 -0.1038  0.1982
 6567W        W10086   7.594   4.961   0.242  0.0663 -0.0468  0.1694
 6568W        W10087   1.757   5.734   9.405  0.1487 -0.1058  0.0229
 6569W        W10088   3.874   1.465  10.545  0.1877 -0.2794 -0.1098
 6570W        W10089   8.719   6.648   9.628  0.1709  0.0776  0.1153
 6571W        W10090   0.027   6.655   8.773 -0.2300 -0.0943  0.0255
 6572W        W10091   7.843   1.202   1.858 -0.2422 -0.0297 -0.2179
 6573W        W10092   8.971   3.021   0.640  0.3161 -0.0392 -0.2193
 6574W        W10093   1.624   2.579  12.575  0.2381 -0.1631 -0.2016
 6575W        W10094   1.256   0.363   8.482  0.2041  0.3588 -0.0947
 6576W        W10095   9.253   5.529   9.114  0.3451  0.0793 -0.1290
 6577W        W10096   0.900   1.024   3.291 -0.0983 -0.1748 -0.0141
 6578W        W10097   5.422   7.341   9.888 -0.3588 -0.0379  0.1306
 6579W        W10098   1.999   1.050   9.118  0.1936  0.0861 -0.0803
 6580W        W10099   1.245   3.578   9.516 -0.0372  0.1472 -0.0161
 6581W        W10100   3.547   2.928   3.851  0.2270  0.5091 -0.1464
 6582W        W10101   6.809   8.855   2.034  0.1287  0.3254 -0.1369
 6583W        W10102   4.824   1.528  10.115 -0.4533  0.0371 -0.0283
 6584W        W10103   4.399   0.490   1.142 -0.2125  0.1211  0.3142
 6585W        W10104   0.715   2.652   9.388 -0.0045  0.2503  0.1669
 6586W        W10105   3.604   8.582  10.294  0.0438 -0.0077  0.1629
 6587W        W10106   4.091   7.342   3.489  0.1006 -0.0516 -0.1055
 6588W        W10107   7.720   8.517   0.231  0.0889 -0.1270 -0.0904
 6589W        W10108   7.912   8.274   2.887  0.0093 -0.3428 -0.4100
 6590W        W10109   1.217   3.711   2.958  0.0158 -0.0673  0.0300
 6591W        W10110   7.442   1.926   4.689  0.0637 -0.1278  0.0764
 6592W        W10111   8.942   7.428   3.514  0.1040 -0.1888 -0.1255
 6593W        W10112   7.823   6.227   0.458  0.0535  0.0315  0.1026
 6594W        W10113   4.755   2.318   0.420  0.1773  0.1227  0.1062
 6595W        W10114   3.014   9.110  11.577  0.0339 -0.0266  0.0729
 6596W        W10115   4.618   8.388   8.885  0.1533  0.2805  0.0962
 6597W        W10116   6.440   2.802  11.668  0.0134  0.0200  0.2298
 6598W        W10117   7.866   1.791  11.133 -0.1007 -0.0146  0.0537
 6599W        W10118   8.082   2.409   1.400 -0.0264 -0.0252 -0.1740
 6600W        W10119   3.755   4.036   8.250  0.2431 -0.3077 -0.2306
 6601W        W10120   7.411   0.195  12.455  0.1605  0.2753 -0.2302
 6602W        W10121   3.156   7.283   9.194  0.0028 -0.0341  0.1597
 6603W        W10122   3.771   3.239   2.580  0.1946  0.0340 -0.1467
 6604W        W10123   5.361   6.474   9.430 -0.1446  0.1152  0.1909
 6605W        W10124   0.151   8.351  10.763 -0.1517 -0.1752 -0.1001
 6606W        W10125   1.823   9.627   2.097 -0.2196  0.2877 -0.0048
 6607W        W10126   4.724   0.469   9.663  0.2876  0.0167  0.1672
 6608W        W10127   5.205   3.530  11.717  0.0574  0.0783  0.0451
 6609W        W10128   9.223   2.772   2.177 -0.2330 -0.0766 -0.1537
 6610W        W10129   3.155   2.228   9.499  0.1030 -0.1037 -0.1207
 6611W        W10130   3.300   1.154   9.689 -0.1146  0.1070  0.0823
 6612W        W10131   5.015   6.915  10.684 -0.3029  0.1377  0.3136
 6613W        W10132   5.876   5.588   9.596 -0.1204  0.0693  0.2766
 6614W        W10133   5.983   0.397   3.935  0.2559  0.0247 -0.2273
 6615W        W10134   5.127   9.221   0.743  0.4137  0.1761  0.1600
 6616W        W10135   8.813   8.433   1.747  0.2847 -0.2069  0.5361
 6617W        W10136   8.939   0.672   0.327 -0.3516  0.0771  0.2147
 6618W        W10137   3.755   5.616  10.816 -0.2826 -0.3725  0.0476
 6619W        W10138   5.231   8.956  10.314  0.1577 -0.0717  0.0504
 6620W        W10139   2.143   3.390   2.748 -0.0176  0.3267 -0.1966
 6621W        W10140   1.073   2.002   2.195 -0.1054  0.0519  0.4058
 6622W        W10141   3.955   1.038   1.845  0.3132  0.1290 -0.0248
 6623W        W10142   5.714   4.701   9.441 -0.2117  0.2823 -0.0889
 6624W        W10143   6.879   8.992  10.628  0.2177  0.2586 -0.1584
 6625W        W10144   6.620   6.458   0.025  0.2948 -0.4168  0.1226
 6626W        W10145   1.947   1.975  11.269 -0.1107  0.2062 -0.2913
 6627W        W10146   9.461   5.804   8.753 -0.1751  0.1271  0.2533
 6628W        W10147   1.363   1.696   3.204  0.0603 -0.2320  0.1787
 6629W        W10148   8.321   6.932  10.510 -0.1470 -0.0762  0.1009
 6630W        W10149   2.064   0.041   3.631  0.3917 -0.2184 -0.1808
 6631W        W10150   7.240   8.447   4.019 -0.0739  0.1482  0.0185
 6632W        W10151   2.728   2.230   0.078  0.2087 -0.0064 -0.1866
 6633W        W10152   8.054   0.045   3.859 -0.1463 -0.0032 -0.0538
 6634W        W10153   6.335   8.465  12.341 -0.1253  0.1014 -0.0105
 6635W        W10154   7.955   2.811  12.240 -0.1436  0.1092 -0.2170
 6636W        W10155   1.661   9.082   3.556  0.0105 -0.1502  0.0788
 6637W        W10156   5.452   6.631   1.853  0.0385 -0.1572 -0.3040
 6638W        W10157   5.781   7.854  11.830 -0.1320 -0.2204  0.1743
 6639W        W10158   1.290   2.231   4.633 -0.4408  0.0921  0.0394
 6640W        W10159   4.492   4.640   2.231  0.1658  0.2354  0.1182
 6641W        W10160   1.609   9.356   2.963  0.0295  0.2324  0.2193
 6642W        W10161   7.496   9.244   9.434 -0.0977 -0.2297 -0.1942
 6643W        W10162   2.448   4.836   3.580 -0.1082  0.3280 -0.1511
 6644W        W10163   6.748   8.346  10.602 -0.0631 -0.2012  0.2302
 6645W        W10164   8.941   0.054   9.615  0.2067  0.2761  0.2950
 6646W        W10165   0.023   8.815  10.685  0.1966 -0.1376 -0.0798
 6647W        W10166   1.978   1.538  10.844  0.0142  0.1003  0.2821
 6648W        W10167   6.441   1.234   1.389  0.2371  0.1295 -0.1416
 6649W        W10168   6.960   4.293   3.958  0.2328 -0.3886  0.0998
 6650W        W10169   2.105   2.431   0.121  0.0819 -0.1662 -0.2670
 6651W        W10170   9.317   0.242  11.446  0.0730  0.0350 -0.2711
 6652W        W10171   1.807   9.030   2.670 -0.4040 -0.2029 -0.1009
 6653W        W10172   8.812   8.900   9.832  0.3032 -0.0042  0.0687
 6654W        W10173   3.036   4.447  12.132  0.4019 -0.2049  0.2208
 6655W        W10174   4.076   7.475   0.034  0.0369  0.0436 -0.1094
 6656W        W10175   1.823   7.041   1.182 -0.0535 -0.1501  0.1603
 6657W        W10176   3.545   2.330  10.248 -0.0924 -0.1769 -0.2186
 6658W        W10177   8.548   1.023  12.176 -0.4164  0.0399 -0.2479
 6659W        W10178   5.759   0.889  11.930  0.0846  0.0848 -0.3110
 6660W        W10179   6.914   9.193   4.455 -0.1254 -0.1380 -0.1270
 6661W        W10180   6.229   2.678  10.685 -0.4494 -0.1071  0.0701
 6662W        W10181   9.514   1.817   0.881  0.2092  0.0651 -0.0683
 6663W        W10182   7.234   2.911  11.938  0.2038 -0.0782 -0.2886
 6664W        W10183   0.653   8.728   2.160  0.0536  0.0762  0.1571
 6665W        W10184   1.762   2.581   3.370  0.0699 -0.0631  0.1843
 6666W        W10185   9.577   5.982   2.705  0.2043  0.2621  0.1031
 6667W        W10186   7.189   9.390   0.151  0.1961 -0.3614  0.3671
 6668W        W10187   1.104   0.754   8.855 -0.1717 -0.0329  0.2204
 6669W        W10188   2.663   8.998  12.381  0.1569 -0.1189  0.1545
 6670W        W10189   3.099   6.939   0.585  0.0777  0.0931 -0.2825
 6671W        W10190   2.379   1.710  10.615  0.3744  0.1363 -0.3463
 6672W        W10191   7.701   9.225   0.966  0.2589  0.2507 -0.1737
 6673W        W10192   7.797   9.539  10.375  0.1293  0.0689  0.1821
 6674W        W10193   1.693   0.549  10.581  0.1711 -0.3021 -0.2047
 6675W        W10194   5.102   7.663  11.507 -0.3612  0.4215  0.0884
 6676W        W10195   0.440   4.408  12.037  0.4106  0.1150 -0.1857
 6677W        W10196   9.531   6.315   9.105  0.0411 -0.0744  0.1321
 6678W        W10197   0.535   0.602   2.007  0.0651  0.0288 -0.1845
 6679W        W10198   9.133   9.364   3.906  0.1150  0.1180 -0.0439
 6680W        W10199   6.789   8.557  12.088  0.4192  0.2765  0.2462
 6681W        W10200   7.752   4.909   1.137  0.0001 -0.0986 -0.0882
 6682W        W10201   7.338   1.286   9.452  0.0485  0.0800 -0.1503
 6683W        W10202   3.236   2.141   8.504 -0.1047 -0.1713  0.1062
 6684W        W10203   5.133   2.261   2.259 -0.2825 -0.3102  0.1152
 6685W        W10204   1.506   5.567   8.528 -0.0727  0.0592  0.1664
 6686W        W10205   4.553   3.160   4.819  0.1638  0.1634  0.1364
 6687W        W10206   0.708   2.591  11.776 -0.0430 -0.3438 -0.0259
 6688W        W10207   4.957   5.978   0.477  0.1279  0.1915 -0.0159
 6689W        W10208   6.954   5.033   3.245  0.0621 -0.2692 -0.0908
 6690W        W10209   6.553   4.214   9.338  0.2077 -0.1378  0.3548
 6691W        W10210   6.405   4.115   2.510  0.2352  0.0481 -0.1146
 6692W        W10211   3.053   0.202   9.883 -0.2156  0.1860 -0.0672
 6693W        W10212   2.815   2.696   1.791 -0.0241  0.1417  0.1519
 6694W        W10213   8.466   4.382   0.930  0.0007 -0.0443  0.0450
 6695W        W10214   8.511   5.993   9.737 -0.1181 -0.2615  0.1829
 6696W        W10215   9.124   6.747   8.641 -0.0338 -0.3987 -0.1582
 6697W        W10216   1.316   2.355   3.699  0.0360  0.0263 -0.1125
 6698W        W10217   0.485   2.374  12.180  0.0579  0.1212 -0.0010
 6699W        W10218   3.535   8.195   8.094 -0.0362  0.1584  0.0932
 6700W        W10219   0.982   1.229   0.292  0.2313 -0.2853  0.0977
 6701W        W10220   9.581   5.811  10.220 -0.0309 -0.2242 -0.0846
 6702W        W10221   5.121   6.974   9.311 -0.2543  0.0417 -0.0790
 6703W        W10222   4.696   6.125   4.018  0.0246  0.5139 -0.0043
 6704W        W10223   0.705   3.373  11.963 -0.0287 -0.0498  0.3008
 6705ION    NA+10224   2.385   2.967   4.588 -0.0019 -0.0360  0.1606
 6706ION    NA+10225   3.801   0.159   4.217  0.1701  0.0793  0.0190
 6707ION    NA+10226   7.703   3.590   4.350  0.0726  0.1683 -0.0715
 6708ION    NA+10227   7.029   9.489   2.711  0.1196  0.2377 -0.0897
 6709ION    NA+10228   5.942   5.810   2.637 -0.2609 -0.1364 -0.0765
 6710ION    NA+10229   4.333   9.478   0.555  0.0679  0.0220 -0.2177
 6711ION    NA+10230   5.288   0.993  12.529  0.1002 -0.2363 -0.2107
 6712ION    NA+10231   3.765   5.467   4.086 -0.0752 -0.0445 -0.2297
 6713ION    NA+10232   5.176   3.999   8.054  0.2748 -0.1668 -0.2011
 6714ION    NA+10233   8.576   0.541   8.135  0.1200  0.0228 -0.1817
 6715ION    NA+10234   1.227   2.751  11.704  0.0346 -0.2595 -0.1007
 6716ION    NA+10235   7.280   2.912   0.340 -0.3678  0.2604 -0.2346
 6717ION    NA+10236   6.240   1.865   2.263 -0.1546  0.0968  0.3004
 6718ION    NA+10237   7.228   1.436   4.653 -0.2487 -0.0826  0.1982
 6719ION    NA+10238   0.954   0.639   0.438  0.2523  0.2810 -0.5612
 6720ION    NA+10239   4.286   9.269   9.280  0.1241 -0.0661  0.3231
 6721ION    NA+10240   3.370   0.429   9.550 -0.0125  0.2334  0.0928
 6722ION    NA+10241   2.060   7.179  11.341  0.0557  0.3459 -0.2532
 6723ION    NA+10242   0.879   9.556  10.345 -0.1052  0.1299  0.0302
 6724ION    NA+10243   8.964   4.035  10.672 -0.2009 -0.1646 -0.0970
 6725ION    NA+10244   1.576   9.033   1.324 -0.1692  0.2673 -0.1006
 6726ION    NA+10245   6.605   5.707   2.157  0.0683 -0.2300 -0.2531
 6727ION    NA+10246   2.145   3.844   1.953  0.1113  0.1300  0.0318
 6728ION    NA+10247   8.219   5.426  11.651 -0.1591 -0.6786  0.1279
 6729ION    NA+10248   9.231   5.782  12.486 -0.0324 -0.2632  0.1282
 6730ION    NA+10249   1.035   7.930   0.273 -0.2091  0.0182 -0.1018
 6731ION    NA+10250   0.251   8.802  10.093  0.5719 -0.1088  0.3550
 6732ION    NA+10251   7.712   6.703   9.074  0.0358 -0.1311 -0.0036
 6733ION    NA+10252   1.046   6.146   7.957 -0.0943 -0.1566 -0.0126
 6734ION    NA+10253   4.871   4.729   1.914  0.1536  0.1039  0.0213
 6735ION    NA+10254   1.855   0.038  10.436 -0.1885 -0.1069 -0.0550
 6736ION    NA+10255   9.521   4.945   9.962 -0.0311  0.4646  0.2372
 6737ION    NA+10256   7.428   4.170   1.485 -0.0828 -0.4283  0.0759
 6738ION    NA+10257   1.547   1.641  10.009 -0.0889 -0.4847 -0.1763
 6739ION    NA+10258   8.236   8.975   2.196 -0.1715  0.1152 -0.1534
 6740ION    NA+10259   3.076   8.513   1.786 -0.0459 -0.0162 -0.0894
 6741ION    NA+10260   7.837   3.469  10.270 -0.4083 -0.2582  0.4680
 6742ION    NA+10261   7.855   4.673   9.830  0.0702 -0.2559 -0.1970
 6743ION    NA+10262   8.544   5.129  12.313 -0.0977 -0.0546  0.1486
 6744ION    NA+10263   7.189   2.407   2.434  0.2406 -0.0394 -0.2038
 6745ION    NA+10264   7.164   4.004   3.184 -0.3256 -0.1939 -0.1528
 6746ION    NA+10265   8.932   9.111   8.088  0.0545 -0.0571 -0.1604
 6747ION    NA+10266   0.807   2.064  11.889  0.2014 -0.0415 -0.0291
 6748ION    NA+10267   5.010   1.258   9.149  0.0313 -0.2000 -0.2360
 6749ION    NA+10268   2.371   2.933  11.568 -0.2385 -0.0210 -0.0734
 6750ION    NA+10269   9.486   2.800  11.823  0.0744  0.1258  0.1239
 6751ION    NA+10270   4.633   5.958   9.706 -0.2742  0.3126  0.2059
 6752ION    NA+10271   1.816   8.505   0.558 -0.0995  0.1131  0.3636
 6753ION    NA+10272   8.863   0.639   1.776  0.2265 -0.0543 -0.0419
 6754ION    NA+10273   7.316   6.344   3.961  0.3234  0.1141  0.0860
 6755ION    NA+10274   6.752   1.771  10.866  0.0253 -0.0265  0.4653
 6756ION    NA+10275   6.400   9.109   1.855 -0.0606  0.2343  0.0259
 6757ION    NA+10276   1.544   6.793   2.832  0.0416  0.2900 -0.1008
 6758ION    NA+10277   7.456   8.727   9.157  0.0518  0.0118  0.1305
 6759ION    NA+10278   1.231   9.086   2.620  0.2254  0.3963 -0.2284
 6760ION    NA+10279   2.302   8.573   4.400 -0.1784 -0.0868  0.0984
 6761ION    NA+10280   6.179   6.586  12.012 -0.0148 -0.1437 -0.1167
 6762ION    NA+10281   6.539   4.449   9.805  0.1008  0.0785  0.0553
 6763ION    NA+10282   4.429   6.918   1.322 -0.1004  0.0886  0.2773
 6764ION    NA+10283   5.950   2.758   8.183  0.4655  0.2223  0.0256
 6765ION    NA+10284   6.530   5.527  11.534 -0.0196 -0.1574 -0.1639
 6766ION    NA+10285   5.449   8.465  10.232 -0.3410 -0.1893  0.2022
 6767ION    NA+10286   7.250   0.923  10.771  0.1548  0.1131  0.0355
 6768ION    NA+10287   7.651   0.016   1.792  0.1667 -0.2191  0.0365
 6769ION    NA+10288   8.850   3.906   0.682 -0.1929 -0.0599  0.0426
 6770ION    NA+10289   2.752   1.151  10.962  0.2708  0.2336 -0.2281
 6771ION    NA+10290   4.226   6.802   2.111 -0.1184 -0.6002  0.0699
 6772ION    NA+10291   0.762   0.897   9.268 -0.2300 -0.2087  0.3476
 6773ION    NA+10292   3.315   6.977   1.087  0.2519  0.0221 -0.2085
 6774ION    NA+10293   3.608   3.463  10.081 -0.0072  0.1680 -0.0498
 6775ION    NA+10294   9.679   0.045  11.086 -0.1554  0.1127 -0.0948
 6776ION    CL-10295   8.356   2.754  10.747  0.0208 -0.0483 -0.0766
 6777ION    CL-10296   8.814   5.616   0.024  0.0478 -0.2630 -0.0762
 6778ION    CL-10297   1.083   7.312   2.395 -0.0829  0.4505 -0.0205
 6779ION    CL-10298   6.325   3.362   1.708  0.0253  0.1312 -0.0597
 6780ION    CL-10299   4.555   1.300   9.541 -0.1751  0.3443 -0.5497
 6781ION    CL-10300   2.901   1.031   3.936  0.2497  0.2790  0.1762
 6782ION    CL-10301   3.585   3.786  10.467 -0.1531  0.0006 -0.0488
 6783ION    CL-10302   0.903   9.593   2.473  0.1384  0.1253 -0.1772
 6784ION    CL-10303   6.899   9.183   1.631 -0.2750 -0.0072  0.0897
 6785ION    CL-10304   4.889   8.166   9.883  0.0629  0.4701  0.2543
 6786ION    CL-10305   4.639   6.899   1.771  0.1298 -0.0112  0.0356
 6787ION    CL-10306   5.378   8.494  10.791  0.0853 -0.1520  0.1154
 6788ION    CL-10307   7.059   5.867   2.369  0.2201 -0.1153  0.2453
 6789ION    CL-10308   7.380   6.353   9.161 -0.0824  0.2222  0.1483
 6790ION    CL-10309   7.987   2.614   8.930 -0.0826 -0.2931  0.1883
 6791ION    CL-10310   4.193   5.798   9.483  0.3016 -0.1260  0.1314
 6792ION    CL-10311   4.625   9.377   1.493  0.0098  0.0620 -0.4234
 6793ION    CL-10312   8.978   3.560  10.675 -0.0032  0.0767  0.3550
 6794ION    CL-10313   3.371   8.099   1.615  0.0547 -0.3140 -0.0866
 6795ION    CL-10314   6.959   3.467  12.530 -0.1133 -0.4739 -0.1908
 6796ION    CL-10315   6.306   3.936   9.714  0.1002 -0.1383 -0.1086
 6797ION    CL-10316   9.433   9.592  11.885 -0.0044 -0.1679 -0.3982
 6798ION    CL-10317   7.547   2.592   2.709  0.1724  0.3213  0.1783
 6799ION    CL-10318   1.724   0.165  10.919  0.1506  0.1400 -0.0639
 6800ION    CL-10319   8.549   6.100  10.295  0.0629 -0.0053 -0.0115
 6801ION    CL-10320   3.862   6.603   1.834  0.1862 -0.1073 -0.0219
 6802ION    CL-10321   1.985   8.197   2.399  0.1134  0.0897  0.0530
 6803ION    CL-10322   9.272   2.917   3.706  0.1007  0.2765 -0.0145
 6804ION    CL-10323   3.054   4.363   3.057  0.0892 -0.1862  0.0520
 6805ION    CL-10324   3.599   2.596   9.283  0.2133  0.1581  0.1778
 6806ION    CL-10325   1.567   8.802   0.912 -0.3408 -0.0889 -0.0470
 6807ION    CL-10326   6.601   9.280   2.714 -0.1340  0.3334  0.3273
 6808ION    CL-10327   1.447   5.906   8.980  0.1517  0.0400 -0.1450
 6809ION    CL-10328   1.976   2.751   8.800  0.1881  0.2169 -0.1063
 6810ION    CL-10329   2.198   5.434   8.590  0.1306  0.0766 -0.0783
 6811ION    CL-10330   5.402   1.789   2.186 -0.2649  0.1366  0.1214
 6812ION    CL-10331   3.880   9.442   0.371  0.3221 -0.0691  0.0123
 6813ION    CL-10332   1.551   2.046   1.351 -0.3690  0.1726  0.2662
 6814ION    CL-10333   1.299   0.099  10.179 -0.0281 -0.0548 -0.1630
 6815ION    CL-10334   5.290   2.763   8.721 -0.2039  0.1749  0.0739
 6816ION    CL-10335   6.763   3.493   3.550  0.0375  0.0526 -0.3007
 6817ION    CL-10336   0.323   6.271   2.817 -0.3788  0.2854  0.2031
 6818ION    CL-10337   1.081   7.498  12.573 -0.1679 -0.2977  0.1430
 6819ION    CL-10338   8.106   1.788   8.309 -0.1136  0.1544  0.2999
 6820ION    CL-10339   6.302   6.810  12.460  0.0923  0.0534  0.0440
 6821ION    CL-10340   0.994   8.417   8.954  0.0689 -0.2759  0.4356
 6822ION    CL-10341   7.301   4.304   3.563 -0.2561 -0.1573  0.3376
 6823ION    CL-10342   1.244   1.849  11.629 -0.1623  0.0447  0.0350
 6824ION    CL-10343   5.891   8.228   9.938 -0.1261  0.2977  0.1698
 6825ION    CL-10344   5.646   0.590  12.312  0.0675 -0.1126  0.0108
 6826ION    CL-10345   6.441   0.875  11.408 -0.1978 -0.0768 -0.0507
 6827ION    CL-10346   1.631   4.100   8.952  0.0157 -0.0148 -0.2067
 6828ION    CL-10347   9.577   4.481  10.962 -0.2889  0.3780 -0.1961
 6829ION    CL-10348   6.949   1.369  10.666  0.2354  0.2470 -0.2111
 6830ION    CL-10349   0.506   1.383   9.265 -0.0865 -0.0397  0.1555
 6831ION    CL-10350   1.173   1.394   9.843  0.1197 -0.1306 -0.1140
 6832ION    CL-10351   6.220   8.741   1.475 -0.0820 -0.2383 -0.0075
 6833ION    CL-10352   9.017   0.978   1.370  0.0017  0.2049 -0.0555
 6834ION    CL-10353   0.680   4.628   1.718  0.0834  0.1680 -0.0192
 6835ION    CL-10354   8.836   0.422   3.952  0.0769  0.3787 -0.0772
 6836ION    CL-10355   4.904   6.322   9.539  0.3348  0.2040 -0.0954
 6837ION    CL-10356   2.469   5.323  12.095 -0.3947 -0.4029  0.1079
 6838ION    CL-10357   0.597   6.047   8.424 -0.0765 -0.0413  0.1352
 6839ION    CL-10358   2.088   3.210   4.216  0.1325  0.3239  0.2930
 6840ION    CL-10359   1.722   2.731  11.628 -0.2016 -0.0913  0.1915
 6841ION    CL-10360   2.099   3.279   1.728  0.1847  0.2347  0.0752
 6842ION    CL-10361   4.947   5.230   1.775 -0.1412  0.2680  0.0207
 6843ION    CL-10362   9.098   3.778   8.667 -0.2396 -0.0900 -0.0054
 6844ION    CL-10363   8.369   3.396   3.780  0.1596 -0.1329 -0.0591
 6845ION    CL-10364   6.086   5.485   2.230 -0.1124 -0.0009 -0.0175
 6846ION    CL-10365   5.249   0.802   9.209 -0.4759  0.1364 -0.0462
   9.68382   9.68382  12.60934
