Protein in INSANE! Membrane UpperLeaflet>POPC=1.0 LowerLeaflet>POPC=1.0
11125
    1AU     AUC    1   0.237   2.554   6.699 -0.1161  0.0762  0.0508
    1AU     AUC    2   0.200   2.629   7.039 -0.0193 -0.0187  0.0788
    1AU     AUC    3   0.400   2.791   6.767 -0.0170 -0.0023  0.0009
    1AU     AUC    4   0.042   2.345   6.577 -0.1128 -0.0621  0.1062
    1AU     AUC    5   0.277   2.479   6.361  0.0511  0.0452 -0.0303
    1AU     AUC    6   0.383   2.264   6.592 -0.0024  0.0662 -0.1202
    1AU     AUC    7   0.475   2.465   6.870  0.0922 -0.0714 -0.0350
    1AU     AUC    8  -0.012   2.644   6.483 -0.0616  0.0054 -0.0930
    1AU     AUC    9   0.082   2.844   6.767 -0.0310  0.0026 -0.0769
    1AU     AUC   10   0.285   2.820   6.496 -0.0393  0.0570 -0.0432
    1AU     AUC   11   0.529   2.536   6.579  0.0727  0.0166  0.0478
    1AU     AUC   12  -0.058   2.545   6.827  0.0268  0.0298 -0.0015
    1AU     AUC   13   0.168   2.340   6.904  0.0193  0.0044  0.0322
    1AU     AUC   14   0.216   2.725   7.361 -0.0317  0.0115  0.0086
    1AU     AUC   15   0.414   2.921   7.173 -0.1041 -0.1068  0.0588
    1AU     AUC   16   0.604   3.048   6.883  0.0890  0.0266  0.0583
    1AU     AUC   17  -0.223   2.101   6.429  0.0695  0.0926  0.0187
    1AU     AUC   18   0.052   2.252   6.205 -0.0275 -0.0825  0.1556
    1AU     AUC   19   0.341   2.373   6.043 -0.0007  0.0206  0.0275
    1AU     AUC   20   0.484   1.934   6.542  0.0632  0.0364 -0.0030
    1AU     AUC   21   0.629   2.101   6.839 -0.1291 -0.0303  0.0319
    1AU     AUC   22   0.720   2.354   7.077 -0.2633 -0.0054 -0.0559
    1AU     AUC   23  -0.262   2.717   6.286  0.0191  0.1247  0.0143
    1AU     AUC   24  -0.209   2.948   6.568  0.0367 -0.0199  0.0516
    1AU     AUC   25  -0.067   3.170   6.864  0.0624 -0.0597  0.0338
    1AU     AUC   26   0.345   3.075   6.266  0.0333  0.1076 -0.0864
    1AU     AUC   27   0.601   2.822   6.326 -0.0583  0.0908  0.0613
    1AU     AUC   28   0.841   2.563   6.446 -0.0401  0.0542 -0.1047
    1AU     AUC   29  -0.356   2.585   6.980 -0.0703 -0.0317  0.0190
    1AU     AUC   30  -0.163   2.304   7.077  0.1025 -0.0225 -0.0260
    1AU     AUC   31   0.077   2.091   7.098  0.0439  0.0766 -0.0011
    1AU     AUC   32   0.474   3.114   6.553 -0.0017  0.0273 -0.0064
    1AU     AUC   33   0.731   2.844   6.650  0.0804 -0.0316  0.0650
    1AU     AUC   34  -0.090   2.634   7.227  0.0297  0.0225 -0.1081
    1AU     AUC   35   0.183   2.402   7.261 -0.1337 -0.0829 -0.0731
    1AU     AUC   36   0.355   2.726   6.133 -0.0312  0.0374  0.0705
    1AU     AUC   37   0.602   2.450   6.198  0.0258 -0.0910 -0.0661
    1AU     AUC   38  -0.314   2.321   6.695  0.0233  0.0096 -0.0103
    1AU     AUC   39  -0.134   2.093   6.760 -0.0342 -0.0150  0.0634
    1AU     AUC   40   0.495   2.549   7.259  0.0301  0.0729 -0.0365
    1AU     AUC   41   0.682   2.712   6.986  0.0645  0.0023 -0.0966
    1AU     AUC   42   0.142   2.006   6.470  0.0843 -0.0238  0.0053
    1AU     AUC   43   0.459   2.121   6.267 -0.0393  0.0185 -0.0503
    1AU     AUC   44   0.057   2.967   7.110  0.0623  0.0697 -0.0812
    1AU     AUC   45   0.241   3.123   6.866 -0.1102  0.0214  0.0305
    1AU     AUC   46  -0.251   2.417   6.325 -0.0380 -0.0091 -0.0317
    1AU     AUC   47   0.030   2.567   6.149  0.0692  0.0494  0.0256
    1AU     AUC   48   0.701   2.198   6.498  0.0538  0.0272  0.0479
    1AU     AUC   49   0.810   2.430   6.746 -0.0458 -0.0305  0.1055
    1AU     AUC   50   0.030   2.903   6.259  0.0433 -0.0470 -0.0334
    1AU     AUC   51   0.099   3.124   6.514  0.0027  0.0396 -0.0085
    1AU     AUC   52   0.277   2.013   6.831  0.0547 -0.0690 -0.0222
    1AU     AUC   53   0.415   2.189   7.122  0.0236  0.0702 -0.1010
    1AU     AUC   54  -0.363   2.668   6.617  0.0118  0.0498 -0.0819
    1AU     AUC   55  -0.215   2.875   6.922 -0.0746  0.1165 -0.1311
    1AU    AUSL   56   0.797   3.265   6.606 -0.0349  0.0140  0.0778
    1AU    AUSL   57   0.401   3.418   6.384 -0.0105  0.0580  0.0522
    1AU     AUL   58   0.679   3.569   6.577 -0.0137 -0.0273 -0.0325
    1AU       S   59   0.306   3.817   6.611 -0.1250 -0.3288  0.2892
    1AU     LIG   60   0.053   4.122   6.369  0.1837 -0.4761 -0.0276
    1AU     LIG   61  -0.085   4.614   6.333 -0.2705 -0.1439  0.1973
    1AU     LIG   62  -0.212   4.940   6.048 -0.0420  0.2607  0.1542
    1AU     LIG   63  -0.113   5.208   5.644  0.1120  0.2002 -0.0751
    1AU       S   64   1.005   3.539   6.261 -0.0800  0.0033 -0.1888
    1AU     LIG   65   0.807   3.915   6.155  0.1050 -0.1177  0.2559
    1AU     LIG   66   1.004   4.376   6.261  0.3832 -0.0396  0.0150
    1AU     LIG   67   1.318   4.578   6.357  0.0646 -0.2477  0.0972
    1AU     LIG   68   1.615   4.565   6.724 -0.0066  0.0498  0.0326
    1AU    AUSL   69   0.688   3.159   6.200 -0.0560  0.0026 -0.0808
    1AU    AUSL   70   0.870   2.759   6.036 -0.1676 -0.0662  0.0030
    1AU     AUL   71   1.072   3.079   6.052 -0.0191  0.0255 -0.0235
    1AU       S   72   0.772   3.418   6.088 -0.5238 -0.1443 -0.0734
    1AU     LIG   73   0.495   3.599   5.882 -0.2428  0.0100 -0.2424
    1AU     LIG   74   0.204   3.947   5.877 -0.1199  0.1390 -0.0777
    1AU     LIG   75   0.249   4.385   5.614  0.1098  0.1010  0.1504
    1AU     LIG   76   0.055   4.693   5.497  0.0973 -0.0424  0.1528
    1AU       S   77   0.799   2.917   5.739  0.2488 -0.3322  0.1592
    1AU     LIG   78   1.228   2.859   5.635 -0.0043  0.3388  0.1519
    1AU     LIG   79   1.670   3.014   5.704  0.2157  0.3906 -0.0433
    1AU     LIG   80   2.087   3.125   5.456  0.2573 -0.0101  0.1038
    1AU     LIG   81   2.341   3.359   5.068 -0.2587  0.2696  0.0472
    1AU    AUSL   82   0.841   2.840   6.443  0.0115  0.0225 -0.0350
    1AU    AUSL   83   1.003   2.991   6.832  0.0918  0.0761  0.0329
    1AU     AUL   84   1.080   3.133   6.501  0.1276 -0.0522 -0.0187
    1AU       S   85   1.339   2.727   6.135 -0.2126  0.1863 -0.1892
    1AU     LIG   86   1.506   2.362   5.883  0.2794 -0.5390 -0.0640
    1AU     LIG   87   1.591   2.005   6.041  0.3715 -0.0687  0.0740
    1AU     LIG   88   1.793   1.718   6.429 -0.1415 -0.2510 -0.1586
    1AU     LIG   89   1.957   1.351   6.661  0.0536 -0.1247 -0.3674
    1AU       S   90   1.378   3.083   6.874 -0.0040 -0.3002  0.2082
    1AU     LIG   91   1.584   3.364   7.064 -0.4065 -0.4102 -0.2538
    1AU     LIG   92   1.882   3.694   7.015 -0.3829  0.1075  0.1843
    1AU     LIG   93   2.297   3.708   6.696  0.0990 -0.3168 -0.0533
    1AU     LIG   94   2.511   3.571   6.484 -0.0008  0.0777  0.2290
    1AU    AUSL   95   0.043   2.495   7.539  0.0921 -0.0031 -0.0784
    1AU    AUSL   96   0.284   2.124   7.451 -0.0082 -0.0584 -0.0409
    1AU     AUL   97   0.121   2.285   7.810  0.0217 -0.0135  0.0745
    1AU       S   98  -0.264   2.020   7.733 -0.3438  0.0322  0.0358
    1AU     LIG   99  -0.722   1.889   7.686 -0.0104 -0.3223 -0.0711
    1AU     LIG  100  -0.992   1.744   7.467  0.2168  0.2261  0.0158
    1AU     LIG  101  -1.335   1.438   7.303  0.2642 -0.1324  0.0604
    1AU     LIG  102  -1.249   1.057   7.041 -0.1409 -0.0606  0.0421
    1AU       S  103   0.598   2.128   7.750 -0.2323  0.1359 -0.0766
    1AU     LIG  104   0.853   1.708   7.774 -0.0351 -0.1757  0.3560
    1AU     LIG  105   1.037   1.445   7.510  0.1592  0.1064 -0.0293
    1AU     LIG  106   1.040   1.120   7.158 -0.1733  0.2763 -0.0933
    1AU     LIG  107   1.358   0.734   6.944  0.0720  0.2137  0.0438
    1AU    AUSL  108  -0.376   2.459   7.451  0.0434  0.0307  0.0089
    1AU    AUSL  109  -0.138   2.876   7.521  0.0724  0.1114  0.0140
    1AU     AUL  110  -0.226   2.637   7.730  0.0836  0.0099  0.0732
    1AU       S  111  -0.521   3.009   7.697 -0.1775 -0.0807  0.0208
    1AU     LIG  112  -1.016   2.835   7.827 -0.1790  0.0711  0.0382
    1AU     LIG  113  -1.346   3.032   7.899 -0.3401 -0.1185  0.0063
    1AU     LIG  114  -1.622   3.346   7.714  0.2527 -0.0081 -0.3586
    1AU     LIG  115  -1.856   3.702   7.531 -0.1857  0.0250 -0.3715
    1AU       S  116  -0.323   2.171   7.774 -0.0645  0.0275 -0.2010
    1AU     LIG  117  -0.667   2.415   7.852  0.2610  0.1539  0.1649
    1AU     LIG  118  -1.096   2.247   8.056  0.0765 -0.3102 -0.2073
    1AU     LIG  119  -1.135   1.976   8.439 -0.1467  0.3733 -0.1936
    1AU     LIG  120  -1.294   1.937   8.820 -0.1418  0.0150  0.0692
    1AU    AUSL  121  -0.088   2.175   7.276  0.0964 -0.0422 -0.0080
    1AU    AUSL  122  -0.431   2.325   7.047 -0.0443  0.0107 -0.0782
    1AU     AUL  123  -0.551   2.239   7.351  0.0332  0.0113  0.0485
    1AU       S  124  -0.820   1.925   7.080 -0.0266  0.1659  0.1464
    1AU     LIG  125  -1.253   2.010   7.112  0.2553  0.2518  0.0891
    1AU     LIG  126  -1.656   1.825   7.091 -0.1417 -0.2602 -0.0470
    1AU     LIG  127  -2.042   1.847   6.801  0.0454 -0.0455 -0.1104
    1AU     LIG  128  -2.438   2.009   6.725  0.3254 -0.3475  0.0735
    1AU       S  129  -0.165   1.970   7.520  0.0202 -0.0644 -0.2591
    1AU     LIG  130  -0.152   1.547   7.405  0.2275 -0.1008 -0.2329
    1AU     LIG  131  -0.439   1.293   7.195 -0.1379  0.0314 -0.1591
    1AU     LIG  132  -0.241   0.781   6.982 -0.1932 -0.1472 -0.1561
    1AU     LIG  133  -0.484   0.330   6.974 -0.0636 -0.0756  0.1076
    1AU    AUSL  134   0.561   2.514   5.819  0.1510  0.1697 -0.0312
    1AU    AUSL  135   0.878   2.379   6.205  0.0896  0.0395  0.0705
    1AU     AUL  136   0.980   2.487   5.857 -0.0516 -0.0018  0.0332
    1AU       S  137   0.731   2.829   5.515  0.2585 -0.0354  0.0904
    1AU     LIG  138   0.706   2.359   5.385 -0.0288  0.1010  0.2330
    1AU     LIG  139   1.150   2.119   5.303  0.2110  0.1395  0.2229
    1AU     LIG  140   1.502   1.951   5.570  0.0548 -0.0792  0.0314
    1AU     LIG  141   1.889   1.745   5.614  0.2645 -0.2987  0.2019
    1AU       S  142   1.074   2.020   5.887 -0.4598  0.1568  0.2973
    1AU     LIG  143   1.085   1.680   5.777 -0.2997 -0.2225 -0.1045
    1AU     LIG  144   1.145   1.357   5.750 -0.4936  0.1827 -0.0292
    1AU     LIG  145   1.358   0.951   6.086 -0.0854  0.5474  0.1393
    1AU     LIG  146   1.708   0.592   6.172 -0.0124  0.2136  0.0867
    1AU    AUSL  147   0.452   2.831   6.077  0.1251  0.0478 -0.0176
    1AU    AUSL  148   0.176   2.710   5.749 -0.0469  0.0160  0.0007
    1AU     AUL  149   0.376   2.607   5.656  0.0212 -0.0589 -0.0498
    1AU       S  150   0.210   2.991   5.465  0.0218 -0.0028  0.0057
    1AU     LIG  151   0.528   3.186   5.164 -0.2598  0.2429 -0.0226
    1AU     LIG  152   0.450   3.349   4.851  0.0344 -0.0418  0.4908
    1AU     LIG  153   0.318   3.469   4.445  0.0840  0.0112  0.3184
    1AU     LIG  154   0.381   3.491   4.047 -0.0983 -0.1141  0.1241
    1AU       S  155   0.632   2.994   5.739  0.1161 -0.4512 -0.3641
    1AU     LIG  156   0.879   3.375   5.577  0.1853  0.2368 -0.2734
    1AU     LIG  157   1.073   3.732   5.614  0.2581 -0.0895 -0.1514
    1AU     LIG  158   1.189   4.149   5.807  0.1992 -0.1595 -0.2577
    1AU     LIG  159   1.198   4.613   5.863  0.1729 -0.0985 -0.2430
    1AU    AUSL  160  -0.494   2.039   6.724  0.0329  0.0699  0.0409
    1AU    AUSL  161  -0.556   2.480   6.687 -0.0365 -0.0029  0.0022
    1AU     AUL  162  -0.764   2.351   6.911  0.0108 -0.0282  0.0646
    1AU       S  163  -0.819   1.899   6.892 -0.2523  0.3009 -0.3300
    1AU     LIG  164  -1.271   1.923   6.641 -0.1564  0.1817 -0.1974
    1AU     LIG  165  -1.634   2.017   6.562 -0.1412 -0.0823  0.1462
    1AU     LIG  166  -2.016   2.185   6.405  0.0422  0.2605  0.0748
    1AU     LIG  167  -2.319   1.983   6.271  0.3861  0.3766 -0.3211
    1AU       S  168  -0.931   2.243   6.506 -0.3883  0.1435  0.0982
    1AU     LIG  169  -1.170   2.407   6.686  0.2496 -0.4110 -0.0005
    1AU     LIG  170  -1.529   2.514   6.545 -0.5663  0.1699  0.1001
    1AU     LIG  171  -1.817   2.825   6.678 -0.2489  0.0954 -0.1926
    1AU     LIG  172  -1.846   3.321   6.642 -0.1144 -0.1437 -0.1494
    1AU    AUSL  173  -0.325   1.889   7.094  0.0222  0.1075  0.0351
    1AU    AUSL  174  -0.232   1.753   6.535  0.0393 -0.0157 -0.0073
    1AU     AUL  175  -0.418   1.683   6.796  0.0591 -0.0322 -0.0583
    1AU       S  176  -0.309   1.369   6.475  0.2763 -0.1870 -0.1357
    1AU     LIG  177  -0.558   1.135   6.188  0.1980  0.3478 -0.1379
    1AU     LIG  178  -0.657   0.933   5.795 -0.0779 -0.0761 -0.2595
    1AU     LIG  179  -0.785   1.136   5.477 -0.0433 -0.3279 -0.2223
    1AU     LIG  180  -1.072   1.445   5.453  0.0864  0.2522  0.2539
    1AU       S  181  -0.597   1.810   7.195  0.1352  0.1368  0.2689
    1AU     LIG  182  -0.957   1.419   6.995  0.0493  0.1487  0.4269
    1AU     LIG  183  -1.313   1.466   6.691  0.2779  0.2072 -0.1705
    1AU     LIG  184  -1.735   1.485   6.708 -0.3219  0.2296 -0.2956
    1AU     LIG  185  -1.978   1.617   6.318  0.1218  0.4244  0.3259
    1AU    AUSL  186   0.850   2.640   7.376  0.0335  0.0036 -0.0337
    1AU    AUSL  187   0.457   2.516   7.560  0.0153  0.0528  0.0120
    1AU     AUL  188   0.750   2.608   7.759  0.0513 -0.0031  0.0252
    1AU       S  189   0.532   2.172   7.850  0.0675  0.0750 -0.0312
    1AU     LIG  190   0.524   2.555   8.207 -0.3273  0.3618 -0.2278
    1AU     LIG  191   0.744   2.949   8.094  0.3831  0.1546 -0.2963
    1AU     LIG  192   1.106   3.198   8.050  0.0900  0.0200  0.0346
    1AU     LIG  193   1.441   3.312   8.190  0.1425  0.3090  0.1690
    1AU       S  194   1.009   2.942   7.615  0.2089 -0.2346  0.3324
    1AU     LIG  195   1.266   3.442   7.542 -0.0690  0.1122 -0.4889
    1AU     LIG  196   1.298   3.809   7.220  0.3174  0.0421 -0.1302
    1AU     LIG  197   1.556   4.030   6.812 -0.1322  0.2250 -0.1826
    1AU     LIG  198   1.823   3.755   6.476 -0.2692  0.2162 -0.0644
    1AU    AUSL  199   0.529   2.929   7.514 -0.0719 -0.0508  0.0056
    1AU    AUSL  200   0.500   3.297   7.224  0.0416 -0.0397 -0.0039
    1AU     AUL  201   0.412   3.214   7.639 -0.0888  0.0199 -0.0039
    1AU       S  202   0.841   3.056   7.646  0.1508 -0.1877 -0.1544
    1AU     LIG  203   0.849   3.539   7.830 -0.2529  0.0601  0.1848
    1AU     LIG  204   0.883   4.001   7.880 -0.2414 -0.2669 -0.2696
    1AU     LIG  205   0.646   4.305   7.792 -0.3596 -0.1009  0.2356
    1AU     LIG  206   0.681   4.606   7.512 -0.0489  0.3774  0.0187
    1AU       S  207   0.359   3.624   7.426 -0.2260  0.1163 -0.3418
    1AU     LIG  208   0.779   3.736   7.354  0.1460 -0.0972  0.1186
    1AU     LIG  209   0.857   4.106   7.283 -0.2963 -0.1974 -0.2144
    1AU     LIG  210   0.710   4.456   7.017 -0.2116 -0.0561 -0.2630
    1AU     LIG  211   0.781   4.685   6.675 -0.0601 -0.3810  0.3636
    1AU    AUSL  212   0.691   2.921   7.099 -0.0623 -0.0414  0.0732
    1AU    AUSL  213   0.939   2.565   6.955  0.0371 -0.0916  0.0099
    1AU     AUL  214   1.099   2.805   7.145 -0.0660  0.0330 -0.0246
    1AU       S  215   1.486   2.828   6.896  0.0635 -0.0726 -0.3304
    1AU     LIG  216   1.775   2.535   6.921  0.2934 -0.3038  0.1253
    1AU     LIG  217   1.963   2.182   6.708  0.3462  0.0842 -0.1592
    1AU     LIG  218   2.263   1.836   6.705  0.1396 -0.1508  0.0588
    1AU     LIG  219   2.515   1.537   6.544 -0.0867  0.4820 -0.1981
    1AU       S  220   0.902   3.173   7.380 -0.0227 -0.1679 -0.1105
    1AU     LIG  221   1.003   3.375   7.060 -0.1713 -0.3198  0.2893
    1AU     LIG  222   1.203   3.557   6.800  0.1497 -0.3618  0.1368
    1AU     LIG  223   1.458   3.425   6.443  0.0253 -0.0058  0.2738
    1AU     LIG  224   1.580   3.130   6.193  0.0428  0.1399 -0.2369
    1AU    AUSL  225   0.412   1.825   6.273 -0.0010 -0.0158 -0.0704
    1AU    AUSL  226   0.613   2.132   5.981  0.0070 -0.0631  0.0374
    1AU     AUL  227   0.587   1.716   5.942  0.1043 -0.0099 -0.0785
    1AU       S  228   0.790   2.094   5.797 -0.3380 -0.1746 -0.1382
    1AU     LIG  229   0.717   1.884   5.475 -0.1460  0.1895 -0.0965
    1AU     LIG  230   0.391   1.606   5.491  0.0071  0.3426 -0.4100
    1AU     LIG  231   0.125   1.259   5.486 -0.0674 -0.0775  0.0797
    1AU     LIG  232  -0.270   1.048   5.426 -0.2684 -0.0908  0.0150
    1AU       S  233   0.612   1.505   6.403 -0.0756 -0.2044  0.1181
    1AU     LIG  234   0.879   1.212   6.186  0.1450  0.0360  0.2293
    1AU     LIG  235   0.909   0.926   5.879  0.1640 -0.0248  0.0012
    1AU     LIG  236   1.231   0.741   5.610 -0.5712  0.2505 -0.2909
    1AU     LIG  237   1.658   0.619   5.695 -0.3249 -0.0788  0.0335
    1AU    AUSL  238   0.018   1.976   6.282  0.0111 -0.0063  0.0886
    1AU    AUSL  239   0.191   1.639   6.587 -0.0328 -0.0748 -0.0374
    1AU     AUL  240   0.055   1.611   6.271  0.0149 -0.0694 -0.0674
    1AU       S  241  -0.448   1.733   6.144  0.0959  0.5441 -0.0587
    1AU     LIG  242  -0.735   1.564   6.454  0.1533 -0.0985  0.1629
    1AU     LIG  243  -0.970   1.217   6.474  0.1238  0.3085  0.3402
    1AU     LIG  244  -0.998   0.848   6.373  0.1143 -0.0269  0.3498
    1AU     LIG  245  -1.339   0.464   6.289  0.2359 -0.0074 -0.0502
    1AU       S  246   0.148   1.292   6.586 -0.1907  0.3703  0.3802
    1AU     LIG  247   0.421   1.076   6.338  0.0707  0.0402  0.0827
    1AU     LIG  248   0.647   0.695   6.374 -0.1161  0.1199  0.0504
    1AU     LIG  249   0.778   0.221   6.247 -0.1763  0.1658  0.4390
    1AU     LIG  250   1.078  -0.039   5.993 -0.1232 -0.0485 -0.2118
    1AU    AUSL  251   0.218   2.014   5.873 -0.0565 -0.0647 -0.0030
    1AU    AUSL  252  -0.271   2.107   5.989 -0.1054  0.0081 -0.0040
    1AU     AUL  253  -0.046   1.832   5.874  0.0567 -0.0128 -0.0074
    1AU       S  254  -0.242   2.217   5.616  0.7181  0.3527 -0.3835
    1AU     LIG  255  -0.688   1.905   5.595 -0.2271  0.1242  0.1781
    1AU     LIG  256  -0.479   1.528   5.698 -0.0984 -0.1008 -0.1701
    1AU     LIG  257  -0.277   1.329   5.814  0.1541 -0.1514  0.3176
    1AU     LIG  258  -0.088   1.071   6.159 -0.0270 -0.1414  0.0987
    1AU       S  259   0.326   2.096   5.630  0.1750 -0.1277 -0.0376
    1AU     LIG  260   0.287   2.111   5.192 -0.3715  0.3257 -0.1424
    1AU     LIG  261  -0.030   1.883   4.776  0.3784 -0.1883  0.1066
    1AU     LIG  262  -0.216   2.085   4.498 -0.0081 -0.0379  0.1526
    1AU     LIG  263  -0.581   2.400   4.496 -0.0464 -0.3519  0.2429
    1AU    AUSL  264   0.093   3.378   7.099  0.0000  0.0382  0.0132
    1AU    AUSL  265   0.424   3.239   6.809  0.0001 -0.0242  0.0451
    1AU     AUL  266   0.500   3.500   6.995  0.0864  0.0516  0.0664
    1AU       S  267   0.057   3.628   7.202  0.1197 -0.1680 -0.2354
    1AU     LIG  268   0.312   4.037   7.185 -0.2919 -0.2721  0.3141
    1AU     LIG  269   0.247   4.308   6.838 -0.1575 -0.2819 -0.0161
    1AU     LIG  270   0.348   4.540   6.532  0.1801  0.0193  0.1386
    1AU     LIG  271   0.488   4.316   6.108 -0.5501  0.1847 -0.3121
    1AU       S  272   0.294   3.812   6.775  0.1369  0.1597  0.3183
    1AU     LIG  273   0.749   4.081   6.657  0.3929  0.3698 -0.1373
    1AU     LIG  274   1.175   3.972   6.499  0.2358  0.1285  0.0390
    1AU     LIG  275   1.355   3.810   6.109 -0.0144  0.4076 -0.2314
    1AU     LIG  276   1.475   3.460   5.815  0.0301 -0.1266  0.0410
    1AU    AUSL  277   0.182   3.002   7.281 -0.0266 -0.0508  0.0596
    1AU    AUSL  278  -0.239   3.182   7.247  0.0859  0.1176 -0.0586
    1AU     AUL  279  -0.026   3.231   7.486 -0.0720 -0.1090  0.0223
    1AU       S  280   0.190   3.620   7.505 -0.1262  0.0322 -0.4203
    1AU     LIG  281   0.116   4.052   7.622 -0.3919 -0.0456 -0.0008
    1AU     LIG  282   0.239   4.440   7.558  0.0668 -0.1040 -0.5776
    1AU     LIG  283   0.200   4.768   7.224 -0.0528 -0.2112  0.0938
    1AU     LIG  284   0.070   4.787   6.844  0.0403  0.1190  0.0559
    1AU       S  285  -0.477   3.296   7.585 -0.1085  0.3335  0.1920
    1AU     LIG  286  -0.700   3.504   7.294  0.0672  0.5193 -0.1039
    1AU     LIG  287  -0.888   3.766   7.137 -0.2404 -0.4834 -0.2979
    1AU     LIG  288  -1.307   4.044   6.992 -0.1476  0.2568  0.1019
    1AU     LIG  289  -1.588   4.185   6.766  0.2935  0.2351  0.2583
    1AU    AUSL  290  -0.343   2.541   5.997  0.0377  0.0181  0.0966
    1AU    AUSL  291  -0.459   2.227   6.350  0.0299 -0.0336  0.0329
    1AU     AUL  292  -0.565   2.250   5.999 -0.0537 -0.0006  0.0644
    1AU       S  293  -0.796   2.182   6.409 -0.7375  0.0961 -0.1841
    1AU     LIG  294  -0.886   1.855   6.064 -0.5104 -0.0875 -0.6768
    1AU     LIG  295  -0.934   1.461   5.934 -0.0863 -0.0985  0.0127
    1AU     LIG  296  -1.216   1.100   5.879  0.2526  0.1319 -0.2775
    1AU     LIG  297  -1.519   0.847   5.943  0.1629 -0.1084 -0.0882
    1AU       S  298  -0.421   2.396   5.607 -0.1311  0.1866  0.0765
    1AU     LIG  299  -0.711   2.710   5.771 -0.1131 -0.0944 -0.5140
    1AU     LIG  300  -0.948   3.067   5.996  0.1152 -0.3002  0.2503
    1AU     LIG  301  -1.148   2.993   6.321 -0.0554 -0.1125  0.0541
    1AU     LIG  302  -1.356   3.037   6.706  0.2221 -0.0644  0.2087
    1AU    AUSL  303   0.061   2.391   5.983  0.1116 -0.0747  0.0547
    1AU    AUSL  304  -0.052   2.836   6.083  0.0492 -0.0991 -0.0387
    1AU     AUL  305  -0.148   2.738   5.796  0.1732 -0.0342 -0.0122
    1AU       S  306  -0.060   3.085   5.544 -0.0074 -0.2875 -0.2503
    1AU     LIG  307  -0.460   3.222   5.675  0.0271  0.0192  0.2219
    1AU     LIG  308  -0.781   3.220   5.487  0.1617  0.0597  0.3045
    1AU     LIG  309  -1.166   3.333   5.652 -0.3659  0.3615 -0.1848
    1AU     LIG  310  -1.324   3.442   6.048 -0.2190 -0.1773 -0.2686
    1AU       S  311  -0.082   2.337   5.637  0.2453  0.4291  0.3285
    1AU     LIG  312   0.035   2.578   5.280  0.2689  0.1254 -0.0004
    1AU     LIG  313   0.405   2.742   4.992  0.7616 -0.0352  0.0485
    1AU     LIG  314   0.682   2.910   4.756 -0.0429  0.3876 -0.2710
    1AU     LIG  315   0.996   3.118   4.963  0.3117 -0.1628 -0.2607
    1AU    AUSL  316   0.997   2.265   6.597  0.0026  0.0375 -0.0905
    1AU    AUSL  317   0.814   1.959   6.319  0.0366 -0.0011 -0.0088
    1AU     AUL  318   1.132   2.237   6.272  0.1366  0.0713  0.0159
    1AU       S  319   0.926   1.841   6.206 -0.2462 -0.6021 -0.0753
    1AU     LIG  320   1.238   1.620   6.227  0.1245 -0.0295  0.1731
    1AU     LIG  321   1.593   1.523   5.981  0.1070 -0.5060  0.2149
    1AU     LIG  322   1.876   1.141   6.057  0.2675 -0.2058  0.4149
    1AU     LIG  323   2.172   0.842   6.037  0.3151 -0.0225 -0.1078
    1AU       S  324   1.363   2.035   6.621  0.1881 -0.2697 -0.2796
    1AU     LIG  325   1.635   2.347   6.407 -0.3781 -0.4109 -0.2589
    1AU     LIG  326   1.864   2.696   6.343  0.0202 -0.1557  0.0882
    1AU     LIG  327   2.082   2.970   6.030  0.4410  0.0212 -0.2408
    1AU     LIG  328   2.461   3.251   6.006 -0.1603 -0.2317 -0.0437
    1AU    AUSL  329   0.865   1.844   6.730 -0.0433  0.0399 -0.0321
    1AU    AUSL  330   0.717   1.888   7.141 -0.0046  0.0124  0.0114
    1AU     AUL  331   0.981   1.692   7.078  0.0655  0.0110 -0.0069
    1AU       S  332   1.178   1.839   6.690  0.2960 -0.1085 -0.1703
    1AU     LIG  333   1.367   1.553   6.738 -0.1076 -0.0807  0.4080
    1AU     LIG  334   1.474   1.279   6.524  0.1756 -0.2559  0.3190
    1AU     LIG  335   1.636   0.914   6.577 -0.1209 -0.1845 -0.0377
    1AU     LIG  336   1.989   0.747   6.537 -0.1982  0.2270 -0.1389
    1AU       S  337   0.617   1.460   7.048 -0.0326 -0.3641 -0.1825
    1AU     LIG  338   0.958   1.341   6.688 -0.2103 -0.0792 -0.0222
    1AU     LIG  339   1.008   0.943   6.591  0.0436 -0.3174  0.1680
    1AU     LIG  340   1.189   0.522   6.484 -0.0139  0.2368  0.0797
    1AU     LIG  341   1.589   0.384   6.684  0.0063  0.0102 -0.0675
    1AU    AUSL  342   1.034   2.154   7.007  0.0439 -0.0810 -0.0536
    1AU    AUSL  343   1.165   2.650   6.588  0.0231  0.1127 -0.0191
    1AU     AUL  344   1.258   2.435   6.830 -0.0294  0.0876  0.0147
    1AU       S  345   1.436   2.844   6.656  0.0792  0.3420 -0.1118
    1AU     LIG  346   1.875   3.077   6.667 -0.0809 -0.0158  0.0574
    1AU     LIG  347   2.090   3.357   6.336 -0.0736  0.2413  0.0241
    1AU     LIG  348   2.393   3.754   6.031  0.0581  0.0058 -0.1213
    1AU     LIG  349   2.536   4.051   5.778  0.2519  0.0434 -0.1281
    1AU       S  350   1.352   2.013   6.994  0.1499 -0.0836  0.2496
    1AU     LIG  351   1.778   1.726   6.991 -0.2488 -0.2651  0.1148
    1AU     LIG  352   2.072   1.317   7.140 -0.1687  0.0744 -0.1832
    1AU     LIG  353   2.108   0.992   6.991  0.2851  0.0016 -0.0898
    1AU     LIG  354   2.370   0.597   6.860 -0.0264 -0.1479 -0.3186
    1AU    AUSL  355   0.057   3.206   6.286  0.0333 -0.0188 -0.0108
    1AU    AUSL  356   0.065   3.417   6.676  0.0438 -0.1058  0.0276
    1AU     AUL  357   0.157   3.541   6.260  0.0317 -0.0125 -0.0197
    1AU       S  358  -0.286   3.590   6.116 -0.0010 -0.0776 -0.0202
    1AU     LIG  359  -0.269   4.010   6.003 -0.0357 -0.0751 -0.0889
    1AU     LIG  360  -0.157   4.436   5.905 -0.0469  0.1365 -0.0328
    1AU     LIG  361   0.221   4.720   5.975 -0.1095  0.3319  0.4658
    1AU     LIG  362   0.278   5.016   6.345 -0.1126 -0.2630 -0.0152
    1AU       S  363   0.117   3.664   6.713  0.1388 -0.1694  0.0902
    1AU     LIG  364  -0.151   3.992   6.846  0.2030 -0.1708  0.1622
    1AU     LIG  365  -0.330   4.497   6.760 -0.2148 -0.2102 -0.1197
    1AU     LIG  366  -0.501   4.939   6.682  0.2629 -0.0923  0.3897
    1AU     LIG  367  -0.838   5.227   6.894  0.0791 -0.2649  0.3324
    1AU    AUSL  368  -0.380   3.082   6.132 -0.0162 -0.0180  0.0309
    1AU    AUSL  369   0.228   3.133   5.919  0.0156 -0.0632  0.0566
    1AU     AUL  370  -0.110   3.222   5.965 -0.0954 -0.0025 -0.0368
    1AU       S  371  -0.513   3.483   6.059 -0.0367 -0.0053 -0.3813
    1AU     LIG  372  -0.928   3.601   6.308  0.2941  0.1246  0.1379
    1AU     LIG  373  -0.960   3.801   6.617  0.0600  0.0680 -0.0572
    1AU     LIG  374  -0.789   4.127   6.793 -0.1842 -0.1720  0.1477
    1AU     LIG  375  -0.700   4.281   7.152 -0.2204  0.2556  0.3900
    1AU       S  376   0.206   3.248   5.598 -0.1059  0.3476 -0.2118
    1AU     LIG  377  -0.102   3.641   5.624 -0.0447  0.2800 -0.5336
    1AU     LIG  378  -0.550   3.789   5.667 -0.1891 -0.0647  0.0301
    1AU     LIG  379  -0.830   4.070   5.932 -0.2803  0.0991  0.2234
    1AU     LIG  380  -1.207   3.930   6.045 -0.1961  0.1102 -0.0647
    1AU    AUSL  381  -0.300   3.320   6.496  0.0628  0.0088  0.0082
    1AU    AUSL  382  -0.451   2.897   6.513  0.0361  0.0811  0.0359
    1AU     AUL  383  -0.633   3.125   6.348  0.0449 -0.0475  0.0048
    1AU       S  384  -0.805   3.255   6.764 -0.1241  0.0203  0.0592
    1AU     LIG  385  -1.218   3.480   6.867 -0.3409  0.0146  0.3299
    1AU     LIG  386  -1.466   3.592   6.506  0.0828  0.2413  0.0946
    1AU     LIG  387  -1.653   3.963   6.309 -0.5421  0.0052  0.4434
    1AU     LIG  388  -1.759   4.359   6.326  0.0510  0.1810 -0.0412
    1AU       S  389  -0.338   3.491   6.401  0.3080  0.1167 -0.4004
    1AU     LIG  390  -0.475   3.846   6.456 -0.0448  0.1838 -0.1496
    1AU     LIG  391  -0.518   4.304   6.323 -0.3074  0.0395  0.2349
    1AU     LIG  392  -0.728   4.532   6.517  0.2024  0.1397  0.2513
    1AU     LIG  393  -1.048   4.908   6.518  0.1898 -0.2133 -0.2789
    1AU    AUSL  394   0.237   1.799   7.190 -0.0623  0.0498 -0.0362
    1AU    AUSL  395   0.677   2.257   7.296  0.0611  0.0470 -0.0210
    1AU     AUL  396   0.543   1.842   7.408  0.0009  0.0442  0.0075
    1AU       S  397   0.371   1.429   7.204  0.0348  0.0967  0.0820
    1AU     LIG  398   0.060   1.152   7.177  0.1338 -0.0693  0.2083
    1AU     LIG  399   0.229   0.778   7.210  0.1839 -0.2902 -0.2012
    1AU     LIG  400   0.395   0.496   6.945 -0.1527  0.5064 -0.3665
    1AU     LIG  401   0.728   0.305   6.748  0.0320 -0.0576  0.0393
    1AU       S  402   0.843   2.212   7.591  0.3611 -0.2021 -0.6087
    1AU     LIG  403   1.122   2.026   7.477  0.0628 -0.1104 -0.3389
    1AU     LIG  404   1.398   1.830   7.409  0.2471 -0.0056  0.1905
    1AU     LIG  405   1.485   1.496   7.298  0.1147 -0.1012 -0.0286
    1AU     LIG  406   1.599   1.177   7.022  0.0733 -0.3043 -0.0215
    1AU    AUSL  407   0.452   1.864   6.798 -0.0499 -0.0294  0.0233
    1AU    AUSL  408   0.006   1.943   6.850  0.0769 -0.0263  0.0521
    1AU     AUL  409   0.068   1.642   6.928 -0.0685  0.0120 -0.0480
    1AU       S  410   0.540   1.517   6.865 -0.1089 -0.0170 -0.0673
    1AU     LIG  411   0.481   1.044   6.843  0.0145  0.1674  0.3402
    1AU     LIG  412   0.163   0.762   6.587 -0.0532  0.1834 -0.1434
    1AU     LIG  413  -0.042   0.419   6.695 -0.1210 -0.4971  0.1343
    1AU     LIG  414  -0.130  -0.015   6.751 -0.2995 -0.1377  0.0348
    1AU       S  415  -0.184   1.309   6.702 -0.0340 -0.1488  0.2769
    1AU     LIG  416  -0.554   1.019   6.694  0.2744 -0.0395 -0.0662
    1AU     LIG  417  -0.843   0.796   6.839  0.0764 -0.1541 -0.0190
    1AU     LIG  418  -1.127   0.599   7.158  0.3740  0.2672  0.1069
    1AU     LIG  419  -1.347   0.389   7.433  0.0581  0.0118  0.0841
    1AU    AUSL  420  -0.648   2.834   6.899  0.0913 -0.0134  0.0321
    1AU    AUSL  421  -0.648   2.628   6.268  0.0981  0.0087 -0.0518
    1AU     AUL  422  -0.809   2.755   6.547  0.0195  0.0170 -0.0955
    1AU       S  423  -0.913   2.406   6.254  0.2285 -0.0612 -0.3634
    1AU     LIG  424  -1.358   2.264   6.116  0.0612 -0.2121  0.1928
    1AU     LIG  425  -1.702   2.069   6.059  0.2314 -0.4627  0.0405
    1AU     LIG  426  -2.045   2.173   5.866  0.1857  0.4910 -0.1165
    1AU     LIG  427  -2.326   2.259   5.554  0.4985 -0.0374 -0.0303
    1AU       S  428  -0.927   3.017   6.924 -0.0893  0.0818 -0.3567
    1AU     LIG  429  -1.130   3.129   7.230  0.3287  0.3984 -0.0319
    1AU     LIG  430  -1.591   3.074   7.144  0.2883  0.1817  0.1362
    1AU     LIG  431  -1.907   2.743   7.275  0.1822  0.2032  0.0763
    1AU     LIG  432  -2.376   2.685   7.335  0.2713 -0.3517 -0.4245
    1AU    AUSL  433  -0.312   3.122   6.854 -0.0152 -0.0001 -0.0279
    1AU    AUSL  434  -0.323   2.749   7.143  0.0623  0.0204 -0.0299
    1AU     AUL  435  -0.539   3.043   7.170  0.0288  0.0524 -0.0634
    1AU       S  436  -0.663   3.327   6.840  0.3796  0.0281 -0.2855
    1AU     LIG  437  -0.378   3.601   6.958 -0.3848 -0.3460 -0.0644
    1AU     LIG  438  -0.362   3.965   7.267 -0.2458 -0.0780  0.0184
    1AU     LIG  439  -0.234   4.429   7.425 -0.0467  0.1048 -0.1340
    1AU     LIG  440  -0.254   4.689   7.836  0.0708 -0.4359  0.1259
    1AU       S  441  -0.599   2.865   7.574  0.1532 -0.1550 -0.2851
    1AU     LIG  442  -0.890   2.639   7.351  0.0684  0.2281  0.1234
    1AU     LIG  443  -1.236   2.626   7.116 -0.3854 -0.2115  0.0439
    1AU     LIG  444  -1.589   2.409   6.997 -0.2403  0.4044 -0.3595
    1AU     LIG  445  -1.989   2.385   6.889  0.1283  0.1440 -0.2736
    2POPC   NC3  446   5.063   8.524   8.905 -0.3420  0.0239 -0.2301
    2POPC   PO4  447   5.163   8.125   8.757 -0.3534 -0.2430 -0.0415
    2POPC   GL1  448   5.168   7.957   8.281  0.0445 -0.0946 -0.1590
    2POPC   GL2  449   4.886   7.804   8.271  0.1216 -0.0751  0.1253
    2POPC   C1A  450   5.138   8.091   7.890  0.0603 -0.0511  0.4595
    2POPC   D2A  451   4.982   8.530   7.779 -0.1113  0.0041  0.2145
    2POPC   C3A  452   4.588   8.592   7.456  0.0597  0.0727 -0.0386
    2POPC   C4A  453   4.343   8.282   7.328 -0.2398  0.0691  0.0475
    2POPC   C1B  454   4.833   7.661   7.843 -0.1171 -0.0021  0.2317
    2POPC   C2B  455   4.566   7.741   7.492 -0.0495  0.0816 -0.3391
    2POPC   C3B  456   4.722   7.732   7.029 -0.1967 -0.0777 -0.3972
    2POPC   C4B  457   4.756   7.505   6.638  0.1091  0.1560  0.0518
    3POPC   NC3  458   6.578   1.334   8.159 -0.2498 -0.0920 -0.0666
    3POPC   PO4  459   6.228   1.575   8.085  0.0552  0.1230 -0.0838
    3POPC   GL1  460   6.093   1.640   7.690  0.0077  0.0824  0.0162
    3POPC   GL2  461   5.846   1.804   7.600 -0.0795  0.1969  0.1362
    3POPC   C1A  462   6.179   1.539   7.273 -0.1864  0.0886 -0.1787
    3POPC   D2A  463   6.411   1.417   7.138 -0.1233  0.0519  0.2045
    3POPC   C3A  464   6.767   1.458   7.296 -0.1413  0.1411 -0.1241
    3POPC   C4A  465   7.008   1.217   7.634  0.0086  0.3146  0.0020
    3POPC   C1B  466   5.491   1.901   7.322 -0.0250  0.0712 -0.0076
    3POPC   C2B  467   5.428   1.637   6.998 -0.0505  0.3500  0.0090
    3POPC   C3B  468   5.564   1.736   6.518 -0.1243  0.2536  0.0717
    3POPC   C4B  469   5.744   1.631   6.026 -0.3014 -0.2157 -0.0590
    4POPC   NC3  470   5.024   5.634   8.424  0.1350  0.2265 -0.5558
    4POPC   PO4  471   5.122   6.075   8.423 -0.1373 -0.0293 -0.1024
    4POPC   GL1  472   5.405   6.010   8.199  0.0330 -0.0889  0.0746
    4POPC   GL2  473   5.528   5.665   8.184 -0.0490  0.1428 -0.0918
    4POPC   C1A  474   5.330   6.171   7.751 -0.0394 -0.0755  0.0897
    4POPC   D2A  475   5.251   6.316   7.320  0.0015 -0.1227 -0.0072
    4POPC   C3A  476   5.328   6.113   6.961 -0.1035  0.2229 -0.0664
    4POPC   C4A  477   5.372   6.012   6.491 -0.0625 -0.1796 -0.2146
    4POPC   C1B  478   5.381   5.607   7.727 -0.0665 -0.2376 -0.0647
    4POPC   C2B  479   5.238   5.784   7.383 -0.0372  0.0636 -0.1159
    4POPC   C3B  480   5.131   5.614   6.941  0.0309  0.1940  0.1228
    4POPC   C4B  481   4.955   5.681   6.498 -0.2005  0.0833 -0.0472
    5POPC   NC3  482   7.667   5.517   8.655  0.0910 -0.2188 -0.0456
    5POPC   PO4  483   8.114   5.652   8.402  0.0467 -0.1984 -0.0057
    5POPC   GL1  484   7.977   5.891   7.991  0.1538 -0.2346 -0.0973
    5POPC   GL2  485   7.871   6.251   7.882  0.3289 -0.2649  0.3916
    5POPC   C1A  486   7.923   5.615   7.575 -0.1834  0.3214 -0.0517
    5POPC   D2A  487   8.219   5.610   7.211  0.0313  0.1037 -0.1073
    5POPC   C3A  488   8.233   5.932   6.810 -0.2883 -0.0715  0.1082
    5POPC   C4A  489   7.882   6.142   6.571  0.3937  0.0273 -0.3283
    5POPC   C1B  490   8.146   6.110   7.574  0.1711  0.4657  0.4323
    5POPC   C2B  491   8.592   6.141   7.377 -0.2506  0.1797  0.2962
    5POPC   C3B  492   8.877   6.056   7.010  0.0311  0.0293  0.2353
    5POPC   C4B  493   8.954   6.236   6.549 -0.3219  0.3013 -0.2085
    6POPC   NC3  494   9.490   5.091   9.359 -0.0560  0.2482 -0.0611
    6POPC   PO4  495   9.241   5.294   9.021  0.0374 -0.1203 -0.0729
    6POPC   GL1  496   9.298   5.125   8.571 -0.2248  0.2820 -0.2456
    6POPC   GL2  497   9.008   5.000   8.344  0.2261  0.0219  0.4540
    6POPC   C1A  498   9.577   5.130   8.255  0.1995 -0.0639  0.0759
    6POPC   D2A  499   9.590   5.354   7.802 -0.1529  0.0761  0.2518
    6POPC   C3A  500   9.725   5.047   7.499  0.2399  0.0256 -0.0878
    6POPC   C4A  501   9.554   4.798   7.171 -0.0257 -0.1291  0.4119
    6POPC   C1B  502   9.137   4.929   7.883  0.2242 -0.0055 -0.0008
    6POPC   C2B  503   9.191   4.986   7.460 -0.0943 -0.1365 -0.1006
    6POPC   C3B  504   9.105   4.726   7.052  0.0727  0.3548  0.3079
    6POPC   C4B  505   8.802   4.514   6.874  0.0454  0.1826 -0.1562
    7POPC   NC3  506   2.233   2.116   9.197 -0.3306  0.0219  0.3015
    7POPC   PO4  507   2.583   1.738   9.109 -0.0955  0.0556 -0.0101
    7POPC   GL1  508   2.637   1.576   8.677  0.2562 -0.1095  0.1405
    7POPC   GL2  509   2.589   1.693   8.369 -0.2885  0.0548 -0.3824
    7POPC   C1A  510   2.359   1.255   8.476  0.1704  0.1220 -0.2154
    7POPC   D2A  511   2.117   1.120   8.137 -0.1781  0.2638  0.0648
    7POPC   C3A  512   2.271   0.956   7.760 -0.0252 -0.0577  0.1555
    7POPC   C4A  513   2.436   0.970   7.355  0.1266  0.1083 -0.0406
    7POPC   C1B  514   2.418   1.494   8.039  0.1825 -0.0432  0.1514
    7POPC   C2B  515   2.374   1.449   7.571  0.0199  0.1314 -0.1183
    7POPC   C3B  516   2.600   1.343   7.125 -0.2129 -0.2104  0.0717
    7POPC   C4B  517   2.808   1.688   6.935  0.0585 -0.0544  0.0226
    8POPC   NC3  518   5.854   3.874   9.094  0.0527 -0.1581 -0.2842
    8POPC   PO4  519   6.052   4.169   8.663 -0.1628  0.0940  0.0412
    8POPC   GL1  520   6.002   4.220   8.212 -0.0203 -0.1591 -0.1362
    8POPC   GL2  521   6.097   4.071   7.946 -0.0329 -0.0246  0.1175
    8POPC   C1A  522   5.770   4.437   7.904 -0.0927 -0.2210 -0.0066
    8POPC   D2A  523   5.752   4.728   7.560  0.0455  0.3481 -0.2130
    8POPC   C3A  524   5.325   4.755   7.295  0.1478 -0.2783 -0.2609
    8POPC   C4A  525   5.076   4.576   6.936  0.0362  0.0766  0.0013
    8POPC   C1B  526   6.402   4.053   7.645  0.0510  0.0716  0.1968
    8POPC   C2B  527   6.717   4.254   7.454  0.1275 -0.0090 -0.1071
    8POPC   C3B  528   6.874   4.346   7.033 -0.0458  0.0247 -0.1194
    8POPC   C4B  529   7.160   4.337   6.619 -0.2846  0.0362 -0.2498
    9POPC   NC3  530   1.700   9.545   8.747 -0.1113  0.0448  0.1122
    9POPC   PO4  531   1.493   9.182   8.290 -0.0354 -0.1293 -0.0520
    9POPC   GL1  532   1.633   9.140   7.944  0.4591 -0.0070  0.2373
    9POPC   GL2  533   1.930   9.305   7.795  0.1714 -0.3034 -0.1129
    9POPC   C1A  534   1.666   9.169   7.453 -0.2278  0.1824 -0.0995
    9POPC   D2A  535   1.531   9.014   7.092 -0.1363 -0.0054 -0.0127
    9POPC   C3A  536   1.727   9.328   6.764 -0.0987 -0.2163 -0.1244
    9POPC   C4A  537   1.758   9.144   6.351  0.1852 -0.0353  0.1883
    9POPC   C1B  538   2.282   9.403   7.683 -0.2033  0.0168 -0.0276
    9POPC   C2B  539   2.564   9.421   7.356 -0.2219 -0.0415 -0.4209
    9POPC   C3B  540   2.900   9.295   6.974 -0.0358 -0.0078  0.0889
    9POPC   C4B  541   2.874   9.336   6.611  0.0261  0.0009 -0.1417
   10POPC   NC3  542   6.582   9.438   8.110  0.0629 -0.1942  0.0569
   10POPC   PO4  543   6.731   9.045   8.202 -0.0871  0.0380  0.0064
   10POPC   GL1  544   6.735   8.962   7.786  0.0390  0.0003 -0.1359
   10POPC   GL2  545   6.847   8.764   7.654  0.0330 -0.0360  0.1222
   10POPC   C1A  546   6.427   8.899   7.342  0.0587  0.0058  0.0465
   10POPC   D2A  547   6.548   9.015   6.963  0.4500 -0.0246 -0.1048
   10POPC   C3A  548   6.737   8.812   6.509  0.0034  0.2695  0.4296
   10POPC   C4A  549   6.966   8.436   6.390 -0.0127  0.1083  0.4441
   10POPC   C1B  550   6.580   8.448   7.416  0.1681  0.3899 -0.0599
   10POPC   C2B  551   6.448   8.429   6.915 -0.3017 -0.2393 -0.1505
   10POPC   C3B  552   6.269   8.165   6.574  0.0359  0.0857 -0.1130
   10POPC   C4B  553   5.782   7.925   6.526  0.0445  0.2110 -0.4031
   11POPC   NC3  554   3.398   2.401   8.701  0.0244 -0.2851 -0.0396
   11POPC   PO4  555   3.663   2.325   8.363 -0.0912  0.0040 -0.2226
   11POPC   GL1  556   3.665   2.555   8.005 -0.1289  0.2427 -0.1748
   11POPC   GL2  557   3.471   2.855   7.981  0.0240  0.0444  0.0223
   11POPC   C1A  558   3.417   2.493   7.639 -0.0864 -0.3217  0.0277
   11POPC   D2A  559   3.120   2.387   7.354  0.0566  0.1730 -0.1694
   11POPC   C3A  560   2.929   2.633   7.095 -0.1541 -0.1073  0.2070
   11POPC   C4A  561   2.791   2.599   6.725 -0.3733  0.1007 -0.0123
   11POPC   C1B  562   3.156   2.921   7.666 -0.0432 -0.0024 -0.1554
   11POPC   C2B  563   3.036   3.147   7.288 -0.1316 -0.2853 -0.0904
   11POPC   C3B  564   2.989   3.137   6.852 -0.0430 -0.0523  0.0990
   11POPC   C4B  565   2.781   3.154   6.525 -0.1960 -0.2758  0.2647
   12POPC   NC3  566   0.666   0.838   9.353  0.0503  0.1287  0.3000
   12POPC   PO4  567   0.773   0.431   9.284 -0.0938  0.3579 -0.1273
   12POPC   GL1  568   0.832   0.442   8.866  0.3556 -0.1111  0.2976
   12POPC   GL2  569   0.838   0.145   8.690  0.4035  0.0028  0.2388
   12POPC   C1A  570   0.711   0.629   8.520 -0.1314  0.2704 -0.2244
   12POPC   D2A  571   0.653   0.768   8.024 -0.0548 -0.0002  0.1524
   12POPC   C3A  572   0.316   0.807   7.712  0.0213  0.1258  0.0623
   12POPC   C4A  573  -0.155   0.736   7.483  0.0378 -0.0994 -0.1268
   12POPC   C1B  574   0.859   0.270   8.212  0.5311  0.0959  0.0261
   12POPC   C2B  575   0.919   0.291   7.765 -0.2435 -0.0191  0.0168
   12POPC   C3B  576   0.843   0.709   7.541 -0.0796 -0.0380  0.3719
   12POPC   C4B  577   0.628   1.140   7.468  0.2825 -0.0778 -0.0531
   13POPC   NC3  578   1.652   3.430   9.480  0.4719 -0.1501 -0.0814
   13POPC   PO4  579   1.611   3.325   9.109  0.0584  0.1716 -0.1549
   13POPC   GL1  580   1.402   2.851   8.888 -0.0262 -0.0132 -0.1016
   13POPC   GL2  581   1.033   2.908   8.951  0.2859 -0.1067  0.2145
   13POPC   C1A  582   1.410   2.795   8.390  0.0836 -0.1216 -0.2318
   13POPC   D2A  583   1.118   2.652   8.046 -0.1300 -0.0314  0.0842
   13POPC   C3A  584   1.258   2.435   7.695 -0.1872 -0.2979  0.1339
   13POPC   C4A  585   1.410   2.454   7.328  0.0808 -0.2008 -0.1717
   13POPC   C1B  586   0.727   2.570   8.950  0.3509  0.0200  0.2197
   13POPC   C2B  587   0.511   2.361   8.654 -0.1171  0.0528 -0.1185
   13POPC   C3B  588   0.262   2.110   8.348 -0.1208  0.1998 -0.0410
   13POPC   C4B  589  -0.152   1.900   8.438 -0.1473 -0.3333  0.0461
   14POPC   NC3  590   0.913   7.176   8.636  0.1199  0.3322  0.1252
   14POPC   PO4  591   0.974   7.572   8.647 -0.1286 -0.3023  0.2216
   14POPC   GL1  592   1.080   7.589   8.173  0.4577  0.1646 -0.0641
   14POPC   GL2  593   1.330   7.355   8.098 -0.2738 -0.1375  0.1613
   14POPC   C1A  594   0.961   7.549   7.750 -0.0947 -0.1791 -0.1034
   14POPC   D2A  595   1.133   7.510   7.404  0.0677  0.0372  0.0942
   14POPC   C3A  596   1.104   7.271   7.028 -0.0956 -0.3041 -0.4070
   14POPC   C4A  597   0.719   7.190   6.879 -0.2612  0.0618  0.3161
   14POPC   C1B  598   1.352   7.036   7.767 -0.4595  0.2956  0.2056
   14POPC   C2B  599   1.257   6.623   7.603 -0.2179 -0.0188  0.0814
   14POPC   C3B  600   1.164   6.283   7.197  0.1406  0.2676  0.0180
   14POPC   C4B  601   0.729   6.187   6.996  0.1132 -0.0313  0.1942
   15POPC   NC3  602   7.852   0.334   8.171 -0.1872 -0.0802  0.0572
   15POPC   PO4  603   8.115   0.542   8.457 -0.0645  0.3794  0.0340
   15POPC   GL1  604   8.191   0.763   8.091  0.3042  0.1489 -0.1280
   15POPC   GL2  605   7.978   1.117   8.107 -0.0400 -0.2291 -0.2716
   15POPC   C1A  606   8.382   0.789   7.754  0.0489  0.0196  0.2491
   15POPC   D2A  607   8.657   0.964   7.525  0.4893 -0.0974  0.2547
   15POPC   C3A  608   9.014   0.996   7.401  0.2602  0.0315  0.0469
   15POPC   C4A  609   9.315   0.749   7.320  0.3696 -0.2112  0.2723
   15POPC   C1B  610   7.881   0.791   7.706 -0.2514 -0.2929 -0.4027
   15POPC   C2B  611   7.712   0.941   7.225 -0.4660 -0.0646 -0.1411
   15POPC   C3B  612   7.596   0.952   6.849  0.0621  0.0789  0.1083
   15POPC   C4B  613   7.364   1.087   6.426  0.1372  0.1337 -0.0980
   16POPC   NC3  614   5.641   7.980   8.594 -0.1429 -0.1700 -0.3584
   16POPC   PO4  615   5.541   8.396   8.533  0.1350  0.0582  0.0126
   16POPC   GL1  616   5.572   8.266   8.117  0.2215  0.2711  0.1753
   16POPC   GL2  617   5.805   8.456   8.021 -0.0323 -0.1835 -0.1392
   16POPC   C1A  618   5.943   7.978   7.993 -0.0602  0.0378  0.2314
   16POPC   D2A  619   5.952   7.892   7.519  0.0927  0.1978  0.2205
   16POPC   C3A  620   5.626   8.212   7.624  0.0526 -0.1743  0.2203
   16POPC   C4A  621   5.530   8.673   7.677 -0.0463  0.0729  0.1247
   16POPC   C1B  622   6.060   8.439   7.617 -0.0514  0.0399  0.2547
   16POPC   C2B  623   6.117   8.276   7.278 -0.0960  0.2577 -0.1192
   16POPC   C3B  624   5.800   8.028   7.088  0.2341  0.1256 -0.0392
   16POPC   C4B  625   5.699   7.590   6.866  0.1390 -0.1262 -0.0043
   17POPC   NC3  626   8.659   3.494   9.774  0.0980 -0.2015 -0.0846
   17POPC   PO4  627   8.943   3.803   9.610  0.2588 -0.3201  0.1204
   17POPC   GL1  628   9.133   3.852   9.210 -0.1803 -0.0987  0.1717
   17POPC   GL2  629   9.095   4.148   9.062  0.0766  0.0667  0.0355
   17POPC   C1A  630   9.409   3.834   8.755  0.0983  0.2330 -0.0919
   17POPC   D2A  631   9.756   3.776   8.578 -0.1085 -0.0732 -0.1223
   17POPC   C3A  632   9.745   3.793   8.133 -0.4910 -0.0915  0.3098
   17POPC   C4A  633   9.686   3.743   7.719 -0.0340 -0.0402  0.1542
   17POPC   C1B  634   8.960   4.033   8.548  0.3754  0.0150 -0.3044
   17POPC   C2B  635   8.771   3.988   8.234  0.3617 -0.1502  0.3455
   17POPC   C3B  636   8.617   3.847   7.780  0.2426 -0.0748 -0.1777
   17POPC   C4B  637   8.619   3.688   7.420  0.1944  0.2711  0.1289
   18POPC   NC3  638   2.357   7.885   8.359  0.1225  0.0961  0.0434
   18POPC   PO4  639   2.403   8.294   8.435 -0.0266  0.1344  0.2702
   18POPC   GL1  640   2.465   8.292   8.008  0.0246  0.1339 -0.2995
   18POPC   GL2  641   2.473   8.634   7.938  0.3236  0.2784  0.3143
   18POPC   C1A  642   2.572   8.280   7.619 -0.0733 -0.0344  0.0826
   18POPC   D2A  643   2.808   8.465   7.091 -0.3032 -0.0769  0.0072
   18POPC   C3A  644   2.587   8.355   6.805 -0.1148  0.1273  0.0679
   18POPC   C4A  645   2.239   8.447   6.612  0.2019 -0.0182  0.3676
   18POPC   C1B  646   2.189   8.849   7.677 -0.1686  0.0256 -0.0291
   18POPC   C2B  647   2.159   9.127   7.247  0.0103 -0.2838 -0.1712
   18POPC   C3B  648   2.328   9.328   6.870  0.2129  0.0346  0.0912
   18POPC   C4B  649   2.470   9.555   6.827 -0.2745 -0.4495 -0.1587
   19POPC   NC3  650   1.305   0.512   9.618 -0.0471  0.1556 -0.0325
   19POPC   PO4  651   1.235   0.608   9.151  0.0309  0.0508  0.0579
   19POPC   GL1  652   1.363   0.565   8.737 -0.2246 -0.0079  0.1850
   19POPC   GL2  653   1.631   0.750   8.604  0.2793 -0.2138  0.1249
   19POPC   C1A  654   1.303   0.564   8.259  0.2845 -0.0143 -0.0110
   19POPC   D2A  655   1.241   0.650   7.849  0.1940 -0.2316  0.2065
   19POPC   C3A  656   1.424   0.908   7.602  0.1445 -0.1584  0.0339
   19POPC   C4A  657   1.801   1.231   7.655  0.2425  0.1783  0.2691
   19POPC   C1B  658   1.699   0.996   8.328 -0.1252 -0.0515 -0.2298
   19POPC   C2B  659   1.559   1.306   8.067 -0.2618 -0.1720  0.1801
   19POPC   C3B  660   1.351   1.646   7.868 -0.0259 -0.1285 -0.2874
   19POPC   C4B  661   1.240   2.078   7.932 -0.2364  0.1820 -0.1292
   20POPC   NC3  662   0.830   3.101  10.187  0.0276 -0.0953  0.0458
   20POPC   PO4  663   0.720   3.075   9.686 -0.4284  0.0611  0.0284
   20POPC   GL1  664   0.683   2.903   9.294  0.2775 -0.0429  0.0123
   20POPC   GL2  665   0.622   3.207   9.165  0.1831  0.0645  0.2159
   20POPC   C1A  666   0.263   2.747   9.074  0.1126  0.0485 -0.1226
   20POPC   D2A  667  -0.010   2.370   8.958 -0.1917 -0.2872  0.0929
   20POPC   C3A  668  -0.057   2.437   8.530  0.0015  0.1241 -0.2939
   20POPC   C4A  669  -0.218   2.371   8.205  0.0884  0.1406  0.0512
   20POPC   C1B  670   0.290   3.332   9.009 -0.0448  0.0108 -0.0190
   20POPC   C2B  671   0.156   3.387   8.641 -0.2016  0.1976  0.0312
   20POPC   C3B  672   0.263   3.669   8.388  0.0378 -0.1603  0.0426
   20POPC   C4B  673   0.360   3.751   7.988  0.2265  0.1671  0.0494
   21POPC   NC3  674   4.426   6.439   8.676  0.1330  0.1796 -0.0164
   21POPC   PO4  675   4.665   6.287   8.341  0.1767  0.0507  0.2020
   21POPC   GL1  676   4.856   6.391   7.971 -0.0091 -0.0814 -0.0285
   21POPC   GL2  677   5.086   6.548   8.207 -0.0216 -0.0852  0.1596
   21POPC   C1A  678   4.870   6.297   7.611  0.1331 -0.0896  0.1809
   21POPC   D2A  679   4.833   6.056   7.290  0.0664 -0.3573  0.1347
   21POPC   C3A  680   4.600   5.747   7.017 -0.0686 -0.1923 -0.2322
   21POPC   C4A  681   4.484   5.355   7.011 -0.0939 -0.0238 -0.0540
   21POPC   C1B  682   5.215   6.754   7.895 -0.2404  0.1166  0.4370
   21POPC   C2B  683   5.560   7.056   7.669 -0.3056 -0.0677 -0.2284
   21POPC   C3B  684   5.744   6.851   7.317  0.1052 -0.0822 -0.1876
   21POPC   C4B  685   5.831   7.030   6.899  0.1509  0.1798  0.0099
   22POPC   NC3  686   4.388   7.385   9.154 -0.1821 -0.0632  0.1316
   22POPC   PO4  687   4.401   7.613   8.784 -0.2145 -0.1882 -0.0133
   22POPC   GL1  688   4.419   7.706   8.436 -0.2131 -0.0779 -0.1983
   22POPC   GL2  689   4.143   7.612   8.388 -0.0186 -0.2578  0.1487
   22POPC   C1A  690   4.345   7.757   7.975  0.3108  0.0797 -0.1285
   22POPC   D2A  691   4.064   7.648   7.642 -0.0018  0.1462  0.0527
   22POPC   C3A  692   3.930   7.816   7.312  0.0218 -0.2515  0.2536
   22POPC   C4A  693   3.891   8.270   7.169 -0.0330 -0.0876  0.1651
   22POPC   C1B  694   3.822   7.674   8.117 -0.0338 -0.1379 -0.2469
   22POPC   C2B  695   3.467   7.671   7.753  0.1706  0.0201 -0.0250
   22POPC   C3B  696   3.110   7.709   7.735  0.0561  0.2996 -0.2041
   22POPC   C4B  697   2.674   7.807   7.804  0.2956  0.2637 -0.5147
   23POPC   NC3  698   7.439   9.329   8.532  0.0240  0.2445  0.3225
   23POPC   PO4  699   7.190   9.018   8.475 -0.1275  0.0514  0.1818
   23POPC   GL1  700   7.253   9.252   8.059 -0.0557 -0.1632 -0.1597
   23POPC   GL2  701   7.024   9.428   7.854 -0.4170 -0.1385 -0.0810
   23POPC   C1A  702   7.201   9.052   7.569 -0.0163  0.1185  0.1616
   23POPC   D2A  703   6.976   8.953   7.182 -0.1705  0.2007  0.5096
   23POPC   C3A  704   7.098   8.993   6.800 -0.0819  0.0240 -0.0788
   23POPC   C4A  705   7.177   9.055   6.379 -0.1212  0.1299  0.1264
   23POPC   C1B  706   7.243   9.541   7.473 -0.0500  0.1546  0.0962
   23POPC   C2B  707   7.263   9.657   7.120  0.2425 -0.0051 -0.1252
   23POPC   C3B  708   7.260   9.473   6.732  0.1299 -0.0082  0.2288
   23POPC   C4B  709   7.305   9.547   6.292 -0.2861  0.1476  0.1605
   24POPC   NC3  710   9.247   2.565   9.622 -0.0629  0.2636 -0.2520
   24POPC   PO4  711   8.777   2.498   9.502 -0.0812 -0.0624  0.4791
   24POPC   GL1  712   8.596   2.724   9.109  0.0966  0.0786 -0.4832
   24POPC   GL2  713   8.765   2.998   9.053  0.2466  0.0852 -0.1684
   24POPC   C1A  714   8.566   2.849   8.631  0.1775  0.1861  0.0290
   24POPC   D2A  715   8.336   2.772   8.287 -0.4441 -0.4327 -0.2224
   24POPC   C3A  716   8.477   2.581   7.999  0.1134  0.0640  0.0026
   24POPC   C4A  717   8.468   2.676   7.525 -0.1854 -0.0841 -0.0804
   24POPC   C1B  718   8.847   3.369   8.868  0.0987  0.0532 -0.2755
   24POPC   C2B  719   9.093   3.539   8.531 -0.1308 -0.1789 -0.2446
   24POPC   C3B  720   9.278   3.750   8.073 -0.3307  0.2011 -0.0705
   24POPC   C4B  721   9.160   3.851   7.643 -0.0047  0.0551  0.0167
   25POPC   NC3  722   7.213   7.715   8.277 -0.2084 -0.0229  0.2151
   25POPC   PO4  723   6.995   8.061   8.405 -0.4409 -0.0609  0.0156
   25POPC   GL1  724   6.807   7.985   8.086 -0.6510 -0.1466 -0.1649
   25POPC   GL2  725   6.574   7.775   8.070 -0.1530 -0.2708 -0.0540
   25POPC   C1A  726   6.939   7.916   7.676  0.2341 -0.0131 -0.1709
   25POPC   D2A  727   6.994   7.761   7.222 -0.1101 -0.4688  0.0477
   25POPC   C3A  728   6.987   8.139   6.999 -0.1809 -0.1598 -0.0902
   25POPC   C4A  729   6.941   8.485   7.028  0.1325 -0.0852 -0.1557
   25POPC   C1B  730   6.202   7.601   7.859 -0.2163 -0.0578 -0.4373
   25POPC   C2B  731   5.727   7.561   7.806 -0.1600  0.2959  0.0164
   25POPC   C3B  732   5.735   7.423   7.403 -0.0400 -0.2143  0.2052
   25POPC   C4B  733   5.379   7.323   7.221 -0.3727 -0.0843  0.1699
   26POPC   NC3  734   2.388   5.785   8.723  0.4195 -0.1042  0.4377
   26POPC   PO4  735   2.355   5.548   8.344  0.0396  0.2023 -0.1769
   26POPC   GL1  736   2.438   5.417   8.032 -0.0590  0.0905 -0.0315
   26POPC   GL2  737   2.587   5.089   8.087  0.1097  0.0205  0.1125
   26POPC   C1A  738   2.341   5.367   7.589  0.1352  0.0715 -0.3375
   26POPC   D2A  739   2.369   5.496   7.177 -0.1469  0.3241  0.0006
   26POPC   C3A  740   2.696   5.824   6.999  0.0212  0.2898  0.1341
   26POPC   C4A  741   2.855   5.861   6.598 -0.0457  0.0100  0.0363
   26POPC   C1B  742   2.644   4.940   7.711  0.3260  0.2147 -0.0375
   26POPC   C2B  743   2.636   5.053   7.296  0.3725  0.2250 -0.5243
   26POPC   C3B  744   2.429   5.059   6.923  0.2312  0.0653 -0.0817
   26POPC   C4B  745   2.175   5.153   6.459 -0.0771  0.0297  0.1973
   27POPC   NC3  746   6.559   1.838   8.415 -0.2339 -0.2938  0.0575
   27POPC   PO4  747   6.975   1.627   8.352 -0.2669  0.0265 -0.1205
   27POPC   GL1  748   7.064   1.623   7.952  0.0793  0.0639 -0.1520
   27POPC   GL2  749   6.760   1.676   7.804 -0.1000  0.1630 -0.1860
   27POPC   C1A  750   7.397   1.662   7.632  0.2971 -0.1176 -0.1146
   27POPC   D2A  751   7.436   1.778   7.118 -0.2123  0.0759  0.1994
   27POPC   C3A  752   7.078   1.615   6.898 -0.1390  0.2202  0.0108
   27POPC   C4A  753   6.634   1.617   6.682 -0.0205  0.0311 -0.2422
   27POPC   C1B  754   6.560   1.869   7.532 -0.0909 -0.1402  0.2214
   27POPC   C2B  755   6.623   1.912   7.080  0.0274  0.2577  0.0133
   27POPC   C3B  756   6.427   2.059   6.759  0.2837 -0.2488  0.1460
   27POPC   C4B  757   6.541   2.522   6.614  0.2562  0.2396  0.0489
   28POPC   NC3  758   6.210   0.103   8.558  0.4311 -0.0176 -0.1010
   28POPC   PO4  759   6.584   0.058   8.251 -0.0794  0.1233 -0.1411
   28POPC   GL1  760   6.643  -0.008   7.821  0.0473  0.2959 -0.2389
   28POPC   GL2  761   6.401  -0.187   7.661  0.2308 -0.0201 -0.0483
   28POPC   C1A  762   6.854  -0.041   7.382 -0.3153  0.0475 -0.0967
   28POPC   D2A  763   6.638   0.254   7.253 -0.0639  0.0738  0.2381
   28POPC   C3A  764   6.561   0.292   6.820 -0.0601 -0.2091  0.2813
   28POPC   C4A  765   6.675   0.439   6.436 -0.2734  0.0103  0.1205
   28POPC   C1B  766   6.347  -0.140   7.264 -0.2029 -0.0695 -0.3633
   28POPC   C2B  767   6.293  -0.133   6.755  0.0820  0.0697 -0.2743
   28POPC   C3B  768   6.447  -0.158   6.369  0.1978 -0.0664  0.1623
   28POPC   C4B  769   6.443  -0.148   5.928 -0.0303 -0.2197  0.0966
   29POPC   NC3  770   5.141   4.631   8.806  0.0912 -0.0862 -0.0533
   29POPC   PO4  771   5.521   4.842   8.745 -0.0915  0.0547  0.2813
   29POPC   GL1  772   5.607   4.717   8.298 -0.0024 -0.0850 -0.1805
   29POPC   GL2  773   5.403   4.464   8.214  0.0649  0.0786 -0.2861
   29POPC   C1A  774   6.019   4.852   8.084  0.0474  0.3139  0.3861
   29POPC   D2A  775   6.222   5.018   7.701 -0.2140 -0.0006 -0.1395
   29POPC   C3A  776   6.162   4.849   7.283 -0.0800 -0.0921 -0.1552
   29POPC   C4A  777   6.288   4.979   6.867 -0.0222  0.2703 -0.0820
   29POPC   C1B  778   5.373   4.797   7.864 -0.0453  0.0202 -0.2391
   29POPC   C2B  779   5.335   5.147   7.588 -0.1475  0.1011 -0.1575
   29POPC   C3B  780   5.427   5.396   7.254  0.0136  0.0774 -0.1089
   29POPC   C4B  781   5.664   5.659   6.960  0.0166 -0.0710  0.4579
   30POPC   NC3  782   6.894   3.671   8.359  0.0081 -0.1343  0.0372
   30POPC   PO4  783   6.630   3.419   8.131 -0.1451 -0.1276 -0.0145
   30POPC   GL1  784   6.788   3.635   7.873 -0.0574 -0.1784  0.2064
   30POPC   GL2  785   6.706   3.923   8.003 -0.3325 -0.1400 -0.0840
   30POPC   C1A  786   6.770   3.737   7.479 -0.2734  0.2145  0.2902
   30POPC   D2A  787   6.635   3.831   7.160 -0.1233 -0.1096 -0.1367
   30POPC   C3A  788   6.282   3.980   7.118  0.0923  0.0727 -0.0689
   30POPC   C4A  789   5.921   4.160   6.875 -0.0657  0.0638 -0.0355
   30POPC   C1B  790   7.143   3.939   7.696 -0.1137 -0.0323  0.2679
   30POPC   C2B  791   7.129   3.964   7.208 -0.0725  0.1279 -0.0566
   30POPC   C3B  792   7.067   3.644   6.781  0.3079  0.0275  0.0008
   30POPC   C4B  793   7.110   3.605   6.340  0.0005  0.1536  0.0195
   31POPC   NC3  794   3.570   4.935   8.610  0.0359  0.1230  0.0392
   31POPC   PO4  795   3.573   5.295   8.301  0.0103 -0.2691 -0.2218
   31POPC   GL1  796   3.445   5.465   7.932  0.0803 -0.4527  0.1346
   31POPC   GL2  797   3.619   5.246   7.831 -0.0074 -0.2175  0.1568
   31POPC   C1A  798   3.411   5.435   7.445  0.1511  0.1639  0.3865
   31POPC   D2A  799   3.458   5.151   7.161  0.1014 -0.1082 -0.2579
   31POPC   C3A  800   3.638   5.304   6.771  0.0086  0.0543  0.3049
   31POPC   C4A  801   3.876   5.559   6.467 -0.1786  0.1450  0.0704
   31POPC   C1B  802   3.851   5.007   7.615 -0.2759 -0.0728  0.2622
   31POPC   C2B  803   3.890   4.782   7.243 -0.0203 -0.3731 -0.1245
   31POPC   C3B  804   3.822   4.738   6.730  0.0560 -0.1728 -0.3470
   31POPC   C4B  805   4.042   4.643   6.386  0.0236 -0.2750 -0.0358
   32POPC   NC3  806   6.693   7.664   8.595  0.0947 -0.0209  0.0848
   32POPC   PO4  807   6.422   7.344   8.426 -0.5376 -0.0349 -0.1710
   32POPC   GL1  808   6.558   7.318   8.086 -0.1657 -0.0587 -0.2797
   32POPC   GL2  809   6.900   7.430   8.003 -0.1938  0.0098 -0.4773
   32POPC   C1A  810   6.560   7.360   7.584 -0.0810 -0.1841 -0.0347
   32POPC   D2A  811   6.200   7.476   7.289 -0.0894  0.1543 -0.0455
   32POPC   C3A  812   6.240   7.531   6.867  0.1891 -0.2808 -0.1086
   32POPC   C4A  813   6.617   7.521   6.786 -0.0565  0.0051 -0.0077
   32POPC   C1B  814   7.099   7.306   7.583 -0.0509  0.2200  0.0768
   32POPC   C2B  815   7.305   7.365   7.198 -0.1276  0.2727 -0.1741
   32POPC   C3B  816   7.135   7.620   6.767 -0.0570 -0.0267  0.1146
   32POPC   C4B  817   7.288   7.876   6.383  0.0807  0.0344 -0.0617
   33POPC   NC3  818   2.018   8.596   8.617 -0.1615 -0.2383 -0.1307
   33POPC   PO4  819   1.556   8.529   8.592 -0.3209  0.3860 -0.1720
   33POPC   GL1  820   1.600   8.712   8.229  0.1315  0.2001  0.1343
   33POPC   GL2  821   1.390   8.454   8.088  0.2488 -0.2957 -0.0231
   33POPC   C1A  822   1.663   8.721   7.709  0.0100  0.3283  0.3013
   33POPC   D2A  823   1.889   8.758   7.269  0.1321  0.0576 -0.1620
   33POPC   C3A  824   2.238   8.580   7.218  0.0434 -0.3529  0.2501
   33POPC   C4A  825   2.334   8.197   7.171 -0.0769  0.0238 -0.1637
   33POPC   C1B  826   1.164   8.403   7.701  0.0323  0.0766 -0.2247
   33POPC   C2B  827   0.830   8.499   7.390  0.1230  0.2812  0.2323
   33POPC   C3B  828   0.729   8.507   6.970 -0.0477  0.0720 -0.2410
   33POPC   C4B  829   0.669   8.204   6.670 -0.2386  0.1661 -0.0636
   34POPC   NC3  830   0.998   1.357  10.084 -0.1458  0.1966  0.1533
   34POPC   PO4  831   0.841   1.346   9.722  0.3599 -0.0919 -0.1791
   34POPC   GL1  832   0.607   1.416   9.440 -0.1048 -0.4827  0.1090
   34POPC   GL2  833   0.355   1.725   9.617 -0.1469 -0.0031  0.1212
   34POPC   C1A  834   0.415   1.374   9.057  0.3068 -0.0318  0.2816
   34POPC   D2A  835   0.314   1.386   8.673  0.0281 -0.1271 -0.0764
   34POPC   C3A  836   0.399   1.648   8.212 -0.1545 -0.1707  0.2223
   34POPC   C4A  837   0.208   1.780   7.817 -0.1114  0.1014  0.1751
   34POPC   C1B  838   0.073   1.599   9.317  0.4845  0.0192  0.0464
   34POPC   C2B  839  -0.116   1.447   8.926 -0.3631  0.1077  0.0629
   34POPC   C3B  840  -0.163   1.422   8.447  0.1867 -0.2016  0.2894
   34POPC   C4B  841   0.097   1.277   8.210 -0.1661  0.1588 -0.1035
   35POPC   NC3  842   7.733   8.399   8.883  0.0716  0.4238  0.0209
   35POPC   PO4  843   7.849   8.646   8.526  0.0103 -0.0759  0.1613
   35POPC   GL1  844   7.761   8.482   8.064  0.0819  0.2165 -0.1960
   35POPC   GL2  845   8.120   8.288   7.856  0.1765 -0.2004  0.1031
   35POPC   C1A  846   7.659   8.162   7.684  0.0963  0.1570  0.0526
   35POPC   D2A  847   7.408   8.101   7.306  0.4450  0.0303 -0.0471
   35POPC   C3A  848   7.567   7.904   6.935  0.0313  0.1157 -0.1256
   35POPC   C4A  849   7.655   7.596   6.704  0.0333 -0.0102 -0.3192
   35POPC   C1B  850   8.348   8.625   7.644 -0.1227  0.0964  0.2536
   35POPC   C2B  851   8.669   8.769   7.282  0.0993 -0.2734 -0.1744
   35POPC   C3B  852   8.450   9.010   6.920  0.0327  0.1459 -0.2603
   35POPC   C4B  853   8.203   9.262   6.800 -0.2116 -0.3588 -0.0817
   36POPC   NC3  854   1.269   0.087   8.882  0.0458 -0.1261  0.1026
   36POPC   PO4  855   1.108  -0.252   8.730  0.1033  0.4207  0.0720
   36POPC   GL1  856   0.963  -0.424   8.349 -0.2787 -0.1107 -0.0565
   36POPC   GL2  857   0.926  -0.674   8.260  0.1294 -0.0274 -0.0742
   36POPC   C1A  858   0.839  -0.207   7.975  0.1424  0.4384  0.2270
   36POPC   D2A  859   0.536  -0.012   7.637 -0.2686 -0.2249 -0.1260
   36POPC   C3A  860   0.735   0.270   7.330  0.0765 -0.3423  0.2248
   36POPC   C4A  861   0.876   0.637   7.026  0.2852 -0.3199  0.1082
   36POPC   C1B  862   0.646  -0.639   7.821  0.0283 -0.4052 -0.1787
   36POPC   C2B  863   0.265  -0.498   7.649 -0.0002 -0.1570  0.5498
   36POPC   C3B  864   0.002  -0.278   7.535  0.0112  0.4780  0.1478
   36POPC   C4B  865  -0.252  -0.145   7.227  0.2116 -0.1637  0.0078
   37POPC   NC3  866   1.001   4.016   9.453  0.0880  0.1694 -0.0664
   37POPC   PO4  867   1.296   3.709   9.268  0.0551 -0.1012 -0.0099
   37POPC   GL1  868   0.963   3.702   8.963  0.0273  0.0846  0.0813
   37POPC   GL2  869   1.146   3.495   8.836  0.0020 -0.3658  0.0776
   37POPC   C1A  870   0.645   3.529   8.704 -0.1749  0.1094  0.2442
   37POPC   D2A  871   0.624   3.385   8.238  0.1058 -0.5243 -0.1501
   37POPC   C3A  872   0.154   3.287   8.106  0.2404 -0.2309 -0.0253
   37POPC   C4A  873  -0.223   3.303   7.990  0.0587 -0.0873 -0.0348
   37POPC   C1B  874   1.105   3.155   8.536 -0.0462 -0.1087 -0.0541
   37POPC   C2B  875   0.949   2.682   8.502  0.0230  0.0087  0.3342
   37POPC   C3B  876   0.992   2.309   8.416  0.3569 -0.0413 -0.0838
   37POPC   C4B  877   0.777   1.987   8.239  0.3620  0.0400 -0.3365
   38POPC   NC3  878   6.189   3.363   8.201  0.2192  0.4028 -0.0754
   38POPC   PO4  879   6.284   3.756   8.251 -0.1273  0.2418  0.3666
   38POPC   GL1  880   6.231   3.571   7.773  0.1062 -0.1470 -0.2095
   38POPC   GL2  881   6.496   3.295   7.635  0.0823  0.0414  0.1416
   38POPC   C1A  882   5.980   3.754   7.459  0.0959 -0.1809 -0.2256
   38POPC   D2A  883   5.617   3.895   7.178  0.3510  0.0444 -0.4029
   38POPC   C3A  884   5.220   3.679   7.019 -0.1440  0.2680  0.2945
   38POPC   C4A  885   4.730   3.492   6.844  0.0902 -0.2026  0.0531
   38POPC   C1B  886   6.654   2.983   7.426 -0.0286 -0.1312 -0.3306
   38POPC   C2B  887   6.651   2.911   7.046  0.2025  0.0752  0.0564
   38POPC   C3B  888   6.923   2.668   6.875  0.0036  0.1433  0.1903
   38POPC   C4B  889   7.404   2.616   6.880 -0.0388  0.1460 -0.0907
   39POPC   NC3  890   2.717   2.799   9.349 -0.1827  0.1015 -0.0835
   39POPC   PO4  891   2.896   2.651   8.954 -0.2876  0.1210  0.2357
   39POPC   GL1  892   2.893   2.515   8.479 -0.1616  0.0970 -0.0419
   39POPC   GL2  893   3.185   2.659   8.333  0.1097 -0.0236  0.0262
   39POPC   C1A  894   2.790   2.229   8.212 -0.2117 -0.1138  0.0259
   39POPC   D2A  895   2.445   2.073   7.959 -0.0328  0.1243 -0.1370
   39POPC   C3A  896   2.402   1.967   7.571 -0.0334  0.1477  0.1786
   39POPC   C4A  897   2.654   2.080   7.227  0.1874  0.0586 -0.2373
   39POPC   C1B  898   2.885   2.680   8.016 -0.1367 -0.0604 -0.1446
   39POPC   C2B  899   2.673   2.836   7.579  0.0293  0.2984  0.1505
   39POPC   C3B  900   2.514   2.910   7.171  0.2354 -0.2420 -0.0183
   39POPC   C4B  901   2.330   3.221   6.906  0.0039 -0.4746  0.0971
   40POPC   NC3  902   3.579   6.191   8.533  0.3333 -0.2965  0.2349
   40POPC   PO4  903   3.075   6.230   8.592  0.1059  0.1427  0.3570
   40POPC   GL1  904   2.913   6.046   8.260  0.0499 -0.2475  0.2367
   40POPC   GL2  905   2.610   6.006   8.297  0.0327  0.4128 -0.1955
   40POPC   C1A  906   2.923   6.265   7.779 -0.1926  0.0628  0.0515
   40POPC   D2A  907   2.632   6.160   7.438  0.4539  0.2915  0.3307
   40POPC   C3A  908   2.306   6.357   7.232  0.0275  0.2853  0.0738
   40POPC   C4A  909   2.064   6.700   7.229 -0.2510  0.2370 -0.0328
   40POPC   C1B  910   2.460   6.058   7.892  0.2470  0.0777 -0.0559
   40POPC   C2B  911   2.061   6.085   7.518 -0.1760 -0.0092  0.1036
   40POPC   C3B  912   2.196   5.930   7.055 -0.1053  0.1194 -0.1676
   40POPC   C4B  913   2.213   5.618   6.730  0.0361 -0.0369  0.0158
   41POPC   NC3  914   8.950   4.292   9.497  0.0198  0.1638 -0.0984
   41POPC   PO4  915   8.582   4.171   9.337 -0.3887  0.2094  0.4044
   41POPC   GL1  916   8.591   4.105   8.939 -0.3094  0.0108 -0.2427
   41POPC   GL2  917   8.601   4.385   8.722  0.2482 -0.0322  0.3249
   41POPC   C1A  918   8.604   3.747   8.616 -0.0213 -0.4671  0.1547
   41POPC   D2A  919   8.376   3.336   8.631  0.0988  0.0681  0.1788
   41POPC   C3A  920   8.223   3.239   8.207 -0.2328 -0.0820  0.1334
   41POPC   C4A  921   7.870   3.232   8.017  0.1912  0.0234  0.0973
   41POPC   C1B  922   8.432   4.282   8.349  0.5075 -0.0479 -0.0563
   41POPC   C2B  923   8.448   4.309   7.872 -0.1133  0.1314 -0.1153
   41POPC   C3B  924   8.614   4.587   7.535  0.2668  0.0172  0.2991
   41POPC   C4B  925   8.680   4.851   7.308  0.2059 -0.1525  0.1348
   42POPC   NC3  926   4.306   9.639   8.294 -0.1325 -0.4500  0.2036
   42POPC   PO4  927   4.699   9.607   8.190 -0.0395 -0.4891  0.1161
   42POPC   GL1  928   4.512   9.421   7.832  0.0497  0.2171  0.3159
   42POPC   GL2  929   4.301   9.520   7.592 -0.3563  0.3067 -0.1242
   42POPC   C1A  930   4.574   9.187   7.455  0.1388 -0.4735 -0.0066
   42POPC   D2A  931   4.371   8.948   7.105 -0.0779 -0.1024  0.1684
   42POPC   C3A  932   4.188   8.577   6.867 -0.0235 -0.1541 -0.1088
   42POPC   C4A  933   4.472   8.214   6.852  0.3338  0.0470 -0.1108
   42POPC   C1B  934   4.231   9.629   7.119  0.0930  0.1744 -0.2059
   42POPC   C2B  935   4.309   9.406   6.677 -0.4038 -0.0818  0.0751
   42POPC   C3B  936   4.208   9.415   6.328 -0.1055  0.0568  0.0464
   42POPC   C4B  937   3.986   9.545   5.995  0.4075 -0.4010 -0.3861
   43POPC   NC3  938   7.336   6.775   8.924  0.1850  0.0692  0.0531
   43POPC   PO4  939   7.407   6.904   8.556  0.0875  0.2201 -0.0375
   43POPC   GL1  940   7.501   6.928   8.110  0.1619  0.1778 -0.1286
   43POPC   GL2  941   7.360   7.265   8.060  0.0940 -0.0668  0.0956
   43POPC   C1A  942   7.461   6.519   7.779 -0.0268  0.2600 -0.1010
   43POPC   D2A  943   7.129   6.377   7.479 -0.0449 -0.0392  0.0351
   43POPC   C3A  944   7.247   6.307   7.113 -0.0796 -0.2921  0.2241
   43POPC   C4A  945   7.402   6.360   6.671  0.1743  0.1086  0.3588
   43POPC   C1B  946   7.528   7.101   7.673 -0.1629 -0.4098  0.0183
   43POPC   C2B  947   7.362   6.845   7.269  0.0526 -0.0996 -0.1272
   43POPC   C3B  948   7.141   6.798   6.879  0.3170  0.0310 -0.3385
   43POPC   C4B  949   6.862   7.092   6.574  0.0508 -0.1089  0.1939
   44POPC   NC3  950   8.061   4.061   8.879  0.2021  0.1858 -0.2751
   44POPC   PO4  951   7.735   3.788   8.814  0.0306 -0.0077 -0.2137
   44POPC   GL1  952   7.970   3.824   8.448 -0.0298  0.1547 -0.1603
   44POPC   GL2  953   7.774   3.729   8.176 -0.0765  0.0053  0.0457
   44POPC   C1A  954   8.314   3.731   8.218  0.0031  0.1190 -0.1147
   44POPC   D2A  955   8.744   3.499   8.188  0.0057  0.0958  0.1788
   44POPC   C3A  956   8.774   3.194   8.357  0.2120  0.3979  0.2650
   44POPC   C4A  957   8.969   2.800   8.336 -0.1624 -0.0773 -0.1090
   44POPC   C1B  958   7.594   3.723   7.724  0.0090  0.1744 -0.3175
   44POPC   C2B  959   7.501   3.690   7.317 -0.2715 -0.3425 -0.1205
   44POPC   C3B  960   7.591   3.766   6.916  0.1265  0.0486 -0.3302
   44POPC   C4B  961   7.964   3.850   6.636  0.3424 -0.1754  0.0270
   45POPC   NC3  962   3.120   0.592   8.731 -0.1943 -0.2825  0.1678
   45POPC   PO4  963   3.546   0.452   8.595  0.1925  0.1405 -0.1593
   45POPC   GL1  964   3.332   0.528   8.188 -0.0196 -0.1974 -0.3394
   45POPC   GL2  965   3.607   0.783   8.039 -0.0092 -0.2334 -0.0295
   45POPC   C1A  966   3.338   0.481   7.655 -0.2013  0.0931 -0.1830
   45POPC   D2A  967   3.678   0.501   7.255 -0.4114  0.1646 -0.0073
   45POPC   C3A  968   3.724   0.806   6.881  0.2638 -0.2485 -0.0457
   45POPC   C4A  969   3.475   1.182   6.776  0.0203 -0.0066 -0.2143
   45POPC   C1B  970   3.659   0.871   7.689  0.4868  0.1570 -0.1131
   45POPC   C2B  971   3.473   0.970   7.335  0.0644  0.0893  0.1597
   45POPC   C3B  972   3.253   0.789   6.984  0.0512  0.1286 -0.0937
   45POPC   C4B  973   3.358   0.691   6.510  0.1596 -0.0402 -0.3595
   46POPC   NC3  974   3.078   8.323   8.747  0.1529  0.4560  0.0352
   46POPC   PO4  975   3.477   8.275   8.443  0.1384 -0.3739 -0.0631
   46POPC   GL1  976   3.511   8.521   8.121 -0.0182  0.1597 -0.1563
   46POPC   GL2  977   3.775   8.713   7.941  0.2077 -0.1231  0.0171
   46POPC   C1A  978   3.427   8.427   7.676  0.2385  0.1350  0.1703
   46POPC   D2A  979   3.402   8.435   7.127  0.2013  0.0585  0.2358
   46POPC   C3A  980   3.213   8.092   6.906 -0.1521 -0.0998  0.4463
   46POPC   C4A  981   2.749   7.926   6.921 -0.0240 -0.2226 -0.0439
   46POPC   C1B  982   3.863   8.663   7.494  0.0267  0.0336 -0.1503
   46POPC   C2B  983   3.853   8.797   7.151 -0.0335  0.0109  0.0617
   46POPC   C3B  984   3.533   8.907   6.920 -0.0366  0.3007 -0.1413
   46POPC   C4B  985   3.331   9.215   6.712  0.3688  0.0768  0.2584
   47POPC   NC3  986   2.356   0.416   8.612  0.1270  0.2952  0.1855
   47POPC   PO4  987   1.945   0.471   8.813 -0.1798  0.0549 -0.0510
   47POPC   GL1  988   1.942   0.453   8.339 -0.1455  0.1505 -0.0382
   47POPC   GL2  989   2.115   0.644   8.111 -0.1502 -0.0422  0.0906
   47POPC   C1A  990   1.723   0.258   8.068 -0.0387  0.1821 -0.0985
   47POPC   D2A  991   1.364   0.167   7.885  0.0636 -0.0275 -0.1658
   47POPC   C3A  992   1.260   0.368   7.430 -0.1434  0.1218 -0.0331
   47POPC   C4A  993   1.205   0.264   6.979  0.0664 -0.0630 -0.0175
   47POPC   C1B  994   1.809   0.736   7.878 -0.0873 -0.1671 -0.0600
   47POPC   C2B  995   1.849   0.779   7.370  0.0717 -0.3835 -0.0111
   47POPC   C3B  996   1.916   0.544   7.086  0.2492  0.0147 -0.0101
   47POPC   C4B  997   2.019   0.104   6.865 -0.2742 -0.1728  0.1074
   48POPC   NC3  998   2.164   3.962   8.997  0.1291 -0.0355  0.1344
   48POPC   PO4  999   2.216   3.743   8.572  0.2644  0.0412  0.1706
   48POPC   GL1 1000   2.158   3.752   8.131 -0.1241 -0.0287 -0.0369
   48POPC   GL2 1001   2.078   3.411   8.123  0.1018 -0.0341 -0.0785
   48POPC   C1A 1002   2.180   3.775   7.729  0.0299 -0.1128  0.2751
   48POPC   D2A 1003   2.295   3.861   7.348 -0.0089  0.1651  0.1634
   48POPC   C3A 1004   1.949   4.167   7.097  0.1311 -0.2087  0.2071
   48POPC   C4A 1005   2.033   4.160   6.637 -0.1695  0.2709  0.0984
   48POPC   C1B 1006   1.853   3.328   7.794  0.0347  0.1215  0.2329
   48POPC   C2B 1007   1.728   3.619   7.560  0.1648 -0.2428  0.0168
   48POPC   C3B 1008   1.539   4.099   7.576 -0.5627  0.1568  0.0155
   48POPC   C4B 1009   1.117   4.370   7.604 -0.1431  0.1088 -0.0653
   49POPC   NC3 1010   9.717   8.550   8.285 -0.1123  0.1732 -0.1351
   49POPC   PO4 1011   9.661   8.129   8.417  0.1142 -0.1038 -0.0678
   49POPC   GL1 1012   9.769   8.169   8.016 -0.1279 -0.1955  0.0013
   49POPC   GL2 1013  10.066   7.981   7.806  0.0512  0.0020  0.3368
   49POPC   C1A 1014   9.640   8.242   7.676  0.0075  0.0771 -0.0950
   49POPC   D2A 1015   9.777   8.385   7.299 -0.0893 -0.0451 -0.1406
   49POPC   C3A 1016   9.869   8.639   6.944  0.3411  0.1355  0.1886
   49POPC   C4A 1017  10.275   8.714   6.720 -0.0634 -0.2166  0.0154
   49POPC   C1B 1018  10.050   7.587   7.556  0.0390  0.2039 -0.1313
   49POPC   C2B 1019  10.067   7.371   7.183 -0.2481  0.2558 -0.1923
   49POPC   C3B 1020  10.056   7.038   6.721 -0.0741 -0.3141 -0.3127
   49POPC   C4B 1021   9.865   6.653   6.661 -0.1821  0.0728  0.0513
   50POPC   NC3 1022   6.469   4.237   8.273 -0.0150 -0.0035 -0.0656
   50POPC   PO4 1023   6.929   4.216   8.363  0.1101  0.2598 -0.2150
   50POPC   GL1 1024   6.983   4.353   7.976  0.2690  0.1402  0.1139
   50POPC   GL2 1025   6.680   4.514   7.874 -0.1437  0.0406 -0.1468
   50POPC   C1A 1026   7.046   4.598   7.531  0.0308  0.1592  0.0225
   50POPC   D2A 1027   7.264   4.661   7.200 -0.0303 -0.1908 -0.2083
   50POPC   C3A 1028   7.524   4.389   6.942  0.0952 -0.0677 -0.2768
   50POPC   C4A 1029   7.913   4.363   6.740 -0.4006  0.2448 -0.0576
   50POPC   C1B 1030   6.315   4.526   7.696  0.1652 -0.1414  0.1745
   50POPC   C2B 1031   5.989   4.312   7.436 -0.1309  0.3412 -0.1037
   50POPC   C3B 1032   5.796   4.574   7.078  0.1253 -0.0308 -0.0302
   50POPC   C4B 1033   5.897   4.667   6.714  0.2804 -0.0997 -0.0890
   51POPC   NC3 1034   9.247   3.998   9.923  0.4150 -0.1036 -0.0269
   51POPC   PO4 1035   9.341   4.435   9.777 -0.2127  0.0688  0.0411
   51POPC   GL1 1036   9.467   4.164   9.429  0.2820  0.1522 -0.1977
   51POPC   GL2 1037   9.584   4.334   9.228  0.0099 -0.0972 -0.0728
   51POPC   C1A 1038   9.609   3.822   9.229 -0.3022  0.0154  0.1168
   51POPC   D2A 1039  10.024   3.764   9.053  0.1065  0.2647 -0.2839
   51POPC   C3A 1040  10.232   3.988   8.729  0.0395 -0.1156 -0.1518
   51POPC   C4A 1041  10.344   4.167   8.316  0.0870 -0.1034  0.3109
   51POPC   C1B 1042   9.660   4.209   8.816 -0.3229  0.1079 -0.2217
   51POPC   C2B 1043   9.900   4.278   8.475 -0.1896  0.1484 -0.3274
   51POPC   C3B 1044   9.943   4.304   8.074 -0.1498  0.3997 -0.2493
   51POPC   C4B 1045   9.518   4.201   7.877 -0.2769  0.4963 -0.0413
   52POPC   NC3 1046   3.330   9.939   8.431 -0.0008 -0.1665  0.0261
   52POPC   PO4 1047   2.867  10.209   8.459  0.0093  0.0169 -0.0632
   52POPC   GL1 1048   2.857  10.347   8.143 -0.3497  0.1324  0.1137
   52POPC   GL2 1049   2.979  10.173   7.871 -0.0511 -0.2896 -0.0092
   52POPC   C1A 1050   2.959  10.633   7.884  0.2096 -0.0733  0.2774
   52POPC   D2A 1051   2.948  10.818   7.474  0.1677 -0.1646 -0.1816
   52POPC   C3A 1052   2.784  10.783   7.048  0.2516 -0.0157 -0.0576
   52POPC   C4A 1053   2.921  11.151   6.745  0.1143  0.0156 -0.0770
   52POPC   C1B 1054   2.917  10.343   7.453  0.0816  0.1890 -0.0277
   52POPC   C2B 1055   3.114  10.234   7.071 -0.0801 -0.1795 -0.2199
   52POPC   C3B 1056   3.522  10.254   6.785  0.1943 -0.4232 -0.0582
   52POPC   C4B 1057   3.807  10.486   6.468 -0.0085  0.2215 -0.5929
   53POPC   NC3 1058   0.816   8.995   8.701  0.1524 -0.1877 -0.1545
   53POPC   PO4 1059   0.681   8.780   8.331 -0.3027 -0.1446  0.1511
   53POPC   GL1 1060   0.801   8.802   7.824  0.3018 -0.2201 -0.2076
   53POPC   GL2 1061   1.125   8.928   7.972 -0.0033 -0.1802  0.2243
   53POPC   C1A 1062   0.655   8.903   7.477 -0.2148 -0.2282  0.3818
   53POPC   D2A 1063   0.524   9.005   7.062 -0.0256 -0.0039 -0.1674
   53POPC   C3A 1064   0.589   9.334   7.055 -0.1459 -0.1452 -0.1384
   53POPC   C4A 1065   0.703   9.517   7.371 -0.2026  0.1673  0.0258
   53POPC   C1B 1066   1.221   8.893   7.483  0.0409  0.1437  0.0318
   53POPC   C2B 1067   1.042   8.882   7.052 -0.0769  0.3265 -0.0444
   53POPC   C3B 1068   0.861   9.114   6.662 -0.3167  0.0857 -0.0162
   53POPC   C4B 1069   0.454   9.334   6.544  0.0576  0.1789  0.1215
   54POPC   NC3 1070   3.435   3.651   8.357  0.0467  0.0053  0.1485
   54POPC   PO4 1071   3.796   3.343   8.543  0.2536  0.1161  0.0240
   54POPC   GL1 1072   3.812   3.335   8.127  0.1742 -0.0139  0.1960
   54POPC   GL2 1073   3.992   3.044   8.034  0.1766  0.0919  0.0752
   54POPC   C1A 1074   3.709   3.338   7.688 -0.3287 -0.1326 -0.0525
   54POPC   D2A 1075   3.580   3.312   7.234 -0.0028 -0.2720 -0.0669
   54POPC   C3A 1076   3.799   3.553   6.951  0.0029 -0.0314 -0.2962
   54POPC   C4A 1077   3.643   3.897   6.896  0.1804 -0.1092 -0.2673
   54POPC   C1B 1078   3.807   2.827   7.620 -0.1329  0.1542 -0.1439
   54POPC   C2B 1079   3.482   2.862   7.275 -0.0759 -0.1767  0.1599
   54POPC   C3B 1080   3.372   2.748   6.844  0.0728  0.1267 -0.1307
   54POPC   C4B 1081   3.293   2.671   6.520  0.1872  0.0822 -0.0818
   55POPC   NC3 1082   5.758   0.866   8.232 -0.1150 -0.1951  0.2700
   55POPC   PO4 1083   5.436   1.101   8.193  0.1024  0.1936  0.1031
   55POPC   GL1 1084   5.483   0.793   7.798  0.0968 -0.1674  0.2706
   55POPC   GL2 1085   5.608   0.421   7.930  0.1193 -0.0332  0.1542
   55POPC   C1A 1086   5.512   1.022   7.370  0.1531 -0.2133  0.2197
   55POPC   D2A 1087   5.337   0.932   6.969 -0.1187 -0.1460  0.0617
   55POPC   C3A 1088   5.621   1.078   6.642  0.0002  0.0479  0.0688
   55POPC   C4A 1089   5.826   1.299   6.352  0.1929  0.2554 -0.1746
   55POPC   C1B 1090   5.486   0.277   7.502  0.0232 -0.0032 -0.0789
   55POPC   C2B 1091   5.141   0.060   7.249  0.1291 -0.2190 -0.3013
   55POPC   C3B 1092   5.256  -0.274   7.034  0.1703 -0.2000 -0.1490
   55POPC   C4B 1093   5.436  -0.489   6.785  0.0478 -0.0130  0.1871
   56POPC   NC3 1094   1.700   6.599   8.271  0.2343  0.0538  0.0050
   56POPC   PO4 1095   2.202   6.495   8.389 -0.0910  0.1308  0.1369
   56POPC   GL1 1096   2.237   6.477   7.999  0.0621 -0.2184 -0.0510
   56POPC   GL2 1097   1.940   6.316   7.944  0.0359 -0.0979 -0.3617
   56POPC   C1A 1098   2.531   6.625   7.655  0.0053 -0.2225 -0.1102
   56POPC   D2A 1099   2.918   6.786   7.627  0.2803 -0.0061  0.0788
   56POPC   C3A 1100   2.878   7.112   7.387 -0.5436  0.3118  0.0695
   56POPC   C4A 1101   2.827   7.501   7.382  0.2559  0.1356  0.0988
   56POPC   C1B 1102   1.768   6.662   7.670  0.1158  0.0249 -0.0280
   56POPC   C2B 1103   1.572   6.648   7.227  0.1013  0.1009  0.2381
   56POPC   C3B 1104   1.342   6.812   7.022 -0.1847 -0.0819 -0.0303
   56POPC   C4B 1105   1.253   6.974   6.557 -0.0978  0.1011  0.1649
   57POPC   NC3 1106   1.879   5.606   8.614  0.1448 -0.4958  0.1745
   57POPC   PO4 1107   1.645   6.019   8.550 -0.1364 -0.3141 -0.2552
   57POPC   GL1 1108   1.608   5.983   8.074 -0.0490  0.0547 -0.0233
   57POPC   GL2 1109   1.439   6.220   8.071  0.3255  0.1713  0.2943
   57POPC   C1A 1110   1.814   5.773   7.762  0.0749 -0.1886  0.1455
   57POPC   D2A 1111   1.863   5.624   7.417 -0.2597 -0.0019  0.2828
   57POPC   C3A 1112   1.576   5.300   7.268  0.2806 -0.0111 -0.1067
   57POPC   C4A 1113   1.540   4.916   7.108 -0.1725 -0.2781  0.1174
   57POPC   C1B 1114   1.547   6.215   7.657  0.0118  0.2029  0.3571
   57POPC   C2B 1115   1.710   6.196   7.159 -0.1976  0.2604  0.0121
   57POPC   C3B 1116   2.003   6.353   6.798  0.2143  0.0959 -0.2939
   57POPC   C4B 1117   2.145   6.090   6.541  0.0077  0.2044  0.2568
   58POPC   NC3 1118   6.833   5.281   8.680  0.2766  0.2586 -0.3818
   58POPC   PO4 1119   7.183   5.610   8.729 -0.1017 -0.0749  0.1577
   58POPC   GL1 1120   7.156   5.478   8.216  0.0065  0.0655  0.5523
   58POPC   GL2 1121   7.504   5.450   8.105 -0.0632  0.2081 -0.1695
   58POPC   C1A 1122   6.852   5.496   7.834 -0.2152 -0.4534 -0.0654
   58POPC   D2A 1123   6.451   5.460   7.680  0.0795  0.0551  0.0563
   58POPC   C3A 1124   6.586   5.148   7.246 -0.0079  0.1076 -0.0562
   58POPC   C4A 1125   6.647   4.823   7.124 -0.0192  0.5109  0.0772
   58POPC   C1B 1126   7.547   5.197   7.733 -0.1355 -0.2182 -0.2545
   58POPC   C2B 1127   7.515   5.215   7.346  0.0638 -0.2905  0.0381
   58POPC   C3B 1128   7.737   5.285   6.964 -0.0156 -0.1967  0.2081
   58POPC   C4B 1129   7.719   5.674   6.691  0.2478 -0.0335 -0.3215
   59POPC   NC3 1130   2.192   4.792   8.472  0.1865 -0.1010 -0.1327
   59POPC   PO4 1131   2.057   5.126   8.506  0.0343 -0.2640  0.0863
   59POPC   GL1 1132   2.056   5.059   8.073 -0.3513  0.2093 -0.2812
   59POPC   GL2 1133   2.229   4.702   7.929 -0.1868  0.2844 -0.0093
   59POPC   C1A 1134   1.867   5.209   7.699  0.0162 -0.1268  0.2429
   59POPC   D2A 1135   2.034   5.036   7.292 -0.0051  0.0125  0.3345
   59POPC   C3A 1136   1.922   5.082   6.871 -0.0410 -0.0688 -0.0662
   59POPC   C4A 1137   1.522   5.081   6.629  0.0917  0.3018  0.0713
   59POPC   C1B 1138   1.853   4.701   7.797  0.0091  0.1373  0.0021
   59POPC   C2B 1139   1.713   4.578   7.345 -0.1063  0.0492 -0.0752
   59POPC   C3B 1140   1.435   4.344   7.141  0.2690 -0.0413 -0.2187
   59POPC   C4B 1141   1.150   4.434   6.820  0.0252  0.0938  0.2703
   60POPC   NC3 1142   3.134   9.324   8.170 -0.2682  0.2302  0.2141
   60POPC   PO4 1143   3.600   9.484   8.197  0.0402 -0.2772  0.2285
   60POPC   GL1 1144   3.524   9.330   7.834 -0.1509  0.4567 -0.0491
   60POPC   GL2 1145   3.589   9.614   7.552  0.0796  0.1525 -0.1808
   60POPC   C1A 1146   3.455   8.968   7.475 -0.1091  0.1019  0.0707
   60POPC   D2A 1147   3.080   8.888   7.241  0.0521 -0.0546 -0.1592
   60POPC   C3A 1148   2.957   8.780   6.773 -0.1074 -0.2070 -0.1854
   60POPC   C4A 1149   2.568   8.794   6.546 -0.1103 -0.1044  0.1973
   60POPC   C1B 1150   3.824   9.909   7.242  0.0241  0.1679  0.1750
   60POPC   C2B 1151   3.927  10.059   6.768 -0.2763 -0.3604  0.0521
   60POPC   C3B 1152   4.260  10.275   6.494  0.2028 -0.3275 -0.2393
   60POPC   C4B 1153   4.194  10.543   6.178 -0.0819 -0.0501 -0.1090
   61POPC   NC3 1154   5.750   7.143   8.955  0.3571 -0.3109  0.0417
   61POPC   PO4 1155   5.474   7.017   8.595  0.2737 -0.1730  0.1224
   61POPC   GL1 1156   5.149   7.163   8.239 -0.0315  0.3346  0.2321
   61POPC   GL2 1157   5.293   7.451   8.124  0.1081  0.1533  0.3216
   61POPC   C1A 1158   5.086   7.170   7.713  0.1624 -0.5196  0.0594
   61POPC   D2A 1159   4.890   7.363   7.413  0.0756  0.0323  0.0568
   61POPC   C3A 1160   4.790   7.205   7.025  0.1383  0.1822  0.0387
   61POPC   C4A 1161   4.683   6.943   6.701  0.1584 -0.0410  0.4285
   61POPC   C1B 1162   5.303   7.637   7.679 -0.0137 -0.4880  0.0018
   61POPC   C2B 1163   5.434   7.805   7.258  0.0005 -0.2680 -0.1355
   61POPC   C3B 1164   5.368   8.292   7.202 -0.0780 -0.1087 -0.0962
   61POPC   C4B 1165   5.653   8.546   7.169 -0.0350  0.3435 -0.0915
   62POPC   NC3 1166   4.805   8.830   8.613 -0.1403 -0.0398  0.0884
   62POPC   PO4 1167   4.924   9.091   8.375 -0.0563  0.0323  0.1966
   62POPC   GL1 1168   4.918   9.022   8.007  0.0450  0.1341 -0.0155
   62POPC   GL2 1169   4.621   8.739   8.118  0.0696 -0.0395  0.0754
   62POPC   C1A 1170   5.043   8.956   7.573 -0.1858  0.0816  0.2485
   62POPC   D2A 1171   4.965   8.632   7.225 -0.4231  0.0377 -0.1733
   62POPC   C3A 1172   4.755   8.704   6.931  0.2072 -0.1026 -0.1771
   62POPC   C4A 1173   4.627   9.063   6.702 -0.1830  0.3031 -0.0514
   62POPC   C1B 1174   4.363   8.936   7.801  0.4063  0.3651  0.1770
   62POPC   C2B 1175   4.042   9.094   7.532  0.2704 -0.0699  0.0981
   62POPC   C3B 1176   3.861   9.272   7.144  0.3892  0.3569 -0.1671
   62POPC   C4B 1177   3.875   9.595   6.775  0.5018 -0.0291  0.0805
   63POPC   NC3 1178   7.964   7.589   8.513 -0.1741 -0.0909 -0.2497
   63POPC   PO4 1179   7.958   8.102   8.421 -0.1457 -0.4383 -0.1662
   63POPC   GL1 1180   7.867   7.839   8.077  0.0553 -0.0267 -0.3480
   63POPC   GL2 1181   7.645   7.765   7.946  0.0551  0.1817  0.0373
   63POPC   C1A 1182   8.040   7.895   7.621 -0.0756  0.1286 -0.2325
   63POPC   D2A 1183   8.008   8.122   7.281  0.4083  0.4317  0.0804
   63POPC   C3A 1184   7.761   8.441   7.276 -0.1475  0.3187 -0.0411
   63POPC   C4A 1185   7.468   8.581   7.015  0.0366 -0.1477 -0.0065
   63POPC   C1B 1186   7.629   7.634   7.472  0.0245  0.1577 -0.1106
   63POPC   C2B 1187   7.984   7.585   7.169  0.0747 -0.0258 -0.1510
   63POPC   C3B 1188   8.170   7.381   6.837  0.3240  0.0645  0.0465
   63POPC   C4B 1189   8.172   7.018   6.802 -0.4896 -0.0903 -0.0215
   64POPC   NC3 1190   3.547   1.854   8.785  0.1192 -0.0261  0.2530
   64POPC   PO4 1191   3.537   1.820   8.351  0.1448  0.1722  0.0060
   64POPC   GL1 1192   3.528   1.733   7.921 -0.2384  0.0486 -0.2766
   64POPC   GL2 1193   3.535   1.949   7.710  0.1761 -0.0702 -0.2240
   64POPC   C1A 1194   3.759   1.469   7.631  0.2246  0.0761 -0.2812
   64POPC   D2A 1195   3.702   1.420   7.160 -0.0629  0.4104  0.1291
   64POPC   C3A 1196   3.927   1.228   6.935  0.0389  0.1324 -0.0584
   64POPC   C4A 1197   3.890   1.343   6.490 -0.0851  0.0055 -0.0658
   64POPC   C1B 1198   3.340   1.845   7.350 -0.1525 -0.1710 -0.3136
   64POPC   C2B 1199   3.376   1.732   6.932 -0.1000 -0.1799  0.2232
   64POPC   C3B 1200   3.882   1.722   6.826  0.2784  0.2014  0.1877
   64POPC   C4B 1201   4.219   2.069   6.512  0.2497  0.0961  0.0369
   65POPC   NC3 1202   4.218   0.278   8.116  0.2609 -0.1393  0.0646
   65POPC   PO4 1203   3.798   0.282   8.217 -0.1715 -0.0431 -0.1903
   65POPC   GL1 1204   3.517   0.027   8.015  0.2662 -0.1940  0.0323
   65POPC   GL2 1205   3.179  -0.212   7.922  0.2186  0.3011  0.3125
   65POPC   C1A 1206   3.270  -0.028   7.504  0.4089  0.0109 -0.2958
   65POPC   D2A 1207   2.911  -0.119   7.274  0.1240  0.3170 -0.0508
   65POPC   C3A 1208   2.917  -0.103   6.816  0.0443  0.1778 -0.0369
   65POPC   C4A 1209   3.023   0.238   6.569 -0.4029 -0.1261  0.2362
   65POPC   C1B 1210   2.843  -0.250   7.750 -0.0453  0.0101 -0.2791
   65POPC   C2B 1211   2.598  -0.012   7.573 -0.3182 -0.2659  0.0735
   65POPC   C3B 1212   2.288  -0.128   7.315 -0.3176 -0.0613 -0.0017
   65POPC   C4B 1213   1.873  -0.373   7.271 -0.1958 -0.0373  0.0963
   66POPC   NC3 1214   8.333   1.743   9.958 -0.1876 -0.0161 -0.0521
   66POPC   PO4 1215   8.297   1.751   9.539 -0.2530  0.0223  0.0389
   66POPC   GL1 1216   8.218   1.764   9.046  0.3223 -0.2274 -0.1571
   66POPC   GL2 1217   8.234   1.426   9.007 -0.0396 -0.2192  0.3370
   66POPC   C1A 1218   8.221   1.904   8.596 -0.0059  0.2232 -0.3303
   66POPC   D2A 1219   8.309   1.937   8.158  0.1475 -0.1623  0.0622
   66POPC   C3A 1220   8.113   2.249   7.913  0.2349  0.0640 -0.0462
   66POPC   C4A 1221   8.066   2.301   7.471 -0.0650 -0.1952 -0.1720
   66POPC   C1B 1222   8.648   1.426   8.743  0.2149 -0.3586 -0.2190
   66POPC   C2B 1223   8.835   1.488   8.343  0.1427  0.3987  0.1345
   66POPC   C3B 1224   9.172   1.371   8.134 -0.1344  0.1003  0.1146
   66POPC   C4B 1225   9.349   1.342   7.705  0.1295 -0.0269  0.0625
   67POPC   NC3 1226   6.763   8.540   8.478 -0.2668  0.2341 -0.0392
   67POPC   PO4 1227   6.527   8.146   8.498 -0.1078 -0.3275  0.2293
   67POPC   GL1 1228   6.333   8.281   8.078  0.2133 -0.0532  0.0614
   67POPC   GL2 1229   6.620   8.468   7.965  0.2141 -0.2389  0.0086
   67POPC   C1A 1230   6.413   8.084   7.700  0.1636 -0.1978  0.0825
   67POPC   D2A 1231   6.525   7.855   7.345 -0.3029  0.1300  0.2198
   67POPC   C3A 1232   6.524   7.991   6.986 -0.0957  0.0791 -0.2557
   67POPC   C4A 1233   6.740   8.021   6.528  0.1125  0.1135 -0.0728
   67POPC   C1B 1234   7.137   8.368   7.751 -0.1681  0.3873  0.0635
   67POPC   C2B 1235   7.458   8.601   7.605 -0.0917 -0.0103 -0.3167
   67POPC   C3B 1236   7.864   8.900   7.522  0.0104 -0.0025 -0.2761
   67POPC   C4B 1237   8.264   9.078   7.446  0.0178 -0.1220  0.1711
   68POPC   NC3 1238   2.950   4.572   8.960  0.0093  0.1626 -0.0480
   68POPC   PO4 1239   3.025   5.023   8.830 -0.1596  0.1070 -0.1824
   68POPC   GL1 1240   3.127   5.085   8.398  0.0550 -0.0263 -0.1154
   68POPC   GL2 1241   2.977   5.425   8.247 -0.0263 -0.3299 -0.3127
   68POPC   C1A 1242   3.148   5.006   7.982  0.0005  0.0313  0.1715
   68POPC   D2A 1243   3.107   5.074   7.532  0.2242 -0.1359 -0.1577
   68POPC   C3A 1244   3.049   4.759   7.173  0.1025 -0.0448 -0.0566
   68POPC   C4A 1245   2.795   4.672   6.820 -0.1949  0.0120  0.3796
   68POPC   C1B 1246   2.872   5.619   7.871  0.1335  0.0562 -0.2090
   68POPC   C2B 1247   2.786   5.489   7.423 -0.2027 -0.0408 -0.0223
   68POPC   C3B 1248   2.972   5.397   7.025  0.3338  0.1989  0.0250
   68POPC   C4B 1249   3.154   5.100   6.805 -0.1464 -0.0760  0.0161
   69POPC   NC3 1250   6.758   0.481   8.044  0.2731 -0.3318  0.1924
   69POPC   PO4 1251   6.631   0.824   8.200  0.0076 -0.0241 -0.0453
   69POPC   GL1 1252   6.706   0.916   7.811 -0.0292 -0.1160  0.1904
   69POPC   GL2 1253   6.539   1.230   7.664 -0.3388 -0.2803 -0.1789
   69POPC   C1A 1254   7.028   0.775   7.450  0.0946  0.1594  0.0702
   69POPC   D2A 1255   7.227   1.075   7.188 -0.0855 -0.2635  0.1981
   69POPC   C3A 1256   6.878   1.203   6.847 -0.1101 -0.0735  0.1008
   69POPC   C4A 1257   6.778   0.943   6.479 -0.0057  0.0695  0.1755
   69POPC   C1B 1258   6.535   0.918   7.290  0.0775 -0.0827  0.0483
   69POPC   C2B 1259   6.752   0.735   6.930  0.0934  0.1318 -0.2583
   69POPC   C3B 1260   7.081   0.584   6.755  0.0465  0.2014  0.0457
   69POPC   C4B 1261   7.381   0.375   6.615 -0.2342  0.1268 -0.1799
   70POPC   NC3 1262   6.598   6.722   8.368  0.0601 -0.0889 -0.3311
   70POPC   PO4 1263   6.885   6.405   8.124  0.2082 -0.0495  0.0780
   70POPC   GL1 1264   6.744   6.203   7.656  0.0398 -0.0187  0.3663
   70POPC   GL2 1265   6.638   5.959   7.753  0.0828  0.1093 -0.1600
   70POPC   C1A 1266   6.716   6.254   7.140 -0.1568  0.0760 -0.0909
   70POPC   D2A 1267   6.616   6.585   6.803 -0.0482  0.1211  0.1212
   70POPC   C3A 1268   6.247   6.607   6.528  0.2011 -0.0130 -0.0471
   70POPC   C4A 1269   6.111   6.697   6.110 -0.1181 -0.2129  0.0118
   70POPC   C1B 1270   6.637   5.842   7.391 -0.1250  0.0095  0.0986
   70POPC   C2B 1271   6.512   5.642   6.963 -0.0771 -0.3379 -0.2018
   70POPC   C3B 1272   6.858   5.564   6.747 -0.0596  0.2210  0.0969
   70POPC   C4B 1273   7.022   5.312   6.390 -0.1822 -0.0603 -0.0556
   71POPC   NC3 1274   0.400   7.739   8.915 -0.1188  0.1691 -0.2342
   71POPC   PO4 1275  -0.051   7.685   8.610  0.1253 -0.1521 -0.2569
   71POPC   GL1 1276  -0.123   7.650   8.162 -0.1458 -0.2637 -0.0915
   71POPC   GL2 1277   0.165   7.558   8.013  0.1460 -0.0585 -0.1171
   71POPC   C1A 1278  -0.334   7.737   7.828 -0.0875  0.0623 -0.3976
   71POPC   D2A 1279  -0.302   7.819   7.362  0.3343 -0.4306  0.1968
   71POPC   C3A 1280   0.011   7.892   7.149 -0.1455  0.2148 -0.0980
   71POPC   C4A 1281   0.289   8.243   6.963 -0.2926 -0.1631 -0.1765
   71POPC   C1B 1282   0.027   7.204   7.974 -0.4872  0.0895 -0.0092
   71POPC   C2B 1283  -0.057   6.886   7.747  0.0354 -0.3137 -0.2786
   71POPC   C3B 1284   0.018   6.376   7.600  0.1057 -0.1033 -0.0239
   71POPC   C4B 1285  -0.229   6.007   7.764  0.1622 -0.0310 -0.1879
   72POPC   NC3 1286   9.194   8.120   8.583  0.2062 -0.3688  0.0626
   72POPC   PO4 1287   8.876   8.126   8.277  0.0857  0.0443 -0.3022
   72POPC   GL1 1288   9.229   8.097   7.947 -0.3430  0.0196  0.1192
   72POPC   GL2 1289   9.317   8.385   7.985 -0.2895  0.0124 -0.3760
   72POPC   C1A 1290   9.230   7.921   7.592  0.2364  0.1440 -0.0300
   72POPC   D2A 1291   8.928   7.864   7.182  0.0326 -0.0939  0.3014
   72POPC   C3A 1292   8.920   8.126   6.843 -0.1763 -0.0911  0.2247
   72POPC   C4A 1293   9.215   8.302   6.629 -0.1205  0.0407  0.1071
   72POPC   C1B 1294   9.465   8.729   7.672 -0.3490  0.1804  0.0174
   72POPC   C2B 1295   9.483   8.785   7.305  0.2265 -0.0643 -0.2496
   72POPC   C3B 1296   9.340   8.759   6.879 -0.0211 -0.2754  0.2740
   72POPC   C4B 1297   9.136   8.715   6.417  0.1664  0.2445 -0.3607
   73POPC   NC3 1298   6.233   1.046   8.912  0.0230  0.2338 -0.0079
   73POPC   PO4 1299   6.185   1.028   8.526  0.0591 -0.1545  0.3328
   73POPC   GL1 1300   6.205   0.991   7.961  0.0448  0.2467  0.1603
   73POPC   GL2 1301   5.988   0.741   7.833 -0.1423  0.1152  0.1067
   73POPC   C1A 1302   6.094   1.085   7.508  0.0892 -0.0665  0.1593
   73POPC   D2A 1303   5.969   1.033   7.097  0.0694 -0.0365  0.2486
   73POPC   C3A 1304   6.349   1.073   6.788  0.2601  0.3560 -0.3677
   73POPC   C4A 1305   6.324   1.223   6.349 -0.0113  0.0333 -0.0422
   73POPC   C1B 1306   5.833   0.618   7.445  0.0175 -0.0898  0.1677
   73POPC   C2B 1307   5.626   0.400   7.035  0.2551  0.1282 -0.2955
   73POPC   C3B 1308   5.477   0.568   6.624 -0.2793  0.1482 -0.1127
   73POPC   C4B 1309   5.131   0.783   6.488  0.2716  0.0158 -0.0655
   74POPC   NC3 1310   4.302   2.171   8.374  0.5310  0.2421  0.0313
   74POPC   PO4 1311   4.568   2.222   8.064  0.0576  0.1678  0.1502
   74POPC   GL1 1312   4.372   2.559   7.816  0.1638  0.1758 -0.3063
   74POPC   GL2 1313   4.060   2.371   7.640 -0.2246  0.0515  0.0813
   74POPC   C1A 1314   4.299   2.744   7.397 -0.3335  0.2257 -0.0731
   74POPC   D2A 1315   4.334   2.653   6.972  0.0364 -0.2334 -0.1244
   74POPC   C3A 1316   4.249   2.954   6.715 -0.1791  0.0892  0.2132
   74POPC   C4A 1317   4.219   3.006   6.245  0.0066  0.1837 -0.2734
   74POPC   C1B 1318   3.820   2.503   7.216  0.1438  0.1816 -0.0764
   74POPC   C2B 1319   3.479   2.271   7.009  0.3643  0.0763  0.1748
   74POPC   C3B 1320   3.106   2.145   6.885 -0.1251  0.3213  0.2072
   74POPC   C4B 1321   2.702   2.135   6.681  0.0728  0.3355 -0.4416
   75POPC   NC3 1322   7.033   6.018   8.424  0.0589 -0.1116  0.3088
   75POPC   PO4 1323   7.515   5.897   8.430 -0.1146 -0.0064  0.0949
   75POPC   GL1 1324   7.408   5.925   7.998 -0.1832 -0.1628 -0.0270
   75POPC   GL2 1325   7.152   5.968   7.819  0.3388  0.1540  0.0873
   75POPC   C1A 1326   7.449   5.675   7.613  0.0133  0.1359  0.2380
   75POPC   D2A 1327   7.521   5.649   7.171  0.1693 -0.0234 -0.1781
   75POPC   C3A 1328   7.285   5.405   6.866 -0.2773  0.1752 -0.2593
   75POPC   C4A 1329   7.063   5.143   6.955  0.2146  0.0693 -0.2922
   75POPC   C1B 1330   7.545   6.108   7.394 -0.2408  0.3756 -0.3558
   75POPC   C2B 1331   7.883   6.027   7.138  0.1984 -0.1825 -0.1275
   75POPC   C3B 1332   8.148   6.361   7.122  0.1702  0.2101 -0.0880
   75POPC   C4B 1333   8.414   6.461   6.776  0.3405  0.0925 -0.0657
   76POPC   NC3 1334   5.166   9.447   8.163 -0.0121 -0.2138  0.1177
   76POPC   PO4 1335   5.349   9.912   8.174 -0.0192  0.0049 -0.2356
   76POPC   GL1 1336   5.420   9.789   7.754  0.1970 -0.0893 -0.0932
   76POPC   GL2 1337   5.060   9.704   7.762  0.2747  0.2664  0.0686
   76POPC   C1A 1338   5.558   9.639   7.403 -0.2694  0.0574  0.1199
   76POPC   D2A 1339   5.836   9.362   7.245 -0.0412  0.0386 -0.0164
   76POPC   C3A 1340   6.234   9.346   7.268  0.3349 -0.0449  0.1683
   76POPC   C4A 1341   6.742   9.352   7.420 -0.1005 -0.1549 -0.2809
   76POPC   C1B 1342   5.103   9.425   7.423 -0.1853 -0.1360  0.0003
   76POPC   C2B 1343   4.947   9.169   7.064 -0.1030  0.1912  0.2227
   76POPC   C3B 1344   5.098   9.142   6.655  0.0110 -0.1472  0.0141
   76POPC   C4B 1345   5.202   9.308   6.289  0.0779  0.2653 -0.0490
   77POPC   NC3 1346   1.174   5.181   9.834  0.1944 -0.0826  0.3799
   77POPC   PO4 1347   1.103   4.874   9.400 -0.0436 -0.2044  0.2040
   77POPC   GL1 1348   0.969   4.585   8.984  0.1914  0.3487  0.0769
   77POPC   GL2 1349   1.109   4.517   8.648 -0.0505  0.3569 -0.3621
   77POPC   C1A 1350   0.761   4.195   8.833  0.0284  0.1071  0.2415
   77POPC   D2A 1351   0.824   3.942   8.496 -0.1584  0.0752 -0.2009
   77POPC   C3A 1352   1.152   3.910   8.314 -0.1691 -0.0453  0.3740
   77POPC   C4A 1353   1.308   3.709   7.927  0.1206 -0.0606  0.2340
   77POPC   C1B 1354   1.450   4.095   8.629 -0.3746 -0.1829 -0.0819
   77POPC   C2B 1355   1.665   4.032   8.217 -0.0377  0.2097 -0.0427
   77POPC   C3B 1356   1.990   4.206   8.037 -0.0187 -0.1049  0.2607
   77POPC   C4B 1357   1.985   4.255   7.650 -0.0782 -0.0141  0.0462
   78POPC   NC3 1358   6.917   0.091   8.661 -0.1919 -0.0371 -0.0237
   78POPC   PO4 1359   7.145   0.107   8.170 -0.0209 -0.2277  0.0426
   78POPC   GL1 1360   7.298   0.032   7.823 -0.1780 -0.0414  0.0075
   78POPC   GL2 1361   7.649   0.068   7.743  0.1834  0.0408 -0.1731
   78POPC   C1A 1362   7.344   0.135   7.328  0.0049  0.0122  0.0018
   78POPC   D2A 1363   7.037   0.140   6.954 -0.2323  0.1398  0.3105
   78POPC   C3A 1364   6.740  -0.190   6.872  0.2546 -0.3166  0.0911
   78POPC   C4A 1365   6.595  -0.469   6.996 -0.1082 -0.0104  0.2275
   78POPC   C1B 1366   7.787  -0.014   7.247  0.1579  0.1141  0.0805
   78POPC   C2B 1367   7.594  -0.053   6.825  0.0529  0.3042  0.1487
   78POPC   C3B 1368   7.568   0.005   6.419  0.0653  0.1144 -0.0483
   78POPC   C4B 1369   7.391   0.231   6.095 -0.0443 -0.1004  0.2354
   79POPC   NC3 1370   8.311   8.836   8.498  0.1514  0.0368 -0.0815
   79POPC   PO4 1371   8.358   8.438   8.326  0.0685  0.2151 -0.0367
   79POPC   GL1 1372   8.571   8.673   8.114  0.0263  0.1123  0.2063
   79POPC   GL2 1373   8.829   8.555   8.120  0.0410 -0.1476 -0.1066
   79POPC   C1A 1374   8.613   9.070   7.799 -0.0815 -0.1802 -0.1731
   79POPC   D2A 1375   8.386   9.553   7.676  0.1238  0.2828  0.2190
   79POPC   C3A 1376   8.139   9.961   7.590  0.3725  0.4637 -0.1909
   79POPC   C4A 1377   8.058  10.369   7.431  0.4017  0.0553 -0.0252
   79POPC   C1B 1378   8.941   8.680   7.675 -0.1257  0.3575 -0.0887
   79POPC   C2B 1379   9.104   8.494   7.304  0.0763  0.2874  0.0779
   79POPC   C3B 1380   9.323   8.228   7.162 -0.1248 -0.0186  0.1820
   79POPC   C4B 1381   9.636   8.200   6.843 -0.2609 -0.1068  0.0753
   80POPC   NC3 1382   7.329   2.987   8.796  0.0162  0.0863  0.0645
   80POPC   PO4 1383   7.313   2.449   8.789 -0.0838 -0.0916 -0.1726
   80POPC   GL1 1384   7.367   2.603   8.418  0.0105  0.0224  0.1159
   80POPC   GL2 1385   7.141   2.737   8.148 -0.2006  0.1792 -0.4263
   80POPC   C1A 1386   7.843   2.718   8.166  0.3059 -0.0940  0.1531
   80POPC   D2A 1387   8.001   2.854   7.767 -0.1030  0.3487 -0.0565
   80POPC   C3A 1388   7.843   3.176   7.506  0.3037 -0.2259 -0.1697
   80POPC   C4A 1389   7.945   3.373   7.109 -0.0349 -0.0189 -0.0736
   80POPC   C1B 1390   7.007   2.692   7.694  0.1738  0.0332 -0.1399
   80POPC   C2B 1391   7.115   2.880   7.292  0.0786 -0.0466 -0.1754
   80POPC   C3B 1392   7.476   3.159   7.090 -0.2160 -0.0011  0.1523
   80POPC   C4B 1393   7.680   3.046   6.692 -0.2247  0.0832  0.0747
   81POPC   NC3 1394   6.248   5.911   8.906  0.1783 -0.1555 -0.2186
   81POPC   PO4 1395   6.391   5.487   8.750  0.0807 -0.2450 -0.0235
   81POPC   GL1 1396   6.553   5.258   8.188 -0.0601 -0.0517  0.3336
   81POPC   GL2 1397   6.278   5.418   8.175  0.0746  0.0552 -0.2031
   81POPC   C1A 1398   6.695   5.013   7.779  0.0823  0.0744  0.1686
   81POPC   D2A 1399   7.095   5.147   7.513  0.0527  0.1772  0.1953
   81POPC   C3A 1400   6.982   5.430   7.300 -0.0697 -0.0160  0.2176
   81POPC   C4A 1401   7.095   5.866   7.080  0.2154  0.1102 -0.1023
   81POPC   C1B 1402   6.217   5.821   8.001 -0.3425  0.0302 -0.0261
   81POPC   C2B 1403   6.171   6.150   7.638 -0.2041 -0.2694 -0.2108
   81POPC   C3B 1404   6.272   6.498   7.403 -0.2039  0.0680 -0.0642
   81POPC   C4B 1405   6.153   6.647   7.069  0.0759  0.0569  0.4406
   82POPC   NC3 1406   2.363   2.624   9.085 -0.0290  0.1298  0.3944
   82POPC   PO4 1407   2.432   3.010   8.964 -0.2031  0.2491 -0.0549
   82POPC   GL1 1408   2.404   2.720   8.587 -0.0987 -0.0798  0.2339
   82POPC   GL2 1409   2.514   2.952   8.234 -0.0955  0.1502 -0.1309
   82POPC   C1A 1410   2.323   2.372   8.364  0.0344  0.1889 -0.0524
   82POPC   D2A 1411   1.995   2.181   8.167  0.0415  0.0074 -0.2651
   82POPC   C3A 1412   1.903   2.112   7.661 -0.0217 -0.2444  0.2368
   82POPC   C4A 1413   1.800   2.113   7.254 -0.2564 -0.4578  0.0582
   82POPC   C1B 1414   2.287   2.665   7.876 -0.0010 -0.0170 -0.0955
   82POPC   C2B 1415   2.274   2.403   7.519 -0.1250 -0.2534  0.0600
   82POPC   C3B 1416   2.264   2.374   7.122  0.0639  0.1058  0.0810
   82POPC   C4B 1417   2.220   2.657   6.738  0.0641 -0.2107 -0.1370
   83POPC   NC3 1418   4.255   1.256   8.347  0.1697 -0.0169  0.1981
   83POPC   PO4 1419   4.106   1.574   8.146  0.0604 -0.0048  0.2919
   83POPC   GL1 1420   4.428   1.453   7.905 -0.0363  0.1630  0.4186
   83POPC   GL2 1421   4.531   1.065   7.866 -0.2147  0.0549  0.0015
   83POPC   C1A 1422   4.654   1.560   7.455  0.0828 -0.0497  0.1768
   83POPC   D2A 1423   4.632   1.879   7.152 -0.1087  0.0799  0.0366
   83POPC   C3A 1424   4.229   2.069   7.084  0.2354 -0.2999 -0.2398
   83POPC   C4A 1425   3.880   1.898   7.301 -0.2240 -0.0030  0.3861
   83POPC   C1B 1426   4.676   1.071   7.383  0.2958 -0.0360 -0.2992
   83POPC   C2B 1427   4.890   0.953   6.986 -0.0723 -0.0297  0.1673
   83POPC   C3B 1428   4.637   1.141   6.672  0.2011  0.0764  0.0093
   83POPC   C4B 1429   4.426   1.280   6.223  0.1909  0.0179 -0.1379
   84POPC   NC3 1430   5.484   2.464   8.365  0.0448  0.0885 -0.2492
   84POPC   PO4 1431   5.383   2.892   8.367  0.2619 -0.3238  0.2687
   84POPC   GL1 1432   5.373   2.762   7.942  0.0903 -0.0614 -0.0148
   84POPC   GL2 1433   5.605   2.452   7.904 -0.2114  0.0427 -0.1905
   84POPC   C1A 1434   5.501   2.908   7.605  0.2156 -0.3055 -0.0124
   84POPC   D2A 1435   5.642   2.834   7.193 -0.2113  0.0388  0.1609
   84POPC   C3A 1436   5.782   3.059   6.824  0.0958 -0.3155 -0.1477
   84POPC   C4A 1437   6.301   2.982   6.667 -0.0775 -0.3003 -0.2078
   84POPC   C1B 1438   5.801   2.449   7.505  0.0190 -0.2627  0.1692
   84POPC   C2B 1439   5.743   2.296   7.104 -0.1852 -0.5688  0.0295
   84POPC   C3B 1440   5.891   1.933   6.844 -0.3925 -0.0787 -0.1199
   84POPC   C4B 1441   6.009   1.456   6.792 -0.0018 -0.1489  0.0275
   85POPC   NC3 1442   4.127   5.561   8.768  0.2033 -0.0447 -0.1794
   85POPC   PO4 1443   4.146   5.120   8.632  0.0365  0.1596  0.0144
   85POPC   GL1 1444   4.367   5.364   8.381  0.0204 -0.0518 -0.0228
   85POPC   GL2 1445   4.054   5.564   8.298 -0.0478  0.0004  0.2166
   85POPC   C1A 1446   4.562   5.445   7.979 -0.2449  0.0415  0.1233
   85POPC   D2A 1447   4.814   5.605   7.604 -0.2880 -0.0387 -0.1518
   85POPC   C3A 1448   4.943   5.306   7.264  0.0711  0.0427  0.1609
   85POPC   C4A 1449   4.963   5.131   6.855  0.1700 -0.0519 -0.0525
   85POPC   C1B 1450   4.087   5.453   7.866  0.1998 -0.2463 -0.3369
   85POPC   C2B 1451   3.933   5.445   7.362  0.2126 -0.2574 -0.2900
   85POPC   C3B 1452   4.058   5.664   6.935  0.0337  0.4197  0.2993
   85POPC   C4B 1453   4.365   5.571   6.556  0.1724 -0.0593  0.0092
   86POPC   NC3 1454   0.184   7.997   8.310  0.0420  0.0390 -0.0843
   86POPC   PO4 1455   0.375   8.411   8.368 -0.0427 -0.0643 -0.1194
   86POPC   GL1 1456   0.234   8.427   7.939 -0.3200 -0.2632 -0.0239
   86POPC   GL2 1457  -0.012   8.596   7.822 -0.2337  0.1114 -0.1506
   86POPC   C1A 1458   0.337   8.304   7.559  0.0970 -0.1953 -0.0617
   86POPC   D2A 1459   0.498   7.969   7.354  0.0464 -0.0528  0.1597
   86POPC   C3A 1460   0.824   7.968   7.485  0.0847 -0.1131 -0.0520
   86POPC   C4A 1461   1.255   8.052   7.386  0.2205 -0.1818 -0.2120
   86POPC   C1B 1462   0.114   8.789   7.433 -0.2361 -0.1902 -0.3776
   86POPC   C2B 1463   0.085   9.146   7.192 -0.0860  0.1671 -0.1855
   86POPC   C3B 1464   0.117   9.519   6.964 -0.0580 -0.0380  0.2624
   86POPC   C4B 1465   0.313   9.926   7.138  0.2063 -0.0795  0.0390
   87POPC   NC3 1466   1.367   1.939   9.621 -0.2228  0.1380 -0.3442
   87POPC   PO4 1467   1.080   2.284   9.745 -0.1205 -0.0434 -0.0684
   87POPC   GL1 1468   0.936   2.252   9.317 -0.4478  0.0273  0.1121
   87POPC   GL2 1469   0.631   2.357   9.409 -0.0335 -0.2026 -0.0258
   87POPC   C1A 1470   0.838   2.090   8.899  0.2573 -0.0041  0.1028
   87POPC   D2A 1471   0.641   1.850   8.669  0.0103 -0.1042  0.1718
   87POPC   C3A 1472   0.857   1.432   8.736  0.4888  0.0522 -0.0196
   87POPC   C4A 1473   1.147   1.090   8.570 -0.1225 -0.0443  0.0282
   87POPC   C1B 1474   0.515   1.922   9.207  0.0730  0.1876  0.1452
   87POPC   C2B 1475   0.142   1.900   8.930  0.0199  0.0209  0.0643
   87POPC   C3B 1476  -0.411   1.899   8.894 -0.6328  0.2342 -0.0362
   87POPC   C4B 1477  -0.771   2.077   8.779 -0.0585 -0.3146  0.0298
   88POPC   NC3 1478   0.833   4.488   9.528  0.1155 -0.0392 -0.2108
   88POPC   PO4 1479   0.414   4.550   9.378  0.0902  0.1688  0.1682
   88POPC   GL1 1480   0.319   4.570   9.020 -0.1612  0.1032 -0.0783
   88POPC   GL2 1481   0.046   4.489   8.989 -0.0519  0.0194 -0.1434
   88POPC   C1A 1482   0.390   4.654   8.570  0.0803 -0.4817  0.0440
   88POPC   D2A 1483   0.025   4.838   8.349  0.0204  0.0139  0.1660
   88POPC   C3A 1484  -0.398   4.615   8.298 -0.4011 -0.0735 -0.0417
   88POPC   C4A 1485  -0.502   4.147   8.371  0.0623 -0.1522 -0.0887
   88POPC   C1B 1486  -0.303   4.705   8.835  0.0423  0.0635  0.2246
   88POPC   C2B 1487  -0.688   4.524   8.763  0.1512  0.0869 -0.3899
   88POPC   C3B 1488  -0.940   4.506   8.377 -0.3297 -0.3991 -0.0314
   88POPC   C4B 1489  -0.936   4.295   7.944 -0.0699 -0.1100  0.1646
   89POPC   NC3 1490   0.621   6.207   8.555  0.1919 -0.1056 -0.2196
   89POPC   PO4 1491   0.824   6.158   8.332  0.0184  0.1948 -0.2029
   89POPC   GL1 1492   0.723   6.036   7.885 -0.3080 -0.1682 -0.0978
   89POPC   GL2 1493   1.057   6.163   7.726 -0.1226 -0.1435  0.0524
   89POPC   C1A 1494   0.394   6.052   7.698  0.0689 -0.1278 -0.2398
   89POPC   D2A 1495   0.213   5.934   7.291  0.2241 -0.0438 -0.0048
   89POPC   C3A 1496   0.441   5.792   7.012 -0.0699 -0.1002  0.0538
   89POPC   C4A 1497   0.832   5.619   6.912  0.1050  0.2537  0.2410
   89POPC   C1B 1498   0.753   6.436   7.530  0.0527 -0.3861 -0.1891
   89POPC   C2B 1499   0.363   6.406   7.286  0.0282 -0.3384 -0.0827
   89POPC   C3B 1500   0.242   6.232   6.869 -0.1477 -0.1396  0.2400
   89POPC   C4B 1501  -0.135   6.124   6.706 -0.0251  0.0807 -0.0048
   90POPC   NC3 1502   9.565   7.307   8.521 -0.0072 -0.1630 -0.0055
   90POPC   PO4 1503   9.661   6.851   8.413  0.0286  0.2006  0.1634
   90POPC   GL1 1504   9.502   7.005   8.131 -0.0975  0.1068 -0.1606
   90POPC   GL2 1505   9.490   7.302   7.999  0.1835 -0.1084  0.2594
   90POPC   C1A 1506   9.341   6.900   7.701 -0.2070 -0.2680 -0.1621
   90POPC   D2A 1507   9.278   6.832   7.282  0.0259 -0.0961 -0.1214
   90POPC   C3A 1508   9.555   6.974   6.904 -0.1032  0.2576  0.0922
   90POPC   C4A 1509   9.392   7.273   6.600  0.1168 -0.1691  0.0118
   90POPC   C1B 1510   9.602   7.311   7.562 -0.0982  0.2375 -0.0726
   90POPC   C2B 1511   9.483   7.384   7.165  0.1669  0.1283 -0.1225
   90POPC   C3B 1512   9.360   7.746   6.933  0.0027  0.2449  0.0902
   90POPC   C4B 1513   9.352   7.851   6.449  0.0992  0.0530 -0.0755
   91POPC   NC3 1514   3.367   7.199   8.702  0.0564  0.0482 -0.1444
   91POPC   PO4 1515   3.726   7.073   8.574  0.0993 -0.0909 -0.0237
   91POPC   GL1 1516   3.555   7.150   8.182  0.0050 -0.1939  0.1267
   91POPC   GL2 1517   3.342   7.406   8.234 -0.0787 -0.1510  0.0719
   91POPC   C1A 1518   3.747   7.199   7.750  0.2024 -0.1949  0.1990
   91POPC   D2A 1519   3.846   7.152   7.308 -0.2578  0.0026 -0.1618
   91POPC   C3A 1520   4.080   7.461   7.075  0.0811 -0.0840  0.1822
   91POPC   C4A 1521   4.218   7.728   6.816 -0.1082 -0.1555  0.1009
   91POPC   C1B 1522   3.253   7.189   7.795  0.0345 -0.0044  0.0052
   91POPC   C2B 1523   3.384   7.340   7.321 -0.0483  0.1223 -0.2740
   91POPC   C3B 1524   3.558   7.517   7.082  0.2989  0.1121 -0.0912
   91POPC   C4B 1525   3.708   7.948   6.839  0.2446  0.2764  0.0107
   92POPC   NC3 1526   1.587   2.407   9.796  0.2158  0.0276  0.0371
   92POPC   PO4 1527   1.928   2.491   9.349  0.0055  0.0661 -0.0780
   92POPC   GL1 1528   1.776   2.271   9.005  0.4089 -0.0492 -0.1026
   92POPC   GL2 1529   1.983   2.333   8.724 -0.3498  0.2122 -0.0545
   92POPC   C1A 1530   1.502   2.311   8.617  0.1167  0.3899  0.2626
   92POPC   D2A 1531   1.508   2.369   8.178 -0.3038 -0.0284  0.0371
   92POPC   C3A 1532   1.754   2.528   7.884 -0.2937  0.0051 -0.1427
   92POPC   C4A 1533   1.843   2.650   7.484  0.0589  0.1361 -0.4780
   92POPC   C1B 1534   1.911   2.727   8.525  0.0509 -0.0989  0.0235
   92POPC   C2B 1535   1.927   2.885   8.141 -0.0295 -0.0671  0.3360
   92POPC   C3B 1536   1.526   2.926   7.825 -0.2355 -0.0678  0.3568
   92POPC   C4B 1537   1.453   3.036   7.398  0.0347 -0.1739  0.0604
   93POPC   NC3 1538   7.942   6.155   8.483  0.2106 -0.1057 -0.0021
   93POPC   PO4 1539   8.293   6.182   8.273 -0.2240  0.0086 -0.0025
   93POPC   GL1 1540   8.367   6.322   8.008 -0.1856 -0.1738 -0.1916
   93POPC   GL2 1541   8.686   6.469   7.886 -0.0922 -0.3310 -0.1493
   93POPC   C1A 1542   8.319   6.524   7.597  0.0712  0.1689 -0.0065
   93POPC   D2A 1543   8.219   6.847   7.310 -0.1398 -0.2440  0.2976
   93POPC   C3A 1544   8.519   7.196   7.290 -0.0102  0.3304 -0.1312
   93POPC   C4A 1545   8.652   7.478   6.977 -0.0015 -0.2650  0.5433
   93POPC   C1B 1546   9.007   6.366   7.546 -0.1626  0.3287  0.1090
   93POPC   C2B 1547   9.424   6.279   7.483 -0.1410  0.0821 -0.0671
   93POPC   C3B 1548   9.649   5.910   7.278  0.2321  0.3368 -0.1535
   93POPC   C4B 1549   9.887   5.650   6.878  0.0940 -0.0171 -0.1567
   94POPC   NC3 1550   9.520   2.885  10.334 -0.0402  0.0222 -0.1892
   94POPC   PO4 1551   9.417   3.012   9.877  0.1126  0.0516  0.2876
   94POPC   GL1 1552   9.545   3.036   9.490 -0.0022 -0.2035 -0.1430
   94POPC   GL2 1553   9.564   3.347   9.393  0.0630 -0.1484 -0.2025
   94POPC   C1A 1554   9.678   2.893   9.071 -0.4107 -0.0217 -0.0756
   94POPC   D2A 1555   9.771   2.910   8.727 -0.0766 -0.2597  0.0501
   94POPC   C3A 1556  10.184   2.854   8.571  0.2271 -0.1728 -0.0299
   94POPC   C4A 1557  10.572   3.039   8.620 -0.0192 -0.2908 -0.2129
   94POPC   C1B 1558   9.670   3.390   8.940  0.0774  0.0669 -0.3807
   94POPC   C2B 1559   9.549   3.356   8.460  0.0857 -0.1075  0.0602
   94POPC   C3B 1560   9.268   3.248   8.122 -0.1661 -0.0313 -0.2420
   94POPC   C4B 1561   8.948   3.426   7.736 -0.2739 -0.2730  0.0448
   95POPC   NC3 1562   6.787   2.754   8.516  0.0146  0.3056  0.0657
   95POPC   PO4 1563   7.030   3.134   8.473  0.0356  0.0727 -0.2740
   95POPC   GL1 1564   7.081   3.274   8.077  0.1565 -0.0252 -0.0497
   95POPC   GL2 1565   7.238   3.528   7.991 -0.2002 -0.1225 -0.2094
   95POPC   C1A 1566   7.490   2.996   7.822  0.0108  0.0538 -0.0888
   95POPC   D2A 1567   7.481   2.547   7.827  0.0479  0.0317 -0.0242
   95POPC   C3A 1568   7.650   2.070   7.754 -0.1511 -0.1115 -0.1978
   95POPC   C4A 1569   7.800   1.786   7.443 -0.0869  0.0250 -0.0672
   95POPC   C1B 1570   7.221   3.349   7.564  0.1390  0.1003  0.0164
   95POPC   C2B 1571   6.920   3.332   7.191 -0.2448  0.0325  0.1802
   95POPC   C3B 1572   6.436   3.367   7.137  0.1388 -0.1256 -0.3231
   95POPC   C4B 1573   6.249   3.542   6.756 -0.2052  0.0709  0.0289
   96POPC   NC3 1574   4.127   3.350   8.960  0.2874  0.1617 -0.0914
   96POPC   PO4 1575   4.344   3.795   8.739 -0.1810  0.2791 -0.3272
   96POPC   GL1 1576   4.540   3.839   8.397  0.0776  0.3926 -0.1038
   96POPC   GL2 1577   4.686   4.024   8.329  0.0080  0.0721  0.0529
   96POPC   C1A 1578   4.193   3.684   7.964 -0.1149 -0.0385  0.0035
   96POPC   D2A 1579   3.979   3.650   7.412 -0.1302 -0.1029  0.0040
   96POPC   C3A 1580   3.950   4.117   7.200 -0.0218  0.0390 -0.0678
   96POPC   C4A 1581   4.212   4.423   6.905 -0.2825 -0.1034  0.1424
   96POPC   C1B 1582   4.560   4.013   7.901  0.0777 -0.1756  0.3851
   96POPC   C2B 1583   4.826   4.076   7.573  0.3388  0.0455 -0.0337
   96POPC   C3B 1584   5.182   3.754   7.505 -0.0218 -0.0379 -0.0270
   96POPC   C4B 1585   5.255   3.274   7.277 -0.1354  0.2203  0.0513
   97POPC   NC3 1586   7.326   1.976   8.754  0.3169  0.1219  0.0342
   97POPC   PO4 1587   6.908   2.152   8.596 -0.1310 -0.1848  0.2611
   97POPC   GL1 1588   7.262   2.125   8.234  0.0831 -0.0664  0.5284
   97POPC   GL2 1589   7.485   1.786   8.173  0.1888 -0.1784  0.0245
   97POPC   C1A 1590   7.137   2.132   7.797  0.0209  0.0347 -0.0837
   97POPC   D2A 1591   7.016   1.914   7.372  0.0225 -0.0802 -0.0713
   97POPC   C3A 1592   6.996   2.157   6.897 -0.0677 -0.1635  0.0723
   97POPC   C4A 1593   7.196   2.303   6.485 -0.0652  0.3947 -0.2815
   97POPC   C1B 1594   7.806   2.170   8.351 -0.1286 -0.1441  0.1197
   97POPC   C2B 1595   8.137   2.383   8.447  0.0198  0.1572  0.2266
   97POPC   C3B 1596   8.579   2.355   8.515 -0.0497  0.1726 -0.2865
   97POPC   C4B 1597   8.914   2.428   8.676  0.2756  0.2383 -0.1458
   98POPC   NC3 1598   9.796   0.625   9.579  0.1685 -0.1078 -0.0978
   98POPC   PO4 1599  10.150   0.546   9.198  0.0867  0.0253  0.2893
   98POPC   GL1 1600  10.306   0.787   8.876  0.1290  0.1751  0.1277
   98POPC   GL2 1601  10.638   0.993   8.834  0.1170 -0.0082  0.0355
   98POPC   C1A 1602  10.162   0.857   8.463  0.0548  0.2643 -0.0084
   98POPC   D2A 1603  10.026   0.807   8.135 -0.0848  0.3677 -0.3642
   98POPC   C3A 1604   9.795   0.417   7.950  0.1044 -0.3929 -0.0573
   98POPC   C4A 1605   9.792   0.063   7.829  0.2676 -0.1060 -0.0829
   98POPC   C1B 1606  10.585   1.183   8.381 -0.4247  0.4020 -0.0845
   98POPC   C2B 1607  10.546   1.272   7.971  0.2004 -0.0508  0.1589
   98POPC   C3B 1608  10.163   1.287   7.748 -0.4556 -0.2497  0.0474
   98POPC   C4B 1609   9.805   1.098   7.800 -0.3300 -0.0389  0.2584
   99POPC   NC3 1610   4.590   4.167   8.932 -0.2045 -0.0645 -0.0385
   99POPC   PO4 1611   4.686   4.481   8.647 -0.0305 -0.2497  0.0195
   99POPC   GL1 1612   4.582   4.615   8.217 -0.0051  0.0475 -0.0173
   99POPC   GL2 1613   4.568   4.910   8.180  0.0692 -0.2586 -0.3465
   99POPC   C1A 1614   4.443   4.474   7.858  0.1816 -0.2912  0.2618
   99POPC   D2A 1615   4.317   4.550   7.420 -0.1213  0.1193  0.0817
   99POPC   C3A 1616   4.648   4.410   7.156  0.3677  0.0493 -0.1530
   99POPC   C4A 1617   4.671   4.352   6.651 -0.2952 -0.0771  0.0576
   99POPC   C1B 1618   4.389   4.944   7.843 -0.0593 -0.2190  0.2034
   99POPC   C2B 1619   4.416   5.233   7.510  0.1794  0.0823 -0.1494
   99POPC   C3B 1620   4.318   5.695   7.455  0.1626 -0.0029  0.1638
   99POPC   C4B 1621   4.142   6.116   7.464  0.0499  0.2658 -0.1421
  100POPC   NC3 1622   0.241   5.835   8.695 -0.0329 -0.0571  0.1341
  100POPC   PO4 1623   0.144   6.317   8.449  0.0693 -0.0852  0.1243
  100POPC   GL1 1624   0.300   6.270   8.094  0.2549 -0.3073  0.0262
  100POPC   GL2 1625   0.387   5.874   8.181 -0.1282 -0.1576 -0.1956
  100POPC   C1A 1626   0.423   6.725   7.716  0.2686 -0.2766 -0.0451
  100POPC   D2A 1627   0.383   6.942   7.349  0.1877 -0.0575 -0.0982
  100POPC   C3A 1628   0.012   6.793   7.159 -0.1792 -0.0121 -0.0435
  100POPC   C4A 1629  -0.175   6.383   7.142 -0.3043 -0.0621  0.1211
  100POPC   C1B 1630   0.081   5.609   7.802 -0.1932 -0.2298  0.0163
  100POPC   C2B 1631   0.010   5.497   7.428  0.2964  0.0891  0.1461
  100POPC   C3B 1632   0.138   5.268   7.107 -0.1430 -0.2488  0.0418
  100POPC   C4B 1633   0.370   5.415   6.674 -0.1051 -0.1487  0.1594
  101POPC   NC3 1634   7.055   1.137   8.289  0.0046  0.3180  0.1254
  101POPC   PO4 1635   7.059   0.718   8.500 -0.0796 -0.0113 -0.0529
  101POPC   GL1 1636   7.216   0.697   8.047 -0.1592 -0.0895  0.0362
  101POPC   GL2 1637   7.442   0.520   7.941  0.2175 -0.1191 -0.3031
  101POPC   C1A 1638   7.439   0.955   7.742  0.0363  0.0615  0.2695
  101POPC   D2A 1639   7.775   1.312   7.507  0.1330  0.4102 -0.1933
  101POPC   C3A 1640   7.837   1.431   7.079  0.2003  0.2296 -0.1721
  101POPC   C4A 1641   7.631   1.466   6.690  0.2487 -0.1925 -0.0657
  101POPC   C1B 1642   7.443   0.528   7.550 -0.0150  0.0773 -0.1202
  101POPC   C2B 1643   7.554   0.492   7.090 -0.2715 -0.2481 -0.2470
  101POPC   C3B 1644   7.885   0.555   6.834 -0.2535 -0.0506 -0.0756
  101POPC   C4B 1645   8.173   0.654   6.463  0.2787 -0.1232  0.1582
  102POPC   NC3 1646   7.256   1.512   9.054 -0.1489  0.0155  0.3202
  102POPC   PO4 1647   7.688   1.652   8.898 -0.1922 -0.1004 -0.3832
  102POPC   GL1 1648   7.874   1.560   8.482  0.0476  0.0102 -0.2141
  102POPC   GL2 1649   8.180   1.440   8.435  0.0650  0.0062 -0.1560
  102POPC   C1A 1650   7.950   1.589   7.999 -0.1265 -0.1211 -0.0672
  102POPC   D2A 1651   8.298   1.811   7.644 -0.3211 -0.2864 -0.0016
  102POPC   C3A 1652   8.525   2.126   7.641  0.1370 -0.0228 -0.0328
  102POPC   C4A 1653   8.933   2.255   7.542  0.0519 -0.0020  0.1155
  102POPC   C1B 1654   8.433   1.444   8.104 -0.0909 -0.1533  0.2105
  102POPC   C2B 1655   8.350   1.296   7.737 -0.1415 -0.1358  0.0470
  102POPC   C3B 1656   8.219   1.103   7.269  0.1063 -0.1992  0.0211
  102POPC   C4B 1657   8.150   0.995   6.867 -0.0657 -0.2024  0.3389
  103POPC   NC3 1658   4.856   0.962   8.229  0.1039 -0.3154 -0.0631
  103POPC   PO4 1659   4.857   1.376   8.353  0.2535  0.2401  0.1490
  103POPC   GL1 1660   5.025   1.326   7.870 -0.3492  0.0029  0.0263
  103POPC   GL2 1661   5.013   0.988   7.748  0.1011  0.3462  0.1226
  103POPC   C1A 1662   5.179   1.444   7.428  0.1457 -0.0137 -0.2924
  103POPC   D2A 1663   4.956   1.475   7.046  0.2155 -0.2297  0.2346
  103POPC   C3A 1664   4.977   1.784   6.661 -0.3131  0.1866  0.2983
  103POPC   C4A 1665   5.141   1.797   6.288  0.1784 -0.6844 -0.2811
  103POPC   C1B 1666   5.139   0.611   7.370 -0.2642  0.1535  0.1579
  103POPC   C2B 1667   5.112   0.397   6.916 -0.0106 -0.2090  0.1369
  103POPC   C3B 1668   4.834   0.178   6.760 -0.3356 -0.0129 -0.1863
  103POPC   C4B 1669   4.561  -0.031   6.548 -0.0232 -0.1430  0.1176
  104POPC   NC3 1670   5.895   5.225   8.624  0.2701  0.1297 -0.2318
  104POPC   PO4 1671   5.488   5.282   8.519  0.1368 -0.1420  0.0886
  104POPC   GL1 1672   5.405   5.171   8.128 -0.0711 -0.0280  0.2061
  104POPC   GL2 1673   5.031   5.339   8.048  0.1816  0.2234  0.1140
  104POPC   C1A 1674   5.739   5.176   7.792 -0.1013 -0.1575 -0.1672
  104POPC   D2A 1675   5.937   5.497   7.491  0.1095 -0.3364  0.0372
  104POPC   C3A 1676   6.011   5.311   7.159 -0.0951  0.0328  0.0023
  104POPC   C4A 1677   5.709   5.119   7.008  0.2131 -0.0838  0.2837
  104POPC   C1B 1678   4.916   5.018   7.815  0.1059 -0.0352 -0.0794
  104POPC   C2B 1679   4.808   4.829   7.446 -0.0212 -0.0021 -0.1315
  104POPC   C3B 1680   4.462   4.886   7.161  0.0577  0.2969  0.0657
  104POPC   C4B 1681   4.559   4.838   6.782  0.0824 -0.2994  0.0748
  105POPC   NC3 1682   8.776   5.048   8.827  0.0726 -0.2212 -0.0862
  105POPC   PO4 1683   8.405   4.884   8.842 -0.0776 -0.0018 -0.0398
  105POPC   GL1 1684   8.547   4.752   8.429 -0.1622 -0.2809 -0.0302
  105POPC   GL2 1685   8.348   4.851   8.217 -0.3480  0.2537  0.1078
  105POPC   C1A 1686   8.726   4.700   8.019 -0.1018 -0.1125  0.1958
  105POPC   D2A 1687   8.669   5.045   7.734 -0.6271  0.0411 -0.3105
  105POPC   C3A 1688   8.232   5.082   7.537  0.0169 -0.0449 -0.2532
  105POPC   C4A 1689   7.975   5.085   7.371 -0.0808  0.1101  0.0451
  105POPC   C1B 1690   8.179   4.774   7.889  0.2229  0.0499  0.1529
  105POPC   C2B 1691   8.130   4.592   7.431  0.1691  0.3177  0.0438
  105POPC   C3B 1692   8.180   4.697   6.993  0.1522  0.1611 -0.1282
  105POPC   C4B 1693   8.330   5.098   6.861 -0.0588 -0.0202 -0.3375
  106POPC   NC3 1694   9.225   1.811   9.711 -0.0880 -0.3556  0.1114
  106POPC   PO4 1695   9.562   2.165   9.561 -0.1100  0.2791 -0.0252
  106POPC   GL1 1696   9.486   2.392   9.187  0.0960 -0.2742  0.1674
  106POPC   GL2 1697   9.174   2.693   9.130  0.0164 -0.1944 -0.0313
  106POPC   C1A 1698   9.448   2.530   8.703 -0.0405  0.0598 -0.2268
  106POPC   D2A 1699   9.269   2.291   8.330  0.3764  0.0260  0.0586
  106POPC   C3A 1700   9.323   1.888   8.280  0.1435 -0.0898  0.0737
  106POPC   C4A 1701   9.660   1.605   7.978 -0.0352  0.1631  0.2985
  106POPC   C1B 1702   9.250   3.022   8.744 -0.2602  0.1165  0.4387
  106POPC   C2B 1703   9.450   2.842   8.304 -0.0299  0.2756  0.1129
  106POPC   C3B 1704   9.852   2.830   8.148 -0.0534 -0.3612 -0.5057
  106POPC   C4B 1705  10.209   2.813   7.896 -0.0654  0.1162 -0.0154
  107POPC   NC3 1706   7.344   4.573   8.433 -0.2322 -0.4556  0.2200
  107POPC   PO4 1707   7.573   4.227   8.572  0.0271  0.1652  0.1622
  107POPC   GL1 1708   7.696   4.297   8.123  0.1536  0.1281 -0.0794
  107POPC   GL2 1709   7.987   4.366   8.158 -0.0915  0.1182 -0.0878
  107POPC   C1A 1710   7.463   4.321   7.744 -0.2972 -0.0253 -0.0071
  107POPC   D2A 1711   7.580   4.193   7.391 -0.1032  0.0558 -0.0852
  107POPC   C3A 1712   7.937   4.092   7.213  0.0286 -0.1804  0.2775
  107POPC   C4A 1713   8.258   3.763   7.039 -0.0846  0.2103  0.0442
  107POPC   C1B 1714   7.979   4.108   7.811  0.1503 -0.2651 -0.0923
  107POPC   C2B 1715   8.369   4.126   7.430 -0.0953 -0.0053 -0.0962
  107POPC   C3B 1716   8.861   4.171   7.415 -0.0874 -0.0888  0.0949
  107POPC   C4B 1717   9.197   4.444   7.574 -0.0948  0.1423  0.2687
  108POPC   NC3 1718   9.820   1.350  10.013  0.0938 -0.1413  0.1596
  108POPC   PO4 1719   9.816   1.165   9.752 -0.1461  0.0536  0.1253
  108POPC   GL1 1720   9.683   1.017   9.341  0.0143 -0.1166 -0.2372
  108POPC   GL2 1721   9.768   0.793   9.017  0.2259  0.0351  0.0177
  108POPC   C1A 1722   9.437   1.159   8.995  0.0444 -0.1602  0.0147
  108POPC   D2A 1723   9.098   1.136   8.720  0.0767  0.1268 -0.0678
  108POPC   C3A 1724   9.052   0.922   8.424 -0.1768  0.4156  0.0779
  108POPC   C4A 1725   9.179   0.551   8.121  0.0821 -0.4710 -0.1671
  108POPC   C1B 1726   9.617   0.855   8.559 -0.1831  0.3604 -0.5225
  108POPC   C2B 1727   9.559   1.030   8.194 -0.0433  0.2092 -0.0503
  108POPC   C3B 1728   9.421   0.843   7.804  0.1143  0.2830 -0.2966
  108POPC   C4B 1729   8.999   0.584   7.653  0.0796 -0.0256 -0.1599
  109POPC   NC3 1730   5.763   9.620   8.042  0.0956  0.1358  0.0232
  109POPC   PO4 1731   6.167   9.768   8.148  0.0191 -0.0646  0.0160
  109POPC   GL1 1732   6.111  10.180   7.974 -0.2578  0.1275 -0.1679
  109POPC   GL2 1733   5.967  10.078   7.720  0.1690  0.3062  0.1471
  109POPC   C1A 1734   6.356  10.364   7.568 -0.0296  0.1885 -0.1262
  109POPC   D2A 1735   6.174  10.433   7.118 -0.5571  0.2811  0.0166
  109POPC   C3A 1736   6.051  10.480   6.777  0.1037 -0.0075  0.0651
  109POPC   C4A 1737   5.940  10.669   6.394 -0.1560  0.2724  0.1575
  109POPC   C1B 1738   5.922  10.040   7.317 -0.3114 -0.1082 -0.2230
  109POPC   C2B 1739   5.803   9.762   6.929 -0.4384  0.2126 -0.2541
  109POPC   C3B 1740   6.004   9.390   6.780 -0.0714 -0.2542  0.0895
  109POPC   C4B 1741   6.356   9.177   6.518 -0.0396  0.0150  0.0091
  110POPC   NC3 1742   8.859   8.906   8.499  0.0730  0.1225 -0.2911
  110POPC   PO4 1743   9.224   8.992   8.415  0.1618  0.1446  0.0056
  110POPC   GL1 1744   9.084   9.083   7.988  0.2193 -0.1962  0.0528
  110POPC   GL2 1745   8.964   9.447   8.092 -0.0308  0.3234 -0.0356
  110POPC   C1A 1746   9.134   9.157   7.509 -0.4089  0.4073  0.0777
  110POPC   D2A 1747   9.085   9.027   7.165  0.1009 -0.3292  0.0989
  110POPC   C3A 1748   8.905   9.083   6.730  0.1659  0.3017 -0.1557
  110POPC   C4A 1749   9.063   9.211   6.303 -0.0705 -0.2119  0.2477
  110POPC   C1B 1750   8.887   9.515   7.707  0.0796 -0.0291  0.0599
  110POPC   C2B 1751   8.645   9.812   7.262  0.0187 -0.0812  0.1164
  110POPC   C3B 1752   8.696  10.060   6.891  0.0516  0.2870  0.0215
  110POPC   C4B 1753   9.004  10.286   6.577 -0.0621 -0.2259 -0.2093
  111POPC   NC3 1754   3.690   2.842   8.479 -0.2406  0.0954  0.1214
  111POPC   PO4 1755   3.348   3.131   8.433 -0.2373 -0.1137 -0.0346
  111POPC   GL1 1756   3.125   3.197   8.094  0.0781  0.1954 -0.0681
  111POPC   GL2 1757   3.318   3.323   7.923 -0.0527 -0.2490  0.1699
  111POPC   C1A 1758   2.735   3.243   7.825 -0.1340  0.2545  0.0892
  111POPC   D2A 1759   2.481   3.410   7.410 -0.0050 -0.0058 -0.1511
  111POPC   C3A 1760   2.145   3.198   7.409 -0.0940  0.1668 -0.0253
  111POPC   C4A 1761   1.925   2.986   7.150 -0.0726  0.0041  0.1751
  111POPC   C1B 1762   3.101   3.547   7.564  0.2109 -0.1749 -0.0263
  111POPC   C2B 1763   2.965   3.696   7.273  0.1427  0.1776 -0.3939
  111POPC   C3B 1764   2.720   3.600   7.000 -0.2341  0.0185  0.2082
  111POPC   C4B 1765   2.996   3.582   6.563 -0.1233  0.1989  0.2682
  112POPC   NC3 1766   7.807   0.633   8.830 -0.1290 -0.1777 -0.1425
  112POPC   PO4 1767   8.123   0.405   8.978  0.1517 -0.0559  0.3132
  112POPC   GL1 1768   8.462   0.642   8.984 -0.0107  0.2308  0.2330
  112POPC   GL2 1769   8.610   0.650   8.648 -0.0792  0.0573  0.1908
  112POPC   C1A 1770   8.660   1.057   9.096 -0.1838  0.1652  0.5163
  112POPC   D2A 1771   8.997   1.288   9.211  0.1016  0.1592  0.0655
  112POPC   C3A 1772   9.129   1.593   9.021 -0.0802  0.1779 -0.2366
  112POPC   C4A 1773   9.358   1.563   8.645 -0.3158  0.2387 -0.0445
  112POPC   C1B 1774   8.684   0.692   8.090 -0.0239 -0.0708 -0.1732
  112POPC   C2B 1775   8.860   0.979   7.973  0.4931  0.1675  0.1756
  112POPC   C3B 1776   8.855   1.363   7.770  0.0737 -0.2409 -0.0050
  112POPC   C4B 1777   8.757   1.798   7.921 -0.0849  0.1009  0.0752
  113POPC   NC3 1778   9.280   6.504   8.475 -0.1033  0.0370  0.0665
  113POPC   PO4 1779   8.908   6.733   8.427  0.2356 -0.0760 -0.1532
  113POPC   GL1 1780   8.985   6.887   8.043 -0.1819  0.1319  0.2345
  113POPC   GL2 1781   8.901   7.190   7.881  0.0608  0.2335 -0.1676
  113POPC   C1A 1782   8.774   6.833   7.568  0.0350 -0.0311  0.0413
  113POPC   D2A 1783   8.691   6.707   7.190 -0.1207 -0.0721 -0.1662
  113POPC   C3A 1784   9.010   6.500   7.033 -0.3531  0.1196 -0.1417
  113POPC   C4A 1785   9.366   6.326   6.922  0.0342 -0.0240  0.3686
  113POPC   C1B 1786   9.054   7.315   7.462 -0.1451  0.0589 -0.1177
  113POPC   C2B 1787   8.952   7.126   7.030  0.2131 -0.1969  0.4323
  113POPC   C3B 1788   8.724   6.886   6.720  0.1346  0.1795 -0.0331
  113POPC   C4B 1789   8.579   6.683   6.373 -0.0284 -0.0404 -0.0571
  114POPC   NC3 1790   9.843   9.102   9.198  0.0500 -0.0339 -0.0457
  114POPC   PO4 1791  10.017   9.389   8.831 -0.0127  0.0646 -0.1556
  114POPC   GL1 1792   9.862   9.390   8.445 -0.3515  0.2531 -0.3016
  114POPC   GL2 1793   9.574   9.370   8.457  0.0637  0.0849  0.0426
  114POPC   C1A 1794   9.981   9.325   8.024 -0.2179 -0.2141  0.0719
  114POPC   D2A 1795   9.753   9.113   7.631 -0.0453  0.3352 -0.0251
  114POPC   C3A 1796   9.601   9.324   7.344 -0.2219 -0.2866  0.3257
  114POPC   C4A 1797   9.508   9.308   6.908  0.2006  0.0000  0.1639
  114POPC   C1B 1798   9.462   9.464   8.045 -0.0374  0.0717  0.4399
  114POPC   C2B 1799   9.352   9.658   7.644  0.0506  0.0487  0.0763
  114POPC   C3B 1800   9.049   9.557   7.229 -0.3572 -0.2170  0.0647
  114POPC   C4B 1801   8.642   9.293   7.256  0.0508 -0.1154 -0.0600
  115POPC   NC3 1802   8.645   7.154   8.305 -0.0611 -0.2092 -0.1522
  115POPC   PO4 1803   8.099   7.103   8.468 -0.1057  0.0069 -0.1123
  115POPC   GL1 1804   8.029   7.071   8.115  0.1395  0.0090  0.4265
  115POPC   GL2 1805   7.824   7.305   8.112 -0.1337 -0.1694 -0.4433
  115POPC   C1A 1806   7.936   6.758   7.774  0.1497 -0.0051 -0.0128
  115POPC   D2A 1807   7.723   6.582   7.376 -0.4405 -0.0776  0.2385
  115POPC   C3A 1808   7.780   6.641   6.962  0.3258 -0.1895 -0.1872
  115POPC   C4A 1809   8.000   6.663   6.566 -0.0696  0.0906 -0.0582
  115POPC   C1B 1810   7.987   7.242   7.611 -0.1649  0.3160  0.3311
  115POPC   C2B 1811   7.776   7.126   7.228 -0.3310 -0.3417 -0.0077
  115POPC   C3B 1812   7.543   7.076   6.799  0.2011  0.0434 -0.0673
  115POPC   C4B 1813   7.491   6.802   6.491  0.1852  0.1860 -0.1579
  116POPC   NC3 1814   4.830   1.751   8.049  0.2289  0.1172  0.1040
  116POPC   PO4 1815   5.219   2.121   8.086 -0.3608  0.3143 -0.1860
  116POPC   GL1 1816   5.226   2.152   7.702 -0.3736 -0.3113  0.1375
  116POPC   GL2 1817   4.994   1.925   7.502 -0.0948 -0.2129 -0.1512
  116POPC   C1A 1818   5.298   2.444   7.378  0.2398 -0.0746 -0.3502
  116POPC   D2A 1819   5.128   2.734   7.062  0.4349  0.2086  0.4080
  116POPC   C3A 1820   4.831   3.074   7.124 -0.2501  0.0457 -0.0481
  116POPC   C4A 1821   4.738   3.574   7.315  0.2891  0.1677  0.0368
  116POPC   C1B 1822   5.066   2.090   7.065  0.0491 -0.0509  0.1712
  116POPC   C2B 1823   5.299   2.319   6.793 -0.0607  0.0318 -0.1593
  116POPC   C3B 1824   5.559   2.578   6.588  0.0412 -0.0355  0.0567
  116POPC   C4B 1825   5.580   2.983   6.321 -0.0009 -0.0027 -0.1484
  117POPC   NC3 1826   4.175   8.671   8.338  0.0715  0.0555  0.4953
  117POPC   PO4 1827   4.456   8.483   8.614  0.0370 -0.4948 -0.1825
  117POPC   GL1 1828   4.410   8.254   8.259 -0.1222  0.1470 -0.1721
  117POPC   GL2 1829   4.597   8.200   8.133 -0.1023  0.0337  0.0917
  117POPC   C1A 1830   4.191   8.193   7.847  0.3036 -0.0757  0.0005
  117POPC   D2A 1831   3.748   8.056   7.771  0.1018  0.3328  0.2381
  117POPC   C3A 1832   3.479   7.997   7.376 -0.3706 -0.1310 -0.4894
  117POPC   C4A 1833   3.017   7.984   7.346 -0.0724 -0.1199  0.0723
  117POPC   C1B 1834   4.658   8.121   7.737  0.1313  0.2405 -0.1686
  117POPC   C2B 1835   4.881   8.185   7.400  0.0144 -0.3006  0.0013
  117POPC   C3B 1836   4.942   8.196   6.949 -0.1679  0.1488 -0.0835
  117POPC   C4B 1837   4.845   7.955   6.620  0.0416  0.1832 -0.3810
  118POPC   NC3 1838   3.990   0.717   8.482  0.3777  0.3188  0.0045
  118POPC   PO4 1839   4.390   0.746   8.325  0.4296  0.3306  0.0548
  118POPC   GL1 1840   4.129   0.777   7.878 -0.0595 -0.2839  0.0899
  118POPC   GL2 1841   3.978   1.133   7.878 -0.0279 -0.2509  0.0805
  118POPC   C1A 1842   4.146   0.932   7.321 -0.3166 -0.0511 -0.0825
  118POPC   D2A 1843   4.317   0.883   7.009  0.1363  0.4310 -0.1031
  118POPC   C3A 1844   4.143   0.559   6.911 -0.0596  0.0722  0.2437
  118POPC   C4A 1845   4.343   0.143   6.999  0.5038 -0.5075  0.0851
  118POPC   C1B 1846   4.185   1.404   7.473  0.0270 -0.2601 -0.0611
  118POPC   C2B 1847   4.366   1.360   7.090  0.4904 -0.2397 -0.0062
  118POPC   C3B 1848   4.411   1.640   6.775 -0.0349 -0.0474 -0.0109
  118POPC   C4B 1849   4.570   1.770   6.397  0.3826 -0.0962  0.0402
  119POPC   NC3 1850   0.311   6.728   8.643  0.1057  0.0735 -0.1708
  119POPC   PO4 1851   0.692   6.688   8.436  0.1154  0.2656 -0.1462
  119POPC   GL1 1852   0.854   7.088   8.135  0.2649 -0.0704  0.0661
  119POPC   GL2 1853   0.558   7.148   8.193 -0.0600 -0.0981  0.0388
  119POPC   C1A 1854   0.883   7.009   7.640 -0.1559 -0.1654 -0.2283
  119POPC   D2A 1855   0.863   6.790   7.186  0.2371 -0.2344  0.1276
  119POPC   C3A 1856   0.521   6.731   6.903  0.0094 -0.2266  0.2824
  119POPC   C4A 1857   0.390   6.671   6.487  0.2942 -0.0950  0.3005
  119POPC   C1B 1858   0.472   7.262   7.760 -0.1609  0.0303 -0.2551
  119POPC   C2B 1859   0.627   7.508   7.397  0.3480 -0.0578  0.2860
  119POPC   C3B 1860   0.849   7.702   7.016 -0.0953 -0.1061 -0.0381
  119POPC   C4B 1861   0.791   7.653   6.561  0.0189  0.1113 -0.1632
  120POPC   NC3 1862   8.928   5.564   8.717 -0.2057 -0.1960  0.4133
  120POPC   PO4 1863   9.398   5.710   8.741  0.2256  0.0727  0.2940
  120POPC   GL1 1864   9.342   5.628   8.344  0.0223 -0.0200  0.1091
  120POPC   GL2 1865   9.059   5.461   8.196 -0.0139 -0.1563  0.1448
  120POPC   C1A 1866   9.246   5.835   7.947  0.0623 -0.0776  0.0680
  120POPC   D2A 1867   9.163   5.849   7.483  0.0840 -0.0503 -0.0503
  120POPC   C3A 1868   9.352   5.462   7.338  0.0885  0.1597 -0.5493
  120POPC   C4A 1869   9.592   5.272   7.098  0.1827 -0.0427  0.3065
  120POPC   C1B 1870   8.999   5.412   7.767  0.0490 -0.0290  0.1525
  120POPC   C2B 1871   8.689   5.529   7.418  0.0693 -0.0283 -0.1268
  120POPC   C3B 1872   8.632   5.489   6.967 -0.1202  0.2415 -0.2509
  120POPC   C4B 1873   8.714   5.802   6.599  0.3700  0.3093  0.4355
  121POPC   NC3 1874   6.210   6.471   8.981 -0.2810  0.0428 -0.4706
  121POPC   PO4 1875   6.216   6.390   8.521  0.2840 -0.1766  0.1193
  121POPC   GL1 1876   5.908   6.252   8.257 -0.1255  0.0459 -0.0416
  121POPC   GL2 1877   5.596   6.460   8.065  0.0396 -0.2474  0.2105
  121POPC   C1A 1878   5.781   6.014   7.855 -0.1539  0.2299 -0.0616
  121POPC   D2A 1879   5.704   5.931   7.474 -0.1743  0.1416  0.3539
  121POPC   C3A 1880   6.069   5.890   7.127  0.0820 -0.2176  0.1567
  121POPC   C4A 1881   6.287   6.169   6.875  0.0708 -0.0260 -0.0371
  121POPC   C1B 1882   5.764   6.515   7.657 -0.0235 -0.2723  0.2895
  121POPC   C2B 1883   5.780   6.361   7.247 -0.3302  0.0202  0.0149
  121POPC   C3B 1884   5.768   6.116   6.794  0.1051 -0.0836  0.0684
  121POPC   C4B 1885   5.770   6.312   6.404 -0.1218 -0.0472  0.0342
  122POPC   NC3 1886   5.429   3.386   8.514  0.1239  0.3017 -0.1157
  122POPC   PO4 1887   5.832   3.189   8.486  0.1763 -0.0271  0.3661
  122POPC   GL1 1888   5.663   3.231   8.048 -0.0260 -0.0988 -0.0301
  122POPC   GL2 1889   5.672   3.523   8.070  0.1660 -0.3930  0.0750
  122POPC   C1A 1890   5.694   3.327   7.656  0.4807 -0.2066  0.1593
  122POPC   D2A 1891   5.782   3.318   7.241  0.2388  0.0423  0.0701
  122POPC   C3A 1892   5.757   3.562   6.791  0.1020 -0.1918 -0.1762
  122POPC   C4A 1893   5.522   3.880   6.612 -0.1185  0.0695  0.0699
  122POPC   C1B 1894   5.544   3.942   7.820 -0.0347 -0.1671 -0.0151
  122POPC   C2B 1895   5.388   4.278   7.614  0.0422 -0.0494 -0.0786
  122POPC   C3B 1896   5.189   4.181   7.219 -0.5453  0.3293 -0.2230
  122POPC   C4B 1897   4.836   3.960   7.056  0.1066 -0.0278  0.3100
  123POPC   NC3 1898   1.998   8.993   8.223  0.0031 -0.0353 -0.1429
  123POPC   PO4 1899   1.925   9.481   8.255 -0.0862  0.0653 -0.0601
  123POPC   GL1 1900   1.635   9.669   7.995  0.0677  0.0266 -0.0319
  123POPC   GL2 1901   1.306   9.546   7.991  0.1596 -0.1544 -0.0081
  123POPC   C1A 1902   1.493   9.769   7.605 -0.2664  0.1065  0.0807
  123POPC   D2A 1903   1.105   9.836   7.470  0.2582  0.1828  0.4558
  123POPC   C3A 1904   0.915   9.816   7.004  0.2538 -0.0655  0.0582
  123POPC   C4A 1905   1.106   9.929   6.593  0.1089 -0.4420  0.1290
  123POPC   C1B 1906   1.182   9.341   7.657 -0.1012  0.0439  0.0002
  123POPC   C2B 1907   1.206   9.411   7.261 -0.2918  0.2170  0.1460
  123POPC   C3B 1908   1.254   9.436   6.857  0.0634  0.1763  0.2656
  123POPC   C4B 1909   1.371   9.563   6.351  0.0984  0.2203  0.0180
  124POPC   NC3 1910   1.293   7.968   8.497  0.3875 -0.0150 -0.0702
  124POPC   PO4 1911   1.722   8.030   8.577 -0.1372 -0.3250 -0.2064
  124POPC   GL1 1912   1.643   7.970   8.173  0.0225 -0.0869 -0.2821
  124POPC   GL2 1913   1.628   7.726   8.096 -0.1179  0.0773  0.1491
  124POPC   C1A 1914   1.671   8.113   7.823  0.1466 -0.1155 -0.2369
  124POPC   D2A 1915   1.709   8.171   7.358 -0.0391  0.1914  0.0621
  124POPC   C3A 1916   1.397   8.490   7.183 -0.1374  0.2139  0.2261
  124POPC   C4A 1917   1.110   8.171   6.958  0.2249  0.1110 -0.3717
  124POPC   C1B 1918   1.440   7.649   7.740 -0.1161  0.2397  0.2951
  124POPC   C2B 1919   1.607   7.655   7.313 -0.0170  0.0626 -0.1987
  124POPC   C3B 1920   1.905   7.820   7.088 -0.1606  0.0490 -0.0417
  124POPC   C4B 1921   2.195   7.962   6.786 -0.3555 -0.1234 -0.0889
  125POPC   NC3 1922   5.485   6.519   8.521  0.1267  0.2951  0.1072
  125POPC   PO4 1923   5.850   6.703   8.798  0.0980 -0.0781  0.3206
  125POPC   GL1 1924   5.931   6.781   8.343  0.0266 -0.1034  0.1277
  125POPC   GL2 1925   5.606   6.945   8.169 -0.0612 -0.2312  0.0704
  125POPC   C1A 1926   6.091   6.687   7.929  0.2158  0.0242  0.1504
  125POPC   D2A 1927   6.511   6.780   7.803  0.0036 -0.0114 -0.0660
  125POPC   C3A 1928   6.744   6.739   7.416  0.0950  0.1724  0.3375
  125POPC   C4A 1929   6.857   7.082   7.172  0.0376  0.2931  0.3933
  125POPC   C1B 1930   5.952   7.165   8.014 -0.0014 -0.1192 -0.0598
  125POPC   C2B 1931   6.070   7.178   7.706  0.2056  0.1009  0.0321
  125POPC   C3B 1932   6.244   6.978   7.387  0.4214 -0.0802  0.0893
  125POPC   C4B 1933   6.378   7.048   6.984 -0.0313  0.2279  0.0881
  126POPC   NC3 1934   7.557   8.906   8.220  0.1423  0.1322  0.2660
  126POPC   PO4 1935   7.800   9.238   8.119 -0.0349 -0.1198  0.2754
  126POPC   GL1 1936   7.617   9.304   7.694 -0.0029  0.2459 -0.2071
  126POPC   GL2 1937   7.821   9.551   7.548 -0.0390 -0.1271  0.0243
  126POPC   C1A 1938   7.566   9.274   7.225  0.1833 -0.3343  0.3406
  126POPC   D2A 1939   7.818   9.462   6.935 -0.3107  0.0522 -0.4011
  126POPC   C3A 1940   7.889   9.558   6.544  0.2274  0.1743 -0.0197
  126POPC   C4A 1941   7.856   9.630   6.080  0.0014 -0.1655 -0.1148
  126POPC   C1B 1942   8.182   9.555   7.256 -0.0749  0.0136  0.5177
  126POPC   C2B 1943   8.211  10.007   7.065  0.0228  0.1724  0.1113
  126POPC   C3B 1944   8.349  10.384   6.865 -0.3373  0.2599  0.1631
  126POPC   C4B 1945   8.653  10.629   6.718 -0.2106 -0.0467 -0.1774
  127POPC   NC3 1946   0.593   5.009   9.208 -0.0005 -0.1379  0.1966
  127POPC   PO4 1947   0.475   5.421   8.962  0.0642  0.1097 -0.1899
  127POPC   GL1 1948   0.397   5.360   8.540  0.1022 -0.0988 -0.0120
  127POPC   GL2 1949   0.146   5.372   8.308 -0.0137 -0.0336 -0.0697
  127POPC   C1A 1950   0.506   4.977   8.210 -0.2279  0.0251 -0.5317
  127POPC   D2A 1951   0.460   4.595   8.078  0.0117  0.1590 -0.3376
  127POPC   C3A 1952   0.837   4.447   8.284 -0.0860  0.1059 -0.3512
  127POPC   C4A 1953   1.345   4.424   8.164 -0.0917  0.1884  0.0590
  127POPC   C1B 1954   0.120   5.114   7.963 -0.0494 -0.3083  0.0568
  127POPC   C2B 1955   0.316   4.987   7.680  0.2327  0.1217  0.1028
  127POPC   C3B 1956   0.549   5.093   7.368  0.0912  0.4419 -0.1810
  127POPC   C4B 1957   0.522   4.975   6.884  0.1146 -0.1963  0.2285
  128POPC   NC3 1958   4.961   2.619   8.196  0.3133  0.0774  0.0880
  128POPC   PO4 1959   4.485   2.944   8.218 -0.3155  0.2047  0.1023
  128POPC   GL1 1960   4.508   3.095   7.791  0.0324 -0.2772  0.1843
  128POPC   GL2 1961   4.732   2.949   7.595 -0.1780 -0.0231  0.0481
  128POPC   C1A 1962   4.375   3.257   7.327  0.0688  0.4272 -0.0806
  128POPC   D2A 1963   4.096   3.140   7.218  0.0307 -0.0626  0.2379
  128POPC   C3A 1964   3.837   2.961   6.917  0.0960 -0.0635  0.1214
  128POPC   C4A 1965   3.901   3.256   6.556  0.0893 -0.4121 -0.2191
  128POPC   C1B 1966   5.084   3.137   7.792 -0.1552  0.0899 -0.1764
  128POPC   C2B 1967   5.170   3.549   7.969  0.1168  0.2056  0.0620
  128POPC   C3B 1968   5.127   4.056   8.033  0.2033 -0.3697  0.0608
  128POPC   C4B 1969   5.015   4.464   7.864  0.1342 -0.2414 -0.1881
  129POPC   NC3 1970   1.087   5.930   8.854 -0.3840 -0.1529  0.2175
  129POPC   PO4 1971   1.479   5.698   8.963  0.1563 -0.2277  0.1573
  129POPC   GL1 1972   1.293   5.436   8.611  0.2032  0.4039  0.1290
  129POPC   GL2 1973   1.462   5.470   8.207 -0.1885 -0.2101  0.0410
  129POPC   C1A 1974   0.965   5.295   8.221 -0.3511 -0.1548  0.3463
  129POPC   D2A 1975   0.577   5.388   8.021  0.2306 -0.1741  0.0927
  129POPC   C3A 1976   0.550   5.555   7.573 -0.2228  0.1611 -0.2406
  129POPC   C4A 1977   0.790   5.852   7.434 -0.3487  0.3214 -0.0755
  129POPC   C1B 1978   1.220   5.670   7.872 -0.3248  0.0524  0.0553
  129POPC   C2B 1979   1.361   5.792   7.486 -0.1865 -0.2086 -0.0927
  129POPC   C3B 1980   1.452   5.802   7.070  0.5158 -0.0150 -0.1077
  129POPC   C4B 1981   1.765   5.582   6.883  0.3137  0.0566  0.0736
  130POPC   NC3 1982   8.550   0.111   9.177 -0.0107 -0.2622 -0.1176
  130POPC   PO4 1983   8.707  -0.342   9.104 -0.2342  0.1497  0.1991
  130POPC   GL1 1984   8.895  -0.016   8.750 -0.0200 -0.0469 -0.1235
  130POPC   GL2 1985   8.949   0.346   9.055 -0.0273 -0.1233  0.1829
  130POPC   C1A 1986   8.839   0.233   8.329 -0.0433 -0.2687 -0.0040
  130POPC   D2A 1987   8.811   0.054   7.921 -0.4107 -0.1609 -0.2860
  130POPC   C3A 1988   8.958   0.068   7.584 -0.1118 -0.1629 -0.0833
  130POPC   C4A 1989   9.047   0.147   7.161 -0.2501 -0.1075  0.0880
  130POPC   C1B 1990   9.154   0.489   8.631 -0.2915 -0.0097 -0.1840
  130POPC   C2B 1991   9.575   0.335   8.359 -0.1216 -0.0862 -0.4089
  130POPC   C3B 1992   9.877  -0.049   8.333 -0.2587  0.1827 -0.0660
  130POPC   C4B 1993  10.283  -0.199   8.150 -0.1721 -0.0234  0.4130
  131POPC   NC3 1994   4.970   6.885   8.574 -0.1289  0.0582  0.4049
  131POPC   PO4 1995   4.635   6.768   8.295  0.0023 -0.3181  0.2266
  131POPC   GL1 1996   4.734   6.947   7.909  0.0554  0.1429 -0.0783
  131POPC   GL2 1997   4.547   7.165   7.942  0.3034 -0.0780 -0.1570
  131POPC   C1A 1998   4.744   6.826   7.560  0.2971  0.1162  0.3399
  131POPC   D2A 1999   5.174   6.862   7.351  0.0805 -0.1258 -0.2041
  131POPC   C3A 2000   5.282   6.853   6.923 -0.0869  0.0597 -0.2852
  131POPC   C4A 2001   5.187   6.515   6.707  0.2781  0.1858  0.0812
  131POPC   C1B 2002   4.416   7.277   7.429 -0.1586 -0.0687  0.1542
  131POPC   C2B 2003   4.244   6.997   7.155  0.0964  0.0331  0.0397
  131POPC   C3B 2004   3.958   6.724   6.925  0.1526  0.3293 -0.1541
  131POPC   C4B 2005   3.744   6.405   7.043 -0.0174  0.0848 -0.0031
  132POPC   NC3 2006   1.751   7.702   8.906 -0.3327 -0.1498  0.0066
  132POPC   PO4 2007   1.976   7.563   8.500 -0.0102  0.0543 -0.1640
  132POPC   GL1 2008   1.880   7.255   8.225 -0.0411  0.0150  0.1105
  132POPC   GL2 2009   2.094   6.924   8.177 -0.3714 -0.3289  0.0729
  132POPC   C1A 2010   1.771   7.216   7.875  0.0796 -0.0375 -0.0551
  132POPC   D2A 2011   1.762   7.130   7.413  0.1629  0.0810  0.0490
  132POPC   C3A 2012   2.068   7.369   7.331  0.0742  0.2267 -0.0639
  132POPC   C4A 2013   2.383   7.719   7.297  0.0143 -0.3474  0.0302
  132POPC   C1B 2014   2.187   7.018   7.698  0.1848  0.2176 -0.2764
  132POPC   C2B 2015   2.424   6.996   7.318  0.0457 -0.2913 -0.1678
  132POPC   C3B 2016   2.554   7.295   7.017 -0.1096 -0.2084  0.2299
  132POPC   C4B 2017   2.466   7.572   6.668  0.1964  0.3670 -0.0493
  133POPC   NC3 2018   2.688   3.930   8.461  0.0089 -0.0371 -0.1419
  133POPC   PO4 2019   2.826   4.291   8.531  0.0703  0.2147  0.0994
  133POPC   GL1 2020   2.900   4.376   8.177 -0.2385  0.0892 -0.1170
  133POPC   GL2 2021   2.732   4.516   8.028  0.0106 -0.1861  0.1089
  133POPC   C1A 2022   3.198   4.502   7.900 -0.0503  0.1066 -0.4419
  133POPC   D2A 2023   3.469   4.750   7.614  0.3195 -0.1654  0.0703
  133POPC   C3A 2024   3.527   4.565   7.138  0.3797  0.3773 -0.0908
  133POPC   C4A 2025   3.281   4.521   6.786  0.0195  0.0235 -0.1259
  133POPC   C1B 2026   2.738   4.474   7.661 -0.2030 -0.2791 -0.1130
  133POPC   C2B 2027   2.379   4.547   7.395  0.0615 -0.0028 -0.2257
  133POPC   C3B 2028   2.158   4.615   7.096 -0.0784  0.0545  0.1962
  133POPC   C4B 2029   2.094   4.669   6.642 -0.0791 -0.0977  0.2178
  134POPC   NC3 2030   7.936   4.885   9.080 -0.1227 -0.2179 -0.0363
  134POPC   PO4 2031   7.612   4.758   8.790 -0.1919  0.1804 -0.2181
  134POPC   GL1 2032   7.634   4.911   8.280 -0.4002 -0.0790  0.1102
  134POPC   GL2 2033   7.535   4.695   7.981 -0.2230 -0.0566  0.0359
  134POPC   C1A 2034   7.938   5.230   8.021  0.4151  0.1173  0.1136
  134POPC   D2A 2035   8.295   5.339   8.025 -0.1859 -0.0884  0.1324
  134POPC   C3A 2036   8.382   5.727   7.780 -0.0682 -0.0443  0.2251
  134POPC   C4A 2037   8.781   5.947   7.799 -0.1154 -0.0029 -0.1609
  134POPC   C1B 2038   7.672   4.752   7.549  0.0995  0.1131  0.0441
  134POPC   C2B 2039   7.744   4.818   7.089 -0.0035 -0.0396  0.1577
  134POPC   C3B 2040   7.816   4.913   6.686  0.0705  0.3457  0.3583
  134POPC   C4B 2041   7.638   4.610   6.346 -0.1042  0.2063 -0.2501
  135POPC   NC3 2042   4.261   4.261   8.548 -0.0868 -0.1758 -0.0851
  135POPC   PO4 2043   4.176   4.641   8.597 -0.0211  0.2359 -0.0032
  135POPC   GL1 2044   4.028   4.543   8.140  0.4832  0.2424 -0.0867
  135POPC   GL2 2045   4.011   4.234   8.079  0.3289  0.1058  0.0095
  135POPC   C1A 2046   3.919   4.551   7.732 -0.3299 -0.0209 -0.2146
  135POPC   D2A 2047   3.634   4.208   7.625 -0.0402  0.0173 -0.1731
  135POPC   C3A 2048   3.460   3.898   7.358 -0.1693  0.1284 -0.4284
  135POPC   C4A 2049   3.275   3.594   6.940 -0.0425 -0.2292 -0.0980
  135POPC   C1B 2050   4.189   4.114   7.646  0.0751  0.0168  0.1474
  135POPC   C2B 2051   4.390   3.990   7.391 -0.0013  0.1875 -0.1177
  135POPC   C3B 2052   4.263   3.832   6.944 -0.0598  0.3176  0.1906
  135POPC   C4B 2053   4.245   3.481   6.842  0.0363  0.0859 -0.2542
  136POPC   NC3 2054   1.683   5.232   8.817  0.1008 -0.1436 -0.0688
  136POPC   PO4 2055   1.962   4.834   8.890  0.2088 -0.1199  0.1379
  136POPC   GL1 2056   1.529   4.694   8.598 -0.2300 -0.0398 -0.1788
  136POPC   GL2 2057   1.694   4.800   8.350  0.2029 -0.0352  0.1310
  136POPC   C1A 2058   1.142   4.884   8.367 -0.0860 -0.1567  0.0260
  136POPC   D2A 2059   0.940   4.783   7.926 -0.2637 -0.5254  0.2400
  136POPC   C3A 2060   0.922   5.152   7.669  0.1279 -0.0459 -0.0513
  136POPC   C4A 2061   1.074   5.376   7.382 -0.1707  0.0448 -0.0210
  136POPC   C1B 2062   1.492   5.024   8.002  0.1324  0.1459 -0.0402
  136POPC   C2B 2063   1.357   4.883   7.642  0.1272  0.0938 -0.1001
  136POPC   C3B 2064   1.080   4.827   7.273  0.0610 -0.1000 -0.0368
  136POPC   C4B 2065   1.065   5.042   6.953 -0.0502  0.0058 -0.0357
  137POPC   NC3 2066   2.956   3.669   9.073 -0.2891  0.1481 -0.0894
  137POPC   PO4 2067   3.004   3.507   8.639 -0.0224 -0.0901 -0.1584
  137POPC   GL1 2068   3.000   3.706   8.173  0.2108 -0.1498  0.2124
  137POPC   GL2 2069   2.706   3.872   7.997 -0.0355  0.3202 -0.2368
  137POPC   C1A 2070   3.116   3.970   7.800 -0.0807  0.0450 -0.0056
  137POPC   D2A 2071   3.179   4.336   7.466 -0.0262 -0.0298 -0.0412
  137POPC   C3A 2072   3.175   4.105   7.022 -0.4302 -0.0597 -0.1532
  137POPC   C4A 2073   3.247   4.060   6.594  0.1967 -0.2452 -0.3349
  137POPC   C1B 2074   2.671   4.006   7.589  0.1228  0.0393 -0.1702
  137POPC   C2B 2075   2.728   4.164   7.245  0.1183 -0.0394  0.0107
  137POPC   C3B 2076   2.406   4.223   6.926 -0.2291  0.0664 -0.0514
  137POPC   C4B 2077   2.506   4.101   6.528  0.4638  0.0472 -0.0729
  138POPC   NC3 2078   8.369   7.954   8.174  0.0575 -0.1068  0.2250
  138POPC   PO4 2079   8.324   7.486   8.190  0.1962  0.1383 -0.0464
  138POPC   GL1 2080   8.438   7.496   7.827 -0.1323 -0.0641 -0.0413
  138POPC   GL2 2081   8.752   7.721   7.782  0.0148  0.0912 -0.3940
  138POPC   C1A 2082   8.459   7.738   7.340  0.0658  0.0718  0.4425
  138POPC   D2A 2083   8.387   7.854   6.939 -0.0536 -0.0349 -0.0378
  138POPC   C3A 2084   8.471   8.269   6.751  0.0530  0.1460 -0.2894
  138POPC   C4A 2085   8.789   8.576   6.848 -0.1068 -0.0470  0.1819
  138POPC   C1B 2086   8.678   8.144   7.546  0.0235  0.1146  0.0654
  138POPC   C2B 2087   8.487   8.261   7.247 -0.1876 -0.0630  0.0345
  138POPC   C3B 2088   8.248   8.577   7.057  0.1301 -0.0459 -0.0220
  138POPC   C4B 2089   7.919   8.930   7.063 -0.0309  0.3457 -0.0024
  139POPC   NC3 2090   2.209   0.148   9.047  0.1959  0.2906  0.1400
  139POPC   PO4 2091   2.520  -0.040   8.696  0.1340 -0.0544 -0.0283
  139POPC   GL1 2092   2.350   0.156   8.202 -0.3008  0.1609 -0.1908
  139POPC   GL2 2093   2.339  -0.102   7.982 -0.0186 -0.0679 -0.3049
  139POPC   C1A 2094   2.484   0.480   7.832  0.1969 -0.1407  0.1924
  139POPC   D2A 2095   2.301   0.441   7.409  0.1757  0.0724  0.3548
  139POPC   C3A 2096   2.570   0.210   7.089  0.0415  0.2294 -0.0385
  139POPC   C4A 2097   2.467   0.105   6.610  0.0525  0.1853 -0.0796
  139POPC   C1B 2098   2.033  -0.119   7.724  0.0282 -0.1971 -0.2363
  139POPC   C2B 2099   1.836   0.327   7.526  0.0767 -0.1785 -0.1567
  139POPC   C3B 2100   1.645   0.100   7.221  0.0258 -0.0366 -0.2902
  139POPC   C4B 2101   1.537  -0.089   6.901 -0.0979  0.0308  0.0710
  140POPC   NC3 2102   2.576   7.116   8.904  0.0335 -0.1606  0.0967
  140POPC   PO4 2103   2.875   7.178   8.642 -0.0385 -0.0527 -0.1320
  140POPC   GL1 2104   3.024   6.907   8.314 -0.0299 -0.1361  0.2004
  140POPC   GL2 2105   2.748   6.997   8.119 -0.0446 -0.0948  0.2488
  140POPC   C1A 2106   3.220   6.660   8.035 -0.0640 -0.0650 -0.1215
  140POPC   D2A 2107   3.345   6.218   8.076 -0.1807 -0.0258 -0.4980
  140POPC   C3A 2108   3.275   5.976   7.687 -0.3123  0.0699  0.2723
  140POPC   C4A 2109   3.067   5.908   7.339  0.2136 -0.0749 -0.1999
  140POPC   C1B 2110   2.619   7.236   7.841 -0.2939 -0.0730 -0.1409
  140POPC   C2B 2111   2.254   7.521   7.787  0.0346  0.0854  0.1009
  140POPC   C3B 2112   2.069   7.911   7.618 -0.0445  0.1373 -0.2502
  140POPC   C4B 2113   2.089   8.388   7.593  0.1427  0.2583  0.1493
  141POPC   NC3 2114   3.329   5.803   8.345 -0.0095 -0.1871  0.0897
  141POPC   PO4 2115   3.689   5.709   8.591  0.1041 -0.0145  0.0935
  141POPC   GL1 2116   3.774   5.910   8.110 -0.0973  0.0506 -0.0946
  141POPC   GL2 2117   3.899   6.182   8.056 -0.2560  0.1096 -0.2123
  141POPC   C1A 2118   3.792   5.808   7.710 -0.1584 -0.4147  0.0452
  141POPC   D2A 2119   3.661   5.937   7.349 -0.0748  0.2295  0.1385
  141POPC   C3A 2120   3.529   5.714   7.028 -0.0910 -0.0259 -0.1386
  141POPC   C4A 2121   3.317   5.644   6.642 -0.0972  0.0233  0.3717
  141POPC   C1B 2122   3.702   6.334   7.669 -0.1416 -0.2096 -0.1639
  141POPC   C2B 2123   3.318   6.392   7.382 -0.5335 -0.1974 -0.0220
  141POPC   C3B 2124   2.883   6.522   7.227 -0.1237  0.1452 -0.1788
  141POPC   C4B 2125   2.740   6.866   6.910  0.2413  0.2303  0.0252
  142POPC   NC3 2126   2.494   9.395   8.224 -0.0018  0.1335  0.1828
  142POPC   PO4 2127   2.688   9.053   8.219 -0.0653  0.1774  0.0180
  142POPC   GL1 2128   2.671   9.035   7.810  0.3429 -0.2735 -0.0197
  142POPC   GL2 2129   2.936   9.200   7.716  0.0826 -0.1566  0.1938
  142POPC   C1A 2130   2.638   8.910   7.413  0.3478 -0.2174  0.1600
  142POPC   D2A 2131   2.551   8.908   6.999 -0.0163 -0.4863  0.0580
  142POPC   C3A 2132   2.160   8.875   6.825 -0.3347  0.0316 -0.0091
  142POPC   C4A 2133   1.741   8.742   6.626  0.1471 -0.3607  0.1120
  142POPC   C1B 2134   3.150   9.381   7.428 -0.0430  0.1078 -0.3319
  142POPC   C2B 2135   3.342   9.599   7.056  0.0544 -0.0519 -0.1042
  142POPC   C3B 2136   3.415   9.748   6.572  0.4938 -0.3059  0.0616
  142POPC   C4B 2137   3.781   9.904   6.263 -0.0672 -0.0255 -0.0546
  143POPC   NC3 2138   4.885   0.165   8.220  0.1778  0.2588  0.2062
  143POPC   PO4 2139   4.681   0.539   7.931 -0.2812 -0.0098 -0.3001
  143POPC   GL1 2140   4.619   0.532   7.638  0.3382  0.0605  0.2024
  143POPC   GL2 2141   4.362   0.280   7.487  0.0500 -0.6148  0.0195
  143POPC   C1A 2142   4.658   0.524   7.134  0.1688 -0.1162  0.2324
  143POPC   D2A 2143   4.621   0.613   6.679 -0.2117 -0.0219 -0.0344
  143POPC   C3A 2144   4.597   0.820   6.269 -0.0364  0.1000  0.2057
  143POPC   C4A 2145   4.860   1.056   6.047 -0.1421  0.0083 -0.0619
  143POPC   C1B 2146   4.668   0.043   7.323 -0.2518  0.0443  0.2175
  143POPC   C2B 2147   4.723  -0.346   7.091 -0.2248 -0.1181 -0.1372
  143POPC   C3B 2148   4.995  -0.314   6.633  0.2425  0.1958 -0.2711
  143POPC   C4B 2149   5.315  -0.027   6.551 -0.2340 -0.0471 -0.1314
  144POPC   NC3 2150   1.576   1.036   9.065 -0.1379 -0.1784 -0.1754
  144POPC   PO4 2151   1.801   1.444   9.162 -0.1551 -0.0729  0.0226
  144POPC   GL1 2152   1.863   1.744   8.812 -0.2300  0.3274  0.0417
  144POPC   GL2 2153   2.137   1.762   8.750 -0.1573  0.0805  0.0171
  144POPC   C1A 2154   1.622   1.861   8.390 -0.0022 -0.2900  0.1027
  144POPC   D2A 2155   1.256   1.817   8.398 -0.3123  0.1027  0.1190
  144POPC   C3A 2156   1.026   1.540   8.249 -0.2015  0.1461  0.1998
  144POPC   C4A 2157   1.055   1.139   8.008 -0.0869  0.1872 -0.3074
  144POPC   C1B 2158   1.997   1.586   8.333 -0.0146 -0.0765  0.1142
  144POPC   C2B 2159   1.921   1.656   7.913  0.1580 -0.1055  0.0038
  144POPC   C3B 2160   1.943   1.665   7.464  0.1330  0.1832 -0.0375
  144POPC   C4B 2161   2.276   1.768   7.158 -0.0673 -0.0954  0.1588
  145POPC   NC3 2162   5.800   8.834   8.386 -0.2353 -0.1518  0.1010
  145POPC   PO4 2163   5.549   9.297   8.356 -0.5112  0.2810  0.0450
  145POPC   GL1 2164   5.703   9.110   7.930 -0.1245 -0.0529 -0.0724
  145POPC   GL2 2165   5.629   9.210   7.648  0.2835 -0.0943 -0.2633
  145POPC   C1A 2166   5.909   8.920   7.445 -0.2200  0.1087  0.0127
  145POPC   D2A 2167   6.088   8.787   7.015 -0.0164  0.2430  0.1879
  145POPC   C3A 2168   5.805   8.499   6.716  0.0420 -0.0168  0.0357
  145POPC   C4A 2169   5.858   8.429   6.347  0.0257  0.2094  0.1328
  145POPC   C1B 2170   5.427   9.019   7.318  0.1557 -0.0882  0.1115
  145POPC   C2B 2171   5.652   9.022   6.878  0.3319  0.1508 -0.0681
  145POPC   C3B 2172   5.889   8.986   6.530 -0.1905  0.0340 -0.1330
  145POPC   C4B 2173   6.282   8.676   6.530 -0.2852 -0.0000 -0.1732
  146POPC   NC3 2174   2.765   1.255   9.283  0.1288 -0.0506  0.0901
  146POPC   PO4 2175   3.057   0.956   9.092 -0.2002 -0.0293 -0.0323
  146POPC   GL1 2176   2.880   1.142   8.679  0.4724  0.0035  0.0497
  146POPC   GL2 2177   2.742   0.819   8.510 -0.0163  0.0268  0.0197
  146POPC   C1A 2178   2.852   1.333   8.271 -0.2486  0.5321 -0.0714
  146POPC   D2A 2179   3.065   1.635   8.011 -0.4511 -0.1536  0.0701
  146POPC   C3A 2180   2.935   1.973   7.751  0.2739  0.0145 -0.0360
  146POPC   C4A 2181   2.772   2.369   7.693  0.0331 -0.2376 -0.3242
  146POPC   C1B 2182   2.578   0.868   8.160 -0.0764  0.0923  0.1095
  146POPC   C2B 2183   2.734   1.161   7.797  0.0171  0.1206 -0.2015
  146POPC   C3B 2184   2.899   1.472   7.548 -0.3406 -0.2307 -0.0735
  146POPC   C4B 2185   3.148   1.351   7.156 -0.1794 -0.1795 -0.0255
  147POPC   NC3 2186   9.874   9.730   9.766 -0.3954 -0.0500 -0.1219
  147POPC   PO4 2187   9.893  10.113   9.388  0.1316  0.1151 -0.1706
  147POPC   GL1 2188   9.761  10.103   8.953  0.0392  0.2393  0.4445
  147POPC   GL2 2189   9.964  10.252   8.743 -0.1169  0.1951 -0.3220
  147POPC   C1A 2190   9.520   9.783   8.726  0.0044 -0.1088  0.4116
  147POPC   D2A 2191   9.244   9.827   8.320  0.1994 -0.0668 -0.1622
  147POPC   C3A 2192   9.329  10.101   7.914 -0.1896  0.1205 -0.1853
  147POPC   C4A 2193   9.444  10.195   7.488 -0.1577 -0.0498 -0.3214
  147POPC   C1B 2194  10.181  10.303   8.426  0.1181  0.1599 -0.0319
  147POPC   C2B 2195  10.355  10.307   7.997  0.1021  0.0117 -0.2510
  147POPC   C3B 2196  10.139  10.251   7.580 -0.0595  0.2256 -0.0194
  147POPC   C4B 2197   9.901  10.330   7.182 -0.0274 -0.1571  0.0103
  148POPC   NC3 2198   4.299   6.475   8.035  0.0767 -0.0517 -0.2038
  148POPC   PO4 2199   3.883   6.611   8.354  0.3764 -0.1511  0.3829
  148POPC   GL1 2200   3.836   6.731   7.887  0.0399  0.1579 -0.0526
  148POPC   GL2 2201   4.095   6.878   7.731  0.0078  0.1335  0.1158
  148POPC   C1A 2202   3.497   6.842   7.584  0.4033  0.0806 -0.1714
  148POPC   D2A 2203   3.489   6.921   7.136  0.3547  0.0623 -0.1830
  148POPC   C3A 2204   3.250   6.658   6.922 -0.0047 -0.4086  0.3887
  148POPC   C4A 2205   3.121   6.249   6.891  0.0747  0.0996 -0.1198
  148POPC   C1B 2206   4.000   6.655   7.442  0.1209  0.1754  0.1213
  148POPC   C2B 2207   4.384   6.523   7.250 -0.1170 -0.0312  0.0947
  148POPC   C3B 2208   4.695   6.531   6.923 -0.2102 -0.0544 -0.1127
  148POPC   C4B 2209   4.782   6.089   6.670  0.2334  0.1931  0.1201
  149POPC   NC3 2210   5.736   1.874   8.102  0.4252  0.2624  0.1518
  149POPC   PO4 2211   5.901   2.179   8.174  0.1231  0.0316 -0.1118
  149POPC   GL1 2212   6.077   2.554   7.959 -0.0512 -0.5603  0.1092
  149POPC   GL2 2213   5.923   2.867   7.853  0.0168 -0.3983  0.0144
  149POPC   C1A 2214   6.395   2.612   7.724  0.1709 -0.1373 -0.0610
  149POPC   D2A 2215   6.665   2.382   7.342  0.3267  0.2651 -0.0722
  149POPC   C3A 2216   7.163   2.409   7.320 -0.1336 -0.1322 -0.0455
  149POPC   C4A 2217   7.609   2.221   7.267 -0.1396  0.0555 -0.3822
  149POPC   C1B 2218   6.083   2.913   7.501  0.2005 -0.2726 -0.2172
  149POPC   C2B 2219   6.129   2.934   7.131 -0.1402  0.3505 -0.2277
  149POPC   C3B 2220   6.247   2.497   7.041 -0.0385  0.2930 -0.0739
  149POPC   C4B 2221   6.184   2.127   7.262  0.2569  0.0520  0.1852
  150POPC   NC3 2222   7.818   7.003   4.516  0.0529  0.3727  0.0122
  150POPC   PO4 2223   8.115   6.733   4.492  0.0379  0.2798  0.2598
  150POPC   GL1 2224   8.047   6.664   4.899  0.5530  0.2617 -0.4742
  150POPC   GL2 2225   8.147   6.772   5.183 -0.2824 -0.2354  0.2165
  150POPC   C1A 2226   7.936   6.339   5.298 -0.1627  0.1620 -0.3536
  150POPC   D2A 2227   7.924   6.328   5.688 -0.1717  0.0348 -0.1761
  150POPC   C3A 2228   8.204   6.121   6.013  0.0410 -0.0518  0.1570
  150POPC   C4A 2229   8.211   5.790   6.316 -0.0119  0.0855 -0.4457
  150POPC   C1B 2230   8.085   7.133   5.393  0.0488 -0.1338 -0.1885
  150POPC   C2B 2231   8.094   7.156   5.841  0.0607 -0.0472 -0.1112
  150POPC   C3B 2232   8.285   7.082   6.224 -0.1317 -0.0701 -0.0328
  150POPC   C4B 2233   8.516   7.339   6.525  0.0573 -0.1595 -0.1317
  151POPC   NC3 2234   6.099   4.275   4.754  0.2386 -0.1369 -0.0360
  151POPC   PO4 2235   6.321   3.793   4.661 -0.1089  0.0435 -0.0154
  151POPC   GL1 2236   6.450   3.768   5.066  0.1973  0.1901 -0.0089
  151POPC   GL2 2237   6.207   3.778   5.386  0.1523  0.0522  0.0952
  151POPC   C1A 2238   6.695   3.579   5.520 -0.0885 -0.2045 -0.0265
  151POPC   D2A 2239   6.860   3.407   5.862 -0.0335  0.3874  0.2436
  151POPC   C3A 2240   6.942   2.984   5.975 -0.0613 -0.2784 -0.1089
  151POPC   C4A 2241   7.355   2.868   6.181  0.1139  0.3905 -0.0150
  151POPC   C1B 2242   6.276   3.588   5.882  0.1137 -0.2736  0.0307
  151POPC   C2B 2243   6.477   3.346   6.262 -0.0595 -0.0248 -0.0480
  151POPC   C3B 2244   6.699   3.243   6.610 -0.3024  0.3185 -0.0997
  151POPC   C4B 2245   7.159   3.063   6.760 -0.0357 -0.2232  0.0021
  152POPC   NC3 2246   1.876   2.964   3.178 -0.0409  0.0213 -0.2781
  152POPC   PO4 2247   1.574   2.926   3.493 -0.0652 -0.0514  0.0705
  152POPC   GL1 2248   1.566   3.113   3.881  0.1676  0.0856 -0.0707
  152POPC   GL2 2249   1.676   3.351   4.037  0.0717 -0.2518  0.1564
  152POPC   C1A 2250   1.204   3.109   4.104  0.1513 -0.0111 -0.3636
  152POPC   D2A 2251   0.993   2.765   4.321  0.1672 -0.0743  0.2146
  152POPC   C3A 2252   1.075   2.632   4.664 -0.0625  0.0829  0.0647
  152POPC   C4A 2253   0.996   2.629   5.086  0.0040  0.0793  0.0405
  152POPC   C1B 2254   1.646   3.123   4.402  0.2066 -0.1349  0.5285
  152POPC   C2B 2255   1.688   2.699   4.645  0.1915  0.1721  0.1253
  152POPC   C3B 2256   1.481   2.379   4.942 -0.2097  0.0228  0.3748
  152POPC   C4B 2257   1.458   1.944   4.998 -0.2493 -0.2536  0.0177
  153POPC   NC3 2258   8.011   4.277   4.436  0.0803 -0.0627  0.1735
  153POPC   PO4 2259   7.599   4.387   4.371  0.2930  0.1029  0.0144
  153POPC   GL1 2260   7.678   4.731   4.634  0.3074  0.1224  0.0234
  153POPC   GL2 2261   7.832   4.502   4.851  0.0599 -0.0786  0.4140
  153POPC   C1A 2262   7.806   5.006   4.963 -0.1514 -0.2195  0.0124
  153POPC   D2A 2263   7.959   4.864   5.333 -0.1069 -0.1043  0.0140
  153POPC   C3A 2264   8.258   4.622   5.542 -0.1865  0.1007  0.0891
  153POPC   C4A 2265   8.358   4.328   5.847 -0.1633  0.1459  0.0244
  153POPC   C1B 2266   7.492   4.621   5.111 -0.1299  0.0166  0.1235
  153POPC   C2B 2267   7.192   4.518   5.235 -0.1028 -0.2336 -0.2599
  153POPC   C3B 2268   7.054   4.554   5.643 -0.2474 -0.0957 -0.0873
  153POPC   C4B 2269   7.238   4.402   6.000 -0.0279 -0.1168  0.0983
  154POPC   NC3 2270   4.488   8.680   4.244 -0.1369 -0.2569  0.2468
  154POPC   PO4 2271   4.342   8.556   4.613  0.3180  0.0360 -0.1507
  154POPC   GL1 2272   4.348   8.823   5.036 -0.2317 -0.0627 -0.0883
  154POPC   GL2 2273   4.494   9.176   5.077  0.1735  0.0620  0.0197
  154POPC   C1A 2274   4.203   8.806   5.479 -0.3753 -0.1412 -0.0286
  154POPC   D2A 2275   4.046   8.769   5.879  0.3708 -0.1738  0.1140
  154POPC   C3A 2276   3.953   9.067   5.931 -0.0779 -0.0998  0.0953
  154POPC   C4A 2277   3.738   9.100   6.267  0.0160  0.3152  0.0348
  154POPC   C1B 2278   4.655   9.246   5.406  0.0255 -0.1985 -0.1400
  154POPC   C2B 2279   4.941   9.354   5.813  0.0726  0.3475 -0.3061
  154POPC   C3B 2280   5.283   9.557   5.854 -0.1112  0.0190 -0.4581
  154POPC   C4B 2281   5.659   9.641   5.955  0.0597  0.1840 -0.3253
  155POPC   NC3 2282   1.638   8.818   3.992 -0.0017 -0.3856  0.0310
  155POPC   PO4 2283   1.668   8.894   4.457 -0.0035 -0.0908 -0.2704
  155POPC   GL1 2284   1.662   8.926   4.931  0.1615  0.0085 -0.3135
  155POPC   GL2 2285   1.477   8.693   5.016  0.0943 -0.2439  0.1470
  155POPC   C1A 2286   1.824   8.764   5.348  0.0708  0.1687  0.1360
  155POPC   D2A 2287   1.851   8.859   5.828  0.0500  0.0502  0.1112
  155POPC   C3A 2288   1.497   9.193   5.929 -0.0601 -0.0046 -0.0259
  155POPC   C4A 2289   1.426   9.560   5.841  0.0700  0.4009  0.3294
  155POPC   C1B 2290   1.029   8.912   5.061 -0.0227 -0.0848  0.2105
  155POPC   C2B 2291   0.829   9.234   5.227 -0.2079  0.0616  0.0053
  155POPC   C3B 2292   0.726   9.177   5.591 -0.3088  0.1129 -0.4875
  155POPC   C4B 2293   0.464   8.756   5.766 -0.3399 -0.2977 -0.1450
  156POPC   NC3 2294   3.831   0.592   4.595 -0.0831  0.1791  0.0524
  156POPC   PO4 2295   3.691   0.093   4.693  0.0425 -0.3007  0.2241
  156POPC   GL1 2296   3.336   0.024   4.834 -0.2558 -0.1998 -0.1069
  156POPC   GL2 2297   3.201  -0.256   4.779 -0.0154  0.0965 -0.3293
  156POPC   C1A 2298   3.194  -0.061   5.262 -0.2030 -0.2594  0.0751
  156POPC   D2A 2299   3.355  -0.135   5.603  0.2761  0.1053  0.2083
  156POPC   C3A 2300   3.331   0.221   5.742  0.2466 -0.2363  0.1956
  156POPC   C4A 2301   2.995   0.349   6.012 -0.1664 -0.0588  0.0609
  156POPC   C1B 2302   3.130  -0.522   5.049  0.2623 -0.1258  0.0667
  156POPC   C2B 2303   3.089  -0.749   5.450  0.0457  0.1613 -0.1771
  156POPC   C3B 2304   2.940  -1.114   5.725 -0.2130  0.2267  0.1334
  156POPC   C4B 2305   2.771  -1.290   6.113  0.2544  0.0479 -0.3258
  157POPC   NC3 2306   6.045   1.092   4.309  0.0912  0.2859 -0.1030
  157POPC   PO4 2307   6.417   1.344   4.069  0.1159  0.0506 -0.1640
  157POPC   GL1 2308   6.444   1.159   4.531 -0.0269 -0.0163  0.1065
  157POPC   GL2 2309   6.782   1.138   4.458  0.0321  0.0520  0.0945
  157POPC   C1A 2310   6.322   0.967   4.917  0.0080 -0.0950  0.1003
  157POPC   D2A 2311   6.484   1.031   5.183  0.0735  0.0985 -0.2822
  157POPC   C3A 2312   6.928   0.946   5.169  0.1580 -0.1725 -0.0307
  157POPC   C4A 2313   7.201   0.690   5.351 -0.2381 -0.1981  0.0381
  157POPC   C1B 2314   6.694   1.473   4.831 -0.2877  0.0888  0.1136
  157POPC   C2B 2315   6.673   1.424   5.327 -0.1006 -0.1100 -0.2147
  157POPC   C3B 2316   6.934   1.657   5.691 -0.0039 -0.1764  0.2069
  157POPC   C4B 2317   6.633   1.673   6.025 -0.1878  0.0823  0.4623
  158POPC   NC3 2318   7.498   1.502   4.229  0.2890 -0.0421  0.3166
  158POPC   PO4 2319   7.348   1.033   4.194 -0.0717  0.0534 -0.2381
  158POPC   GL1 2320   7.203   1.191   4.681 -0.3792  0.3910 -0.2481
  158POPC   GL2 2321   7.356   0.906   4.850  0.4314 -0.0283 -0.2293
  158POPC   C1A 2322   7.183   1.570   5.011  0.1744  0.1946  0.1210
  158POPC   D2A 2323   7.263   1.797   5.260 -0.1590  0.0019  0.1207
  158POPC   C3A 2324   7.390   1.661   5.655 -0.1459 -0.0727  0.1327
  158POPC   C4A 2325   7.494   1.384   6.040  0.2756 -0.0624  0.0201
  158POPC   C1B 2326   7.448   1.171   5.201  0.0042  0.0049  0.2265
  158POPC   C2B 2327   7.314   1.160   5.581 -0.0557 -0.0703 -0.1382
  158POPC   C3B 2328   7.370   0.860   5.915  0.6053  0.2401 -0.0721
  158POPC   C4B 2329   7.123   0.657   6.242  0.2983  0.2820 -0.1921
  159POPC   NC3 2330   9.770   3.076   3.400 -0.0731 -0.3053  0.1113
  159POPC   PO4 2331   9.682   3.547   3.648  0.2508 -0.1011  0.2918
  159POPC   GL1 2332   9.769   3.534   4.135  0.2867  0.0270 -0.1899
  159POPC   GL2 2333   9.387   3.593   4.247 -0.1104  0.2364 -0.0466
  159POPC   C1A 2334   9.893   3.894   4.387  0.2218  0.1497  0.1210
  159POPC   D2A 2335   9.999   4.143   4.731  0.3938  0.0271 -0.3221
  159POPC   C3A 2336   9.894   3.887   5.059  0.0870 -0.1172 -0.1893
  159POPC   C4A 2337  10.015   3.427   5.105 -0.0377  0.3612 -0.1495
  159POPC   C1B 2338   9.280   3.373   4.582  0.0509  0.1191  0.1781
  159POPC   C2B 2339   8.956   3.139   4.807 -0.1805 -0.0093 -0.0546
  159POPC   C3B 2340   8.592   2.889   4.810  0.0277 -0.0840  0.0473
  159POPC   C4B 2341   8.193   3.214   4.791 -0.0352 -0.1681  0.1169
  160POPC   NC3 2342   8.567   5.114   4.641 -0.0372  0.1292 -0.1257
  160POPC   PO4 2343   8.239   4.733   4.556 -0.1060  0.0233  0.0499
  160POPC   GL1 2344   8.277   4.740   4.933 -0.0714  0.0197 -0.0636
  160POPC   GL2 2345   8.552   4.748   5.021 -0.2665  0.2419 -0.1569
  160POPC   C1A 2346   8.274   4.349   5.078 -0.1064 -0.2308  0.3493
  160POPC   D2A 2347   8.020   4.253   5.365  0.1437  0.0686 -0.0106
  160POPC   C3A 2348   8.172   3.940   5.674  0.3467 -0.2707  0.5138
  160POPC   C4A 2349   8.390   3.630   5.670  0.2103  0.1993  0.3860
  160POPC   C1B 2350   8.722   4.418   5.220 -0.0673 -0.0509  0.0438
  160POPC   C2B 2351   9.025   4.236   5.246  0.0311 -0.0168 -0.0710
  160POPC   C3B 2352   9.372   3.984   5.213 -0.1970  0.1358  0.0792
  160POPC   C4B 2353   9.788   4.084   5.493  0.0686  0.1436 -0.1067
  161POPC   NC3 2354   7.735   0.772   4.290 -0.1169  0.0348  0.1629
  161POPC   PO4 2355   7.846   0.327   4.274 -0.4016  0.0371 -0.0449
  161POPC   GL1 2356   8.069   0.366   4.664  0.0208  0.1638 -0.1248
  161POPC   GL2 2357   8.055   0.644   4.724  0.0023  0.4278 -0.2196
  161POPC   C1A 2358   7.840   0.203   5.047 -0.4266 -0.1205  0.3859
  161POPC   D2A 2359   7.403   0.286   5.189 -0.1615 -0.2512  0.4509
  161POPC   C3A 2360   7.307   0.217   5.607 -0.1175 -0.1674 -0.0298
  161POPC   C4A 2361   6.961   0.376   5.905 -0.2479  0.0230  0.1440
  161POPC   C1B 2362   7.707   0.688   5.050 -0.1236 -0.0628  0.2453
  161POPC   C2B 2363   7.876   0.496   5.477 -0.0891  0.0093  0.0657
  161POPC   C3B 2364   7.765   0.544   5.977 -0.1298  0.1983 -0.0244
  161POPC   C4B 2365   7.697   0.703   6.390 -0.2054 -0.0047  0.1610
  162POPC   NC3 2366   1.152   6.949   4.718 -0.2102 -0.0124  0.1505
  162POPC   PO4 2367   1.570   6.864   4.567 -0.0955  0.0191  0.0335
  162POPC   GL1 2368   1.517   6.691   4.935 -0.0677  0.0070  0.0611
  162POPC   GL2 2369   1.578   6.728   5.313  0.1092 -0.0520 -0.1665
  162POPC   C1A 2370   1.715   6.283   5.031  0.0136  0.0282  0.0118
  162POPC   D2A 2371   1.778   6.053   5.496  0.0806 -0.1347 -0.0459
  162POPC   C3A 2372   1.574   5.699   5.637  0.2128 -0.0641 -0.0773
  162POPC   C4A 2373   1.421   5.476   5.916 -0.1141  0.3417 -0.0606
  162POPC   C1B 2374   1.251   6.920   5.581 -0.1662 -0.0684 -0.1887
  162POPC   C2B 2375   1.020   6.881   5.964  0.2280 -0.1071  0.1748
  162POPC   C3B 2376   0.883   6.629   6.308  0.1206 -0.0683 -0.0693
  162POPC   C4B 2377   0.951   6.581   6.696 -0.1909  0.0335 -0.1343
  163POPC   NC3 2378   5.306   2.947   4.971  0.0339  0.2512  0.0446
  163POPC   PO4 2379   5.133   2.531   4.872 -0.1489  0.2229  0.2293
  163POPC   GL1 2380   5.035   2.345   5.293  0.3339  0.1828  0.1218
  163POPC   GL2 2381   5.274   2.738   5.521  0.2802  0.0600  0.2805
  163POPC   C1A 2382   5.160   2.302   5.733  0.0081  0.0150 -0.0218
  163POPC   D2A 2383   5.242   2.237   6.100 -0.0920 -0.0198 -0.0007
  163POPC   C3A 2384   5.668   2.161   6.338 -0.0246  0.2036 -0.1270
  163POPC   C4A 2385   6.093   2.217   6.434 -0.1736 -0.1975  0.0282
  163POPC   C1B 2386   5.185   2.722   6.034  0.2012 -0.0755  0.2272
  163POPC   C2B 2387   5.081   2.645   6.397 -0.2668  0.1315 -0.0053
  163POPC   C3B 2388   4.771   2.652   6.741 -0.0704  0.0975  0.2508
  163POPC   C4B 2389   4.763   2.471   7.228  0.2515  0.0091 -0.0213
  164POPC   NC3 2390   5.645   8.859   4.609  0.0536  0.0047  0.2461
  164POPC   PO4 2391   5.357   8.467   4.454  0.0837 -0.3397 -0.2411
  164POPC   GL1 2392   5.268   8.646   4.843 -0.2056  0.1294  0.2404
  164POPC   GL2 2393   5.432   8.637   5.161  0.1075  0.0051 -0.0960
  164POPC   C1A 2394   5.072   8.298   5.278  0.1737  0.3140  0.0577
  164POPC   D2A 2395   4.718   7.950   5.434  0.0009 -0.1457 -0.2016
  164POPC   C3A 2396   4.632   7.955   5.828  0.1713  0.1059  0.0747
  164POPC   C4A 2397   4.466   7.954   6.357 -0.2215 -0.2574 -0.0463
  164POPC   C1B 2398   5.243   8.667   5.574 -0.0593 -0.1903 -0.1457
  164POPC   C2B 2399   5.322   8.626   5.993 -0.0033 -0.0335 -0.0703
  164POPC   C3B 2400   5.421   8.797   6.364  0.0625 -0.1682 -0.0312
  164POPC   C4B 2401   5.304   8.699   6.870  0.0902  0.1669 -0.2574
  165POPC   NC3 2402   2.152   8.212   4.687 -0.1617  0.0548  0.0116
  165POPC   PO4 2403   1.878   8.460   4.804 -0.1411  0.3804  0.0143
  165POPC   GL1 2404   2.179   8.634   5.058  0.1448  0.3066 -0.0588
  165POPC   GL2 2405   2.339   8.355   5.123 -0.1888  0.1499 -0.5345
  165POPC   C1A 2406   2.373   8.772   5.465 -0.5456 -0.2106 -0.0702
  165POPC   D2A 2407   2.366   8.904   5.922  0.1722  0.1943 -0.1425
  165POPC   C3A 2408   2.207   9.220   6.150  0.1174 -0.2038 -0.0354
  165POPC   C4A 2409   2.323   9.517   6.377 -0.1210  0.4131  0.0325
  165POPC   C1B 2410   2.164   8.166   5.570 -0.2291  0.0894  0.0828
  165POPC   C2B 2411   2.301   7.855   5.911 -0.0243 -0.0509  0.2653
  165POPC   C3B 2412   2.150   7.665   6.269  0.0781 -0.1995  0.2208
  165POPC   C4B 2413   1.810   7.726   6.591  0.1299 -0.1415 -0.3594
  166POPC   NC3 2414   7.857   3.057   4.111  0.0363  0.3007  0.0240
  166POPC   PO4 2415   7.439   2.853   4.040  0.2538 -0.0140  0.0353
  166POPC   GL1 2416   7.537   2.938   4.513 -0.1654  0.2264 -0.5039
  166POPC   GL2 2417   7.769   2.971   4.574 -0.0584 -0.3982  0.2215
  166POPC   C1A 2418   7.410   2.803   4.851  0.2303  0.0308  0.1772
  166POPC   D2A 2419   7.666   2.516   5.129 -0.1817 -0.0725 -0.0027
  166POPC   C3A 2420   8.036   2.319   5.139 -0.2007  0.3990 -0.0451
  166POPC   C4A 2421   8.216   1.949   4.977 -0.0142  0.0209  0.1473
  166POPC   C1B 2422   8.009   2.797   4.921 -0.4124  0.1401  0.0068
  166POPC   C2B 2423   7.899   2.857   5.368 -0.0426  0.0350  0.0682
  166POPC   C3B 2424   7.670   2.850   5.796 -0.2110 -0.1472  0.0939
  166POPC   C4B 2425   7.827   3.072   6.159 -0.0254  0.2583 -0.2264
  167POPC   NC3 2426   4.421   4.915   4.657  0.0437  0.0845 -0.0460
  167POPC   PO4 2427   3.970   4.700   4.493  0.1083 -0.2993  0.1147
  167POPC   GL1 2428   4.052   4.642   5.049  0.1711  0.1639 -0.0163
  167POPC   GL2 2429   4.278   4.793   5.223 -0.0675  0.1748  0.0350
  167POPC   C1A 2430   3.767   4.515   5.495 -0.1858 -0.1036 -0.0444
  167POPC   D2A 2431   3.688   4.208   5.811 -0.0138  0.0483  0.1294
  167POPC   C3A 2432   3.682   4.278   6.277 -0.2474  0.1702  0.2778
  167POPC   C4A 2433   3.848   4.246   6.633  0.0992  0.0937 -0.2456
  167POPC   C1B 2434   4.204   4.839   5.701  0.0136 -0.0411 -0.1417
  167POPC   C2B 2435   4.411   4.824   6.099 -0.0629  0.0219 -0.0344
  167POPC   C3B 2436   4.894   4.704   6.324 -0.0920 -0.3930 -0.1717
  167POPC   C4B 2437   5.219   4.391   6.408  0.1904 -0.3211  0.1282
  168POPC   NC3 2438   4.034   6.573   4.799  0.2110 -0.1303 -0.0816
  168POPC   PO4 2439   4.083   6.189   4.978  0.0500 -0.2216  0.0788
  168POPC   GL1 2440   4.350   6.111   5.373  0.0208  0.3343  0.0556
  168POPC   GL2 2441   4.685   6.263   5.456 -0.0729 -0.2160 -0.0953
  168POPC   C1A 2442   4.467   5.884   5.714 -0.3096  0.2624 -0.0761
  168POPC   D2A 2443   4.287   5.654   6.014  0.1906  0.0058  0.3177
  168POPC   C3A 2444   4.570   5.379   5.951  0.2004  0.0450  0.3022
  168POPC   C4A 2445   4.780   5.035   5.833 -0.2156 -0.3271  0.1203
  168POPC   C1B 2446   4.604   6.502   5.796  0.1310  0.0324 -0.0382
  168POPC   C2B 2447   4.667   6.647   6.297 -0.1647  0.0838 -0.1552
  168POPC   C3B 2448   4.740   7.166   6.244 -0.1778 -0.0465  0.0692
  168POPC   C4B 2449   4.834   7.652   6.149  0.0107 -0.0040  0.0138
  169POPC   NC3 2450   5.764   5.269   4.847  0.0152 -0.0182 -0.0126
  169POPC   PO4 2451   5.868   4.746   4.728  0.1729 -0.2688 -0.0905
  169POPC   GL1 2452   6.019   4.628   5.118  0.2686  0.3432  0.0617
  169POPC   GL2 2453   6.020   4.313   5.229 -0.1258  0.0199 -0.2671
  169POPC   C1A 2454   6.269   4.625   5.553  0.0173  0.0409  0.1139
  169POPC   D2A 2455   6.095   4.678   5.919  0.0803 -0.0735  0.0604
  169POPC   C3A 2456   6.296   4.757   6.319  0.2997 -0.0319 -0.0308
  169POPC   C4A 2457   6.676   4.637   6.650  0.0634 -0.1050  0.1357
  169POPC   C1B 2458   5.943   4.198   5.729  0.2513  0.0937 -0.0370
  169POPC   C2B 2459   6.171   4.210   6.074  0.5002  0.2440  0.0585
  169POPC   C3B 2460   6.323   4.260   6.485  0.0363  0.3523 -0.2788
  169POPC   C4B 2461   6.325   4.475   6.963  0.0783  0.1032  0.4092
  170POPC   NC3 2462   5.892   3.799   4.914 -0.0950  0.2330 -0.0027
  170POPC   PO4 2463   5.485   3.789   4.728  0.2358 -0.0264  0.0117
  170POPC   GL1 2464   5.507   3.993   5.131 -0.1679  0.0243 -0.0248
  170POPC   GL2 2465   5.484   4.281   5.114  0.4485  0.0500  0.0063
  170POPC   C1A 2466   5.582   3.884   5.569 -0.0888  0.0041 -0.1567
  170POPC   D2A 2467   5.696   3.549   5.873  0.2180  0.1624 -0.0431
  170POPC   C3A 2468   5.838   3.703   6.202 -0.1878  0.0853  0.1549
  170POPC   C4A 2469   6.019   3.868   6.507  0.0006 -0.0897  0.0070
  170POPC   C1B 2470   5.542   4.443   5.465 -0.0642  0.0647 -0.0872
  170POPC   C2B 2471   5.681   4.820   5.667  0.0747  0.0409 -0.1354
  170POPC   C3B 2472   5.841   5.094   6.040 -0.0603  0.1798  0.0657
  170POPC   C4B 2473   5.891   5.167   6.489 -0.0054 -0.0461 -0.0888
  171POPC   NC3 2474   3.870   8.532   4.837 -0.2600  0.0882 -0.2262
  171POPC   PO4 2475   3.485   8.717   4.660 -0.0061  0.0890 -0.2380
  171POPC   GL1 2476   3.309   8.942   5.038 -0.1851 -0.1708 -0.1094
  171POPC   GL2 2477   2.951   8.822   5.089  0.1478  0.0881 -0.1332
  171POPC   C1A 2478   3.410   8.826   5.460 -0.3138 -0.1365 -0.3907
  171POPC   D2A 2479   3.481   8.803   5.913  0.0117 -0.1184 -0.4254
  171POPC   C3A 2480   3.375   8.539   6.157  0.0968 -0.0193 -0.1609
  171POPC   C4A 2481   2.999   8.300   6.451 -0.0401 -0.0678 -0.0755
  171POPC   C1B 2482   2.872   8.515   5.375 -0.1415 -0.1942 -0.2104
  171POPC   C2B 2483   2.619   8.337   5.717 -0.0452 -0.0640 -0.3017
  171POPC   C3B 2484   2.284   8.384   5.998  0.2239  0.2021  0.1699
  171POPC   C4B 2485   2.034   8.684   6.234 -0.0674 -0.0020  0.0018
  172POPC   NC3 2486   9.911   5.703   4.565  0.5049  0.0424 -0.1389
  172POPC   PO4 2487  10.010   5.341   4.625  0.0273 -0.1844 -0.1441
  172POPC   GL1 2488  10.021   5.468   5.024 -0.0226 -0.0545 -0.2057
  172POPC   GL2 2489   9.861   5.766   5.034 -0.2104  0.1421 -0.1181
  172POPC   C1A 2490  10.231   5.364   5.418 -0.1252  0.2535 -0.1783
  172POPC   D2A 2491  10.337   5.146   5.727  0.1600  0.0908  0.0037
  172POPC   C3A 2492  10.458   5.446   6.118 -0.1943  0.0859  0.0781
  172POPC   C4A 2493  10.702   5.234   6.383 -0.3483 -0.1268  0.0345
  172POPC   C1B 2494   9.806   5.682   5.433 -0.3011  0.0665 -0.0829
  172POPC   C2B 2495   9.453   5.673   5.700 -0.3534 -0.1943  0.0793
  172POPC   C3B 2496   9.311   5.463   6.091  0.0797  0.2336 -0.0839
  172POPC   C4B 2497   9.326   5.393   6.479 -0.0846 -0.0262  0.0327
  173POPC   NC3 2498   8.801   3.212   3.698 -0.0424  0.2083 -0.1838
  173POPC   PO4 2499   8.751   2.761   3.890  0.1716  0.0187  0.0235
  173POPC   GL1 2500   8.810   2.814   4.288  0.3414 -0.0460  0.0748
  173POPC   GL2 2501   8.747   2.569   4.417 -0.0773 -0.1209 -0.0267
  173POPC   C1A 2502   9.204   2.898   4.472 -0.0564 -0.2260 -0.0695
  173POPC   D2A 2503   9.453   2.797   4.762  0.2644 -0.0024  0.1434
  173POPC   C3A 2504   9.424   3.195   5.004  0.0703 -0.4252 -0.0223
  173POPC   C4A 2505   9.555   3.509   5.257  0.1885 -0.3398 -0.1649
  173POPC   C1B 2506   8.931   2.521   4.841  0.0125  0.1858  0.0668
  173POPC   C2B 2507   8.978   2.817   5.213  0.0330 -0.1882  0.0669
  173POPC   C3B 2508   8.714   2.825   5.631 -0.2332  0.3215 -0.1033
  173POPC   C4B 2509   8.602   2.718   5.946  0.0672  0.0275  0.1693
  174POPC   NC3 2510   7.252   3.384   3.786 -0.2709 -0.2234  0.2822
  174POPC   PO4 2511   7.442   3.373   4.163  0.1466  0.1817 -0.1572
  174POPC   GL1 2512   7.413   3.419   4.612 -0.2025  0.1823 -0.3308
  174POPC   GL2 2513   7.183   3.266   4.817  0.1048 -0.2537  0.2446
  174POPC   C1A 2514   7.706   3.226   4.973  0.2422 -0.2254  0.0397
  174POPC   D2A 2515   8.000   3.326   5.267 -0.0976  0.1228  0.2477
  174POPC   C3A 2516   7.875   3.310   5.698  0.0891 -0.3991 -0.0249
  174POPC   C4A 2517   8.018   3.558   6.063  0.3429  0.1237 -0.0677
  174POPC   C1B 2518   7.225   3.272   5.285 -0.1584  0.2245  0.1110
  174POPC   C2B 2519   7.308   3.154   5.656  0.0132 -0.0774  0.1177
  174POPC   C3B 2520   7.442   3.403   6.035 -0.1228  0.2320  0.3109
  174POPC   C4B 2521   7.666   3.442   6.414 -0.1842 -0.3506 -0.0103
  175POPC   NC3 2522   8.010   8.205   4.341 -0.1477 -0.0326 -0.0945
  175POPC   PO4 2523   8.391   8.202   4.602  0.0779  0.0190 -0.1356
  175POPC   GL1 2524   8.495   8.227   5.122  0.1836 -0.1682 -0.1465
  175POPC   GL2 2525   8.640   8.533   5.341 -0.0136  0.4774 -0.1354
  175POPC   C1A 2526   8.520   8.088   5.524 -0.1527 -0.0133 -0.0918
  175POPC   D2A 2527   8.619   7.945   5.914  0.0530 -0.0263 -0.1959
  175POPC   C3A 2528   8.878   7.649   6.131  0.0436  0.1687  0.0048
  175POPC   C4A 2529   9.257   7.309   6.045 -0.1888  0.0399 -0.1286
  175POPC   C1B 2530   8.854   8.428   5.733  0.0608 -0.0518  0.1977
  175POPC   C2B 2531   8.750   8.693   6.037  0.3681  0.4089 -0.1497
  175POPC   C3B 2532   8.565   8.841   6.438 -0.1502  0.1141 -0.3234
  175POPC   C4B 2533   8.069   8.745   6.571  0.0787 -0.2802  0.0139
  176POPC   NC3 2534   8.276   0.111   4.282  0.3808 -0.0745 -0.3526
  176POPC   PO4 2535   8.507   0.474   4.246  0.0621 -0.1866  0.1165
  176POPC   GL1 2536   8.586   0.324   4.646 -0.1901 -0.1922 -0.0299
  176POPC   GL2 2537   8.520   0.631   4.829  0.3718  0.2624  0.2186
  176POPC   C1A 2538   8.385   0.252   5.112  0.2436 -0.2617 -0.0503
  176POPC   D2A 2539   8.451   0.438   5.632  0.0726  0.1561  0.1078
  176POPC   C3A 2540   8.225   0.294   5.998 -0.0861  0.0636  0.3725
  176POPC   C4A 2541   8.034   0.183   6.451  0.1418  0.1979  0.1962
  176POPC   C1B 2542   8.223   0.818   5.169  0.0591 -0.0485  0.0089
  176POPC   C2B 2543   8.097   0.907   5.612  0.5135  0.0945  0.0252
  176POPC   C3B 2544   7.884   1.059   6.032  0.1250 -0.0769 -0.0872
  176POPC   C4B 2545   7.904   1.160   6.411  0.1534  0.3223  0.3395
  177POPC   NC3 2546   4.519   7.718   4.677 -0.1207  0.2646  0.1881
  177POPC   PO4 2547   4.586   8.133   4.853 -0.0350 -0.3291 -0.0970
  177POPC   GL1 2548   4.610   8.424   5.260 -0.0446  0.1283  0.0923
  177POPC   GL2 2549   4.849   8.758   5.244  0.0712 -0.0095 -0.0339
  177POPC   C1A 2550   4.726   8.451   5.749  0.1777  0.0451  0.4641
  177POPC   D2A 2551   4.946   8.273   6.109  0.3133 -0.2088  0.0706
  177POPC   C3A 2552   5.081   8.384   6.511 -0.1582  0.2530  0.2926
  177POPC   C4A 2553   5.378   8.184   6.669 -0.0655  0.1579  0.2320
  177POPC   C1B 2554   4.808   8.908   5.747 -0.0854  0.1774  0.1664
  177POPC   C2B 2555   4.476   9.046   5.955  0.1527  0.2262 -0.1022
  177POPC   C3B 2556   4.301   8.894   6.353 -0.2389 -0.1328 -0.2033
  177POPC   C4B 2557   4.016   9.001   6.711  0.0920  0.2077  0.0192
  178POPC   NC3 2558   8.869   8.103   4.371 -0.0875  0.2241 -0.1863
  178POPC   PO4 2559   8.864   8.317   4.778  0.2016  0.0126 -0.2312
  178POPC   GL1 2560   9.037   8.232   5.186  0.3851 -0.0885 -0.0594
  178POPC   GL2 2561   9.188   8.572   5.353  0.1848 -0.4131 -0.0362
  178POPC   C1A 2562   9.001   7.980   5.611  0.1457 -0.1533 -0.1596
  178POPC   D2A 2563   9.143   8.056   6.049  0.0697  0.0673  0.1086
  178POPC   C3A 2564   8.773   8.037   6.384 -0.1230  0.0809 -0.0603
  178POPC   C4A 2565   8.421   7.855   6.427  0.0505  0.1603  0.0091
  178POPC   C1B 2566   9.142   8.868   5.724 -0.4790 -0.0862 -0.0559
  178POPC   C2B 2567   9.022   9.285   5.713  0.1647  0.0740 -0.3117
  178POPC   C3B 2568   8.933   9.617   5.972 -0.0999 -0.0520 -0.2029
  178POPC   C4B 2569   8.983   9.710   6.407 -0.1729  0.0995  0.0097
  179POPC   NC3 2570   2.858   5.563   4.581 -0.0382  0.1694 -0.1425
  179POPC   PO4 2571   3.144   5.792   4.692  0.3729  0.0027 -0.0699
  179POPC   GL1 2572   3.134   5.731   5.081  0.4201 -0.2911  0.0205
  179POPC   GL2 2573   3.179   5.856   5.328  0.3246  0.0624  0.0805
  179POPC   C1A 2574   2.659   5.645   5.336 -0.3185  0.2058 -0.0392
  179POPC   D2A 2575   2.511   5.460   5.673 -0.0417 -0.0923  0.4605
  179POPC   C3A 2576   2.590   5.149   5.995 -0.1073 -0.2179  0.1011
  179POPC   C4A 2577   2.589   4.846   6.383 -0.0641 -0.2060  0.1711
  179POPC   C1B 2578   3.252   5.923   5.736  0.2550  0.2777 -0.1441
  179POPC   C2B 2579   3.164   6.084   6.180 -0.2674  0.0126  0.1200
  179POPC   C3B 2580   2.878   6.308   6.420  0.0339 -0.0784 -0.0052
  179POPC   C4B 2581   2.541   6.243   6.786  0.1811  0.1246 -0.0063
  180POPC   NC3 2582   5.172   5.271   4.459 -0.1897  0.5361 -0.4249
  180POPC   PO4 2583   4.877   5.119   4.747 -0.5239  0.2805 -0.1697
  180POPC   GL1 2584   4.770   5.164   5.225 -0.4579  0.2455 -0.0254
  180POPC   GL2 2585   4.489   5.162   5.441 -0.0705 -0.1692 -0.0098
  180POPC   C1A 2586   4.958   5.357   5.517 -0.1666  0.0715  0.0281
  180POPC   D2A 2587   5.251   5.255   5.831  0.1598 -0.2487  0.1614
  180POPC   C3A 2588   5.013   5.206   6.249  0.1221 -0.2675  0.1029
  180POPC   C4A 2589   4.603   5.174   6.412  0.0388 -0.3391 -0.0174
  180POPC   C1B 2590   4.209   5.515   5.351 -0.1657 -0.0950 -0.1824
  180POPC   C2B 2591   4.000   5.817   5.581 -0.2000  0.2165 -0.1113
  180POPC   C3B 2592   3.718   5.769   5.959  0.0750  0.0680 -0.0531
  180POPC   C4B 2593   3.397   5.564   6.131  0.1276  0.0086  0.0349
  181POPC   NC3 2594   8.791   4.437   4.079 -0.2056 -0.2920 -0.0654
  181POPC   PO4 2595   8.840   4.833   4.319 -0.1375 -0.0548  0.3220
  181POPC   GL1 2596   9.087   4.846   4.800  0.2598 -0.0542 -0.2545
  181POPC   GL2 2597   8.945   5.094   5.013  0.2513 -0.3044  0.0356
  181POPC   C1A 2598   9.103   4.740   5.378  0.0506  0.1944  0.0722
  181POPC   D2A 2599   8.795   4.676   5.679  0.2955 -0.1046  0.1710
  181POPC   C3A 2600   8.787   4.493   6.071  0.0178 -0.3098 -0.0573
  181POPC   C4A 2601   8.665   4.343   6.390  0.0300  0.2000 -0.1208
  181POPC   C1B 2602   8.673   5.082   5.459 -0.0122  0.1133  0.0014
  181POPC   C2B 2603   8.829   5.129   5.903  0.2626 -0.2123  0.4582
  181POPC   C3B 2604   9.228   4.912   6.094  0.0186 -0.0255 -0.0186
  181POPC   C4B 2605   9.295   4.509   5.860 -0.0591 -0.1299 -0.3598
  182POPC   NC3 2606   0.349   6.523   4.936 -0.0986 -0.2339  0.1859
  182POPC   PO4 2607  -0.105   6.341   4.978 -0.3606  0.0342  0.1397
  182POPC   GL1 2608  -0.330   6.212   5.275  0.0757  0.0820 -0.2720
  182POPC   GL2 2609  -0.627   6.367   5.415  0.1680  0.1213  0.1521
  182POPC   C1A 2610  -0.255   6.091   5.729  0.1749  0.1049 -0.2258
  182POPC   D2A 2611  -0.184   5.971   6.229 -0.0343  0.2545  0.2009
  182POPC   C3A 2612   0.234   5.862   6.398  0.3368  0.0201 -0.1848
  182POPC   C4A 2613   0.645   5.747   6.458  0.0877 -0.1955  0.0250
  182POPC   C1B 2614  -0.681   6.299   5.812  0.1561  0.2493  0.2572
  182POPC   C2B 2615  -0.715   5.945   6.017  0.0088 -0.3190 -0.2830
  182POPC   C3B 2616  -0.675   5.867   6.436 -0.2262  0.2294 -0.0870
  182POPC   C4B 2617  -0.606   5.754   6.920  0.3685 -0.1934 -0.0677
  183POPC   NC3 2618   2.984   0.657   4.434 -0.1458  0.1254  0.1139
  183POPC   PO4 2619   3.437   0.687   4.322  0.0140  0.2715 -0.0478
  183POPC   GL1 2620   3.369   0.568   4.786  0.1804  0.1921 -0.1052
  183POPC   GL2 2621   3.559   0.814   5.013 -0.0374 -0.0752  0.1030
  183POPC   C1A 2622   3.257   0.460   5.148 -0.0781 -0.3534 -0.1101
  183POPC   D2A 2623   3.381   0.620   5.515  0.0376 -0.0614 -0.1611
  183POPC   C3A 2624   3.263   0.900   5.877  0.1458 -0.1049  0.1120
  183POPC   C4A 2625   3.360   1.170   6.211 -0.3226  0.4363 -0.0848
  183POPC   C1B 2626   3.837   0.618   5.276  0.1113 -0.1449  0.3278
  183POPC   C2B 2627   3.983   0.647   5.648  0.0655  0.0624  0.4069
  183POPC   C3B 2628   3.655   0.592   5.973 -0.0926  0.0945  0.2290
  183POPC   C4B 2629   3.403   0.316   6.242 -0.0693 -0.1175  0.1001
  184POPC   NC3 2630   8.744   0.765   3.891 -0.1608 -0.1747  0.0191
  184POPC   PO4 2631   8.945   1.171   3.982  0.4631 -0.0362  0.1954
  184POPC   GL1 2632   9.135   1.291   4.282 -0.5509  0.0160  0.0043
  184POPC   GL2 2633   9.386   1.431   4.320 -0.1794  0.0154  0.0261
  184POPC   C1A 2634   9.249   1.095   4.668  0.5138  0.1520  0.1778
  184POPC   D2A 2635   9.108   0.957   5.027 -0.0637  0.0270  0.5191
  184POPC   C3A 2636   9.333   0.661   5.274  0.1199 -0.0851  0.2629
  184POPC   C4A 2637   9.393   0.309   5.642 -0.1400 -0.0449  0.0757
  184POPC   C1B 2638   9.264   1.741   4.675  0.1605 -0.2195  0.0852
  184POPC   C2B 2639   9.255   2.120   4.842  0.0271  0.1147  0.1137
  184POPC   C3B 2640   9.257   2.325   5.231 -0.0034 -0.0386 -0.1371
  184POPC   C4B 2641   8.946   2.351   5.632  0.1038  0.2407  0.0952
  185POPC   NC3 2642   0.527   4.000   2.864  0.2523 -0.1681  0.0917
  185POPC   PO4 2643   0.509   3.714   3.169  0.3661  0.0295  0.1104
  185POPC   GL1 2644   0.568   3.510   3.585 -0.0469  0.2985  0.0590
  185POPC   GL2 2645   0.215   3.319   3.663  0.2140 -0.1530 -0.2615
  185POPC   C1A 2646   0.869   3.434   3.891  0.1078  0.0809  0.5113
  185POPC   D2A 2647   1.198   3.624   4.179  0.0027 -0.0937 -0.3512
  185POPC   C3A 2648   1.348   3.558   4.606 -0.1799  0.0978  0.1758
  185POPC   C4A 2649   1.495   3.189   4.812 -0.2039 -0.0789 -0.1807
  185POPC   C1B 2650   0.183   3.042   4.080 -0.4292 -0.2381  0.3508
  185POPC   C2B 2651   0.139   2.998   4.548 -0.0268 -0.3409  0.1269
  185POPC   C3B 2652  -0.069   2.941   4.948  0.0048  0.0393 -0.1718
  185POPC   C4B 2653  -0.432   2.834   5.334  0.1765  0.0746  0.0717
  186POPC   NC3 2654   8.488   1.357   4.161  0.0405 -0.1617 -0.0737
  186POPC   PO4 2655   8.212   0.960   4.292 -0.2397 -0.1018  0.2004
  186POPC   GL1 2656   8.291   1.078   4.680  0.0970  0.0443 -0.0168
  186POPC   GL2 2657   8.309   1.397   4.836  0.2812 -0.2288  0.1845
  186POPC   C1A 2658   8.630   1.078   5.012 -0.1890  0.2067  0.1922
  186POPC   D2A 2659   8.717   0.825   5.387 -0.0366  0.0183 -0.2912
  186POPC   C3A 2660   8.926   0.601   5.662  0.1838 -0.2451  0.0606
  186POPC   C4A 2661   9.196   0.539   6.066 -0.1948 -0.0391 -0.1129
  186POPC   C1B 2662   8.357   1.426   5.271  0.1508  0.0912 -0.3277
  186POPC   C2B 2663   8.381   1.349   5.594  0.0188 -0.2435  0.0564
  186POPC   C3B 2664   8.297   1.315   6.036  0.1806  0.2326 -0.2037
  186POPC   C4B 2665   8.414   1.112   6.409 -0.5115 -0.2083 -0.2330
  187POPC   NC3 2666   1.836   7.316   4.683 -0.0110 -0.1450  0.0249
  187POPC   PO4 2667   1.539   7.210   4.933  0.2498  0.0310  0.0252
  187POPC   GL1 2668   1.577   7.275   5.358  0.0237  0.0802  0.4826
  187POPC   GL2 2669   1.692   7.542   5.556  0.2338 -0.1334 -0.1101
  187POPC   C1A 2670   1.786   7.076   5.627 -0.1657  0.1644  0.0059
  187POPC   D2A 2671   1.981   6.850   5.886 -0.1219  0.0924 -0.0528
  187POPC   C3A 2672   1.961   6.546   6.330 -0.3171 -0.2388 -0.1962
  187POPC   C4A 2673   1.646   6.581   6.499  0.0483 -0.3121 -0.0719
  187POPC   C1B 2674   1.801   7.887   5.750 -0.0641  0.0365 -0.3093
  187POPC   C2B 2675   1.679   7.979   6.150 -0.1728  0.0084  0.1453
  187POPC   C3B 2676   1.820   8.202   6.472 -0.0392 -0.0641 -0.1779
  187POPC   C4B 2677   1.911   8.326   6.927  0.2791 -0.0158 -0.0154
  188POPC   NC3 2678   4.199   1.214   4.217  0.2903 -0.1489  0.1662
  188POPC   PO4 2679   4.185   0.852   4.412 -0.1378 -0.0959 -0.1535
  188POPC   GL1 2680   4.321   0.754   4.830 -0.0624 -0.0958  0.2684
  188POPC   GL2 2681   4.144   0.496   4.962  0.1514 -0.0528  0.0795
  188POPC   C1A 2682   4.631   0.571   5.193  0.0083 -0.1032 -0.2112
  188POPC   D2A 2683   5.003   0.476   5.473 -0.2151  0.1096 -0.2095
  188POPC   C3A 2684   4.958   0.472   5.859 -0.0796  0.3024  0.0841
  188POPC   C4A 2685   5.073   0.318   6.313 -0.0143 -0.0817  0.1357
  188POPC   C1B 2686   4.252   0.915   5.284  0.2614 -0.1581 -0.0191
  188POPC   C2B 2687   4.266   1.018   5.740 -0.0878 -0.1253  0.2235
  188POPC   C3B 2688   4.125   1.403   5.834 -0.2220 -0.0263 -0.0654
  188POPC   C4B 2689   4.062   1.707   6.139 -0.3449 -0.2447  0.0799
  189POPC   NC3 2690   7.883   4.773   4.227 -0.1809  0.1023  0.0741
  189POPC   PO4 2691   8.201   5.179   4.292  0.1758  0.0164 -0.0871
  189POPC   GL1 2692   8.142   5.346   4.766 -0.0728  0.0525 -0.1033
  189POPC   GL2 2693   8.373   5.257   5.072  0.1784 -0.2024 -0.0030
  189POPC   C1A 2694   7.687   5.566   4.993 -0.0924 -0.1327 -0.2676
  189POPC   D2A 2695   7.645   5.416   5.477  0.0367  0.3299  0.1122
  189POPC   C3A 2696   7.728   5.214   5.760 -0.0136 -0.3642  0.0214
  189POPC   C4A 2697   7.934   5.083   6.074  0.0912 -0.1599  0.1575
  189POPC   C1B 2698   8.164   5.292   5.388 -0.2658 -0.1736 -0.2389
  189POPC   C2B 2699   8.248   5.145   5.715 -0.0137 -0.0163 -0.0815
  189POPC   C3B 2700   8.431   4.841   6.003 -0.2171  0.0246 -0.3858
  189POPC   C4B 2701   8.431   4.735   6.503 -0.1738  0.3367  0.2215
  190POPC   NC3 2702   2.673   0.358   4.165 -0.1939  0.3206  0.1760
  190POPC   PO4 2703   2.574   0.386   4.572 -0.2430 -0.0314 -0.0424
  190POPC   GL1 2704   2.439   0.458   4.965 -0.0511  0.2928  0.0838
  190POPC   GL2 2705   2.260   0.120   5.108 -0.0424  0.1535  0.0171
  190POPC   C1A 2706   2.545   0.615   5.328 -0.2572 -0.1497 -0.4365
  190POPC   D2A 2707   2.556   0.604   5.750  0.0756  0.1254 -0.0698
  190POPC   C3A 2708   2.844   0.808   6.149 -0.1501  0.0275  0.1855
  190POPC   C4A 2709   2.883   0.724   6.561 -0.0271  0.2582  0.3294
  190POPC   C1B 2710   2.069   0.392   5.405  0.0762 -0.0344 -0.0578
  190POPC   C2B 2711   2.075   0.355   5.882  0.1026 -0.3819 -0.1752
  190POPC   C3B 2712   2.071   0.235   6.368 -0.1256 -0.2311  0.2370
  190POPC   C4B 2713   1.846  -0.160   6.459  0.3684  0.0650 -0.0626
  191POPC   NC3 2714   0.937   0.071   4.204  0.2739  0.1397  0.1253
  191POPC   PO4 2715   0.631   0.230   3.894 -0.0532  0.1641 -0.3264
  191POPC   GL1 2716   0.683   0.534   4.374  0.2905  0.1264 -0.0347
  191POPC   GL2 2717   0.613   0.285   4.605 -0.1468 -0.2592  0.1463
  191POPC   C1A 2718   0.813   0.849   4.726 -0.1423  0.0946 -0.0349
  191POPC   D2A 2719   0.602   1.072   5.092 -0.2270  0.0394 -0.1459
  191POPC   C3A 2720   0.109   1.034   5.043  0.0730 -0.1835 -0.1825
  191POPC   C4A 2721  -0.267   0.819   4.959  0.3190  0.1324  0.0513
  191POPC   C1B 2722   0.569   0.509   5.103  0.1358  0.3337  0.1289
  191POPC   C2B 2723   0.580   0.787   5.472  0.0879  0.2426  0.0095
  191POPC   C3B 2724   0.461   0.987   5.793  0.0112  0.0053 -0.0075
  191POPC   C4B 2725   0.298   1.333   5.917 -0.0746 -0.0480  0.0435
  192POPC   NC3 2726   3.597   5.035   4.695 -0.1414  0.6041 -0.1344
  192POPC   PO4 2727   3.529   4.570   4.690  0.0118  0.1124 -0.0273
  192POPC   GL1 2728   3.449   4.687   5.142  0.1306 -0.1830  0.0516
  192POPC   GL2 2729   3.534   4.918   5.224 -0.3192  0.4514  0.2261
  192POPC   C1A 2730   3.261   4.521   5.581 -0.0118 -0.1152 -0.1900
  192POPC   D2A 2731   3.243   4.423   6.053 -0.0777  0.1377  0.3846
  192POPC   C3A 2732   3.401   4.699   6.318  0.0702 -0.2008 -0.3034
  192POPC   C4A 2733   3.601   5.070   6.373  0.0486 -0.2944  0.3304
  192POPC   C1B 2734   3.876   5.142   5.422 -0.1806  0.1467 -0.0009
  192POPC   C2B 2735   3.901   5.276   5.827  0.0701 -0.0025  0.1860
  192POPC   C3B 2736   4.142   5.161   6.246  0.0870  0.0543  0.1177
  192POPC   C4B 2737   4.130   5.106   6.692  0.1997  0.3246  0.1926
  193POPC   NC3 2738   6.302   3.726   4.102 -0.0151  0.1166  0.2982
  193POPC   PO4 2739   6.489   3.386   4.340  0.0127  0.1033  0.1355
  193POPC   GL1 2740   6.412   3.258   4.802  0.1855  0.3577  0.0293
  193POPC   GL2 2741   6.128   3.396   4.947  0.1325  0.1664 -0.2043
  193POPC   C1A 2742   6.749   3.229   5.171 -0.0116  0.1778 -0.0093
  193POPC   D2A 2743   6.818   3.008   5.462 -0.0722 -0.3390 -0.3188
  193POPC   C3A 2744   6.485   3.021   5.814 -0.0642 -0.2895  0.0273
  193POPC   C4A 2745   6.453   2.862   6.189 -0.0064 -0.3024  0.1548
  193POPC   C1B 2746   6.262   3.063   5.231  0.2902 -0.0945  0.1287
  193POPC   C2B 2747   6.252   2.708   5.327  0.3282 -0.0569 -0.0985
  193POPC   C3B 2748   6.144   2.689   5.724  0.1065 -0.4427  0.0202
  193POPC   C4B 2749   6.299   2.408   5.981 -0.2417  0.1653 -0.0826
  194POPC   NC3 2750   9.150   9.028   4.392  0.2367 -0.1496  0.1465
  194POPC   PO4 2751   8.908   8.930   4.673 -0.3574 -0.0881  0.0621
  194POPC   GL1 2752   8.883   8.890   5.132 -0.0507 -0.1453  0.0806
  194POPC   GL2 2753   9.134   9.065   5.171  0.3841 -0.0792  0.1320
  194POPC   C1A 2754   8.664   8.974   5.516  0.0015  0.2064 -0.0905
  194POPC   D2A 2755   8.630   9.139   6.006 -0.0204  0.3081 -0.1480
  194POPC   C3A 2756   8.468   9.310   6.389 -0.2185  0.1146  0.0981
  194POPC   C4A 2757   8.712   9.509   6.864 -0.1639 -0.0597  0.1038
  194POPC   C1B 2758   9.187   9.545   5.274 -0.2487  0.0329  0.0435
  194POPC   C2B 2759   9.246   9.756   5.603 -0.4408 -0.0362 -0.0442
  194POPC   C3B 2760   9.324   9.933   6.030 -0.2672 -0.1652 -0.0784
  194POPC   C4B 2761   9.573  10.105   6.321  0.0800 -0.1271 -0.1863
  195POPC   NC3 2762   8.498   6.876   4.759  0.3279  0.0800  0.2544
  195POPC   PO4 2763   8.245   7.136   4.733  0.5080  0.1788 -0.1314
  195POPC   GL1 2764   8.536   7.083   5.183 -0.0876 -0.2048 -0.4324
  195POPC   GL2 2765   8.601   7.442   5.234 -0.0975 -0.2126  0.0043
  195POPC   C1A 2766   8.633   7.077   5.542 -0.2605 -0.3015 -0.1178
  195POPC   D2A 2767   8.700   7.098   5.998 -0.2916  0.3116 -0.0742
  195POPC   C3A 2768   8.964   7.149   6.398 -0.1241 -0.1782  0.2832
  195POPC   C4A 2769   8.996   7.537   6.644 -0.3576  0.0083  0.1374
  195POPC   C1B 2770   8.701   7.560   5.646  0.0671  0.2224 -0.2192
  195POPC   C2B 2771   8.392   7.556   6.014  0.0492 -0.0211  0.1401
  195POPC   C3B 2772   7.992   7.552   6.184  0.0592 -0.0016  0.0999
  195POPC   C4B 2773   7.838   7.230   6.394 -0.1530  0.1670  0.1779
  196POPC   NC3 2774   4.767   4.577   3.987 -0.1869 -0.3624 -0.1256
  196POPC   PO4 2775   4.825   4.712   4.464  0.1666  0.1231  0.1870
  196POPC   GL1 2776   4.748   4.617   5.005 -0.1892 -0.1524 -0.3459
  196POPC   GL2 2777   4.996   4.722   5.064  0.2374  0.1075 -0.0268
  196POPC   C1A 2778   4.694   4.660   5.468 -0.4566  0.0199 -0.0894
  196POPC   D2A 2779   4.789   4.496   5.911 -0.0568  0.2653  0.0976
  196POPC   C3A 2780   4.934   4.084   6.209  0.3088 -0.0542 -0.0607
  196POPC   C4A 2781   5.002   3.884   6.579 -0.2089  0.1138 -0.0845
  196POPC   C1B 2782   5.209   4.868   5.501  0.4019  0.1382 -0.1843
  196POPC   C2B 2783   5.269   4.749   5.964  0.1013  0.1138  0.0692
  196POPC   C3B 2784   5.470   4.759   6.286  0.2322 -0.1081  0.0043
  196POPC   C4B 2785   5.367   4.906   6.595  0.1669 -0.4861 -0.3248
  197POPC   NC3 2786   1.486   6.669   4.119 -0.1434 -0.1985  0.1804
  197POPC   PO4 2787   1.105   6.537   4.419 -0.2386  0.1597  0.0234
  197POPC   GL1 2788   1.304   6.159   4.771 -0.2536 -0.1440 -0.0891
  197POPC   GL2 2789   1.292   5.838   4.923  0.2919 -0.0637 -0.0193
  197POPC   C1A 2790   1.291   6.220   5.261  0.2448  0.1328 -0.4236
  197POPC   D2A 2791   1.257   6.047   5.566  0.1588 -0.1022 -0.2389
  197POPC   C3A 2792   1.476   6.450   5.692 -0.0067  0.0835  0.2691
  197POPC   C4A 2793   1.458   6.756   6.064  0.0436  0.1868 -0.1813
  197POPC   C1B 2794   0.945   5.774   5.227 -0.1163  0.2197  0.1398
  197POPC   C2B 2795   1.105   5.550   5.583 -0.0356  0.3515 -0.0381
  197POPC   C3B 2796   0.940   5.226   5.905 -0.0143 -0.1113 -0.4644
  197POPC   C4B 2797   1.210   5.040   6.165  0.0304 -0.4556  0.1728
  198POPC   NC3 2798   3.886   9.644   4.510  0.0131  0.1203 -0.2308
  198POPC   PO4 2799   4.189  10.016   4.587 -0.1316  0.2885  0.2906
  198POPC   GL1 2800   4.048   9.943   5.032  0.0769  0.1069 -0.1292
  198POPC   GL2 2801   3.769  10.130   5.144  0.0380 -0.0381 -0.1573
  198POPC   C1A 2802   3.971   9.682   5.406 -0.1379  0.3422 -0.1436
  198POPC   D2A 2803   4.211   9.379   5.599 -0.1356 -0.0628  0.0195
  198POPC   C3A 2804   4.511   9.554   5.880  0.1745 -0.0838  0.0134
  198POPC   C4A 2805   4.692   9.353   6.229 -0.0717 -0.0586 -0.1393
  198POPC   C1B 2806   3.842  10.087   5.633  0.0272 -0.2319  0.1050
  198POPC   C2B 2807   4.162  10.101   5.879  0.0655 -0.1857 -0.2494
  198POPC   C3B 2808   4.406   9.990   6.061 -0.0582  0.1260  0.2347
  198POPC   C4B 2809   4.618  10.271   6.205  0.2506 -0.0578  0.0373
  199POPC   NC3 2810   9.190   2.018   3.644 -0.2729 -0.1564  0.1829
  199POPC   PO4 2811   9.613   2.355   3.783 -0.1006 -0.0015  0.0940
  199POPC   GL1 2812   9.698   2.610   4.191 -0.3667  0.0414 -0.3153
  199POPC   GL2 2813   9.970   2.548   4.272  0.0763 -0.0172 -0.0993
  199POPC   C1A 2814   9.646   3.077   4.339  0.1265 -0.1317 -0.2460
  199POPC   D2A 2815   9.785   3.382   4.687 -0.1649  0.1637 -0.0430
  199POPC   C3A 2816   9.588   3.719   4.754 -0.1327 -0.3272  0.1292
  199POPC   C4A 2817   9.485   4.153   4.664 -0.3476  0.0193  0.0439
  199POPC   C1B 2818   9.880   2.542   4.664  0.0450  0.1251  0.3100
  199POPC   C2B 2819   9.698   2.256   5.014 -0.3584  0.2958 -0.0786
  199POPC   C3B 2820   9.647   1.916   5.236  0.2281 -0.1133  0.0298
  199POPC   C4B 2821   9.883   1.623   5.228  0.0272 -0.0840 -0.0085
  200POPC   NC3 2822   7.875   7.597   4.701  0.0444  0.1370  0.1703
  200POPC   PO4 2823   7.501   7.652   4.882 -0.4024  0.1148  0.2066
  200POPC   GL1 2824   7.659   7.517   5.307  0.2087 -0.0389  0.0221
  200POPC   GL2 2825   7.980   7.582   5.308  0.1378 -0.1069 -0.2797
  200POPC   C1A 2826   7.527   7.335   5.612 -0.0991 -0.0510 -0.0673
  200POPC   D2A 2827   7.243   6.922   5.688 -0.1634 -0.0246  0.0296
  200POPC   C3A 2828   7.121   6.877   6.137 -0.0471  0.1299 -0.0657
  200POPC   C4A 2829   6.997   6.650   6.439  0.0381 -0.2612  0.0187
  200POPC   C1B 2830   8.090   7.851   5.703  0.1594 -0.1985  0.1921
  200POPC   C2B 2831   8.019   8.024   6.070 -0.0583  0.3111 -0.1788
  200POPC   C3B 2832   7.850   8.031   6.479  0.3373 -0.0886  0.2474
  200POPC   C4B 2833   7.927   8.325   6.801  0.2778  0.1508  0.1874
  201POPC   NC3 2834   7.242   0.047   4.465 -0.1637 -0.2102  0.1893
  201POPC   PO4 2835   7.108  -0.155   4.802  0.0281 -0.0748  0.4510
  201POPC   GL1 2836   6.937  -0.340   5.129 -0.1770 -0.1966  0.1908
  201POPC   GL2 2837   6.634  -0.459   5.145 -0.2691  0.1658  0.2466
  201POPC   C1A 2838   6.975  -0.480   5.452 -0.1142 -0.0997 -0.0727
  201POPC   D2A 2839   7.131  -0.884   5.605  0.0788  0.2354  0.0227
  201POPC   C3A 2840   6.896  -1.045   5.957  0.1279 -0.0640 -0.2795
  201POPC   C4A 2841   6.475  -0.971   6.047 -0.0599  0.0466 -0.1675
  201POPC   C1B 2842   6.387  -0.234   5.393 -0.3441 -0.1582 -0.2082
  201POPC   C2B 2843   6.387   0.180   5.490  0.3122  0.0333  0.0172
  201POPC   C3B 2844   6.356   0.373   5.919  0.0364 -0.1996  0.1687
  201POPC   C4B 2845   6.390   0.769   6.084 -0.6202  0.0891 -0.1419
  202POPC   NC3 2846   6.578   2.421   4.582 -0.1315  0.1149 -0.0447
  202POPC   PO4 2847   6.523   2.871   4.488  0.2218 -0.1901 -0.3123
  202POPC   GL1 2848   6.645   2.735   4.944 -0.0709 -0.0056 -0.0448
  202POPC   GL2 2849   6.901   2.792   4.999  0.2351 -0.0580  0.1193
  202POPC   C1A 2850   6.808   2.513   5.357  0.0038 -0.0858 -0.2716
  202POPC   D2A 2851   6.753   2.564   5.755  0.0436 -0.3006 -0.1840
  202POPC   C3A 2852   6.837   2.501   6.132 -0.1586  0.0136 -0.0428
  202POPC   C4A 2853   6.913   2.796   6.409 -0.2322  0.1620 -0.3853
  202POPC   C1B 2854   7.287   2.772   5.344 -0.2161  0.1758  0.0412
  202POPC   C2B 2855   7.259   2.593   5.744  0.0458  0.4958 -0.1573
  202POPC   C3B 2856   7.472   2.423   6.024  0.0381 -0.1496 -0.1635
  202POPC   C4B 2857   7.660   2.627   6.477 -0.0667 -0.2326  0.4153
  203POPC   NC3 2858   8.389   2.302   4.248  0.1061 -0.2097 -0.1554
  203POPC   PO4 2859   8.048   1.990   4.322 -0.3253  0.1549 -0.2051
  203POPC   GL1 2860   7.746   1.732   4.629 -0.1414  0.0180  0.3305
  203POPC   GL2 2861   7.405   1.886   4.701  0.0971  0.1458  0.0064
  203POPC   C1A 2862   7.788   1.499   4.976 -0.2637 -0.0736 -0.2781
  203POPC   D2A 2863   7.941   1.206   5.156 -0.0268  0.0105  0.1034
  203POPC   C3A 2864   7.761   1.334   5.531 -0.1683 -0.1284 -0.1873
  203POPC   C4A 2865   7.916   1.602   5.847 -0.0149 -0.0046 -0.1739
  203POPC   C1B 2866   7.599   2.022   4.978 -0.1703  0.0952  0.0642
  203POPC   C2B 2867   7.912   1.853   5.395  0.2608 -0.0074  0.1048
  203POPC   C3B 2868   8.219   1.888   5.534  0.1786 -0.2243  0.1855
  203POPC   C4B 2869   8.439   2.297   5.658 -0.1590 -0.0589  0.3555
  204POPC   NC3 2870   6.374   9.343   4.487  0.2254  0.0762  0.3741
  204POPC   PO4 2871   6.770   9.112   4.764 -0.0729  0.2566  0.0091
  204POPC   GL1 2872   6.709   8.906   5.198 -0.2216 -0.0313 -0.3778
  204POPC   GL2 2873   6.774   8.570   5.030  0.1066 -0.0031 -0.0750
  204POPC   C1A 2874   6.639   8.663   5.612  0.1887 -0.1908 -0.1708
  204POPC   D2A 2875   6.386   8.253   5.609  0.2920 -0.2016 -0.2695
  204POPC   C3A 2876   6.377   7.988   5.944 -0.1551  0.1006 -0.1654
  204POPC   C4A 2877   6.160   7.695   6.275 -0.2301  0.1500  0.1903
  204POPC   C1B 2878   6.821   8.259   5.348  0.0704  0.3010  0.0978
  204POPC   C2B 2879   6.945   8.011   5.770 -0.0305 -0.1994 -0.1227
  204POPC   C3B 2880   7.156   7.699   5.923  0.0117  0.2559  0.2384
  204POPC   C4B 2881   7.601   7.722   5.969  0.1287 -0.0368  0.0362
  205POPC   NC3 2882   5.833   0.229   4.306  0.1223  0.2846 -0.2796
  205POPC   PO4 2883   6.219   0.128   4.512  0.1245 -0.2992  0.1376
  205POPC   GL1 2884   6.386   0.273   4.849 -0.0338  0.0444  0.2493
  205POPC   GL2 2885   6.598   0.045   5.040 -0.1908  0.2762  0.1709
  205POPC   C1A 2886   6.549   0.494   5.117 -0.1751 -0.1476  0.0332
  205POPC   D2A 2887   6.709   0.606   5.485 -0.1553  0.0611  0.0521
  205POPC   C3A 2888   6.918   0.996   5.711  0.3837 -0.0569 -0.2372
  205POPC   C4A 2889   7.003   1.288   6.057 -0.0841  0.2981 -0.1985
  205POPC   C1B 2890   6.874   0.153   5.314 -0.2903  0.2025  0.1069
  205POPC   C2B 2891   6.847   0.009   5.601 -0.0945  0.0244 -0.0017
  205POPC   C3B 2892   6.914  -0.089   6.065  0.1434  0.2258  0.0143
  205POPC   C4B 2893   6.965  -0.014   6.440 -0.2315 -0.2138 -0.1476
  206POPC   NC3 2894   1.479   7.720   5.141  0.3198  0.0085 -0.2851
  206POPC   PO4 2895   1.995   7.512   5.113  0.3888  0.3158  0.1071
  206POPC   GL1 2896   2.227   7.414   5.389  0.0507  0.1518 -0.0859
  206POPC   GL2 2897   2.547   7.423   5.244  0.0980 -0.2594  0.0855
  206POPC   C1A 2898   2.189   7.345   5.818  0.2474 -0.4061  0.1313
  206POPC   D2A 2899   1.761   7.354   6.085  0.1660 -0.2207  0.1008
  206POPC   C3A 2900   1.662   7.156   6.495 -0.4208  0.1042 -0.1600
  206POPC   C4A 2901   1.587   7.249   6.996 -0.2324 -0.0427  0.1200
  206POPC   C1B 2902   2.618   7.553   5.676  0.2348 -0.0592  0.0784
  206POPC   C2B 2903   2.646   7.525   6.183  0.0419 -0.2182  0.1546
  206POPC   C3B 2904   2.906   7.678   6.463 -0.0921 -0.1413 -0.1340
  206POPC   C4B 2905   3.030   7.508   6.942 -0.0499  0.0191  0.1415
  207POPC   NC3 2906   2.787   4.886   4.031 -0.1467  0.1403  0.1186
  207POPC   PO4 2907   2.941   5.077   4.487 -0.1357  0.1467 -0.0993
  207POPC   GL1 2908   2.677   5.117   4.812  0.0098  0.0017  0.1947
  207POPC   GL2 2909   2.506   5.405   4.982  0.0555 -0.0843  0.3088
  207POPC   C1A 2910   2.437   4.851   4.929 -0.1333 -0.0276 -0.2210
  207POPC   D2A 2911   2.336   4.508   5.180  0.0548 -0.2794  0.1682
  207POPC   C3A 2912   2.266   4.511   5.594 -0.0140 -0.0425  0.1370
  207POPC   C4A 2913   2.226   4.719   5.948 -0.3704 -0.2284  0.2153
  207POPC   C1B 2914   2.198   5.183   5.196  0.2578 -0.4484 -0.1060
  207POPC   C2B 2915   2.156   5.011   5.542 -0.1669  0.0898 -0.1241
  207POPC   C3B 2916   2.025   5.214   5.923  0.2360 -0.1183  0.0384
  207POPC   C4B 2917   1.748   5.357   6.271 -0.1540 -0.1924 -0.1611
  208POPC   NC3 2918   3.704   7.357   4.467  0.0207  0.1046 -0.0820
  208POPC   PO4 2919   3.634   7.050   4.770  0.0123 -0.2916  0.2548
  208POPC   GL1 2920   3.549   7.101   5.196  0.1232  0.0147 -0.1561
  208POPC   GL2 2921   3.250   6.977   5.223  0.1287  0.0478  0.1116
  208POPC   C1A 2922   3.426   7.333   5.617 -0.1057  0.0157  0.0181
  208POPC   D2A 2923   3.739   7.432   6.058  0.1880 -0.1977  0.0332
  208POPC   C3A 2924   3.765   7.165   6.352  0.1166  0.3763  0.0605
  208POPC   C4A 2925   3.824   7.175   6.775  0.0573  0.1171 -0.0434
  208POPC   C1B 2926   2.976   7.083   5.602  0.2608  0.2569 -0.0839
  208POPC   C2B 2927   2.896   7.189   6.002  0.1699 -0.0349 -0.1240
  208POPC   C3B 2928   2.809   7.109   6.452 -0.0689 -0.6624 -0.1755
  208POPC   C4B 2929   3.211   7.110   6.786 -0.2456  0.1984 -0.0758
  209POPC   NC3 2930   2.606   2.053   3.952 -0.0309 -0.0107  0.0067
  209POPC   PO4 2931   2.740   1.657   4.111 -0.1173  0.0445 -0.0633
  209POPC   GL1 2932   2.746   1.817   4.537 -0.2682  0.0362  0.0804
  209POPC   GL2 2933   2.445   1.840   4.669  0.0901  0.0519 -0.0210
  209POPC   C1A 2934   2.890   1.975   4.960 -0.2394 -0.1888 -0.0965
  209POPC   D2A 2935   2.817   2.076   5.338 -0.3008  0.0890 -0.0468
  209POPC   C3A 2936   3.152   2.010   5.565  0.3101 -0.2220 -0.0595
  209POPC   C4A 2937   3.186   1.911   5.983  0.0213  0.0584  0.2854
  209POPC   C1B 2938   2.373   1.907   5.093 -0.0101 -0.0706 -0.1498
  209POPC   C2B 2939   2.313   1.900   5.516 -0.2420 -0.0268  0.0179
  209POPC   C3B 2940   2.245   2.094   5.936  0.0129  0.1142  0.1744
  209POPC   C4B 2941   2.288   2.326   6.352 -0.0057  0.4658 -0.0843
  210POPC   NC3 2942   1.684   5.630   4.296  0.1727 -0.1271 -0.1621
  210POPC   PO4 2943   1.936   6.035   4.211 -0.0548 -0.1066  0.0463
  210POPC   GL1 2944   1.999   5.946   4.624  0.2813 -0.2100  0.1187
  210POPC   GL2 2945   1.777   5.694   4.782  0.0565 -0.0643  0.1223
  210POPC   C1A 2946   2.118   5.768   5.051 -0.0311  0.0751  0.0643
  210POPC   D2A 2947   2.040   5.650   5.389 -0.2487  0.0772 -0.1360
  210POPC   C3A 2948   2.080   5.760   5.866  0.0046  0.2556  0.0288
  210POPC   C4A 2949   1.843   5.839   6.235  0.2109 -0.0420 -0.0793
  210POPC   C1B 2950   1.723   5.406   5.105 -0.2926 -0.0981  0.0130
  210POPC   C2B 2951   1.679   5.241   5.467  0.0180 -0.0223 -0.0899
  210POPC   C3B 2952   1.610   4.999   5.757 -0.2167  0.1083 -0.1188
  210POPC   C4B 2953   1.703   4.870   6.172  0.3711 -0.1928  0.0508
  211POPC   NC3 2954   6.077   3.057   4.461 -0.0248  0.1150 -0.1116
  211POPC   PO4 2955   5.728   2.917   4.566 -0.1723  0.0127 -0.4067
  211POPC   GL1 2956   5.808   2.858   4.980  0.0438 -0.2071 -0.0464
  211POPC   GL2 2957   5.663   2.539   4.999  0.3266 -0.0966  0.1037
  211POPC   C1A 2958   5.789   2.891   5.396  0.2508 -0.0335  0.2205
  211POPC   D2A 2959   5.615   3.033   5.816  0.1041  0.0929 -0.1218
  211POPC   C3A 2960   5.183   3.270   5.937 -0.0545 -0.1427 -0.1479
  211POPC   C4A 2961   4.868   3.588   6.145 -0.1809  0.0750 -0.1129
  211POPC   C1B 2962   5.579   2.328   5.338 -0.1840  0.0370  0.2707
  211POPC   C2B 2963   5.707   2.444   5.684  0.5466 -0.0060  0.2373
  211POPC   C3B 2964   5.714   2.604   6.015 -0.1337 -0.3610 -0.1484
  211POPC   C4B 2965   5.992   2.714   6.339 -0.1323 -0.0038  0.2004
  212POPC   NC3 2966   4.741   1.756   4.228  0.1708 -0.3762 -0.0872
  212POPC   PO4 2967   5.067   2.172   4.333 -0.0821 -0.0483 -0.2610
  212POPC   GL1 2968   4.873   1.974   4.805 -0.0372 -0.1695  0.1522
  212POPC   GL2 2969   4.658   2.208   4.937 -0.1704 -0.1106 -0.0305
  212POPC   C1A 2970   4.497   1.807   5.145  0.0976  0.0277  0.3189
  212POPC   D2A 2971   4.102   1.633   5.300 -0.3403 -0.2791 -0.0039
  212POPC   C3A 2972   3.928   1.909   5.659 -0.3857 -0.0011  0.0374
  212POPC   C4A 2973   3.597   2.088   5.662  0.1318 -0.1130  0.2096
  212POPC   C1B 2974   4.444   2.262   5.275 -0.2089 -0.2350 -0.0258
  212POPC   C2B 2975   4.639   2.326   5.644 -0.1913 -0.2946  0.0578
  212POPC   C3B 2976   4.629   2.489   6.027 -0.0267 -0.0332 -0.1814
  212POPC   C4B 2977   4.332   2.556   6.343 -0.0531  0.0086  0.3750
  213POPC   NC3 2978   9.310   7.995   4.130 -0.2494 -0.4222 -0.0564
  213POPC   PO4 2979   9.032   7.690   4.564  0.0083 -0.3210 -0.0715
  213POPC   GL1 2980   9.294   7.657   4.970 -0.0919 -0.1768  0.0924
  213POPC   GL2 2981   9.243   7.750   5.231 -0.0799 -0.0951 -0.0301
  213POPC   C1A 2982   9.555   7.298   5.227 -0.2648  0.1139  0.1748
  213POPC   D2A 2983   9.697   7.251   5.604 -0.0042  0.0981  0.1590
  213POPC   C3A 2984   9.823   7.039   5.845  0.2650 -0.1983  0.1004
  213POPC   C4A 2985   9.957   6.986   6.129 -0.0374  0.2726  0.1346
  213POPC   C1B 2986   9.460   7.688   5.670  0.2198  0.0904 -0.0375
  213POPC   C2B 2987   9.624   7.658   6.055  0.2231 -0.1254  0.2025
  213POPC   C3B 2988   9.802   7.405   6.383 -0.4546 -0.0500  0.3256
  213POPC   C4B 2989   9.767   7.512   6.783 -0.3413 -0.0030 -0.0862
  214POPC   NC3 2990   5.091   3.936   4.461  0.1688 -0.1634 -0.3812
  214POPC   PO4 2991   4.932   3.633   4.587 -0.4017 -0.0179 -0.4084
  214POPC   GL1 2992   5.014   3.912   4.989  0.2531 -0.1867 -0.0051
  214POPC   GL2 2993   4.964   3.732   5.303  0.1402 -0.0492  0.0498
  214POPC   C1A 2994   4.942   4.262   5.225  0.0978 -0.1650 -0.0297
  214POPC   D2A 2995   5.119   4.277   5.666 -0.2106 -0.0353 -0.0368
  214POPC   C3A 2996   5.471   4.184   5.947  0.1497 -0.1762 -0.0179
  214POPC   C4A 2997   5.737   4.276   6.351  0.0926 -0.1135  0.0590
  214POPC   C1B 2998   5.043   3.766   5.741 -0.0091 -0.0088 -0.0631
  214POPC   C2B 2999   5.331   3.743   6.144 -0.2319 -0.1408 -0.0002
  214POPC   C3B 3000   5.394   3.447   6.462  0.0966 -0.1348 -0.1226
  214POPC   C4B 3001   5.109   3.099   6.675 -0.4109 -0.1782  0.2462
  215POPC   NC3 3002   5.188   9.675   4.685  0.3291  0.0002  0.1592
  215POPC   PO4 3003   5.421  10.026   4.529  0.1314  0.2707 -0.0880
  215POPC   GL1 3004   5.600  10.241   4.780  0.2017 -0.2565 -0.0114
  215POPC   GL2 3005   5.870  10.175   4.820  0.0538 -0.0300  0.3068
  215POPC   C1A 3006   5.598  10.343   5.291 -0.3630  0.2621 -0.1276
  215POPC   D2A 3007   5.568  10.426   5.700 -0.0221 -0.0960 -0.3140
  215POPC   C3A 3008   5.937  10.687   5.914  0.2845 -0.1381  0.1970
  215POPC   C4A 3009   6.080  11.204   5.924  0.2406  0.0768 -0.1785
  215POPC   C1B 3010   5.990   9.941   5.220 -0.1855 -0.3076 -0.1702
  215POPC   C2B 3011   5.913  10.052   5.711 -0.2706 -0.3262  0.3417
  215POPC   C3B 3012   5.999   9.924   6.100 -0.0075 -0.1367 -0.2976
  215POPC   C4B 3013   6.170  10.231   6.357  0.0647 -0.0312 -0.0580
  216POPC   NC3 3014   6.418   8.683   3.978  0.1443  0.3600 -0.1766
  216POPC   PO4 3015   6.345   8.847   4.398  0.0579 -0.2363  0.2891
  216POPC   GL1 3016   6.088   8.766   4.777  0.2288  0.1843  0.3979
  216POPC   GL2 3017   6.154   9.112   4.852  0.2314 -0.2667  0.0383
  216POPC   C1A 3018   6.136   8.670   5.245  0.0617  0.0541 -0.0043
  216POPC   D2A 3019   6.162   8.817   5.650  0.0855 -0.1383  0.1991
  216POPC   C3A 3020   6.231   8.485   5.998 -0.0766 -0.1007 -0.2050
  216POPC   C4A 3021   6.639   8.383   6.041  0.0970 -0.1799  0.0084
  216POPC   C1B 3022   6.253   9.204   5.264  0.0193 -0.0171 -0.0103
  216POPC   C2B 3023   6.564   9.166   5.607 -0.2840 -0.2801 -0.0498
  216POPC   C3B 3024   6.733   9.386   5.886 -0.1145  0.1488  0.0342
  216POPC   C4B 3025   6.767   9.378   6.336 -0.2618 -0.0781 -0.0983
  217POPC   NC3 3026   1.398   7.626   4.665  0.1113  0.3055 -0.0922
  217POPC   PO4 3027   1.023   7.618   4.844 -0.2268 -0.0535 -0.0459
  217POPC   GL1 3028   0.995   7.894   5.172  0.0058 -0.2428 -0.0578
  217POPC   GL2 3029   0.776   7.585   5.317 -0.1183 -0.0104 -0.1019
  217POPC   C1A 3030   0.930   8.079   5.455  0.1739  0.1816  0.0576
  217POPC   D2A 3031   0.913   8.276   5.824  0.1204 -0.0406 -0.1001
  217POPC   C3A 3032   1.172   8.267   6.123 -0.0850  0.0680  0.3086
  217POPC   C4A 3033   1.130   7.989   6.501 -0.3044 -0.0932  0.1395
  217POPC   C1B 3034   0.982   7.509   5.565  0.0345  0.2234 -0.3240
  217POPC   C2B 3035   1.197   7.401   5.833 -0.1391 -0.2991  0.3940
  217POPC   C3B 3036   1.163   7.395   6.263 -0.2522 -0.1202 -0.2266
  217POPC   C4B 3037   1.257   7.516   6.695 -0.0896  0.0431  0.1494
  218POPC   NC3 3038   7.232   2.455   4.222  0.0001 -0.0393 -0.1504
  218POPC   PO4 3039   6.974   2.188   4.380 -0.1892  0.2415  0.0337
  218POPC   GL1 3040   7.001   2.277   4.724 -0.1077 -0.1601 -0.0781
  218POPC   GL2 3041   7.236   2.351   4.753  0.1550 -0.0630  0.0081
  218POPC   C1A 3042   6.809   2.011   5.086  0.2120  0.0313 -0.0447
  218POPC   D2A 3043   6.624   1.934   5.476 -0.0326 -0.0620  0.0960
  218POPC   C3A 3044   6.646   2.103   5.803  0.0975 -0.2093 -0.1054
  218POPC   C4A 3045   6.580   2.123   6.303 -0.1375  0.0573 -0.0413
  218POPC   C1B 3046   7.226   2.286   5.178 -0.0924 -0.0387 -0.0971
  218POPC   C2B 3047   7.123   2.181   5.557  0.3161  0.2807  0.0279
  218POPC   C3B 3048   7.111   1.964   6.012 -0.1775  0.1402 -0.0514
  218POPC   C4B 3049   7.132   1.748   6.366  0.0976  0.0690 -0.1603
  219POPC   NC3 3050   0.294   9.380   4.378 -0.2351 -0.0791 -0.2341
  219POPC   PO4 3051   0.684   9.607   4.508  0.3928  0.2745 -0.1633
  219POPC   GL1 3052   0.872   9.750   4.778  0.0793  0.0597 -0.0570
  219POPC   GL2 3053   1.054   9.925   4.678 -0.2600  0.1602  0.2818
  219POPC   C1A 3054   0.850  10.032   5.135 -0.0018  0.2327  0.0674
  219POPC   D2A 3055   0.895  10.351   5.502  0.2625 -0.1734  0.0967
  219POPC   C3A 3056   0.541  10.473   5.883  0.0840  0.0049  0.0541
  219POPC   C4A 3057   0.151  10.601   6.095  0.2016  0.2018 -0.1030
  219POPC   C1B 3058   1.391  10.043   4.940  0.2686  0.2003  0.0136
  219POPC   C2B 3059   1.352  10.030   5.359 -0.1224  0.2228  0.4273
  219POPC   C3B 3060   1.299  10.217   5.723  0.1251 -0.0509 -0.2976
  219POPC   C4B 3061   1.217  10.426   6.024  0.1993  0.2130  0.0691
  220POPC   NC3 3062   3.152   5.911   4.188  0.0222  0.0857 -0.2864
  220POPC   PO4 3063   2.855   6.165   4.519 -0.2526  0.1424  0.4760
  220POPC   GL1 3064   2.767   6.344   4.903 -0.1065  0.1289  0.5881
  220POPC   GL2 3065   3.074   6.501   5.096  0.0878 -0.2087  0.0569
  220POPC   C1A 3066   2.730   6.218   5.364 -0.0088  0.1178  0.2254
  220POPC   D2A 3067   2.827   6.196   5.793 -0.3593  0.1542  0.1227
  220POPC   C3A 3068   2.650   5.995   6.100 -0.3005 -0.0024 -0.0418
  220POPC   C4A 3069   2.359   5.594   6.243  0.0116  0.0380  0.1008
  220POPC   C1B 3070   3.339   6.297   5.411 -0.1819 -0.0779 -0.1720
  220POPC   C2B 3071   3.465   6.327   5.830 -0.1458  0.2085 -0.0461
  220POPC   C3B 3072   3.667   6.199   6.243  0.1518  0.1194 -0.2592
  220POPC   C4B 3073   3.671   6.080   6.628  0.0884  0.0634 -0.1044
  221POPC   NC3 3074   4.563   6.527   4.249 -0.3885 -0.2230  0.0577
  221POPC   PO4 3075   4.515   6.404   4.619  0.1863 -0.0326 -0.0383
  221POPC   GL1 3076   4.479   6.540   5.023  0.0673 -0.1876  0.0403
  221POPC   GL2 3077   4.291   6.621   5.194 -0.0489 -0.1955 -0.0049
  221POPC   C1A 3078   4.773   6.720   5.417 -0.1120  0.0819 -0.0422
  221POPC   D2A 3079   4.936   7.013   5.696 -0.0344 -0.0749 -0.0027
  221POPC   C3A 3080   4.933   7.491   5.700  0.0220  0.0424  0.4079
  221POPC   C4A 3081   5.129   7.853   5.844 -0.2463  0.2627 -0.3329
  221POPC   C1B 3082   4.208   6.775   5.566  0.0056  0.0307 -0.2967
  221POPC   C2B 3083   4.349   6.905   6.049  0.5047 -0.0115 -0.0081
  221POPC   C3B 3084   4.256   7.026   6.424 -0.1652  0.3633 -0.0484
  221POPC   C4B 3085   4.300   7.292   6.656  0.2107  0.2377  0.0479
  222POPC   NC3 3086   4.507   3.938   4.689 -0.1800  0.0516 -0.0815
  222POPC   PO4 3087   4.405   4.352   4.666  0.2595  0.0399  0.0381
  222POPC   GL1 3088   4.381   4.232   5.077 -0.1196  0.3313  0.1379
  222POPC   GL2 3089   4.544   3.943   5.266 -0.0527 -0.1752 -0.2470
  222POPC   C1A 3090   4.222   4.390   5.526  0.1444  0.0004  0.3638
  222POPC   D2A 3091   4.212   4.372   5.965  0.2622  0.1186  0.1459
  222POPC   C3A 3092   4.364   4.213   6.262 -0.1859  0.4272 -0.0031
  222POPC   C4A 3093   4.533   3.870   6.556  0.0242 -0.0966  0.0973
  222POPC   C1B 3094   4.584   4.056   5.682  0.2336 -0.2394 -0.0135
  222POPC   C2B 3095   4.478   3.909   5.923 -0.0589 -0.1435 -0.0614
  222POPC   C3B 3096   4.414   3.552   5.944  0.0469  0.1548 -0.1490
  222POPC   C4B 3097   4.377   3.424   6.383 -0.1629  0.1226 -0.0909
  223POPC   NC3 3098   2.184   1.213   3.639 -0.1488  0.0478 -0.0187
  223POPC   PO4 3099   2.159   0.878   3.932  0.1429  0.0741  0.0240
  223POPC   GL1 3100   1.884   1.012   4.235  0.0578  0.0939 -0.3113
  223POPC   GL2 3101   2.079   1.005   4.557 -0.2284 -0.1002 -0.1580
  223POPC   C1A 3102   1.737   1.345   4.410  0.0102  0.0289  0.0805
  223POPC   D2A 3103   2.066   1.524   4.567 -0.0855  0.3758  0.0215
  223POPC   C3A 3104   1.932   1.860   4.874 -0.1880  0.0755  0.0059
  223POPC   C4A 3105   1.855   2.157   5.181  0.1274 -0.3038 -0.0401
  223POPC   C1B 3106   2.062   0.810   5.074  0.0232  0.3020  0.1980
  223POPC   C2B 3107   2.091   1.061   5.527 -0.5762  0.1271 -0.2744
  223POPC   C3B 3108   2.219   1.367   5.732 -0.1851 -0.0287  0.0640
  223POPC   C4B 3109   2.220   1.615   6.154  0.1349  0.1905 -0.0035
  224POPC   NC3 3110   0.932   6.104   4.228 -0.1235  0.0416  0.0581
  224POPC   PO4 3111   0.923   5.867   4.615  0.1272  0.0260 -0.1256
  224POPC   GL1 3112   0.713   6.175   4.867 -0.0658  0.2580 -0.1768
  224POPC   GL2 3113   0.916   6.475   4.880  0.1330 -0.4617 -0.0812
  224POPC   C1A 3114   0.767   6.190   5.341 -0.0029  0.0947  0.1044
  224POPC   D2A 3115   0.973   6.421   5.706  0.0922  0.2211 -0.0804
  224POPC   C3A 3116   1.079   6.191   6.102  0.0891 -0.0751  0.1402
  224POPC   C4A 3117   1.044   6.065   6.558 -0.1014  0.1054  0.0211
  224POPC   C1B 3118   0.975   6.680   5.242  0.2114 -0.2426  0.0420
  224POPC   C2B 3119   0.799   7.014   5.450  0.2991  0.0028  0.2874
  224POPC   C3B 3120   0.660   7.163   5.773  0.0097  0.1452  0.0566
  224POPC   C4B 3121   0.471   6.894   6.033 -0.0836 -0.1951 -0.0133
  225POPC   NC3 3122   9.901   9.714   4.562  0.0439 -0.1073 -0.0563
  225POPC   PO4 3123   9.486   9.512   4.617  0.0547  0.1372  0.1145
  225POPC   GL1 3124   9.656   9.543   4.995 -0.2138 -0.3326  0.0627
  225POPC   GL2 3125   9.630   9.272   5.253 -0.1230  0.2286 -0.2072
  225POPC   C1A 3126   9.994   9.585   5.343 -0.3061  0.0506  0.2379
  225POPC   D2A 3127  10.122   9.609   5.728  0.1038  0.0724 -0.0196
  225POPC   C3A 3128  10.360   9.349   6.057  0.1807 -0.3080  0.0346
  225POPC   C4A 3129  10.605   9.036   6.127  0.1674 -0.1267  0.0789
  225POPC   C1B 3130   9.592   9.396   5.611 -0.0593  0.0641  0.1286
  225POPC   C2B 3131   9.430   9.462   5.973 -0.0473 -0.1800  0.0801
  225POPC   C3B 3132   9.508   9.607   6.426  0.0969 -0.0464 -0.1295
  225POPC   C4B 3133   9.314   9.855   6.772  0.4138 -0.1268 -0.1058
  226POPC   NC3 3134   2.827   1.250   4.403  0.2264  0.1150  0.0744
  226POPC   PO4 3135   3.201   1.047   4.622 -0.0429 -0.2682  0.0451
  226POPC   GL1 3136   3.153   1.145   5.043  0.4304 -0.0380 -0.0078
  226POPC   GL2 3137   2.882   1.333   4.979  0.2123 -0.1806  0.1875
  226POPC   C1A 3138   3.302   1.141   5.457 -0.0379  0.0422 -0.0754
  226POPC   D2A 3139   3.177   1.475   5.746  0.0827 -0.2426 -0.1000
  226POPC   C3A 3140   2.995   1.496   6.187  0.1536 -0.1926  0.0845
  226POPC   C4A 3141   3.069   1.818   6.509 -0.2786  0.1702 -0.3501
  226POPC   C1B 3142   2.767   1.092   5.344 -0.0785 -0.0028 -0.1695
  226POPC   C2B 3143   2.702   1.134   5.759 -0.1424 -0.0205 -0.1827
  226POPC   C3B 3144   2.479   1.218   6.198 -0.2883 -0.2507  0.1178
  226POPC   C4B 3145   2.471   1.006   6.611 -0.0715 -0.4075  0.1407
  227POPC   NC3 3146   4.043   5.742   4.741 -0.1870  0.2751 -0.0274
  227POPC   PO4 3147   3.954   5.340   4.538 -0.0775  0.1044  0.2783
  227POPC   GL1 3148   3.622   5.495   4.895  0.0046 -0.4376  0.0737
  227POPC   GL2 3149   3.289   5.286   4.967  0.0667 -0.0423 -0.0729
  227POPC   C1A 3150   3.565   5.552   5.268 -0.0841  0.1182 -0.2651
  227POPC   D2A 3151   3.425   5.418   5.654  0.2889 -0.2003  0.1653
  227POPC   C3A 3152   3.424   4.950   5.818 -0.0231  0.0699 -0.2690
  227POPC   C4A 3153   3.758   4.731   5.988 -0.0919  0.0189  0.0796
  227POPC   C1B 3154   3.052   5.376   5.364 -0.0557 -0.0059  0.1088
  227POPC   C2B 3155   2.982   5.538   5.758  0.0700  0.0826  0.3139
  227POPC   C3B 3156   2.924   5.605   6.220 -0.4692  0.3122  0.0906
  227POPC   C4B 3157   2.755   5.286   6.565  0.1222 -0.0792 -0.2726
  228POPC   NC3 3158   1.339   0.647   3.612 -0.1386 -0.1256  0.1442
  228POPC   PO4 3159   1.629   1.018   3.749 -0.1843 -0.1084 -0.4218
  228POPC   GL1 3160   1.345   0.962   4.032 -0.0855 -0.1783  0.1611
  228POPC   GL2 3161   1.183   1.298   4.145 -0.2026 -0.1655 -0.1084
  228POPC   C1A 3162   1.330   0.742   4.518  0.0962  0.0352  0.5854
  228POPC   D2A 3163   1.079   0.471   4.836  0.0068  0.0357  0.0517
  228POPC   C3A 3164   1.141   0.630   5.133  0.1352  0.0104  0.2961
  228POPC   C4A 3165   1.592   0.511   5.237  0.1852  0.0739 -0.1193
  228POPC   C1B 3166   1.274   1.292   4.559 -0.4002 -0.0614  0.2416
  228POPC   C2B 3167   1.160   1.147   4.956 -0.0677 -0.0614  0.1376
  228POPC   C3B 3168   1.066   1.133   5.302  0.1106 -0.1022 -0.0693
  228POPC   C4B 3169   0.736   1.271   5.518 -0.2645 -0.1904  0.1740
  229POPC   NC3 3170   8.159   9.152   4.174 -0.3686  0.0812 -0.1994
  229POPC   PO4 3171   8.059   9.420   4.388  0.0542  0.0302  0.1069
  229POPC   GL1 3172   8.333   9.570   4.752  0.1083 -0.1119  0.1057
  229POPC   GL2 3173   8.310   9.838   4.772 -0.2131 -0.1489 -0.0927
  229POPC   C1A 3174   8.419   9.278   5.152  0.0518  0.0438  0.0431
  229POPC   D2A 3175   8.552   9.483   5.585 -0.0396  0.0574  0.1269
  229POPC   C3A 3176   8.461   9.657   6.078 -0.0745  0.0353  0.0705
  229POPC   C4A 3177   8.518   9.862   6.484  0.1059 -0.1140 -0.0097
  229POPC   C1B 3178   8.144   9.721   5.224 -0.2056  0.0782  0.2317
  229POPC   C2B 3179   8.042   9.442   5.550  0.0603  0.0261 -0.0797
  229POPC   C3B 3180   8.146   9.249   5.908  0.1978 -0.1349  0.0282
  229POPC   C4B 3181   8.190   8.919   6.095  0.2994 -0.0145  0.0853
  230POPC   NC3 3182   3.932   4.227   4.597  0.0821  0.0143  0.4189
  230POPC   PO4 3183   3.817   3.743   4.638  0.0080 -0.4477  0.0089
  230POPC   GL1 3184   3.532   3.716   4.971  0.2256  0.2027 -0.6079
  230POPC   GL2 3185   3.143   3.756   4.952  0.0392  0.0423  0.3133
  230POPC   C1A 3186   3.713   3.609   5.361  0.1674 -0.3096  0.4114
  230POPC   D2A 3187   3.647   3.672   5.822 -0.0743 -0.0492  0.0864
  230POPC   C3A 3188   3.313   3.759   6.057  0.0699 -0.2051 -0.0652
  230POPC   C4A 3189   3.516   3.713   6.462 -0.1600  0.1937 -0.1009
  230POPC   C1B 3190   3.225   3.462   5.375  0.1208  0.1234  0.1348
  230POPC   C2B 3191   3.452   3.251   5.710  0.1936 -0.0735  0.0425
  230POPC   C3B 3192   3.469   3.282   6.105 -0.4589  0.4024 -0.1120
  230POPC   C4B 3193   3.439   3.214   6.549 -0.2095  0.1724 -0.1120
  231POPC   NC3 3194   6.986   6.471   4.647 -0.4493 -0.3399  0.0312
  231POPC   PO4 3195   7.350   6.793   4.458  0.2127  0.3854  0.4241
  231POPC   GL1 3196   7.341   6.769   4.944  0.2374 -0.0466 -0.0544
  231POPC   GL2 3197   7.359   6.497   5.104 -0.2213  0.0585 -0.1005
  231POPC   C1A 3198   7.630   6.875   5.295 -0.0983  0.2866  0.0376
  231POPC   D2A 3199   7.781   6.836   5.633  0.2616 -0.1637  0.0308
  231POPC   C3A 3200   7.607   6.978   6.011 -0.2241 -0.1864 -0.0127
  231POPC   C4A 3201   7.329   7.292   6.373  0.1418 -0.1938 -0.0242
  231POPC   C1B 3202   7.395   6.449   5.592  0.0915 -0.1459  0.1123
  231POPC   C2B 3203   7.087   6.417   5.846 -0.0343  0.0880 -0.2792
  231POPC   C3B 3204   7.082   6.202   6.300 -0.0879  0.2013  0.0555
  231POPC   C4B 3205   6.923   6.168   6.614  0.0086 -0.1540  0.0142
  232POPC   NC3 3206   4.666   3.234   4.509  0.4083 -0.1061  0.1730
  232POPC   PO4 3207   4.833   3.063   4.874 -0.0280  0.3105  0.0093
  232POPC   GL1 3208   4.933   3.019   5.267  0.1186 -0.0228  0.0242
  232POPC   GL2 3209   5.145   3.232   5.478  0.0806 -0.1375 -0.5293
  232POPC   C1A 3210   4.767   2.812   5.647 -0.1439 -0.0064 -0.3565
  232POPC   D2A 3211   4.311   2.808   5.765  0.1660 -0.0339  0.4740
  232POPC   C3A 3212   4.123   3.157   5.770 -0.1128 -0.2493  0.0279
  232POPC   C4A 3213   3.918   3.390   6.104  0.0193  0.0562 -0.0092
  232POPC   C1B 3214   5.583   3.413   5.388  0.3919 -0.1811  0.1688
  232POPC   C2B 3215   5.996   3.321   5.575 -0.1206  0.0200  0.0750
  232POPC   C3B 3216   6.008   3.164   6.059  0.2136  0.1901 -0.1540
  232POPC   C4B 3217   5.978   3.277   6.420 -0.4631 -0.1371 -0.2407
  233POPC   NC3 3218   9.137   7.220   4.350  0.0977  0.2355 -0.1539
  233POPC   PO4 3219   8.990   6.856   4.589 -0.1498 -0.0319 -0.1755
  233POPC   GL1 3220   9.277   7.008   4.856 -0.1743  0.1352  0.0914
  233POPC   GL2 3221   9.452   6.742   5.056  0.0616 -0.2464  0.2232
  233POPC   C1A 3222   9.060   7.148   5.199  0.1117 -0.3626  0.1118
  233POPC   D2A 3223   9.166   7.153   5.614  0.3813 -0.1578  0.2913
  233POPC   C3A 3224   9.391   6.834   5.890 -0.0705 -0.1026 -0.5634
  233POPC   C4A 3225   9.541   6.857   6.315  0.0090  0.0974 -0.2468
  233POPC   C1B 3226   9.655   6.749   5.434  0.1891  0.1075 -0.0747
  233POPC   C2B 3227   9.914   6.551   5.666 -0.1017 -0.1028 -0.0306
  233POPC   C3B 3228   9.829   6.476   6.107 -0.0816  0.1311 -0.2542
  233POPC   C4B 3229   9.422   6.341   6.379  0.2631  0.0469 -0.4587
  234POPC   NC3 3230   4.379   8.144   4.305 -0.0982 -0.0823 -0.0695
  234POPC   PO4 3231   4.094   8.103   4.637 -0.2556  0.0853 -0.2736
  234POPC   GL1 3232   4.081   8.092   5.088  0.0761 -0.2151 -0.0884
  234POPC   GL2 3233   4.134   8.329   5.253  0.0677  0.0168 -0.3003
  234POPC   C1A 3234   3.994   7.970   5.542  0.0065  0.0522 -0.1558
  234POPC   D2A 3235   4.013   7.516   5.554 -0.2320 -0.1879 -0.0444
  234POPC   C3A 3236   3.933   7.073   5.793  0.0932 -0.1889 -0.0470
  234POPC   C4A 3237   3.843   6.776   6.053  0.1070  0.2357 -0.3968
  234POPC   C1B 3238   4.267   8.330   5.708  0.2108 -0.1720  0.1932
  234POPC   C2B 3239   4.379   8.388   6.098 -0.1248  0.4176  0.2426
  234POPC   C3B 3240   4.574   8.483   6.380 -0.0798 -0.0805  0.2510
  234POPC   C4B 3241   4.880   8.800   6.342 -0.2560 -0.0385  0.6291
  235POPC   NC3 3242   6.037   6.124   4.338 -0.2846  0.0662 -0.1962
  235POPC   PO4 3243   5.779   6.036   4.623 -0.0018  0.1335 -0.2086
  235POPC   GL1 3244   5.795   6.128   5.047 -0.2567  0.2225  0.0740
  235POPC   GL2 3245   6.111   6.205   5.204 -0.0528  0.2327  0.4673
  235POPC   C1A 3246   5.766   6.054   5.534  0.1063  0.0259  0.0705
  235POPC   D2A 3247   5.509   6.038   5.932 -0.1787  0.0757 -0.0192
  235POPC   C3A 3248   5.512   5.629   6.131 -0.0475 -0.3463  0.1061
  235POPC   C4A 3249   5.422   5.467   6.540  0.0358  0.0828 -0.0764
  235POPC   C1B 3250   6.253   6.020   5.560  0.2324 -0.0157 -0.0899
  235POPC   C2B 3251   5.992   5.952   5.991  0.2927 -0.3312 -0.0741
  235POPC   C3B 3252   5.942   5.815   6.363  0.1467 -0.1721  0.2251
  235POPC   C4B 3253   6.111   5.663   6.703  0.0956 -0.0105  0.2373
  236POPC   NC3 3254   2.020   9.572   4.336  0.1689 -0.3713  0.2433
  236POPC   PO4 3255   2.383   9.382   4.346 -0.0367 -0.5472 -0.1194
  236POPC   GL1 3256   2.416   9.534   4.780  0.3328 -0.6203 -0.1169
  236POPC   GL2 3257   2.045   9.538   4.788  0.0241 -0.1874 -0.0709
  236POPC   C1A 3258   2.672   9.742   5.095 -0.1840  0.0430 -0.1020
  236POPC   D2A 3259   2.819   9.652   5.449 -0.1889 -0.0921 -0.0614
  236POPC   C3A 3260   2.916   9.831   5.831  0.0336  0.2639 -0.0711
  236POPC   C4A 3261   2.900   9.786   6.319  0.0764 -0.2384 -0.2649
  236POPC   C1B 3262   2.228   9.590   5.260  0.2149 -0.2632 -0.0938
  236POPC   C2B 3263   2.381   9.842   5.561 -0.1969  0.0730  0.0719
  236POPC   C3B 3264   2.611  10.070   5.532 -0.2567 -0.0943  0.3108
  236POPC   C4B 3265   2.900  10.194   5.493  0.0796 -0.3760  0.2246
  237POPC   NC3 3266   6.235   7.892   4.048 -0.2987  0.3347  0.2093
  237POPC   PO4 3267   6.002   8.083   4.527  0.0713 -0.0916 -0.3396
  237POPC   GL1 3268   6.111   7.993   4.995  0.0967 -0.2765  0.2016
  237POPC   GL2 3269   6.450   8.022   5.063  0.1012  0.0342 -0.0088
  237POPC   C1A 3270   6.086   7.885   5.447 -0.3196  0.0840 -0.0942
  237POPC   D2A 3271   5.981   7.605   5.730  0.1350  0.0370 -0.1351
  237POPC   C3A 3272   5.725   7.586   6.117  0.3473  0.1863 -0.2514
  237POPC   C4A 3273   5.717   7.326   6.456 -0.1998  0.2774  0.1890
  237POPC   C1B 3274   6.638   7.837   5.440  0.3358 -0.0930 -0.0899
  237POPC   C2B 3275   6.921   7.424   5.518  0.2746 -0.0511 -0.0149
  237POPC   C3B 3276   6.875   7.016   5.315  0.2658 -0.2391 -0.2543
  237POPC   C4B 3277   6.826   6.570   5.405  0.1339  0.0598  0.4033
  238POPC   NC3 3278   3.827   3.272   4.721 -0.2162 -0.2696 -0.0960
  238POPC   PO4 3279   3.403   3.091   4.501  0.0983 -0.0309  0.1716
  238POPC   GL1 3280   3.374   3.265   4.973  0.2757  0.3329  0.1772
  238POPC   GL2 3281   3.710   3.147   5.241  0.2644 -0.1582 -0.2252
  238POPC   C1A 3282   3.231   2.973   5.289 -0.1153  0.0957 -0.1376
  238POPC   D2A 3283   2.997   3.060   5.606 -0.2967 -0.2026  0.1557
  238POPC   C3A 3284   2.838   2.678   5.801  0.2668  0.0290 -0.1283
  238POPC   C4A 3285   2.699   2.224   5.808  0.1018 -0.0394  0.1374
  238POPC   C1B 3286   3.718   2.874   5.588 -0.2151  0.2069  0.0680
  238POPC   C2B 3287   3.742   2.832   5.911 -0.2721  0.2308 -0.3946
  238POPC   C3B 3288   3.803   2.754   6.390 -0.1556 -0.0387  0.4210
  238POPC   C4B 3289   3.869   2.513   6.738 -0.1336 -0.0011 -0.1294
  239POPC   NC3 3290   7.214   4.730   4.444  0.1065 -0.2406  0.2062
  239POPC   PO4 3291   6.871   5.105   4.553  0.1733 -0.0060  0.1411
  239POPC   GL1 3292   6.700   5.123   4.987 -0.3668  0.3225  0.0512
  239POPC   GL2 3293   6.965   4.969   5.238  0.1101 -0.2238  0.0559
  239POPC   C1A 3294   6.460   5.050   5.383 -0.0501  0.0673  0.0396
  239POPC   D2A 3295   6.284   5.113   5.753 -0.2136 -0.0838  0.0121
  239POPC   C3A 3296   6.638   5.235   6.159  0.0602 -0.2695  0.0418
  239POPC   C4A 3297   6.651   5.139   6.643  0.1837 -0.1796  0.1114
  239POPC   C1B 3298   7.377   4.996   5.492 -0.2020  0.2947  0.0080
  239POPC   C2B 3299   7.426   4.898   5.981  0.0456  0.3222  0.1922
  239POPC   C3B 3300   7.212   4.854   6.420  0.2657 -0.0969 -0.1437
  239POPC   C4B 3301   7.332   4.837   6.777 -0.1167 -0.0488  0.0482
  240POPC   NC3 3302   2.856   4.031   4.542  0.1817 -0.0992 -0.0467
  240POPC   PO4 3303   2.585   3.808   4.285 -0.0843 -0.0462  0.1858
  240POPC   GL1 3304   2.407   3.785   4.622 -0.1386  0.4404  0.1670
  240POPC   GL2 3305   2.570   3.905   4.920  0.1770  0.1686  0.1239
  240POPC   C1A 3306   2.133   3.796   5.072  0.1728 -0.1508 -0.0739
  240POPC   D2A 3307   2.221   3.881   5.421 -0.3245  0.1107  0.0028
  240POPC   C3A 3308   1.998   4.117   5.678 -0.4472 -0.0788  0.1184
  240POPC   C4A 3309   2.216   4.217   6.092 -0.0374 -0.3865 -0.1262
  240POPC   C1B 3310   2.800   3.751   5.313  0.3272 -0.0016  0.0192
  240POPC   C2B 3311   2.859   3.562   5.718 -0.3816  0.0500 -0.3316
  240POPC   C3B 3312   3.002   3.350   6.053 -0.2075  0.2752  0.2520
  240POPC   C4B 3313   3.074   2.926   6.163 -0.0137 -0.0889 -0.2496
  241POPC   NC3 3314   2.489   6.665   4.375 -0.1328 -0.1673  0.3365
  241POPC   PO4 3315   2.258   6.418   4.650 -0.2036  0.0690  0.0189
  241POPC   GL1 3316   2.140   6.575   5.056 -0.0916  0.0553 -0.1271
  241POPC   GL2 3317   2.306   6.258   5.141  0.4040 -0.1084 -0.2607
  241POPC   C1A 3318   1.989   6.526   5.453 -0.1437 -0.1328  0.0115
  241POPC   D2A 3319   1.891   6.252   5.916  0.1555 -0.0931  0.1383
  241POPC   C3A 3320   1.529   6.196   6.155 -0.2632  0.1467  0.1177
  241POPC   C4A 3321   1.594   6.064   6.590 -0.2561  0.2229 -0.2311
  241POPC   C1B 3322   2.329   6.197   5.673  0.0896  0.3441 -0.1577
  241POPC   C2B 3323   2.338   6.410   6.029  0.0017 -0.1644 -0.5987
  241POPC   C3B 3324   2.467   6.619   6.406 -0.2196 -0.0325 -0.1996
  241POPC   C4B 3325   2.329   6.808   6.686  0.0809 -0.2513  0.0299
  242POPC   NC3 3326   5.332   6.094   4.774  0.2607  0.1141  0.0991
  242POPC   PO4 3327   5.354   5.866   5.095 -0.2723 -0.0318 -0.1024
  242POPC   GL1 3328   5.359   5.672   5.487 -0.0355 -0.4086 -0.2344
  242POPC   GL2 3329   5.505   5.385   5.453  0.1328  0.0752  0.2699
  242POPC   C1A 3330   5.047   5.780   5.845  0.2518 -0.1039 -0.0988
  242POPC   D2A 3331   4.914   6.087   6.113  0.1068  0.1371  0.0345
  242POPC   C3A 3332   4.560   6.158   6.239 -0.1457 -0.0028  0.2576
  242POPC   C4A 3333   4.222   5.993   6.387 -0.0733  0.4646 -0.1362
  242POPC   C1B 3334   5.805   5.493   5.761  0.1522  0.0893  0.3025
  242POPC   C2B 3335   6.121   5.449   6.136 -0.1587 -0.2294  0.0758
  242POPC   C3B 3336   6.471   5.619   6.393  0.1932  0.0102  0.1256
  242POPC   C4B 3337   6.556   5.863   6.515 -0.0364  0.1227  0.0844
  243POPC   NC3 3338   8.939   1.708   3.935  0.0274 -0.4244 -0.1631
  243POPC   PO4 3339   8.843   2.086   4.255  0.1462 -0.3179 -0.0892
  243POPC   GL1 3340   8.777   2.093   4.682  0.2675  0.2248 -0.0225
  243POPC   GL2 3341   8.494   2.218   4.718 -0.1062 -0.1582 -0.1346
  243POPC   C1A 3342   8.682   1.787   5.027 -0.1198  0.0165 -0.0150
  243POPC   D2A 3343   8.751   1.886   5.449  0.1957  0.0072 -0.0019
  243POPC   C3A 3344   8.637   1.747   5.821 -0.0743  0.0260 -0.4701
  243POPC   C4A 3345   8.606   1.656   6.249  0.3291  0.1253  0.1538
  243POPC   C1B 3346   8.560   2.417   5.125  0.0743 -0.0052  0.0158
  243POPC   C2B 3347   8.360   2.724   5.286  0.0430  0.2556 -0.4136
  243POPC   C3B 3348   8.080   2.600   5.735  0.0294 -0.1781  0.1075
  243POPC   C4B 3349   8.082   2.615   6.176  0.1276  0.0355  0.0009
  244POPC   NC3 3350   8.054   6.221   4.418 -0.3110  0.0445 -0.2351
  244POPC   PO4 3351   8.354   6.327   4.754  0.1596  0.1947 -0.1195
  244POPC   GL1 3352   8.440   6.351   5.168  0.0485 -0.3911  0.0942
  244POPC   GL2 3353   8.652   6.031   5.101  0.0216  0.0155  0.0304
  244POPC   C1A 3354   8.438   6.485   5.556 -0.1120  0.2302 -0.0448
  244POPC   D2A 3355   8.356   6.676   5.925 -0.5361 -0.0958 -0.1270
  244POPC   C3A 3356   7.943   6.603   6.069  0.0687  0.3746  0.1440
  244POPC   C4A 3357   7.540   6.390   6.163  0.4249 -0.1139  0.2303
  244POPC   C1B 3358   8.458   5.955   5.536  0.3966 -0.1518 -0.1770
  244POPC   C2B 3359   8.497   5.607   5.756 -0.0544  0.1389 -0.1842
  244POPC   C3B 3360   8.389   5.340   6.155 -0.0554  0.0300  0.1118
  244POPC   C4B 3361   8.061   5.325   6.536 -0.0132 -0.1197  0.0682
  245POPC   NC3 3362   8.355   5.528   3.904  0.1514 -0.0676  0.2444
  245POPC   PO4 3363   8.578   5.519   4.397 -0.1625 -0.4247 -0.2773
  245POPC   GL1 3364   8.769   5.594   4.827  0.0097 -0.0253  0.0755
  245POPC   GL2 3365   9.083   5.694   4.835  0.2286  0.1503  0.1486
  245POPC   C1A 3366   8.732   5.583   5.287  0.2835 -0.0850  0.0428
  245POPC   D2A 3367   8.956   5.505   5.620 -0.0110  0.0026  0.0136
  245POPC   C3A 3368   9.299   5.191   5.703 -0.2057  0.0686  0.1542
  245POPC   C4A 3369   9.535   4.815   5.518 -0.2721  0.0502  0.4436
  245POPC   C1B 3370   9.283   5.680   5.243  0.0908 -0.1464  0.0179
  245POPC   C2B 3371   9.520   5.310   5.216 -0.2530  0.0403 -0.0490
  245POPC   C3B 3372   9.544   4.929   5.070  0.0803  0.0627  0.0725
  245POPC   C4B 3373   9.527   4.701   4.689  0.0960 -0.0272  0.1511
  246POPC   NC3 3374   9.941   6.404   4.459 -0.1159 -0.1820 -0.1362
  246POPC   PO4 3375   9.834   6.801   4.755 -0.0657 -0.0475  0.2553
  246POPC   GL1 3376   9.963   7.065   5.094  0.2572  0.2429  0.1463
  246POPC   GL2 3377  10.064   7.378   5.084 -0.1136 -0.1640  0.0979
  246POPC   C1A 3378  10.223   6.930   5.446 -0.2645 -0.0943  0.1081
  246POPC   D2A 3379  10.462   6.602   5.657  0.1035  0.1880 -0.1421
  246POPC   C3A 3380  10.390   6.324   5.962  0.1647  0.0216 -0.2185
  246POPC   C4A 3381  10.541   6.212   6.322 -0.1537 -0.1284 -0.0476
  246POPC   C1B 3382  10.219   7.425   5.553  0.0834 -0.1429 -0.0478
  246POPC   C2B 3383  10.140   7.458   6.008 -0.0215  0.0686  0.3885
  246POPC   C3B 3384  10.276   7.321   6.377  0.3822 -0.0868  0.1026
  246POPC   C4B 3385  10.331   7.568   6.815  0.0285 -0.3177  0.1299
  247POPC   NC3 3386   2.831   7.094   4.999  0.1565 -0.3056 -0.1612
  247POPC   PO4 3387   2.568   6.789   4.856  0.4379  0.0855  0.0358
  247POPC   GL1 3388   2.630   6.684   5.236 -0.1116 -0.1235 -0.2602
  247POPC   GL2 3389   2.438   6.923   5.358 -0.2851 -0.4132 -0.0604
  247POPC   C1A 3390   2.968   6.598   5.540  0.1079 -0.1631 -0.3125
  247POPC   D2A 3391   2.921   6.624   5.995 -0.2871  0.0760  0.1501
  247POPC   C3A 3392   3.147   6.754   6.414  0.0376 -0.2679 -0.1739
  247POPC   C4A 3393   3.555   6.802   6.613  0.2133 -0.3407  0.0287
  247POPC   C1B 3394   2.510   6.903   5.816  0.0572 -0.1050  0.0212
  247POPC   C2B 3395   2.397   7.034   6.152  0.0258  0.2877  0.1044
  247POPC   C3B 3396   2.153   7.229   6.431 -0.0261  0.0677 -0.0845
  247POPC   C4B 3397   2.069   7.172   6.905  0.1485 -0.0124  0.0443
  248POPC   NC3 3398   9.200   3.935   3.578  0.1174 -0.1787 -0.1172
  248POPC   PO4 3399   9.024   4.017   3.969  0.2225  0.0646 -0.3314
  248POPC   GL1 3400   8.895   4.016   4.340  0.2055 -0.1993  0.1049
  248POPC   GL2 3401   8.663   3.763   4.491  0.2344 -0.0552  0.1428
  248POPC   C1A 3402   9.082   3.786   4.704  0.2680  0.1910  0.0875
  248POPC   D2A 3403   9.018   3.531   5.175 -0.2808 -0.3158  0.0218
  248POPC   C3A 3404   8.905   3.782   5.510  0.3898 -0.1412 -0.2715
  248POPC   C4A 3405   8.680   4.049   5.562 -0.1489 -0.1610  0.2532
  248POPC   C1B 3406   8.587   3.531   4.921 -0.0540 -0.1043 -0.1196
  248POPC   C2B 3407   8.475   3.183   5.188  0.0241 -0.1105  0.1191
  248POPC   C3B 3408   8.333   3.087   5.617 -0.0273 -0.0795  0.0767
  248POPC   C4B 3409   8.302   3.053   6.122  0.0417 -0.1580  0.0831
  249POPC   NC3 3410   3.035   8.884   4.557  0.0830  0.1003 -0.0765
  249POPC   PO4 3411   2.610   9.041   4.750  0.1065  0.0109  0.1186
  249POPC   GL1 3412   2.449   9.168   5.086 -0.0144 -0.1834  0.0729
  249POPC   GL2 3413   2.161   9.153   5.143  0.1787 -0.2803 -0.2598
  249POPC   C1A 3414   2.569   9.268   5.560  0.4431  0.1429  0.2740
  249POPC   D2A 3415   2.655   9.431   5.882 -0.0303 -0.1251 -0.0621
  249POPC   C3A 3416   2.808   9.140   6.194 -0.0581  0.1374  0.0740
  249POPC   C4A 3417   3.190   8.946   6.335  0.3205  0.1268  0.0947
  249POPC   C1B 3418   2.011   9.366   5.663 -0.1138  0.0239 -0.2589
  249POPC   C2B 3419   2.111   9.695   5.945 -0.3655  0.2593  0.1584
  249POPC   C3B 3420   2.482  10.038   6.129  0.1097 -0.0829  0.0720
  249POPC   C4B 3421   2.419  10.522   6.347 -0.2856  0.3295  0.1431
  250POPC   NC3 3422   1.135   9.548   4.374 -0.4251  0.0461 -0.2322
  250POPC   PO4 3423   1.429   9.241   4.163  0.3630  0.3587  0.0482
  250POPC   GL1 3424   1.559   9.398   4.577  0.1475  0.1888  0.1330
  250POPC   GL2 3425   1.386   9.518   4.797  0.0281 -0.0820 -0.2131
  250POPC   C1A 3426   1.722   9.436   5.107  0.0056  0.1258 -0.4294
  250POPC   D2A 3427   1.606   9.447   5.428  0.1404  0.3918 -0.1458
  250POPC   C3A 3428   1.285   9.140   5.439  0.3497 -0.0303 -0.1747
  250POPC   C4A 3429   1.391   8.801   5.527 -0.0736 -0.1194 -0.3083
  250POPC   C1B 3430   1.185   9.549   5.087  0.0128  0.4396 -0.0734
  250POPC   C2B 3431   1.045   9.563   5.506 -0.2658 -0.1676 -0.0701
  250POPC   C3B 3432   1.012   9.382   5.958 -0.1247  0.3501  0.1043
  250POPC   C4B 3433   0.868   9.548   6.359 -0.1624  0.0498  0.0452
  251POPC   NC3 3434   0.936   7.768   4.382 -0.0798  0.0713 -0.0384
  251POPC   PO4 3435   0.893   8.108   4.749  0.0437  0.2014 -0.1857
  251POPC   GL1 3436   0.778   8.350   5.038  0.0755 -0.1155 -0.0783
  251POPC   GL2 3437   1.113   8.360   5.106  0.0624 -0.3752 -0.0478
  251POPC   C1A 3438   0.548   8.393   5.419  0.1136 -0.1019 -0.0289
  251POPC   D2A 3439   0.432   8.259   5.908 -0.0682 -0.0749 -0.2055
  251POPC   C3A 3440   0.719   8.533   6.264 -0.1575  0.1422  0.1841
  251POPC   C4A 3441   0.989   8.589   6.571  0.0762 -0.0277 -0.0714
  251POPC   C1B 3442   0.910   8.709   5.489  0.0021  0.0496 -0.0653
  251POPC   C2B 3443   1.068   8.823   5.891  0.1233  0.0084 -0.1549
  251POPC   C3B 3444   1.162   8.967   6.280  0.0367  0.0783 -0.1822
  251POPC   C4B 3445   1.369   9.043   6.594 -0.0420 -0.0865  0.4454
  252POPC   NC3 3446   3.284   6.228   4.753 -0.2677 -0.1489  0.0185
  252POPC   PO4 3447   3.565   6.482   4.780  0.2050  0.2064  0.2503
  252POPC   GL1 3448   3.734   6.565   5.216 -0.1078  0.0434 -0.0615
  252POPC   GL2 3449   3.854   6.288   5.441 -0.4655 -0.2625  0.2573
  252POPC   C1A 3450   3.581   6.826   5.611  0.1236 -0.0347 -0.0348
  252POPC   D2A 3451   3.317   6.938   5.945 -0.1069  0.0946  0.0343
  252POPC   C3A 3452   3.306   7.281   6.287 -0.2646 -0.2810 -0.0334
  252POPC   C4A 3453   3.394   7.536   6.596 -0.0986 -0.1032  0.0369
  252POPC   C1B 3454   4.077   6.316   5.804 -0.1088 -0.0532  0.2051
  252POPC   C2B 3455   4.154   6.450   6.249  0.2955 -0.1421 -0.0899
  252POPC   C3B 3456   4.276   6.480   6.657  0.0591  0.2838  0.1680
  252POPC   C4B 3457   4.134   6.138   6.910  0.0155  0.0344  0.2004
  253POPC   NC3 3458   1.354   1.367   3.506 -0.0039  0.0737 -0.2503
  253POPC   PO4 3459   1.281   1.727   3.691 -0.2101  0.0384  0.1437
  253POPC   GL1 3460   1.457   1.881   4.056  0.0534  0.0077 -0.1391
  253POPC   GL2 3461   1.722   2.170   4.043  0.4873  0.2496  0.1348
  253POPC   C1A 3462   1.519   1.750   4.536 -0.0173 -0.0667  0.0919
  253POPC   D2A 3463   1.564   1.438   4.920  0.2613  0.1606  0.1121
  253POPC   C3A 3464   1.962   1.355   5.023 -0.4053  0.1155 -0.0848
  253POPC   C4A 3465   2.316   1.403   5.228 -0.1184  0.0261  0.1022
  253POPC   C1B 3466   1.921   2.131   4.479  0.1652  0.1434  0.4518
  253POPC   C2B 3467   2.109   2.432   4.761  0.1202 -0.0621  0.1652
  253POPC   C3B 3468   2.115   2.650   5.144 -0.2905  0.0785  0.3079
  253POPC   C4B 3469   1.952   2.634   5.530 -0.0016 -0.1918  0.0236
  254POPC   NC3 3470   8.741   6.072   4.601  0.0019 -0.2180 -0.3569
  254POPC   PO4 3471   9.044   6.260   4.501 -0.1189 -0.0701 -0.3003
  254POPC   GL1 3472   9.080   6.212   4.978 -0.2689  0.7301 -0.1138
  254POPC   GL2 3473   8.877   6.509   4.961 -0.2480 -0.3350 -0.2353
  254POPC   C1A 3474   8.962   5.991   5.523  0.2309 -0.1244 -0.1676
  254POPC   D2A 3475   8.708   6.036   5.946 -0.0724 -0.2853 -0.1428
  254POPC   C3A 3476   8.796   5.694   6.115  0.2246 -0.0263 -0.3266
  254POPC   C4A 3477   8.840   5.371   6.366  0.1649  0.0253  0.3269
  254POPC   C1B 3478   8.917   6.639   5.366 -0.0454 -0.0534  0.0229
  254POPC   C2B 3479   8.898   6.663   5.791 -0.0271 -0.4565  0.0227
  254POPC   C3B 3480   9.068   6.649   6.295 -0.0475  0.1028 -0.0691
  254POPC   C4B 3481   9.204   6.699   6.630 -0.2180  0.3130 -0.2319
  255POPC   NC3 3482   6.389   6.819   4.089  0.2582 -0.1327  0.3875
  255POPC   PO4 3483   6.437   6.498   4.441  0.0381  0.2217 -0.0401
  255POPC   GL1 3484   6.577   6.422   4.937  0.1290 -0.3421 -0.4233
  255POPC   GL2 3485   6.365   6.651   5.136  0.0001  0.2757 -0.3597
  255POPC   C1A 3486   6.642   6.144   5.292 -0.1426 -0.1248 -0.0666
  255POPC   D2A 3487   6.785   6.032   5.596  0.2182 -0.0422  0.0147
  255POPC   C3A 3488   6.605   6.049   6.019 -0.2461 -0.2809  0.0836
  255POPC   C4A 3489   6.309   6.207   6.302  0.0904 -0.1067  0.0403
  255POPC   C1B 3490   6.413   6.974   5.490  0.4186  0.4589  0.1731
  255POPC   C2B 3491   6.719   6.960   5.798 -0.1235 -0.0618 -0.0196
  255POPC   C3B 3492   6.774   7.318   6.022 -0.1708  0.1282  0.0152
  255POPC   C4B 3493   6.733   7.739   6.143 -0.1754  0.2591 -0.0085
  256POPC   NC3 3494   3.434   1.766   3.868 -0.1737 -0.1503  0.1867
  256POPC   PO4 3495   3.278   1.586   4.292 -0.1116 -0.0737  0.3277
  256POPC   GL1 3496   3.332   1.579   4.713 -0.1616  0.1108 -0.1466
  256POPC   GL2 3497   3.553   1.400   4.886  0.1289  0.0391  0.2144
  256POPC   C1A 3498   3.190   1.666   5.159 -0.0942 -0.0181 -0.2219
  256POPC   D2A 3499   2.791   1.591   5.383  0.4803 -0.2169  0.1241
  256POPC   C3A 3500   2.684   1.715   5.790 -0.0802 -0.0794 -0.1949
  256POPC   C4A 3501   2.640   1.954   6.207  0.2244 -0.0104  0.0480
  256POPC   C1B 3502   3.820   1.203   5.288 -0.0458  0.1973 -0.1558
  256POPC   C2B 3503   3.737   1.099   5.708  0.1044 -0.2066 -0.1540
  256POPC   C3B 3504   3.918   1.016   6.069  0.0616 -0.3033 -0.4895
  256POPC   C4B 3505   4.174   0.959   6.497  0.2009 -0.0250 -0.0630
  257POPC   NC3 3506   2.085   4.872   4.277  0.2709  0.1475 -0.2135
  257POPC   PO4 3507   1.941   5.182   4.256 -0.1238 -0.0785  0.0373
  257POPC   GL1 3508   1.830   5.129   4.634 -0.0249  0.2171  0.0496
  257POPC   GL2 3509   1.941   4.888   4.879 -0.0130  0.2531  0.1442
  257POPC   C1A 3510   1.490   5.051   4.908 -0.0457 -0.0529  0.0620
  257POPC   D2A 3511   1.406   4.872   5.273  0.2402 -0.0932 -0.1434
  257POPC   C3A 3512   1.154   5.034   5.516  0.0130 -0.0009 -0.0241
  257POPC   C4A 3513   0.773   5.270   5.316 -0.1675 -0.1063  0.0076
  257POPC   C1B 3514   1.880   4.786   5.271 -0.0712  0.0654  0.1817
  257POPC   C2B 3515   1.605   4.470   5.548  0.1627 -0.2579  0.0240
  257POPC   C3B 3516   1.791   4.476   5.937 -0.0723  0.0916 -0.0112
  257POPC   C4B 3517   1.621   4.168   6.300 -0.3853  0.0206 -0.3003
  258POPC   NC3 3518   9.538   9.717   3.682 -0.0191  0.2029 -0.0915
  258POPC   PO4 3519   9.146   9.827   3.823  0.1411 -0.0121  0.2440
  258POPC   GL1 3520   8.963  10.004   4.208 -0.2265  0.0929  0.4095
  258POPC   GL2 3521   9.030  10.271   4.223 -0.0839 -0.2320 -0.2167
  258POPC   C1A 3522   8.910   9.908   4.702  0.1027  0.2414 -0.0189
  258POPC   D2A 3523   8.682   9.808   5.138 -0.1530 -0.1329  0.0611
  258POPC   C3A 3524   8.770   9.910   5.535 -0.1741  0.3511 -0.1056
  258POPC   C4A 3525   8.771  10.142   5.923 -0.2865  0.4673  0.0884
  258POPC   C1B 3526   9.300  10.129   4.499  0.0410 -0.2690 -0.0240
  258POPC   C2B 3527   9.516  10.183   4.916 -0.1646 -0.0766  0.2933
  258POPC   C3B 3528   9.668   9.978   5.341  0.2641  0.0557 -0.1473
  258POPC   C4B 3529   9.707   9.856   5.792 -0.3022 -0.2059 -0.1008
  259POPC   NC3 3530   7.037   7.736   4.575 -0.0552 -0.3372  0.2485
  259POPC   PO4 3531   7.500   7.875   4.363 -0.0740 -0.0369 -0.1140
  259POPC   GL1 3532   7.670   8.103   4.755  0.2695  0.1000 -0.1932
  259POPC   GL2 3533   7.903   8.397   4.781 -0.2602 -0.4065  0.1345
  259POPC   C1A 3534   7.931   8.125   5.216  0.1212  0.0779  0.3495
  259POPC   D2A 3535   8.123   8.499   5.394 -0.0521  0.2250  0.0293
  259POPC   C3A 3536   8.205   8.411   5.806  0.1884  0.0178  0.1757
  259POPC   C4A 3537   8.370   8.432   6.241  0.0240 -0.2943  0.2500
  259POPC   C1B 3538   7.665   8.560   5.181 -0.1192  0.0860  0.1292
  259POPC   C2B 3539   7.532   8.979   5.283  0.2284 -0.3912 -0.3116
  259POPC   C3B 3540   7.549   9.349   5.621  0.2649  0.1085 -0.0653
  259POPC   C4B 3541   7.332   9.607   5.757 -0.0778 -0.3458  0.2270
  260POPC   NC3 3542   6.959   4.290   4.353 -0.1246 -0.2198 -0.2412
  260POPC   PO4 3543   6.589   4.284   4.705 -0.1657  0.4716  0.1504
  260POPC   GL1 3544   6.592   4.235   5.160 -0.0213 -0.4046 -0.1760
  260POPC   GL2 3545   6.666   4.453   5.260 -0.0570 -0.1819  0.3313
  260POPC   C1A 3546   6.444   4.154   5.637 -0.2199  0.1087 -0.0744
  260POPC   D2A 3547   6.654   3.984   5.948  0.0077 -0.0145 -0.3669
  260POPC   C3A 3548   6.885   4.077   6.333 -0.0501  0.4233 -0.1838
  260POPC   C4A 3549   6.647   4.007   6.705  0.3474 -0.1580  0.2393
  260POPC   C1B 3550   6.899   4.095   5.505  0.0885 -0.1965 -0.2172
  260POPC   C2B 3551   7.380   4.154   5.563  0.0480  0.0676 -0.0537
  260POPC   C3B 3552   7.591   4.494   5.571 -0.3096  0.0896 -0.0199
  260POPC   C4B 3553   7.868   4.647   5.901 -0.1225  0.1813 -0.0946
  261POPC   NC3 3554   0.186   0.764   3.795  0.2485 -0.0122  0.2943
  261POPC   PO4 3555   0.252   0.495   4.125  0.1917 -0.2609 -0.1374
  261POPC   GL1 3556   0.110   0.790   4.310  0.1581  0.0302  0.1891
  261POPC   GL2 3557   0.357   0.854   4.500 -0.1587 -0.0197  0.1508
  261POPC   C1A 3558  -0.153   1.056   4.520  0.1116 -0.2967  0.3869
  261POPC   D2A 3559  -0.161   1.389   4.795 -0.0266  0.3976 -0.0912
  261POPC   C3A 3560  -0.482   1.309   5.106 -0.0380 -0.0749 -0.0661
  261POPC   C4A 3561  -0.700   1.644   5.160 -0.2872 -0.2142  0.2232
  261POPC   C1B 3562   0.370   1.237   4.688 -0.1160 -0.2170  0.0652
  261POPC   C2B 3563   0.303   1.510   4.925  0.0594 -0.1721  0.0342
  261POPC   C3B 3564   0.715   1.574   5.099 -0.1046 -0.2224 -0.0846
  261POPC   C4B 3565   1.188   1.590   5.255 -0.2933  0.0591 -0.0970
  262POPC   NC3 3566   9.589   7.798   4.542  0.2158  0.1340 -0.0967
  262POPC   PO4 3567   9.302   8.099   4.689  0.1685  0.0472  0.3179
  262POPC   GL1 3568   9.535   8.124   4.987 -0.0012 -0.1352  0.0933
  262POPC   GL2 3569   9.745   7.907   5.027  0.0804 -0.1097  0.0544
  262POPC   C1A 3570   9.543   8.112   5.417 -0.1756  0.1453  0.3112
  262POPC   D2A 3571   9.438   8.413   5.727  0.3024 -0.1430 -0.0344
  262POPC   C3A 3572   9.532   8.357   6.046  0.2942  0.0211  0.0917
  262POPC   C4A 3573   9.764   8.544   6.430 -0.1896 -0.0450 -0.1154
  262POPC   C1B 3574   9.886   7.727   5.339  0.0007  0.1318 -0.0175
  262POPC   C2B 3575   9.979   7.857   5.745 -0.1734 -0.2221  0.1747
  262POPC   C3B 3576   9.923   8.073   6.080  0.1672  0.1813  0.2108
  262POPC   C4B 3577  10.208   8.355   6.386  0.1610  0.1207  0.0152
  263POPC   NC3 3578   2.360   7.780   4.826 -0.0502  0.2518 -0.1203
  263POPC   PO4 3579   2.811   7.609   4.870 -0.0914  0.1679  0.0438
  263POPC   GL1 3580   3.035   7.966   5.118 -0.0722  0.1641  0.1375
  263POPC   GL2 3581   3.438   7.926   5.242  0.0635  0.3345  0.1737
  263POPC   C1A 3582   3.034   7.897   5.527 -0.0990 -0.0727  0.0537
  263POPC   D2A 3583   3.057   7.681   5.859  0.1071  0.0125 -0.2993
  263POPC   C3A 3584   3.281   7.887   6.109 -0.1658  0.1361  0.0272
  263POPC   C4A 3585   3.473   8.071   6.431 -0.2013  0.0730 -0.0604
  263POPC   C1B 3586   3.576   7.831   5.693 -0.0872  0.2034 -0.1545
  263POPC   C2B 3587   3.843   7.882   6.054 -0.1939 -0.1269 -0.1730
  263POPC   C3B 3588   4.006   8.145   6.236 -0.1468  0.1419 -0.3284
  263POPC   C4B 3589   4.067   8.227   6.547 -0.1071  0.2749 -0.0213
  264POPC   NC3 3590   0.027   0.297   3.722 -0.0922  0.1481 -0.1059
  264POPC   PO4 3591   0.037  -0.170   3.905  0.2576  0.0833 -0.0476
  264POPC   GL1 3592  -0.102   0.215   4.283 -0.3247 -0.4357 -0.1443
  264POPC   GL2 3593   0.002   0.385   4.541 -0.1363  0.4419 -0.0654
  264POPC   C1A 3594  -0.440   0.612   4.568  0.0690 -0.1057  0.0849
  264POPC   D2A 3595  -0.949   0.539   4.679 -0.3728 -0.1125 -0.1950
  264POPC   C3A 3596  -1.026   0.473   5.108 -0.2389  0.0775 -0.0897
  264POPC   C4A 3597  -0.804   0.133   5.243 -0.1609  0.2202  0.0090
  264POPC   C1B 3598   0.078   0.494   4.975 -0.1873  0.1688 -0.0171
  264POPC   C2B 3599  -0.136   0.528   5.369 -0.1350 -0.0059  0.0416
  264POPC   C3B 3600  -0.284   0.655   5.839  0.0103 -0.1352  0.0073
  264POPC   C4B 3601  -0.366   0.703   6.393 -0.0639  0.0372  0.0281
  265POPC   NC3 3602   4.244   2.481   4.649 -0.1508 -0.0957  0.0727
  265POPC   PO4 3603   3.872   2.738   4.571  0.1163  0.1091 -0.0916
  265POPC   GL1 3604   3.974   2.604   5.043  0.0605 -0.0556 -0.2758
  265POPC   GL2 3605   4.087   2.848   5.284  0.0649  0.0098  0.2168
  265POPC   C1A 3606   3.954   2.391   5.456  0.0707 -0.0094 -0.0582
  265POPC   D2A 3607   3.972   2.429   5.936 -0.0817  0.1827  0.1700
  265POPC   C3A 3608   3.763   2.106   6.200 -0.0900  0.3162 -0.1600
  265POPC   C4A 3609   3.479   2.237   6.458  0.3107 -0.1552 -0.1096
  265POPC   C1B 3610   4.359   3.126   5.360  0.1360 -0.0783  0.0132
  265POPC   C2B 3611   4.695   3.361   5.597 -0.1898 -0.1231  0.0045
  265POPC   C3B 3612   4.735   3.099   6.064  0.2100 -0.0157  0.4117
  265POPC   C4B 3613   4.722   2.995   6.450  0.0880 -0.1480  0.1334
  266POPC   NC3 3614   4.408   9.701   4.237 -0.4299  0.1503 -0.0884
  266POPC   PO4 3615   4.176   9.321   4.286 -0.2365  0.1470 -0.2275
  266POPC   GL1 3616   4.274   9.446   4.731  0.0685 -0.2481  0.0769
  266POPC   GL2 3617   4.062   9.256   4.811  0.1507  0.0549  0.0420
  266POPC   C1A 3618   4.463   9.675   5.222  0.0648 -0.3491  0.0720
  266POPC   D2A 3619   4.653  10.010   5.447 -0.1913  0.0602 -0.0733
  266POPC   C3A 3620   4.822   9.929   5.763  0.0391  0.1754  0.3064
  266POPC   C4A 3621   4.955   9.799   6.157  0.0395 -0.2588  0.0212
  266POPC   C1B 3622   3.959   9.194   5.174 -0.0720  0.0637  0.0329
  266POPC   C2B 3623   3.641   9.286   5.457 -0.0243  0.2963 -0.0509
  266POPC   C3B 3624   3.402   9.332   5.794  0.0376 -0.2019 -0.0233
  266POPC   C4B 3625   3.336   9.615   6.130  0.0897  0.0112 -0.0594
  267POPC   NC3 3626   1.640   2.218   3.495 -0.0780  0.1835 -0.0813
  267POPC   PO4 3627   1.954   2.480   3.415  0.0845 -0.2112 -0.0830
  267POPC   GL1 3628   1.815   2.570   3.748 -0.1774 -0.0398 -0.2457
  267POPC   GL2 3629   1.510   2.608   3.874 -0.0326 -0.1564  0.0619
  267POPC   C1A 3630   1.869   2.770   4.107  0.1550 -0.3088  0.3914
  267POPC   D2A 3631   2.159   2.860   4.472 -0.0997 -0.0465  0.0619
  267POPC   C3A 3632   2.435   2.826   4.819  0.3409 -0.3533 -0.0945
  267POPC   C4A 3633   2.841   3.124   5.005  0.2029  0.0628 -0.0942
  267POPC   C1B 3634   1.432   2.519   4.264  0.0551 -0.2113  0.1388
  267POPC   C2B 3635   1.276   2.187   4.541 -0.0519 -0.2403  0.2627
  267POPC   C3B 3636   1.103   1.776   4.755  0.1754  0.1732  0.0873
  267POPC   C4B 3637   0.810   1.367   4.678  0.0502 -0.2001 -0.2195
  268POPC   NC3 3638   5.350   1.451   3.999  0.0606  0.0633  0.0503
  268POPC   PO4 3639   5.764   1.464   4.236  0.1408 -0.1847 -0.0647
  268POPC   GL1 3640   5.770   1.616   4.730  0.3441 -0.1436 -0.0148
  268POPC   GL2 3641   5.784   1.888   4.751  0.2297 -0.1008 -0.1548
  268POPC   C1A 3642   5.760   1.613   5.187 -0.4816 -0.3048 -0.1122
  268POPC   D2A 3643   5.706   1.872   5.612 -0.0716  0.1831  0.3544
  268POPC   C3A 3644   5.274   1.686   5.850  0.0849  0.0190 -0.1602
  268POPC   C4A 3645   4.808   1.550   5.917  0.1472  0.0507 -0.3242
  268POPC   C1B 3646   5.967   2.095   5.094 -0.1437  0.3169 -0.3008
  268POPC   C2B 3647   6.126   2.085   5.480 -0.1896 -0.0694  0.1192
  268POPC   C3B 3648   6.200   1.878   5.987 -0.1224 -0.0201  0.2860
  268POPC   C4B 3649   6.239   1.741   6.395 -0.1903 -0.0807  0.0256
  269POPC   NC3 3650   0.638   4.599   3.641  0.0437 -0.2098  0.0913
  269POPC   PO4 3651   0.617   4.211   3.737  0.2263  0.1814  0.0765
  269POPC   GL1 3652   0.590   3.988   4.032 -0.1164  0.3654 -0.3100
  269POPC   GL2 3653   0.899   4.059   4.252  0.0265  0.1861 -0.0272
  269POPC   C1A 3654   0.493   3.916   4.500 -0.1647 -0.0245  0.1273
  269POPC   D2A 3655   0.390   3.837   4.891  0.0052  0.1429  0.0719
  269POPC   C3A 3656   0.497   3.970   5.353  0.1222  0.1781 -0.0814
  269POPC   C4A 3657   0.673   4.136   5.709  0.2084 -0.0492 -0.2057
  269POPC   C1B 3658   1.278   4.157   4.486 -0.1029  0.2236  0.1354
  269POPC   C2B 3659   1.305   3.982   4.857 -0.1485  0.3155 -0.0024
  269POPC   C3B 3660   1.278   3.664   5.146  0.0611  0.3686  0.2727
  269POPC   C4B 3661   1.258   3.247   5.316 -0.3217  0.0064  0.2211
  270POPC   NC3 3662   6.371   5.237   4.329  0.0406 -0.0413 -0.1891
  270POPC   PO4 3663   6.250   5.188   4.800  0.0556  0.0803 -0.0133
  270POPC   GL1 3664   6.305   5.465   5.044  0.1333  0.1774  0.1891
  270POPC   GL2 3665   6.313   5.708   5.091  0.3626 -0.1166 -0.1056
  270POPC   C1A 3666   6.263   5.535   5.528 -0.0873  0.1535 -0.3110
  270POPC   D2A 3667   6.513   5.602   5.873  0.0090  0.1035 -0.0797
  270POPC   C3A 3668   6.958   5.656   5.888 -0.0816  0.0299 -0.0156
  270POPC   C4A 3669   7.274   5.343   5.881 -0.0605  0.1632 -0.2221
  270POPC   C1B 3670   6.719   5.521   5.323  0.3196 -0.0933 -0.0980
  270POPC   C2B 3671   6.801   5.243   5.626 -0.1741  0.1659 -0.2035
  270POPC   C3B 3672   6.686   4.810   5.834 -0.1027  0.0208  0.1395
  270POPC   C4B 3673   6.683   4.520   6.102 -0.2404 -0.1580 -0.1197
  271POPC   NC3 3674   0.131   4.967   3.830  0.1063  0.1882 -0.0700
  271POPC   PO4 3675  -0.070   5.086   4.215  0.0570  0.2150 -0.1404
  271POPC   GL1 3676   0.462   5.009   4.418 -0.0393 -0.3809 -0.1982
  271POPC   GL2 3677   0.493   5.137   4.741 -0.0656  0.3612 -0.1767
  271POPC   C1A 3678   0.666   4.665   4.607  0.0867  0.1650  0.2385
  271POPC   D2A 3679   0.647   4.305   4.766  0.0827  0.3412 -0.2573
  271POPC   C3A 3680   0.805   4.427   5.210 -0.0881  0.1588  0.2610
  271POPC   C4A 3681   1.068   4.259   5.376  0.1745 -0.2861 -0.3060
  271POPC   C1B 3682   0.363   4.937   5.125  0.1117 -0.0216 -0.0545
  271POPC   C2B 3683   0.596   4.796   5.435  0.0231  0.0935 -0.0033
  271POPC   C3B 3684   0.718   4.716   5.727 -0.0792  0.0248 -0.1261
  271POPC   C4B 3685   0.679   4.759   6.196 -0.4602 -0.0458  0.1040
  272POPC   NC3 3686   8.169   3.842   4.037 -0.3138  0.2910  0.4229
  272POPC   PO4 3687   8.441   4.125   4.214 -0.0073 -0.1873 -0.1000
  272POPC   GL1 3688   8.490   4.247   4.644 -0.3476 -0.0681 -0.1163
  272POPC   GL2 3689   8.710   4.514   4.639  0.4333  0.1974 -0.3511
  272POPC   C1A 3690   8.687   3.986   4.954  0.0866 -0.0092  0.2633
  272POPC   D2A 3691   8.342   3.821   5.209  0.2052  0.1223  0.1820
  272POPC   C3A 3692   7.918   3.814   5.135  0.0670  0.1621 -0.1025
  272POPC   C4A 3693   7.587   4.142   5.153 -0.1160  0.0653  0.1876
  272POPC   C1B 3694   9.011   4.358   4.778  0.0753 -0.1236 -0.2870
  272POPC   C2B 3695   9.389   4.477   5.045  0.1809 -0.2630 -0.1907
  272POPC   C3B 3696   9.781   4.443   5.052 -0.0734 -0.0854 -0.2885
  272POPC   C4B 3697  10.269   4.400   5.146  0.1180 -0.0219 -0.0525
  273POPC   NC3 3698   0.882   2.881   3.163  0.1194 -0.1345  0.1493
  273POPC   PO4 3699   0.440   2.571   3.102  0.3143 -0.2555  0.1968
  273POPC   GL1 3700   0.529   2.549   3.593 -0.0295 -0.2997 -0.0125
  273POPC   GL2 3701   0.561   2.925   3.569  0.1253  0.0811 -0.1631
  273POPC   C1A 3702   0.472   2.492   3.966  0.2607 -0.3839  0.2716
  273POPC   D2A 3703   0.517   2.664   4.356 -0.0861 -0.0649  0.0833
  273POPC   C3A 3704   0.446   2.368   4.731  0.0709 -0.1893  0.2383
  273POPC   C4A 3705   0.752   2.157   4.958  0.1060  0.2376 -0.2637
  273POPC   C1B 3706   0.675   2.983   4.006 -0.2618 -0.0367 -0.0793
  273POPC   C2B 3707   0.776   3.203   4.322 -0.2265 -0.1611  0.2142
  273POPC   C3B 3708   0.849   3.572   4.605 -0.1475 -0.3031  0.0788
  273POPC   C4B 3709   0.872   3.908   5.038 -0.0027 -0.1671 -0.1717
  274POPC   NC3 3710   3.437   2.596   4.328  0.0705 -0.2018  0.2878
  274POPC   PO4 3711   3.196   2.152   4.190 -0.1737  0.4775 -0.1543
  274POPC   GL1 3712   3.055   2.377   4.588  0.0752  0.0421 -0.0041
  274POPC   GL2 3713   2.700   2.321   4.556  0.2209  0.0743  0.1246
  274POPC   C1A 3714   3.033   2.439   4.961  0.2344 -0.0387  0.2314
  274POPC   D2A 3715   2.874   2.595   5.313  0.1353 -0.0234 -0.2415
  274POPC   C3A 3716   2.533   2.874   5.442 -0.2208 -0.3582  0.3738
  274POPC   C4A 3717   2.510   3.310   5.523  0.0696  0.2182 -0.0095
  274POPC   C1B 3718   2.562   2.373   4.987  0.1282 -0.1847 -0.1102
  274POPC   C2B 3719   2.385   2.386   5.415  0.2353 -0.0850 -0.0369
  274POPC   C3B 3720   2.335   2.607   5.891 -0.2503  0.2958 -0.1084
  274POPC   C4B 3721   2.527   2.808   6.257  0.1696 -0.1265 -0.0049
  275POPC   NC3 3722   3.367   4.836   3.936  0.1687 -0.0975  0.0167
  275POPC   PO4 3723   3.210   4.644   4.287 -0.1314 -0.1457  0.2244
  275POPC   GL1 3724   3.069   4.479   4.679  0.0594 -0.0691 -0.1120
  275POPC   GL2 3725   3.081   4.269   4.941  0.1589  0.1597  0.1026
  275POPC   C1A 3726   2.978   4.763   5.054 -0.2268  0.1322  0.1090
  275POPC   D2A 3727   2.710   5.004   5.369  0.1881 -0.0286  0.0071
  275POPC   C3A 3728   2.957   5.059   5.730  0.0380 -0.1889 -0.0232
  275POPC   C4A 3729   3.022   5.019   6.223 -0.0745 -0.0122  0.0086
  275POPC   C1B 3730   2.818   4.379   5.327 -0.2195 -0.0652 -0.1100
  275POPC   C2B 3731   2.775   4.564   5.779 -0.1535  0.2051 -0.2274
  275POPC   C3B 3732   2.724   4.432   6.127 -0.1568 -0.1818 -0.1030
  275POPC   C4B 3733   2.855   3.990   6.184 -0.2574  0.2202  0.3296
  276POPC   NC3 3734   7.464   8.525   4.408 -0.1447  0.2652  0.0865
  276POPC   PO4 3735   7.768   8.895   4.610  0.4332 -0.3028 -0.1806
  276POPC   GL1 3736   7.862   9.158   4.819  0.2655  0.0852  0.0817
  276POPC   GL2 3737   8.035   8.970   5.117  0.1830  0.2506  0.1527
  276POPC   C1A 3738   7.753   9.448   5.131  0.0050 -0.0751  0.2904
  276POPC   D2A 3739   7.399   9.687   5.268 -0.0574 -0.1277 -0.4063
  276POPC   C3A 3740   7.728   9.967   5.462 -0.1515  0.5215  0.1280
  276POPC   C4A 3741   7.766  10.019   5.813  0.0612  0.0552 -0.0506
  276POPC   C1B 3742   7.942   8.947   5.535  0.1263 -0.1818  0.1021
  276POPC   C2B 3743   7.656   8.920   5.891 -0.0746  0.0464  0.3067
  276POPC   C3B 3744   7.685   9.083   6.254 -0.2115  0.1360 -0.1318
  276POPC   C4B 3745   7.560   8.853   6.563 -0.0760 -0.0344 -0.1815
  277POPC   NC3 3746   9.424   8.841   3.996  0.0641  0.0711 -0.2556
  277POPC   PO4 3747   9.659   8.916   4.327  0.0635  0.0730 -0.1496
  277POPC   GL1 3748   9.848   8.673   4.749 -0.0886 -0.1583 -0.0503
  277POPC   GL2 3749  10.035   8.902   4.951  0.1796  0.0494 -0.1217
  277POPC   C1A 3750   9.651   8.645   5.157  0.2681 -0.2841 -0.0783
  277POPC   D2A 3751   9.591   8.875   5.552 -0.1871  0.1131 -0.0930
  277POPC   C3A 3752   9.647   8.903   6.062 -0.2127 -0.0080 -0.3634
  277POPC   C4A 3753   9.499   9.093   6.465 -0.1551 -0.0365 -0.3146
  277POPC   C1B 3754  10.097   8.870   5.417 -0.1131  0.2012 -0.0944
  277POPC   C2B 3755   9.987   9.109   5.728 -0.2096  0.0742  0.0373
  277POPC   C3B 3756   9.882   9.312   6.102  0.0282  0.1884  0.0069
  277POPC   C4B 3757   9.980   9.645   6.401 -0.1242 -0.0616 -0.0884
  278POPC   NC3 3758   5.475   8.035   4.580 -0.1655  0.2403 -0.0727
  278POPC   PO4 3759   5.657   7.738   4.715  0.1328 -0.0772  0.1405
  278POPC   GL1 3760   5.439   7.889   5.076  0.1887  0.1837  0.2279
  278POPC   GL2 3761   5.600   8.041   5.300 -0.2734 -0.2123 -0.0312
  278POPC   C1A 3762   5.261   7.687   5.378 -0.0452 -0.0814  0.0023
  278POPC   D2A 3763   5.455   7.426   5.770 -0.1862 -0.0296  0.2045
  278POPC   C3A 3764   5.205   7.277   6.080 -0.1406  0.2218  0.1082
  278POPC   C4A 3765   5.226   7.162   6.540  0.2301  0.0328  0.1873
  278POPC   C1B 3766   5.326   8.212   5.674  0.0823  0.1323 -0.2305
  278POPC   C2B 3767   5.409   8.126   6.117 -0.2721  0.0908  0.1243
  278POPC   C3B 3768   5.297   7.764   6.309 -0.0687  0.2628 -0.1850
  278POPC   C4B 3769   5.226   7.632   6.792 -0.0504 -0.1001  0.0468
  279POPC   NC3 3770   3.616   1.862   4.470  0.0988 -0.4156 -0.0202
  279POPC   PO4 3771   3.904   2.070   4.501 -0.2874  0.0433  0.0343
  279POPC   GL1 3772   3.609   2.359   4.740 -0.1940  0.1141 -0.1375
  279POPC   GL2 3773   3.386   2.046   4.852 -0.1587 -0.2686 -0.0110
  279POPC   C1A 3774   3.537   2.394   5.188  0.1338 -0.2152  0.3244
  279POPC   D2A 3775   3.344   2.543   5.625  0.2373 -0.0443 -0.2080
  279POPC   C3A 3776   3.375   2.423   6.030 -0.2538 -0.1665  0.2147
  279POPC   C4A 3777   3.015   2.332   6.236  0.1804  0.2642  0.0969
  279POPC   C1B 3778   3.701   1.858   5.192 -0.1357 -0.1257  0.0811
  279POPC   C2B 3779   3.598   1.625   5.489  0.2237 -0.3344 -0.1541
  279POPC   C3B 3780   3.623   1.537   5.919  0.0236 -0.1017 -0.1883
  279POPC   C4B 3781   3.519   1.626   6.378  0.0664  0.3513 -0.0836
  280POPC   NC3 3782   5.374   2.132   4.692 -0.1683  0.0773 -0.1751
  280POPC   PO4 3783   5.236   1.727   4.472 -0.3263  0.4322  0.1562
  280POPC   GL1 3784   5.262   1.670   4.847  0.0263  0.3702 -0.1803
  280POPC   GL2 3785   5.329   1.331   5.054  0.0351 -0.2185 -0.2845
  280POPC   C1A 3786   5.288   1.821   5.265  0.0637  0.3353  0.0813
  280POPC   D2A 3787   4.854   1.839   5.531 -0.0824 -0.3748  0.2020
  280POPC   C3A 3788   4.826   2.044   6.033 -0.1718 -0.1163  0.2444
  280POPC   C4A 3789   4.828   2.224   6.381  0.2403 -0.3565  0.0981
  280POPC   C1B 3790   5.471   1.314   5.389  0.2341  0.0041  0.0498
  280POPC   C2B 3791   5.572   1.257   5.767 -0.0581  0.0846  0.0445
  280POPC   C3B 3792   5.326   1.304   6.142 -0.1766 -0.1260 -0.1806
  280POPC   C4B 3793   5.151   1.304   6.567 -0.1834  0.1290 -0.1143
  281POPC   NC3 3794   6.418   8.403   4.662  0.1689 -0.0653  0.0828
  281POPC   PO4 3795   6.871   8.228   4.632 -0.1209 -0.1463 -0.1212
  281POPC   GL1 3796   7.141   8.231   4.962  0.0226  0.3330  0.2090
  281POPC   GL2 3797   7.246   8.543   4.841 -0.2380  0.2244  0.3137
  281POPC   C1A 3798   7.360   8.166   5.356 -0.0549  0.0728  0.0608
  281POPC   D2A 3799   7.551   8.082   5.611 -0.0503 -0.0625  0.5670
  281POPC   C3A 3800   7.673   8.424   5.850  0.1615 -0.0337 -0.3459
  281POPC   C4A 3801   7.756   8.534   6.253  0.0425 -0.3689 -0.0568
  281POPC   C1B 3802   7.192   8.661   5.262 -0.1008  0.0790 -0.1211
  281POPC   C2B 3803   7.176   8.546   5.676  0.1747 -0.0850  0.0252
  281POPC   C3B 3804   7.244   8.256   6.036  0.0710  0.1195 -0.2417
  281POPC   C4B 3805   7.403   8.340   6.484  0.3529  0.0711  0.0123
  282POPC   NC3 3806   0.524   7.747   4.829  0.1334 -0.2285  0.0025
  282POPC   PO4 3807   0.133   7.727   4.718  0.0587 -0.2233  0.0629
  282POPC   GL1 3808   0.269   8.007   5.155  0.0046 -0.1796  0.2564
  282POPC   GL2 3809   0.201   8.347   5.094  0.2501  0.0623 -0.0744
  282POPC   C1A 3810   0.420   7.897   5.494  0.0202 -0.1053 -0.0523
  282POPC   D2A 3811   0.585   7.728   5.790 -0.3763  0.0600 -0.2831
  282POPC   C3A 3812   0.716   7.501   6.120 -0.0525 -0.0371 -0.3193
  282POPC   C4A 3813   0.783   7.115   6.352  0.1330 -0.6703  0.0627
  282POPC   C1B 3814   0.073   8.378   5.575  0.0111 -0.2531  0.1879
  282POPC   C2B 3815   0.017   8.567   5.919 -0.1163  0.2048 -0.1627
  282POPC   C3B 3816   0.179   8.899   6.259 -0.2848 -0.1232  0.0395
  282POPC   C4B 3817  -0.002   9.190   6.603  0.0240 -0.1311 -0.0628
  283POPC   NC3 3818   4.803   7.410   3.887 -0.1219 -0.2025 -0.0124
  283POPC   PO4 3819   4.583   7.435   4.258 -0.1124 -0.1246 -0.2688
  283POPC   GL1 3820   4.765   7.295   4.783 -0.0011 -0.1756 -0.3085
  283POPC   GL2 3821   4.538   7.113   4.978 -0.1694  0.0684  0.0511
  283POPC   C1A 3822   5.053   7.221   5.232  0.1099 -0.2694  0.2379
  283POPC   D2A 3823   5.397   7.174   5.319  0.2341 -0.0177 -0.1480
  283POPC   C3A 3824   5.398   6.823   5.593 -0.1269 -0.4413  0.2823
  283POPC   C4A 3825   5.582   6.531   5.936  0.1318 -0.2122  0.1882
  283POPC   C1B 3826   4.507   7.254   5.409  0.2449 -0.2740 -0.0944
  283POPC   C2B 3827   4.506   7.314   5.866 -0.2677 -0.1616 -0.2284
  283POPC   C3B 3828   4.231   7.589   6.145  0.2858 -0.0487 -0.1651
  283POPC   C4B 3829   3.906   7.633   6.496 -0.1771  0.0874  0.0289
  284POPC   NC3 3830   5.616   5.954   4.157 -0.1296  0.1846 -0.0443
  284POPC   PO4 3831   5.486   6.324   4.346  0.0562 -0.1477  0.1427
  284POPC   GL1 3832   5.255   6.599   4.688  0.0082 -0.0361 -0.0297
  284POPC   GL2 3833   5.553   6.613   4.888  0.0912  0.1675 -0.1834
  284POPC   C1A 3834   5.180   6.597   5.191 -0.0773  0.0648  0.2513
  284POPC   D2A 3835   5.204   6.211   5.481  0.1295 -0.0138  0.0262
  284POPC   C3A 3836   5.112   6.448   5.848  0.1999 -0.2552 -0.0511
  284POPC   C4A 3837   5.222   6.742   6.219  0.0553 -0.1783 -0.2399
  284POPC   C1B 3838   5.680   6.513   5.338  0.0492  0.0913  0.1273
  284POPC   C2B 3839   6.125   6.527   5.636 -0.0459 -0.2219  0.0617
  284POPC   C3B 3840   6.490   6.498   5.754 -0.0386 -0.1196  0.4989
  284POPC   C4B 3841   6.610   6.647   6.161 -0.1305  0.2674  0.0489
  285POPC   NC3 3842   0.393   1.810   3.404  0.3186  0.0365 -0.2698
  285POPC   PO4 3843   0.549   1.378   3.457  0.3752 -0.1427 -0.1861
  285POPC   GL1 3844   0.432   1.205   3.851  0.0561 -0.1975 -0.1257
  285POPC   GL2 3845   0.635   0.974   4.044  0.1129 -0.0470  0.0086
  285POPC   C1A 3846   0.195   1.303   4.226 -0.1458  0.1732 -0.0528
  285POPC   D2A 3847   0.202   1.661   4.398  0.3700  0.0385  0.1194
  285POPC   C3A 3848   0.524   1.846   4.553 -0.3133 -0.0162  0.0379
  285POPC   C4A 3849   0.821   2.161   4.509  0.1386  0.3502  0.1938
  285POPC   C1B 3850   0.690   1.395   4.227 -0.2049 -0.0065  0.2334
  285POPC   C2B 3851   1.022   1.777   4.279  0.0434  0.1390  0.4260
  285POPC   C3B 3852   1.038   2.157   4.104  0.1297  0.0602 -0.3233
  285POPC   C4B 3853   1.011   2.564   3.851  0.2407  0.1048  0.0096
  286POPC   NC3 3854   5.170   0.723   4.476 -0.0775  0.1061 -0.1712
  286POPC   PO4 3855   5.077   0.395   4.747  0.3018  0.0402  0.0481
  286POPC   GL1 3856   5.081   0.031   5.066  0.0627  0.4488 -0.0263
  286POPC   GL2 3857   5.398  -0.063   5.159 -0.0080 -0.1391 -0.0913
  286POPC   C1A 3858   5.042  -0.347   5.379  0.0579 -0.2950 -0.3425
  286POPC   D2A 3859   5.176  -0.807   5.437 -0.1624 -0.1022 -0.0827
  286POPC   C3A 3860   5.437  -0.868   5.886 -0.0309  0.0030 -0.1878
  286POPC   C4A 3861   5.797  -1.138   6.000 -0.2638  0.0514  0.0390
  286POPC   C1B 3862   5.276   0.067   5.499  0.3636  0.2128 -0.2697
  286POPC   C2B 3863   5.323   0.090   5.936  0.0713 -0.2796 -0.0111
  286POPC   C3B 3864   5.597   0.288   6.212 -0.1499  0.1222 -0.0053
  286POPC   C4B 3865   5.760   0.175   6.660  0.0374  0.3990 -0.0001
  287POPC   NC3 3866   2.785   8.450   4.414 -0.0766  0.2612 -0.2566
  287POPC   PO4 3867   3.073   8.434   4.752 -0.0182  0.2421 -0.1197
  287POPC   GL1 3868   3.340   8.400   5.150 -0.0050 -0.0178 -0.0311
  287POPC   GL2 3869   3.611   8.418   5.236 -0.1961  0.1085 -0.3217
  287POPC   C1A 3870   3.311   8.350   5.594  0.3991 -0.0099  0.0036
  287POPC   D2A 3871   3.084   8.263   5.923 -0.0255 -0.2314 -0.3766
  287POPC   C3A 3872   2.737   8.020   6.091  0.0409  0.0522  0.0606
  287POPC   C4A 3873   2.458   8.064   6.385 -0.1994  0.1356  0.1923
  287POPC   C1B 3874   3.762   8.475   5.565 -0.1225 -0.1982  0.0979
  287POPC   C2B 3875   3.761   8.360   5.842 -0.0574  0.2236 -0.0492
  287POPC   C3B 3876   3.819   8.589   6.321  0.3724 -0.0688  0.0339
  287POPC   C4B 3877   3.595   8.481   6.685 -0.0385  0.1347  0.4201
  288POPC   NC3 3878   7.159   5.631   4.677  0.0595 -0.3235  0.0741
  288POPC   PO4 3879   7.290   6.055   4.503  0.1209 -0.1295 -0.0026
  288POPC   GL1 3880   7.523   6.067   4.929  0.1008 -0.1687 -0.3455
  288POPC   GL2 3881   7.888   6.035   4.894  0.1053 -0.4160  0.1209
  288POPC   C1A 3882   7.611   6.017   5.388  0.0401  0.0216  0.1444
  288POPC   D2A 3883   7.357   5.969   5.727 -0.1322 -0.3470 -0.1184
  288POPC   C3A 3884   7.371   5.805   6.120  0.1008  0.0161  0.0828
  288POPC   C4A 3885   7.278   5.853   6.597 -0.2279 -0.0919  0.0294
  288POPC   C1B 3886   8.079   5.811   5.268  0.3116 -0.0754  0.1033
  288POPC   C2B 3887   7.963   5.713   5.776  0.1275  0.1872 -0.3225
  288POPC   C3B 3888   7.792   5.537   6.155  0.2365  0.1368  0.0397
  288POPC   C4B 3889   7.549   5.263   6.384 -0.3616 -0.4585 -0.0204
  289POPC   NC3 3890   4.806   8.626   4.766  0.4040 -0.1300 -0.2328
  289POPC   PO4 3891   5.059   9.101   4.813  0.2218 -0.3323 -0.1119
  289POPC   GL1 3892   5.333   9.385   5.041 -0.2687  0.0523 -0.1842
  289POPC   GL2 3893   5.721   9.297   5.052  0.0568  0.1237  0.2416
  289POPC   C1A 3894   5.556   9.553   5.441 -0.0367  0.1131  0.2862
  289POPC   D2A 3895   5.955   9.531   5.560  0.0651  0.2212 -0.0308
  289POPC   C3A 3896   6.091   9.257   5.813 -0.0621 -0.0605 -0.0048
  289POPC   C4A 3897   5.974   9.398   6.260 -0.1175 -0.1661 -0.0131
  289POPC   C1B 3898   5.728   9.073   5.424 -0.0471  0.2051  0.2169
  289POPC   C2B 3899   5.710   8.647   5.538  0.3206  0.1044 -0.0082
  289POPC   C3B 3900   5.863   8.272   5.647  0.1470  0.2160  0.2224
  289POPC   C4B 3901   5.873   8.064   5.995 -0.0252  0.1978 -0.1043
  290POPC   NC3 3902   3.938   3.449   4.261 -0.1702 -0.2906  0.1163
  290POPC   PO4 3903   4.268   3.515   4.533  0.0148  0.0177 -0.1223
  290POPC   GL1 3904   4.171   3.713   4.998 -0.0578 -0.0148  0.0019
  290POPC   GL2 3905   4.130   3.483   5.064  0.2895 -0.1497  0.0866
  290POPC   C1A 3906   3.973   4.047   5.232 -0.1200  0.0793  0.1981
  290POPC   D2A 3907   3.552   4.206   5.101 -0.1407 -0.3588 -0.1895
  290POPC   C3A 3908   3.412   4.106   5.386 -0.0768 -0.2141 -0.0554
  290POPC   C4A 3909   3.004   4.047   5.708  0.0619 -0.2513  0.1183
  290POPC   C1B 3910   4.226   3.626   5.486 -0.0817  0.1242 -0.2884
  290POPC   C2B 3911   4.065   3.885   5.712 -0.2572 -0.2140  0.1378
  290POPC   C3B 3912   4.019   3.873   6.086 -0.1020 -0.2194 -0.1837
  290POPC   C4B 3913   4.004   3.774   6.507  0.1347  0.0543 -0.0937
  291POPC   NC3 3914   0.466   5.647   4.674  0.0176  0.1592  0.3158
  291POPC   PO4 3915   0.257   6.030   4.664 -0.0351  0.1825  0.1215
  291POPC   GL1 3916   0.315   6.031   5.102  0.1262 -0.2335  0.2444
  291POPC   GL2 3917   0.463   5.802   5.182  0.1272  0.0463 -0.1869
  291POPC   C1A 3918   0.260   6.073   5.563  0.1905 -0.1432 -0.2119
  291POPC   D2A 3919   0.199   5.682   5.827  0.3684 -0.0043  0.0689
  291POPC   C3A 3920  -0.113   5.471   6.127 -0.2196  0.0606  0.4443
  291POPC   C4A 3921  -0.120   5.198   6.553  0.4622 -0.0148 -0.0428
  291POPC   C1B 3922   0.622   5.735   5.588 -0.1393 -0.1976 -0.1565
  291POPC   C2B 3923   0.814   5.848   5.874  0.0666  0.1191 -0.1327
  291POPC   C3B 3924   1.103   5.679   6.233 -0.0748  0.2707  0.0821
  291POPC   C4B 3925   1.327   5.577   6.566  0.0044 -0.2310 -0.1462
  292POPC   NC3 3926   6.717   0.492   3.828 -0.2771  0.2022 -0.3257
  292POPC   PO4 3927   6.364   0.707   4.129 -0.2899 -0.1636 -0.0925
  292POPC   GL1 3928   6.116   0.690   4.575 -0.0841 -0.2687  0.2695
  292POPC   GL2 3929   5.722   0.720   4.538 -0.2956  0.0204 -0.2099
  292POPC   C1A 3930   6.028   0.617   5.073 -0.2274 -0.1951  0.1850
  292POPC   D2A 3931   6.123   0.628   5.442 -0.0191 -0.2540 -0.1841
  292POPC   C3A 3932   6.410   0.973   5.658  0.0698 -0.0579 -0.0609
  292POPC   C4A 3933   6.547   1.219   5.865  0.1152 -0.0882 -0.2843
  292POPC   C1B 3934   5.643   0.855   4.877 -0.1271  0.0434  0.0163
  292POPC   C2B 3935   5.819   1.148   4.972  0.0168  0.1102 -0.0753
  292POPC   C3B 3936   6.145   1.397   4.934 -0.3532 -0.0871  0.2394
  292POPC   C4B 3937   6.361   1.836   5.044  0.1590 -0.0332  0.1293
  293POPC   NC3 3938   6.968   3.456   4.391  0.1080  0.2115  0.1226
  293POPC   PO4 3939   6.714   3.844   4.409 -0.0078  0.2450 -0.2855
  293POPC   GL1 3940   7.067   3.856   4.739  0.2203  0.1604  0.2582
  293POPC   GL2 3941   6.922   4.020   4.888 -0.3249 -0.0859  0.0573
  293POPC   C1A 3942   7.433   3.721   5.022 -0.1685  0.1278 -0.1412
  293POPC   D2A 3943   7.598   3.535   5.372  0.0525 -0.1653  0.0853
  293POPC   C3A 3944   7.697   3.796   5.715 -0.0069  0.1349  0.1879
  293POPC   C4A 3945   7.791   4.120   5.940 -0.1194  0.0922  0.1630
  293POPC   C1B 3946   7.009   3.741   5.208  0.1301 -0.2906  0.0001
  293POPC   C2B 3947   7.198   3.664   5.620 -0.2539 -0.3477  0.0865
  293POPC   C3B 3948   7.266   3.921   6.013  0.1759 -0.2342  0.0669
  293POPC   C4B 3949   7.508   3.976   6.361  0.0924  0.2411  0.4085
  294POPC   NC3 3950   6.487   7.228   4.497  0.0617 -0.1979 -0.0207
  294POPC   PO4 3951   6.349   6.959   4.687  0.2344  0.1826 -0.0142
  294POPC   GL1 3952   6.177   7.099   4.958 -0.0289 -0.3057  0.1614
  294POPC   GL2 3953   5.999   6.964   5.260  0.0857  0.1908  0.1310
  294POPC   C1A 3954   6.344   7.433   5.303  0.3658  0.0396  0.1936
  294POPC   D2A 3955   6.429   7.433   5.722 -0.0593  0.0362 -0.3477
  294POPC   C3A 3956   6.273   7.172   6.065 -0.0910  0.1236 -0.0614
  294POPC   C4A 3957   6.172   7.097   6.520 -0.1658  0.0652  0.2635
  294POPC   C1B 3958   5.943   7.130   5.637  0.0700  0.2469 -0.3446
  294POPC   C2B 3959   5.671   7.049   6.009 -0.1069  0.3117  0.0082
  294POPC   C3B 3960   5.760   6.831   6.434 -0.0250  0.1276 -0.1235
  294POPC   C4B 3961   5.727   6.586   6.815  0.3243  0.0891  0.0517
  295POPC   NC3 3962   1.445   8.446   4.572 -0.0696 -0.3444 -0.1452
  295POPC   PO4 3963   1.485   8.111   4.870  0.1174  0.0002  0.3449
  295POPC   GL1 3964   1.528   8.220   5.333 -0.2397  0.1012  0.4769
  295POPC   GL2 3965   1.384   7.948   5.544 -0.2989 -0.3778  0.2055
  295POPC   C1A 3966   1.559   8.387   5.781 -0.3516 -0.2984 -0.0840
  295POPC   D2A 3967   1.533   8.654   6.153 -0.1059  0.0457  0.0274
  295POPC   C3A 3968   1.408   8.370   6.651 -0.1253 -0.1029  0.1439
  295POPC   C4A 3969   1.500   7.953   6.905 -0.0922  0.1217  0.1427
  295POPC   C1B 3970   1.031   7.836   5.960 -0.0979  0.1840 -0.1318
  295POPC   C2B 3971   0.714   7.972   6.228  0.1403 -0.2092 -0.1984
  295POPC   C3B 3972   0.350   7.806   6.360 -0.2140 -0.2113 -0.1602
  295POPC   C4B 3973   0.016   7.939   6.597  0.0623 -0.3079 -0.1612
  296POPC   NC3 3974   1.722   0.539   4.007  0.3634 -0.0680  0.0468
  296POPC   PO4 3975   1.399   0.292   4.003  0.0170  0.1374  0.2424
  296POPC   GL1 3976   1.566   0.225   4.387  0.0893  0.2529  0.4840
  296POPC   GL2 3977   1.697  -0.078   4.638 -0.1554 -0.0480  0.0742
  296POPC   C1A 3978   1.724   0.450   4.736 -0.0075  0.4280 -0.2884
  296POPC   D2A 3979   1.611   0.922   4.904  0.3788 -0.2083  0.1321
  296POPC   C3A 3980   1.532   0.998   5.264 -0.1096 -0.0014 -0.1928
  296POPC   C4A 3981   1.564   1.364   5.487  0.3153  0.1247 -0.3204
  296POPC   C1B 3982   1.800   0.065   5.134 -0.1209 -0.2397  0.0329
  296POPC   C2B 3983   1.815  -0.052   5.594 -0.0910 -0.0080 -0.0428
  296POPC   C3B 3984   1.725   0.075   5.990  0.1538  0.0276  0.0202
  296POPC   C4B 3985   1.432   0.125   6.243  0.3332 -0.1802 -0.0747
  297POPC   NC3 3986   9.458   9.095   4.807  0.1861  0.0485 -0.3537
  297POPC   PO4 3987   9.871   9.221   4.654 -0.5469 -0.1256  0.2846
  297POPC   GL1 3988  10.263   9.501   4.869 -0.2175  0.4606  0.5595
  297POPC   GL2 3989  10.289   9.883   4.757 -0.1196 -0.1392  0.2562
  297POPC   C1A 3990  10.467   9.622   5.232 -0.0006 -0.0743 -0.2781
  297POPC   D2A 3991  10.636   9.904   5.661 -0.0986 -0.5070 -0.1575
  297POPC   C3A 3992  10.404   9.829   6.145 -0.2849  0.0660  0.0448
  297POPC   C4A 3993  10.399   9.820   6.653  0.3118  0.3754  0.4000
  297POPC   C1B 3994  10.163  10.001   5.125 -0.1632  0.1514 -0.0432
  297POPC   C2B 3995  10.146  10.061   5.548  0.2301 -0.0795 -0.0915
  297POPC   C3B 3996  10.051  10.159   5.954 -0.2146 -0.1756 -0.0706
  297POPC   C4B 3997  10.285  10.242   6.391 -0.2618  0.1877  0.2998
  298POPC   NC3 3998   1.691   3.394   3.452  0.0260  0.0176 -0.2169
  298POPC   PO4 3999   2.016   3.588   3.815  0.2125 -0.1530  0.3368
  298POPC   GL1 4000   2.086   3.768   4.271  0.0147 -0.1496  0.3820
  298POPC   GL2 4001   1.727   3.945   4.300  0.1702  0.0896  0.1894
  298POPC   C1A 4002   1.995   3.420   4.600 -0.5199  0.1432  0.1237
  298POPC   D2A 4003   1.974   3.060   4.867  0.1127 -0.1600 -0.0325
  298POPC   C3A 4004   1.591   2.850   5.161  0.0855 -0.1380 -0.1145
  298POPC   C4A 4005   1.461   2.488   5.417 -0.0823  0.1015  0.0803
  298POPC   C1B 4006   1.769   3.861   4.661  0.3535 -0.1498  0.0845
  298POPC   C2B 4007   1.740   3.500   5.060  0.1718  0.3931 -0.1288
  298POPC   C3B 4008   1.860   3.566   5.483  0.2811 -0.1157 -0.1201
  298POPC   C4B 4009   2.037   3.436   5.838  0.2305 -0.3153  0.0398
  299POPC   NC3 4010   4.517   0.436   4.474 -0.2113 -0.0364  0.1301
  299POPC   PO4 4011   4.672   0.892   4.423 -0.0615  0.1570 -0.0308
  299POPC   GL1 4012   4.888   1.043   4.827 -0.0373 -0.0786  0.4007
  299POPC   GL2 4013   5.064   0.817   4.999  0.0934  0.0744  0.0189
  299POPC   C1A 4014   4.729   1.012   5.264 -0.1867  0.1340 -0.0461
  299POPC   D2A 4015   4.731   0.864   5.617 -0.1393 -0.2961 -0.4320
  299POPC   C3A 4016   4.484   0.494   5.719 -0.2160 -0.0722 -0.0829
  299POPC   C4A 4017   4.217   0.263   5.403 -0.2787  0.1508 -0.0917
  299POPC   C1B 4018   5.352   0.792   5.251 -0.1382  0.1311  0.2029
  299POPC   C2B 4019   5.674   0.881   5.452 -0.0494 -0.1112 -0.0019
  299POPC   C3B 4020   6.014   1.202   5.391  0.1186  0.1305  0.1393
  299POPC   C4B 4021   6.157   1.572   5.520  0.1795 -0.1918 -0.0423
  300POPC   NC3 4022   2.332   4.035   3.906  0.0306 -0.1849  0.1124
  300POPC   PO4 4023   2.350   4.542   3.925  0.0623 -0.3183 -0.1460
  300POPC   GL1 4024   2.024   4.389   4.175 -0.0057 -0.1365  0.1982
  300POPC   GL2 4025   2.257   4.261   4.364  0.1432 -0.3187  0.0799
  300POPC   C1A 4026   1.737   4.413   4.511  0.0217 -0.0375 -0.0195
  300POPC   D2A 4027   1.607   4.473   4.912 -0.0329 -0.0821  0.2553
  300POPC   C3A 4028   1.145   4.552   4.895 -0.0867 -0.1502  0.4135
  300POPC   C4A 4029   0.894   4.864   5.092  0.3747 -0.2427  0.2070
  300POPC   C1B 4030   2.116   4.250   4.814  0.1790  0.4536 -0.1665
  300POPC   C2B 4031   1.963   4.263   5.170  0.0814  0.0273 -0.0182
  300POPC   C3B 4032   1.643   4.036   5.242 -0.1275  0.4208  0.0934
  300POPC   C4B 4033   1.551   3.882   5.620  0.2492  0.1673 -0.0781
  301POPC   NC3 4034   4.633   1.179   3.972 -0.2381  0.0601 -0.0646
  301POPC   PO4 4035   5.017   1.308   4.311  0.1569 -0.0316 -0.3134
  301POPC   GL1 4036   4.732   1.536   4.667  0.1058 -0.1905  0.1955
  301POPC   GL2 4037   4.491   1.445   4.519 -0.2145 -0.1098 -0.2331
  301POPC   C1A 4038   4.857   1.464   5.070  0.0680  0.2581  0.0910
  301POPC   D2A 4039   5.007   1.354   5.455 -0.2346  0.3051  0.0096
  301POPC   C3A 4040   5.218   0.969   5.697  0.0535 -0.2783  0.1422
  301POPC   C4A 4041   5.485   0.863   6.109  0.1172 -0.0097  0.1706
  301POPC   C1B 4042   4.397   1.337   5.014  0.0082  0.0613 -0.0629
  301POPC   C2B 4043   4.501   1.383   5.448 -0.1800 -0.0373  0.5112
  301POPC   C3B 4044   4.406   1.828   5.688 -0.0518 -0.1178  0.3267
  301POPC   C4B 4045   4.371   2.113   6.049  0.1408 -0.1439 -0.0883
  302W        W 4046   0.127   9.078   1.852  0.0890 -0.1195  0.0502
  303W        W 4047   1.017   5.539   0.261  0.3664 -0.0245 -0.1217
  304W        W 4048   5.519   2.035   9.393 -0.0433 -0.1315  0.2939
  305W        W 4049   7.694   4.769  10.469  0.1043 -0.2833 -0.0727
  306W        W 4050   9.058   3.320   9.316  0.2675  0.0618  0.1588
  307W        W 4051   3.430   7.070   2.743  0.0612  0.1051  0.2419
  308W        W 4052   4.345   2.817  11.300  0.0069  0.0180  0.2841
  309W        W 4053   6.261   8.844  10.507  0.1690  0.3063 -0.1073
  310W        W 4054   4.244   4.370   9.947  0.2212 -0.2296  0.4495
  311W        W 4055   7.135   0.070   1.501 -0.2163  0.3244  0.1203
  312W        W 4056   8.003   1.365   1.417 -0.0874  0.2239 -0.0968
  313W        W 4057   1.600   5.248   3.928 -0.1291 -0.1304  0.1066
  314W        W 4058   4.282   0.209   9.576  0.2157  0.1412  0.0873
  315W        W 4059   5.217   1.351  11.334 -0.1539  0.3678 -0.0930
  316W        W 4060   6.235   4.047  12.634 -0.2553  0.2757  0.0402
  317W        W 4061   6.202   6.604   2.532 -0.1548 -0.0972  0.0643
  318W        W 4062   9.019   2.815   1.685  0.2321  0.0036  0.0084
  319W        W 4063   6.480   8.210   9.364 -0.1397  0.2005 -0.0118
  320W        W 4064   0.413   7.993  12.657 -0.1676  0.3742  0.2707
  321W        W 4065   7.145   7.056  12.519  0.0756  0.2411  0.1203
  322W        W 4066   1.124   6.476   0.236 -0.4008 -0.2624 -0.0166
  323W        W 4067   5.367   6.225  12.295  0.2791 -0.0534  0.1821
  324W        W 4068   8.008   5.071   8.544  0.0560 -0.2631  0.0777
  325W        W 4069   5.490   1.391   0.104  0.1153 -0.0363 -0.0875
  326W        W 4070   5.616   0.926   3.053 -0.0730  0.0072 -0.1017
  327W        W 4071   3.340   5.479   0.208 -0.1657  0.0582 -0.1143
  328W        W 4072   4.084   8.678  10.629  0.0978  0.1582  0.0777
  329W        W 4073   5.663   6.983  10.882 -0.0022 -0.0097 -0.3820
  330W        W 4074   2.610   7.442   0.112 -0.1016  0.1659 -0.2133
  331W        W 4075   8.008   9.655   7.992 -0.1506  0.0445  0.2968
  332W        W 4076   8.157   3.400   2.791  0.4566  0.2014  0.0457
  333W        W 4077   6.223   6.409  12.297  0.2153  0.0763  0.0652
  334W        W 4078   8.040   7.134  10.366 -0.1052 -0.0811  0.0790
  335W        W 4079   3.544   5.948  12.713 -0.0594 -0.3582 -0.0915
  336W        W 4080   3.270   9.661   0.618  0.2103 -0.1140 -0.1728
  337W        W 4081   8.599   5.380  11.986  0.0730 -0.2305 -0.0225
  338W        W 4082   6.281   7.118  10.737 -0.0632 -0.1708 -0.2107
  339W        W 4083   8.394   9.085   3.768  0.1950 -0.0926  0.0160
  340W        W 4084   3.281   5.437   8.809  0.1734  0.0692 -0.0617
  341W        W 4085   4.332   1.213   9.692  0.0532  0.3624 -0.1443
  342W        W 4086   2.578   2.214   0.287  0.0100  0.2052 -0.0590
  343W        W 4087   0.133   9.300   0.067 -0.1356 -0.0547 -0.2335
  344W        W 4088   0.112   7.818   1.530 -0.1263 -0.1275  0.1653
  345W        W 4089   6.712   9.661   9.525 -0.2471 -0.0993  0.0783
  346W        W 4090   5.338   4.330  12.678  0.0228 -0.4190 -0.4679
  347W        W 4091   1.753   4.952  11.463 -0.0443 -0.0559  0.1606
  348W        W 4092   4.532   4.788   2.935  0.0490 -0.1953 -0.2715
  349W        W 4093   0.285   5.434   4.150 -0.2116 -0.1629  0.0379
  350W        W 4094   4.859   7.724  11.030  0.2850 -0.0406  0.5867
  351W        W 4095   3.888   1.065   1.658 -0.0629  0.1312 -0.0372
  352W        W 4096   9.896   7.892   9.221  0.0056 -0.3257 -0.1310
  353W        W 4097   1.473   9.388   2.167  0.2851  0.0423  0.2204
  354W        W 4098   6.557   9.875   2.267  0.0480  0.4598  0.0183
  355W        W 4099   9.681   8.409  11.425 -0.1814 -0.2982  0.0469
  356W        W 4100   1.240   1.628   2.381 -0.0116  0.1264 -0.2582
  357W        W 4101   5.844   2.338   8.726  0.1013  0.1240  0.2614
  358W        W 4102   1.792   7.542  11.098 -0.0782  0.3006 -0.2749
  359W        W 4103   3.043   6.352  11.329 -0.0239 -0.0136  0.1307
  360W        W 4104   6.893   1.926  11.583 -0.0637  0.2820  0.0134
  361W        W 4105   9.302   6.629  11.877  0.2280  0.1734  0.3334
  362W        W 4106   6.777   4.927  10.143 -0.1443  0.0171 -0.0201
  363W        W 4107   7.388   7.562  10.054 -0.0228 -0.4548 -0.0776
  364W        W 4108   2.087   3.722   0.687  0.1034 -0.1311  0.0188
  365W        W 4109   5.915   3.699   3.831 -0.3323 -0.1294  0.0187
  366W        W 4110   7.437   3.427   8.958 -0.2679 -0.1466  0.0154
  367W        W 4111   5.172   8.713   3.278  0.1274  0.0617  0.0037
  368W        W 4112   6.646   2.708   3.612 -0.1517 -0.0184  0.0579
  369W        W 4113   7.351   9.672   0.749 -0.2676  0.0036  0.0404
  370W        W 4114   9.118   1.019  11.159 -0.0172 -0.0115 -0.2719
  371W        W 4115   6.910   3.778   2.913  0.0428  0.0434  0.1572
  372W        W 4116   8.881   2.017  10.614  0.0305 -0.1183 -0.1607
  373W        W 4117   6.451   1.623   1.630 -0.0917 -0.0627  0.1673
  374W        W 4118   7.195   1.108  12.673  0.0241 -0.0064 -0.2687
  375W        W 4119   8.280   2.253   1.553  0.0434  0.2727 -0.2326
  376W        W 4120   1.960   8.619   9.394  0.1456  0.0613 -0.0130
  377W        W 4121   9.039   8.570   1.059  0.1228  0.0192  0.0050
  378W        W 4122   2.903   7.630   1.662  0.1520  0.0601 -0.0774
  379W        W 4123   1.477   8.236   3.495  0.2349 -0.2838  0.2248
  380W        W 4124   7.147   0.997  10.149  0.1314  0.3598 -0.2435
  381W        W 4125   9.066   0.111   0.205 -0.0284 -0.4385  0.1052
  382W        W 4126   9.935   1.512   0.299 -0.0515  0.2474  0.0219
  383W        W 4127   4.074   2.032  10.999 -0.0973 -0.2943 -0.0543
  384W        W 4128   8.108   0.224  11.410  0.1250 -0.1459 -0.1057
  385W        W 4129   0.901   5.041  10.350  0.1238 -0.0077 -0.1466
  386W        W 4130   9.139   3.114   1.333  0.1623 -0.1032  0.2090
  387W        W 4131   8.171   3.004   8.956 -0.1382  0.1582  0.0450
  388W        W 4132   2.102   3.062   9.392  0.0527  0.0587  0.2038
  389W        W 4133   6.844   3.510   8.927  0.1301 -0.4449 -0.1893
  390W        W 4134   3.069   7.835  10.069  0.1868  0.4850 -0.1250
  391W        W 4135   7.372   2.069  11.105 -0.0907 -0.1882 -0.0729
  392W        W 4136   6.158   7.565   4.728  0.1055  0.1819 -0.0888
  393W        W 4137   6.344   9.873   0.859 -0.1813 -0.0504 -0.1139
  394W        W 4138   8.093   7.752  10.488 -0.1661  0.0346 -0.1471
  395W        W 4139   7.621   8.206   1.486  0.2039 -0.1658  0.0567
  396W        W 4140   3.627   1.361  12.541 -0.1961 -0.0840 -0.0884
  397W        W 4141   8.282   7.756   4.873 -0.1194  0.7731 -0.0182
  398W        W 4142   9.227   0.679   1.390  0.3200  0.4542  0.1954
  399W        W 4143   2.906   2.138  10.357  0.2656  0.2073 -0.0782
  400W        W 4144   8.315   1.707   1.626  0.2461  0.1641 -0.0233
  401W        W 4145   8.718   5.526   1.971  0.1992  0.0177  0.0526
  402W        W 4146   3.881   8.421   2.541  0.2074 -0.1957 -0.3807
  403W        W 4147   0.901   8.396   8.590 -0.0790 -0.1009 -0.1548
  404W        W 4148   2.676   6.242  12.090 -0.1910  0.4613 -0.0589
  405W        W 4149   2.484   3.381   3.606  0.0427  0.1690  0.2899
  406W        W 4150   0.087   4.734   1.189 -0.0412  0.0317  0.1124
  407W        W 4151   0.487   6.526  12.357 -0.1529  0.2117  0.0093
  408W        W 4152   5.593   2.581   9.657 -0.0743  0.0738 -0.1482
  409W        W 4153   1.595   6.308   0.208  0.0207  0.1350 -0.1311
  410W        W 4154   0.134   0.217   1.352 -0.0660 -0.0112 -0.0728
  411W        W 4155   2.583   8.947   4.214  0.1385  0.1291  0.1410
  412W        W 4156   9.666   0.059  11.200 -0.0336  0.0230 -0.0437
  413W        W 4157   4.908   4.885   2.659 -0.1495 -0.2189  0.2376
  414W        W 4158   2.880   5.760   0.392 -0.0715  0.0481  0.2470
  415W        W 4159   6.671   9.015  12.672  0.0664 -0.4386  0.5216
  416W        W 4160   3.208   7.456  11.776 -0.3908  0.3499 -0.0822
  417W        W 4161   8.745   6.632  10.091 -0.3584  0.3408  0.0078
  418W        W 4162   5.702   5.778   1.171 -0.0096  0.1000  0.0891
  419W        W 4163   7.773   3.708   2.815  0.1901  0.1013  0.1777
  420W        W 4164   0.979   7.010   0.709  0.2879  0.0963  0.3258
  421W        W 4165   3.240   2.080   9.084 -0.1470  0.3121  0.0619
  422W        W 4166   1.526   0.288   1.634 -0.0334  0.0914 -0.0834
  423W        W 4167   3.443   5.595   3.887  0.0734 -0.0126  0.0425
  424W        W 4168   5.800   2.806   0.524  0.2034  0.0970 -0.1763
  425W        W 4169   1.069   8.700  11.630 -0.3206 -0.1411  0.2220
  426W        W 4170   1.671   5.840  11.778 -0.0637 -0.4227  0.2723
  427W        W 4171   9.729   5.090   0.138 -0.1079  0.0587  0.0827
  428W        W 4172   3.673   2.933  11.118  0.0318 -0.1170 -0.0874
  429W        W 4173   1.520   8.129  11.493  0.2382 -0.2073 -0.1285
  430W        W 4174   6.722   7.395   2.196 -0.2680 -0.1060  0.1624
  431W        W 4175   2.172   2.964  11.899  0.0522  0.2072 -0.2951
  432W        W 4176   5.664   5.466   0.087 -0.2703  0.2740 -0.1791
  433W        W 4177   7.279   5.217   2.617  0.0675  0.0122 -0.0075
  434W        W 4178   9.797   4.909   0.773  0.1084  0.1839  0.1081
  435W        W 4179   7.470   1.516  12.394  0.1103  0.2397  0.0961
  436W        W 4180   2.875   0.025  12.306  0.0616 -0.0016  0.1036
  437W        W 4181   6.802   4.333  12.467 -0.1756 -0.0169  0.1176
  438W        W 4182   7.042   9.291  12.686 -0.1619  0.2195 -0.0439
  439W        W 4183   2.379   6.466   2.975 -0.4182  0.3069  0.0932
  440W        W 4184   0.006   2.090  12.458 -0.0943 -0.0996 -0.2184
  441W        W 4185   5.958   5.014   2.474  0.1925 -0.3252  0.1095
  442W        W 4186   4.792   7.002   3.584  0.2421 -0.1875 -0.0277
  443W        W 4187   2.751   1.700   0.279  0.2271 -0.0240 -0.0953
  444W        W 4188   9.585   8.308   3.834 -0.0524 -0.2708  0.3511
  445W        W 4189   5.979   6.865   3.771 -0.0820  0.0749  0.1241
  446W        W 4190   9.652   8.286  12.278 -0.0495  0.1679 -0.0523
  447W        W 4191   5.998   4.219  11.382 -0.0336 -0.0189  0.2659
  448W        W 4192   2.425   0.756   3.557  0.0719 -0.0405 -0.0323
  449W        W 4193   5.391   8.527   9.977  0.3381 -0.1828 -0.0626
  450W        W 4194   4.252   8.039  10.379  0.1369 -0.2922 -0.0608
  451W        W 4195   7.912   6.826  11.860 -0.1031  0.0356  0.0079
  452W        W 4196   8.829   3.363  10.603  0.3996 -0.3304 -0.0220
  453W        W 4197   6.230   2.995   9.909 -0.1877 -0.2527 -0.1477
  454W        W 4198   0.843   2.632  10.042  0.1492 -0.3177  0.1121
  455W        W 4199   6.727   5.109  11.804 -0.0264  0.3576 -0.0059
  456W        W 4200   2.502   7.922   5.260  0.2222 -0.1141  0.0696
  457W        W 4201   7.969   9.275   2.826 -0.0555  0.2163  0.0500
  458W        W 4202   4.655   5.135   4.282 -0.2870 -0.2180 -0.1642
  459W        W 4203   5.938   9.432   9.194  0.2389 -0.0958 -0.2646
  460W        W 4204   3.032   4.852  12.510  0.3424  0.2755 -0.2375
  461W        W 4205   1.348   9.604   9.151 -0.5754  0.1394  0.2070
  462W        W 4206   7.715   6.732   9.282  0.1613  0.1081 -0.0684
  463W        W 4207   0.755   4.161   1.967 -0.0787 -0.0476  0.1062
  464W        W 4208   5.191   7.746   2.105 -0.1249 -0.1215 -0.2090
  465W        W 4209   2.311   8.397   8.947 -0.2788 -0.0991  0.1212
  466W        W 4210   2.571   9.399  12.446  0.1969 -0.0870 -0.1368
  467W        W 4211   0.597   0.958  11.463 -0.0600 -0.0054  0.2197
  468W        W 4212   8.900   3.556   1.550  0.1316 -0.2029  0.2005
  469W        W 4213   0.104   5.948   1.214 -0.4133  0.2271 -0.0438
  470W        W 4214   9.283   0.829   9.603  0.0660 -0.0337 -0.1525
  471W        W 4215   9.101   3.609  11.440 -0.1834 -0.0469 -0.1623
  472W        W 4216   8.609   6.513   0.306 -0.1017 -0.0667  0.2079
  473W        W 4217   2.449   0.817   2.586 -0.0839 -0.2793  0.2758
  474W        W 4218   7.002   2.100   9.130  0.0020  0.2620 -0.0748
  475W        W 4219   6.421   7.626  10.399  0.1900 -0.3276  0.2759
  476W        W 4220   9.384   7.516   4.010 -0.0709  0.5299  0.1147
  477W        W 4221   9.271   4.415   3.823 -0.2698 -0.0962  0.1863
  478W        W 4222   4.101   3.518  11.753  0.0610  0.0132 -0.1547
  479W        W 4223   0.871   7.458   0.519 -0.1047  0.0486 -0.0522
  480W        W 4224   5.804   9.754   3.713  0.1096 -0.0546  0.0929
  481W        W 4225   6.607   2.386  11.051  0.0846  0.2738  0.1647
  482W        W 4226   2.661   5.522  10.661 -0.2265 -0.2004  0.3221
  483W        W 4227   9.071   7.456   8.911  0.0959  0.2460 -0.1177
  484W        W 4228   3.966   2.488  11.076 -0.0743 -0.2885 -0.2382
  485W        W 4229   2.360   6.720   1.645 -0.0628 -0.0252 -0.2827
  486W        W 4230   6.528   7.915   2.154 -0.1387 -0.3988  0.1902
  487W        W 4231   3.576   0.163  10.826 -0.0365  0.1239  0.1146
  488W        W 4232   4.772   4.753  11.533 -0.0373  0.2578  0.3052
  489W        W 4233   4.997   4.102   0.628 -0.1425 -0.2046  0.0875
  490W        W 4234   0.142   8.643  12.082  0.0293 -0.0340 -0.4354
  491W        W 4235   5.624   0.465  10.561 -0.0305  0.1494 -0.1029
  492W        W 4236   4.035   5.454   1.814 -0.2234  0.0599 -0.2625
  493W        W 4237   8.287   7.018  12.587  0.1768 -0.0918 -0.1856
  494W        W 4238   6.634   4.662   4.361 -0.2346 -0.0559 -0.0709
  495W        W 4239   5.365   2.492  12.469  0.1372  0.1232 -0.1266
  496W        W 4240   8.527   1.098  10.461 -0.2050 -0.1738 -0.1332
  497W        W 4241   5.583   8.127  12.265  0.1825 -0.4205  0.0184
  498W        W 4242   6.425   2.982   4.003 -0.0381  0.2735  0.0431
  499W        W 4243   2.932   6.766   9.628 -0.0493  0.0564  0.0506
  500W        W 4244   5.888   9.494   2.099 -0.2121  0.1252  0.1555
  501W        W 4245   3.430   8.611   0.542 -0.0632  0.0764  0.0364
  502W        W 4246   3.591   6.826   8.963  0.3198 -0.2186  0.1734
  503W        W 4247   1.773   9.217   9.105 -0.4301 -0.1124 -0.1593
  504W        W 4248   6.639   3.586  11.679  0.2634  0.1095  0.1940
  505W        W 4249   1.436   8.238   0.984 -0.1865 -0.2334 -0.1092
  506W        W 4250   1.944   0.596   0.800 -0.0681 -0.0070 -0.1321
  507W        W 4251   2.158   6.327  11.129 -0.1471 -0.1580 -0.0089
  508W        W 4252   6.713   1.352  12.659  0.1721  0.1429 -0.1439
  509W        W 4253   0.331   2.166  10.899 -0.0122 -0.1617  0.0195
  510W        W 4254   7.007   3.681   3.444  0.2527  0.1041 -0.1353
  511W        W 4255   4.499   6.222  12.731  0.0693 -0.3964  0.0912
  512W        W 4256   2.515   4.915   8.877  0.2559 -0.0667 -0.2469
  513W        W 4257   3.188   4.176   3.421 -0.1124  0.3005  0.3143
  514W        W 4258   3.339   8.413   0.013  0.4293 -0.1626  0.0273
  515W        W 4259   4.786   8.419  11.635 -0.0678 -0.0463  0.3182
  516W        W 4260   4.106   4.024  11.702 -0.0380  0.1223  0.1884
  517W        W 4261   1.382   1.465   8.885 -0.1795  0.3433  0.0014
  518W        W 4262   8.217   0.523   2.943 -0.0227 -0.1889  0.0095
  519W        W 4263   6.966   7.431   9.297 -0.3135 -0.0805  0.4485
  520W        W 4264   4.151   5.161   2.799  0.0873  0.2272  0.3770
  521W        W 4265   6.078   3.964   1.780 -0.2487 -0.4068  0.0062
  522W        W 4266   1.359   8.646   2.557  0.1660 -0.0219  0.2146
  523W        W 4267   9.456   3.295   2.485 -0.3042 -0.0685  0.0732
  524W        W 4268   0.782   2.078  10.341 -0.2107  0.2215 -0.2156
  525W        W 4269   8.036   8.363  12.835 -0.1709  0.1166 -0.1023
  526W        W 4270   0.825   2.252   1.129 -0.2823 -0.4382 -0.0696
  527W        W 4271   3.631   4.986   2.737 -0.1297  0.2303 -0.2469
  528W        W 4272   6.559   0.937   0.735 -0.3889 -0.0212  0.1130
  529W        W 4273   5.535   8.128   3.607 -0.6158 -0.1520 -0.1992
  530W        W 4274   6.776   2.188   1.333 -0.2342 -0.0095 -0.0753
  531W        W 4275   0.612   9.556   9.738  0.3333  0.0825  0.3350
  532W        W 4276   3.483   3.853   3.671 -0.1141 -0.2259  0.2517
  533W        W 4277   8.042   7.715   1.012  0.0729 -0.1927  0.0750
  534W        W 4278   0.933   9.477   2.067 -0.0050 -0.0563  0.0850
  535W        W 4279   7.641   3.204   2.898  0.1421  0.1904 -0.2599
  536W        W 4280   0.976   0.120   0.708  0.1036  0.1155 -0.2079
  537W        W 4281   6.798   0.749  12.586  0.2291 -0.0918 -0.4081
  538W        W 4282   0.575   1.384   0.879  0.1855  0.0877  0.0572
  539W        W 4283   3.070   2.881   2.866 -0.3601 -0.2150 -0.2069
  540W        W 4284   6.831   7.990  10.374 -0.2101 -0.2664 -0.0481
  541W        W 4285   3.571   8.719  10.401 -0.3233  0.1292  0.3453
  542W        W 4286   3.563   2.234   3.527  0.3592  0.5631 -0.2629
  543W        W 4287   9.939   7.433   9.062 -0.1933 -0.0781  0.0849
  544W        W 4288   7.087   2.987  11.347 -0.0003  0.2029  0.3208
  545W        W 4289   2.782   7.358   9.923  0.0230  0.1343 -0.1287
  546W        W 4290   4.480   8.544  11.002  0.0823 -0.1046  0.3025
  547W        W 4291   6.765   0.215   4.333 -0.0710 -0.0420  0.0797
  548W        W 4292   5.726   4.018   1.254  0.2025  0.3606  0.0357
  549W        W 4293   4.752   5.469  12.132 -0.1101  0.0684 -0.1225
  550W        W 4294   2.627   8.949  12.714 -0.0445 -0.0455  0.0068
  551W        W 4295   9.792   8.365   9.481  0.0487  0.0864 -0.3113
  552W        W 4296   5.744   6.071  10.407  0.2519 -0.0232 -0.1657
  553W        W 4297   0.797   5.505  10.148 -0.0842 -0.1287  0.1209
  554W        W 4298   8.524   7.597  11.834  0.0648 -0.0328  0.2081
  555W        W 4299   7.517   3.073  11.731 -0.1826  0.0489  0.2739
  556W        W 4300   7.139   9.757  11.141 -0.2581 -0.0070 -0.0501
  557W        W 4301   8.743   9.335   0.674 -0.2709 -0.1623  0.1032
  558W        W 4302   6.790   4.835   0.667 -0.0953  0.0523 -0.0801
  559W        W 4303   3.904   5.188   0.849 -0.1218 -0.0708  0.1240
  560W        W 4304   6.796   4.782  12.163  0.0847 -0.2708 -0.0838
  561W        W 4305   4.302   0.723  11.414 -0.0258 -0.1529 -0.1744
  562W        W 4306   6.661   0.394  10.800 -0.0646 -0.1304  0.1226
  563W        W 4307   0.592   2.109   2.912  0.2285 -0.0415 -0.0401
  564W        W 4308   8.427   7.232   0.412 -0.0258 -0.2991  0.0947
  565W        W 4309   0.826   8.507   9.387  0.2028  0.1283  0.2024
  566W        W 4310   5.229   0.744   2.827 -0.1624 -0.1620 -0.0949
  567W        W 4311   0.262   5.973   0.158 -0.1126 -0.2782 -0.0394
  568W        W 4312   6.244   3.485   1.763  0.0946  0.1276 -0.2496
  569W        W 4313   8.578   3.656  11.618  0.1129  0.0754 -0.1531
  570W        W 4314   4.998   7.599  12.066 -0.0977 -0.0529  0.0130
  571W        W 4315   2.506   4.271   3.496 -0.2233 -0.4052  0.1584
  572W        W 4316   6.561   7.618  10.912 -0.2412  0.1119 -0.1276
  573W        W 4317   0.485   3.187   3.132 -0.1153 -0.1086  0.0178
  574W        W 4318   7.920   9.562   8.523  0.1028 -0.4147  0.2634
  575W        W 4319   4.446   0.989  11.866 -0.0915 -0.0889 -0.1260
  576W        W 4320   1.350   5.312  12.776 -0.0296 -0.3170 -0.1572
  577W        W 4321   3.553   9.722   1.783 -0.0572  0.2204 -0.1255
  578W        W 4322   8.916   1.647   2.615 -0.1948 -0.0859 -0.0686
  579W        W 4323   0.901   7.254   2.013 -0.0355 -0.0665 -0.1959
  580W        W 4324   6.834   9.536   0.229  0.1539  0.0070  0.0551
  581W        W 4325   7.886   2.179  10.808  0.0377  0.1171 -0.2605
  582W        W 4326   4.338   2.973  10.246 -0.3424 -0.2486 -0.1442
  583W        W 4327   5.301   6.157  11.738 -0.2080 -0.0721  0.0324
  584W        W 4328   1.265   5.436   5.146 -0.1389 -0.1456  0.2143
  585W        W 4329   9.862   7.673   2.043 -0.0810  0.0722  0.0269
  586W        W 4330   9.140   7.032  11.181 -0.1192 -0.3597 -0.0728
  587W        W 4331   8.786   1.821   0.780 -0.2271 -0.1165  0.1896
  588W        W 4332   2.995   4.967  10.685  0.0693 -0.1841 -0.0317
  589W        W 4333   2.519   9.164   3.344  0.0697  0.2065 -0.0896
  590W        W 4334   0.876   2.681   1.924 -0.1458  0.0823  0.2954
  591W        W 4335   8.672   8.747  11.511  0.2425  0.1290 -0.3692
  592W        W 4336   8.653   3.154   1.554 -0.2623  0.0767 -0.1518
  593W        W 4337   0.129   7.165   8.437  0.0108  0.1775 -0.1167
  594W        W 4338   5.039   1.219   2.736 -0.0890  0.3952  0.0435
  595W        W 4339   8.107   8.137   1.274 -0.0150  0.0186  0.4612
  596W        W 4340   4.349   8.606   2.158 -0.1545  0.0452 -0.1163
  597W        W 4341   1.505   5.534   2.794  0.2778  0.2497 -0.0663
  598W        W 4342   5.488   6.932   4.374 -0.1198  0.2511 -0.0420
  599W        W 4343   9.623   3.425   0.915 -0.0686 -0.2325  0.4873
  600W        W 4344   4.125   0.514  11.972  0.0001  0.1922  0.1845
  601W        W 4345   1.151   5.952  12.097 -0.1587  0.0860  0.0997
  602W        W 4346   4.348   3.414   9.419  0.1725  0.0414 -0.1215
  603W        W 4347   5.668   3.565  12.120  0.0476  0.0716 -0.1255
  604W        W 4348   3.571   1.835  10.857  0.2090 -0.0222  0.0338
  605W        W 4349   2.537   1.007  12.059  0.0691  0.0985  0.0425
  606W        W 4350   3.433   3.666   0.235  0.1791 -0.1253 -0.1140
  607W        W 4351   4.220   2.389  12.032 -0.0839  0.0247 -0.0678
  608W        W 4352   7.591   8.487   0.407 -0.0765 -0.1400  0.1861
  609W        W 4353   3.263   4.184   9.619 -0.3425 -0.3328 -0.0195
  610W        W 4354   0.821   7.163   3.456 -0.3343  0.1159  0.0591
  611W        W 4355   7.767   5.929  12.748  0.4083  0.0454 -0.0605
  612W        W 4356   3.262   3.382   9.983 -0.0252  0.1085  0.0476
  613W        W 4357   6.137   7.090   2.822  0.3902  0.3107  0.1644
  614W        W 4358   8.035   8.336  11.224 -0.2011 -0.3151 -0.2408
  615W        W 4359   8.280   4.788   1.883 -0.0569  0.2537  0.2252
  616W        W 4360   4.245   5.107   9.162  0.0659  0.0130  0.4787
  617W        W 4361   7.275   8.888  11.641  0.0456 -0.1215 -0.0214
  618W        W 4362   5.030   3.495  11.529  0.0766  0.2417 -0.3454
  619W        W 4363   4.643   8.767   9.671  0.1450  0.3766 -0.0581
  620W        W 4364   3.902   7.714  10.757 -0.1559 -0.2581 -0.0497
  621W        W 4365   4.556   3.519   1.774 -0.1994 -0.0619 -0.2007
  622W        W 4366   5.443   8.969  11.217  0.0555  0.1773  0.4035
  623W        W 4367   0.134   6.172  12.508 -0.1977  0.3250 -0.0575
  624W        W 4368   0.210   7.437  12.775  0.0556  0.1431 -0.3958
  625W        W 4369   1.903   9.382  10.372  0.0384  0.2115 -0.0136
  626W        W 4370   5.159   5.716   1.082  0.4351  0.1986 -0.0105
  627W        W 4371   7.779   2.817   8.691 -0.0805 -0.1717 -0.2101
  628W        W 4372   6.473   7.297  11.282 -0.2218 -0.1312 -0.0059
  629W        W 4373   1.369   4.467  11.429 -0.0695  0.1271 -0.0330
  630W        W 4374   2.066   5.589  11.582  0.1116 -0.0341  0.1015
  631W        W 4375   9.435   0.404   9.257 -0.0592  0.1325 -0.2861
  632W        W 4376   6.400   6.297   1.469  0.1547 -0.4044 -0.1497
  633W        W 4377   9.727   3.305  11.878  0.5128  0.3141  0.1699
  634W        W 4378   9.306   4.975   9.801 -0.0282 -0.4612 -0.0337
  635W        W 4379   4.909   0.814   9.064 -0.2818 -0.1066  0.2307
  636W        W 4380   7.668   9.332   0.614  0.0290  0.3675 -0.0883
  637W        W 4381   5.957   6.124   3.379 -0.0762 -0.5586 -0.1670
  638W        W 4382   7.247   3.476   9.405 -0.1067 -0.0578 -0.2950
  639W        W 4383   4.844   9.762   3.475 -0.0048 -0.0038 -0.0199
  640W        W 4384   9.265   3.631  10.679 -0.0690  0.1543  0.0113
  641W        W 4385   4.909   9.263   2.012  0.1604 -0.3042 -0.1710
  642W        W 4386   1.150   6.670  10.169 -0.0789 -0.2012  0.1350
  643W        W 4387   0.621   6.453  11.428  0.3419 -0.3352 -0.1295
  644W        W 4388   2.594   4.333   0.448  0.3506  0.2236 -0.4617
  645W        W 4389   6.613   4.187   9.587 -0.1580 -0.1848  0.0434
  646W        W 4390   8.885   7.495   0.280 -0.2870 -0.1354  0.0554
  647W        W 4391   1.740   6.374   4.556  0.0624 -0.2478 -0.0585
  648W        W 4392   6.794   8.048   0.798  0.2207 -0.0824 -0.0524
  649W        W 4393   7.082   3.334  11.693 -0.1174 -0.2486  0.0051
  650W        W 4394   2.466   5.915   4.743  0.1063 -0.0893 -0.0669
  651W        W 4395   4.088   7.964  12.251  0.1960  0.3161  0.0917
  652W        W 4396   0.377   5.324  10.577  0.0689  0.2501 -0.0307
  653W        W 4397   5.544   7.734   2.761 -0.1660  0.0036  0.0447
  654W        W 4398   3.939   0.923   0.174 -0.0726  0.1472 -0.2085
  655W        W 4399   3.470   4.768  12.235  0.0799 -0.3090 -0.0670
  656W        W 4400   8.303   3.774   9.563  0.0437 -0.2038  0.2457
  657W        W 4401   3.683   1.459   2.820  0.0304 -0.2656 -0.3549
  658W        W 4402   5.914   2.226   3.933  0.1384  0.0298 -0.1267
  659W        W 4403   0.832   3.571   0.190  0.0279  0.3619  0.3290
  660W        W 4404   0.962   8.599   4.691  0.1477 -0.1276  0.2569
  661W        W 4405   1.109   0.219  11.878  0.1259  0.2793  0.1029
  662W        W 4406   8.512   6.462  10.640 -0.0227  0.2408  0.0489
  663W        W 4407   1.336   2.465   1.848 -0.2538  0.1247 -0.1430
  664W        W 4408   6.284   8.194  10.219  0.0533  0.0859 -0.0676
  665W        W 4409   7.649   4.925   0.624 -0.1439  0.0194  0.1851
  666W        W 4410   4.481   7.391   3.396 -0.1390  0.2429  0.1422
  667W        W 4411   3.672   8.171  11.562  0.4283 -0.0777  0.0454
  668W        W 4412   8.097   9.499   0.475 -0.1809  0.0246  0.0082
  669W        W 4413   3.380   0.885   3.585  0.0046 -0.3212 -0.0244
  670W        W 4414   0.939   6.083   1.167  0.2600  0.2125  0.1643
  671W        W 4415   3.880   7.677   4.911 -0.2278  0.1116  0.0869
  672W        W 4416   0.268   9.873   3.067  0.0470  0.1060  0.0533
  673W        W 4417   2.891   2.261  10.840 -0.3607  0.1687  0.0652
  674W        W 4418   2.002   4.718   9.475 -0.1879 -0.1711  0.3458
  675W        W 4419   8.330   6.941  10.723  0.2241  0.2180 -0.2854
  676W        W 4420   6.772   7.238  10.563 -0.1589  0.0022  0.0126
  677W        W 4421   0.906   6.416   1.581 -0.0720 -0.0409  0.1361
  678W        W 4422   1.962   2.527  10.767 -0.3768  0.0757 -0.1337
  679W        W 4423   4.893   8.658   0.174 -0.0877  0.1109  0.0489
  680W        W 4424   3.775   8.582   9.582 -0.1520  0.3062  0.0191
  681W        W 4425   3.856   1.862   0.556 -0.0904  0.0946 -0.2994
  682W        W 4426   7.932   1.507   1.922  0.1025  0.2470  0.1896
  683W        W 4427   6.576   6.936   2.345  0.3499  0.2773  0.1928
  684W        W 4428   1.246   8.313   1.398  0.0651  0.0396 -0.1213
  685W        W 4429   6.740   2.392   8.164 -0.0264 -0.1172 -0.0622
  686W        W 4430   3.046   1.795  10.013 -0.2542 -0.1708  0.2710
  687W        W 4431   3.767   0.200  11.724  0.5396  0.1224  0.0801
  688W        W 4432   1.914   7.748   9.800  0.2575 -0.0842 -0.0843
  689W        W 4433   4.641   0.529  11.856 -0.1034 -0.5424  0.0383
  690W        W 4434   8.565   6.824  11.166  0.1431  0.0553  0.1308
  691W        W 4435   8.236   4.276  12.217 -0.0648 -0.2055 -0.0881
  692W        W 4436   0.595   2.298  12.043 -0.1967  0.0143  0.0283
  693W        W 4437   6.368   8.816   3.002 -0.1526 -0.1823 -0.5314
  694W        W 4438   2.042   6.097   9.589  0.0424  0.2656 -0.1310
  695W        W 4439   5.510   9.320   8.882 -0.0877 -0.0539 -0.1562
  696W        W 4440   5.465   2.369   4.055 -0.0415 -0.0055 -0.1426
  697W        W 4441   2.729   8.158  11.713  0.2332  0.1987  0.0434
  698W        W 4442   3.945   4.762   2.073 -0.2590 -0.2071  0.1078
  699W        W 4443   8.761   0.259  11.762  0.3945  0.5247  0.1390
  700W        W 4444   4.208   9.795   2.748  0.0061  0.0016 -0.0200
  701W        W 4445   3.045   7.397   2.726 -0.1700  0.0186 -0.0006
  702W        W 4446   7.630   8.149   9.693  0.2545  0.1742  0.0081
  703W        W 4447   0.416   9.051   2.784 -0.0672  0.1096  0.1962
  704W        W 4448   0.876   2.579  12.818 -0.0747  0.1830  0.0387
  705W        W 4449   7.275   5.812  11.654 -0.1025 -0.0582  0.1147
  706W        W 4450   6.613   5.610   2.143  0.1400 -0.3582  0.1661
  707W        W 4451   8.316   9.389  10.200  0.1867 -0.0417  0.0626
  708W        W 4452   7.182   6.459   4.135 -0.2147 -0.2527 -0.0299
  709W        W 4453   7.827   4.965  12.532 -0.2030  0.1508  0.0530
  710W        W 4454   9.849   7.416   4.257 -0.0032  0.0282  0.1375
  711W        W 4455   4.684   6.547   3.275  0.5026 -0.0766 -0.1049
  712W        W 4456   7.992   1.147   2.322  0.1866  0.0516 -0.0040
  713W        W 4457   1.487   8.658   1.585 -0.2314  0.0447  0.0472
  714W        W 4458   7.265   6.510   9.341 -0.1012 -0.1271 -0.2248
  715W        W 4459   1.270   3.631   0.517 -0.0074  0.1784  0.1097
  716W        W 4460   2.771   0.622   2.001  0.1830  0.0512 -0.1567
  717W        W 4461   4.225   8.010  12.760 -0.1807 -0.0878  0.1253
  718W        W 4462   5.593   4.962   1.578  0.2104  0.1826 -0.1792
  719W        W 4463   6.543   9.875  11.245  0.1356 -0.1707  0.0591
  720W        W 4464   5.324   9.819   1.624  0.0708 -0.0982 -0.0208
  721W        W 4465   5.569   5.300   1.961 -0.3069 -0.0529  0.1378
  722W        W 4466   3.235   9.771   0.106  0.2232 -0.1340  0.0873
  723W        W 4467   3.421   3.397   2.085  0.0427 -0.0075  0.0149
  724W        W 4468   1.116   5.123   3.934  0.0895 -0.0455  0.0962
  725W        W 4469   4.772   4.260   4.350 -0.1145  0.4071 -0.1301
  726W        W 4470   4.010   0.386   4.196 -0.1529  0.1461 -0.1105
  727W        W 4471   4.555   6.684   1.886  0.0425 -0.1093 -0.0131
  728W        W 4472   4.940   6.988   9.400 -0.2748 -0.2639  0.1457
  729W        W 4473   3.549   8.104   8.992  0.0396 -0.1487 -0.2023
  730W        W 4474   6.335   5.109   0.766  0.1812 -0.0430  0.1521
  731W        W 4475   1.072   6.590   8.105  0.0509  0.1885  0.3514
  732W        W 4476   0.998   1.944  12.469  0.2685  0.1896  0.1274
  733W        W 4477   7.372   2.567  10.457  0.4008 -0.1555 -0.1919
  734W        W 4478   8.169   0.385   9.913  0.1291 -0.4430 -0.2167
  735W        W 4479   9.352   4.599   0.854  0.1454  0.3647 -0.0857
  736W        W 4480   4.204   9.311   9.810 -0.2813 -0.1095  0.0041
  737W        W 4481   4.656   0.545  10.352  0.0717  0.0295 -0.2301
  738W        W 4482   4.750   1.403   3.225  0.1654  0.0720 -0.0755
  739W        W 4483   6.787   9.363   3.809  0.2321 -0.1932  0.0960
  740W        W 4484   8.837   3.634   3.418 -0.0127 -0.0690  0.2369
  741W        W 4485   3.495   8.722  11.755  0.3959  0.1368 -0.3681
  742W        W 4486   9.378   7.722   0.177 -0.0206 -0.1190 -0.1325
  743W        W 4487   1.207   2.675   2.795  0.1511  0.1169  0.1263
  744W        W 4488   5.025   1.719  12.732  0.1278 -0.1704  0.3383
  745W        W 4489   7.734   5.460   2.000  0.2584 -0.0862 -0.1199
  746W        W 4490   7.596   9.541   1.510  0.4475 -0.2146 -0.1846
  747W        W 4491   4.762   9.562   4.862  0.4028  0.1664 -0.2061
  748W        W 4492   2.648   9.251   1.850  0.0951  0.1075 -0.1583
  749W        W 4493   6.202   0.692   3.051 -0.3925  0.0081 -0.0143
  750W        W 4494   3.954   8.337  10.040  0.0547  0.0305 -0.2011
  751W        W 4495   5.858   1.064   1.506 -0.1779 -0.1619  0.0792
  752W        W 4496   5.239   7.829   3.121 -0.0584  0.2832 -0.1675
  753W        W 4497   4.248   4.023   4.244 -0.0981  0.0049 -0.1921
  754W        W 4498   7.569   9.719   8.219  0.4000  0.2679 -0.2432
  755W        W 4499   1.039   7.548  11.691 -0.0873 -0.2959  0.0330
  756W        W 4500   8.514   5.346  10.267 -0.0364 -0.0433 -0.0413
  757W        W 4501   7.795   5.539  12.446 -0.0764 -0.2256 -0.1788
  758W        W 4502   1.374   2.639  11.997  0.0102  0.0072  0.0618
  759W        W 4503   9.651   3.391  11.394 -0.0560  0.4598  0.0896
  760W        W 4504   5.807   6.555   9.324  0.0154  0.2969  0.2357
  761W        W 4505   3.025   5.184   0.670 -0.2427 -0.2517  0.1678
  762W        W 4506   0.833   1.475  11.500 -0.0457 -0.0653  0.1030
  763W        W 4507   2.422   7.833  10.561  0.0504  0.2956  0.1135
  764W        W 4508   8.278   1.151  11.720  0.0469 -0.1493 -0.0344
  765W        W 4509   2.662   5.442   0.912 -0.0051 -0.1871 -0.1014
  766W        W 4510   8.653   6.748   3.909 -0.0656  0.0700  0.0405
  767W        W 4511   4.327   3.129   1.569  0.1450 -0.2183  0.1414
  768W        W 4512   8.600   3.210   3.092  0.1478 -0.2021 -0.0541
  769W        W 4513   9.033   4.847   3.711  0.0436  0.0451 -0.1525
  770W        W 4514   1.189   2.502   1.379 -0.0707  0.0992  0.0392
  771W        W 4515   4.341   3.988   1.940  0.1565  0.0469 -0.2644
  772W        W 4516   9.289   6.119  11.597 -0.0396  0.0696 -0.0809
  773W        W 4517   7.908   4.603   2.183  0.0513  0.1569 -0.2916
  774W        W 4518   4.157   3.245  12.276  0.0286 -0.2199 -0.2086
  775W        W 4519   7.399   5.028  10.866 -0.1285  0.0573  0.0529
  776W        W 4520   2.280   1.853   0.608  0.4478 -0.1348 -0.2342
  777W        W 4521   1.302   4.212   9.076  0.1026  0.0353 -0.2493
  778W        W 4522   0.729   7.445   2.472 -0.1838 -0.2952  0.1413
  779W        W 4523   1.050   9.047   0.375 -0.2221 -0.0450  0.1582
  780W        W 4524   4.284   6.198   3.336  0.5025  0.1050 -0.1144
  781W        W 4525   1.359   3.986  11.771  0.0537 -0.1826 -0.1693
  782W        W 4526   0.589   6.500   1.121  0.2207 -0.1478  0.1219
  783W        W 4527   1.159   1.041  12.625  0.2373  0.0042  0.1062
  784W        W 4528   9.110   5.796   9.119 -0.0194 -0.1558  0.0345
  785W        W 4529   0.978   5.446   9.016 -0.4068  0.1966 -0.1523
  786W        W 4530   8.173   5.714   3.438  0.0403  0.0686  0.4269
  787W        W 4531   8.887   7.500  12.568  0.2337 -0.1968  0.3190
  788W        W 4532   5.759   8.086   9.480  0.1468  0.1323 -0.0942
  789W        W 4533   7.585   1.852   2.123 -0.1266  0.1930  0.1315
  790W        W 4534   8.103   1.114  10.785 -0.0815  0.1194  0.0508
  791W        W 4535   2.309   1.537   3.092 -0.1051 -0.1353 -0.1227
  792W        W 4536   6.169   3.784  10.506 -0.0150  0.0240 -0.1279
  793W        W 4537   3.980   3.085   3.279  0.1482 -0.1979 -0.1762
  794W        W 4538   2.969   0.154   0.359  0.2101  0.0987 -0.0592
  795W        W 4539   5.318   4.497  10.246 -0.1761  0.0115  0.0245
  796W        W 4540   1.785   4.240  11.626  0.2070 -0.2577  0.1614
  797W        W 4541   6.428   1.435  12.206  0.3770  0.2523 -0.0835
  798W        W 4542   6.339   2.512  10.570 -0.0225  0.0622  0.0203
  799W        W 4543   6.397   3.661   3.557 -0.0792  0.2237  0.0235
  800W        W 4544   5.422   1.627   7.759 -0.1549  0.0595 -0.0772
  801W        W 4545   4.210   8.131  10.915 -0.0103  0.1707  0.1537
  802W        W 4546   2.772   4.339   9.794  0.3554  0.0527 -0.2167
  803W        W 4547   3.843   5.755   0.446 -0.1461  0.2678  0.0173
  804W        W 4548   2.101   8.730  10.326 -0.0982  0.4695 -0.2872
  805W        W 4549   3.707   7.219  12.774 -0.1178  0.1638 -0.1015
  806W        W 4550   6.215   3.883  10.987  0.1993  0.0133  0.1315
  807W        W 4551   8.911   5.603   3.985  0.2949  0.0248  0.1106
  808W        W 4552   3.419   6.373   8.943 -0.0213 -0.2135 -0.0403
  809W        W 4553   8.702   9.195   3.355 -0.0277  0.0163 -0.2103
  810W        W 4554   2.458   4.026   0.849 -0.0323  0.3220 -0.2327
  811W        W 4555   9.293   6.021  10.270 -0.2918  0.0173 -0.0681
  812W        W 4556   4.941   2.205  12.524  0.3134 -0.1091 -0.0332
  813W        W 4557   4.655   6.391   2.314  0.1827  0.0679  0.1129
  814W        W 4558   0.623   3.855   2.375  0.1761 -0.1034 -0.4256
  815W        W 4559   6.922   5.374  10.164 -0.0064  0.0553  0.0998
  816W        W 4560   8.130   8.708   3.569  0.2334  0.0379  0.2927
  817W        W 4561   2.579   4.577   9.304 -0.1575 -0.2410  0.0860
  818W        W 4562   1.835   4.437   0.823 -0.0521 -0.1951  0.1171
  819W        W 4563   3.609   8.768   2.360 -0.3445 -0.1053 -0.0091
  820W        W 4564   2.925   8.653   9.434  0.0145  0.1705 -0.2478
  821W        W 4565   6.668   5.051   3.988  0.0143  0.0917  0.2698
  822W        W 4566   1.126   4.021   3.834  0.1810  0.0879 -0.0972
  823W        W 4567   7.863   9.699   9.461 -0.1435  0.0889  0.3020
  824W        W 4568   6.546   3.452   3.162 -0.0855 -0.1101  0.1169
  825W        W 4569   9.450   5.255  10.758 -0.0364  0.1862 -0.1747
  826W        W 4570   4.653   5.500   8.824  0.3200  0.4139 -0.0941
  827W        W 4571   3.158   0.954   2.703  0.3201 -0.1258 -0.3283
  828W        W 4572   3.609   5.361  11.778 -0.2184 -0.0641 -0.0130
  829W        W 4573   9.516   5.612   2.090  0.0880  0.0592 -0.1011
  830W        W 4574   0.196   2.622  11.044  0.3868 -0.1187 -0.1138
  831W        W 4575   0.093   4.042   0.342 -0.0919  0.0052  0.0304
  832W        W 4576   8.868   7.240   3.868  0.1153  0.1629  0.0654
  833W        W 4577   4.296   5.930  11.569 -0.2230 -0.2799  0.0667
  834W        W 4578   6.657   6.982  12.809  0.0367 -0.0560  0.3079
  835W        W 4579   0.149   9.271   9.634 -0.2215  0.1971 -0.0160
  836W        W 4580   0.833   1.883   9.662  0.0750 -0.0728  0.0353
  837W        W 4581   6.460   6.838  11.486  0.1383  0.0809  0.4122
  838W        W 4582   8.149   1.409  11.269  0.0641  0.3818 -0.0579
  839W        W 4583   8.692   7.707  11.350 -0.2107 -0.1851  0.1058
  840W        W 4584   4.790   4.884  11.042  0.0060 -0.1153  0.2803
  841W        W 4585   5.885   3.941   0.426 -0.1158  0.0500  0.1339
  842W        W 4586   9.076   5.531  10.498 -0.1282  0.1784  0.1086
  843W        W 4587   6.312   5.565   0.983  0.4382 -0.3855  0.0841
  844W        W 4588   3.034   0.098   1.538 -0.3086  0.0072 -0.0873
  845W        W 4589   2.337   2.848   0.341  0.0519 -0.2566 -0.1810
  846W        W 4590   6.915   6.336  10.101 -0.1468 -0.2648 -0.1213
  847W        W 4591   2.698   6.303   2.542 -0.0542  0.0850  0.1748
  848W        W 4592   0.655   3.124   1.065  0.0676  0.2056 -0.0942
  849W        W 4593   5.570   3.228   3.028 -0.2058 -0.1658 -0.1178
  850W        W 4594   3.243   3.417  12.668  0.0559  0.1852  0.2107
  851W        W 4595   9.610   1.766   2.924  0.1429  0.0014  0.1717
  852W        W 4596   6.144   2.085   2.944 -0.4472  0.0629  0.3368
  853W        W 4597   4.776   5.927   4.044  0.1259 -0.2852  0.0301
  854W        W 4598   9.135   0.555   0.412  0.4913 -0.2643  0.3276
  855W        W 4599   2.362   2.594  10.115 -0.0452  0.1884  0.0482
  856W        W 4600   9.399   2.787   0.377  0.2492 -0.0309 -0.0443
  857W        W 4601   9.729   1.070   3.794  0.2274 -0.0839 -0.1149
  858W        W 4602   6.120   2.098   4.484  0.2334 -0.0922  0.1722
  859W        W 4603   1.437   3.025   1.983  0.2888  0.2036  0.1023
  860W        W 4604   4.225   5.812  12.788 -0.0656 -0.0611  0.0203
  861W        W 4605   6.635   2.204   1.854 -0.3037  0.1200  0.2607
  862W        W 4606   5.779   3.640   1.587  0.0266 -0.3502 -0.0354
  863W        W 4607   2.066   2.334  11.354 -0.4724 -0.1726  0.2096
  864W        W 4608   5.663   3.051   1.024  0.2556 -0.2008 -0.1282
  865W        W 4609   3.527   1.705   9.840  0.0652 -0.3215 -0.3636
  866W        W 4610   2.442   9.043  12.065  0.2782 -0.3021 -0.0345
  867W        W 4611   2.806   4.417   4.187  0.0726 -0.2075 -0.3570
  868W        W 4612   4.001   4.819  10.788  0.0986 -0.1853 -0.3091
  869W        W 4613   3.655   2.752  10.678 -0.0922  0.1926 -0.0743
  870W        W 4614   4.595   8.292   9.962 -0.1497 -0.0941 -0.0864
  871W        W 4615   6.287   6.530   3.564  0.0107  0.2009 -0.0880
  872W        W 4616   4.966   5.885   7.981  0.0290  0.1690  0.1170
  873W        W 4617   6.669   8.207  11.018 -0.0435  0.1668 -0.0037
  874W        W 4618   6.568   5.553   9.274  0.2100  0.1312 -0.2086
  875W        W 4619   6.322   6.593  12.743  0.0314 -0.4674  0.1634
  876W        W 4620   1.351   9.555  12.477 -0.1011  0.0865  0.1974
  877W        W 4621   1.050   2.997  11.819 -0.1666 -0.0346  0.0280
  878W        W 4622   5.830   1.953  10.581 -0.1370  0.2844  0.0170
  879W        W 4623   0.519   6.500   2.427 -0.3781 -0.4631  0.0666
  880W        W 4624   2.958   4.757  11.965  0.0595 -0.1259 -0.0868
  881W        W 4625   5.924   4.299  10.848 -0.2411 -0.3993  0.0515
  882W        W 4626   4.482   6.673  12.324 -0.0847 -0.1279  0.0884
  883W        W 4627   6.491   9.930  10.468  0.0104 -0.1834 -0.0266
  884W        W 4628   5.530   2.917   3.526 -0.1600  0.1475 -0.0568
  885W        W 4629   4.488   3.910   9.942  0.1792  0.0579  0.0507
  886W        W 4630   3.494   8.097   4.723  0.0875  0.1037  0.0051
  887W        W 4631   3.585   4.476   3.669 -0.0219  0.1422  0.1243
  888W        W 4632   8.313   4.459  12.696  0.0407  0.0619  0.0447
  889W        W 4633   5.857   4.224   2.898  0.1140  0.3481  0.0591
  890W        W 4634   2.886   3.674  11.872 -0.0129 -0.2781 -0.2635
  891W        W 4635   7.034   0.008   2.560  0.3141 -0.4290  0.2190
  892W        W 4636   3.903   6.212  10.141 -0.3450 -0.4021 -0.1174
  893W        W 4637   2.077   4.541  12.217 -0.1436 -0.0399  0.0764
  894W        W 4638   8.701   3.844  10.622  0.2562 -0.0432 -0.2839
  895W        W 4639   7.630   8.882   1.456  0.2457 -0.0428  0.0043
  896W        W 4640   5.747   2.417   3.018 -0.0262 -0.0778 -0.2582
  897W        W 4641   7.053   0.981   3.279  0.1113 -0.4824  0.0578
  898W        W 4642   0.302   5.383   3.637 -0.0190 -0.0699  0.3429
  899W        W 4643   0.894   4.814   0.939  0.1908  0.2030  0.0175
  900W        W 4644   9.363   8.338   1.929  0.0850 -0.3357 -0.1362
  901W        W 4645   1.681   9.352   0.957 -0.1322 -0.1313 -0.1973
  902W        W 4646   2.689   4.270   2.190  0.1736 -0.1676  0.0503
  903W        W 4647   0.066   8.949  12.440 -0.1650  0.0920  0.1104
  904W        W 4648   2.210   0.639   0.319  0.0084  0.3774 -0.1515
  905W        W 4649   6.606   0.158   1.258  0.4809  0.0240 -0.0618
  906W        W 4650   3.713   7.172   9.281 -0.0175 -0.2048  0.0467
  907W        W 4651   2.839   7.549   8.263 -0.1977  0.1352 -0.1558
  908W        W 4652   1.798   2.048  10.642 -0.1484  0.2778 -0.4124
  909W        W 4653   7.194   9.906   0.346  0.0879  0.0219  0.3429
  910W        W 4654   7.310   4.106   3.155 -0.1204 -0.1364 -0.3433
  911W        W 4655   8.148   3.156  12.411 -0.1181 -0.3740  0.1989
  912W        W 4656   7.738   8.469   2.676  0.1487 -0.2459 -0.0712
  913W        W 4657   8.420   5.034   3.622 -0.1249  0.0945 -0.1060
  914W        W 4658   1.338   7.491   1.894 -0.2723  0.1387  0.1407
  915W        W 4659   7.387   3.530   0.183  0.2845 -0.2030 -0.0844
  916W        W 4660   0.616   9.119   1.826 -0.2220  0.2035  0.2622
  917W        W 4661   7.790   6.483   0.541  0.2041  0.0190 -0.0641
  918W        W 4662   2.280   1.467   9.421 -0.0249 -0.1607 -0.1466
  919W        W 4663   6.149   4.706   4.343 -0.0093  0.2546 -0.1278
  920W        W 4664   4.684   1.317  10.088  0.0125  0.1769 -0.0890
  921W        W 4665   7.597   0.223   2.363 -0.3480 -0.0484 -0.0088
  922W        W 4666   1.296   7.463  12.379  0.2302 -0.1143 -0.3757
  923W        W 4667   5.935   4.368   9.067 -0.1720  0.0369 -0.1532
  924W        W 4668   9.213   3.679   1.208 -0.2887 -0.1318 -0.0718
  925W        W 4669   5.213   9.018   2.844 -0.2038 -0.1498 -0.1546
  926W        W 4670   5.833   5.106   9.843 -0.0118  0.1213  0.0640
  927W        W 4671   2.558   3.849   0.332 -0.1803  0.1612  0.3296
  928W        W 4672   1.424   2.385   9.280  0.1443 -0.1124 -0.1622
  929W        W 4673   1.737   9.670  11.210 -0.2524  0.2588 -0.3935
  930W        W 4674   5.103   6.728  12.179 -0.3464 -0.0091  0.2486
  931W        W 4675   2.333   1.331   2.107 -0.0774 -0.1822 -0.0264
  932W        W 4676   6.423   0.841  10.825  0.0289 -0.1413  0.0854
  933W        W 4677   1.604   5.862   3.350  0.0028 -0.3179  0.0927
  934W        W 4678   2.844   9.610   4.053 -0.0355  0.2439  0.1226
  935W        W 4679   0.934   3.654  10.122  0.2561 -0.0054  0.2027
  936W        W 4680   8.422   1.575   1.082 -0.1524  0.0156  0.1139
  937W        W 4681   8.538   5.273   3.148 -0.0121  0.2276 -0.3538
  938W        W 4682   7.796   2.815  12.439  0.0410 -0.0462 -0.0863
  939W        W 4683   6.988   8.738  10.757 -0.0220 -0.0303 -0.3964
  940W        W 4684   7.442   4.423   2.377  0.4037  0.0344  0.3486
  941W        W 4685   1.773   9.324  12.721  0.3807 -0.1599  0.1238
  942W        W 4686   0.884   7.541   1.615  0.2806  0.1692 -0.0961
  943W        W 4687   1.525   6.342   9.597  0.0691  0.1988  0.0878
  944W        W 4688   2.172   9.105  12.543  0.4749  0.0142  0.2216
  945W        W 4689   1.516   1.415   0.647  0.0181 -0.1514  0.0953
  946W        W 4690   4.971   7.650   1.075 -0.1916 -0.2251 -0.0082
  947W        W 4691   3.572   8.925   3.215  0.0417  0.1087 -0.2838
  948W        W 4692   6.600   8.120  12.810 -0.0171 -0.4792  0.0016
  949W        W 4693   2.793   6.268   3.952 -0.0425  0.0543 -0.0329
  950W        W 4694   5.458   1.408   1.444  0.0659  0.2164  0.0509
  951W        W 4695   1.349   4.972   2.113 -0.1226  0.2015 -0.1110
  952W        W 4696   1.274   0.930  10.073 -0.0303 -0.0556  0.0306
  953W        W 4697   2.847   3.384  12.380  0.1645 -0.0840 -0.1035
  954W        W 4698   2.083   5.654   9.847  0.0046  0.0064  0.1062
  955W        W 4699   1.876   6.832   1.307  0.1089 -0.1540 -0.1115
  956W        W 4700   9.272   5.270   3.960  0.1499  0.5688 -0.0910
  957W        W 4701   6.328   2.189  12.364  0.4089 -0.0397  0.1103
  958W        W 4702   7.344   2.097   1.444 -0.2655 -0.0905 -0.0795
  959W        W 4703   1.244   8.734  10.710 -0.0850 -0.3932 -0.0856
  960W        W 4704   1.800   1.023  10.076  0.0327 -0.0698  0.0177
  961W        W 4705   5.498   8.448   1.197  0.1024 -0.1505 -0.0575
  962W        W 4706   5.339   0.637   1.994 -0.0098 -0.3710  0.1852
  963W        W 4707   8.685   1.986   1.817 -0.2033 -0.0027  0.3263
  964W        W 4708   0.561   8.624   1.956  0.3454 -0.0586  0.1520
  965W        W 4709   5.101   1.440  11.792 -0.2045  0.2356  0.0342
  966W        W 4710   2.645   7.823   2.875 -0.3445 -0.2306  0.0367
  967W        W 4711   9.470   0.244   3.744  0.0593  0.0875  0.2159
  968W        W 4712   8.816   1.605   1.621  0.0426  0.1253 -0.0652
  969W        W 4713   4.310   7.048   3.703  0.1257  0.1071  0.0297
  970W        W 4714   4.558   9.656   1.930  0.0222  0.3278  0.1839
  971W        W 4715   4.537   6.405  11.382 -0.2988 -0.0132 -0.1328
  972W        W 4716   1.453   7.882  12.692 -0.1762  0.0245 -0.0735
  973W        W 4717   5.058   5.616   2.011 -0.0159 -0.2038  0.1591
  974W        W 4718   1.768   4.967   1.926 -0.1014 -0.1913  0.2015
  975W        W 4719   2.878   0.030  11.661  0.2869 -0.0754  0.0862
  976W        W 4720   2.059   6.196   0.090  0.0737 -0.0833  0.1183
  977W        W 4721   1.574   6.069   0.987  0.1693  0.5651 -0.1486
  978W        W 4722   8.079   3.673   2.012 -0.2447 -0.1233 -0.1553
  979W        W 4723   0.269   6.296   8.934 -0.0750  0.3157  0.0013
  980W        W 4724   9.562   1.409   0.604  0.0716  0.3321 -0.3416
  981W        W 4725   1.545   0.025  12.219  0.0755 -0.3879 -0.1319
  982W        W 4726   9.408   6.394  12.559 -0.2828  0.1670 -0.0123
  983W        W 4727   7.421   9.652  10.776 -0.0666  0.0836  0.0106
  984W        W 4728   9.768   2.878  11.340  0.2357 -0.0540  0.1243
  985W        W 4729   6.822   3.914  10.084  0.1553  0.0851  0.0446
  986W        W 4730   3.251   1.697   2.835 -0.1135  0.0686  0.1239
  987W        W 4731   5.757   3.538   1.061 -0.3057 -0.0107 -0.0909
  988W        W 4732   8.875   9.839  10.640 -0.0451  0.0638 -0.0842
  989W        W 4733   2.213   5.099   3.824  0.2212  0.0603 -0.1268
  990W        W 4734   8.572   4.675   0.285 -0.0399 -0.0900 -0.2629
  991W        W 4735   5.294   1.811   0.338  0.2243 -0.3761 -0.0719
  992W        W 4736   8.560   4.329  10.546  0.2228 -0.3247  0.0795
  993W        W 4737   3.972   1.042  12.120 -0.0401 -0.1780 -0.1491
  994W        W 4738   8.210   6.492   4.045 -0.2277 -0.3170  0.1712
  995W        W 4739   2.044   6.658   3.362  0.0590 -0.1521  0.0098
  996W        W 4740   7.463   4.772   2.820 -0.0887  0.0498 -0.2905
  997W        W 4741   1.788   7.714   2.623  0.2024 -0.0181 -0.0486
  998W        W 4742   2.313   9.780  10.991 -0.2699  0.2377  0.2698
  999W        W 4743   0.753   6.032  10.093 -0.3418  0.3634  0.1154
 1000W        W 4744   5.850   3.998  12.242 -0.0153  0.1038  0.1116
 1001W        W 4745   4.437   2.772  12.366  0.2511  0.0241  0.1890
 1002W        W 4746   9.423   8.422   1.335  0.2423 -0.1548 -0.2205
 1003W        W 4747   0.620   4.077  10.234 -0.0502  0.3058  0.0583
 1004W        W 4748   2.843   9.377   4.513 -0.1748  0.0368  0.5185
 1005W        W 4749   5.409   5.648   2.334 -0.1140 -0.2737 -0.0426
 1006W        W 4750   0.139   8.810   8.504 -0.1484 -0.3076 -0.2855
 1007W        W 4751   2.057   0.952   9.080  0.0764 -0.2409 -0.0120
 1008W        W 4752   2.424   2.334  10.603  0.0711 -0.2308  0.0810
 1009W        W 4753   5.371   1.856  11.130 -0.0941  0.1711 -0.1464
 1010W        W 4754   0.808   3.944   1.338 -0.3667 -0.0105  0.0849
 1011W        W 4755   2.018   9.019   3.690  0.1531 -0.1015 -0.1978
 1012W        W 4756   5.281   7.343   2.908  0.0663  0.1058 -0.4273
 1013W        W 4757   3.513   3.259   1.049  0.3256  0.2273  0.0536
 1014W        W 4758   2.311   5.081  10.594  0.2263  0.2381  0.0648
 1015W        W 4759   6.245   7.039  12.379  0.0045  0.3646 -0.2285
 1016W        W 4760   8.623   4.374  11.103  0.4325 -0.1113 -0.0537
 1017W        W 4761   2.645   3.073   1.160  0.3660  0.1491  0.0548
 1018W        W 4762   8.287   2.438   1.105  0.1484 -0.1419 -0.1484
 1019W        W 4763   2.905   8.053   1.922 -0.0766 -0.0469 -0.0812
 1020W        W 4764   7.302   0.363   1.930 -0.1375  0.0724 -0.2773
 1021W        W 4765   6.412   6.598   1.856 -0.1081  0.0717 -0.1857
 1022W        W 4766   3.239   4.037  10.099 -0.1575 -0.0411  0.0067
 1023W        W 4767   2.285   0.563   1.206  0.3016 -0.1798  0.0237
 1024W        W 4768   4.276   8.796   3.248  0.3404  0.2341  0.0542
 1025W        W 4769   8.560   0.764   1.613 -0.2418 -0.0018  0.1915
 1026W        W 4770   6.091   1.333   2.364  0.0423  0.1262 -0.4271
 1027W        W 4771   3.873   2.780  10.161 -0.0152  0.1813 -0.2176
 1028W        W 4772   9.474   1.599   3.851 -0.1546  0.1074  0.2606
 1029W        W 4773   0.061   0.971   1.772  0.2528  0.1184 -0.0262
 1030W        W 4774   6.997   8.142   9.377  0.2852  0.0218 -0.1839
 1031W        W 4775   5.642   1.440  12.043  0.0942  0.0279 -0.0662
 1032W        W 4776   7.252   2.256   2.460  0.1106 -0.0406 -0.2945
 1033W        W 4777   2.536   0.857   9.968 -0.0456  0.1217 -0.1026
 1034W        W 4778   2.343   6.987   0.508 -0.1748  0.1886  0.2520
 1035W        W 4779   2.708   8.101  12.239  0.0588  0.0205 -0.1246
 1036W        W 4780   0.202   4.323   9.894 -0.0657 -0.2745  0.0699
 1037W        W 4781   0.030   2.670  10.498  0.0889 -0.1532 -0.0345
 1038W        W 4782   3.672   2.243   1.261  0.0943  0.1281 -0.0396
 1039W        W 4783   3.816   5.289   1.366 -0.0072 -0.2409  0.0500
 1040W        W 4784   2.838   9.714   8.349  0.0795 -0.1140  0.3027
 1041W        W 4785   7.160   8.053   1.397  0.2364  0.0542  0.5662
 1042W        W 4786   6.946   3.751  12.186 -0.3045 -0.0250 -0.3399
 1043W        W 4787   7.926   7.384   2.780 -0.4030 -0.2360  0.2134
 1044W        W 4788   5.653   0.697   1.203 -0.0873  0.4392  0.1440
 1045W        W 4789   7.328   4.653   1.735  0.1550 -0.1127 -0.1723
 1046W        W 4790   0.613   7.238   4.945  0.0412  0.2445  0.1052
 1047W        W 4791   3.810   4.119   9.884  0.1566 -0.0188 -0.1365
 1048W        W 4792   1.300   9.813   3.189  0.0377  0.2185  0.2020
 1049W        W 4793   0.657   6.361  10.934 -0.3856 -0.0236 -0.3018
 1050W        W 4794   6.613   8.482  11.931 -0.1942  0.5883  0.1801
 1051W        W 4795   7.438   5.255   3.692  0.0644 -0.0506  0.1369
 1052W        W 4796   3.377   6.648   2.972 -0.0549 -0.1258  0.3215
 1053W        W 4797   6.453   8.937   9.063  0.1844  0.3938  0.2431
 1054W        W 4798   8.151   3.997  10.384  0.1143  0.0952  0.0156
 1055W        W 4799   1.093   7.609   9.954  0.3016  0.4771 -0.2220
 1056W        W 4800   3.690   2.264   4.057  0.0230 -0.2726 -0.1220
 1057W        W 4801   7.924   7.203   1.226 -0.3715 -0.3634 -0.1272
 1058W        W 4802   6.517   7.281   0.408  0.0893  0.0597 -0.1047
 1059W        W 4803   2.679   4.771   2.248 -0.0300  0.0016  0.0221
 1060W        W 4804   1.978   3.043  10.242  0.0057  0.2149  0.3391
 1061W        W 4805   3.104   8.845  10.213  0.2936 -0.0006  0.0139
 1062W        W 4806   2.732   4.688  10.308  0.0427  0.0037 -0.2973
 1063W        W 4807   7.252   6.435   1.367 -0.0885  0.2673  0.0303
 1064W        W 4808   5.539   2.971  10.378 -0.0104 -0.0771  0.1331
 1065W        W 4809   6.045   2.917   9.402  0.2554 -0.0857 -0.2397
 1066W        W 4810   0.413   9.218   8.388  0.1713 -0.4142 -0.2143
 1067W        W 4811   6.611   8.247   4.204  0.2363 -0.0870  0.2296
 1068W        W 4812   1.036   3.257  11.355 -0.0510  0.3355  0.2481
 1069W        W 4813   9.806   5.676   2.517 -0.0255 -0.2586 -0.0134
 1070W        W 4814   2.296   0.158   0.789 -0.0363  0.2507  0.0674
 1071W        W 4815   6.469   9.223   8.631  0.0062  0.1590  0.0781
 1072W        W 4816   7.872   4.248   1.182 -0.2622 -0.0447 -0.2097
 1073W        W 4817   6.580   1.918   3.350  0.3943  0.2227  0.1365
 1074W        W 4818   3.361   7.115   9.730 -0.1926  0.2574  0.0561
 1075W        W 4819   6.944   6.143  11.777  0.1219  0.0197  0.2673
 1076W        W 4820   2.152   6.072  11.547  0.3304  0.1222  0.0455
 1077W        W 4821   4.213   5.520  11.884 -0.2397 -0.0006 -0.3310
 1078W        W 4822   5.636   0.565  11.051  0.0795 -0.0858  0.1117
 1079W        W 4823   5.197   1.069   2.232  0.0193  0.0687 -0.0308
 1080W        W 4824   8.777   9.092  11.910  0.1665 -0.4361  0.0031
 1081W        W 4825   4.630   3.511   4.954  0.3342 -0.1615  0.0869
 1082W        W 4826   8.077   0.819   9.282 -0.0828  0.0468 -0.2108
 1083W        W 4827   9.129   0.226   2.645  0.0279 -0.1248  0.0323
 1084W        W 4828   6.443   7.976  11.987 -0.1387  0.0996  0.3241
 1085W        W 4829   5.444   9.617  12.017 -0.3891  0.2098 -0.2396
 1086W        W 4830   6.347   9.217   9.554  0.1394  0.1407  0.3205
 1087W        W 4831   1.533   8.370   0.472 -0.1731 -0.0727  0.0419
 1088W        W 4832   3.101   5.652   0.920 -0.1328 -0.3416  0.2932
 1089W        W 4833   8.709   6.968   0.083  0.3610 -0.1601 -0.1022
 1090W        W 4834   1.466   0.957   1.647 -0.2207 -0.0873 -0.1015
 1091W        W 4835   7.240   5.251   4.183  0.1798  0.1497  0.1826
 1092W        W 4836   6.330   3.132   0.419  0.1221  0.0636 -0.1697
 1093W        W 4837   7.417   3.517   8.466 -0.0558  0.1128  0.0165
 1094W        W 4838   0.515   0.789   2.625  0.1632 -0.1565  0.2256
 1095W        W 4839   0.593   0.819   3.169  0.1714 -0.2341  0.1662
 1096W        W 4840   6.349   0.215   3.997 -0.0415  0.2383  0.1746
 1097W        W 4841   5.740   1.793   1.695  0.0002 -0.1822  0.0515
 1098W        W 4842   8.625   0.259  10.835 -0.3349  0.0957  0.0722
 1099W        W 4843   1.181   5.020   0.348  0.1332 -0.0348 -0.0239
 1100W        W 4844   4.641   4.883   1.504 -0.1206 -0.1520  0.4100
 1101W        W 4845   8.217   7.671   1.501  0.0304 -0.3477 -0.0289
 1102W        W 4846   1.687   4.624   3.373 -0.1776 -0.1505 -0.0053
 1103W        W 4847   5.125   5.208  12.319  0.1596  0.0289 -0.3261
 1104W        W 4848   6.193   2.619  12.076  0.1896  0.2088 -0.1020
 1105W        W 4849   8.362   0.482   0.305  0.2686 -0.0940 -0.1846
 1106W        W 4850   3.266   3.287  11.081 -0.0813 -0.0537  0.0235
 1107W        W 4851   9.255   5.673   2.807  0.1213 -0.1954  0.0130
 1108W        W 4852   0.773   5.466   4.319  0.1040 -0.1003 -0.1647
 1109W        W 4853   3.706   1.679  12.203  0.1551 -0.4578  0.1452
 1110W        W 4854   3.172   4.345  12.508  0.2045  0.0618  0.1242
 1111W        W 4855   3.126   2.361   2.770  0.2841 -0.0263 -0.1876
 1112W        W 4856   0.356   9.531   9.213  0.1521  0.0382  0.0417
 1113W        W 4857   9.056   1.404   3.567  0.0677 -0.0223  0.1017
 1114W        W 4858   6.934   3.930   9.149  0.0070 -0.1876 -0.1477
 1115W        W 4859   2.929   6.299   0.306  0.0807 -0.0849  0.2076
 1116W        W 4860   3.648   8.364   3.824  0.3176 -0.0830 -0.1480
 1117W        W 4861   3.525   0.927   8.528  0.1985 -0.1795 -0.0563
 1118W        W 4862   8.023   4.086   3.017 -0.0999  0.1217 -0.1361
 1119W        W 4863   1.944   8.370   8.114  0.0706  0.1563 -0.0194
 1120W        W 4864   4.258   7.089   1.634  0.2214  0.1596 -0.3332
 1121W        W 4865   2.751   1.129   2.941  0.2806 -0.4828  0.3906
 1122W        W 4866   7.540   1.369   2.549  0.1153 -0.1503 -0.1334
 1123W        W 4867   4.707   6.616   9.612  0.1409  0.0025  0.2120
 1124W        W 4868   7.281   0.446   4.117  0.0637 -0.0320  0.1423
 1125W        W 4869   3.896   3.781   0.195 -0.0575  0.2159  0.1726
 1126W        W 4870   2.329   3.917   9.838  0.1317  0.2361  0.2996
 1127W        W 4871   2.258   1.273   1.524 -0.2210  0.4318 -0.1518
 1128W        W 4872   9.180   8.754   0.144  0.2071 -0.0338 -0.1969
 1129W        W 4873   5.058   2.952   9.646 -0.1224 -0.0236  0.1863
 1130W        W 4874   1.843   0.757  11.203 -0.1362  0.1096 -0.3045
 1131W        W 4875   8.291   9.148   1.909  0.0393 -0.1865 -0.1452
 1132W        W 4876   7.936   5.131   9.527 -0.2149  0.2329  0.1952
 1133W        W 4877   2.865   1.588   3.132 -0.0523 -0.2184  0.0457
 1134W        W 4878   3.629   7.648   1.400  0.1324 -0.1249 -0.0694
 1135W        W 4879   4.391   3.655  12.113 -0.2384  0.0802 -0.3298
 1136W        W 4880   5.163   9.635   8.618  0.0802 -0.3433 -0.1354
 1137W        W 4881   5.875   5.164   0.380 -0.0267  0.0340 -0.2787
 1138W        W 4882   9.330   6.469   0.232 -0.0076 -0.0216  0.2805
 1139W        W 4883   2.078   9.918   2.369 -0.1285 -0.0236 -0.1578
 1140W        W 4884   5.511   7.611  12.354  0.0482 -0.1360 -0.2409
 1141W        W 4885   4.511   7.106  12.618 -0.0088 -0.0107  0.1893
 1142W        W 4886   3.493   0.395  10.306 -0.0478  0.1477  0.1096
 1143W        W 4887   9.151   3.861   2.443 -0.0097  0.0052 -0.1322
 1144W        W 4888   0.411   0.504   9.647 -0.0566  0.1736 -0.0254
 1145W        W 4889   8.717   0.633   1.063 -0.3589 -0.2324  0.1456
 1146W        W 4890   4.877   8.816  11.976 -0.3145  0.1489  0.0848
 1147W        W 4891   0.560   4.954   1.383  0.0175  0.5403  0.2431
 1148W        W 4892   6.724   4.716   9.659 -0.0647  0.1082 -0.0013
 1149W        W 4893   7.163   7.501   2.487  0.0529 -0.2588 -0.2616
 1150W        W 4894   5.889   8.579   8.870  0.1114 -0.3859 -0.1768
 1151W        W 4895   0.051   0.145  11.604 -0.1191 -0.1843  0.0613
 1152W        W 4896   8.533   2.743  11.320  0.1189 -0.0379 -0.1373
 1153W        W 4897   4.486   7.898   9.701 -0.4752 -0.2709  0.1451
 1154W        W 4898   5.685   3.772  10.316  0.1265  0.1020 -0.0154
 1155W        W 4899   4.191   5.662   9.264  0.3609 -0.4415  0.0250
 1156W        W 4900   5.103   6.704   4.106 -0.1231  0.0060  0.3021
 1157W        W 4901   5.638   6.569   2.448 -0.0066 -0.0284 -0.2047
 1158W        W 4902   3.107   3.474   0.647 -0.0145 -0.0601 -0.0530
 1159W        W 4903   2.482   3.568  10.624 -0.3293  0.1864 -0.3733
 1160W        W 4904   3.603   7.758   8.552 -0.1825  0.2663 -0.1608
 1161W        W 4905   6.853   3.061   1.823 -0.1658  0.3056 -0.2339
 1162W        W 4906   1.243   2.571   2.315  0.1103 -0.1582  0.2156
 1163W        W 4907   8.692   2.744   3.021 -0.0372 -0.0336 -0.1149
 1164W        W 4908   5.858   8.847   3.862 -0.1741 -0.1825 -0.2959
 1165W        W 4909   4.715   2.725   0.374 -0.0914 -0.0606 -0.1088
 1166W        W 4910   0.895   0.067   2.922  0.3302 -0.2578 -0.0526
 1167W        W 4911   6.471   7.376   9.367 -0.0203 -0.1608 -0.0886
 1168W        W 4912   3.043   9.421   9.060  0.1170  0.1611 -0.2715
 1169W        W 4913   7.275   7.761   9.492 -0.1634 -0.1630  0.2251
 1170W        W 4914   2.699   5.758   9.595  0.1200 -0.0616 -0.0902
 1171W        W 4915   4.469   9.191   0.314 -0.0580  0.2092  0.0716
 1172W        W 4916   4.244   8.878   9.429 -0.0728  0.0285  0.0913
 1173W        W 4917   9.035   6.567   1.891  0.3928 -0.0352 -0.0901
 1174W        W 4918   7.690   9.753   0.332 -0.1885  0.1285  0.2865
 1175W        W 4919   4.016   0.953  10.115  0.0404  0.0844 -0.1541
 1176W        W 4920   2.768   9.918  11.205  0.1882 -0.1439 -0.0571
 1177W        W 4921   2.262   8.638   3.961 -0.1846  0.1179 -0.0356
 1178W        W 4922   8.130   2.868  10.967 -0.2108 -0.1553  0.3983
 1179W        W 4923   8.822   3.191  10.121 -0.0564 -0.4358  0.2868
 1180W        W 4924   3.772   9.621   2.234 -0.0531 -0.1552 -0.2387
 1181W        W 4925   6.538   2.897   9.363  0.0612  0.2656 -0.2467
 1182W        W 4926   6.755   1.511  11.822  0.0714  0.1172  0.2160
 1183W        W 4927   3.604   9.526  12.052  0.0864 -0.1285  0.2689
 1184W        W 4928   7.137   8.808  12.543  0.1237 -0.1576 -0.0637
 1185W        W 4929   8.626   2.643   9.983 -0.0577  0.3408 -0.0113
 1186W        W 4930   5.452   4.741   5.049  0.0021 -0.0228  0.2870
 1187W        W 4931   7.377   1.152   1.293 -0.1754  0.0587 -0.1230
 1188W        W 4932   6.121   7.779   8.420 -0.0902  0.0013  0.0026
 1189W        W 4933   4.898   7.845  11.534  0.0425 -0.1069  0.0970
 1190W        W 4934   8.319   2.967   0.029  0.0617  0.0610  0.0347
 1191W        W 4935   4.903   9.546   1.613 -0.1688 -0.1366 -0.3493
 1192W        W 4936   2.388   3.329  10.218  0.0668 -0.0918  0.4254
 1193W        W 4937   8.227   4.464   9.165  0.1395  0.0259 -0.1074
 1194W        W 4938   2.257   6.361  12.401  0.1716 -0.1009  0.1592
 1195W        W 4939   8.784   7.596   9.578  0.0726  0.1103  0.1649
 1196W        W 4940   1.519   9.774   3.648  0.0777  0.1798 -0.0852
 1197W        W 4941   9.941   7.209  12.300 -0.1070  0.1260 -0.2480
 1198W        W 4942   4.120   2.318  11.512 -0.3531 -0.2070 -0.1255
 1199W        W 4943   3.999   1.789   8.603 -0.0725  0.1453  0.0204
 1200W        W 4944   3.213   3.201   2.540 -0.0905 -0.2371  0.2030
 1201W        W 4945   4.461   0.308  10.877  0.1354  0.2260 -0.1260
 1202W        W 4946   3.242   2.364   2.068 -0.1674  0.1093  0.0418
 1203W        W 4947   9.136   4.766   1.239  0.3141 -0.2539 -0.2877
 1204W        W 4948   1.791   0.740   3.309 -0.0891 -0.0862  0.2602
 1205W        W 4949   3.224   1.027   1.854 -0.0512  0.2380  0.1333
 1206W        W 4950   9.172   0.475  12.460 -0.0638  0.2752 -0.0685
 1207W        W 4951   8.791   7.226   0.741  0.2114  0.0524  0.2062
 1208W        W 4952   2.456   4.730   3.107  0.1865 -0.1336 -0.1921
 1209W        W 4953   1.126   3.244   9.318 -0.0044 -0.0333  0.3059
 1210W        W 4954   1.330   1.913  10.588 -0.1237 -0.2860 -0.0267
 1211W        W 4955   2.680   4.124  12.163 -0.2605  0.0396 -0.2098
 1212W        W 4956   0.243   5.794  11.402 -0.1463  0.1383 -0.0521
 1213W        W 4957   7.481   0.068   1.115 -0.1445 -0.1082 -0.2170
 1214W        W 4958   7.962   3.427   3.228 -0.0681  0.3671 -0.2022
 1215W        W 4959   7.517   5.101   1.444 -0.0589  0.0878  0.1800
 1216W        W 4960   6.093   3.597  12.478 -0.0645 -0.0501  0.1564
 1217W        W 4961   6.995   4.957   3.578  0.0649  0.0042 -0.0686
 1218W        W 4962   6.685   7.229   9.773  0.2136 -0.2037  0.0090
 1219W        W 4963   0.610   6.515  10.328 -0.0987 -0.2549 -0.0703
 1220W        W 4964   0.017   0.260   9.917 -0.0875 -0.0066  0.0410
 1221W        W 4965   6.507   8.431   8.926  0.0492  0.0934 -0.0835
 1222W        W 4966   5.916   0.883  10.725  0.1332 -0.0771  0.1216
 1223W        W 4967   3.736   0.132  12.750 -0.0357 -0.0635 -0.0085
 1224W        W 4968   6.826   7.295   3.440 -0.0709 -0.3887 -0.2396
 1225W        W 4969   5.707   3.782  11.217 -0.1366 -0.1267 -0.0171
 1226W        W 4970   1.654   6.694   8.890 -0.1186  0.1493 -0.3000
 1227W        W 4971   2.168   1.988  10.344 -0.0812  0.0821  0.2397
 1228W        W 4972   3.133   0.454   9.236  0.0543 -0.1122  0.2440
 1229W        W 4973   4.907   6.863  10.400 -0.1020 -0.1203  0.1840
 1230W        W 4974   9.319   7.326   0.585 -0.0944 -0.0530  0.0912
 1231W        W 4975   0.673   5.959  10.591  0.2572 -0.0887 -0.1513
 1232W        W 4976   4.591   4.515  12.146  0.4253 -0.2560  0.1594
 1233W        W 4977   3.231   2.310   9.967 -0.1417  0.0506 -0.0900
 1234W        W 4978   2.358   9.584  12.063  0.2749 -0.2343  0.1404
 1235W        W 4979   7.604   3.985  11.744 -0.1997  0.0168 -0.1011
 1236W        W 4980   5.522   6.531  11.152  0.3521 -0.0554  0.0695
 1237W        W 4981   6.171   5.098   3.895  0.2326 -0.1405  0.1295
 1238W        W 4982   2.944   6.825   4.190 -0.0136 -0.1388  0.1727
 1239W        W 4983   4.845   9.160  12.735  0.1147  0.1026 -0.0197
 1240W        W 4984   7.696   2.259   3.343 -0.0362 -0.2795  0.1303
 1241W        W 4985   7.200   2.908   0.235  0.1704 -0.0319  0.1657
 1242W        W 4986   2.826   2.605   9.874 -0.0099  0.0665 -0.2185
 1243W        W 4987   4.648   0.647   2.773  0.0775  0.1376  0.0869
 1244W        W 4988   6.812   3.288   0.242 -0.0683 -0.2966  0.1156
 1245W        W 4989   0.787   7.515   9.105 -0.1150 -0.2140 -0.2381
 1246W        W 4990   8.303   7.192   1.703  0.3863  0.0116  0.0171
 1247W        W 4991   2.682   4.123  10.302  0.2740 -0.5871  0.2205
 1248W        W 4992   1.928   6.649  12.673  0.1430  0.1391 -0.1703
 1249W        W 4993   1.511   7.483   8.533  0.1620  0.2041  0.3103
 1250W        W 4994   5.945   9.655   2.784  0.2257  0.2274 -0.0133
 1251W        W 4995   0.269   1.946   2.519 -0.0982 -0.0212 -0.0298
 1252W        W 4996   7.308   9.092   2.940 -0.0790 -0.1948 -0.0482
 1253W        W 4997   5.527   2.700   1.286 -0.1925  0.0917 -0.1126
 1254W        W 4998   0.793   4.664   4.139  0.3915 -0.3627 -0.3614
 1255W        W 4999   1.344   3.901   9.764 -0.0294 -0.0612 -0.0288
 1256W        W 5000   5.735   0.036   9.389 -0.1877 -0.2196  0.2202
 1257W        W 5001   8.343   1.011   1.189 -0.2159  0.2668 -0.1545
 1258W        W 5002   8.500   2.155   9.248  0.1733  0.0228  0.0367
 1259W        W 5003   5.737   5.328   3.676 -0.0325 -0.1570 -0.2284
 1260W        W 5004   7.922   6.683  12.411 -0.0065 -0.0223  0.2157
 1261W        W 5005   2.155   5.096  11.113  0.0165  0.0871  0.2278
 1262W        W 5006   2.769   8.880   0.928  0.2256  0.0634  0.2173
 1263W        W 5007   5.599   1.086   1.899  0.0342  0.0316  0.1038
 1264W        W 5008   8.521   4.781  12.342 -0.1335 -0.3771  0.2751
 1265W        W 5009   1.015   4.149   2.433  0.0088  0.3557  0.0914
 1266W        W 5010   4.897   6.304   9.282  0.2400  0.0618 -0.0938
 1267W        W 5011   4.289   7.550   3.858 -0.1506 -0.0681  0.0924
 1268W        W 5012   9.905   7.988   3.030 -0.1107 -0.2635 -0.3751
 1269W        W 5013   8.184   8.715   2.748 -0.0033  0.0780  0.0678
 1270W        W 5014   4.526   3.682   3.700 -0.5201 -0.0688 -0.2414
 1271W        W 5015   7.810   3.485   3.803 -0.1831  0.1073 -0.0258
 1272W        W 5016   0.408   7.018   2.123  0.2369 -0.6199 -0.1749
 1273W        W 5017   0.600   3.643  10.493  0.2349  0.1473 -0.0157
 1274W        W 5018   6.001   5.730   8.498  0.1729  0.0756  0.3301
 1275W        W 5019   3.309   1.255   7.728 -0.0965  0.2959 -0.0302
 1276W        W 5020   3.310   4.180   2.826  0.2312 -0.0466  0.0757
 1277W        W 5021   7.069   5.556   9.741  0.1277 -0.1410 -0.0402
 1278W        W 5022   0.993   0.803   2.248 -0.0486  0.1813  0.1015
 1279W        W 5023   9.204   8.861   2.072  0.0876 -0.1775 -0.0473
 1280W        W 5024   2.699   0.314   9.041  0.2022 -0.0428 -0.1069
 1281W        W 5025   5.309   1.537   1.889 -0.2068  0.0726 -0.0286
 1282W        W 5026   9.762   0.087   2.088 -0.2154 -0.1552  0.0789
 1283W        W 5027   2.895   3.307   2.199 -0.1471  0.1749  0.2020
 1284W        W 5028   8.264   9.017   3.169  0.2305  0.1693  0.1768
 1285W        W 5029   4.045   7.017  12.467  0.1047  0.2429 -0.0351
 1286W        W 5030   8.287   5.819   4.747 -0.1658  0.2001 -0.1750
 1287W        W 5031   0.025   3.007   0.307  0.1093 -0.0148  0.0920
 1288W        W 5032   2.520   8.071   4.329 -0.0200 -0.1571 -0.2171
 1289W        W 5033   4.463   1.838  10.091 -0.0468 -0.2413 -0.3265
 1290W        W 5034   3.989   9.369   8.534 -0.0495  0.0313  0.2094
 1291W        W 5035   6.888   9.116   3.326  0.0114 -0.0615 -0.2972
 1292W        W 5036   6.131   1.764   3.899  0.1411 -0.1612 -0.3626
 1293W        W 5037   8.789   5.235   9.813 -0.2983  0.0490  0.1827
 1294W        W 5038   2.416   1.013   9.526 -0.0299 -0.3058 -0.0595
 1295W        W 5039   1.824   7.346   3.018 -0.0753 -0.1855 -0.2475
 1296W        W 5040   2.741   6.485   8.197  0.2787  0.2104  0.1363
 1297W        W 5041   8.968   3.265   2.395 -0.0843  0.0084 -0.1314
 1298W        W 5042   3.251   3.707   2.628 -0.0195 -0.0520 -0.0334
 1299W        W 5043   4.178   8.050  11.626 -0.0602  0.4712 -0.2552
 1300W        W 5044   3.494   6.941  10.951  0.1174 -0.1835 -0.0260
 1301W        W 5045   1.835   7.819   4.689 -0.1692  0.1023 -0.1650
 1302W        W 5046   0.419   9.408   3.175  0.0781 -0.0341  0.0242
 1303W        W 5047   5.517   9.064   3.557 -0.1099  0.1130 -0.1165
 1304W        W 5048   5.870   6.105   2.643 -0.1137  0.1314  0.1530
 1305W        W 5049   2.207   4.044   1.937 -0.0558 -0.1331  0.0320
 1306W        W 5050   3.926   5.706  12.246  0.0397 -0.0117  0.1783
 1307W        W 5051   0.367   1.436   1.748  0.0922  0.0001  0.0147
 1308W        W 5052   3.717   6.197   2.529 -0.1749 -0.0607 -0.0498
 1309W        W 5053   5.190   2.302  11.450  0.2139 -0.1197  0.0453
 1310W        W 5054   5.720   9.744  12.415  0.3862 -0.0814  0.1321
 1311W        W 5055   4.151   4.438   9.463 -0.0363  0.1213  0.0047
 1312W        W 5056   0.076   8.360   3.533  0.0898 -0.0240 -0.0129
 1313W        W 5057   4.090   2.219   1.526  0.0458  0.0866 -0.2298
 1314W        W 5058   9.020   8.348  10.681  0.1810 -0.0366 -0.0679
 1315W        W 5059   4.854   7.727   5.035 -0.1148  0.6066  0.1237
 1316W        W 5060   5.575   5.777  12.064 -0.0362 -0.3529 -0.0563
 1317W        W 5061   7.611   2.310   1.949  0.3218  0.3843 -0.2061
 1318W        W 5062   1.860   2.381   2.473  0.1088  0.0905 -0.0831
 1319W        W 5063   8.986   5.421  12.305  0.0441  0.0590  0.0106
 1320W        W 5064   8.326   7.530  10.048 -0.0147  0.0335 -0.0711
 1321W        W 5065   4.640   5.889  10.702 -0.0162  0.0039 -0.0714
 1322W        W 5066   4.751   8.043  10.658  0.0999  0.0070  0.2932
 1323W        W 5067   6.522   1.089   3.128  0.2946 -0.2879  0.2003
 1324W        W 5068   0.606   0.605   0.454 -0.2668 -0.2861  0.1726
 1325W        W 5069   0.558   2.967   0.209  0.1851 -0.3619 -0.4389
 1326W        W 5070   6.668   0.787   2.315  0.1513  0.1186  0.1275
 1327W        W 5071   0.724   6.239   3.753  0.0635 -0.0096  0.0362
 1328W        W 5072   0.957   8.084  12.669  0.0645 -0.0881  0.1006
 1329W        W 5073   5.627   1.950   4.288  0.0528 -0.0372  0.1008
 1330W        W 5074   3.197   1.656  12.124  0.1125 -0.2472  0.2458
 1331W        W 5075   7.408   7.281   1.172  0.0200  0.1003  0.0173
 1332W        W 5076   2.631   2.564   1.369  0.0759 -0.0114  0.1277
 1333W        W 5077   1.333   7.368  11.037 -0.1484 -0.4388 -0.1632
 1334W        W 5078   8.979   0.575  10.944  0.1509 -0.0181  0.3674
 1335W        W 5079   3.695   6.902   3.290 -0.0294  0.1168  0.0859
 1336W        W 5080   3.004   0.392  10.890  0.1739  0.0174  0.2245
 1337W        W 5081   6.720   3.196   9.845  0.2206  0.2014  0.1632
 1338W        W 5082   3.664   6.291   4.056  0.0191 -0.2913  0.2000
 1339W        W 5083   7.537   8.393  10.196  0.2319 -0.0535 -0.0167
 1340W        W 5084   7.267   3.222   2.026 -0.0157  0.0740  0.3328
 1341W        W 5085   8.427   1.619   0.279 -0.0901 -0.1343  0.0110
 1342W        W 5086   3.895   0.496   2.348 -0.2543 -0.2741  0.2310
 1343W        W 5087   5.155   1.906   3.881  0.2335 -0.2283 -0.5345
 1344W        W 5088   5.804   9.805  11.359  0.2086 -0.0958 -0.2150
 1345W        W 5089   9.257   7.269   9.653 -0.2234  0.0710 -0.0643
 1346W        W 5090   4.861   0.124  11.119 -0.1952  0.0406  0.0284
 1347W        W 5091   0.763   8.050   9.040  0.0005 -0.1039 -0.0254
 1348W        W 5092   9.298   6.722   3.084 -0.1372  0.2015  0.2077
 1349W        W 5093   0.105   4.726   4.633 -0.3797  0.2854 -0.2071
 1350W        W 5094   3.072   2.222   1.167 -0.0332 -0.2065  0.1222
 1351W        W 5095   9.086   8.482  11.625  0.0829  0.3621 -0.0282
 1352W        W 5096   0.061   5.826  12.027 -0.0463  0.0218 -0.1153
 1353W        W 5097   5.594   4.309   4.633  0.2595  0.1102 -0.4457
 1354W        W 5098   1.466   0.687  12.728  0.2363  0.2767  0.3210
 1355W        W 5099   8.086   4.549  11.262  0.1906 -0.1098 -0.0039
 1356W        W 5100   4.650   3.266  10.534 -0.0004  0.1428 -0.4845
 1357W        W 5101   2.382   8.478  11.671  0.0913 -0.0074  0.0950
 1358W        W 5102   2.883   4.490   3.191 -0.0519  0.1582 -0.3443
 1359W        W 5103   8.203   2.001   3.485 -0.2290  0.0461  0.0459
 1360W        W 5104   4.265   2.775   0.734 -0.2074  0.3417 -0.1288
 1361W        W 5105   1.096   9.093   4.588 -0.1148 -0.1026  0.0691
 1362W        W 5106   9.239   0.847  10.493  0.2122 -0.0080 -0.1190
 1363W        W 5107   9.263   1.552   1.854  0.0953  0.1602 -0.0658
 1364W        W 5108   7.017   8.378   1.111  0.0292  0.0931  0.1121
 1365W        W 5109   1.501   0.231  12.775 -0.0605 -0.1386 -0.0276
 1366W        W 5110   7.868   4.947  10.966  0.0754 -0.1520  0.1550
 1367W        W 5111   1.602   6.803   0.250 -0.1867  0.2554 -0.0788
 1368W        W 5112   5.417   7.744  10.340  0.2360 -0.1253 -0.0693
 1369W        W 5113   2.249   9.385   1.554  0.0525 -0.0058  0.3623
 1370W        W 5114   7.038   4.141   0.711  0.1515 -0.3357 -0.0412
 1371W        W 5115   4.363   6.893   4.494 -0.3920  0.0369 -0.0483
 1372W        W 5116   4.529   4.348  10.331  0.1840 -0.0758  0.1144
 1373W        W 5117   7.292   7.405   3.577 -0.0887 -0.0635 -0.0459
 1374W        W 5118   2.492   3.654  11.378 -0.1899 -0.2301  0.1832
 1375W        W 5119   6.243   6.399  10.596  0.0437 -0.0232  0.1218
 1376W        W 5120   4.117   2.576   4.103 -0.0895 -0.2673 -0.1083
 1377W        W 5121   6.974   5.824   9.325 -0.1885 -0.0771 -0.1270
 1378W        W 5122   8.676   0.222   0.573  0.0121 -0.2334  0.0398
 1379W        W 5123   9.678   2.352  11.107  0.2859  0.0776 -0.1436
 1380W        W 5124   2.285   3.486  12.267  0.1170  0.2179 -0.0963
 1381W        W 5125   2.669   7.655   0.906  0.3681  0.1220 -0.1861
 1382W        W 5126   8.602   9.763   8.311 -0.1745 -0.1371 -0.1025
 1383W        W 5127   5.366   9.895   9.699  0.1319  0.0689 -0.1219
 1384W        W 5128   5.521   3.289   3.763  0.0870 -0.3711  0.2292
 1385W        W 5129   4.773   1.590   2.035  0.1599 -0.0839 -0.0975
 1386W        W 5130   6.980   1.673   4.470  0.3899 -0.1274 -0.2081
 1387W        W 5131   6.262   1.128   9.448  0.0069 -0.1068 -0.3518
 1388W        W 5132   9.862   6.542   0.090 -0.3036  0.4337 -0.2273
 1389W        W 5133   5.056   3.163   0.315  0.1564  0.0075 -0.2323
 1390W        W 5134   7.732   7.096   1.778  0.0359  0.0345  0.0275
 1391W        W 5135   3.479   1.102  11.530 -0.1209 -0.0002 -0.0196
 1392W        W 5136   5.465   4.470   1.314  0.1554 -0.4007  0.0369
 1393W        W 5137   4.834   7.572  10.522 -0.2983  0.1070  0.2771
 1394W        W 5138   8.813   9.255   2.201 -0.0437 -0.1100 -0.1431
 1395W        W 5139   7.777   5.305  10.546  0.0694  0.2041 -0.1460
 1396W        W 5140   9.464   4.316  10.975  0.0867 -0.0997 -0.3098
 1397W        W 5141   2.812   7.070   1.670  0.0787  0.1227  0.0413
 1398W        W 5142   7.709   6.607  10.536  0.1598 -0.1327 -0.0310
 1399W        W 5143   4.803   1.592   3.674 -0.1396 -0.2541  0.2148
 1400W        W 5144   9.553   6.254  12.092 -0.0664 -0.0494  0.3234
 1401W        W 5145   0.023   6.068   2.745 -0.0911  0.1672  0.0117
 1402W        W 5146   4.796   1.206  10.810 -0.0093 -0.1214  0.1636
 1403W        W 5147   1.520   0.172  11.088 -0.2053  0.0261 -0.1790
 1404W        W 5148   3.923   1.072   4.827 -0.2528  0.2265  0.1692
 1405W        W 5149   9.689   4.412  12.353  0.1372  0.3168 -0.2232
 1406W        W 5150   5.997   1.388   1.884 -0.1230 -0.0979  0.0549
 1407W        W 5151   9.869   2.168   1.693  0.0450 -0.0651 -0.3073
 1408W        W 5152   4.961   8.191   1.083 -0.1221 -0.4822  0.2219
 1409W        W 5153   7.735   4.263  12.244  0.1740 -0.1065 -0.0564
 1410W        W 5154   3.519   1.146   9.081 -0.5601 -0.0108 -0.1480
 1411W        W 5155   9.649   5.686   1.573  0.1732  0.1268  0.0346
 1412W        W 5156   9.506   7.778   8.934  0.1441  0.1152 -0.1150
 1413W        W 5157   2.680   2.015   1.424  0.0727  0.3551 -0.1634
 1414W        W 5158   9.845   7.030   9.442  0.1692  0.3268 -0.3727
 1415W        W 5159   3.186   4.551   9.974  0.1688  0.0281  0.0384
 1416W        W 5160   4.286   8.400   9.613 -0.0862  0.0083  0.2878
 1417W        W 5161   9.069   6.574   9.482  0.2484 -0.1758  0.0337
 1418W        W 5162   0.776   7.949   8.431 -0.4049  0.0756  0.0199
 1419W        W 5163   3.379   8.189  12.344 -0.1204 -0.0580  0.2936
 1420W        W 5164   2.199   4.136  11.336 -0.1817 -0.4059  0.0137
 1421W        W 5165   3.515   0.931  10.266 -0.0853 -0.1407  0.0899
 1422W        W 5166   6.171   7.782   9.435 -0.2579 -0.0444 -0.0826
 1423W        W 5167   5.594   8.686   2.658 -0.0008 -0.0056 -0.1163
 1424W        W 5168   8.203   6.997   3.910  0.2031 -0.1585  0.0375
 1425W        W 5169   4.692   2.988  12.742 -0.0031  0.0858 -0.2290
 1426W        W 5170   5.110   7.313  10.832  0.0050 -0.2376  0.1787
 1427W        W 5171   2.188   3.405   1.066 -0.0963 -0.1008 -0.1929
 1428W        W 5172   9.394   5.321   2.531  0.0023  0.1836  0.3790
 1429W        W 5173   7.959   2.959  11.926 -0.2724 -0.1283 -0.0265
 1430W        W 5174   6.371   3.936   2.983  0.1287 -0.0066  0.2147
 1431W        W 5175   6.910   0.216  10.244 -0.2162  0.1695  0.0080
 1432W        W 5176   8.384   4.110  11.435  0.1048 -0.0379 -0.1073
 1433W        W 5177   1.681   5.323   0.364 -0.2339  0.0785 -0.3313
 1434W        W 5178   6.394   5.479  11.999 -0.2314  0.0655 -0.0252
 1435W        W 5179   9.576   2.289   1.341  0.0761 -0.0140 -0.1905
 1436W        W 5180   3.267   9.018   9.160 -0.1739 -0.2420 -0.0623
 1437W        W 5181   0.769   5.340   0.817  0.3194 -0.0002  0.0794
 1438W        W 5182   9.578   0.741   0.568  0.2750  0.2714 -0.0002
 1439W        W 5183   6.522   9.323  10.537 -0.0728 -0.1399 -0.1439
 1440W        W 5184   3.796   8.850   0.260  0.1601 -0.1959 -0.0686
 1441W        W 5185   4.991   3.212   8.286 -0.2622  0.1677 -0.1006
 1442W        W 5186   4.889   0.667   3.214 -0.2414 -0.2880 -0.1513
 1443W        W 5187   2.016   7.219   9.723 -0.3447  0.4792 -0.2217
 1444W        W 5188   2.468   6.061   9.153  0.3817  0.0897  0.2699
 1445W        W 5189   4.380   1.031   1.661 -0.4293 -0.0229  0.3204
 1446W        W 5190   1.239   6.302   3.719 -0.0043  0.0705 -0.0485
 1447W        W 5191   9.130   4.582   0.274 -0.2021 -0.1542 -0.3087
 1448W        W 5192   3.859   8.353   0.283 -0.0058 -0.1031 -0.1897
 1449W        W 5193   5.910   9.033   1.634 -0.0780  0.0099 -0.1778
 1450W        W 5194   0.183   0.467   3.285 -0.0344  0.1720  0.1711
 1451W        W 5195   3.705   9.097  10.851  0.1398 -0.1340  0.0203
 1452W        W 5196   4.482   7.580  11.338 -0.0179  0.0077 -0.4874
 1453W        W 5197   0.365   9.119  12.043 -0.2091  0.0954 -0.1122
 1454W        W 5198   7.218   0.778   1.543 -0.2442 -0.3969  0.4813
 1455W        W 5199   8.120   7.220   2.238 -0.2911 -0.1631 -0.2526
 1456W        W 5200   0.995   3.491  11.850 -0.2103 -0.0439 -0.0910
 1457W        W 5201   6.184   4.754  11.023 -0.3108  0.1928  0.2313
 1458W        W 5202   1.709   1.388   1.510  0.3959 -0.2791  0.1769
 1459W        W 5203   5.243   8.110  11.854 -0.2788  0.2397  0.0868
 1460W        W 5204   6.929   4.981   1.451 -0.2213 -0.1789  0.0651
 1461W        W 5205   3.711   3.886  11.368 -0.0393  0.2736 -0.3101
 1462W        W 5206   8.859   1.136   2.584  0.2371 -0.2576 -0.1682
 1463W        W 5207   3.684   9.526   0.929  0.0774 -0.0067  0.2189
 1464W        W 5208   4.227   1.452  12.014  0.0079  0.0560  0.3173
 1465W        W 5209   1.897   5.131   1.441  0.2398  0.2567  0.0233
 1466W        W 5210   4.136   0.360  10.106  0.1756  0.2408 -0.3378
 1467W        W 5211   4.389   1.174   3.005  0.2658  0.0765  0.1684
 1468W        W 5212   8.375   9.080   0.468  0.2760 -0.0174  0.1947
 1469W        W 5213   5.984   5.632   4.100  0.5486  0.2115 -0.1296
 1470W        W 5214   7.332   5.155   8.571 -0.0823 -0.0048  0.1076
 1471W        W 5215   3.524   9.132   3.656 -0.1176 -0.1877 -0.0191
 1472W        W 5216   1.084   6.268   2.471  0.3041 -0.0495 -0.0136
 1473W        W 5217   7.194   8.989   4.472  0.0162  0.0132 -0.0941
 1474W        W 5218   3.161   3.875  11.468 -0.2743 -0.1129 -0.0999
 1475W        W 5219   8.073   2.175   1.986  0.2636 -0.2282 -0.1456
 1476W        W 5220   0.236   8.941   0.597  0.0919  0.1279 -0.6503
 1477W        W 5221   2.914   6.221   2.103 -0.2147 -0.1836 -0.3742
 1478W        W 5222   2.194   0.085   4.488 -0.1129 -0.1923  0.1939
 1479W        W 5223   1.369   7.196  10.338  0.0969  0.1072 -0.1200
 1480W        W 5224   1.442   3.397   1.612  0.0234 -0.0008  0.0138
 1481W        W 5225   2.188   6.698   8.902  0.2812 -0.2186  0.2855
 1482W        W 5226   0.407   9.697  12.791 -0.0735  0.0708  0.0262
 1483W        W 5227   5.844   2.628   1.683  0.0645 -0.3775 -0.1372
 1484W        W 5228   0.884   1.537   3.803  0.0859 -0.2749  0.0101
 1485W        W 5229   5.111   3.390  12.543  0.3237 -0.0414 -0.2405
 1486W        W 5230   4.027   1.031   0.784 -0.0232 -0.0056  0.1209
 1487W        W 5231   6.138   5.500   2.094  0.0938  0.0313  0.0087
 1488W        W 5232   2.499   7.854  11.379  0.0774  0.1321  0.0061
 1489W        W 5233   5.278   2.359   1.571 -0.2432  0.0345  0.2528
 1490W        W 5234   4.201   0.880   2.140  0.2689 -0.1628  0.0254
 1491W        W 5235   6.642   4.337   2.871 -0.0898 -0.2688 -0.0978
 1492W        W 5236   4.053   6.627   3.502 -0.4034 -0.1752  0.3370
 1493W        W 5237   8.281   0.349  10.439 -0.0049  0.0426  0.3167
 1494W        W 5238   6.516   8.699   9.510  0.3234  0.2290  0.0982
 1495W        W 5239   5.844   0.929   9.246 -0.0630 -0.0030  0.1294
 1496W        W 5240   2.653   7.617   4.382 -0.0120  0.1511  0.1498
 1497W        W 5241   9.021   6.627  11.421 -0.4654 -0.1145  0.1916
 1498W        W 5242   0.776   6.244  11.895  0.1964 -0.1469  0.0185
 1499W        W 5243   5.089   6.923  11.703  0.1921  0.2106 -0.1579
 1500W        W 5244   1.012   0.151   1.300 -0.2649  0.1028  0.0406
 1501W        W 5245   6.216   9.592   4.903 -0.0660  0.1858 -0.2552
 1502W        W 5246   3.657   3.855   4.127  0.1263  0.1137 -0.1738
 1503W        W 5247   6.727   7.545  11.866 -0.0067  0.1487  0.0290
 1504W        W 5248   6.665   5.208   9.643 -0.4943  0.0256 -0.3118
 1505W        W 5249   7.594   8.551  12.711 -0.1646  0.1792 -0.0372
 1506W        W 5250   2.429   2.835  11.477 -0.0863  0.0956 -0.0859
 1507W        W 5251   0.341   0.068   2.155 -0.0149 -0.1653 -0.1210
 1508W        W 5252   0.227   0.695   1.266 -0.1039 -0.2323  0.3065
 1509W        W 5253   6.746   8.893  10.332 -0.1963 -0.3058 -0.2261
 1510W        W 5254   8.816   0.949   9.688  0.0091  0.0417  0.2208
 1511W        W 5255   5.131   2.666   8.719  0.0900 -0.0348 -0.1468
 1512W        W 5256   8.054   9.585   1.814 -0.0851 -0.2655  0.1319
 1513W        W 5257   9.615   3.788   0.494  0.1222  0.1129 -0.0816
 1514W        W 5258   4.988   1.905   8.527 -0.3512  0.1944 -0.4186
 1515W        W 5259   4.140   9.423  12.134 -0.0631 -0.0742 -0.2967
 1516W        W 5260   4.605   9.567  11.803 -0.2837  0.1543 -0.0285
 1517W        W 5261   9.586   4.364   0.324  0.0640 -0.0843  0.1024
 1518W        W 5262   4.371   5.673  11.151  0.1633  0.3087  0.4437
 1519W        W 5263   2.552   6.278  10.428 -0.2341 -0.0373  0.0369
 1520W        W 5264   8.534   3.462   2.217 -0.0414  0.0669  0.1147
 1521W        W 5265   3.290   8.955   9.630  0.0222 -0.0185  0.2070
 1522W        W 5266   1.953   1.547  10.248 -0.1608  0.2628  0.2013
 1523W        W 5267   1.204   0.460   0.394 -0.3688  0.0719 -0.3774
 1524W        W 5268   3.199   7.229   3.184 -0.0553 -0.0491  0.0597
 1525W        W 5269   8.164   4.234   3.459  0.1323  0.0928  0.2693
 1526W        W 5270   4.943   0.608  12.451  0.0599 -0.0831 -0.1790
 1527W        W 5271   2.093   6.231   8.788  0.0884 -0.1113 -0.4591
 1528W        W 5272   1.420   0.603   1.273 -0.2758 -0.1348  0.0702
 1529W        W 5273   5.425   0.376   2.440 -0.0538 -0.2161 -0.0293
 1530W        W 5274   2.023   5.012   2.941  0.0214 -0.0364  0.1164
 1531W        W 5275   1.797   8.827   0.762  0.3694 -0.1794 -0.2678
 1532W        W 5276   8.085   1.015   8.707 -0.2777  0.0967 -0.0108
 1533W        W 5277   7.667   7.356   4.050 -0.0250  0.1033 -0.0338
 1534W        W 5278   2.145   4.814   1.039  0.1694  0.0652  0.2503
 1535W        W 5279   2.276   1.238  10.030  0.0612  0.0405  0.0840
 1536W        W 5280   0.613   8.824   9.906  0.0256 -0.2207  0.2088
 1537W        W 5281   0.111   7.961   0.855 -0.0682 -0.0421  0.2754
 1538W        W 5282   5.144   2.431   2.233 -0.5920  0.3570 -0.2702
 1539W        W 5283   0.657   0.674   3.661  0.1026  0.0466 -0.0168
 1540W        W 5284   7.899   7.370   0.191  0.0430  0.0501  0.0061
 1541W        W 5285   4.859   8.325   4.349 -0.1969 -0.2863 -0.1051
 1542W        W 5286   9.411   6.223   9.135  0.0265  0.0878  0.1042
 1543W        W 5287   3.423   7.576   9.089  0.0411 -0.2188 -0.0061
 1544W        W 5288   4.235   1.210  11.444 -0.0219  0.1081  0.1121
 1545W        W 5289   4.722   9.931   4.507 -0.2678  0.0329 -0.1420
 1546W        W 5290   1.049   8.878  11.168  0.2514  0.0671  0.0479
 1547W        W 5291   1.394   0.066   9.440 -0.1077  0.0322  0.2192
 1548W        W 5292   2.442   8.131   0.817 -0.0141  0.3116 -0.0065
 1549W        W 5293   7.713   5.198  12.018  0.0775  0.2294 -0.0564
 1550W        W 5294   8.153   2.728   0.770 -0.0635 -0.0145 -0.0242
 1551W        W 5295   1.583   5.422   9.833 -0.0355 -0.0531  0.4923
 1552W        W 5296   5.458   1.225   4.594 -0.1184 -0.1239 -0.0065
 1553W        W 5297   2.820   6.294  10.905  0.3593  0.0317  0.0286
 1554W        W 5298   6.432   9.487   9.091 -0.1680 -0.1804  0.1836
 1555W        W 5299   0.048   0.966  11.325  0.3158 -0.2610  0.0777
 1556W        W 5300   8.661   2.873  10.849  0.4706 -0.1766  0.0061
 1557W        W 5301   6.636   0.884   1.289  0.4244 -0.2035  0.0739
 1558W        W 5302   5.572   4.366   8.679 -0.0737 -0.1119 -0.4261
 1559W        W 5303   4.206   2.931   8.636 -0.1163 -0.1785  0.0496
 1560W        W 5304   9.239   2.339  11.961 -0.1591  0.1610  0.2045
 1561W        W 5305   1.302   5.431   4.546  0.0524 -0.0866  0.2285
 1562W        W 5306   4.450   7.905   3.227  0.0215 -0.1648 -0.1848
 1563W        W 5307   6.974   1.406   9.921 -0.0521  0.0403 -0.2296
 1564W        W 5308   2.292   1.458  12.135  0.1161  0.0406 -0.5145
 1565W        W 5309   7.257   9.351   1.796  0.0334  0.1218  0.2767
 1566W        W 5310   3.063   4.273   0.835  0.0216  0.2294 -0.0508
 1567W        W 5311   4.627   0.215   1.708  0.2842  0.0810 -0.2602
 1568W        W 5312   8.509   6.359   8.769 -0.2386 -0.2388  0.1209
 1569W        W 5313   2.900   4.719   0.526 -0.0769  0.1662  0.3125
 1570W        W 5314   0.158   5.708   9.211 -0.1133  0.1993  0.0759
 1571W        W 5315   2.764   7.646  12.456  0.2476 -0.0078  0.1823
 1572W        W 5316   1.541   4.789   9.734 -0.0921 -0.3178 -0.0238
 1573W        W 5317   2.636   9.345   0.800  0.5636 -0.0555 -0.0426
 1574W        W 5318   5.156   8.160   9.687 -0.0035 -0.2906  0.1738
 1575W        W 5319   6.076   4.942   3.425 -0.1009 -0.2335  0.3840
 1576W        W 5320   8.508   6.001   1.049 -0.3239  0.1699 -0.0805
 1577W        W 5321   5.656   0.121  11.727 -0.2163 -0.1684  0.0990
 1578W        W 5322   0.463   7.574  10.747 -0.2259  0.1651 -0.1604
 1579W        W 5323   8.912   5.433  11.005  0.0018 -0.0632 -0.0422
 1580W        W 5324   3.255   0.573  11.569 -0.0434  0.1936 -0.0383
 1581W        W 5325   9.234   4.641   9.312 -0.3364 -0.1973  0.2430
 1582W        W 5326   1.459   7.224  11.960  0.0674 -0.0646 -0.2526
 1583W        W 5327   4.787   7.909   4.092  0.0914  0.0452  0.0687
 1584W        W 5328   3.783   2.837   0.781 -0.0998  0.2900 -0.1799
 1585W        W 5329   7.079   4.342   3.512  0.0883 -0.3858 -0.1006
 1586W        W 5330   6.970   5.211   2.248  0.0396 -0.0355 -0.0345
 1587W        W 5331   2.389   6.201   4.187  0.2607 -0.0431  0.4158
 1588W        W 5332   7.812   6.104   2.701  0.2127 -0.2706 -0.0903
 1589W        W 5333   7.989   6.573   8.712 -0.0685  0.1719  0.0100
 1590W        W 5334   7.482   0.680  11.964  0.3211 -0.2697 -0.3241
 1591W        W 5335   5.247   5.740   3.740  0.0774  0.1707  0.1933
 1592W        W 5336   8.329   4.934   9.913  0.0917  0.1538 -0.1931
 1593W        W 5337   5.378   4.661   0.506 -0.0956  0.1425 -0.0407
 1594W        W 5338   7.927   9.887   1.367 -0.3046  0.1174 -0.1917
 1595W        W 5339   5.134   0.141  12.568  0.0366  0.0959  0.1302
 1596W        W 5340   7.695   9.518   8.953 -0.1750 -0.1454 -0.0172
 1597W        W 5341   3.574   0.157   4.200  0.0748  0.0047 -0.2505
 1598W        W 5342   7.065   5.299   0.563 -0.0506 -0.1258  0.1092
 1599W        W 5343   5.914   6.784   1.557  0.1676 -0.1428  0.0073
 1600W        W 5344   1.121   4.117  10.345  0.1993 -0.1776  0.1418
 1601W        W 5345   1.839   6.810   2.387  0.0714 -0.3362  0.0457
 1602W        W 5346   5.494   8.243  10.463  0.1063 -0.1673  0.1845
 1603W        W 5347   5.067   8.370   1.667 -0.0919 -0.0598  0.1872
 1604W        W 5348   8.523   2.344   2.201 -0.1454 -0.2260  0.0804
 1605W        W 5349   2.363   0.481  12.278  0.0289 -0.1575  0.2193
 1606W        W 5350   7.544   7.936   1.051  0.0522  0.1460  0.2678
 1607W        W 5351   0.035   4.480  10.881  0.0943  0.0530 -0.3391
 1608W        W 5352   9.458   2.512   1.791  0.4044 -0.2805 -0.1905
 1609W        W 5353   3.321   0.130  11.939 -0.1444  0.2943 -0.0053
 1610W        W 5354   9.742   5.314   8.916  0.3778  0.0627 -0.0827
 1611W        W 5355   7.891   9.730   0.896 -0.1295 -0.1056 -0.2743
 1612W        W 5356   5.900   4.432   1.564  0.0173 -0.0729 -0.1840
 1613W        W 5357   9.102   7.448   1.586 -0.2440  0.0804  0.0653
 1614W        W 5358   2.704   0.616   9.551 -0.0374  0.1100  0.1271
 1615W        W 5359   7.505   5.521   1.044  0.0596 -0.1150  0.3563
 1616W        W 5360   2.767   6.951   2.978  0.2490  0.1833  0.0584
 1617W        W 5361   1.384   7.003   2.113  0.1554  0.0522  0.4381
 1618W        W 5362   4.612   6.488   0.879  0.1365 -0.1381 -0.2827
 1619W        W 5363   4.344   3.336   3.974  0.2183  0.1633  0.2432
 1620W        W 5364   7.158   7.155  11.022 -0.0323 -0.0901 -0.3340
 1621W        W 5365   5.964   7.215  11.233  0.0579  0.1903  0.0872
 1622W        W 5366   4.485   5.946   4.456  0.2628  0.0063  0.0613
 1623W        W 5367   0.907   5.263   1.288  0.0460 -0.1822  0.1167
 1624W        W 5368   0.813   8.359   8.082  0.1984  0.1560  0.0062
 1625W        W 5369   0.155   6.302  11.312  0.1392 -0.4298 -0.1588
 1626W        W 5370   2.261   9.508   1.058 -0.3049 -0.1718  0.0124
 1627W        W 5371   9.473   0.100  12.702  0.0195  0.1866 -0.2181
 1628W        W 5372   0.934   4.094  11.459 -0.0877 -0.2186  0.2452
 1629W        W 5373   4.017   9.223   8.011  0.0740  0.1754  0.4650
 1630W        W 5374   6.940   9.680  10.263  0.3607 -0.4037 -0.1216
 1631W        W 5375   4.964   0.354   4.165 -0.2330 -0.1820  0.0644
 1632W        W 5376   1.080   7.209   5.163 -0.2243 -0.0083 -0.1975
 1633W        W 5377   3.697   7.999   4.258 -0.0004  0.1468 -0.2763
 1634W        W 5378   0.958   5.069  12.358  0.0563  0.0133 -0.1457
 1635W        W 5379   2.631   3.434   8.318 -0.2163 -0.0830 -0.0603
 1636W        W 5380   4.679   1.477   1.509 -0.1787 -0.1922  0.0736
 1637W        W 5381   8.629   0.734  11.854 -0.1094  0.0688 -0.0280
 1638W        W 5382   2.674   5.547   9.123  0.2329  0.0510 -0.0117
 1639W        W 5383   8.171   1.631  11.720  0.0649 -0.0802  0.0149
 1640W        W 5384   3.433   7.365   0.911 -0.0410  0.1899  0.1056
 1641W        W 5385   3.937   4.610   1.518  0.2041  0.1406  0.0446
 1642W        W 5386   6.494   3.363  10.781  0.1118  0.1011  0.1157
 1643W        W 5387   3.726   5.291   9.036 -0.0680 -0.1849  0.1833
 1644W        W 5388   6.712   0.864   9.552 -0.3296  0.3079  0.0529
 1645W        W 5389   1.458   1.378  10.461 -0.1658  0.2556  0.1521
 1646W        W 5390   1.081   6.712   3.303 -0.1306 -0.1136 -0.1314
 1647W        W 5391   0.663   6.064  12.364  0.2971 -0.0210  0.0251
 1648W        W 5392   6.192   3.591  11.405 -0.1195 -0.2042 -0.3375
 1649W        W 5393   9.788   5.174   9.840  0.0503 -0.2399 -0.0302
 1650W        W 5394   5.403   0.264  11.325 -0.2025  0.3703 -0.2910
 1651W        W 5395   3.090   0.974   1.321 -0.3826  0.1230  0.1867
 1652W        W 5396   4.993   9.161   1.205 -0.0689  0.1967  0.0604
 1653W        W 5397   6.577   1.872   9.364  0.1456 -0.1546  0.0092
 1654W        W 5398   6.473   1.667   1.144 -0.0756 -0.0132  0.0070
 1655W        W 5399   7.595   9.293   1.108 -0.1092  0.1893 -0.0523
 1656W        W 5400   0.771   5.123   0.010  0.0411  0.1016 -0.3462
 1657W        W 5401   7.076   8.472  10.242  0.2041 -0.1539 -0.0906
 1658W        W 5402   0.874   7.245  10.878 -0.0537 -0.2336 -0.0630
 1659W        W 5403   1.984   8.387   3.152 -0.0065 -0.0133  0.1559
 1660W        W 5404   3.342   9.803   2.915 -0.0973  0.0223 -0.0004
 1661W        W 5405   5.034   3.369   1.784  0.4195  0.0198  0.1102
 1662W        W 5406   4.484   4.978  11.916  0.1062 -0.0194  0.2333
 1663W        W 5407   2.239   5.099   0.026  0.1601  0.0602  0.2711
 1664W        W 5408   3.408   5.804  11.935 -0.0978 -0.2388  0.0526
 1665W        W 5409   2.588   1.904  10.656  0.0280 -0.0475 -0.0458
 1666W        W 5410   0.800   8.472  10.725  0.1504 -0.2010 -0.0120
 1667W        W 5411   6.580   5.658   1.518  0.1914  0.0280  0.0512
 1668W        W 5412   0.161   7.317   9.880 -0.0745  0.0487  0.0625
 1669W        W 5413   7.255   9.224  12.122 -0.1775 -0.2682 -0.4047
 1670W        W 5414   2.853   7.134   3.628  0.1369 -0.0309  0.0877
 1671W        W 5415   7.765   1.160  11.551 -0.0929 -0.0021 -0.3135
 1672W        W 5416   2.887   8.542   3.358 -0.2140 -0.4982  0.3649
 1673W        W 5417   9.831   1.924   3.982  0.2291 -0.0126  0.0394
 1674W        W 5418   1.892   5.905   2.876 -0.1405  0.1840 -0.2647
 1675W        W 5419   4.478   2.263   9.230 -0.0439  0.2454  0.2358
 1676W        W 5420   5.793   7.786  11.480 -0.1025  0.1458  0.2562
 1677W        W 5421   3.723   5.230  12.241  0.0677  0.2275  0.1051
 1678W        W 5422   0.086   2.738   3.687  0.0701 -0.0057  0.2310
 1679W        W 5423   4.712   6.418   0.382  0.0704 -0.1114  0.3647
 1680W        W 5424   9.924   8.642   9.085  0.1330  0.5917  0.2297
 1681W        W 5425   4.070   2.222   2.504  0.0047  0.1203 -0.2654
 1682W        W 5426   5.503   0.829   0.723  0.2316  0.2534 -0.1004
 1683W        W 5427   6.071   2.241  10.210 -0.0162  0.1701 -0.1260
 1684W        W 5428   6.302   4.460  12.308 -0.1507  0.1164  0.0392
 1685W        W 5429   3.937   9.229   3.373 -0.1916  0.3701  0.0156
 1686W        W 5430   0.639   9.155   2.338  0.3464 -0.2014 -0.3714
 1687W        W 5431   9.238   4.383   2.536 -0.3062 -0.0749  0.1516
 1688W        W 5432   8.740   2.494  10.483 -0.3286  0.3065 -0.1079
 1689W        W 5433   8.597   7.997   1.557  0.2772 -0.1028  0.3130
 1690W        W 5434   8.009   1.881  10.347  0.2752 -0.0476 -0.3210
 1691W        W 5435   4.739   5.055   9.159 -0.0272  0.1661 -0.0509
 1692W        W 5436   6.269   0.735   3.579  0.2485  0.0436 -0.1919
 1693W        W 5437   1.245   4.624   3.039  0.3513 -0.0129 -0.1285
 1694W        W 5438   7.847   9.851  12.661  0.1563  0.2051 -0.3472
 1695W        W 5439   3.948   4.174   1.313  0.1737 -0.2970  0.2751
 1696W        W 5440   5.047   6.465  11.487  0.3721  0.1787  0.0243
 1697W        W 5441   5.619   4.020   2.404 -0.3617  0.1330 -0.1595
 1698W        W 5442   7.076   7.244  11.991 -0.1286  0.1000  0.0187
 1699W        W 5443   4.482   6.390  10.663  0.2501  0.0786  0.3062
 1700W        W 5444   3.366   3.754  10.987 -0.0500  0.2989 -0.1210
 1701W        W 5445   7.305   4.438   8.959 -0.1256 -0.1043 -0.1244
 1702W        W 5446   1.594   8.730   3.488  0.0890  0.0338 -0.0243
 1703W        W 5447   4.258   2.239  12.546 -0.1143 -0.0052  0.2036
 1704W        W 5448   5.892   7.740   9.858 -0.0772 -0.1907 -0.1704
 1705W        W 5449   1.350   0.959   3.187 -0.1636  0.3026  0.1524
 1706W        W 5450   8.680   4.751  10.263 -0.4147  0.2358 -0.1665
 1707W        W 5451   3.069   8.104   3.568 -0.1425  0.1849 -0.0384
 1708W        W 5452   0.301   5.524   1.470 -0.1668 -0.1208  0.1235
 1709W        W 5453   5.854   7.296   1.842 -0.0394 -0.1823  0.0546
 1710W        W 5454   5.490   9.358  10.615  0.1768 -0.0221 -0.3146
 1711W        W 5455   4.933   4.544   9.240 -0.1740  0.0109 -0.0392
 1712W        W 5456   5.593   5.064   3.136  0.1247 -0.0908  0.0790
 1713W        W 5457   3.602   1.266   1.330 -0.0261 -0.0268  0.1918
 1714W        W 5458   1.883   3.168   2.277 -0.3544 -0.1103 -0.1114
 1715W        W 5459   3.078   0.081   0.915 -0.0218  0.1751  0.1222
 1716W        W 5460   4.755   3.919   2.497  0.2217 -0.0391  0.0588
 1717W        W 5461   9.668   6.522   8.773 -0.0803  0.1030 -0.2620
 1718W        W 5462   5.633   1.417   3.144  0.0510 -0.0337  0.2724
 1719W        W 5463   1.096   4.414  11.802 -0.2000  0.0232  0.0529
 1720W        W 5464   4.312   2.226  10.385  0.2141  0.0711 -0.0598
 1721W        W 5465   3.593   5.916   4.497 -0.0121 -0.3227 -0.0054
 1722W        W 5466   0.945   2.582  12.314 -0.4316  0.1523  0.0592
 1723W        W 5467   9.638   5.522   4.182 -0.3328 -0.0600 -0.2473
 1724W        W 5468   7.639   4.402   0.412 -0.1297 -0.0606  0.0165
 1725W        W 5469   6.434   6.764   0.417 -0.1866  0.0442 -0.0637
 1726W        W 5470   5.497   0.331  10.045  0.0841 -0.0258  0.1310
 1727W        W 5471   8.131   5.387   9.970  0.2760 -0.1608  0.1858
 1728W        W 5472   9.143   5.457   9.528 -0.1826 -0.3196  0.0002
 1729W        W 5473   3.706   7.291  11.819  0.0426 -0.3495  0.2243
 1730W        W 5474   8.502   5.304   8.507  0.0723  0.2032  0.0256
 1731W        W 5475   0.979   4.226   9.896  0.0109 -0.2900 -0.0434
 1732W        W 5476   2.183   1.564  10.701 -0.0419  0.2820  0.3093
 1733W        W 5477   2.418   5.433   2.368  0.0510 -0.0182  0.2067
 1734W        W 5478   4.865   4.775   0.508 -0.2529 -0.0598  0.0856
 1735W        W 5479   7.563   8.225   4.012 -0.0503 -0.2950  0.0630
 1736W        W 5480   1.219   5.444  11.099 -0.2295  0.1244 -0.1190
 1737W        W 5481   0.179   4.542   4.091  0.2027 -0.1363  0.2375
 1738W        W 5482   6.817   9.547   1.612 -0.0000  0.0476  0.1118
 1739W        W 5483   0.366   1.598  10.735 -0.0860  0.0926  0.0431
 1740W        W 5484   0.849   3.447   1.405 -0.2457  0.0221 -0.1785
 1741W        W 5485   5.696   2.789  11.394  0.1822 -0.1130  0.0197
 1742W        W 5486   2.675   2.750  10.990 -0.0505  0.0803  0.1870
 1743W        W 5487   1.881   5.421  12.686 -0.1035  0.3016  0.0350
 1744W        W 5488   6.873   6.069   1.409 -0.0648  0.0620 -0.2267
 1745W        W 5489   7.689   5.461   4.134  0.0632  0.1112 -0.0828
 1746W        W 5490   3.983   2.395   8.795  0.0837 -0.1675  0.1963
 1747W        W 5491   2.620   7.999   2.357 -0.0471  0.2953  0.2101
 1748W        W 5492   2.260   3.979  12.326  0.5136 -0.0791 -0.0875
 1749W        W 5493   2.786   5.670  10.140 -0.4053 -0.1122  0.2764
 1750W        W 5494   9.007   9.717   2.085 -0.3192  0.1353 -0.0476
 1751W        W 5495   7.925   2.376   4.644  0.1111 -0.3619 -0.0282
 1752W        W 5496   6.746   0.152   0.467 -0.0019  0.1243  0.0711
 1753W        W 5497   6.070   0.801   0.798  0.0255 -0.0456  0.0237
 1754W        W 5498   4.365   4.462   0.422 -0.0829  0.1741  0.0556
 1755W        W 5499   0.851   4.818   2.208 -0.3144 -0.2259  0.2340
 1756W        W 5500   7.359   6.084   1.835  0.2024 -0.2164 -0.2357
 1757W        W 5501   2.261   8.966  11.604 -0.1997 -0.1251  0.2478
 1758W        W 5502   1.009   6.170   3.136  0.1624  0.3302  0.2886
 1759W        W 5503   5.335   0.059   1.075  0.1354 -0.1693 -0.0092
 1760W        W 5504   8.072   1.373  10.331  0.1323  0.2071  0.0266
 1761W        W 5505   1.276   6.174   0.608  0.0197 -0.0514  0.2474
 1762W        W 5506   2.635   4.747  11.249  0.0643 -0.3738  0.1566
 1763W        W 5507   9.489   4.004   0.939 -0.0702  0.2637 -0.2855
 1764W        W 5508   3.448   2.335   0.486  0.3015 -0.0810 -0.1208
 1765W        W 5509   9.347   8.813   9.285 -0.4948 -0.0290  0.0473
 1766W        W 5510   6.794   8.411   2.348 -0.1493 -0.1135  0.1448
 1767W        W 5511   6.020   0.067   1.871  0.1693  0.0366 -0.1854
 1768W        W 5512   4.545   3.161   3.526 -0.3386  0.2735  0.0712
 1769W        W 5513   7.458   0.608   1.093  0.2539  0.0615 -0.3202
 1770W        W 5514   5.072   8.240  11.192  0.0695 -0.0475 -0.2066
 1771W        W 5515   2.148   9.678   9.404  0.4054  0.3749  0.1576
 1772W        W 5516   6.596   2.739  11.419 -0.1438  0.3675 -0.0917
 1773W        W 5517   7.886   3.756  12.228 -0.0981  0.4164 -0.0238
 1774W        W 5518   4.870   2.287  11.863  0.1693 -0.1475 -0.2748
 1775W        W 5519   2.407   5.294   9.734  0.0252  0.0138  0.4512
 1776W        W 5520   1.710   3.992  11.113  0.0194 -0.0015 -0.1330
 1777W        W 5521   6.928   6.357   3.482 -0.0637 -0.1428  0.0885
 1778W        W 5522   1.763   3.401  11.181 -0.0979 -0.2671  0.1482
 1779W        W 5523   2.606   4.486   0.908 -0.0834  0.0986 -0.0167
 1780W        W 5524   0.094   0.658   2.818 -0.0372 -0.2147 -0.3150
 1781W        W 5525   2.991   8.249   7.807  0.0201 -0.0493 -0.0950
 1782W        W 5526   1.983   4.351   3.131  0.2899 -0.0718 -0.0409
 1783W        W 5527   8.312   9.099   4.669 -0.1896 -0.3183 -0.2096
 1784W        W 5528   3.920   9.669   3.118  0.2460 -0.0857 -0.0452
 1785W        W 5529   4.686   9.092  11.063 -0.0507 -0.2147  0.3249
 1786W        W 5530   0.641   7.525   9.801 -0.1146 -0.0731 -0.2167
 1787W        W 5531   3.165   7.388  12.786 -0.0785 -0.0315 -0.1516
 1788W        W 5532   7.542   3.739   1.891  0.1931  0.2393  0.1184
 1789W        W 5533   0.821   9.106   1.320 -0.1151 -0.1166 -0.1021
 1790W        W 5534   3.901   5.337   3.213  0.2564  0.0077  0.1958
 1791W        W 5535   1.484   1.351  12.792 -0.4557  0.0457  0.0876
 1792W        W 5536   3.817   5.075   9.436  0.0314  0.1920  0.3530
 1793W        W 5537   2.283   8.196   0.366 -0.0807  0.0034  0.0155
 1794W        W 5538   2.254   1.866   0.092 -0.1002  0.0133  0.2844
 1795W        W 5539   2.638   6.408  11.620  0.1205 -0.0704  0.2770
 1796W        W 5540   6.981   9.209   9.950  0.1730 -0.4095 -0.2983
 1797W        W 5541   8.744   4.721   9.684 -0.2522  0.0325  0.1123
 1798W        W 5542   6.914   1.196   1.642  0.1044  0.1807  0.0189
 1799W        W 5543   5.158   6.719   0.339  0.1812 -0.2044  0.0410
 1800W        W 5544   8.044   5.673   0.838 -0.0782  0.0618 -0.0857
 1801W        W 5545   2.159   5.535   0.279  0.0209  0.0026  0.1272
 1802W        W 5546   6.407   4.711   4.793  0.1539 -0.0677  0.1381
 1803W        W 5547   7.872   0.652   0.412 -0.1569 -0.0506  0.1041
 1804W        W 5548   6.084   0.507   0.044  0.2678 -0.0562  0.3147
 1805W        W 5549   8.764   1.989   9.740  0.1721  0.2384  0.0098
 1806W        W 5550   3.218   7.770   1.004  0.0756 -0.2671 -0.0751
 1807W        W 5551   9.197   1.341  11.512 -0.1480 -0.0343  0.1479
 1808W        W 5552   1.276   0.448  11.437 -0.1882  0.2927 -0.0871
 1809W        W 5553   1.192   2.183  11.995  0.1926 -0.0341 -0.0361
 1810W        W 5554   4.376   9.733   1.477 -0.1398  0.1666 -0.1137
 1811W        W 5555   9.824   6.014   2.169 -0.1412  0.1428  0.2332
 1812W        W 5556   5.304   1.626   8.242 -0.0336  0.3357  0.1417
 1813W        W 5557   7.538   5.489  10.954  0.0105  0.2876  0.3310
 1814W        W 5558   4.539   6.911   0.342  0.2256 -0.1754 -0.2632
 1815W        W 5559   8.359   4.406   9.775 -0.1981  0.2387 -0.1595
 1816W        W 5560   4.348   1.791   3.429  0.1866 -0.0648 -0.1242
 1817W        W 5561   8.068   6.780   1.519  0.1439  0.1916  0.0687
 1818W        W 5562   9.814   6.080  11.649 -0.4799  0.3404 -0.6459
 1819W        W 5563   8.230   3.925   1.374  0.2682 -0.0886 -0.0852
 1820W        W 5564   8.989   7.498   2.101  0.0710  0.2658 -0.0846
 1821W        W 5565   5.675   0.979   8.735  0.0416  0.3353 -0.0019
 1822W        W 5566   9.047   4.243   1.199 -0.2216  0.1439 -0.0802
 1823W        W 5567   4.304   2.889   2.426 -0.0700  0.0856 -0.0794
 1824W        W 5568   3.499   0.252   1.550 -0.3240  0.1784 -0.1664
 1825W        W 5569   5.170   2.947  11.283  0.1064  0.1010 -0.2711
 1826W        W 5570   5.691   0.261  12.646  0.0390  0.2170 -0.4399
 1827W        W 5571   7.426   2.808   1.717  0.0965 -0.1856  0.1487
 1828W        W 5572   8.546   7.619   1.876 -0.1183  0.0188  0.1454
 1829W        W 5573   1.579   7.226   8.967  0.0032 -0.2959 -0.1352
 1830W        W 5574   5.305   1.402  10.738  0.0843 -0.0372  0.3378
 1831W        W 5575   2.674   9.856   4.487 -0.6842 -0.0891  0.0444
 1832W        W 5576   4.653   0.968   3.528 -0.0272  0.1321 -0.1171
 1833W        W 5577   5.117   2.438   0.149 -0.2548 -0.0549 -0.0373
 1834W        W 5578   3.796   3.493   9.303  0.4296  0.2583  0.3735
 1835W        W 5579   3.705   5.048   4.185  0.0475 -0.0225  0.0968
 1836W        W 5580   8.650   1.270  11.318  0.0719 -0.2395  0.0421
 1837W        W 5581   0.784   9.201   4.128 -0.3233 -0.3372 -0.0420
 1838W        W 5582   7.271   0.561  10.403  0.1381 -0.1806  0.0891
 1839W        W 5583   8.337   6.202   3.655  0.0019  0.0063 -0.2397
 1840W        W 5584   1.972   7.620  10.599  0.1268  0.5781  0.0469
 1841W        W 5585   7.664   6.498   2.422  0.2606  0.0822 -0.0594
 1842W        W 5586   8.728   2.339  12.149 -0.3328  0.0625 -0.2248
 1843W        W 5587   0.511   1.766  11.258 -0.0952  0.1106 -0.0722
 1844W        W 5588   3.422   6.960   4.158 -0.1686 -0.0281 -0.0936
 1845W        W 5589   7.298   8.901  11.146 -0.2565  0.0873 -0.4100
 1846W        W 5590   1.987   1.702   2.638  0.0713 -0.0333 -0.4372
 1847W        W 5591   7.791   3.566   9.301 -0.0665  0.1884 -0.5087
 1848W        W 5592   3.785   8.896   2.793  0.0711 -0.3983  0.2446
 1849W        W 5593   5.947   0.255   3.090  0.1329  0.3293 -0.1357
 1850W        W 5594   1.838   6.009  10.884 -0.1279  0.2610  0.2240
 1851W        W 5595   9.794   5.226  11.123 -0.1990  0.0111 -0.5112
 1852W        W 5596   5.067   5.151   8.801 -0.0870  0.0623  0.4150
 1853W        W 5597   8.746   7.925   9.997  0.0376  0.0450  0.2163
 1854W        W 5598   4.317   0.683   9.797  0.2483 -0.4686 -0.2088
 1855W        W 5599   4.464   5.829   4.987  0.1887  0.1946 -0.0723
 1856W        W 5600   5.236   6.797   9.884  0.0108  0.1329 -0.0960
 1857W        W 5601   2.326   1.257   0.146  0.1529  0.1578 -0.2755
 1858W        W 5602   2.956   0.869   0.905  0.1678 -0.1195 -0.0835
 1859W        W 5603   5.950   6.463  10.136  0.0117 -0.0365  0.2285
 1860W        W 5604   5.566   1.708   0.981  0.0397  0.1637  0.1334
 1861W        W 5605   4.064   9.811   1.002 -0.1103 -0.0367  0.1553
 1862W        W 5606   3.338   9.876   9.592 -0.0230  0.3180 -0.1087
 1863W        W 5607   5.300   9.650   2.086 -0.1505 -0.1403 -0.0702
 1864W        W 5608   3.432   4.107   4.529 -0.0133 -0.1631 -0.3277
 1865W        W 5609   9.269   9.880   9.093 -0.0523  0.0185  0.0349
 1866W        W 5610   7.021   5.756   0.942  0.2051  0.0606  0.2341
 1867W        W 5611   6.715   3.836  11.191 -0.2970  0.0240 -0.1009
 1868W        W 5612   0.892   1.260   3.042  0.1201 -0.2010  0.0413
 1869W        W 5613   5.925   5.530   9.556  0.0505 -0.1445 -0.0048
 1870W        W 5614   7.521   1.967   9.291  0.2715 -0.0796  0.0793
 1871W        W 5615   1.522   8.989   0.279 -0.1281 -0.1636  0.1063
 1872W        W 5616   5.990   3.200   3.932 -0.1374 -0.0679 -0.2143
 1873W        W 5617   2.315   9.233   9.422  0.0337 -0.0603  0.1688
 1874W        W 5618   2.910   0.711   4.892  0.2679 -0.0727  0.1574
 1875W        W 5619   5.586   9.316   3.153 -0.0698  0.0813  0.2824
 1876W        W 5620   0.938   7.197  12.008 -0.1643 -0.0202 -0.1163
 1877W        W 5621   0.628   1.793   1.552  0.1668  0.0690 -0.1625
 1878W        W 5622   3.526   7.669  12.531 -0.2706  0.2857 -0.1099
 1879W        W 5623   8.515   4.921  11.807 -0.1237  0.3149  0.0498
 1880W        W 5624   7.464   6.251   3.263  0.4778 -0.0267 -0.0380
 1881W        W 5625   3.131   6.710   2.074  0.0431 -0.0281  0.0700
 1882W        W 5626   5.542   1.048   3.594 -0.0379 -0.0170  0.2473
 1883W        W 5627   2.041   6.824   3.826 -0.1036 -0.1034  0.1931
 1884W        W 5628   1.489   4.217   3.256 -0.0748  0.0240 -0.1527
 1885W        W 5629   5.561   2.821   2.272  0.2322  0.0494  0.1745
 1886W        W 5630   1.382   7.593   1.388 -0.2478 -0.3103  0.0140
 1887W        W 5631   5.702   2.191  11.002  0.1487  0.1233  0.1358
 1888W        W 5632   6.249   7.946  12.503  0.0918 -0.1871  0.0810
 1889W        W 5633   6.692   2.959   7.949  0.1707  0.2972  0.1713
 1890W        W 5634   0.071   6.690  10.007 -0.2729 -0.1656 -0.2465
 1891W        W 5635   2.353   9.941  12.529  0.0129 -0.0982 -0.0102
 1892W        W 5636   3.029   6.858  10.117 -0.1393  0.1645  0.1623
 1893W        W 5637   8.237   0.652  12.382 -0.0875 -0.1198 -0.2195
 1894W        W 5638   1.710   6.762  10.496 -0.3697 -0.0384 -0.0532
 1895W        W 5639   1.283   6.436   1.101  0.0305  0.1284  0.1233
 1896W        W 5640   7.497   1.777   0.227  0.0030  0.3513  0.0333
 1897W        W 5641   8.970   8.832   1.474 -0.2900  0.1279 -0.2540
 1898W        W 5642   0.113   1.809  10.136  0.3078  0.1042 -0.1326
 1899W        W 5643   0.075   4.633  11.988 -0.1694 -0.0905 -0.0487
 1900W        W 5644   6.803   9.223  12.229 -0.1250 -0.1898  0.1879
 1901W        W 5645   1.846   7.129   3.453  0.1166  0.1264  0.1192
 1902W        W 5646   4.629   2.311   3.415 -0.0942  0.3587  0.1826
 1903W        W 5647   1.004   1.565   0.489  0.0002 -0.1910  0.1132
 1904W        W 5648   4.924   3.644   0.484 -0.3211  0.0691 -0.1827
 1905W        W 5649   7.453   6.660  11.007 -0.0505 -0.1663  0.2060
 1906W        W 5650   2.177   7.770   1.033 -0.0593  0.0440  0.2388
 1907W        W 5651   8.783   9.188  12.827 -0.0460  0.1165  0.1899
 1908W        W 5652   5.581   3.269   4.224 -0.4593 -0.0192 -0.2166
 1909W        W 5653   3.095   5.323  11.062  0.2820 -0.0191  0.0909
 1910W        W 5654   7.980   8.506  12.273 -0.1571  0.1615 -0.3277
 1911W        W 5655   5.868   3.049  11.986 -0.1044 -0.0619  0.1701
 1912W        W 5656   8.813   5.436  11.525  0.0166  0.1780  0.3420
 1913W        W 5657   5.036   7.737   4.489 -0.1925 -0.0477 -0.0322
 1914W        W 5658   4.910   3.075  11.935 -0.2142 -0.1615 -0.1186
 1915W        W 5659   0.879   1.707   1.103 -0.0162  0.0899 -0.1665
 1916W        W 5660   9.819   6.950   8.901 -0.0465 -0.0740 -0.2045
 1917W        W 5661   0.665   7.040   1.477  0.1864 -0.1412  0.0425
 1918W        W 5662   8.438   8.075  12.634 -0.1071 -0.0987  0.1512
 1919W        W 5663   6.775   6.244  12.360 -0.0764 -0.2509 -0.1303
 1920W        W 5664   2.322   8.717   2.940 -0.2838 -0.0137  0.0836
 1921W        W 5665   5.473   1.953   8.578 -0.0220 -0.1620 -0.1851
 1922W        W 5666   9.658   1.462   1.082  0.0385  0.3016  0.2361
 1923W        W 5667   4.534   3.638  11.536 -0.0873 -0.2163 -0.0317
 1924W        W 5668   8.698   8.597   4.396  0.0229  0.1985 -0.0777
 1925W        W 5669   6.390   1.134   1.654  0.2211  0.2040  0.3014
 1926W        W 5670   5.718   1.243   1.007  0.1081  0.0261  0.3942
 1927W        W 5671   0.369   9.939   4.259 -0.0583  0.2074 -0.0678
 1928W        W 5672   5.770   7.180   9.923  0.1771  0.1426  0.1618
 1929W        W 5673   4.951   0.983  10.374  0.0949  0.0386  0.2256
 1930W        W 5674   4.572   4.684   9.704 -0.0704 -0.0612  0.2628
 1931W        W 5675   3.575   1.278   8.179 -0.1280  0.0585  0.0936
 1932W        W 5676   5.537   0.046   2.803 -0.2538  0.1845 -0.1571
 1933W        W 5677   8.453   2.140  10.270  0.2403 -0.0012 -0.1098
 1934W        W 5678   6.037   7.611  10.912 -0.0572 -0.1112  0.0649
 1935W        W 5679   5.439   4.200   0.348 -0.2405 -0.2779 -0.2001
 1936W        W 5680   8.740   4.494  12.015 -0.2950 -0.0441  0.0137
 1937W        W 5681   1.073   0.539   1.692 -0.0597  0.2222  0.0265
 1938W        W 5682   9.488   8.687  12.461 -0.1964  0.2217  0.2049
 1939W        W 5683   4.165   4.457   3.166  0.0037 -0.0804  0.0507
 1940W        W 5684   2.186   5.495   4.559 -0.0636 -0.0707  0.0249
 1941W        W 5685   3.496   1.187  12.056 -0.1193 -0.1544 -0.1690
 1942W        W 5686   5.781   8.091   3.144 -0.0103 -0.2227  0.0154
 1943W        W 5687   8.140   5.355   0.377 -0.2036 -0.0321  0.0818
 1944W        W 5688   1.072   5.679  11.693  0.1439 -0.3432  0.1498
 1945W        W 5689   3.939   5.231  10.498  0.2162  0.1233  0.2465
 1946W        W 5690   7.694   8.859   0.797 -0.4355 -0.3017 -0.1356
 1947W        W 5691   9.848   4.106  11.197  0.1544 -0.0693  0.1763
 1948W        W 5692   0.257   7.269   1.713  0.1089 -0.0764  0.2182
 1949W        W 5693   9.719   6.461   1.231 -0.0195 -0.2214  0.0413
 1950W        W 5694   8.967   2.704  11.872  0.2397  0.1369 -0.0336
 1951W        W 5695   5.610   1.164  11.033  0.2842  0.2304 -0.1201
 1952W        W 5696   6.958   2.606   9.952 -0.6547 -0.2232  0.3021
 1953W        W 5697   9.493   2.609   3.287  0.3414 -0.0480  0.1677
 1954W        W 5698   5.298   7.446   0.517  0.0274 -0.2471  0.0367
 1955W        W 5699   1.453   7.687   9.615 -0.2229  0.0480  0.0559
 1956W        W 5700   5.330   1.370   0.568 -0.0885 -0.1051 -0.1499
 1957W        W 5701   8.702   7.691   3.548  0.0101  0.3508  0.2217
 1958W        W 5702   4.194   9.257   2.931 -0.0869 -0.0033  0.5160
 1959W        W 5703   1.406   9.713   1.688 -0.0468 -0.0172 -0.1783
 1960W        W 5704   0.144   3.839  10.157  0.1504 -0.1363 -0.1659
 1961W        W 5705   5.673   5.798  10.948 -0.2546  0.1413 -0.1326
 1962W        W 5706   9.755   0.140  10.697  0.2582  0.0709  0.0820
 1963W        W 5707   4.185   5.972  10.531  0.2967  0.0874  0.0532
 1964W        W 5708   2.689   7.354  11.473 -0.1076 -0.0059  0.0843
 1965W        W 5709   0.550   2.303  12.500  0.1203  0.3478 -0.1024
 1966W        W 5710   7.780   7.801   3.527 -0.1691  0.0098  0.0677
 1967W        W 5711   8.021   2.641   0.321 -0.0564  0.2994 -0.1152
 1968W        W 5712   7.799   7.958  12.383 -0.1839 -0.0007 -0.1852
 1969W        W 5713   4.798   8.347  12.093 -0.0678  0.1042 -0.2082
 1970W        W 5714   7.700   4.945  10.028 -0.2236  0.0396 -0.2099
 1971W        W 5715   5.280   1.612   3.462 -0.3061  0.1714  0.1602
 1972W        W 5716   0.644   4.310  12.175 -0.0602  0.0436 -0.2752
 1973W        W 5717   9.158   8.467  12.147 -0.1669  0.3881 -0.0182
 1974W        W 5718   3.394   5.151  12.602  0.1544  0.1893  0.0140
 1975W        W 5719   2.658   5.717   4.143  0.0336  0.0751  0.0030
 1976W        W 5720   7.914   5.968   9.829 -0.0651 -0.1096 -0.2246
 1977W        W 5721   5.934   9.335   1.175  0.2233  0.2446  0.0825
 1978W        W 5722   9.650   9.374  10.074 -0.1517  0.1124 -0.3231
 1979W        W 5723   1.783   4.008  12.083 -0.1650  0.1279  0.1797
 1980W        W 5724   0.859   0.667   9.815  0.1154  0.0176  0.2652
 1981W        W 5725   7.088   0.930   0.910 -0.0063 -0.2431 -0.0050
 1982W        W 5726   7.684   4.479  11.728 -0.0139  0.3763  0.0692
 1983W        W 5727   7.278   5.253   1.876 -0.0886  0.3140 -0.0901
 1984W        W 5728   3.352   2.699   0.006 -0.0041 -0.4218  0.0434
 1985W        W 5729   6.485   7.463  12.778  0.2666 -0.1224 -0.0521
 1986W        W 5730   5.733   6.706   9.782 -0.0931 -0.3014  0.1174
 1987W        W 5731   1.219   7.948   1.747  0.1223  0.0325 -0.3125
 1988W        W 5732   9.848   6.810  10.967 -0.0999  0.0858  0.0185
 1989W        W 5733   7.917   3.458   4.446 -0.1095  0.0995 -0.3580
 1990W        W 5734   8.041   1.975   1.208 -0.2715  0.0588  0.0179
 1991W        W 5735   6.242   4.479   3.287 -0.2291 -0.1249  0.0775
 1992W        W 5736   0.189   6.735  10.478 -0.0543 -0.1009 -0.3249
 1993W        W 5737   8.623   0.182   9.753  0.1482  0.2817 -0.2164
 1994W        W 5738   3.958   6.786  10.687 -0.2069 -0.2404  0.1512
 1995W        W 5739   3.873   7.425   8.872  0.1143  0.1182  0.0067
 1996W        W 5740   8.606   0.269   1.512  0.0658 -0.1209 -0.2234
 1997W        W 5741   5.746   2.829  12.525 -0.3221 -0.0456  0.0688
 1998W        W 5742   0.264   7.593  10.272  0.0631 -0.0413  0.1119
 1999W        W 5743   9.664   7.931  11.387  0.2771  0.0718  0.0468
 2000W        W 5744   0.423   1.790  12.716  0.1910  0.0010 -0.0696
 2001W        W 5745   1.917   0.912   0.035 -0.0677 -0.1797 -0.0530
 2002W        W 5746   4.588   5.236   3.209  0.2215 -0.1634  0.0574
 2003W        W 5747   5.685   9.257  12.606 -0.1316 -0.1586  0.0287
 2004W        W 5748   9.170   6.527   1.196  0.2811 -0.2632  0.3649
 2005W        W 5749   1.057   5.414   2.062  0.2012 -0.0502 -0.0572
 2006W        W 5750   9.695   4.557  10.449 -0.2071  0.2773  0.0304
 2007W        W 5751   7.665   6.131   4.115  0.1320  0.0696  0.2351
 2008W        W 5752   1.001   4.422   1.558  0.1045 -0.0420 -0.0107
 2009W        W 5753   8.516   5.978   4.117  0.0034 -0.0869  0.0459
 2010W        W 5754   2.485   5.790  11.815  0.0570  0.1592  0.0244
 2011W        W 5755   5.428   4.388   2.781  0.4178 -0.2376  0.1196
 2012W        W 5756   0.237   4.821   9.787 -0.3618 -0.1529 -0.1256
 2013W        W 5757   8.361   8.238  12.041 -0.2280  0.2563  0.2360
 2014W        W 5758   8.267   1.508   3.307 -0.0717 -0.1287  0.0200
 2015W        W 5759   8.459   7.578   0.055 -0.0637 -0.3678 -0.4454
 2016W        W 5760   3.828   5.758   4.057 -0.0507 -0.2428  0.2070
 2017W        W 5761   3.999   4.339  11.068 -0.3710  0.0225  0.3411
 2018W        W 5762   3.674   9.581   5.022  0.0013  0.1170  0.1431
 2019W        W 5763   9.552   6.958   4.381  0.2338 -0.0287  0.0665
 2020W        W 5764   1.029   2.761  11.082 -0.1594  0.0835 -0.1434
 2021W        W 5765   8.736   1.881   3.456  0.0609 -0.1720  0.0184
 2022W        W 5766   4.519   2.926   1.129 -0.0375  0.0703 -0.1046
 2023W        W 5767   9.135   7.822  10.400  0.1381 -0.0472  0.2278
 2024W        W 5768   9.790   4.646   9.513  0.1976 -0.4348  0.0648
 2025W        W 5769   7.930   0.337   1.022  0.0824 -0.2156  0.2554
 2026W        W 5770   5.841   2.484   9.194 -0.1306 -0.1149 -0.1451
 2027W        W 5771   0.143   2.137   9.403  0.1633  0.0084  0.1145
 2028W        W 5772   3.972   9.097   2.359  0.1713  0.1549 -0.0226
 2029W        W 5773   7.122   7.979   9.895  0.1642 -0.1047  0.1400
 2030W        W 5774   3.528   3.135  10.357 -0.3034 -0.0700 -0.2527
 2031W        W 5775   7.141   8.652   8.112 -0.2499  0.1356  0.1017
 2032W        W 5776   4.785   5.525   0.749  0.3302 -0.1453 -0.2742
 2033W        W 5777   8.104   0.998   1.791  0.1802 -0.0623 -0.1398
 2034W        W 5778   9.180   9.359   0.334 -0.0769  0.2148 -0.1345
 2035W        W 5779   9.160   2.214  10.995 -0.0493  0.0319  0.0035
 2036W        W 5780   7.630   7.187  11.216 -0.3833 -0.0215  0.1533
 2037W        W 5781   3.992   9.089   1.428  0.1781  0.0281  0.0951
 2038W        W 5782   5.224   4.687   3.139  0.1314 -0.2304 -0.3258
 2039W        W 5783   1.955   0.414  12.659 -0.1651  0.1193 -0.0067
 2040W        W 5784   4.412   7.953   0.383  0.0091  0.0031 -0.1784
 2041W        W 5785   0.963   7.711  10.995 -0.1712  0.1519 -0.1041
 2042W        W 5786   9.298   8.040  11.869 -0.1120  0.3885 -0.2227
 2043W        W 5787   0.553   8.555   8.946 -0.2984  0.0338  0.0848
 2044W        W 5788   6.636   9.794   4.624  0.0737  0.0311 -0.1900
 2045W        W 5789   4.191   6.134   3.910 -0.0423  0.0557  0.2073
 2046W        W 5790   6.120   2.751   2.227  0.0954  0.0638  0.2245
 2047W        W 5791   5.568   1.752  10.155 -0.0545  0.2480 -0.2149
 2048W        W 5792   3.916   1.928   3.108 -0.0841  0.0271 -0.2449
 2049W        W 5793   8.712   1.491   9.702 -0.0824  0.1146 -0.1824
 2050W        W 5794   5.123   4.139   8.975 -0.0820 -0.3194  0.1471
 2051W        W 5795   4.481   7.479  12.250  0.3121 -0.4231 -0.1898
 2052W        W 5796   3.985   0.785   1.253 -0.0454  0.2605 -0.0624
 2053W        W 5797   1.339   3.642   3.233 -0.1141 -0.2728  0.2994
 2054W        W 5798   5.245   5.642   0.390  0.2759  0.0873 -0.1244
 2055W        W 5799   3.323   2.944  11.488 -0.5627 -0.0064 -0.1245
 2056W        W 5800   6.066   0.231   3.562 -0.0482 -0.1278  0.1426
 2057W        W 5801   8.008   9.439  12.375 -0.0741  0.0646  0.1252
 2058W        W 5802   6.643   5.553   0.608 -0.0778  0.0897  0.1021
 2059W        W 5803   0.751   4.453  12.701 -0.0737  0.1169 -0.1300
 2060W        W 5804   8.055   3.174  10.466  0.2814 -0.0166 -0.0033
 2061W        W 5805   0.197   6.085   3.223  0.1910 -0.0810 -0.6183
 2062W        W 5806   2.680   9.302   1.340  0.2591 -0.4611  0.0127
 2063W        W 5807   1.536   1.082   1.111  0.2013  0.1579  0.2273
 2064W        W 5808   2.975   5.659   1.419  0.0996 -0.3259  0.1911
 2065W        W 5809   8.414   1.963  10.737  0.0553  0.1504  0.0325
 2066W        W 5810   7.274   6.199  12.271  0.1946  0.3130 -0.2709
 2067W        W 5811   0.977   6.983   2.454 -0.2033  0.0167  0.0022
 2068W        W 5812   2.852   6.461   3.005 -0.0732  0.3831 -0.0999
 2069W        W 5813   4.718   3.095   2.626  0.0679  0.0602 -0.0019
 2070W        W 5814   2.700   2.282   1.934  0.1301  0.1105  0.0405
 2071W        W 5815   7.197   3.969  10.585  0.1091  0.0065 -0.0385
 2072W        W 5816   5.421   7.545   1.261  0.0510  0.0431  0.3264
 2073W        W 5817   7.885   2.743   1.858 -0.0943 -0.0923 -0.0560
 2074W        W 5818   4.603   7.914  11.935  0.0353  0.0674 -0.2601
 2075W        W 5819   7.101   6.963   9.323 -0.0359  0.1623 -0.1925
 2076W        W 5820   4.166   7.312   4.699  0.1046  0.0054 -0.2161
 2077W        W 5821   8.765   8.925   9.486  0.1018 -0.1266  0.2347
 2078W        W 5822   7.908   1.048   3.895  0.2145  0.2714 -0.1715
 2079W        W 5823   4.208   6.858   2.168 -0.2753  0.0219 -0.0376
 2080W        W 5824   2.353   6.370   0.588 -0.0772 -0.0375 -0.0089
 2081W        W 5825   6.460   3.578   0.051  0.1645  0.1545  0.1062
 2082W        W 5826   1.796   9.132   9.582 -0.1444  0.1105  0.0298
 2083W        W 5827   1.316   8.757   0.681  0.0324 -0.1251  0.1278
 2084W        W 5828   0.315   6.777  11.907 -0.1898  0.0274  0.4484
 2085W        W 5829   9.731   7.591   0.772  0.3698  0.5107  0.1762
 2086W        W 5830   4.645   5.330   2.737 -0.1132 -0.3126  0.0963
 2087W        W 5831   0.519   9.185  12.508 -0.0912  0.2689  0.0719
 2088W        W 5832   3.610   1.571   0.902 -0.0812  0.1176 -0.2664
 2089W        W 5833   9.539   1.803   0.134 -0.2673 -0.2162  0.0152
 2090W        W 5834   2.989   5.811  11.034  0.1973  0.0907  0.0099
 2091W        W 5835   2.227   7.985  11.797  0.0860  0.3220  0.3545
 2092W        W 5836   3.425   9.845   1.255 -0.1936 -0.3644  0.2648
 2093W        W 5837   8.079   4.545   8.631  0.1841  0.1725  0.0304
 2094W        W 5838   2.833   1.726  12.627 -0.0679  0.1958 -0.1201
 2095W        W 5839   4.970   1.219   0.104 -0.0777 -0.2038  0.2109
 2096W        W 5840   6.367   5.218  11.523  0.0533 -0.0867 -0.2159
 2097W        W 5841   4.335   5.372   0.969  0.2102  0.1683 -0.0383
 2098W        W 5842   7.281   0.791   0.172  0.1934  0.2439 -0.2903
 2099W        W 5843   3.996   4.549   0.059 -0.1348  0.2919  0.2297
 2100W        W 5844   2.015   2.047   3.059  0.1085  0.0915  0.1974
 2101W        W 5845   3.403   7.920   3.866 -0.1629  0.0458 -0.0318
 2102W        W 5846   6.193   2.572   4.236 -0.1659  0.1768  0.0166
 2103W        W 5847   2.425   8.830   1.398  0.0432 -0.2143 -0.0972
 2104W        W 5848   4.588   7.495   1.720 -0.1693  0.1323 -0.1021
 2105W        W 5849   0.171   3.992  10.697  0.0420 -0.0300 -0.1322
 2106W        W 5850   5.219   4.593   2.294  0.2105  0.2254  0.1381
 2107W        W 5851   1.735   0.281   3.581 -0.0079  0.3227 -0.0253
 2108W        W 5852   7.533   9.583  12.258 -0.1067  0.0068  0.1893
 2109W        W 5853   2.333   9.363  11.278  0.1726 -0.1109 -0.2519
 2110W        W 5854   8.749   0.692  10.483  0.0323  0.0551 -0.0480
 2111W        W 5855   4.944   1.662  10.988  0.2180 -0.0334  0.3085
 2112W        W 5856   3.742   0.034   2.588 -0.2545  0.0430  0.1440
 2113W        W 5857   6.021   1.679  11.786  0.0547  0.1642 -0.2182
 2114W        W 5858   8.969   2.245  10.070 -0.2088  0.0338 -0.0604
 2115W        W 5859   7.023   3.060  10.634  0.0381 -0.0018 -0.0478
 2116W        W 5860   7.616   7.470   2.319 -0.2706  0.0049 -0.1328
 2117W        W 5861   3.096   5.072  11.592 -0.1385 -0.2177  0.2199
 2118W        W 5862   7.605   3.126   3.550  0.2426 -0.2150 -0.1667
 2119W        W 5863   9.580   7.141  12.013  0.0990  0.1355  0.0069
 2120W        W 5864   6.909   9.030   8.893 -0.1528 -0.1135  0.3287
 2121W        W 5865   2.218   1.367   0.637 -0.1411 -0.0853  0.2653
 2122W        W 5866   6.056   6.000   9.917  0.0742  0.1129  0.3970
 2123W        W 5867   8.430   8.426   1.748 -0.1095 -0.1509 -0.0480
 2124W        W 5868   2.195   0.406   3.861 -0.0439 -0.2214 -0.1872
 2125W        W 5869   0.102   2.011   0.174 -0.0135 -0.0271 -0.3348
 2126W        W 5870   2.904   2.822   4.558 -0.1585 -0.6350  0.0419
 2127W        W 5871   7.456   3.896   2.412  0.1407 -0.0255 -0.1435
 2128W        W 5872   7.330   7.258   4.627  0.2495 -0.4371  0.4086
 2129W        W 5873   2.757   4.837   9.829 -0.1996  0.0472 -0.1307
 2130W        W 5874   3.409   9.265  12.423 -0.1491  0.0629 -0.2637
 2131W        W 5875   9.165   4.144  10.484  0.1298  0.1284 -0.1344
 2132W        W 5876   5.315   2.776   1.833  0.0670  0.2607  0.1528
 2133W        W 5877   9.372   7.942   2.816 -0.0032 -0.1157 -0.3438
 2134W        W 5878   0.543   6.435   0.019 -0.0920  0.2343 -0.0571
 2135W        W 5879   1.026   9.227  11.843 -0.0837  0.0429 -0.1713
 2136W        W 5880   9.517   4.424   3.327  0.0480 -0.2857  0.1952
 2137W        W 5881   4.124   6.588   0.472  0.2446  0.2645  0.1638
 2138W        W 5882   6.009   2.304   0.388  0.1259 -0.0238  0.0231
 2139W        W 5883   1.826   6.674  12.191 -0.0727 -0.2053 -0.0260
 2140W        W 5884   0.615   8.915   3.225  0.3944  0.1725 -0.3181
 2141W        W 5885   0.194   8.548   9.991 -0.3957 -0.0411 -0.0124
 2142W        W 5886   5.824   5.858   1.839 -0.0949 -0.1131  0.0524
 2143W        W 5887   5.243   0.414   0.706 -0.2292  0.0543  0.3197
 2144W        W 5888   8.375   7.017   9.988 -0.0064 -0.2316 -0.1020
 2145W        W 5889   4.324   6.350   9.211 -0.1501 -0.1224 -0.0571
 2146W        W 5890   3.930   8.119   8.316 -0.0407 -0.1908 -0.3880
 2147W        W 5891   4.571   8.600   1.604 -0.3033  0.0404  0.0216
 2148W        W 5892   4.425   9.068  11.921 -0.1890  0.1021 -0.0780
 2149W        W 5893   3.896   2.646   2.274 -0.0485  0.3004 -0.1327
 2150W        W 5894   9.565   4.172   2.845  0.0370  0.1177 -0.0453
 2151W        W 5895   3.266   5.247   1.312 -0.1291  0.2592 -0.0185
 2152W        W 5896   1.835   1.465   3.934 -0.1001 -0.0755 -0.0682
 2153W        W 5897   0.252   6.093  10.867 -0.1076  0.1785 -0.0245
 2154W        W 5898   1.099   9.608   9.589  0.0265  0.0386  0.0693
 2155W        W 5899   2.590   6.767   3.879  0.0546 -0.0720 -0.0179
 2156W        W 5900   7.640   2.987   0.479  0.0062 -0.0939 -0.0730
 2157W        W 5901   7.030   4.210   2.151  0.1068  0.2495  0.1274
 2158W        W 5902   1.607   1.623  10.877 -0.1081 -0.3212 -0.3105
 2159W        W 5903   5.895   0.069   0.223 -0.1954  0.2393  0.3114
 2160W        W 5904   8.552   3.091   2.604  0.1110  0.1158  0.1629
 2161W        W 5905   4.231   2.506   0.301 -0.0595 -0.0611  0.0775
 2162W        W 5906   8.471   7.352  10.493  0.1250  0.0684  0.2803
 2163W        W 5907   7.481   8.834   8.814 -0.0211 -0.0728 -0.3711
 2164W        W 5908   5.454   3.744   0.660  0.4284  0.1473  0.2493
 2165W        W 5909   8.486   3.618   1.732 -0.0399  0.4406  0.2803
 2166W        W 5910   4.056   4.517  10.341  0.1807 -0.3947 -0.0556
 2167W        W 5911   4.432   2.046   2.994 -0.0264  0.0349  0.0019
 2168W        W 5912   6.065   5.690  11.267  0.1195 -0.0445 -0.0512
 2169W        W 5913   2.268   3.696   2.861 -0.0936 -0.1318  0.3072
 2170W        W 5914   0.617   9.661   3.952 -0.1625  0.0619  0.1815
 2171W        W 5915   4.042   4.329   2.282 -0.0049 -0.1197 -0.3220
 2172W        W 5916   9.425   6.910   0.955 -0.1244  0.0310  0.0778
 2173W        W 5917   8.953   8.040   2.486 -0.4431  0.0428  0.0039
 2174W        W 5918   6.528   5.640  12.468 -0.0756 -0.1412 -0.0257
 2175W        W 5919   4.477   4.588   3.566 -0.0426  0.1474 -0.0337
 2176W        W 5920   6.944   1.233  12.241  0.1164  0.2565 -0.2717
 2177W        W 5921   5.575   3.161   0.247 -0.2799  0.0770 -0.1294
 2178W        W 5922   1.243   0.476  12.323 -0.0894 -0.0185  0.4890
 2179W        W 5923   0.358   5.348  11.097  0.0965 -0.1013 -0.1443
 2180W        W 5924   8.504   6.187  12.139 -0.2201 -0.2669 -0.0806
 2181W        W 5925   6.322   9.544   3.724  0.0503  0.0702 -0.2448
 2182W        W 5926   2.821   2.588  12.280  0.0327 -0.0992  0.1502
 2183W        W 5927   5.396   5.569   3.281 -0.0625  0.2420  0.1014
 2184W        W 5928   1.148   2.145   3.086 -0.0890 -0.3039  0.0465
 2185W        W 5929   0.556   3.934   9.212  0.1823 -0.1515  0.2334
 2186W        W 5930   9.646   9.144   0.311 -0.2261  0.3952  0.2275
 2187W        W 5931   3.573   0.249   3.200  0.0302 -0.5811  0.0948
 2188W        W 5932   4.359   0.179   8.557  0.1906  0.0234  0.3301
 2189W        W 5933   8.644   3.612   4.013 -0.0149  0.0727 -0.0043
 2190W        W 5934   1.853   4.294   9.678  0.0167  0.0504 -0.1874
 2191W        W 5935   0.943   9.655  11.567  0.2311  0.2824 -0.0310
 2192W        W 5936   0.196   0.188   2.619  0.1121  0.0220 -0.0851
 2193W        W 5937   8.525   9.696  11.007 -0.3505  0.3755  0.3715
 2194W        W 5938   4.780   6.269  12.256  0.0342  0.1347 -0.3146
 2195W        W 5939   6.987   4.767  11.105 -0.0147 -0.0363  0.1668
 2196W        W 5940   2.995   6.738   8.845  0.2133  0.0591 -0.0991
 2197W        W 5941   1.667   6.875   3.089 -0.0122  0.1146 -0.1834
 2198W        W 5942   1.557   9.726   4.180  0.2154 -0.1892 -0.2675
 2199W        W 5943   6.148   9.785   3.316 -0.0001  0.1627  0.0796
 2200W        W 5944   5.533   9.373   0.798  0.1885 -0.1573  0.1033
 2201W        W 5945   2.151   0.652  10.277 -0.0766 -0.2321  0.0207
 2202W        W 5946   8.597   7.642   0.659 -0.2201 -0.2185  0.2031
 2203W        W 5947   2.256   3.463   2.459 -0.1093 -0.3285  0.1011
 2204W        W 5948   9.510   7.647   3.182 -0.0344 -0.0582  0.0498
 2205W        W 5949   8.000   3.458   9.844  0.1168 -0.1956 -0.0544
 2206W        W 5950   5.319   6.486   9.532 -0.0242 -0.2897  0.3165
 2207W        W 5951   9.493   3.478   1.665 -0.1145 -0.0453 -0.0410
 2208W        W 5952   2.184   2.189   3.735 -0.1429  0.1453  0.0165
 2209W        W 5953   0.339   2.158   0.663 -0.1392  0.1940  0.0735
 2210W        W 5954   3.196   1.961  11.220  0.1507 -0.2496 -0.2195
 2211W        W 5955   4.769   1.024   1.290 -0.0289 -0.0739 -0.0322
 2212W        W 5956   8.736   0.844  12.405 -0.2773 -0.1169 -0.0808
 2213W        W 5957   7.952   8.253   9.341 -0.0313  0.0610  0.3517
 2214W        W 5958   1.250   7.724   3.997 -0.1407 -0.5646 -0.0473
 2215W        W 5959   3.280   2.158  12.110  0.2479  0.2270  0.0034
 2216W        W 5960   4.696   7.168   9.837  0.1224  0.1443 -0.2207
 2217W        W 5961   0.442   3.369  10.890 -0.0702  0.0916 -0.0554
 2218W        W 5962   4.621   2.584   9.599  0.0585  0.1799 -0.0579
 2219W        W 5963   9.120   4.907   2.434  0.3927 -0.1813 -0.2822
 2220W        W 5964   9.751   7.430   0.273 -0.3847  0.0441 -0.1343
 2221W        W 5965   1.905   5.864   9.053 -0.0700 -0.2403  0.0777
 2222W        W 5966   6.812   8.324  12.349  0.1886  0.2276  0.0834
 2223W        W 5967   6.602   9.550   3.305 -0.0154  0.0800  0.1524
 2224W        W 5968   1.922   5.497   3.130 -0.1485  0.1851  0.0934
 2225W        W 5969   6.439   8.595  10.074  0.1482 -0.2185  0.0767
 2226W        W 5970   3.046   7.535   0.423 -0.0262 -0.0480 -0.0242
 2227W        W 5971   5.672   2.569   0.109 -0.1687 -0.3440  0.0390
 2228W        W 5972   6.045   2.029   3.451  0.0125  0.1573 -0.0663
 2229W        W 5973   9.422   7.359   1.196  0.2683 -0.0865 -0.1738
 2230W        W 5974   3.529   6.474   9.897  0.0126  0.0647 -0.0591
 2231W        W 5975   8.832   0.613   0.041  0.1981 -0.2419 -0.0061
 2232W        W 5976   9.019   6.071   0.962  0.0334  0.3301  0.1848
 2233W        W 5977   9.814   2.424  11.613 -0.2015  0.2679  0.0211
 2234W        W 5978   6.424   5.718   0.195 -0.0464  0.1523  0.1874
 2235W        W 5979   9.262   5.365  11.898  0.0846  0.4435  0.3065
 2236W        W 5980   0.716   6.762   4.138  0.2477 -0.2110  0.0936
 2237W        W 5981   0.474   1.839   2.036  0.0031 -0.1065 -0.1091
 2238W        W 5982   5.550   8.063   9.937 -0.1725 -0.1475 -0.2544
 2239W        W 5983   4.686   7.889   2.236 -0.0312 -0.0466  0.2248
 2240W        W 5984   8.449   6.446  11.508  0.0188  0.0935 -0.0020
 2241W        W 5985   8.804   5.669   3.078 -0.2202  0.0455 -0.1174
 2242W        W 5986   4.194   4.999   4.199  0.2860 -0.3674  0.1422
 2243W        W 5987   1.168   4.780  12.700  0.1439 -0.2177 -0.0158
 2244W        W 5988   3.811   5.017  12.692 -0.0088 -0.1028 -0.0157
 2245W        W 5989   2.412   9.835   4.043 -0.0841  0.0565  0.0382
 2246W        W 5990   3.358   6.733  11.413 -0.1885 -0.0302  0.0498
 2247W        W 5991   5.277   0.889   9.430  0.1172 -0.0166  0.0387
 2248W        W 5992   4.788   0.587   8.549 -0.1487  0.1666  0.3116
 2249W        W 5993   6.955   8.809   2.727 -0.1582  0.1399  0.3397
 2250W        W 5994   7.354   9.229   3.559  0.4987  0.0469 -0.0889
 2251W        W 5995   8.693   1.683   9.293 -0.4038 -0.0228  0.0554
 2252W        W 5996   3.680   1.117   4.423 -0.1575 -0.4792  0.0055
 2253W        W 5997   0.237   5.671  12.490 -0.2130 -0.0219  0.0590
 2254W        W 5998   6.280   3.107   3.485  0.0595  0.0152 -0.2553
 2255W        W 5999   5.635   8.552   9.470  0.0097  0.0783 -0.1140
 2256W        W 6000   4.809   2.389   0.821  0.1520 -0.1410  0.0468
 2257W        W 6001   7.608   2.927   2.219  0.0385  0.1153 -0.1227
 2258W        W 6002   2.148   5.057   2.338  0.1445  0.0556 -0.3340
 2259W        W 6003   2.064   1.092   0.987  0.1241  0.0347 -0.0676
 2260W        W 6004   8.832   4.973  11.150 -0.2058 -0.4301  0.0930
 2261W        W 6005   3.237   6.707   0.354 -0.1005 -0.1545 -0.0441
 2262W        W 6006   3.447   7.559   2.023  0.1260 -0.0865 -0.2172
 2263W        W 6007   3.357   4.480   0.450 -0.0947  0.1835 -0.0295
 2264W        W 6008   9.406   4.770  10.805 -0.0774  0.1897  0.0697
 2265W        W 6009   4.741   4.403   3.139  0.0493  0.0810 -0.1613
 2266W        W 6010   9.755   4.126   1.781  0.1226  0.1746 -0.0034
 2267W        W 6011   8.442   8.003   4.015  0.0672  0.1459 -0.1957
 2268W        W 6012   8.249   5.703   2.896 -0.2084  0.0439 -0.1992
 2269W        W 6013   3.239   2.906   4.009 -0.1453 -0.0135  0.3538
 2270W        W 6014   0.663   8.444  12.759  0.1568 -0.2441 -0.0822
 2271W        W 6015   5.276   6.657  10.664 -0.1558  0.2349 -0.0896
 2272W        W 6016   9.468   7.778   1.760 -0.0452 -0.4882  0.2631
 2273W        W 6017   7.455   5.987   0.737 -0.3049  0.0343  0.1879
 2274W        W 6018   6.499   5.881   8.413  0.0478 -0.1249  0.1496
 2275W        W 6019   4.228   4.790  11.244 -0.6329  0.5696 -0.0526
 2276W        W 6020   7.554   0.938   8.450  0.1094 -0.2689  0.0520
 2277W        W 6021   8.134   9.281  10.980  0.0732  0.3791  0.1187
 2278W        W 6022   8.294   3.390   1.312 -0.2699  0.3190 -0.1144
 2279W        W 6023   9.553   6.876   9.900  0.0063 -0.0582  0.0612
 2280W        W 6024   3.703   1.364   0.410 -0.5430 -0.0819 -0.0965
 2281W        W 6025   5.638   9.444   4.005  0.0121  0.0202 -0.2129
 2282W        W 6026   3.794   8.339  12.048  0.0464  0.0174  0.1623
 2283W        W 6027   6.719   8.115  11.569 -0.1876 -0.2383  0.0838
 2284W        W 6028   5.216   2.942   4.020  0.2205 -0.4528 -0.0349
 2285W        W 6029   3.906   8.523  12.601 -0.2052  0.0282 -0.1198
 2286W        W 6030   1.973   1.135  10.528 -0.1884 -0.3779  0.1962
 2287W        W 6031   8.492   1.766   4.475 -0.1311 -0.3280 -0.2943
 2288W        W 6032   8.278   1.264   9.524  0.0235 -0.1026 -0.1294
 2289W        W 6033   8.929   9.089   1.094  0.0079 -0.2499  0.0706
 2290W        W 6034   8.638   7.282   2.350  0.2241  0.3701  0.0049
 2291W        W 6035   7.142   0.613  11.590 -0.2226 -0.0315  0.3056
 2292W        W 6036   6.081   8.425   9.300 -0.0510 -0.0749  0.3279
 2293W        W 6037   8.407   5.650  11.208 -0.1917  0.0969 -0.2270
 2294W        W 6038   0.406   2.408  10.419 -0.1417  0.0319  0.0010
 2295W        W 6039   9.756   8.119   2.135 -0.0297 -0.4714 -0.2204
 2296W        W 6040   8.468   5.767   9.967 -0.2277 -0.2801  0.1796
 2297W        W 6041   5.408   5.217   9.612  0.0207  0.1187 -0.3421
 2298W        W 6042   8.878   9.731   3.062  0.0346  0.4269  0.0858
 2299W        W 6043   1.644   8.205   1.708  0.1733  0.0108 -0.0793
 2300W        W 6044   0.144   7.726  11.056 -0.0881 -0.4219 -0.2653
 2301W        W 6045   2.486   8.612   0.536 -0.4520  0.3257 -0.0334
 2302W        W 6046   4.439   6.671   1.372 -0.0876  0.1115 -0.1219
 2303W        W 6047   6.923   8.575  11.275  0.3038 -0.4722 -0.0127
 2304W        W 6048   9.927   8.233   1.261 -0.0496  0.1213  0.0649
 2305W        W 6049   3.461   7.604   2.653 -0.1091 -0.0835  0.0736
 2306W        W 6050   7.404   8.438   8.488 -0.0477  0.1846 -0.0539
 2307W        W 6051   7.816   2.407   1.416  0.1169  0.0549 -0.1523
 2308W        W 6052   4.832   2.481   1.836 -0.1610 -0.0779 -0.0780
 2309W        W 6053   8.217   6.609   2.949 -0.4982  0.1323 -0.3755
 2310W        W 6054   7.888   2.455  12.028  0.0655 -0.1331 -0.2488
 2311W        W 6055   7.003   5.921   3.109 -0.1747 -0.2811 -0.2309
 2312W        W 6056   7.524   7.861   1.925 -0.3228 -0.4064  0.1128
 2313W        W 6057   6.351   0.456  11.193 -0.0869  0.2520 -0.1453
 2314W        W 6058   3.174   6.235   2.599 -0.4168 -0.2234 -0.1065
 2315W        W 6059   7.922   4.739  12.031  0.0703 -0.2893 -0.1891
 2316W        W 6060   4.708   3.439   0.027  0.1830  0.1951 -0.1733
 2317W        W 6061   2.120   7.786   0.075  0.0254 -0.0043  0.1130
 2318W        W 6062   2.167   8.912   9.032  0.1361  0.1289  0.0420
 2319W        W 6063   7.950   5.185   0.932 -0.2012  0.0606  0.3708
 2320W        W 6064   4.860   7.670   0.236  0.2448 -0.3193 -0.0554
 2321W        W 6065   3.321   2.423  10.463  0.2633  0.1590 -0.0668
 2322W        W 6066   9.551   8.714   0.903  0.2215  0.1555  0.0810
 2323W        W 6067   2.590   2.906   4.184  0.1065  0.1348 -0.4190
 2324W        W 6068   3.711   2.037  11.392  0.3214  0.2833  0.0098
 2325W        W 6069   5.498   8.306   9.089 -0.0930  0.0142  0.0427
 2326W        W 6070   5.543   1.083  12.372  0.0383  0.2128 -0.2046
 2327W        W 6071   8.641   6.723   9.235 -0.1337  0.1964 -0.1570
 2328W        W 6072   0.678   8.641   0.473  0.1369 -0.2352  0.1702
 2329W        W 6073   8.543   9.136  12.394 -0.2691  0.2373 -0.0722
 2330W        W 6074   7.536   2.620   2.738  0.1606  0.0931  0.2080
 2331W        W 6075   0.833   1.160   0.150 -0.3476 -0.1606 -0.1406
 2332W        W 6076   2.339   3.762  11.827  0.1089 -0.1156  0.2973
 2333W        W 6077   1.829   5.369   9.246  0.0445 -0.2979 -0.0519
 2334W        W 6078   4.944   5.458   4.048 -0.1904  0.3049  0.1247
 2335W        W 6079   5.517   0.896  10.340  0.1761 -0.3503 -0.0197
 2336W        W 6080   1.608   2.925   9.480  0.1868 -0.2096 -0.0350
 2337W        W 6081   8.338   2.245   0.279  0.2087 -0.0983 -0.0433
 2338W        W 6082   3.636   1.639   9.237  0.2066 -0.3211  0.0092
 2339W        W 6083   2.384   1.336   2.621  0.2228 -0.3506 -0.0064
 2340W        W 6084   6.588   3.353   1.415  0.0916  0.1832 -0.1438
 2341W        W 6085   8.731   0.510   2.382  0.0786 -0.1747 -0.1413
 2342W        W 6086   5.491   8.820   9.102  0.1904  0.3141  0.1898
 2343W        W 6087   7.194   1.866   4.029  0.1724 -0.3390 -0.0702
 2344W        W 6088   9.234   9.266   1.669  0.1546 -0.0274 -0.1166
 2345W        W 6089   4.477   1.491  11.094 -0.1873 -0.2390  0.1917
 2346W        W 6090   5.386   9.536   1.237 -0.3405  0.0927 -0.1408
 2347W        W 6091   0.031   3.831   2.892  0.1027 -0.1847  0.0732
 2348W        W 6092   9.443   3.179  10.929  0.2442 -0.1197 -0.1942
 2349W        W 6093   6.760   0.627   9.997 -0.1279 -0.0944 -0.0331
 2350W        W 6094   9.452   4.805   2.073  0.1827 -0.0671 -0.1076
 2351W        W 6095   8.987   4.534  10.762 -0.2278 -0.1428  0.0055
 2352W        W 6096   9.736   5.588  11.558  0.2277 -0.1019  0.1726
 2353W        W 6097   6.604   9.792  12.137  0.1154  0.2679 -0.1323
 2354W        W 6098   9.678   7.355   4.732 -0.1984  0.0202  0.2040
 2355W        W 6099   5.779   9.730   4.755  0.1719 -0.0611 -0.1591
 2356W        W 6100   1.629   8.464  12.365 -0.0274  0.0286  0.1325
 2357W        W 6101   3.753   9.435   2.705  0.2031  0.0997 -0.1456
 2358W        W 6102   7.741   6.257  10.207 -0.0206  0.4146  0.0318
 2359W        W 6103   6.776   3.225   3.633 -0.1572  0.1349  0.0291
 2360W        W 6104   0.426   7.535   4.285  0.1825 -0.2612 -0.2649
 2361W        W 6105   3.747   3.173   2.467 -0.2195  0.0521  0.0069
 2362W        W 6106   7.776   9.335   0.059 -0.0595  0.0691 -0.1400
 2363W        W 6107   8.287   2.518  10.667  0.1755  0.1706 -0.2144
 2364W        W 6108   1.546   4.465  11.983 -0.0277 -0.2871 -0.2534
 2365W        W 6109   1.744   3.522   0.332  0.0714  0.0623 -0.1054
 2366W        W 6110   3.777   7.210   2.390 -0.0144  0.0419 -0.1341
 2367W        W 6111   5.164   6.254   1.312  0.3764  0.0055 -0.0641
 2368W        W 6112   7.467   3.945   9.238  0.0436  0.0145 -0.4052
 2369W        W 6113   1.128   6.983   3.814 -0.0682 -0.3176 -0.2820
 2370W        W 6114   2.592   7.168  12.440 -0.3014  0.1022 -0.0244
 2371W        W 6115   8.920   8.414   2.115  0.4220  0.0654 -0.1086
 2372W        W 6116   6.623   6.963   0.886 -0.0655  0.1090 -0.2207
 2373W        W 6117   6.808   2.667   2.643  0.2005  0.2568  0.2706
 2374W        W 6118   9.629   8.389  12.826  0.2081 -0.2328 -0.0918
 2375W        W 6119   9.046   9.321  12.352 -0.2255 -0.1390  0.5678
 2376W        W 6120   8.992   1.985   2.241  0.0456  0.1446  0.0346
 2377W        W 6121   8.873   3.285  11.113  0.0434 -0.1634  0.0113
 2378W        W 6122   7.151   6.454   2.314 -0.1088  0.1171  0.2088
 2379W        W 6123   9.422   9.698  12.288  0.0327 -0.0036 -0.2029
 2380W        W 6124   0.606   9.044   4.696 -0.0087 -0.6781  0.1391
 2381W        W 6125   9.120   9.369  10.132 -0.4588  0.3497  0.2449
 2382W        W 6126   1.402   6.669   2.503  0.0283  0.2852  0.2320
 2383W        W 6127   0.597   3.606  11.446 -0.1129 -0.0795  0.0897
 2384W        W 6128   0.726   8.493  11.245 -0.2298 -0.3582 -0.1012
 2385W        W 6129   1.590   8.854   2.046  0.1500  0.1845 -0.0657
 2386W        W 6130   0.673   0.818  12.415  0.1092  0.0104  0.0716
 2387W        W 6131   4.061   1.405   3.262  0.1438  0.0559  0.0470
 2388W        W 6132   2.633   6.186  12.689 -0.1115  0.3335  0.0178
 2389W        W 6133   8.346   0.834   2.564 -0.1288 -0.0737 -0.0339
 2390W        W 6134   5.260   3.472   9.595 -0.1622 -0.1060  0.1841
 2391W        W 6135   6.697   6.753  12.381 -0.2595 -0.0495 -0.4790
 2392W        W 6136   3.968   9.925   9.191 -0.0032 -0.0545  0.1208
 2393W        W 6137   0.639   3.060   1.800  0.2534  0.0097 -0.3429
 2394W        W 6138   6.818   6.923   1.910  0.2530 -0.2345 -0.0921
 2395W        W 6139   8.802   5.809   9.531 -0.3609 -0.3242  0.3776
 2396W        W 6140   3.833   6.821  11.531 -0.4688 -0.0747  0.0160
 2397W        W 6141   4.729   4.513  12.611  0.0869 -0.1082  0.2380
 2398W        W 6142   0.885   4.704  11.385 -0.1253 -0.3936  0.1624
 2399W        W 6143   8.761   5.735   1.428 -0.1211 -0.0650  0.0640
 2400W        W 6144   6.140   6.308   0.281  0.1994  0.2075  0.1177
 2401W        W 6145   8.839   6.148   1.717  0.0006  0.0867 -0.2682
 2402W        W 6146   5.860   1.360   8.366  0.4744 -0.2946  0.1300
 2403W        W 6147   5.114   6.877  11.186 -0.0842 -0.1600 -0.0900
 2404W        W 6148   5.155   8.793   9.548 -0.0181 -0.0462  0.1549
 2405W        W 6149   4.905   4.159  10.852 -0.1742 -0.0094  0.0853
 2406W        W 6150   0.733   0.505  10.691 -0.2370 -0.0923  0.3460
 2407W        W 6151   2.834   7.168   0.745  0.0999  0.0353  0.3157
 2408W        W 6152   0.257   6.246  11.902 -0.0864 -0.1355 -0.0155
 2409W        W 6153   4.867   8.159   2.981 -0.1338 -0.0205 -0.1485
 2410W        W 6154   1.739   9.013   8.675  0.0619  0.0789  0.0932
 2411W        W 6155   0.576   0.421   1.453  0.0287  0.2781 -0.0134
 2412W        W 6156   6.401   6.010   4.733  0.0361 -0.1488  0.1183
 2413W        W 6157   1.106   3.023   1.483 -0.3257 -0.0305 -0.0003
 2414W        W 6158   2.939   9.481  12.144 -0.1480  0.0901  0.3410
 2415W        W 6159   4.235   6.296  11.965 -0.1327 -0.3007 -0.0822
 2416W        W 6160   0.731   5.928   1.568 -0.1314  0.0306 -0.1284
 2417W        W 6161   2.859   4.522  10.824  0.1408  0.1234  0.0164
 2418W        W 6162   8.964   2.649   0.713  0.0543  0.0292  0.1965
 2419W        W 6163   2.965   4.398   0.114 -0.1873 -0.6155  0.0225
 2420W        W 6164   7.588   6.368   8.918 -0.2629 -0.0294 -0.1700
 2421W        W 6165   0.890   4.576   0.300  0.4069 -0.0043  0.1289
 2422W        W 6166   1.014   7.904   1.240  0.0985  0.1868  0.0009
 2423W        W 6167   9.063   0.597  10.053  0.2757 -0.0663 -0.2140
 2424W        W 6168   7.650   3.451   2.382 -0.1731 -0.3523 -0.1945
 2425W        W 6169   5.045   1.921   0.812  0.3056  0.0518  0.0069
 2426W        W 6170   1.354   2.378  10.227  0.0555  0.1046 -0.2038
 2427W        W 6171   0.957   7.118   9.916  0.2285  0.1304  0.0902
 2428W        W 6172   6.212   7.359   9.815  0.0200 -0.0210 -0.1984
 2429W        W 6173   8.077   8.181   2.810 -0.2970  0.0173 -0.1703
 2430W        W 6174   1.846   7.679  12.439  0.2224  0.0412  0.0892
 2431W        W 6175   6.476   6.414  11.313 -0.2151  0.0107 -0.1756
 2432W        W 6176   8.726   1.406  11.789  0.1450  0.1460  0.2755
 2433W        W 6177   9.679   2.112  11.932 -0.0698  0.1215 -0.1683
 2434W        W 6178   2.342   8.595   2.496 -0.2207 -0.0887 -0.0775
 2435W        W 6179   6.174   4.824   0.143 -0.2016  0.3143  0.0619
 2436W        W 6180   7.652   1.360  10.586  0.1709 -0.3119  0.0746
 2437W        W 6181   5.836   1.201   0.497 -0.0604  0.1322  0.2303
 2438W        W 6182   4.165   6.591  10.285  0.3945 -0.0878 -0.1056
 2439W        W 6183   5.170   9.015  12.356  0.2029 -0.0182 -0.0849
 2440W        W 6184   7.155   9.496   1.250 -0.1521  0.2015  0.0059
 2441W        W 6185   1.635   3.127   1.152 -0.0315  0.4583 -0.2806
 2442W        W 6186   6.179   8.284   9.734 -0.3390 -0.0624 -0.2063
 2443W        W 6187   4.745   6.883   2.362 -0.1518 -0.0855  0.0795
 2444W        W 6188   7.132   8.699   3.366  0.3229  0.0011 -0.1720
 2445W        W 6189   3.056   2.779   1.243  0.0807 -0.1719 -0.1790
 2446W        W 6190   8.791   7.279   3.192 -0.1111 -0.1168 -0.1079
 2447W        W 6191   4.034   8.434  11.296 -0.1298 -0.0888  0.1127
 2448W        W 6192   3.218   5.123  10.167 -0.1342  0.1978  0.1296
 2449W        W 6193   1.203   6.033   0.142 -0.1172  0.0237  0.0190
 2450W        W 6194   0.558   8.165   4.361 -0.1158  0.3289 -0.2291
 2451W        W 6195   3.098   9.456   9.537 -0.2141  0.1402 -0.1247
 2452W        W 6196   5.732   1.367  11.482  0.3072 -0.1546  0.0436
 2453W        W 6197   7.257   6.028   3.720  0.1801  0.0312 -0.0043
 2454W        W 6198   2.416   0.145   9.475 -0.3925 -0.1511 -0.0529
 2455W        W 6199   1.837   9.488   2.446 -0.0858  0.4258  0.2234
 2456W        W 6200   0.450   7.197   3.941 -0.0558  0.1923  0.0066
 2457W        W 6201   3.054   3.322   1.231 -0.0844 -0.2558 -0.0448
 2458W        W 6202   2.260   6.702   0.951 -0.2366  0.0538 -0.0283
 2459W        W 6203   6.140   7.117   0.949 -0.0512  0.0718  0.1165
 2460W        W 6204   5.094   5.593   9.065  0.1860  0.0037  0.2676
 2461W        W 6205   8.623   0.369  12.253 -0.0723 -0.0063  0.2481
 2462W        W 6206   2.830   8.519   2.178 -0.1314  0.1480 -0.1496
 2463W        W 6207   9.029   9.344   9.394 -0.0659  0.0691  0.2525
 2464W        W 6208   3.152   3.358   3.053  0.0795 -0.2680  0.5985
 2465W        W 6209   0.380   4.892   2.219 -0.0439 -0.2431  0.1543
 2466W        W 6210   7.743   9.192   1.874  0.3245 -0.2145  0.0870
 2467W        W 6211   8.197   0.229   1.764  0.0779  0.1417  0.1570
 2468W        W 6212   6.994   9.589   8.357  0.2667  0.2114 -0.1310
 2469W        W 6213   1.905   9.876  12.770 -0.2081 -0.4141  0.1961
 2470W        W 6214   4.114   2.576   8.250  0.1583 -0.1676  0.0437
 2471W        W 6215   6.396   3.113   2.092 -0.0877 -0.1553  0.0212
 2472W        W 6216   0.874   9.551   1.571 -0.2855  0.2690  0.0399
 2473W        W 6217   8.423   7.120   2.860 -0.2081 -0.0544 -0.1377
 2474W        W 6218   4.654   8.932   2.449 -0.3864 -0.2302 -0.1189
 2475W        W 6219   9.388   0.659  12.820  0.0248  0.1140 -0.2386
 2476W        W 6220   7.351   4.312   3.957  0.1147  0.0807  0.0788
 2477W        W 6221   1.840   6.454   0.699  0.2594 -0.0010  0.1320
 2478W        W 6222   3.328   7.310  10.197 -0.0505  0.1618  0.1107
 2479W        W 6223   7.599   2.673   0.051 -0.0808 -0.3371 -0.1654
 2480W        W 6224   1.667   4.024   0.218 -0.0498 -0.1479  0.0506
 2481W        W 6225   0.990   0.849   2.796  0.0890 -0.1093 -0.1991
 2482W        W 6226   7.819   9.042  11.352 -0.4395 -0.2033 -0.0176
 2483W        W 6227   1.839   1.892   9.464 -0.0394  0.0735 -0.0233
 2484W        W 6228   6.278   3.080  12.260 -0.0203  0.1581  0.0777
 2485W        W 6229   6.449   1.920  11.936  0.1276  0.1204 -0.0817
 2486W        W 6230   2.550   2.011   9.617 -0.0186 -0.1116  0.0994
 2487W        W 6231   0.655   8.259   1.211  0.2792  0.3378  0.1721
 2488W        W 6232   0.435   5.722   9.795  0.1123  0.0088  0.1477
 2489W        W 6233   7.451   3.564  10.743 -0.0363  0.3073 -0.0606
 2490W        W 6234   6.903   0.368   2.173  0.0385  0.0312 -0.0417
 2491W        W 6235   1.774   8.234   9.027 -0.2288  0.0556  0.1310
 2492W        W 6236   6.006   2.738   1.245  0.0938 -0.1200  0.1320
 2493W        W 6237   7.499   3.285   1.024 -0.3186  0.0388 -0.1802
 2494W        W 6238   3.063   9.874   8.887 -0.1106 -0.0099 -0.0570
 2495W        W 6239   6.112   9.257   8.275  0.4851  0.2221 -0.0426
 2496W        W 6240   0.033   6.925   2.611 -0.1471  0.0973 -0.1256
 2497W        W 6241   3.981   2.442   3.008 -0.0133  0.2918  0.2961
 2498W        W 6242   7.901   0.088   8.662  0.1921 -0.1226 -0.1449
 2499W        W 6243   5.291   4.119   3.181  0.0646 -0.0400 -0.4841
 2500W        W 6244   5.521   7.026   0.079 -0.0569 -0.2876 -0.2021
 2501W        W 6245   1.613   0.004   2.060 -0.2333  0.1008 -0.1720
 2502W        W 6246   4.498   9.362  10.368  0.0381 -0.2409  0.1826
 2503W        W 6247   6.251   1.203   1.136 -0.0164  0.4817  0.0536
 2504W        W 6248   9.758   4.034  12.799 -0.1683 -0.1281 -0.0322
 2505W        W 6249   4.466   4.628  10.688  0.0719 -0.0460 -0.1285
 2506W        W 6250   0.017   6.449   2.334 -0.0067 -0.1361  0.1565
 2507W        W 6251   0.086   2.714  12.630  0.2538 -0.2240 -0.2325
 2508W        W 6252   0.127   4.164   9.425  0.2263  0.1918  0.1054
 2509W        W 6253   4.597   4.997   8.719 -0.2273 -0.3382  0.1206
 2510W        W 6254   0.713   6.144   0.390  0.1107  0.0109  0.1281
 2511W        W 6255   7.600   0.348   1.546  0.1442 -0.4036 -0.0358
 2512W        W 6256   8.622   5.692   8.199  0.2556  0.0863 -0.2301
 2513W        W 6257   5.059   3.067   2.231  0.0939 -0.1121 -0.2181
 2514W        W 6258   6.816   3.069   2.314 -0.0549  0.0906 -0.0721
 2515W        W 6259   8.172   5.695  12.101 -0.2834 -0.0110 -0.0521
 2516W        W 6260   8.115   6.995   9.443  0.2002  0.2015 -0.2568
 2517W        W 6261   5.607   1.891   3.675  0.1243 -0.0749  0.0159
 2518W        W 6262   5.217   1.638   2.912 -0.1600 -0.2673  0.0971
 2519W        W 6263   2.758   5.180  10.256  0.3193 -0.1645  0.2712
 2520W        W 6264   8.880   1.697  12.805  0.0070 -0.1169 -0.0185
 2521W        W 6265   7.260   6.259  10.531 -0.2180 -0.2039  0.3588
 2522W        W 6266   2.753   1.479  12.066  0.1426  0.1726  0.1518
 2523W        W 6267   7.217   0.415   8.944 -0.1933  0.1653 -0.1047
 2524W        W 6268   1.204   0.967  11.473  0.0278  0.0155 -0.2784
 2525W        W 6269   9.535   6.719   3.542  0.1218 -0.1315  0.0398
 2526W        W 6270   4.783   2.638   2.472 -0.1936 -0.1159 -0.0290
 2527W        W 6271   4.147   7.083   0.144  0.2562 -0.1016 -0.1920
 2528W        W 6272   8.323   3.528   3.593  0.1172 -0.0207  0.1042
 2529W        W 6273   6.960   9.466   4.405 -0.0844  0.0663 -0.1554
 2530W        W 6274   2.554   7.412   2.651  0.0859 -0.0560 -0.0786
 2531W        W 6275   8.979   2.244   1.014 -0.1584  0.2347 -0.3056
 2532W        W 6276   3.328   9.123   2.869  0.0145 -0.2859 -0.1560
 2533W        W 6277   4.135   8.846  12.256  0.1812 -0.0257 -0.0854
 2534W        W 6278   3.002   1.047   9.670  0.3311  0.0630  0.3685
 2535W        W 6279   7.586   8.096   0.049 -0.0331  0.1496  0.3575
 2536W        W 6280   0.573   9.616   8.675  0.1142 -0.2614 -0.0356
 2537W        W 6281   2.936   9.563  10.410 -0.0437  0.3376 -0.0489
 2538W        W 6282   7.259   8.857   1.912 -0.2628  0.4235 -0.2717
 2539W        W 6283   7.552   4.334   9.703  0.2449  0.1867  0.0760
 2540W        W 6284   9.209   0.658   2.323 -0.1504 -0.0489 -0.3890
 2541W        W 6285   3.131   7.530   9.617 -0.0192 -0.0092  0.1335
 2542W        W 6286   8.307   7.922   9.638 -0.1348  0.1089  0.0363
 2543W        W 6287   3.483   3.889   1.826 -0.2220 -0.0456  0.1998
 2544W        W 6288   9.438   2.375  10.055  0.0507 -0.1794 -0.1811
 2545W        W 6289   4.077   6.182  12.427  0.0816 -0.2419 -0.0969
 2546W        W 6290   9.313   3.030   0.856 -0.1687 -0.0514 -0.1847
 2547W        W 6291   3.414   1.957  10.330  0.0050  0.3379  0.0570
 2548W        W 6292   7.066   5.859  10.881 -0.1864  0.2510  0.3095
 2549W        W 6293   7.775   9.144   9.239 -0.2086 -0.0340 -0.1567
 2550W        W 6294   9.847   3.277   1.382 -0.0403 -0.0842 -0.1267
 2551W        W 6295   1.497   6.755  11.781 -0.0887  0.2344 -0.0110
 2552W        W 6296   3.459   0.886   9.575 -0.2124 -0.0836 -0.0417
 2553W        W 6297   5.730   1.728   2.716 -0.0684 -0.2982 -0.1442
 2554W        W 6298   8.764   6.478   2.739 -0.0987 -0.2466  0.1888
 2555W        W 6299   2.761   8.402   1.080  0.1398 -0.0375 -0.2570
 2556W        W 6300   6.544   1.439   9.658  0.2546 -0.1000 -0.3416
 2557W        W 6301   4.826   9.359   4.385 -0.1740 -0.4045  0.2587
 2558W        W 6302   6.430   6.260   8.061  0.1680 -0.0405 -0.0395
 2559W        W 6303   1.877   1.755  12.308 -0.1464  0.1281  0.1210
 2560W        W 6304   6.431   8.349   1.926  0.1243  0.0834  0.1599
 2561W        W 6305   2.017   6.557   4.191  0.1281 -0.0561 -0.0152
 2562W        W 6306   4.658   6.719   9.069 -0.0236  0.2418 -0.1212
 2563W        W 6307   8.871   9.798   1.638  0.3273 -0.2939 -0.1557
 2564W        W 6308   5.059   7.329   3.355 -0.0067  0.0058 -0.2516
 2565W        W 6309   6.452   4.735   8.213 -0.1374 -0.0196  0.0634
 2566W        W 6310   2.231   3.871  10.334 -0.1457  0.2883 -0.0763
 2567W        W 6311   0.769   5.422   9.479 -0.1673 -0.0206 -0.1556
 2568W        W 6312   3.358   9.772  12.402 -0.2413  0.1142 -0.3822
 2569W        W 6313   3.263   5.737   2.130 -0.0133  0.0601  0.1437
 2570W        W 6314   1.870   1.925   1.402  0.1608 -0.1953 -0.3904
 2571W        W 6315   7.123   6.130   9.637  0.0778  0.1118  0.1878
 2572W        W 6316   3.428   9.255  10.445  0.1861  0.0514  0.0244
 2573W        W 6317   1.170   6.855   8.927 -0.7419 -0.0398  0.1492
 2574W        W 6318   8.132   4.576   0.921 -0.1265  0.4198 -0.0640
 2575W        W 6319   6.876   6.772   3.789  0.0084 -0.0341  0.0412
 2576W        W 6320   1.961   3.733  11.511  0.1812  0.1795 -0.0837
 2577W        W 6321   4.310   7.478   0.742 -0.0659 -0.1585 -0.0582
 2578W        W 6322   7.244   9.050   2.422  0.0431 -0.1883 -0.3997
 2579W        W 6323   0.205   2.011  11.877  0.0270 -0.2801  0.2213
 2580W        W 6324   3.120   5.179   1.831  0.3196  0.2323 -0.1580
 2581W        W 6325   3.413   8.724   8.743  0.2065  0.0431 -0.0641
 2582W        W 6326   3.654   6.259   0.412 -0.0300 -0.0100 -0.2147
 2583W        W 6327   5.105   0.649   1.117 -0.0130  0.0097  0.0610
 2584W        W 6328   0.506   7.426  11.853 -0.1092  0.0452 -0.0074
 2585W        W 6329   8.005   1.531  12.567 -0.1414 -0.1883 -0.0988
 2586W        W 6330   4.901   2.912   1.591  0.0332  0.0572 -0.2574
 2587W        W 6331   5.961   7.092   4.405 -0.1438 -0.0914 -0.1101
 2588W        W 6332   6.590   0.466   0.862  0.0888 -0.0236  0.0023
 2589W        W 6333   4.024   7.171   4.130 -0.1384  0.0888  0.0469
 2590W        W 6334   9.557   0.378  11.638  0.0146  0.1980 -0.4028
 2591W        W 6335   5.474   5.608   4.590  0.0183 -0.4303 -0.1787
 2592W        W 6336   2.638   1.690  10.199  0.0764 -0.2410 -0.1410
 2593W        W 6337   4.866   0.126  10.626  0.2234  0.2277  0.1011
 2594W        W 6338   9.035   8.964  10.611  0.0398 -0.0875  0.0260
 2595W        W 6339   5.455   3.749   4.192 -0.0185  0.0852  0.1040
 2596W        W 6340   3.158   0.993   8.211  0.2960 -0.0669  0.1645
 2597W        W 6341   7.994   4.600   2.670  0.0989 -0.1399  0.1508
 2598W        W 6342   9.847   5.643   3.410  0.2749 -0.0251  0.0292
 2599W        W 6343   8.016   7.449  12.583 -0.1732  0.0469 -0.1972
 2600W        W 6344   7.643   6.439   4.612  0.0601 -0.2449  0.2492
 2601W        W 6345   4.675   4.997  12.402  0.6222  0.3417 -0.0213
 2602W        W 6346   0.607   0.440  10.204 -0.1668 -0.0582  0.2339
 2603W        W 6347   1.207   5.686   4.101 -0.1586 -0.1905 -0.0201
 2604W        W 6348   2.305   1.910  11.484 -0.0466  0.1187 -0.0957
 2605W        W 6349   8.511   7.636   2.758  0.0138  0.1474  0.1423
 2606W        W 6350   6.670   7.449   4.947 -0.0080  0.1992 -0.2053
 2607W        W 6351   2.795   1.863  11.744  0.2354  0.2159  0.0586
 2608W        W 6352   8.479   6.551  12.630 -0.0790 -0.3179 -0.0027
 2609W        W 6353   1.434   1.385   1.984 -0.1428 -0.2213 -0.2668
 2610W        W 6354   8.356   1.947  11.281  0.0783 -0.0066  0.1381
 2611W        W 6355   7.714   3.165   0.003  0.1741 -0.1456 -0.1077
 2612W        W 6356   6.968   5.442   3.754  0.0047  0.3898  0.1961
 2613W        W 6357   2.287   7.242   0.922 -0.1401 -0.2215  0.2171
 2614W        W 6358   9.040   0.362   9.609 -0.0222 -0.1346  0.2832
 2615W        W 6359   9.122   1.632   3.121  0.0220  0.0862  0.0178
 2616W        W 6360   6.370   2.030   9.848 -0.1176 -0.1927  0.0327
 2617W        W 6361   9.890   3.555   0.208 -0.1476 -0.2254  0.4853
 2618W        W 6362   8.305   9.269   8.138 -0.1723  0.2168 -0.0509
 2619W        W 6363   2.316   0.061   1.313 -0.0796 -0.2405  0.0253
 2620W        W 6364   2.019   3.081   3.665 -0.2262 -0.0387  0.0779
 2621W        W 6365   7.582   8.583   9.380  0.0869  0.1397 -0.0380
 2622W        W 6366   9.111   8.342  12.642 -0.0962  0.0920  0.0545
 2623W        W 6367   7.200   6.610   3.025 -0.0993 -0.3096 -0.2916
 2624W        W 6368   5.028   8.612   3.839 -0.0772 -0.3673  0.1126
 2625W        W 6369   1.127   6.999   1.637  0.0094  0.0226  0.2647
 2626W        W 6370   0.778   9.494   2.886 -0.1324 -0.0780 -0.0886
 2627W        W 6371   0.816   8.236   1.826  0.2234  0.3337 -0.5540
 2628W        W 6372   6.316   5.908   1.883  0.1270 -0.0146 -0.0649
 2629W        W 6373   7.239   1.863   3.540  0.1085  0.1479  0.0317
 2630W        W 6374   6.962   5.390  12.773  0.0003 -0.2063 -0.0768
 2631W        W 6375   2.376   5.974   2.777 -0.1553  0.3240 -0.1817
 2632W        W 6376   4.910   0.987  12.037  0.3488  0.0382  0.0523
 2633W        W 6377   0.319   8.020  10.620 -0.0337  0.0125 -0.0712
 2634W        W 6378   1.190   4.147   0.493  0.1187  0.1235 -0.0795
 2635W        W 6379   6.177   8.025   8.843 -0.1691  0.1817 -0.1119
 2636W        W 6380   3.867   1.831   3.659 -0.3942  0.2287  0.1259
 2637W        W 6381   6.790   3.330   9.360  0.0371 -0.3592 -0.1965
 2638W        W 6382   2.724   9.762   1.110  0.1328 -0.2821 -0.2050
 2639W        W 6383   8.632   4.457   1.985 -0.0042 -0.0202  0.2647
 2640W        W 6384   6.369   2.313   0.960  0.3414 -0.1509  0.2907
 2641W        W 6385   2.209   8.267  11.282  0.0243  0.0652 -0.2301
 2642W        W 6386   5.957   5.263  11.809 -0.4382 -0.0691  0.4346
 2643W        W 6387   7.621   3.260  12.236 -0.1733  0.3158  0.0137
 2644W        W 6388   1.819   4.344   1.889 -0.0422 -0.0894  0.1611
 2645W        W 6389   3.909   0.073  10.494  0.0297 -0.1372  0.0358
 2646W        W 6390   7.476   3.076  10.909 -0.2784 -0.1174  0.2440
 2647W        W 6391   1.427   4.170   1.552 -0.1819  0.4431 -0.2037
 2648W        W 6392   0.072   3.666   1.799  0.0794  0.0358 -0.0777
 2649W        W 6393   7.028   7.759   5.077 -0.0535  0.1383 -0.0576
 2650W        W 6394   7.321   3.975   8.155 -0.0557  0.1457 -0.0593
 2651W        W 6395   3.570   2.763   9.732  0.0527 -0.1775  0.0698
 2652W        W 6396   2.602   3.849   9.399  0.1721  0.3532 -0.2932
 2653W        W 6397   5.542   8.500   3.988  0.1759  0.0762 -0.1203
 2654W        W 6398   7.904   3.568   1.522 -0.1886  0.1814 -0.0710
 2655W        W 6399   9.732   4.684   9.978  0.4260 -0.1389 -0.2513
 2656W        W 6400   6.182   1.608   4.468  0.0848 -0.1061 -0.0502
 2657W        W 6401   0.074   4.241   2.619  0.1170 -0.0085  0.0337
 2658W        W 6402   5.365   4.702   3.601  0.1847  0.0132 -0.2879
 2659W        W 6403   1.442   6.534  12.640 -0.1386  0.2421 -0.3729
 2660W        W 6404   4.033   8.865   1.893 -0.1158 -0.3150 -0.2552
 2661W        W 6405   1.215   5.765   2.446  0.0882 -0.1216 -0.0506
 2662W        W 6406   3.312   5.693   3.388 -0.0237  0.0440 -0.1158
 2663W        W 6407   3.349   6.073   3.743  0.1554  0.0180 -0.1823
 2664W        W 6408   6.046   4.509   2.489 -0.3542 -0.0293  0.0251
 2665W        W 6409   3.292   8.945  12.814 -0.1582  0.2016 -0.2969
 2666W        W 6410   0.120   5.278   0.450 -0.3352 -0.0785 -0.1352
 2667W        W 6411   8.436   5.153   1.596  0.3471 -0.1689 -0.1724
 2668W        W 6412   4.833   6.118   4.943  0.0165  0.2259  0.0619
 2669W        W 6413   6.284   2.671  12.548 -0.1047 -0.1439 -0.0256
 2670W        W 6414   2.262   4.332   1.272  0.2908  0.0675  0.1265
 2671W        W 6415   0.545   9.273   0.360  0.2651 -0.0462  0.0963
 2672W        W 6416   8.353   3.028   9.898  0.2498 -0.1918 -0.1152
 2673W        W 6417   7.883   0.092   3.012  0.0753 -0.1721  0.0450
 2674W        W 6418   3.707   1.252   9.856  0.3375  0.1318  0.0864
 2675W        W 6419   4.562   2.692   5.149 -0.2865 -0.1300  0.2993
 2676W        W 6420   8.932   8.827   4.003 -0.1920  0.0536 -0.2064
 2677W        W 6421   3.639   2.214   2.314 -0.2045  0.0030 -0.0341
 2678W        W 6422   6.636   2.426   8.979 -0.1766  0.0356 -0.0420
 2679W        W 6423   3.377   4.833   9.134  0.2984 -0.0249 -0.1666
 2680W        W 6424   5.442   9.440   2.578 -0.1137  0.1987  0.1335
 2681W        W 6425   7.202   3.530  12.584 -0.0636 -0.0560  0.3927
 2682W        W 6426   0.299   2.154   4.250 -0.0196 -0.2169  0.2228
 2683W        W 6427   0.161   1.206   1.270  0.3056 -0.1096  0.0729
 2684W        W 6428   7.432   4.335   0.910 -0.3981  0.0857 -0.0996
 2685W        W 6429   8.936   9.085   9.001  0.3031  0.1039 -0.0478
 2686W        W 6430   6.932   7.047  10.177 -0.1468 -0.2276 -0.1601
 2687W        W 6431   7.570   9.237   9.746  0.1443  0.1404  0.0254
 2688W        W 6432   2.709   6.719  11.998  0.0819  0.1749 -0.1359
 2689W        W 6433   9.828   9.626  11.476  0.0894  0.1754  0.1503
 2690W        W 6434   2.168   7.938   8.820 -0.1531 -0.1846 -0.2992
 2691W        W 6435   2.442   6.032   2.097  0.0938 -0.4422  0.0703
 2692W        W 6436   3.264   6.425   0.798 -0.0389  0.2032 -0.2566
 2693W        W 6437   2.365   9.693   2.051  0.1199  0.0520  0.0837
 2694W        W 6438   9.197   1.276   9.792 -0.1042  0.1113  0.1244
 2695W        W 6439   6.449   7.030   3.631  0.2548  0.3492  0.2888
 2696W        W 6440   3.314   5.727   2.694  0.0651  0.0881  0.2185
 2697W        W 6441   8.739   5.455   9.170 -0.4011  0.0119 -0.0727
 2698W        W 6442   2.627   6.441   1.261 -0.0482 -0.1177  0.1019
 2699W        W 6443   6.292   5.004  12.172 -0.2739  0.0978 -0.1595
 2700W        W 6444   9.767   9.493   2.038  0.1741  0.0075  0.1979
 2701W        W 6445   5.056   8.003  12.419  0.1229  0.0645 -0.1788
 2702W        W 6446   6.354   5.872   2.411 -0.2535  0.0029 -0.0467
 2703W        W 6447   4.936   3.488   2.781 -0.0316  0.0432 -0.0020
 2704W        W 6448   6.715   0.614   3.346 -0.0783  0.1735  0.1525
 2705W        W 6449   8.575   7.323  11.036 -0.2586  0.0173 -0.0530
 2706W        W 6450   1.178   8.050   0.270 -0.1497 -0.1433 -0.3167
 2707W        W 6451   3.320   7.937   8.117  0.0595  0.1696 -0.1191
 2708W        W 6452   2.333   7.473  10.277 -0.3524  0.1221  0.3752
 2709W        W 6453   1.923   0.775   2.409  0.0600 -0.0020  0.0489
 2710W        W 6454   3.825   9.073  12.585 -0.1209  0.1817 -0.2367
 2711W        W 6455   7.530   1.852  10.569 -0.3506  0.1163  0.1339
 2712W        W 6456   3.277   3.357   9.449 -0.0597  0.0632 -0.0644
 2713W        W 6457   3.874   5.923   8.996  0.3767 -0.0209  0.0984
 2714W        W 6458   8.664   6.048  10.325 -0.0806 -0.1736  0.2594
 2715W        W 6459   2.417   0.820   0.752 -0.0200  0.2233 -0.0749
 2716W        W 6460   5.278   9.050  12.833  0.1128  0.0160  0.2325
 2717W        W 6461   7.324   5.691   0.238  0.0730 -0.1569  0.2840
 2718W        W 6462   4.474   1.727   8.400 -0.1337 -0.3023 -0.0526
 2719W        W 6463   5.531   3.367  10.082 -0.0337  0.0820  0.1243
 2720W        W 6464   9.275   4.198  12.664  0.2908 -0.2979 -0.0398
 2721W        W 6465   5.475   3.853   3.581 -0.1530 -0.0318  0.2864
 2722W        W 6466   4.316   3.383   8.404  0.1101 -0.1671 -0.0664
 2723W        W 6467   4.451   2.000   0.623  0.1567 -0.1275 -0.0969
 2724W        W 6468   0.411   8.580   4.703 -0.3349  0.2457 -0.1144
 2725W        W 6469   0.516   2.853  12.551 -0.0913 -0.1881 -0.0784
 2726W        W 6470   4.416   4.650   9.068  0.3789  0.2634  0.0047
 2727W        W 6471   7.086   1.743   9.487  0.1316  0.1126  0.3403
 2728W        W 6472   0.108   1.485   0.782 -0.4748 -0.1844  0.1050
 2729W        W 6473   2.617   1.358  11.621  0.3951  0.0128  0.0721
 2730W        W 6474   5.022   5.398  12.794 -0.0779 -0.3276  0.1808
 2731W        W 6475   3.388   4.884   2.121  0.0148  0.1209  0.0060
 2732W        W 6476   3.617   1.430  10.309 -0.2812 -0.0297 -0.1940
 2733W        W 6477   1.162   8.519  12.588  0.0703 -0.0498 -0.2793
 2734W        W 6478   3.868   9.860   8.617  0.0884 -0.1599 -0.0737
 2735W        W 6479   8.805   6.688   0.913 -0.0229  0.0197  0.0998
 2736W        W 6480   1.853   4.147  10.194  0.2046  0.1925 -0.2202
 2737W        W 6481   6.156   3.735   1.326 -0.0961  0.0533  0.0923
 2738W        W 6482   0.639   5.762   3.195 -0.0633  0.0714 -0.1149
 2739W        W 6483   4.015   6.522   1.695  0.0876 -0.1569 -0.3282
 2740W        W 6484   1.289   6.859  10.751 -0.2406 -0.3061 -0.2411
 2741W        W 6485   4.878   2.066  10.467 -0.0046 -0.0393 -0.0772
 2742W        W 6486   8.461   6.934   1.261 -0.0632 -0.0573  0.1503
 2743W        W 6487   1.064   3.781  10.750  0.1236  0.0391 -0.2599
 2744W        W 6488   4.418   5.850  12.156 -0.1854  0.0249 -0.0073
 2745W        W 6489   9.341   2.540  11.439  0.1504 -0.3846  0.1660
 2746W        W 6490   8.067   0.880   9.815  0.0186 -0.1141  0.0006
 2747W        W 6491   3.511   2.650   2.664  0.1656  0.2492  0.0991
 2748W        W 6492   6.634   3.757   0.993  0.1335 -0.1252 -0.0826
 2749W        W 6493   5.529   5.436   2.776  0.2579 -0.1396  0.0963
 2750W        W 6494   7.329   1.688  11.382 -0.0873  0.2979  0.1552
 2751W        W 6495   2.100   5.022  12.312  0.0861  0.1194  0.0593
 2752W        W 6496   9.748   9.884   2.844  0.0631 -0.1936  0.2621
 2753W        W 6497   5.239   5.961  10.263  0.1240  0.0330  0.0255
 2754W        W 6498   3.307   2.901   0.618 -0.2074  0.1568 -0.4647
 2755W        W 6499   7.040   1.222   9.371 -0.0407 -0.1468 -0.1331
 2756W        W 6500   6.976   3.505  10.441  0.1496  0.1753 -0.0306
 2757W        W 6501   2.305   9.039   8.595 -0.1595 -0.1175 -0.5151
 2758W        W 6502   1.517   2.275   1.097  0.0687  0.2715 -0.0640
 2759W        W 6503   2.750   8.405   2.728 -0.0010  0.2653 -0.1419
 2760W        W 6504   1.162   0.009   2.387  0.0629  0.0057 -0.0595
 2761W        W 6505   1.280   4.645   0.688  0.2456  0.1626  0.1773
 2762W        W 6506   2.125   3.367   9.808 -0.1745  0.0329  0.0663
 2763W        W 6507   9.349   6.646  10.936  0.0225 -0.1348 -0.3285
 2764W        W 6508   8.522   2.854   3.465  0.0820 -0.2784 -0.3036
 2765W        W 6509   4.784   9.580   0.389 -0.1234  0.0785  0.0968
 2766W        W 6510   5.947   3.088   1.894  0.3201  0.0268  0.4212
 2767W        W 6511   9.241   7.489  12.234 -0.1248 -0.0931 -0.1753
 2768W        W 6512   8.933   8.508   9.271  0.0128  0.0639  0.1981
 2769W        W 6513   6.825   1.893   9.851 -0.1880  0.0546  0.0851
 2770W        W 6514   4.477   8.940  10.599 -0.0027 -0.0227 -0.1436
 2771W        W 6515   6.857   0.807  11.134  0.2330  0.2286  0.2973
 2772W        W 6516   7.073   0.352   0.060 -0.1222  0.0987  0.2783
 2773W        W 6517   8.796   0.314   2.951  0.3345 -0.1354  0.1164
 2774W        W 6518   9.058   5.740   2.308 -0.3094  0.3619  0.2545
 2775W        W 6519   0.126   1.072  11.945  0.0602  0.1754  0.2190
 2776W        W 6520   7.136   9.194  10.521 -0.3137 -0.1140  0.0534
 2777W        W 6521   7.352   8.605   3.002 -0.2548  0.1790  0.2620
 2778W        W 6522   0.371   8.958  11.113  0.0934  0.0019 -0.2062
 2779W        W 6523   1.833   0.612   1.858  0.1627 -0.1673 -0.0909
 2780W        W 6524   3.672   7.489   9.859  0.2574 -0.0946 -0.0791
 2781W        W 6525   9.259   7.107   0.026 -0.3014 -0.0488  0.1137
 2782W        W 6526   9.340   7.882   2.229  0.0333  0.1511 -0.1385
 2783W        W 6527   1.935   3.827   3.210 -0.0354 -0.0092 -0.1382
 2784W        W 6528   2.175   9.889   3.571  0.0078  0.2053  0.0840
 2785W        W 6529   7.142   1.610  12.775  0.0172  0.2561  0.2230
 2786W        W 6530   6.016   1.419   0.101 -0.5521 -0.1720  0.3329
 2787W        W 6531   5.425   4.778  12.454 -0.0672 -0.1944 -0.1673
 2788W        W 6532   3.279   9.825   2.364  0.0832  0.1902  0.2216
 2789W        W 6533   9.654   8.460   9.990 -0.2022 -0.0022  0.3778
 2790W        W 6534   3.934   7.113   0.694  0.0597 -0.2503  0.1170
 2791W        W 6535   2.853   3.693  10.225  0.1569  0.0218  0.0782
 2792W        W 6536   3.180   5.777   9.464 -0.0773 -0.0395  0.3625
 2793W        W 6537   4.962   5.397   9.467 -0.2918 -0.0888  0.1974
 2794W        W 6538   4.838   1.028  11.574 -0.0850  0.1523 -0.2890
 2795W        W 6539   0.675   7.834   4.012 -0.1727 -0.1047  0.0300
 2796W        W 6540   5.869   2.280   2.549 -0.1445 -0.0177  0.0069
 2797W        W 6541   6.898   3.241   2.857 -0.2181 -0.1279 -0.2441
 2798W        W 6542   4.421   7.567  12.811 -0.3651  0.1903 -0.2425
 2799W        W 6543   2.664   3.043   0.616 -0.3934 -0.0288  0.0430
 2800W        W 6544   4.028   8.264   9.234  0.5245 -0.1974  0.0465
 2801W        W 6545   0.978   1.079   1.790 -0.0006 -0.2599  0.3241
 2802W        W 6546   8.616   8.011  10.489  0.0215  0.2900  0.3734
 2803W        W 6547   8.361   9.062   2.390 -0.1940 -0.2160  0.0678
 2804W        W 6548   5.355   8.794  10.468  0.1224 -0.0720 -0.0909
 2805W        W 6549   7.622   9.107   4.205 -0.2963 -0.3365 -0.4281
 2806W        W 6550   4.773   2.283   9.985 -0.0383  0.0652 -0.2377
 2807W        W 6551   7.761   7.670  11.416  0.2034  0.2802  0.0860
 2808W        W 6552   3.479   4.361   8.993  0.1551  0.1556 -0.1618
 2809W        W 6553   7.520   0.840   0.625  0.2960  0.2110  0.0857
 2810W        W 6554   1.584   8.732   9.058 -0.0742  0.2265 -0.1094
 2811W        W 6555   7.071   9.230   0.719  0.1358 -0.0763 -0.0822
 2812W        W 6556   5.373   7.588  11.728  0.1726  0.0190 -0.1817
 2813W        W 6557   2.882   2.046   2.427  0.2021 -0.0210  0.0216
 2814W        W 6558   0.160   4.435   1.633  0.2921 -0.0965 -0.3145
 2815W        W 6559   0.532   0.304   0.852 -0.0651 -0.2942  0.3330
 2816W        W 6560   5.262   7.425   2.452 -0.0138  0.0245 -0.3289
 2817W        W 6561   9.550   1.325   0.091  0.2659  0.0440 -0.1282
 2818W        W 6562   3.228   8.672   1.060 -0.3337 -0.2229 -0.2700
 2819W        W 6563   7.237   1.937  12.419 -0.0678  0.1399 -0.0539
 2820W        W 6564   8.097   7.362   4.304 -0.0176  0.3318  0.0742
 2821W        W 6565   4.969   1.833  11.517  0.1485 -0.1266  0.2584
 2822W        W 6566   6.115   4.658  10.436  0.3140 -0.1347 -0.0077
 2823W        W 6567   5.383   1.566   9.718  0.1205 -0.3058 -0.0306
 2824W        W 6568   0.182   0.209  10.364 -0.1969  0.1792  0.1492
 2825W        W 6569   7.811   3.091   1.405  0.1593 -0.1099 -0.4325
 2826W        W 6570   7.078   7.557  12.445  0.3176  0.0368  0.0918
 2827W        W 6571   1.543   5.437   2.257  0.2088 -0.2599 -0.0418
 2828W        W 6572   2.476   0.946  10.511  0.3145  0.1580 -0.0156
 2829W        W 6573   9.165   2.560   1.313  0.5164 -0.1071 -0.3280
 2830W        W 6574   7.869   3.851   3.441 -0.0586  0.0688 -0.3463
 2831W        W 6575   5.163   5.073   2.194 -0.1899  0.3290  0.2047
 2832W        W 6576   1.813   2.313   1.701  0.1588 -0.2484 -0.0449
 2833W        W 6577   4.827   0.927   9.630 -0.2329 -0.0591  0.4294
 2834W        W 6578   8.907   3.134   0.612  0.2254 -0.1292  0.3254
 2835W        W 6579   0.748   8.304  12.253 -0.0514  0.0787 -0.0625
 2836W        W 6580   4.502   2.367  10.853  0.0981  0.2872 -0.1929
 2837W        W 6581   8.733   1.040   3.406 -0.4284  0.1908  0.0742
 2838W        W 6582   6.818   0.866   0.295  0.0576 -0.1255 -0.1787
 2839W        W 6583   5.883   1.402   8.910 -0.0627 -0.4686  0.2135
 2840W        W 6584   8.753   4.215   0.280  0.0234  0.0536  0.0455
 2841W        W 6585   9.586   8.598  11.891  0.1398 -0.2413  0.0994
 2842W        W 6586   8.839   4.697   0.858 -0.2242  0.3413 -0.1421
 2843W        W 6587   5.227   8.943   0.848 -0.0346 -0.1442 -0.0315
 2844W        W 6588   2.226   8.333  12.202 -0.0856  0.2255  0.0085
 2845W        W 6589   3.454   6.108  11.435  0.0680  0.1395 -0.2534
 2846W        W 6590   9.462   2.067   1.982 -0.0635  0.2287  0.3840
 2847W        W 6591   8.885   8.337   3.974 -0.0061 -0.2977 -0.1088
 2848W        W 6592   4.603   7.836  10.177  0.1085 -0.1243  0.2602
 2849W        W 6593   9.351   6.162   2.023 -0.0317  0.4328 -0.0642
 2850W        W 6594   2.130   1.824   4.152 -0.2328 -0.2712  0.0475
 2851W        W 6595   2.651   4.784   0.056 -0.2737  0.0064  0.0371
 2852W        W 6596   2.046   2.220   9.777  0.0288 -0.3367 -0.3933
 2853W        W 6597   0.363   9.838   3.575  0.0547 -0.0962  0.2942
 2854W        W 6598   3.241   2.557   3.687 -0.0545 -0.3034 -0.1726
 2855W        W 6599   5.540   4.401  12.092  0.0624 -0.0213 -0.1961
 2856W        W 6600   5.462   6.200   1.667  0.0336 -0.1390  0.2490
 2857W        W 6601   2.376   4.463   8.843 -0.4875  0.0475 -0.0145
 2858W        W 6602   3.840   1.675   2.345 -0.0414  0.0362  0.2362
 2859W        W 6603   6.700   1.094   8.625  0.0699 -0.0601 -0.1275
 2860W        W 6604   3.413   4.004  10.612 -0.5310 -0.0879 -0.1421
 2861W        W 6605   4.677   5.774   9.303 -0.1496  0.2449  0.0571
 2862W        W 6606   4.762   2.159   2.658  0.0647 -0.3592  0.1037
 2863W        W 6607   9.578   2.819   2.610  0.1764 -0.0170 -0.0668
 2864W        W 6608   2.840   0.552  11.313 -0.2642 -0.1661 -0.1131
 2865W        W 6609   8.249   0.354  11.927  0.4276  0.4867  0.4018
 2866W        W 6610   7.440   2.097  11.619 -0.0220 -0.1582  0.1393
 2867W        W 6611   1.923   7.054  11.868 -0.2240 -0.1926 -0.0159
 2868W        W 6612   5.292   6.585   0.855  0.0314  0.1670  0.1984
 2869W        W 6613   4.060   1.922   1.002 -0.0427 -0.0802 -0.0614
 2870W        W 6614   9.102   9.472   8.655  0.3058  0.2760  0.0132
 2871W        W 6615   8.029   7.412   3.711  0.2337  0.1735  0.0939
 2872W        W 6616   1.063   5.179   3.040 -0.0062 -0.3659  0.0047
 2873W        W 6617   0.984   7.907   3.074  0.0890 -0.1475 -0.1944
 2874W        W 6618   0.770   4.194  10.683 -0.0655 -0.1630 -0.0014
 2875W        W 6619   6.397   0.722  10.358  0.0290 -0.1618 -0.1975
 2876W        W 6620   2.863   0.176   4.902 -0.0888  0.0583 -0.2171
 2877W        W 6621   7.455   5.351  11.497 -0.0545 -0.0678 -0.0526
 2878W        W 6622   5.036   0.454   9.579 -0.0063 -0.0398 -0.0640
 2879W        W 6623   2.890   8.050  10.512 -0.0037  0.0001  0.0816
 2880W        W 6624   3.778   6.042  11.037 -0.1476 -0.1220 -0.2480
 2881W        W 6625   3.671   2.290  12.809  0.3278 -0.2641 -0.2254
 2882W        W 6626   7.719   8.606  11.566 -0.0737  0.0727  0.4006
 2883W        W 6627   6.085   2.672   3.753 -0.0840  0.0903  0.0473
 2884W        W 6628   2.373   5.632   1.582  0.2700  0.1237 -0.0502
 2885W        W 6629   3.052   9.795   9.957  0.2217 -0.0767  0.2182
 2886W        W 6630   5.295   2.184  10.003  0.1208  0.4512 -0.1895
 2887W        W 6631   1.658   3.299   8.588  0.1320  0.0504  0.0089
 2888W        W 6632   9.756   7.697  10.704 -0.0021 -0.0782  0.2983
 2889W        W 6633   6.530   1.298   0.309  0.0577  0.1790 -0.2642
 2890W        W 6634   6.245   8.973   1.032  0.0066  0.1465  0.2095
 2891W        W 6635   9.556   6.697   2.098 -0.1330  0.0369 -0.0951
 2892W        W 6636   7.641   0.566   3.768  0.2477 -0.1668 -0.1988
 2893W        W 6637   7.359   9.474   4.030  0.0808 -0.0868 -0.0309
 2894W        W 6638   2.307   5.747   3.236  0.1584  0.1030  0.0842
 2895W        W 6639   9.641   3.885   3.287 -0.0804 -0.1129 -0.1722
 2896W        W 6640   6.683   2.390   3.104 -0.4170  0.4946  0.0883
 2897W        W 6641   8.066   4.542  10.146 -0.2324 -0.1395  0.0755
 2898W        W 6642   3.858   1.439  11.699  0.3516  0.3095  0.0354
 2899W        W 6643   1.400   9.822   0.569 -0.1440  0.1107  0.0279
 2900W        W 6644   3.720   9.790   0.338 -0.0570 -0.2219 -0.2281
 2901W        W 6645   1.029   0.083   1.887 -0.2301  0.3412  0.1698
 2902W        W 6646   9.272   7.225   3.081 -0.0652 -0.1560  0.3136
 2903W        W 6647   0.479   1.629   2.959 -0.1998  0.4529  0.1299
 2904W        W 6648   7.522   7.496  12.146 -0.1074  0.3975 -0.0027
 2905W        W 6649   7.893   6.151   0.925  0.0230  0.2868  0.3298
 2906W        W 6650   9.574   0.759  12.026  0.0728 -0.2300 -0.4964
 2907W        W 6651   3.110   0.196   2.030  0.1926 -0.1585 -0.0995
 2908W        W 6652   4.199   2.880   3.770 -0.0538  0.2781  0.4670
 2909W        W 6653   1.200   4.396   2.031  0.2984 -0.0456  0.0128
 2910W        W 6654   7.926   1.466   0.907 -0.1424 -0.1844 -0.0603
 2911W        W 6655   7.570   5.251   4.611 -0.0835  0.1830  0.0206
 2912W        W 6656   4.769   1.411   0.861  0.0345 -0.1417  0.0078
 2913W        W 6657   5.131   6.870   3.100  0.1060  0.2436  0.0406
 2914W        W 6658   6.145   2.984  10.675 -0.0186 -0.1505 -0.0661
 2915W        W 6659   6.001   6.819   2.148  0.0774 -0.0889 -0.2415
 2916W        W 6660   0.619   7.772   7.930  0.0356 -0.1521 -0.1606
 2917W        W 6661   6.700   9.189   2.869  0.2093 -0.2981 -0.2018
 2918W        W 6662   4.622   3.077   1.992 -0.0027 -0.0558 -0.2402
 2919W        W 6663   7.090   7.686   1.045 -0.3642 -0.1352 -0.1645
 2920W        W 6664   1.115   8.903   9.847 -0.1359 -0.0068  0.2640
 2921W        W 6665   1.881   2.854  11.497  0.1696 -0.4630  0.0094
 2922W        W 6666   2.015   4.123  10.745  0.2237  0.1976 -0.2170
 2923W        W 6667   3.966   8.902   4.500 -0.0682 -0.1762  0.2464
 2924W        W 6668   5.658   0.892   2.376 -0.1321 -0.3812 -0.2197
 2925W        W 6669   5.460   4.457   9.214  0.3263 -0.1694 -0.1179
 2926W        W 6670   9.507   3.468  12.332  0.2861 -0.0746  0.1139
 2927W        W 6671   3.188   4.754  11.106  0.0871 -0.2348 -0.0295
 2928W        W 6672   4.676   3.394   1.237 -0.1065  0.0393 -0.0143
 2929W        W 6673   9.214   6.551   2.478 -0.0158 -0.0491 -0.1392
 2930W        W 6674   9.583   6.667  10.411  0.0678 -0.2693 -0.2869
 2931W        W 6675   5.838   9.120   2.677 -0.0648  0.2269  0.1580
 2932W        W 6676   4.162   1.094   3.685  0.2885 -0.2301  0.0439
 2933W        W 6677   9.010   7.561   1.041  0.2412  0.2449  0.1218
 2934W        W 6678   5.729   9.853   2.347 -0.2239  0.0201  0.0311
 2935W        W 6679   8.543   8.248   9.359 -0.2918  0.1063  0.0084
 2936W        W 6680   1.591   0.311   3.068  0.0005  0.1876  0.2376
 2937W        W 6681   7.764   2.645   3.743  0.1198  0.1148  0.2799
 2938W        W 6682   5.923   8.434  10.602 -0.1052 -0.3328 -0.3171
 2939W        W 6683   1.632   4.008   0.726  0.4900  0.3742 -0.3201
 2940W        W 6684   4.532   3.193   0.435 -0.1796 -0.1233 -0.3067
 2941W        W 6685   3.057   6.946  12.267  0.1480 -0.2123 -0.1030
 2942W        W 6686   7.968   8.932  12.526  0.1467 -0.2155 -0.0251
 2943W        W 6687   7.368   5.984   1.230 -0.0265  0.2752 -0.0531
 2944W        W 6688   7.980   5.721  10.885 -0.1264  0.2046 -0.0526
 2945W        W 6689   0.417   3.655  12.227  0.1077 -0.2895  0.0467
 2946W        W 6690   2.022   9.469   9.903  0.2885 -0.1700 -0.0654
 2947W        W 6691   7.025   8.240   3.646  0.0700 -0.0807 -0.0550
 2948W        W 6692   3.294   9.655  11.574 -0.1995 -0.0709  0.1008
 2949W        W 6693   6.674   6.329   8.719 -0.2795  0.2174 -0.1785
 2950W        W 6694   2.211   7.104  10.640  0.1916 -0.1104 -0.1842
 2951W        W 6695   4.715   3.822  12.486  0.0413 -0.0893 -0.4312
 2952W        W 6696   4.056   0.129   0.529 -0.2350 -0.0741  0.1384
 2953W        W 6697   3.025   9.171  11.353  0.3200  0.0711 -0.0303
 2954W        W 6698   3.287   3.943   8.742  0.0191  0.0831 -0.1738
 2955W        W 6699   1.616   4.577  12.485 -0.0862  0.1505  0.0440
 2956W        W 6700   1.853   9.559   1.928 -0.1600  0.0737  0.0889
 2957W        W 6701   5.235   2.116   2.930  0.1671 -0.2453 -0.0518
 2958W        W 6702   6.742   5.835   8.843 -0.0964 -0.0681 -0.0795
 2959W        W 6703   3.593   3.843  12.551 -0.0445  0.0558 -0.1279
 2960W        W 6704   3.148   4.706   1.632  0.2607 -0.0836  0.1141
 2961W        W 6705   7.398   4.803  11.871  0.2711 -0.1409  0.0465
 2962W        W 6706   4.974   2.456   3.966 -0.0127  0.0731  0.0200
 2963W        W 6707   0.122   1.006   2.461 -0.0768  0.0944 -0.0144
 2964W        W 6708   4.468   5.216   3.766 -0.1827 -0.1868 -0.0178
 2965W        W 6709   3.961   7.494   0.385 -0.0532 -0.2750  0.4716
 2966W        W 6710   0.693   7.053  11.510 -0.2714  0.0765 -0.3098
 2967W        W 6711   5.137   5.734  11.857  0.0366 -0.3219 -0.0395
 2968W        W 6712   1.893   1.525   0.239 -0.0030  0.2897  0.4880
 2969W        W 6713   3.594   4.506   9.496  0.1074 -0.2202  0.1337
 2970W        W 6714   2.416   7.736   3.912  0.2319 -0.2607  0.1476
 2971W        W 6715   5.499   1.224   2.707 -0.2889  0.1217  0.2425
 2972W        W 6716   2.734   0.487   0.696  0.0011  0.3133 -0.2466
 2973W        W 6717   0.558   9.796  10.456 -0.0995  0.1607  0.2151
 2974W        W 6718   0.002   2.041   1.065  0.1072 -0.0996  0.0965
 2975W        W 6719   6.112   1.649   3.120 -0.2957  0.1949 -0.3398
 2976W        W 6720   6.399   8.710   0.064  0.0584  0.2423 -0.0881
 2977W        W 6721   5.849   6.730  12.623  0.1632 -0.1293 -0.2025
 2978W        W 6722   0.118   6.148   9.477  0.2328 -0.0450 -0.1795
 2979W        W 6723   3.932   7.881   2.888 -0.0032  0.1176  0.0449
 2980W        W 6724   5.641   8.025   0.451 -0.1500 -0.1630 -0.0173
 2981W        W 6725   2.601   3.521   0.803 -0.0822 -0.3237 -0.0139
 2982W        W 6726   1.205   0.400   2.748  0.1237 -0.0811 -0.0335
 2983W        W 6727   4.842   3.961   2.999  0.1068  0.0623 -0.3414
 2984W        W 6728   2.566   8.253   9.466 -0.0310  0.1242 -0.0968
 2985W        W 6729   2.265   4.405  10.284 -0.0203 -0.0764  0.0928
 2986W        W 6730   9.154   2.402   4.019  0.2781 -0.1024 -0.1505
 2987W        W 6731   8.318   8.964  10.476  0.1009  0.1957 -0.0573
 2988W        W 6732   7.516   6.440   0.949 -0.2209 -0.1057 -0.0825
 2989W        W 6733   4.466   7.969   9.219 -0.0259  0.0079  0.1947
 2990W        W 6734   4.127   4.659   2.665  0.1006 -0.3234 -0.0738
 2991W        W 6735   3.954   9.232  11.700  0.0319  0.1243  0.2404
 2992W        W 6736   9.535   8.909  10.140  0.0530 -0.1615 -0.1576
 2993W        W 6737   2.054   9.032   4.190  0.0224 -0.2584 -0.0795
 2994W        W 6738   3.212   8.736   3.687  0.0752  0.0210 -0.2387
 2995W        W 6739   1.390   4.027  12.411 -0.2726 -0.0283  0.4588
 2996W        W 6740   9.650   3.253   2.934 -0.1247 -0.3231 -0.1054
 2997W        W 6741   7.256   2.651   1.262  0.3306 -0.3398  0.2287
 2998W        W 6742   3.989   2.903   2.802  0.3828 -0.0475  0.0320
 2999W        W 6743   4.978   3.040   3.054 -0.0179  0.1992  0.0542
 3000W        W 6744   2.383   1.277   8.951 -0.3088  0.1493 -0.0786
 3001W        W 6745   1.399   5.897  11.338 -0.2778 -0.0598  0.0579
 3002W        W 6746   3.019   1.443   3.593 -0.1878  0.1539 -0.0588
 3003W        W 6747   3.439   4.307   1.465  0.0931  0.0080 -0.2949
 3004W        W 6748   5.543   3.006   9.372 -0.0900 -0.0447  0.0965
 3005W        W 6749   4.985   7.664   8.789 -0.0303 -0.1173  0.0711
 3006W        W 6750   1.402   2.303  12.489  0.0621 -0.3017 -0.1036
 3007W        W 6751   9.831   7.127  10.244  0.2311 -0.5354 -0.1216
 3008W        W 6752   0.535   5.791  11.848  0.2198  0.1862 -0.3409
 3009W        W 6753   9.608   4.021  10.625 -0.0350 -0.4162 -0.0333
 3010W        W 6754   7.776   3.877   0.291  0.1822 -0.0598 -0.1469
 3011W        W 6755   9.849   7.908  12.640  0.1845 -0.0723 -0.1215
 3012W        W 6756   5.962   7.384  10.379 -0.4816 -0.4370  0.2051
 3013W        W 6757   3.832   6.979  10.222  0.1210 -0.2161 -0.0071
 3014W        W 6758   8.857   2.031   0.328  0.1825  0.1512  0.1840
 3015W        W 6759   6.101   9.323  10.762  0.2470 -0.2991 -0.2423
 3016W        W 6760   5.213   3.653   9.121  0.0440  0.3005  0.2747
 3017W        W 6761   4.214   1.404   2.020  0.0534  0.1098  0.2056
 3018W        W 6762   7.815   2.216   0.257  0.0838 -0.0523  0.2204
 3019W        W 6763   1.356   4.901  11.805 -0.0950  0.0557 -0.2734
 3020W        W 6764   4.025   7.679   2.435 -0.3809 -0.0406 -0.1606
 3021W        W 6765   6.339   5.449   9.883 -0.0028 -0.2577 -0.0190
 3022W        W 6766   6.395   6.046  10.942 -0.0118 -0.3118  0.3454
 3023W        W 6767   7.999   7.171  12.222  0.1798 -0.0101  0.0850
 3024W        W 6768   2.732   0.772  12.460 -0.0705 -0.2345 -0.1387
 3025W        W 6769   7.122   0.519   2.598 -0.0194 -0.0230 -0.2944
 3026W        W 6770   1.613   1.999   2.735 -0.0114  0.0503 -0.3483
 3027W        W 6771   2.141   7.155   1.590  0.1409 -0.0977 -0.5093
 3028W        W 6772   5.571   4.686  11.662  0.3334  0.3125 -0.1475
 3029W        W 6773   5.900   9.126   0.529 -0.3330 -0.0482 -0.1268
 3030W        W 6774   9.623   0.295   0.319  0.2393  0.1757 -0.2792
 3031W        W 6775   9.624   2.442  12.347  0.2958 -0.1018  0.3401
 3032W        W 6776   6.393   0.340   9.978  0.0227  0.1165  0.0373
 3033W        W 6777   1.214   5.010   8.867 -0.0078 -0.0205 -0.0915
 3034W        W 6778   4.951   4.325   2.695 -0.1521  0.0696  0.1502
 3035W        W 6779   2.231   6.357   3.749 -0.2220 -0.1608  0.1811
 3036W        W 6780   4.125   0.467   0.127 -0.1743 -0.0078 -0.3155
 3037W        W 6781   4.652   0.365   9.869  0.0605 -0.0952 -0.2058
 3038W        W 6782   0.450   0.246  12.576  0.1645 -0.0445 -0.1901
 3039W        W 6783   3.226   4.203   4.003 -0.2056  0.1239 -0.2301
 3040W        W 6784   3.708   8.429   2.032  0.0352 -0.0514  0.2462
 3041W        W 6785   1.384   7.827  11.911  0.1002  0.1388 -0.0593
 3042W        W 6786   5.991   7.517  12.651 -0.0590  0.1582  0.4131
 3043W        W 6787   3.905   1.676   4.149 -0.0436  0.0251 -0.0484
 3044W        W 6788   4.876   2.494   3.018 -0.3837 -0.1678  0.0336
 3045W        W 6789   7.735   0.528   9.640 -0.3953  0.0824  0.0974
 3046W        W 6790   5.755   6.548  10.654  0.1469 -0.1360 -0.0885
 3047W        W 6791   6.984   8.800  12.077  0.0999  0.1317  0.0576
 3048W        W 6792   1.742   2.545  12.754 -0.1135  0.1003 -0.0270
 3049W        W 6793   4.699   3.948   1.056 -0.2140  0.0623 -0.0451
 3050W        W 6794   5.056   1.188   3.706 -0.3324 -0.2590  0.0550
 3051W        W 6795   6.730   6.484   0.715  0.0485 -0.1332 -0.0295
 3052W        W 6796   8.683   4.598  11.509  0.0271 -0.0279 -0.0156
 3053W        W 6797   6.088   9.724  10.030 -0.0217  0.2541  0.0038
 3054W        W 6798   0.981   9.013   2.835 -0.0986 -0.2430 -0.0851
 3055W        W 6799   9.205   8.964   0.650 -0.0219 -0.1591  0.0584
 3056W        W 6800   3.793   5.758   2.132 -0.1658 -0.1322 -0.1478
 3057W        W 6801   0.997   9.359  10.097  0.1291  0.1005 -0.0222
 3058W        W 6802   9.516   4.822  12.014 -0.1789  0.1618 -0.0650
 3059W        W 6803   5.911   3.859  11.741 -0.0456 -0.0252 -0.5375
 3060W        W 6804   3.668   0.354  12.352  0.1173 -0.0248  0.3543
 3061W        W 6805   7.287   4.024   0.263  0.2484 -0.1611 -0.3407
 3062W        W 6806   1.040   1.979   1.964  0.0584 -0.4274  0.0396
 3063W        W 6807   8.673   0.217   1.972 -0.1860  0.0762  0.0016
 3064W        W 6808   6.784   1.882  11.075  0.0895 -0.2837 -0.2932
 3065W        W 6809   1.558   1.462   2.799 -0.0325  0.2690  0.2777
 3066W        W 6810   0.628   4.629  10.102  0.2280 -0.0257  0.2346
 3067W        W 6811   3.151   6.784   4.638  0.1264  0.0034  0.1438
 3068W        W 6812   1.864   0.130   0.423 -0.2246 -0.1107  0.3076
 3069W        W 6813   0.047   5.613  10.799  0.0680 -0.0331 -0.2401
 3070W        W 6814   9.205   0.211  11.953 -0.2560  0.2831  0.0856
 3071W        W 6815   8.263   1.163   0.621 -0.2860  0.0838  0.2371
 3072W        W 6816   3.214   1.331   9.982 -0.0306  0.0928  0.2861
 3073W        W 6817   2.895   0.069   9.452 -0.1114  0.1483  0.0850
 3074W        W 6818   3.258   6.944   0.880  0.2154 -0.5179 -0.2730
 3075W        W 6819   8.228   6.124  12.526 -0.0601 -0.1721  0.0323
 3076W        W 6820   2.555   6.248   3.418  0.4653  0.0676 -0.0167
 3077W        W 6821   1.780   4.042   1.178 -0.1102 -0.3231 -0.1577
 3078W        W 6822   4.953   8.428   8.396  0.0904  0.0419 -0.0252
 3079W        W 6823   8.757   4.132   1.634  0.1381 -0.0062 -0.0462
 3080W        W 6824   8.324   0.991   3.685  0.1169  0.2624 -0.3100
 3081W        W 6825   0.506   2.135   9.903 -0.0145  0.0978  0.0344
 3082W        W 6826   6.645   0.040   3.632  0.0865  0.0651 -0.2425
 3083W        W 6827   5.641   1.983   3.179 -0.2055  0.2331  0.1731
 3084W        W 6828   5.049   8.236   3.473  0.0871 -0.2766  0.2246
 3085W        W 6829   1.737   8.500  11.011  0.2388 -0.0003 -0.1373
 3086W        W 6830   1.810   3.766   9.857  0.0621  0.0098  0.0897
 3087W        W 6831   3.837   0.895  11.179  0.3306  0.1068 -0.3933
 3088W        W 6832   0.130   8.239   4.612 -0.0126 -0.0273 -0.2337
 3089W        W 6833   5.187   2.227   3.481 -0.3309 -0.3029 -0.3154
 3090W        W 6834   5.017   8.446  10.611  0.0842 -0.1281 -0.4529
 3091W        W 6835   5.976   1.582   1.253  0.0548 -0.2244 -0.1028
 3092W        W 6836   3.041   1.983   8.618 -0.0933 -0.0619 -0.5052
 3093W        W 6837   6.402   7.142  10.189 -0.3180  0.0444 -0.3849
 3094W        W 6838   3.529   7.636   0.200  0.1770  0.1308 -0.0296
 3095W        W 6839   1.448   3.281  12.709  0.0722  0.1124  0.1387
 3096W        W 6840   5.851   5.147   4.327  0.2039 -0.2393  0.0171
 3097W        W 6841   3.680   8.553  10.883  0.1566 -0.0764  0.1172
 3098W        W 6842   2.725   2.092   2.981  0.0607  0.2867  0.0768
 3099W        W 6843   8.989   5.366   3.517 -0.0428  0.1586 -0.1786
 3100W        W 6844   7.762   1.147   9.461 -0.1293  0.0659 -0.1322
 3101W        W 6845   6.146   4.794   8.972  0.2185  0.2676 -0.1737
 3102W        W 6846   3.848   3.249   9.866  0.2882 -0.1834 -0.1296
 3103W        W 6847   6.855   5.306  12.309 -0.3557  0.1761  0.0086
 3104W        W 6848   3.290   0.519   1.047  0.2753  0.2020 -0.0926
 3105W        W 6849   1.849   0.093   9.704 -0.2907  0.0308  0.0218
 3106W        W 6850   4.449   9.156   8.329 -0.1567 -0.0466  0.1627
 3107W        W 6851   3.816   1.043   3.036  0.0864  0.0279 -0.0769
 3108W        W 6852   2.259   8.598   0.964  0.2770  0.3903 -0.1732
 3109W        W 6853   6.186   6.851   9.815  0.0769  0.0255  0.2044
 3110W        W 6854   0.954   8.255   0.698 -0.0141  0.0241  0.1073
 3111W        W 6855   4.907   8.714  10.189  0.0093 -0.0274 -0.2403
 3112W        W 6856   8.659   0.957  10.924  0.2916 -0.3208 -0.0709
 3113W        W 6857   8.227   8.772   9.449 -0.3668 -0.1183 -0.2314
 3114W        W 6858   1.025   8.691  12.101 -0.2911  0.0050  0.0201
 3115W        W 6859   0.189   6.924   1.367 -0.1651  0.2272 -0.1593
 3116W        W 6860   3.051   1.870   9.508  0.1188 -0.1370 -0.3245
 3117W        W 6861   8.206   2.926   3.086 -0.1601  0.2222  0.1136
 3118W        W 6862   1.382   1.423   9.408 -0.1164  0.0497  0.2053
 3119W        W 6863   9.116   0.723  11.975 -0.1263 -0.1819 -0.3323
 3120W        W 6864   4.485   8.740  11.463  0.0073  0.0391  0.3316
 3121W        W 6865   4.276   7.069  12.003 -0.4086 -0.1173  0.1319
 3122W        W 6866   7.587   9.198  10.874 -0.0182  0.3304 -0.0760
 3123W        W 6867   9.408   9.779   1.804 -0.1182  0.2303  0.3701
 3124W        W 6868   5.717   7.135   4.845  0.1477 -0.0888 -0.1325
 3125W        W 6869   1.625   7.189   1.645 -0.0120  0.0408  0.0386
 3126W        W 6870   3.554   3.041   2.962 -0.2840 -0.1811 -0.1323
 3127W        W 6871   4.588   7.917  12.422  0.1322 -0.3108 -0.0406
 3128W        W 6872   2.983   9.376  12.662  0.0065  0.1341 -0.1220
 3129W        W 6873   4.032   6.263   0.107 -0.2123  0.0930  0.3307
 3130W        W 6874   2.151   2.376   1.308 -0.1628 -0.2978  0.4790
 3131W        W 6875   9.820   3.554  10.688  0.0884  0.0919 -0.0008
 3132W        W 6876   3.856   8.709   3.562  0.3957 -0.4741 -0.6325
 3133W        W 6877   7.021   9.832   4.040 -0.0358 -0.1706 -0.2653
 3134W        W 6878   4.261   5.266   0.014 -0.0609  0.0708 -0.1286
 3135W        W 6879   8.426   9.666   1.466 -0.0057 -0.4203  0.2145
 3136W        W 6880   9.855   8.741   1.310  0.1137 -0.2418  0.2104
 3137W        W 6881   4.361   7.653   5.112  0.1533 -0.2646 -0.3513
 3138W        W 6882   6.553   9.715   8.663 -0.0517 -0.1084 -0.2105
 3139W        W 6883   3.825   2.952   0.203  0.1913  0.1535  0.1314
 3140W        W 6884   6.368   5.225   1.381 -0.0507 -0.0245 -0.0189
 3141W        W 6885   6.398   5.901  11.536 -0.0994  0.0865 -0.1017
 3142W        W 6886   4.210   1.664   2.811 -0.1441  0.0107 -0.0941
 3143W        W 6887   4.297   4.095   0.850  0.1212  0.2934 -0.0541
 3144W        W 6888   8.461   1.251   1.571 -0.2565  0.0195 -0.1145
 3145W        W 6889   5.643   2.839   8.835  0.1326  0.1180 -0.0114
 3146W        W 6890   7.401   6.763   0.165 -0.4703  0.0171  0.1155
 3147W        W 6891   8.179   6.311   2.192 -0.0539 -0.0002 -0.1120
 3148W        W 6892   5.162   6.243   0.398  0.0708  0.1705 -0.0899
 3149W        W 6893   6.391   4.224   1.401 -0.2165  0.1440  0.0393
 3150W        W 6894   4.023   9.078  10.254  0.1362 -0.0331 -0.2127
 3151W        W 6895   3.431   9.837  10.355 -0.3771  0.2473  0.1674
 3152W        W 6896   5.614   5.126  11.441  0.1667 -0.1930  0.1228
 3153W        W 6897   9.763   2.906   0.742  0.0010  0.0290 -0.1818
 3154W        W 6898   2.637   3.358   3.091  0.1619 -0.2929  0.1652
 3155W        W 6899   4.310   6.147  11.057  0.2024  0.0869 -0.2536
 3156W        W 6900   8.059   9.391   1.372 -0.2048 -0.1224 -0.0763
 3157W        W 6901   8.315   9.697  11.458 -0.0127 -0.1718 -0.0200
 3158W        W 6902   6.122   3.839   9.488 -0.4243 -0.0667  0.1365
 3159W        W 6903   4.835   2.599  11.192 -0.1634 -0.2826  0.1108
 3160W        W 6904   2.124   2.599   2.892  0.1329  0.0217  0.0968
 3161W        W 6905   8.018   2.238   3.881  0.0695 -0.0439 -0.4329
 3162W        W 6906   6.030   6.911   3.276  0.0360  0.2217 -0.1582
 3163W        W 6907   3.899   4.318  12.436 -0.0392  0.3671 -0.1579
 3164W        W 6908   9.282   8.488   9.676  0.0573 -0.0713  0.3014
 3165W        W 6909   1.953   7.148   0.276  0.1772 -0.3784 -0.2195
 3166W        W 6910   2.954   2.808   2.255  0.1017 -0.0271 -0.0079
 3167W        W 6911   4.201   1.908  12.208  0.0302  0.2290  0.0820
 3168W        W 6912   3.377   8.515   9.875 -0.0191 -0.1725 -0.1751
 3169W        W 6913   5.749   2.865   2.720 -0.2320  0.1347 -0.2593
 3170W        W 6914   0.589   0.882   1.579 -0.3247  0.0271 -0.3505
 3171W        W 6915   8.245   8.875  12.109 -0.3140  0.4621  0.0292
 3172W        W 6916   2.295   7.039   2.162  0.3046  0.0216  0.1819
 3173W        W 6917   8.881   1.110   1.188  0.2029 -0.3166  0.1991
 3174W        W 6918   4.165   5.434   2.333 -0.0444 -0.0511  0.1805
 3175W        W 6919   7.177   3.336   0.605  0.2003 -0.3209  0.1916
 3176W        W 6920   6.676   3.961   8.709  0.1864  0.0981  0.1595
 3177W        W 6921   6.654   5.545   4.733 -0.1125  0.0412  0.0022
 3178W        W 6922   6.481   1.138  11.263  0.0354  0.0118  0.2850
 3179W        W 6923   6.811   9.149   9.380  0.0581  0.0306 -0.0457
 3180W        W 6924   3.833   9.517  10.265  0.1787  0.2325 -0.0311
 3181W        W 6925   7.928   4.748   3.606  0.0046  0.1631 -0.1412
 3182W        W 6926   7.403   2.799  12.122  0.0370  0.0393 -0.0264
 3183W        W 6927   9.752   1.048  10.438  0.1449  0.0546 -0.0932
 3184W        W 6928   0.374   4.108   0.739 -0.0805  0.0082  0.2069
 3185W        W 6929   8.348   3.721   3.147  0.1356  0.2018 -0.3024
 3186W        W 6930   8.112   8.375   9.802 -0.2914  0.0537  0.0461
 3187W        W 6931   6.661   8.607   3.428  0.1641 -0.0578  0.2140
 3188W        W 6932   8.307   5.305  10.854 -0.1590  0.3010 -0.1169
 3189W        W 6933   7.055   3.215  12.206 -0.2240 -0.3006  0.1052
 3190W        W 6934   9.331   6.881  12.383 -0.2673  0.0596  0.0262
 3191W        W 6935   4.847   2.668   9.147  0.0413  0.0231 -0.0655
 3192W        W 6936   7.789   6.081  12.213 -0.3140  0.0409 -0.0201
 3193W        W 6937   5.110   3.027  10.647  0.3577 -0.3011 -0.1204
 3194W        W 6938   9.207   4.589  10.236 -0.2508 -0.0702  0.1919
 3195W        W 6939   2.384   1.288  11.131 -0.0010 -0.0672 -0.0407
 3196W        W 6940   2.262   3.879   1.453  0.0653 -0.1764 -0.0593
 3197W        W 6941   1.502   1.787   3.223  0.2754  0.2938 -0.3848
 3198W        W 6942   0.531   2.782  12.037 -0.2058 -0.0388  0.2661
 3199W        W 6943   3.784   6.778   4.399 -0.0483 -0.0238  0.2362
 3200W        W 6944   7.775   1.700   3.420 -0.1349  0.3928  0.2305
 3201W        W 6945   5.874   5.393   1.515 -0.2718  0.0887 -0.1672
 3202W        W 6946   7.494   9.433  11.435  0.3390  0.0038 -0.1656
 3203W        W 6947   6.117   3.940   0.905 -0.0078  0.4636  0.1522
 3204W        W 6948   0.604   6.071   2.809  0.1033  0.1356 -0.0725
 3205W        W 6949   1.695   4.632   2.870  0.2622  0.1094  0.0150
 3206W        W 6950   1.889   4.766   0.410 -0.1665 -0.0941  0.2942
 3207W        W 6951   4.168   4.950   9.742 -0.2900 -0.0216 -0.0670
 3208W        W 6952   1.869   3.783   2.368 -0.0337  0.4433 -0.1016
 3209W        W 6953   9.375   1.469  12.462 -0.3987 -0.1671  0.2366
 3210W        W 6954   7.529   3.879   1.434  0.0266 -0.0021 -0.0587
 3211W        W 6955   7.748   6.487  11.424  0.1688 -0.0887  0.0333
 3212W        W 6956   5.296   2.186   1.117 -0.0021  0.1774 -0.1963
 3213W        W 6957   9.586   6.453   9.611 -0.2835  0.0591  0.1682
 3214W        W 6958   6.340   6.162   2.830 -0.1782 -0.0992  0.2696
 3215W        W 6959   6.805   8.672   1.948  0.2992 -0.1349  0.3297
 3216W        W 6960   2.523   7.283   4.016  0.4716  0.0997 -0.5536
 3217W        W 6961   9.278   1.260  11.978  0.2197  0.1151 -0.3818
 3218W        W 6962   7.098   3.863  11.736 -0.4433 -0.0416 -0.0319
 3219W        W 6963   4.696   5.059  10.465  0.0265  0.0061 -0.1006
 3220W        W 6964   5.662   4.780   0.113 -0.1040  0.0742 -0.1925
 3221W        W 6965   3.438   7.595   4.840  0.0925 -0.0336  0.2324
 3222W        W 6966   7.188   7.246   8.922  0.2802  0.2104  0.0086
 3223W        W 6967   4.504   0.688   0.427 -0.1351  0.2348 -0.1126
 3224W        W 6968   8.102   6.942  11.252  0.0393 -0.2116 -0.0253
 3225W        W 6969   2.781   3.907   3.800 -0.1715  0.1316 -0.0353
 3226W        W 6970   4.745   9.128   9.986  0.0808 -0.0190 -0.1973
 3227W        W 6971   0.459   8.881   0.068  0.0553 -0.3047 -0.0531
 3228W        W 6972   3.302   8.634   2.843  0.1175  0.0127  0.1264
 3229W        W 6973   6.085   7.337   2.315 -0.2245  0.2503 -0.1071
 3230W        W 6974   0.589   1.660  10.096 -0.0710  0.1942  0.3586
 3231W        W 6975   8.662   9.189   4.333 -0.2566 -0.3681 -0.2460
 3232W        W 6976   3.717   4.392   4.132  0.0083  0.0218  0.1203
 3233W        W 6977   3.816   0.523   2.863  0.0550  0.0846 -0.1116
 3234W        W 6978   4.243   8.940   8.805  0.1475  0.1531 -0.2222
 3235W        W 6979   8.815   6.058  11.344  0.1885 -0.2040  0.1274
 3236W        W 6980   3.107   8.860   2.439  0.0500  0.0390  0.1963
 3237W        W 6981   8.928   7.948   0.064  0.2526 -0.1113  0.1710
 3238W        W 6982   8.993   1.275  10.647 -0.3070  0.1622  0.1803
 3239W        W 6983   7.848   7.206   9.867  0.1102  0.1783  0.1655
 3240W        W 6984   8.255   9.898   0.086  0.1519 -0.1345 -0.1235
 3241W        W 6985   8.976   6.092   8.751  0.0052  0.1626 -0.0857
 3242W        W 6986   2.583   5.853   1.199  0.3297 -0.3796  0.0105
 3243W        W 6987   3.206   2.034   3.189  0.3347  0.3744 -0.0984
 3244W        W 6988   2.821   7.673  10.932  0.1725  0.3986  0.3364
 3245W        W 6989   3.026   7.693  11.420  0.1014  0.1460 -0.0626
 3246W        W 6990   2.934   5.819   3.706 -0.0970  0.0860 -0.2692
 3247W        W 6991   8.309   0.123   3.295 -0.3667 -0.2722  0.0830
 3248W        W 6992   6.787   2.845   0.533 -0.3934  0.1341  0.0332
 3249W        W 6993   5.348   2.765   0.774  0.3183  0.2265 -0.0982
 3250W        W 6994   5.443   6.136   3.455 -0.0781  0.1981  0.0207
 3251W        W 6995   1.379   0.467   2.114  0.1871  0.1333 -0.0865
 3252W        W 6996   4.854   9.609   9.099  0.0349 -0.2012 -0.0859
 3253W        W 6997   9.471   9.868   9.579  0.1513  0.0198  0.2934
 3254W        W 6998   5.938   4.995  12.614  0.1890  0.2738 -0.3098
 3255W        W 6999   0.069   4.252   3.143  0.1277  0.2576 -0.3339
 3256W        W 7000   6.739   8.284   9.797 -0.0661  0.0741  0.0338
 3257W        W 7001   6.065   9.735   4.097 -0.2972 -0.3506  0.0698
 3258W        W 7002   2.055   7.162   8.772  0.0601 -0.1327  0.0931
 3259W        W 7003   9.072   2.486   0.217  0.0546 -0.1259  0.0833
 3260W        W 7004   6.550   6.363   2.353  0.1300  0.4489 -0.0021
 3261W        W 7005   7.832   1.864  11.266 -0.2569  0.1439 -0.0226
 3262W        W 7006   9.683   9.364  11.889 -0.1086 -0.0801 -0.0370
 3263W        W 7007   6.672   6.676  10.395  0.2028  0.0158 -0.0004
 3264W        W 7008   7.943   7.949   8.879 -0.3355 -0.1886 -0.3352
 3265W        W 7009   3.718   3.433  11.499  0.0767  0.0681 -0.1108
 3266W        W 7010   0.039   9.482   0.566 -0.0670  0.1604 -0.1189
 3267W        W 7011   8.125   2.482   3.412  0.0444 -0.1191  0.0767
 3268W        W 7012   5.028   0.061  10.086 -0.2245 -0.1852 -0.2693
 3269W        W 7013   0.604   8.323   3.835  0.0616  0.0226  0.0326
 3270W        W 7014   7.995   1.437   9.847 -0.1266 -0.1249 -0.0318
 3271W        W 7015   4.372   1.933   4.592 -0.0897  0.0410  0.0559
 3272W        W 7016   2.918   9.613   2.061 -0.0066 -0.1194  0.1195
 3273W        W 7017   2.405   1.789  12.455 -0.2577  0.0329  0.1061
 3274W        W 7018   7.221   9.682   9.817  0.0484 -0.0833 -0.1395
 3275W        W 7019   4.808   0.575  11.350  0.0749  0.1129 -0.2954
 3276W        W 7020   4.784   5.985  11.260 -0.0221 -0.0937 -0.3702
 3277W        W 7021   7.881   9.112   3.775  0.0072  0.0003 -0.1119
 3278W        W 7022   0.661   7.138   0.157  0.0298 -0.1025 -0.0813
 3279W        W 7023   2.512   6.752   3.351 -0.0367  0.2136 -0.0857
 3280W        W 7024   2.127   8.896   9.884 -0.3646 -0.0390  0.5608
 3281W        W 7025   3.202   8.023   1.434  0.2882 -0.1016  0.1420
 3282W        W 7026   3.461   1.650   3.365 -0.2080 -0.0521  0.3712
 3283W        W 7027   9.310   7.729   8.268 -0.2986 -0.2557  0.0877
 3284W        W 7028   9.742   1.038  12.581  0.1012 -0.1386  0.2321
 3285W        W 7029   0.671   7.644   0.095 -0.1186  0.1850 -0.0334
 3286W        W 7030   5.343   3.966  12.016 -0.1997  0.1166  0.1036
 3287W        W 7031   6.305   8.738   8.475 -0.0216  0.0581  0.1532
 3288W        W 7032   4.167   0.041   2.250 -0.2894 -0.1913 -0.0428
 3289W        W 7033   4.428   1.460   8.772 -0.0765  0.0377  0.0226
 3290W        W 7034   7.011   9.357  11.722  0.1361 -0.1804  0.2216
 3291W        W 7035   0.536   8.820   5.098 -0.3447 -0.0924 -0.4295
 3292W        W 7036   2.566   5.454   3.704 -0.3154  0.2963  0.1511
 3293W        W 7037   7.286   7.531  11.640 -0.0552  0.0275  0.0590
 3294W        W 7038   7.590   0.868   3.340 -0.1654 -0.1626 -0.3855
 3295W        W 7039   1.209   1.331  11.816  0.1550  0.1197 -0.0306
 3296W        W 7040   2.267   5.652   9.384 -0.2137 -0.0438  0.1329
 3297W        W 7041   5.062   6.279   9.909 -0.2214  0.0904 -0.1247
 3298W        W 7042   3.122   0.168   4.412  0.0041  0.3237 -0.0951
 3299W        W 7043   1.186   8.771   4.218 -0.3250 -0.2997  0.2494
 3300W        W 7044   2.428   4.230   2.932  0.1790  0.0499 -0.0956
 3301W        W 7045   6.728   1.400  10.770  0.1287  0.0539  0.0085
 3302W        W 7046   8.879   2.957   9.660  0.0479  0.1067 -0.2613
 3303W        W 7047   0.235   6.528   2.889 -0.0303 -0.3607  0.1911
 3304W        W 7048   7.229   1.132  10.904 -0.2356  0.1458  0.0762
 3305W        W 7049   6.216   5.032   9.549 -0.0008  0.1403  0.0032
 3306W        W 7050   0.992   6.693   2.076 -0.1027  0.2285  0.0712
 3307W        W 7051   1.180   6.691   9.568  0.4041 -0.1783  0.0374
 3308W        W 7052   5.857   8.866   0.071 -0.1923 -0.2377  0.0245
 3309W        W 7053   9.815   6.934   3.163 -0.1896 -0.0537 -0.4795
 3310W        W 7054   3.485   9.186   4.640 -0.3160 -0.1574  0.1932
 3311W        W 7055   9.865   9.221  11.134 -0.1780  0.1199  0.1130
 3312W        W 7056   4.791   5.100   9.967 -0.1643 -0.2201  0.0473
 3313W        W 7057   0.406   2.528   1.777  0.0285  0.1410  0.0424
 3314W        W 7058   0.457   9.570   1.987  0.0327  0.0981 -0.0174
 3315W        W 7059   3.897   6.288   2.086 -0.0340  0.2829  0.0417
 3316W        W 7060   2.726   8.413   0.110  0.2574 -0.0330  0.0559
 3317W        W 7061   8.564   7.038   3.523  0.1932 -0.1651 -0.0416
 3318W        W 7062   1.263   9.180   9.404 -0.0270 -0.0090  0.0909
 3319W        W 7063   9.053   2.151  12.612 -0.0447  0.0404  0.0345
 3320W        W 7064   2.866   3.930  10.706  0.0624 -0.0644 -0.0797
 3321W        W 7065   9.126   6.050  12.293 -0.1727 -0.2902 -0.2472
 3322W        W 7066   0.814   7.478  10.362 -0.0628  0.1127 -0.3016
 3323W        W 7067   2.533   0.670   3.084 -0.0796 -0.0743  0.3088
 3324W        W 7068   0.035   2.286  10.052  0.4450 -0.2291  0.1260
 3325W        W 7069   2.991   2.497   0.270 -0.2778  0.1419  0.0932
 3326W        W 7070   7.224   1.274   0.315 -0.3535 -0.0479 -0.1691
 3327W        W 7071   1.208   1.931  11.573  0.0449  0.2476  0.1800
 3328W        W 7072   3.253   7.201   2.293  0.0395  0.0575 -0.1042
 3329W        W 7073   4.454   9.241  11.458 -0.0327 -0.0608 -0.0146
 3330W        W 7074   2.803   3.181  10.712  0.1048  0.2599 -0.1610
 3331W        W 7075   9.665   4.187  10.110 -0.1740  0.2656 -0.1752
 3332W        W 7076   4.056   1.917   1.967  0.0894 -0.1949 -0.2183
 3333W        W 7077   7.688   5.701   3.640 -0.4093  0.2183 -0.1383
 3334W        W 7078   8.836   6.084   0.423 -0.2024  0.0367 -0.1310
 3335W        W 7079   8.535   3.760  12.306  0.3191  0.0391 -0.0981
 3336W        W 7080   9.067   0.494  11.491 -0.1220  0.2227 -0.1722
 3337W        W 7081   6.346   7.771  11.560  0.1744  0.0673  0.1067
 3338W        W 7082   9.854   4.368   0.756  0.1978  0.2475  0.3000
 3339W        W 7083   2.870   6.528   1.660 -0.0359 -0.0415 -0.0527
 3340W        W 7084   9.637   5.887   3.050 -0.0298  0.2668 -0.0163
 3341W        W 7085   6.132   8.334   2.392 -0.2800 -0.2926 -0.2472
 3342W        W 7086   5.448   7.520   4.329  0.4299 -0.2052  0.0488
 3343W        W 7087   9.481   1.296  10.799  0.4056 -0.1625  0.0881
 3344W        W 7088   7.665   3.870   4.606  0.0676 -0.6088 -0.0984
 3345W        W 7089   7.713   4.314  12.739  0.1579 -0.3466  0.0199
 3346W        W 7090   5.941   3.537   4.467 -0.1250  0.3560  0.0870
 3347W        W 7091   9.437   6.788   9.235  0.0435 -0.1965  0.1638
 3348W        W 7092   2.545   3.778   2.199  0.2808 -0.0951  0.0145
 3349W        W 7093   7.303   0.631  11.007 -0.0358 -0.2613  0.1268
 3350W        W 7094   4.963   9.144   3.642  0.1692 -0.0295 -0.0305
 3351W        W 7095   9.177   0.231   1.645 -0.2735  0.3581 -0.0625
 3352W        W 7096   6.091   6.830  10.374 -0.1467  0.2250  0.0154
 3353W        W 7097   1.055   2.752  10.454 -0.2698  0.2024  0.0756
 3354W        W 7098   0.840   7.257   4.451 -0.1385  0.0427 -0.1753
 3355W        W 7099   3.520   7.528   3.512 -0.2256 -0.0626  0.0994
 3356W        W 7100   0.435   0.823   0.023 -0.1980 -0.1436  0.0306
 3357W        W 7101   3.653   6.735   0.693  0.1849  0.4941 -0.1425
 3358W        W 7102   1.253   5.155  10.652 -0.1371 -0.1668 -0.1528
 3359W        W 7103   1.046   4.410   3.447  0.2187 -0.1259  0.0475
 3360W        W 7104   7.568   3.729   9.742  0.0025 -0.1390  0.0562
 3361W        W 7105   2.777   9.479  11.000 -0.2758 -0.1599 -0.3526
 3362W        W 7106   9.458   1.822  10.131 -0.1235  0.1313 -0.1589
 3363W        W 7107   7.958   9.382   2.293  0.1918  0.0782 -0.3213
 3364W        W 7108   3.889   3.451   2.932 -0.0504  0.0088 -0.2984
 3365W        W 7109   7.019   5.748  12.076  0.1124 -0.1765 -0.3177
 3366W        W 7110   9.611   9.244   3.574  0.0646 -0.1455 -0.0272
 3367W        W 7111   9.020   5.028  10.693  0.1839  0.1819 -0.3143
 3368W        W 7112   2.983   8.956  12.229  0.3375  0.0230 -0.0222
 3369W        W 7113   6.727   4.231  11.995  0.3541 -0.1709  0.3041
 3370W        W 7114   0.722   5.660   3.799 -0.1774  0.0249 -0.1635
 3371W        W 7115   7.595   7.514   0.771  0.3079  0.0790  0.1453
 3372W        W 7116   8.914   6.219   2.257  0.2290 -0.3124 -0.2644
 3373W        W 7117   8.699   1.796  12.309 -0.1107  0.2655  0.1645
 3374W        W 7118   8.044   7.839   0.013 -0.1233  0.0986 -0.1898
 3375W        W 7119   5.037   7.885   2.630 -0.2121 -0.1116  0.1085
 3376W        W 7120   0.522   4.765  10.617 -0.2915 -0.1396  0.0877
 3377W        W 7121   3.215   5.172  12.116  0.1575  0.0673 -0.1175
 3378W        W 7122   4.463   4.053   1.516 -0.2710 -0.0231  0.1112
 3379W        W 7123   4.549   5.162  11.385  0.1449 -0.0292 -0.0554
 3380W        W 7124   6.083   9.575   8.717 -0.1727  0.2743  0.0939
 3381W        W 7125   4.969   7.229   0.130 -0.0866  0.1606 -0.1784
 3382W        W 7126   9.212   7.154  11.671 -0.1688 -0.0718  0.1078
 3383W        W 7127   4.995   0.134   2.020 -0.1884 -0.1615  0.0038
 3384W        W 7128   5.643   3.384   9.017  0.2761  0.1329 -0.0236
 3385W        W 7129   9.712   3.881   9.742  0.1944 -0.1186  0.1728
 3386W        W 7130   3.228   3.406  11.577  0.0555 -0.0361  0.0552
 3387W        W 7131   8.234   5.239   2.093  0.0540 -0.4667  0.0225
 3388W        W 7132   5.314   6.701   1.492  0.0030 -0.0143  0.1963
 3389W        W 7133   7.156   2.875   3.625 -0.5237 -0.3499 -0.1488
 3390W        W 7134   3.121   7.763   8.634  0.3701  0.1516 -0.0482
 3391W        W 7135   5.921   0.733  12.419  0.0024  0.1150 -0.2198
 3392W        W 7136   6.984   4.614   3.064 -0.3149  0.3718 -0.0196
 3393W        W 7137   9.705   0.102   3.344  0.0162 -0.0977 -0.0611
 3394W        W 7138   5.040   3.254   3.574  0.3250 -0.1379  0.0634
 3395W        W 7139   2.327   4.732   0.557  0.2096  0.0153  0.3102
 3396W        W 7140   6.910   0.791   4.160 -0.0591  0.0303 -0.3252
 3397W        W 7141   7.466   3.430  11.353 -0.1441 -0.0446  0.0406
 3398W        W 7142   8.809   1.391   4.569  0.1459 -0.0660 -0.1722
 3399W        W 7143   6.383   2.953   1.624  0.0677 -0.2320 -0.0562
 3400W        W 7144   0.360   1.279   0.023  0.1668  0.0733  0.0470
 3401W        W 7145   0.368   6.877   9.145  0.1673  0.0237 -0.0282
 3402W        W 7146   8.251   2.083  12.188 -0.0189 -0.0728  0.0023
 3403W        W 7147   6.017   0.473   9.288  0.3859  0.0587  0.0257
 3404W        W 7148   4.270   5.872   8.001  0.1982  0.0696  0.1950
 3405W        W 7149   0.358   5.874   2.347  0.0283 -0.0214  0.1851
 3406W        W 7150   6.526   0.915  12.146  0.4335  0.1076  0.1679
 3407W        W 7151   7.620   4.219   2.792 -0.1164 -0.1419  0.1974
 3408W        W 7152   8.213   8.664   4.432  0.1618 -0.2012  0.0125
 3409W        W 7153   9.884   8.597  10.439 -0.4615 -0.2786 -0.2238
 3410W        W 7154   5.029   8.142  10.225  0.0543  0.1997  0.0611
 3411W        W 7155   4.575   1.691   9.643  0.3282  0.6383 -0.3326
 3412W        W 7156   0.610   5.409   2.263 -0.1116 -0.1486  0.1211
 3413W        W 7157   8.963   5.070   0.085 -0.1539 -0.1427 -0.1319
 3414W        W 7158   6.955   7.365   0.131 -0.0930 -0.2297  0.1868
 3415W        W 7159   6.971   5.643   2.705 -0.4170 -0.0240 -0.1555
 3416W        W 7160   4.529   1.976   1.694 -0.1515  0.1667  0.0721
 3417W        W 7161   1.849   0.267   1.268  0.0273 -0.0283 -0.0387
 3418W        W 7162   4.963   6.452   8.771 -0.1577  0.3809  0.0519
 3419W        W 7163   5.342   1.914  10.600 -0.0279 -0.0773 -0.1279
 3420W        W 7164   1.166   1.705  11.037 -0.1213 -0.2770  0.1913
 3421W        W 7165   0.232   8.444   3.073 -0.0811  0.1018 -0.1866
 3422W        W 7166   4.389   0.923  10.454 -0.2321 -0.0450 -0.0161
 3423W        W 7167   9.184   4.462   4.358 -0.0380  0.1060  0.2518
 3424W        W 7168   8.471   3.195   0.804  0.2253  0.1078  0.1336
 3425W        W 7169   6.350   0.948  12.690  0.3731 -0.2925  0.0285
 3426W        W 7170   0.201   5.940   1.699  0.1262 -0.0571 -0.1731
 3427W        W 7171   5.116   5.787  10.793  0.0463 -0.0727 -0.1392
 3428W        W 7172   6.228   7.690   3.085  0.0082 -0.0307  0.2206
 3429W        W 7173   4.107   5.925   2.737 -0.0910  0.0250  0.3611
 3430W        W 7174   7.171   4.866   9.792 -0.3447 -0.2323  0.1198
 3431W        W 7175   0.299   5.760  10.338  0.2246  0.3213 -0.0619
 3432W        W 7176   0.687   8.397  10.232  0.2901 -0.0301  0.3043
 3433W        W 7177   7.866   2.926   9.960 -0.2059 -0.1894 -0.4871
 3434W        W 7178   5.367   3.612   1.370  0.3454  0.1728 -0.3594
 3435W        W 7179   6.210   7.498   8.828  0.0103  0.1459 -0.1705
 3436W        W 7180   7.822   8.778   9.832  0.0261 -0.0410 -0.2128
 3437W        W 7181   3.622   0.354   9.440 -0.1178 -0.0675  0.2170
 3438W        W 7182   6.556   5.934   9.757 -0.2429  0.2786 -0.0452
 3439W        W 7183   0.423   2.734   2.226  0.4512  0.2168  0.0530
 3440W        W 7184   0.269   5.344   9.502 -0.2647  0.2862  0.2209
 3441W        W 7185   2.723   9.121   9.654 -0.2233  0.0023 -0.0726
 3442W        W 7186   3.876   7.879   1.917  0.0391 -0.2167 -0.0659
 3443W        W 7187   5.425   7.949   0.910  0.0425  0.1040  0.2209
 3444W        W 7188   4.434   0.572   8.905 -0.0276 -0.0372 -0.0700
 3445W        W 7189   8.104   7.682   0.495  0.0261  0.1209 -0.2180
 3446W        W 7190   2.316   2.509  12.296  0.4092  0.0457  0.2681
 3447W        W 7191   7.985   3.214   0.966 -0.0506  0.1180  0.1450
 3448W        W 7192   9.383   5.449   0.196 -0.2132  0.0391 -0.2943
 3449W        W 7193   7.705   0.558  10.158 -0.0625  0.0337 -0.1222
 3450W        W 7194   1.552   7.800   2.180 -0.0093 -0.3095  0.4153
 3451W        W 7195   3.603   6.151  12.226 -0.0407 -0.0728 -0.1099
 3452W        W 7196   3.855   8.877   9.169  0.0084  0.2677  0.3993
 3453W        W 7197   5.444   1.396   8.651  0.0638 -0.0256 -0.1803
 3454W        W 7198   0.988   6.801   1.192 -0.1111 -0.0395 -0.0707
 3455W        W 7199   5.307   5.993  11.248  0.0483  0.1071  0.0960
 3456W        W 7200   1.701   6.709   9.986 -0.4559  0.0730 -0.1706
 3457W        W 7201   7.305   1.724  10.145  0.0082  0.0245  0.1348
 3458W        W 7202   5.139   0.526  11.777  0.0182 -0.2095  0.1193
 3459W        W 7203   7.915   7.941  10.985  0.0664  0.1812 -0.0048
 3460W        W 7204   7.089   6.253   0.933  0.1269  0.0405  0.0142
 3461W        W 7205   9.159   7.431   3.522  0.1127 -0.0384 -0.0473
 3462W        W 7206   7.340   4.057  10.065 -0.1825  0.0478 -0.3183
 3463W        W 7207   8.390   7.671  12.345 -0.0054 -0.0336 -0.0888
 3464W        W 7208   9.356   4.913   4.272  0.1018  0.1432 -0.1397
 3465W        W 7209   7.130   8.346   2.678  0.1527 -0.0466  0.1473
 3466W        W 7210   3.362   0.312   2.633 -0.0513 -0.3973 -0.1062
 3467W        W 7211   8.570   4.167   3.196  0.2875 -0.2052  0.0561
 3468W        W 7212   4.582   4.416  11.123 -0.2626  0.1684  0.1952
 3469W        W 7213   2.925   9.884   2.753  0.2768  0.1519 -0.0603
 3470W        W 7214   4.081   8.601   1.336  0.1344 -0.2412  0.0518
 3471W        W 7215   5.896   4.795  12.007 -0.0024 -0.0782  0.1407
 3472W        W 7216   9.843   2.778   9.959  0.0591 -0.1520 -0.3243
 3473W        W 7217   0.127   1.804   1.467  0.1292  0.1031  0.0216
 3474W        W 7218   1.980   1.709  11.162 -0.1627 -0.0881 -0.0265
 3475W        W 7219   8.058   0.390  12.770  0.0662 -0.1453  0.1250
 3476W        W 7220   1.949   5.446   2.579 -0.0408  0.0180  0.0229
 3477W        W 7221   2.456   5.967   9.977 -0.0142  0.3912  0.2737
 3478W        W 7222   6.636   6.504  11.869  0.2564 -0.0964 -0.0032
 3479W        W 7223   3.566   0.638  11.977 -0.0313  0.1670  0.2842
 3480W        W 7224   5.291   0.904   1.517  0.0059 -0.2546 -0.1257
 3481W        W 7225   0.964   9.898  10.176 -0.0772 -0.0515  0.0400
 3482W        W 7226   0.184   6.778   8.135  0.4594 -0.0184 -0.1297
 3483W        W 7227   9.650   2.107  10.455 -0.2028 -0.1506 -0.2732
 3484W        W 7228   1.070   2.202   2.613 -0.0528  0.0366 -0.1026
 3485W        W 7229   2.116   5.187   0.663  0.0169  0.2165  0.0719
 3486W        W 7230   6.606   9.766   2.831 -0.0574  0.1510  0.2318
 3487W        W 7231   8.958   3.291   4.240 -0.0798  0.0128  0.3602
 3488W        W 7232   7.845   9.348  11.797  0.0494  0.0882 -0.2601
 3489W        W 7233   2.159   7.139  11.217 -0.2593  0.0883 -0.0068
 3490W        W 7234   0.246   7.798   0.324 -0.2383  0.3672 -0.3794
 3491W        W 7235   6.900   9.207  11.046  0.0059  0.1830 -0.4570
 3492W        W 7236   7.538   8.137   2.998  0.0166  0.1507 -0.1512
 3493W        W 7237   6.603   1.543  10.161 -0.0982 -0.1122 -0.1573
 3494W        W 7238   4.225   2.715   1.906 -0.1984 -0.3152  0.1339
 3495W        W 7239   1.885   8.415   3.727 -0.1460 -0.0967  0.1369
 3496W        W 7240   6.233   2.559   2.794 -0.0307  0.1430 -0.2738
 3497W        W 7241   3.590   7.469   3.999  0.2385 -0.1460  0.1523
 3498W        W 7242   8.022   1.632  10.821 -0.2456  0.0635  0.1163
 3499W        W 7243   5.981   4.367   0.062 -0.4299 -0.1484  0.1051
 3500W        W 7244   5.778   6.232  12.615  0.2039 -0.1037  0.3635
 3501W        W 7245   5.732   2.972   9.862  0.2657  0.0150 -0.1995
 3502W        W 7246   2.375   3.354   4.118 -0.1192 -0.1265  0.0553
 3503W        W 7247   1.477   6.227   9.045 -0.2347  0.1822 -0.4642
 3504W        W 7248   4.897   9.492  11.355  0.0777  0.0024 -0.1317
 3505W        W 7249   5.241   8.070   4.125 -0.1260  0.0329  0.0849
 3506W        W 7250   7.095   0.533   9.417  0.1485  0.1362  0.1061
 3507W        W 7251   0.282   9.181   1.076 -0.1450  0.2428  0.2842
 3508W        W 7252   9.193   6.261   2.911  0.0510  0.3100 -0.1392
 3509W        W 7253   1.738   5.533   0.932  0.1579 -0.0032  0.1024
 3510W        W 7254   4.963   2.700   3.496  0.0750  0.1086  0.0454
 3511W        W 7255   3.138   3.754   4.095 -0.2843  0.3577 -0.0784
 3512W        W 7256   2.620   8.703  10.121 -0.0488  0.2575 -0.0242
 3513W        W 7257   9.824   8.811   2.668 -0.2106  0.3062  0.0472
 3514W        W 7258   4.534   4.812   0.087  0.2379  0.1275 -0.2528
 3515W        W 7259   1.193   1.466  12.346 -0.0718 -0.1112  0.2300
 3516W        W 7260   4.667   7.244  10.953  0.0806  0.3894 -0.0404
 3517W        W 7261   1.839   7.452   0.732 -0.0347 -0.2930 -0.3094
 3518W        W 7262   7.677   6.992   3.639 -0.0538 -0.1862  0.0843
 3519W        W 7263   4.971   1.344   9.480 -0.2569  0.3284  0.1925
 3520W        W 7264   5.896   6.233  10.982  0.0273  0.1142 -0.0314
 3521W        W 7265   4.658   5.611  11.626  0.2409  0.3260 -0.2275
 3522W        W 7266   3.080   1.789  10.732  0.2165  0.0043 -0.1212
 3523W        W 7267   7.597   0.247   0.103 -0.2297 -0.0206 -0.2061
 3524W        W 7268   3.963   9.436   9.104  0.0934  0.1183  0.3124
 3525W        W 7269   7.822   3.475  11.759  0.0530  0.1340  0.0803
 3526W        W 7270   0.223   5.383  11.682  0.1504 -0.3576 -0.1522
 3527W        W 7271   2.608   0.331   1.631 -0.0687 -0.1770 -0.1718
 3528W        W 7272   3.951   3.248   1.274 -0.3661  0.5069 -0.3145
 3529W        W 7273   0.492   8.789   1.415 -0.0016 -0.0014 -0.0727
 3530W        W 7274   8.745   0.066  11.308 -0.2439 -0.0921  0.0470
 3531W        W 7275   6.916   4.605   4.827 -0.0205 -0.1137  0.5791
 3532W        W 7276   3.852   0.743   3.432 -0.0130 -0.2458 -0.0838
 3533W        W 7277   9.689   4.767  11.222  0.0292 -0.0582 -0.1174
 3534W        W 7278   5.914   0.577   3.928 -0.0297 -0.0355  0.3855
 3535W        W 7279   6.896   7.120  11.527  0.0173 -0.1090 -0.2070
 3536W        W 7280   6.067   1.108   3.320  0.1897  0.1913 -0.4390
 3537W        W 7281   9.688   8.125   0.416 -0.1505  0.4404 -0.0211
 3538W        W 7282   7.206   3.207   3.269  0.1379  0.1659  0.0545
 3539W        W 7283   1.688   6.163  12.387 -0.2620  0.2760  0.5218
 3540W        W 7284   0.468   7.968   3.148  0.3031 -0.2855 -0.2322
 3541W        W 7285   7.118   0.499   0.565 -0.0002  0.0777  0.1871
 3542W        W 7286   1.938   8.032   5.160  0.1740 -0.1346  0.0335
 3543W        W 7287   5.789   3.302  11.442  0.1733  0.0933  0.0398
 3544W        W 7288   0.452   3.727   1.056 -0.0849  0.1022  0.0326
 3545W        W 7289   5.656   2.334   2.108 -0.0317  0.0605 -0.0315
 3546W        W 7290   9.222   2.953   4.002 -0.1558 -0.2565  0.1805
 3547W        W 7291   4.960   6.299   4.436 -0.0828 -0.2565 -0.1773
 3548W        W 7292   6.241   5.900  10.377  0.0016 -0.2596 -0.2133
 3549W        W 7293   3.720   1.732   1.359 -0.4887  0.1429 -0.2807
 3550W        W 7294   7.831   4.056  11.292 -0.1414 -0.1545  0.1607
 3551W        W 7295   6.059   1.859   8.542 -0.2085  0.0292  0.3833
 3552W        W 7296   1.534   5.419  11.544 -0.1469 -0.1177 -0.0599
 3553W        W 7297   4.018   0.200  11.023 -0.1968 -0.2848  0.1371
 3554W        W 7298   3.756   6.573  12.529 -0.0161 -0.0165 -0.1153
 3555W        W 7299   4.261   3.953  11.246 -0.2157  0.0368  0.1083
 3556W        W 7300   3.237   0.281  12.643  0.0887 -0.1918  0.0067
 3557W        W 7301   3.595   3.660  10.181  0.2038  0.1365  0.1616
 3558W        W 7302   7.913   5.364  11.232  0.0454 -0.1639  0.1217
 3559W        W 7303   3.574   4.835   1.242  0.1183 -0.2632  0.0140
 3560W        W 7304   7.404   1.395   8.574 -0.0555 -0.0638 -0.0955
 3561W        W 7305   6.604   3.696   9.690 -0.1007  0.3394  0.1004
 3562W        W 7306   1.986   0.916  11.966 -0.0703 -0.0795 -0.1095
 3563W        W 7307   8.694   6.520   1.426  0.0120 -0.5018 -0.0173
 3564W        W 7308   6.743   9.674  10.836  0.0694  0.0084 -0.1614
 3565W        W 7309   3.679   1.349   3.645  0.1650 -0.1798 -0.0156
 3566W        W 7310   5.568   6.421   0.241 -0.0159 -0.2013 -0.1049
 3567W        W 7311   4.817   6.620   2.774  0.1906  0.0714  0.0273
 3568W        W 7312   3.097   0.711  12.822 -0.1483  0.0294 -0.1008
 3569W        W 7313   9.436   0.586  11.160 -0.2073  0.0008 -0.0655
 3570W        W 7314   5.999   3.209   2.382  0.1480 -0.1144 -0.1944
 3571W        W 7315   8.339   3.213  11.374  0.3601 -0.0568  0.2373
 3572W        W 7316   8.331   2.474  11.739  0.3313  0.2265  0.4342
 3573W        W 7317   0.127   2.478  12.121  0.0146  0.0278  0.0868
 3574W        W 7318   3.181   8.133  11.549 -0.2079  0.1735 -0.0817
 3575W        W 7319   4.442   5.473  10.541  0.0317  0.0147 -0.0334
 3576W        W 7320   9.607   6.469  11.304 -0.1938  0.5834 -0.0389
 3577W        W 7321   6.004   5.092   1.868 -0.0820  0.2582  0.3514
 3578W        W 7322   4.815   8.459   0.597 -0.0608  0.1245 -0.3107
 3579W        W 7323   3.729   8.099  12.735 -0.2807 -0.0321  0.0971
 3580W        W 7324   2.136   6.351   2.529  0.1207 -0.1130  0.0534
 3581W        W 7325   8.811   8.405   8.721 -0.1840 -0.0530 -0.1402
 3582W        W 7326   1.792   4.330   9.201 -0.0233 -0.1595  0.0649
 3583W        W 7327   9.133   4.058  12.030  0.0185  0.0818 -0.0221
 3584W        W 7328   6.029   5.909  12.271 -0.1634 -0.1065  0.2115
 3585W        W 7329   2.416   0.315   2.723  0.1742 -0.2358  0.1787
 3586W        W 7330   0.901   9.367  11.089  0.2110 -0.2273  0.4686
 3587W        W 7331   4.187   3.502   3.399 -0.2701  0.0253  0.0703
 3588W        W 7332   6.235   3.986   9.984  0.0978  0.0596  0.0679
 3589W        W 7333   3.087   1.575   9.008  0.2404  0.0337 -0.2827
 3590W        W 7334   6.929   4.620   3.943  0.3703 -0.0012  0.1125
 3591W        W 7335   5.140   1.586   2.398 -0.0986  0.1611  0.2756
 3592W        W 7336   7.375   0.973   2.848 -0.0921 -0.3473 -0.0097
 3593W        W 7337   0.234   5.172   2.693  0.2040 -0.0507 -0.0269
 3594W        W 7338   3.094   3.831  12.367  0.1901 -0.1017  0.1099
 3595W        W 7339   3.075   2.272  12.559 -0.2429 -0.0420  0.0412
 3596W        W 7340   3.431   5.761   1.246 -0.2772 -0.1803 -0.1309
 3597W        W 7341   3.623   4.412   0.927  0.1727 -0.0956  0.1860
 3598W        W 7342   3.004   0.288   3.118 -0.3370 -0.0435  0.5583
 3599W        W 7343   5.098   1.595   1.161  0.0177  0.0006  0.1989
 3600W        W 7344   7.038   2.817   4.516 -0.1678  0.2220  0.1708
 3601W        W 7345   0.699   8.097   0.281 -0.0623 -0.2564 -0.3186
 3602W        W 7346   4.023   7.746  11.223  0.0309  0.1802  0.0241
 3603W        W 7347   9.791   1.766   9.758 -0.3750  0.2273  0.1757
 3604W        W 7348   7.775   9.128   3.305 -0.1072 -0.0647 -0.1065
 3605W        W 7349   3.737   1.515   1.831  0.2221 -0.0741 -0.1716
 3606W        W 7350   5.013   2.109   9.032  0.1189 -0.3321 -0.0373
 3607W        W 7351   0.803   7.939  10.612 -0.1192  0.0860  0.3862
 3608W        W 7352   8.308   7.481   3.255 -0.2069  0.1957  0.0352
 3609W        W 7353   3.234   8.315   2.348  0.0136 -0.0742  0.0382
 3610W        W 7354   0.202   3.649   9.506  0.0052  0.0229  0.1517
 3611W        W 7355   0.760   6.588   9.822  0.1218 -0.1453 -0.0762
 3612W        W 7356   0.333   8.898   8.001  0.0751 -0.0735  0.0056
 3613W        W 7357   6.598   6.062   1.043 -0.0657  0.0269  0.0467
 3614W        W 7358   9.263   6.040   9.650  0.0086  0.1823 -0.1547
 3615W        W 7359   2.268   1.969  12.024 -0.1953  0.3818 -0.0878
 3616W        W 7360   5.203   7.143  12.521  0.3485  0.3105 -0.0290
 3617W        W 7361   6.112   2.572  11.587  0.0257 -0.1442 -0.2388
 3618W        W 7362   4.296   5.554   0.412 -0.1981 -0.3761 -0.3044
 3619W        W 7363   9.461   9.374   8.988  0.1653 -0.2744 -0.2521
 3620W        W 7364   4.305   0.359   2.615 -0.3036  0.1869  0.1044
 3621W        W 7365   0.713   5.311  11.933  0.0778  0.2212 -0.3333
 3622W        W 7366   2.049   8.611   0.288 -0.3569  0.0243 -0.0303
 3623W        W 7367   1.043   2.793   0.981 -0.1914  0.0693 -0.0560
 3624W        W 7368   1.016   3.796   0.909  0.2964  0.1732 -0.0921
 3625W        W 7369   0.866   1.502   2.080  0.0568  0.1687  0.0573
 3626W        W 7370   0.895   2.497  11.674  0.2156  0.1926  0.0780
 3627W        W 7371   4.133   8.965  11.091  0.1371 -0.1749 -0.2139
 3628W        W 7372   3.195   9.157  11.833 -0.2211 -0.0837  0.0107
 3629W        W 7373   8.202   6.646   3.451  0.1702  0.0658  0.2670
 3630W        W 7374   8.576   4.347   1.141 -0.0125  0.0051  0.3358
 3631W        W 7375   4.239   1.562   0.641  0.3454  0.2100  0.0424
 3632W        W 7376   9.334   5.207   1.554 -0.2886 -0.2327  0.2993
 3633W        W 7377   1.187   6.984  12.834 -0.2248 -0.0731 -0.0707
 3634W        W 7378   2.194   2.787   2.441  0.0068  0.0602 -0.3485
 3635W        W 7379   4.701   4.879   0.977 -0.2272  0.0572 -0.1213
 3636W        W 7380   2.265   2.348   2.177 -0.1650 -0.1919  0.0012
 3637W        W 7381   2.551   6.563   0.198  0.1138 -0.1026 -0.2411
 3638W        W 7382   3.433   5.430   4.382 -0.0485 -0.1587  0.2110
 3639W        W 7383   8.152   3.697  11.377  0.0309 -0.0187 -0.2514
 3640W        W 7384   6.874   4.335  10.388 -0.4544  0.2192  0.0306
 3641W        W 7385   8.967   6.869  10.696  0.0171 -0.0090 -0.0768
 3642W        W 7386   0.599   7.918  11.763 -0.1910  0.0767  0.0380
 3643W        W 7387   8.185   5.249  12.310  0.3501  0.2610  0.1147
 3644W        W 7388   7.945   4.326   3.963  0.1727  0.1226 -0.0881
 3645W        W 7389   6.593   5.006  12.641  0.0927 -0.0296 -0.1385
 3646W        W 7390   1.308   6.098   1.522  0.0983 -0.1482 -0.1339
 3647W        W 7391   7.763   7.645   1.473  0.0793  0.0861  0.1562
 3648W        W 7392   3.924   1.821  12.632 -0.2112 -0.0110 -0.2486
 3649W        W 7393   5.032   7.974   0.607 -0.0297  0.5167 -0.1746
 3650W        W 7394   8.344   6.857   2.459  0.1648  0.2287  0.2902
 3651W        W 7395   3.147   2.793  10.802  0.0937  0.0381 -0.3188
 3652W        W 7396   2.204   2.814  12.654 -0.2033 -0.0756  0.0586
 3653W        W 7397   1.749   6.486   2.798 -0.1201 -0.0480  0.4232
 3654W        W 7398   1.080   1.278   1.018  0.1147  0.1942  0.0758
 3655W        W 7399   2.162   8.032   2.729  0.2038 -0.0137  0.0610
 3656W        W 7400   9.374   1.949  12.303 -0.3640  0.1176 -0.0195
 3657W        W 7401   8.459   1.400  12.634 -0.0489  0.1794 -0.0664
 3658W        W 7402   4.025   4.652  12.083 -0.4264 -0.1189 -0.0737
 3659W        W 7403   0.040   4.400   3.618  0.0146 -0.0604 -0.0283
 3660W        W 7404   5.633   3.786   3.001 -0.0309  0.0175  0.0811
 3661W        W 7405   0.652   0.242   3.377  0.2069 -0.1224 -0.0251
 3662W        W 7406   4.966   7.356  11.359 -0.2013  0.2926 -0.0824
 3663W        W 7407   6.225   0.315   0.542 -0.3218  0.0897  0.1568
 3664W        W 7408   7.691   4.036  10.774 -0.1801 -0.0704  0.0754
 3665W        W 7409   2.310   9.032  10.616 -0.2875 -0.1751 -0.0337
 3666W        W 7410   5.034   8.657   1.276 -0.2434  0.2767  0.1716
 3667W        W 7411   4.005   2.473   9.474  0.1068  0.2030  0.1630
 3668W        W 7412   1.883   4.139   2.735 -0.2490  0.2374  0.2746
 3669W        W 7413   9.242   7.662   9.340 -0.1012 -0.1594  0.1288
 3670W        W 7414   9.336   8.998  12.041 -0.0648 -0.0873 -0.3495
 3671W        W 7415   2.204   3.107   2.848 -0.2727 -0.3536 -0.2297
 3672W        W 7416   5.274   8.582  11.541 -0.1356 -0.1965  0.0650
 3673W        W 7417   5.398   9.845   4.016 -0.0422  0.0086  0.1706
 3674W        W 7418   5.798   8.714  12.306  0.2854 -0.0242 -0.1964
 3675W        W 7419   2.287   2.080   1.711 -0.0617  0.0570 -0.0088
 3676W        W 7420   7.398   8.610   2.350  0.1021  0.0957  0.0720
 3677W        W 7421   2.229   1.036   3.202 -0.3798 -0.1619  0.0326
 3678W        W 7422   0.713   2.320   2.255 -0.0897 -0.1078 -0.1494
 3679W        W 7423   1.797   6.314  11.843 -0.1568  0.0249 -0.0285
 3680W        W 7424   6.456   0.255   3.142  0.2413  0.1576 -0.1986
 3681W        W 7425   1.275   0.518  10.888  0.3276  0.1871  0.2684
 3682W        W 7426   5.107   4.844   1.342  0.4153  0.1874  0.1831
 3683W        W 7427   7.597   7.264   9.327 -0.1897 -0.0803 -0.1062
 3684W        W 7428   7.905   8.188  11.880 -0.4585  0.0904 -0.2699
 3685W        W 7429   2.667   4.117  11.547  0.1326  0.2396 -0.1125
 3686W        W 7430   6.839   4.239  11.462  0.1364 -0.0672  0.0296
 3687W        W 7431   7.905   3.560  10.972  0.2401  0.0924 -0.0656
 3688W        W 7432   2.831   2.618  10.459  0.0835  0.1908 -0.1770
 3689W        W 7433   3.578   7.033  12.305 -0.0565  0.1542 -0.0314
 3690W        W 7434   0.342   5.094   0.911  0.1310 -0.2350 -0.0341
 3691W        W 7435   6.362   1.827   0.358 -0.2468 -0.1962  0.2157
 3692W        W 7436   4.653   2.645  11.626  0.3203 -0.2230 -0.0025
 3693W        W 7437   6.576   1.191   2.625 -0.1054 -0.2708  0.2132
 3694W        W 7438   5.392   9.280   1.718 -0.1414 -0.1232 -0.1448
 3695W        W 7439   5.284   7.864   0.064  0.0360  0.4539 -0.0310
 3696W        W 7440   0.179   8.473  12.579 -0.1399 -0.1670 -0.4721
 3697W        W 7441   7.288   3.027   2.597  0.0380 -0.0438  0.2976
 3698W        W 7442   9.809   1.609  10.504  0.0468  0.3341  0.1569
 3699W        W 7443   5.353   3.600   0.140 -0.4036 -0.2123  0.0067
 3700W        W 7444   3.522   7.033   1.338  0.3240 -0.1003  0.1771
 3701W        W 7445   8.337   7.306   0.953 -0.0931  0.1940 -0.2908
 3702W        W 7446   6.603   8.423  10.515  0.0011 -0.3785  0.1714
 3703W        W 7447   7.765   3.316   1.898  0.4017  0.3386 -0.1514
 3704W        W 7448   3.102   5.217   3.634  0.0374 -0.1855  0.1380
 3705W        W 7449   2.710   0.934  11.001 -0.1578 -0.0765  0.0642
 3706W        W 7450   1.719   7.230  10.712  0.1391 -0.0285 -0.3522
 3707W        W 7451   1.524   8.699   9.620  0.0305 -0.3326 -0.2631
 3708W        W 7452   9.108   2.934  10.617 -0.3905 -0.1976 -0.1931
 3709W        W 7453   3.190   2.770  10.122  0.0862 -0.0892  0.1178
 3710W        W 7454   3.954   3.619   1.760 -0.2905  0.0846  0.1057
 3711W        W 7455   3.083   7.321   1.293  0.0496 -0.1115 -0.0407
 3712W        W 7456   0.942   3.538   2.267  0.0961  0.1648 -0.1101
 3713W        W 7457   1.709   0.567   9.247  0.3496 -0.0364  0.0693
 3714W        W 7458   4.186   0.281   1.404 -0.1702  0.1117  0.2920
 3715W        W 7459   6.513   5.605  11.067 -0.1499 -0.1137  0.0349
 3716W        W 7460   6.676   6.316   0.204  0.3833 -0.4314 -0.0239
 3717W        W 7461   0.138   9.659  11.890  0.3823  0.2247 -0.3696
 3718W        W 7462   3.966   8.683  11.723 -0.3123 -0.0852  0.1822
 3719W        W 7463   4.162   8.141   2.279 -0.0874 -0.0274  0.1463
 3720W        W 7464   6.767   4.474   9.095  0.0316  0.1005  0.1307
 3721W        W 7465   9.829   7.822   2.535  0.0377 -0.0819 -0.1365
 3722W        W 7466   4.020   1.269   2.535  0.2086  0.0463 -0.0846
 3723W        W 7467   9.361   4.106  11.416  0.0334 -0.1233 -0.1901
 3724W        W 7468   3.540   1.264  10.867 -0.0519  0.2060  0.0352
 3725W        W 7469   3.492   4.952   0.766  0.0249  0.1641  0.3001
 3726W        W 7470   7.797   6.393   1.340 -0.0094 -0.2955  0.2228
 3727W        W 7471   8.033   8.234   3.820 -0.0926 -0.1053  0.2134
 3728W        W 7472   7.932   6.615   8.230  0.4276  0.0163 -0.1655
 3729W        W 7473   6.271   8.476  10.887 -0.0293 -0.0030 -0.0706
 3730W        W 7474   7.493   4.685  12.332  0.1220  0.0151 -0.0100
 3731W        W 7475   8.528   9.618  12.457 -0.0529  0.2813 -0.3115
 3732W        W 7476   2.505   0.840   4.374  0.1632  0.4061  0.4566
 3733W        W 7477   7.841   2.457   2.358  0.2077 -0.2714  0.1223
 3734W        W 7478   5.881   8.512  11.147 -0.0019 -0.2531  0.1292
 3735W        W 7479   6.330   8.404   1.019 -0.0896 -0.0017  0.1575
 3736W        W 7480   3.008   5.388   4.107 -0.0777  0.0016 -0.1363
 3737W        W 7481   7.544   7.939   8.574  0.0858 -0.3428 -0.0495
 3738W        W 7482   3.421   7.750  10.498 -0.0729  0.1467 -0.1695
 3739W        W 7483   6.079   4.284  11.883 -0.0299  0.0972 -0.0372
 3740W        W 7484   4.441   1.406  10.544 -0.0169 -0.0858  0.1232
 3741W        W 7485   1.008   1.032  12.154 -0.2258  0.0732 -0.0134
 3742W        W 7486   5.965   2.733  10.218  0.3457 -0.1994 -0.0332
 3743W        W 7487   3.508   0.838  12.474  0.2929 -0.1556  0.0114
 3744W        W 7488   2.362   2.928   3.329 -0.2143 -0.0441 -0.0352
 3745W        W 7489   1.284   8.142  12.267  0.0175 -0.3318 -0.0669
 3746W        W 7490   3.440   2.923   9.297 -0.4534 -0.0314 -0.1774
 3747W        W 7491   6.844   6.399   2.739 -0.0125 -0.1976 -0.0939
 3748W        W 7492   3.021   0.855  10.542 -0.2774 -0.1182 -0.2703
 3749W        W 7493   8.622   5.380   0.243  0.2013  0.0600  0.0756
 3750W        W 7494   9.629   0.677   3.478 -0.2334  0.2741  0.4118
 3751W        W 7495   0.280   8.448  10.919  0.2999 -0.2477 -0.1057
 3752W        W 7496   3.470   0.962   0.964 -0.0228  0.3445 -0.0156
 3753W        W 7497   3.143   1.306  10.542 -0.1899 -0.1241  0.2837
 3754W        W 7498   9.162   4.505   1.678  0.4690 -0.4362  0.2721
 3755W        W 7499   1.924   4.216  12.592  0.0278 -0.1584  0.1982
 3756W        W 7500   2.501   0.003   3.148 -0.1607  0.3880 -0.2864
 3757W        W 7501   3.745   6.575  11.108  0.0189 -0.0958 -0.0714
 3758W        W 7502   6.000   8.320   8.452  0.0019  0.0473  0.2078
 3759W        W 7503   5.328   7.777  11.236 -0.3151 -0.0838  0.1478
 3760W        W 7504   0.135   6.595   0.909 -0.1505 -0.1412 -0.0491
 3761W        W 7505   3.752   5.635  10.221  0.2260 -0.0485  0.2683
 3762W        W 7506   5.630   8.557   3.468  0.1453 -0.2766 -0.0508
 3763W        W 7507   5.896   7.911  10.467 -0.2400  0.2346 -0.1010
 3764W        W 7508   3.047   6.236   3.366  0.0421 -0.0668  0.0116
 3765W        W 7509   0.010   7.881   4.124 -0.0342  0.1828 -0.0260
 3766W        W 7510   4.539   5.544  12.567 -0.3484  0.1406 -0.1017
 3767W        W 7511   6.184   8.818   2.537 -0.1470 -0.2452 -0.1464
 3768W        W 7512   6.789   1.719  12.310  0.0095 -0.0576 -0.0357
 3769W        W 7513   0.985   6.318  12.567  0.1390  0.0857 -0.3704
 3770W        W 7514   4.369   5.210  10.927  0.4077  0.0520 -0.1475
 3771W        W 7515   9.883   0.877   0.218  0.2124 -0.1337  0.0469
 3772W        W 7516   2.657   4.039   8.901 -0.0708  0.2311 -0.3823
 3773W        W 7517   2.979   3.177   9.092 -0.0930 -0.2775 -0.1836
 3774W        W 7518   0.194   8.726  11.505 -0.0654  0.2033  0.2372
 3775W        W 7519   4.937   1.733   9.988  0.0822  0.1649  0.0611
 3776W        W 7520   8.909   5.652  12.771  0.0869 -0.1233 -0.0381
 3777W        W 7521   0.057   2.530   0.897 -0.0791  0.2747 -0.1219
 3778W        W 7522   3.072   4.601   9.475 -0.3493 -0.2562  0.2814
 3779W        W 7523   8.533   5.838  11.705 -0.0131  0.0035 -0.0416
 3780W        W 7524   1.347   7.560   2.962  0.2342  0.1136  0.0152
 3781W        W 7525   1.682   3.557   0.882 -0.0123 -0.2612  0.0893
 3782W        W 7526   1.115   8.523   3.800  0.0255  0.3233  0.1606
 3783W        W 7527   6.853   0.274  12.398  0.0399 -0.0781  0.3301
 3784W        W 7528   3.447   6.044   3.105  0.0244  0.1035  0.0593
 3785W        W 7529   1.668   5.045   2.548 -0.0398  0.0355 -0.0708
 3786W        W 7530   8.860   3.381   1.028 -0.3669  0.2196 -0.0187
 3787W        W 7531   1.324   3.248  10.364 -0.1253 -0.0447 -0.0725
 3788W        W 7532   1.139   5.296   2.541 -0.2467 -0.1228 -0.1399
 3789W        W 7533   1.639   0.968   9.585  0.0238  0.1993  0.1947
 3790W        W 7534   9.778   3.402   9.843 -0.0027  0.0877 -0.0753
 3791W        W 7535   6.693   4.133   3.866 -0.2334  0.1673  0.2365
 3792W        W 7536   0.566   6.732   1.784  0.2152  0.0646  0.2626
 3793W        W 7537   7.551   2.095   4.254 -0.1753  0.0286  0.1643
 3794W        W 7538   6.014   9.579  12.816  0.0830 -0.1566 -0.0305
 3795W        W 7539   7.331   4.549  10.167 -0.2236 -0.1677 -0.0343
 3796W        W 7540   6.537   4.769  11.406 -0.0363 -0.0682 -0.1925
 3797W        W 7541   5.619   6.727  12.189  0.0405  0.1886  0.1082
 3798W        W 7542   9.249   7.841   0.680  0.0532  0.0203 -0.0653
 3799W        W 7543   2.174   3.567   1.958 -0.2540 -0.0716 -0.0644
 3800W        W 7544   1.395   9.689  10.447 -0.0646  0.0003  0.2530
 3801W        W 7545   8.483   1.831   2.259 -0.1254  0.0339  0.2939
 3802W        W 7546   5.094   9.464   9.684  0.3003 -0.1711 -0.1702
 3803W        W 7547   9.484   3.718   2.131  0.0730  0.0604  0.1175
 3804W        W 7548   7.009   4.354   9.871  0.0587  0.3080 -0.0442
 3805W        W 7549   9.340   1.845   1.012  0.0120  0.1666 -0.1533
 3806W        W 7550   3.624   0.966   2.619 -0.1437 -0.0412 -0.1012
 3807W        W 7551   1.869   9.688   1.354  0.0349 -0.0076  0.0079
 3808W        W 7552   3.855   9.609  12.533  0.0854  0.0386  0.1735
 3809W        W 7553   9.766   5.326  12.073  0.1706 -0.2052 -0.0609
 3810W        W 7554   1.428   1.788   0.259 -0.0648  0.1059 -0.2304
 3811W        W 7555   7.363   0.923   9.717 -0.2255  0.3543  0.2443
 3812W        W 7556   8.936   9.836  12.244  0.0646  0.1893 -0.0919
 3813W        W 7557   0.274   6.857  12.723  0.0350 -0.3151  0.3591
 3814W        W 7558   3.776   4.630   9.918 -0.2021  0.1434  0.0334
 3815W        W 7559   2.803   0.474  12.000 -0.0686 -0.2984  0.0972
 3816W        W 7560   6.028   4.399   1.007  0.2111 -0.2388  0.2076
 3817W        W 7561   3.332   6.549  12.253 -0.2001 -0.2618  0.2249
 3818W        W 7562   4.124   3.735   1.257 -0.3457  0.0490  0.1405
 3819W        W 7563   8.973   4.944  12.153  0.0571 -0.2355 -0.4146
 3820W        W 7564   4.270   3.579  10.817 -0.2660  0.1402 -0.1884
 3821W        W 7565   6.912   2.204   3.763 -0.1697 -0.3308  0.3017
 3822W        W 7566   7.237   4.654   0.502  0.2263 -0.0246 -0.1134
 3823W        W 7567   2.082   8.222   1.329 -0.1824 -0.0519 -0.1182
 3824W        W 7568   0.448   0.917   2.052  0.0676  0.0788 -0.0582
 3825W        W 7569   9.179   3.984   3.071  0.1087 -0.0766  0.2182
 3826W        W 7570   4.034   6.191   4.424  0.3254 -0.1655 -0.1866
 3827W        W 7571   2.618   5.188  11.006 -0.1786  0.0470  0.0738
 3828W        W 7572   5.154   2.701  11.811 -0.0060  0.2337 -0.1313
 3829W        W 7573   9.709   9.877  10.178 -0.0208  0.0877  0.0584
 3830W        W 7574   8.486   8.572  12.467  0.3559  0.0135  0.1885
 3831W        W 7575   2.259   7.655   0.544 -0.1183 -0.0244 -0.2177
 3832W        W 7576   1.231   3.093  12.244 -0.1395  0.2253  0.1576
 3833W        W 7577   8.728   4.631   9.168  0.0674  0.1795  0.0367
 3834W        W 7578   3.786   2.226  12.311 -0.1028 -0.1889 -0.0671
 3835W        W 7579   3.738   0.274   1.113  0.0761 -0.0841  0.0640
 3836W        W 7580   1.324   1.964   0.741  0.0718  0.0713 -0.0247
 3837W        W 7581   0.135   2.336   2.162 -0.0333  0.0075 -0.4231
 3838W        W 7582   4.106   0.387   3.679  0.0603 -0.1523 -0.4487
 3839W        W 7583   8.979   0.191   1.184 -0.1425 -0.0484  0.2087
 3840W        W 7584   0.317   6.258   9.956  0.0862  0.2419 -0.1474
 3841W        W 7585   8.557   7.189   9.281  0.3309 -0.1449 -0.0844
 3842W        W 7586   7.956   8.848   0.279  0.0822 -0.1900  0.1518
 3843W        W 7587   3.590   9.279   0.514  0.1031  0.2553 -0.0377
 3844W        W 7588   5.429   3.418  10.582  0.0560 -0.0104 -0.0716
 3845W        W 7589   8.264   4.941   0.041 -0.2793 -0.1619  0.0659
 3846W        W 7590   7.433   2.609  11.466 -0.2417  0.2481 -0.0815
 3847W        W 7591   1.039   8.181   4.216 -0.3857  0.2040 -0.0838
 3848W        W 7592   4.810   1.675   0.467 -0.1264  0.1523 -0.0224
 3849W        W 7593   2.416   7.299   8.429  0.0051 -0.0367 -0.6022
 3850W        W 7594   2.001   4.193   3.574  0.2117  0.1381 -0.2261
 3851W        W 7595   8.688   8.449   0.100 -0.1058  0.2088  0.1312
 3852W        W 7596   2.586   2.272  12.608 -0.1011  0.2629 -0.0352
 3853W        W 7597   5.998   7.873   3.589  0.4168  0.1726  0.6051
 3854W        W 7598   4.468   4.030   3.334 -0.2305 -0.1835 -0.0901
 3855W        W 7599   4.968   4.570  10.620  0.0900  0.0746  0.1801
 3856W        W 7600   8.611   9.285   9.773 -0.0418  0.0146  0.1611
 3857W        W 7601   0.776   5.827   2.069  0.0841 -0.0516 -0.2253
 3858W        W 7602   6.632   2.643   2.036  0.1806 -0.3816 -0.1085
 3859W        W 7603   4.590   2.471   8.672  0.0241 -0.2514 -0.5773
 3860W        W 7604   8.285   9.370   0.006 -0.1079  0.1585 -0.0206
 3861W        W 7605   3.319   8.320   4.264  0.1078  0.1079  0.0305
 3862W        W 7606   3.872   6.897   2.839 -0.0928  0.4444 -0.0433
 3863W        W 7607   0.169   6.792  11.405 -0.0207  0.0558  0.2449
 3864W        W 7608   8.575   8.031   2.122 -0.0816 -0.0294  0.0303
 3865W        W 7609   2.317   2.105   2.635  0.1167  0.2341 -0.0992
 3866W        W 7610   5.919   0.328  11.348 -0.0615  0.0648  0.0916
 3867W        W 7611   4.637   8.373   3.856  0.2638  0.2188 -0.0093
 3868W        W 7612   3.517   4.016   2.312  0.0944  0.1048  0.1277
 3869W        W 7613   5.442   6.473  10.214  0.1576 -0.2443 -0.4257
 3870W        W 7614   6.678   1.764   3.824 -0.1409 -0.1414 -0.1476
 3871W        W 7615   0.895   5.395   4.802  0.0490  0.0726 -0.3896
 3872W        W 7616   5.955   6.690  11.445 -0.1357 -0.0048  0.0882
 3873W        W 7617   3.142   4.369  10.443 -0.0556 -0.1166  0.1877
 3874W        W 7618   7.439   8.929   0.166 -0.0944  0.0019 -0.0694
 3875W        W 7619   8.475   9.619   4.153  0.3143  0.2229 -0.1485
 3876W        W 7620   7.412   9.472   2.655 -0.0559  0.1396 -0.1880
 3877W        W 7621   5.549   0.945   4.121 -0.3359  0.0439  0.1095
 3878W        W 7622   1.790   2.651  12.251 -0.2064 -0.4136 -0.4127
 3879W        W 7623   9.579   6.042   4.685  0.1871 -0.1501  0.5101
 3880W        W 7624   1.730   3.781   1.774 -0.0215 -0.3008 -0.0527
 3881W        W 7625   5.237   4.920  11.210 -0.0876  0.0110 -0.1097
 3882W        W 7626   6.513   5.550   3.875  0.0555 -0.1639  0.4061
 3883W        W 7627   2.157   0.408   3.304 -0.2071 -0.2667 -0.0741
 3884W        W 7628   9.651   8.452   2.958  0.2418  0.2395 -0.1715
 3885W        W 7629   7.081   7.846   0.020  0.2040  0.1709 -0.2409
 3886W        W 7630   3.312   4.710   2.923  0.2210 -0.2784 -0.3342
 3887W        W 7631   8.517   8.817   0.911 -0.0189  0.0264  0.1144
 3888W        W 7632   5.683   3.001  10.963 -0.1231 -0.1167  0.0625
 3889W        W 7633   4.766   9.911   8.725 -0.3456 -0.1896  0.2006
 3890W        W 7634   2.281   2.607   1.735 -0.1221  0.2048 -0.1782
 3891W        W 7635   0.554   4.310   3.245 -0.3008  0.0478 -0.2723
 3892W        W 7636   5.729   7.271   3.901  0.3156 -0.2578  0.2553
 3893W        W 7637   9.283   6.317   3.687  0.1069  0.1994  0.2990
 3894W        W 7638   2.601   0.261   3.623  0.2800  0.0557 -0.2557
 3895W        W 7639   1.629   3.301   9.973 -0.0833  0.0279  0.1642
 3896W        W 7640   8.043   0.660   3.375  0.3346  0.0375 -0.1530
 3897W        W 7641   1.342   9.403   1.293 -0.0102  0.0132 -0.1628
 3898W        W 7642   2.433   6.002  10.796  0.2664  0.0470  0.3582
 3899W        W 7643   2.396   2.520   9.550  0.0336 -0.1168 -0.2191
 3900W        W 7644   0.964   3.301  10.836 -0.2753 -0.0878 -0.0218
 3901W        W 7645   7.829   2.746  10.544 -0.1936 -0.1923 -0.1921
 3902W        W 7646   9.075   2.619  12.446  0.0181 -0.1051  0.0279
 3903W        W 7647   2.461   3.273   4.591  0.1737  0.1296  0.2062
 3904W        W 7648   7.912   7.609   1.952  0.1163  0.1234  0.1827
 3905W        W 7649   6.181   3.496  11.944  0.0917  0.0008 -0.1040
 3906W        W 7650   1.281   2.059   1.526 -0.1395 -0.1186  0.2184
 3907W        W 7651   6.065   6.018   0.895  0.2645  0.5494 -0.4642
 3908W        W 7652   6.614   1.924   4.661 -0.0864  0.1489  0.2582
 3909W        W 7653   4.833   6.018   0.693 -0.2097 -0.0234  0.0906
 3910W        W 7654   9.435   8.369  11.035  0.1607 -0.1150  0.0275
 3911W        W 7655   1.195   6.007   9.425  0.0029 -0.3162 -0.1402
 3912W        W 7656   8.838   9.500  11.414  0.0093  0.1856  0.3883
 3913W        W 7657   1.210   4.217  11.006 -0.1073  0.0101  0.2008
 3914W        W 7658   2.495   0.121  11.990  0.2131  0.0680 -0.1238
 3915W        W 7659   8.735   9.307   1.624  0.3271  0.2886  0.1523
 3916W        W 7660   4.163   1.419  10.120 -0.0631  0.0529  0.0901
 3917W        W 7661   1.856   7.411   1.218  0.2189 -0.1514  0.1932
 3918W        W 7662   0.353   7.763   2.734 -0.0836  0.0784  0.0137
 3919W        W 7663   4.725   9.347  12.256 -0.1358  0.0285 -0.3790
 3920W        W 7664   3.104   9.403   3.625 -0.3296 -0.0779 -0.0316
 3921W        W 7665   0.205   2.512   2.620 -0.1526 -0.0490 -0.4629
 3922W        W 7666   7.745   4.959   1.861  0.0452 -0.0342  0.0017
 3923W        W 7667   8.777   8.946  10.111  0.2703 -0.0928  0.2266
 3924W        W 7668   6.024   1.721  12.270  0.2065  0.2500 -0.0025
 3925W        W 7669   4.134   3.220   0.849  0.0936 -0.0616 -0.0859
 3926W        W 7670   1.316   4.909   3.528 -0.0510 -0.3328  0.1103
 3927W        W 7671   4.735   1.661  12.142  0.1134 -0.0668  0.1523
 3928W        W 7672   2.021   0.097  12.113 -0.1171 -0.1628  0.0625
 3929W        W 7673   9.220   3.203  12.007  0.0752  0.5063 -0.0808
 3930W        W 7674   3.399   7.165   0.352  0.0941 -0.0552 -0.2023
 3931W        W 7675   8.752   4.896   2.786 -0.2389  0.3204  0.0386
 3932W        W 7676   8.688   8.817   1.905 -0.2632 -0.3147  0.0869
 3933W        W 7677   2.703   5.178  12.001 -0.1053  0.0124 -0.0300
 3934W        W 7678   1.908   7.436   9.270 -0.0031 -0.0141 -0.4506
 3935W        W 7679   9.434   9.577   3.087 -0.1192 -0.1580  0.0109
 3936W        W 7680   6.596   4.026   2.472  0.1946 -0.2626 -0.0209
 3937W        W 7681   0.321   0.732  10.520 -0.1919  0.0732 -0.0114
 3938W        W 7682   0.726   1.343  12.527 -0.1729 -0.2244 -0.2155
 3939W        W 7683   8.699   8.603  12.010 -0.0857  0.1250 -0.0049
 3940W        W 7684   9.337   7.041   3.904  0.2373  0.0852 -0.2081
 3941W        W 7685   8.420   4.973   9.407  0.2115  0.2426 -0.1509
 3942W        W 7686   1.528   6.393  10.886 -0.2019 -0.4014 -0.1520
 3943W        W 7687   3.344   5.878   0.468 -0.0041 -0.2277  0.1635
 3944W        W 7688   1.947   8.008   2.008 -0.0242  0.0521 -0.1293
 3945W        W 7689   0.609   6.762   3.688 -0.0686  0.3834  0.0885
 3946W        W 7690   3.677   3.093  12.411 -0.0622  0.1944  0.1427
 3947W        W 7691   2.054   6.185   3.252 -0.4123 -0.1785  0.2681
 3948W        W 7692   6.060   1.105   2.792  0.1158  0.1540  0.2590
 3949W        W 7693   4.582   8.256   1.928 -0.1186 -0.1263 -0.1079
 3950W        W 7694   3.913   7.404   1.760  0.3565 -0.0959 -0.1125
 3951W        W 7695   6.728   8.512   0.695  0.1842  0.0441 -0.3172
 3952W        W 7696   1.231   8.431  11.144 -0.1570  0.0097 -0.3158
 3953W        W 7697   2.804   5.755   1.865 -0.0320 -0.1280 -0.0195
 3954W        W 7698   8.461   2.894  10.400  0.1332  0.1930  0.1646
 3955W        W 7699   9.909   9.650  10.578  0.1612  0.2220  0.2984
 3956W        W 7700   4.973   0.585   2.376  0.2999 -0.0912  0.2076
 3957W        W 7701   1.061   7.612   3.501 -0.1391 -0.0471  0.0250
 3958W        W 7702   5.358   3.251   0.710  0.0801  0.2388 -0.0381
 3959W        W 7703   0.519   4.449   2.317 -0.1766  0.3212  0.1602
 3960W        W 7704   0.010   8.866   3.916 -0.1522 -0.0166 -0.4096
 3961W        W 7705   7.299   5.584   2.275  0.1262 -0.1088  0.1818
 3962W        W 7706   1.987   2.173   0.916  0.0803 -0.3063  0.0493
 3963W        W 7707   2.290   2.702   3.795  0.0968  0.2101  0.2284
 3964W        W 7708   9.003   6.408  10.475 -0.0502  0.0722  0.0976
 3965W        W 7709   4.660   9.653   9.895 -0.1059  0.0178 -0.1564
 3966W        W 7710   5.379   4.219   9.818 -0.1012  0.0027  0.3741
 3967W        W 7711   6.303   3.640   0.564 -0.3131  0.3002 -0.1789
 3968W        W 7712   7.136   9.691   3.597 -0.0525  0.1627  0.1493
 3969W        W 7713   7.056   2.560  12.660  0.3708  0.0795 -0.1532
 3970W        W 7714   4.958   6.474   1.715 -0.3145  0.0174 -0.4838
 3971W        W 7715   9.273   1.709  10.603  0.0691 -0.0704 -0.0694
 3972W        W 7716   6.906   4.143   1.217 -0.0984  0.5820  0.0994
 3973W        W 7717   3.602   6.440  11.735 -0.2868 -0.0479 -0.0131
 3974W        W 7718   5.954   8.634   1.313 -0.1438  0.2633  0.1533
 3975W        W 7719   3.550   8.782   4.151  0.1378  0.1025  0.1584
 3976W        W 7720   8.378   1.322   2.057 -0.1679 -0.2394 -0.0646
 3977W        W 7721   5.726   8.051   1.376 -0.0377 -0.0923  0.0858
 3978W        W 7722   4.559   3.946   0.408  0.3019 -0.3173  0.2451
 3979W        W 7723   0.061   4.996   9.254  0.3445  0.0840  0.1872
 3980W        W 7724   0.222   0.555   2.303 -0.1327  0.1072  0.0415
 3981W        W 7725   6.910   6.428  10.985  0.0823 -0.0898  0.1436
 3982W        W 7726   6.670   7.788  12.389 -0.0548  0.1375  0.0888
 3983W        W 7727   9.843   5.207   2.315 -0.2319 -0.1176  0.4627
 3984W        W 7728   9.087   7.964   1.360  0.1262 -0.0062  0.1278
 3985W        W 7729   3.536   5.888  10.572 -0.2940 -0.0326 -0.2489
 3986W        W 7730   5.475   7.075  10.365  0.1941  0.2167  0.1702
 3987W        W 7731   1.251   8.304   8.913 -0.0169 -0.3979  0.1650
 3988W        W 7732   6.913   4.623  11.711  0.0449 -0.0102  0.3879
 3989W        W 7733   9.180   0.849   3.697  0.2097 -0.0819  0.0744
 3990W        W 7734   3.354   1.390   9.511  0.0610  0.1296  0.2098
 3991W        W 7735   3.236   0.651   2.244  0.2331  0.0097  0.1851
 3992W        W 7736   0.538   0.788  11.943  0.2083 -0.2301  0.0661
 3993W        W 7737   1.259   3.718   0.020  0.0793 -0.2177  0.0391
 3994W        W 7738   6.807   7.547  10.082 -0.0867 -0.1916 -0.1667
 3995W        W 7739   8.294   7.436   9.565  0.1162 -0.0957  0.1615
 3996W        W 7740   2.885   7.031   0.276 -0.2175  0.2707  0.4684
 3997W        W 7741   5.448   8.558  12.658  0.1404 -0.1295  0.3220
 3998W        W 7742   0.065   9.594   1.092 -0.0311 -0.1021 -0.1061
 3999W        W 7743   3.053   9.256   9.984 -0.3404 -0.0270 -0.2003
 4000W        W 7744   1.213   2.463   0.684 -0.2424 -0.0936 -0.1723
 4001W        W 7745   2.748   8.970   3.748 -0.2674 -0.1285 -0.1910
 4002W        W 7746   8.852   5.386   2.604 -0.2237 -0.1457  0.0821
 4003W        W 7747   3.892   2.854  11.572 -0.2897 -0.3666 -0.0001
 4004W        W 7748   2.131   3.684   9.413  0.0874 -0.3229 -0.1799
 4005W        W 7749   2.520   8.046  12.715 -0.1894  0.3935  0.3222
 4006W        W 7750   4.635   8.405   2.475  0.2406  0.3751 -0.0071
 4007W        W 7751   0.643   9.015  11.595  0.0578  0.1836  0.0161
 4008W        W 7752   0.296   0.326   0.238  0.1799  0.0002 -0.0645
 4009W        W 7753   8.201   3.664   0.440 -0.0847 -0.0890 -0.2273
 4010W        W 7754   2.228   7.632   3.086  0.1012 -0.3555  0.0079
 4011W        W 7755   8.401   0.901  12.772  0.1805  0.1595 -0.1399
 4012W        W 7756   2.261   9.516   0.020  0.1380 -0.0183 -0.0746
 4013W        W 7757   0.627   7.448   3.060  0.0190  0.1937  0.0997
 4014W        W 7758   9.905   9.092  10.598  0.2117  0.1135 -0.1213
 4015W        W 7759   4.097   6.853   9.124  0.0171  0.0873  0.2192
 4016W        W 7760   2.968   5.408  12.486  0.2158 -0.1710 -0.2363
 4017W        W 7761   3.528   3.764   1.173 -0.2163  0.0873 -0.1406
 4018W        W 7762   4.000   7.703   9.269 -0.0550  0.0742  0.0918
 4019W        W 7763   7.749   0.510  12.363 -0.1182  0.0070  0.0139
 4020W        W 7764   3.479   9.623   9.074 -0.3927  0.1483  0.1006
 4021W        W 7765   3.468   3.952   0.714  0.0697  0.0671  0.0977
 4022W        W 7766   9.142   5.269   2.055  0.1055 -0.0052  0.2033
 4023W        W 7767   0.551   7.597   3.538 -0.1228  0.1754  0.1723
 4024W        W 7768   4.542   2.012   8.830  0.0332  0.1467 -0.2900
 4025W        W 7769   0.452   0.019  10.007 -0.1043  0.0637  0.0799
 4026W        W 7770   0.199   4.245  12.464 -0.0295  0.2147 -0.2099
 4027W        W 7771   2.402   3.070   2.109 -0.0024 -0.3157  0.2681
 4028W        W 7772   0.131   9.720  11.036  0.1424 -0.2642  0.0291
 4029W        W 7773   8.972   1.701  10.154  0.1392 -0.0983 -0.0078
 4030W        W 7774   5.274   1.354  10.246  0.1627 -0.1191  0.2432
 4031W        W 7775   8.298   8.792  11.144 -0.1045  0.1000 -0.0021
 4032W        W 7776   1.519   1.492   9.919  0.0701  0.1456  0.2535
 4033W        W 7777   9.075   3.692  12.493  0.0626  0.0870 -0.0728
 4034W        W 7778   7.646   5.845  10.463 -0.3635 -0.0536  0.0328
 4035W        W 7779   6.342   7.174   1.865 -0.1712  0.0793 -0.1402
 4036W        W 7780   1.662   6.904   9.341  0.1213 -0.2749  0.1389
 4037W        W 7781   2.216   0.196  10.448  0.2761  0.0444  0.1058
 4038W        W 7782   7.282   2.178   9.736 -0.0296  0.0791  0.0885
 4039W        W 7783   5.011   0.267   2.827 -0.1336  0.1117  0.2718
 4040W        W 7784   0.887   1.667   3.320 -0.2789 -0.0663  0.0255
 4041W        W 7785   3.005   3.530   3.517 -0.1420 -0.3897 -0.0002
 4042W        W 7786   3.579   7.719  11.450  0.0394  0.1674 -0.0157
 4043W        W 7787   7.618   1.349  12.801  0.0159 -0.1220 -0.0388
 4044W        W 7788   5.693   0.233   8.925 -0.0480 -0.0745  0.0433
 4045W        W 7789   3.189   2.514   9.433  0.0375 -0.1672  0.0901
 4046W        W 7790   7.170   0.274  11.995  0.0403 -0.2343  0.3028
 4047W        W 7791   5.823   4.738   2.876 -0.0939  0.1824 -0.0325
 4048W        W 7792   1.040   0.524   3.239  0.2978 -0.0774  0.2318
 4049W        W 7793   8.049   5.931   3.896  0.0880  0.1433 -0.1930
 4050W        W 7794   5.210   2.666  10.081 -0.0505 -0.0892  0.0441
 4051W        W 7795   2.433   8.290  10.477 -0.2856 -0.1107  0.0525
 4052W        W 7796   3.598   4.833  10.406 -0.2729 -0.0739 -0.0113
 4053W        W 7797   2.552   3.568   8.864  0.0169  0.0111 -0.1819
 4054W        W 7798   5.499   5.515  12.475  0.0266  0.0366  0.3402
 4055W        W 7799   0.663   7.554  11.351 -0.1424 -0.0929 -0.0256
 4056W        W 7800   6.486   6.117   3.304 -0.0856 -0.0443 -0.0985
 4057W        W 7801   7.129   8.350   0.242  0.0064 -0.2074 -0.0355
 4058W        W 7802   7.233   8.463   9.733 -0.0415 -0.2713 -0.4649
 4059W        W 7803   8.198   6.506   9.216 -0.0687 -0.0781  0.2137
 4060W        W 7804   1.879   1.777   3.526  0.2040  0.0868 -0.1666
 4061W        W 7805   9.547   4.444   1.263 -0.0473  0.0324  0.3859
 4062W        W 7806   6.030   5.422  12.303 -0.1660  0.2202  0.3151
 4063W        W 7807   5.059   9.439   0.766  0.0288  0.1055  0.0182
 4064W        W 7808   4.372   8.495  11.920 -0.1261 -0.3094  0.2218
 4065W        W 7809   7.079   5.371  11.135  0.1795 -0.2093  0.0215
 4066W        W 7810   0.593   6.400   3.260  0.1099  0.2978 -0.1928
 4067W        W 7811   5.184   5.843   4.303 -0.2840  0.1046 -0.2440
 4068W        W 7812   8.237   0.128  12.419  0.2562  0.2309  0.0420
 4069W        W 7813   8.162   0.130  10.932  0.0710 -0.0817  0.0557
 4070W        W 7814   2.328   5.529  10.245  0.0604 -0.1072 -0.0223
 4071W        W 7815   6.360   3.622   9.076 -0.2720  0.0423  0.3406
 4072W        W 7816   7.002   9.536   8.973 -0.0035  0.0342  0.1405
 4073W        W 7817   7.343   8.911  10.127 -0.1683  0.1919  0.4275
 4074W        W 7818   2.563   9.603   9.713 -0.2597  0.2056 -0.0206
 4075W        W 7819   0.392   1.371   2.239  0.1920 -0.3574 -0.1393
 4076W        W 7820   9.330   5.619   1.101  0.0971  0.0621  0.3633
 4077W        W 7821   4.986   8.907   4.349 -0.1484 -0.3425 -0.0925
 4078W        W 7822   9.611   6.215  10.715  0.0546 -0.1734  0.2432
 4079W        W 7823   1.394   3.774   2.615  0.1222  0.2029 -0.3074
 4080W        W 7824   3.638   3.475   3.354 -0.0740  0.3548 -0.2146
 4081W        W 7825   1.572   2.797   1.547  0.3730  0.1258 -0.2281
 4082W        W 7826   3.217   9.906   3.446 -0.2467  0.0607  0.0347
 4083W        W 7827   1.920   0.817   1.390  0.3258 -0.0471  0.0950
 4084W        W 7828   1.334   7.178   4.219  0.4125 -0.0782 -0.0326
 4085W        W 7829   7.710   0.422  10.695  0.1678 -0.1586  0.3708
 4086W        W 7830   0.882   4.582  10.923  0.0751  0.0395 -0.4762
 4087W        W 7831   4.561   8.397   3.396  0.0213  0.0522 -0.0132
 4088W        W 7832   9.853   8.153  10.954 -0.2705  0.1144 -0.0039
 4089W        W 7833   8.216   0.055   2.205  0.3662 -0.0333 -0.0519
 4090W        W 7834   6.467   5.667   2.967 -0.0042  0.1004 -0.3805
 4091W        W 7835   0.523   4.775  12.319 -0.0899 -0.2361 -0.1039
 4092W        W 7836   7.237   7.567   1.588 -0.0165  0.0628  0.1572
 4093W        W 7837   8.668   5.043   2.024 -0.1908 -0.1749  0.1447
 4094W        W 7838   7.719   3.492   0.560  0.1394 -0.0552  0.0857
 4095W        W 7839   4.425   6.999   9.463 -0.2790  0.3428 -0.1406
 4096W        W 7840   3.894   7.677   0.968 -0.1393  0.0131 -0.0772
 4097W        W 7841   5.683   4.835  10.253 -0.1073  0.0561  0.0715
 4098W        W 7842   2.699   0.346  12.659 -0.0607  0.2966  0.0458
 4099W        W 7843   8.567   6.118   3.166  0.4118  0.1327 -0.2482
 4100W        W 7844   7.550   1.161   2.035  0.2288 -0.4473  0.0129
 4101W        W 7845   1.654   8.236   2.542 -0.2780 -0.1741  0.0623
 4102W        W 7846   1.608   5.678  10.564 -0.0212 -0.0904  0.2203
 4103W        W 7847   5.824   6.194   8.746  0.0349 -0.2513  0.0380
 4104W        W 7848   7.913   5.363   1.547 -0.1122 -0.0839 -0.1495
 4105W        W 7849   9.009   7.024   2.680  0.1397 -0.2488 -0.0971
 4106W        W 7850   4.897   3.123   0.821  0.0667 -0.0322  0.1753
 4107W        W 7851   6.319   3.922  12.139 -0.0448  0.2330  0.2218
 4108W        W 7852   1.451   7.027   1.201  0.1701 -0.0759 -0.0611
 4109W        W 7853   8.321   0.110   2.741 -0.1600 -0.1603 -0.5151
 4110W        W 7854   6.589   3.829   1.597  0.2554  0.1037 -0.3958
 4111W        W 7855   3.595   9.167   1.949  0.0039  0.1295 -0.0396
 4112W        W 7856   2.115   8.125   4.059 -0.1322  0.1631 -0.2992
 4113W        W 7857   8.787   7.653   8.267 -0.1951  0.1751 -0.0937
 4114W        W 7858   8.396   8.458   3.142 -0.3358 -0.2045  0.0179
 4115W        W 7859   7.879   9.555  10.057 -0.0925  0.0838  0.0130
 4116W        W 7860   2.998   7.329   4.120 -0.1745 -0.2644 -0.1795
 4117W        W 7861   5.124   4.548   0.892  0.3973  0.1207  0.1365
 4118W        W 7862   1.145   2.227  11.126  0.1255 -0.1066  0.0084
 4119W        W 7863   0.678   5.007   9.714 -0.0076 -0.2318  0.1110
 4120W        W 7864   7.218   4.593  10.680  0.1311  0.1531  0.0470
 4121W        W 7865   0.969   4.552  10.441  0.1250 -0.0082 -0.0944
 4122W        W 7866   7.971   4.080   9.928  0.0673  0.2662 -0.0737
 4123W        W 7867   9.566   1.790   1.454 -0.1596  0.2104  0.0026
 4124W        W 7868   8.479   0.174   3.826  0.2582  0.0105  0.2830
 4125W        W 7869   7.684   2.083   2.648 -0.1227 -0.0118 -0.2072
 4126W        W 7870   4.014   2.721   1.276  0.0780  0.1344 -0.0683
 4127W        W 7871   8.401   2.635   2.668  0.1820  0.1791 -0.1766
 4128W        W 7872   1.203   4.290   1.112 -0.0080  0.0972 -0.0618
 4129W        W 7873   9.377   5.764  10.795 -0.1932 -0.0015  0.2662
 4130W        W 7874   2.236   5.180  11.742 -0.0107  0.0169  0.0727
 4131W        W 7875   6.680   1.996   0.788 -0.0782  0.0303  0.4926
 4132W        W 7876   3.909   9.910  12.150 -0.0546  0.2102  0.0597
 4133W        W 7877   8.728   1.343   0.634 -0.1681 -0.0443  0.1440
 4134W        W 7878   5.366   0.122  12.123 -0.0631 -0.0984 -0.0716
 4135W        W 7879   8.361   8.561   3.981 -0.3074 -0.1980  0.0339
 4136W        W 7880   3.400   6.279   2.083  0.0385  0.3353  0.1119
 4137W        W 7881   2.189   7.579   4.383  0.0287  0.2170  0.0675
 4138W        W 7882   0.718   0.270   2.447 -0.0138 -0.1563 -0.1032
 4139W        W 7883   1.313   4.969  11.179  0.0348  0.1941 -0.2353
 4140W        W 7884   8.447   8.062   0.291  0.0817 -0.3697 -0.1835
 4141W        W 7885   7.194   5.274  11.951  0.0637  0.2234  0.0572
 4142W        W 7886   2.662   6.994  10.425  0.0889  0.0444 -0.1338
 4143W        W 7887   8.638   2.913  12.411  0.0928 -0.1294  0.1401
 4144W        W 7888   4.623   0.291  12.745 -0.0696  0.1400  0.1493
 4145W        W 7889   2.296   4.970  10.076 -0.1772  0.2413  0.1580
 4146W        W 7890   4.512   9.032   4.581 -0.0763  0.3790 -0.0588
 4147W        W 7891   2.576   4.654  12.368  0.1418  0.1315 -0.0053
 4148W        W 7892   1.507   9.856   2.723  0.0490  0.0428  0.1848
 4149W        W 7893   5.959   9.158  10.285 -0.0903  0.2169 -0.1247
 4150W        W 7894   3.896   7.851   3.809  0.2827 -0.0292 -0.0826
 4151W        W 7895   8.944   8.310   3.192  0.0983 -0.1713  0.3115
 4152W        W 7896   7.875   1.904   9.846  0.0252 -0.1441  0.2857
 4153W        W 7897   3.849   4.030   9.387 -0.2457 -0.2965 -0.4208
 4154W        W 7898   9.638   8.305   4.400  0.1890  0.1348  0.1529
 4155W        W 7899   9.248   0.985  12.411  0.1217  0.1100  0.1653
 4156W        W 7900   1.455   4.619   0.232 -0.1916  0.1946  0.4259
 4157W        W 7901   2.071   5.953  12.111  0.2138 -0.2905 -0.1111
 4158W        W 7902   8.367   6.693  12.152  0.0148 -0.2699  0.0292
 4159W        W 7903   6.098   2.497   9.701 -0.0817  0.1674 -0.1661
 4160W        W 7904   6.651   5.583  10.604  0.2678  0.1999  0.0685
 4161W        W 7905   9.048   7.114   9.226 -0.2563 -0.0169  0.2155
 4162W        W 7906   8.614   3.614   2.659  0.0735  0.0244 -0.3552
 4163W        W 7907   3.613   4.150   0.090  0.0420 -0.0813 -0.2286
 4164W        W 7908   3.257   1.653   0.529 -0.2579 -0.0621  0.0546
 4165W        W 7909   4.732   2.789  10.059 -0.1638 -0.0208  0.0552
 4166W        W 7910   0.736   8.310   3.386 -0.0189 -0.2531 -0.1504
 4167W        W 7911   2.604   7.629   8.697  0.0356  0.2256 -0.0470
 4168W        W 7912   7.734   1.917  12.657  0.0550 -0.0676 -0.3682
 4169W        W 7913   6.995   6.048   0.471 -0.2615 -0.0172  0.0721
 4170W        W 7914   2.070   6.019   8.339 -0.2804  0.0839  0.1768
 4171W        W 7915   4.469   1.840  10.792 -0.1883 -0.1742  0.1281
 4172W        W 7916   0.701   2.044  11.590  0.0238  0.3953 -0.0882
 4173W        W 7917   8.402   2.686   1.828 -0.1413  0.1087 -0.1822
 4174W        W 7918   7.407   1.544   1.672 -0.0385  0.0632 -0.0041
 4175W        W 7919   5.098   8.225   2.153  0.0671 -0.1792  0.0721
 4176W        W 7920   6.354   4.102   9.086 -0.0457 -0.1819 -0.3663
 4177W        W 7921   2.649   0.112   2.341  0.1837  0.4282 -0.0651
 4178W        W 7922   9.894   7.380   2.888 -0.0861  0.1139 -0.0577
 4179W        W 7923   0.116   0.624   0.614 -0.0864 -0.0524  0.1695
 4180W        W 7924   2.421   4.707  11.824  0.2680 -0.0277  0.1728
 4181W        W 7925   7.597   9.568   3.138 -0.0464 -0.0541  0.2981
 4182W        W 7926   2.516   2.131   8.747  0.1594 -0.2992  0.1857
 4183W        W 7927   7.753   5.182   2.829  0.0885 -0.4138  0.0307
 4184W        W 7928   3.622   8.954   0.996 -0.1872  0.1141  0.2639
 4185W        W 7929   0.308   8.236   2.132 -0.2933 -0.1505 -0.0871
 4186W        W 7930   2.984   5.354   9.791  0.1973 -0.1088 -0.1470
 4187W        W 7931   5.028   4.860   8.358  0.0432 -0.0557  0.0689
 4188W        W 7932   3.195   4.245  11.095 -0.1096  0.0096  0.0484
 4189W        W 7933   0.400   6.879  10.918  0.0349  0.3431  0.3565
 4190W        W 7934   9.192   0.121  11.003 -0.0321 -0.0898  0.0854
 4191W        W 7935   9.776   7.022  12.776 -0.1325 -0.0241 -0.1366
 4192W        W 7936   1.117   8.538   0.226 -0.3152 -0.1501  0.0147
 4193W        W 7937   1.563   8.405   0.005  0.1892  0.5417  0.1749
 4194W        W 7938   1.140   5.683   9.811 -0.0330 -0.0593  0.1393
 4195W        W 7939   5.776   9.797   1.032  0.1167  0.3448  0.0613
 4196W        W 7940   4.028   2.026   9.150  0.0048  0.0191  0.0033
 4197W        W 7941   6.097   0.406  10.718 -0.0711 -0.2528 -0.0712
 4198W        W 7942   3.646   8.041  11.012  0.1584  0.3120 -0.0744
 4199W        W 7943   6.636   4.674   3.475  0.2832 -0.2355  0.1123
 4200W        W 7944   9.519   7.274   9.120 -0.1549  0.0273 -0.1095
 4201W        W 7945   8.363   6.112   9.593  0.0128 -0.1117 -0.2537
 4202W        W 7946   8.066   1.939   3.005  0.0560 -0.3758 -0.0129
 4203W        W 7947   5.309   0.387   1.538 -0.1372  0.1958 -0.2043
 4204W        W 7948   2.854   1.580   2.609  0.0080 -0.0220 -0.2699
 4205W        W 7949   8.617   4.045  11.949  0.1684 -0.0197 -0.1403
 4206W        W 7950   5.668   4.480   3.331  0.2031  0.1621 -0.1041
 4207W        W 7951   7.173   2.287  11.994  0.0475 -0.1720  0.0213
 4208W        W 7952   1.559   5.944   9.958 -0.0922  0.0213  0.0890
 4209W        W 7953   5.040   4.848   9.648 -0.1948  0.1023 -0.2819
 4210W        W 7954   4.534   0.142   0.489 -0.1201 -0.2468  0.3504
 4211W        W 7955   3.577   7.998   3.386  0.3764  0.3019  0.0693
 4212W        W 7956   0.844   3.944  12.651 -0.0630  0.2391 -0.1271
 4213W        W 7957   7.996   5.188   3.788 -0.1279 -0.0732 -0.0939
 4214W        W 7958   7.107   0.851   2.047 -0.0603 -0.1878  0.0343
 4215W        W 7959   5.094   3.558  12.049  0.0639  0.2155 -0.1311
 4216W        W 7960   4.294   6.131   1.820 -0.1101 -0.2069  0.4664
 4217W        W 7961   4.559   3.794  10.410 -0.1589  0.0026  0.3462
 4218W        W 7962   9.017   7.649  11.831 -0.4047 -0.2439 -0.0833
 4219W        W 7963   1.994   2.738   9.805 -0.0353 -0.2727  0.0557
 4220W        W 7964   5.551   9.897   3.289  0.1373 -0.0342 -0.2290
 4221W        W 7965   1.750   4.768   3.855 -0.1241  0.1703  0.0763
 4222W        W 7966   1.639   5.780   3.821 -0.1895  0.0333  0.0430
 4223W        W 7967   0.253   7.174   3.443 -0.2439 -0.2727  0.0396
 4224W        W 7968   3.109   9.422   1.062  0.1240  0.2999 -0.0479
 4225W        W 7969   7.390   3.880   3.674  0.3614 -0.0309 -0.0926
 4226W        W 7970   2.576   5.131  12.489 -0.3064  0.2706 -0.0407
 4227W        W 7971   3.966   1.460  11.017 -0.2439  0.0619  0.0466
 4228W        W 7972   3.232   5.600  11.468  0.0646 -0.0203 -0.2700
 4229W        W 7973   5.818   8.238   0.901 -0.1013  0.0572  0.2149
 4230W        W 7974   1.164   5.764  12.546  0.0396 -0.1345  0.0684
 4231W        W 7975   8.184   3.966  12.613 -0.1913  0.0570  0.0418
 4232W        W 7976   7.128   0.274   3.632 -0.0837 -0.2322  0.1732
 4233W        W 7977   6.257   9.291   3.077  0.1826 -0.0240 -0.4296
 4234W        W 7978   0.722   6.069   9.624  0.1501 -0.1048  0.3539
 4235W        W 7979   9.205   2.018   2.684 -0.0945 -0.2925  0.0177
 4236W        W 7980   7.919   5.932   0.443  0.1529  0.2098  0.3812
 4237W        W 7981   2.259   4.610   2.630  0.1221  0.5105 -0.1672
 4238W        W 7982   7.592   4.726   1.139 -0.3157 -0.0861 -0.2801
 4239W        W 7983   4.142   7.308  10.926 -0.1814 -0.1473  0.2158
 4240W        W 7984   1.253   2.610   3.354 -0.1572  0.0341  0.0820
 4241W        W 7985   9.274   0.301  10.445 -0.0078  0.2951  0.4784
 4242W        W 7986   0.596   8.032  11.109 -0.0748  0.1750  0.5045
 4243W        W 7987   4.683   5.647   9.862  0.2677  0.0254  0.1048
 4244W        W 7988   9.316   9.147  12.719 -0.2489  0.1936 -0.1804
 4245W        W 7989   5.834   4.792   9.402  0.0289 -0.3078  0.5390
 4246W        W 7990   1.792   2.078   0.103  0.1592 -0.1222  0.1495
 4247W        W 7991   5.569   5.646  11.596 -0.0642  0.0697  0.1448
 4248W        W 7992   8.615   5.215  12.566  0.4350 -0.0687  0.3281
 4249W        W 7993   9.797   1.888   0.606  0.4147  0.1115 -0.0493
 4250W        W 7994   1.097   6.381  10.564  0.0119  0.0499 -0.0441
 4251W        W 7995   2.632   1.291  12.506  0.0400 -0.2845  0.1966
 4252W        W 7996   0.537   2.961  11.180 -0.1044  0.2798  0.0302
 4253W        W 7997   8.306   8.226  10.753  0.0079 -0.0384  0.0552
 4254W        W 7998   4.594   0.559   9.389  0.1696 -0.0567 -0.0105
 4255W        W 7999   1.929   3.456  11.934 -0.0653 -0.2509  0.0377
 4256W        W 8000   1.892   4.621  10.058 -0.2061 -0.2468 -0.0843
 4257W        W 8001   3.278   1.526   1.690 -0.0513 -0.0408  0.1842
 4258W        W 8002   7.408   3.681  12.112  0.0835 -0.4894 -0.2444
 4259W        W 8003   2.897   0.521   2.589 -0.0896  0.0619  0.2037
 4260W        W 8004   4.904   0.593   1.762  0.0836 -0.1726  0.1895
 4261W        W 8005   2.466   4.310  12.707 -0.1420  0.0864  0.0696
 4262W        W 8006   2.008   5.836   1.311  0.0995  0.1425 -0.1579
 4263W        W 8007   2.407   0.343  11.334 -0.0181  0.3755 -0.1732
 4264W        W 8008   8.920   7.690   4.094  0.1415  0.1704 -0.1079
 4265W        W 8009   1.946   9.032   1.262  0.1191  0.0925  0.0099
 4266W        W 8010   7.912   0.031  10.379 -0.0641 -0.1776  0.0484
 4267W        W 8011   7.254   4.538  12.771 -0.1327 -0.1468 -0.0623
 4268W        W 8012   1.533   0.796   2.728 -0.0053  0.2937 -0.0514
 4269W        W 8013   4.790   2.260   1.353 -0.0563 -0.3531  0.1781
 4270W        W 8014   7.107   4.947  12.563 -0.0682 -0.3270 -0.3062
 4271W        W 8015   8.861   6.436  10.982  0.2361 -0.0045 -0.1864
 4272W        W 8016   0.376   4.593   0.827  0.2762 -0.1316 -0.1997
 4273W        W 8017   6.010   5.613   4.623 -0.1563 -0.0499  0.0276
 4274W        W 8018   3.631   7.985   2.356  0.0819 -0.0362 -0.0402
 4275W        W 8019   2.673   5.398  11.496  0.0877 -0.2384  0.0218
 4276W        W 8020   8.944   5.792  11.915 -0.0269 -0.1245  0.5065
 4277W        W 8021   6.143   1.644  10.253 -0.0131  0.0990  0.0061
 4278W        W 8022   1.406   5.695   0.533 -0.0590  0.1165 -0.2346
 4279W        W 8023   3.470   5.985   9.808  0.1507  0.0663 -0.0282
 4280W        W 8024   1.864   1.325   2.319 -0.1504 -0.0720 -0.1461
 4281W        W 8025   5.401   8.308   2.955 -0.0869  0.3637  0.0564
 4282W        W 8026   0.637   3.926  11.834 -0.1855  0.0850  0.1429
 4283W        W 8027   0.498   3.397  12.651 -0.1289 -0.4140 -0.0900
 4284W        W 8028   3.196   9.065   0.759 -0.1560  0.0423 -0.0589
 4285W        W 8029   1.525   5.062   3.086 -0.0165 -0.3022  0.1983
 4286W        W 8030   4.877   8.637   2.085  0.2487 -0.2494 -0.0661
 4287W        W 8031   3.930   1.952  11.831 -0.0950  0.2582  0.1795
 4288W        W 8032   7.573   6.977   2.275 -0.0349 -0.3481  0.2564
 4289W        W 8033   5.213   0.636   3.606  0.0047 -0.0094 -0.1489
 4290W        W 8034   2.511   9.506   2.426  0.0480 -0.0723  0.1318
 4291W        W 8035   8.492   1.041   8.390 -0.0028  0.2303  0.2610
 4292W        W 8036   3.529   3.851  11.875  0.2661  0.1016  0.1690
 4293W        W 8037   9.156   9.460   3.483 -0.2307 -0.2447  0.0344
 4294W        W 8038   1.715   5.034  10.720  0.0321  0.3846 -0.0154
 4295W        W 8039   2.870   8.048   8.292  0.1252 -0.2228 -0.3053
 4296W        W 8040   0.393   1.773   3.966 -0.1241  0.2477 -0.0158
 4297W        W 8041   2.992   8.938   1.489 -0.0651  0.0026  0.2049
 4298W        W 8042   5.245   4.394   4.270 -0.0185  0.1342 -0.0070
 4299W        W 8043   9.044   3.539   2.836  0.0302 -0.1507 -0.1867
 4300W        W 8044   4.987   6.275  12.721 -0.0180  0.2412  0.1578
 4301W        W 8045   3.336   3.168   3.602 -0.0578  0.1661  0.2162
 4302W        W 8046   7.997   7.637  12.014 -0.1225  0.1221 -0.2269
 4303W        W 8047   1.045   7.974  11.402  0.5010 -0.3339 -0.0383
 4304W        W 8048   3.323   5.300   2.496  0.0226  0.2587  0.0600
 4305W        W 8049   0.272   7.183   4.584 -0.2631 -0.0357 -0.0901
 4306W        W 8050   1.702   7.264  11.491  0.2460 -0.0280  0.3298
 4307W        W 8051   5.571   3.155   1.542  0.1188  0.0369 -0.0474
 4308W        W 8052   6.992   2.361  11.343  0.0494 -0.0704 -0.3240
 4309W        W 8053   8.317   7.107  11.801  0.1968 -0.2394  0.1258
 4310W        W 8054   1.955   5.455   1.908 -0.1231 -0.0362  0.3152
 4311W        W 8055   3.001   3.777   9.683  0.0662 -0.0814  0.0007
 4312W        W 8056   0.576   9.474  11.856  0.1046  0.0565  0.3253
 4313W        W 8057   2.930   2.462   3.255  0.0479 -0.2882 -0.2929
 4314W        W 8058   2.861   8.534   8.364  0.1524  0.2080 -0.1997
 4315W        W 8059   6.878   8.653   4.319 -0.0268 -0.2927 -0.0768
 4316W        W 8060   9.609   7.465  12.575 -0.1737  0.1813 -0.1772
 4317W        W 8061   4.236   3.061  12.745  0.1507 -0.1821 -0.1501
 4318W        W 8062   4.011   6.337  11.453  0.3170  0.0871 -0.1018
 4319W        W 8063   1.858   8.594  11.465 -0.0236  0.0661 -0.2493
 4320W        W 8064   3.956   3.711   0.760  0.1180  0.0614  0.1043
 4321W        W 8065   5.741   1.692   0.487  0.1665  0.4459 -0.2183
 4322W        W 8066   3.760   3.410  10.861 -0.0903 -0.1492 -0.2554
 4323W        W 8067   1.788   6.072   1.785 -0.1385  0.1014  0.2037
 4324W        W 8068   4.476   6.516   3.743  0.1850 -0.1748  0.1018
 4325W        W 8069   8.930   2.088   3.064 -0.1937 -0.1254  0.1019
 4326W        W 8070   0.850   9.846   9.223  0.0330 -0.0368  0.1876
 4327W        W 8071   5.022   3.599  10.722  0.1733  0.1116 -0.0161
 4328W        W 8072   5.494   8.729   1.686  0.0528 -0.2750  0.1114
 4329W        W 8073   0.757   0.190   0.221 -0.0205 -0.1147 -0.1426
 4330W        W 8074   0.666   0.392   1.973 -0.0041 -0.1784  0.0627
 4331W        W 8075   1.855   4.842  11.924 -0.0316 -0.2198 -0.0289
 4332W        W 8076   2.728   7.134   2.264  0.1000 -0.2602  0.1867
 4333W        W 8077   4.199   7.576  11.839 -0.1985 -0.2071 -0.0923
 4334W        W 8078   1.303   0.991   0.295  0.0126 -0.2979 -0.0458
 4335W        W 8079   2.326   5.578  11.164 -0.2513  0.0766  0.2376
 4336W        W 8080   3.423   3.346   4.037 -0.0883  0.0763  0.2547
 4337W        W 8081   5.330   2.543   9.148  0.2922 -0.0786  0.0383
 4338W        W 8082   1.075   4.080   2.983 -0.2391  0.0862  0.1908
 4339W        W 8083   8.108   1.533   3.794 -0.0565 -0.0283 -0.0186
 4340W        W 8084   4.633   5.716   2.401 -0.2587  0.1671  0.1551
 4341W        W 8085   6.698   8.769   1.184 -0.1548  0.1011  0.0666
 4342W        W 8086   7.030   7.853   2.850 -0.1418  0.0358 -0.0617
 4343W        W 8087   8.666   5.835   3.549  0.1363  0.2730 -0.3733
 4344W        W 8088   8.786   4.540   2.423 -0.0153  0.0917 -0.1428
 4345W        W 8089   0.292   1.281  10.371 -0.1363  0.2457 -0.1538
 4346W        W 8090   6.916   0.064   3.153 -0.1087 -0.1567 -0.0786
 4347W        W 8091   8.190   0.549   1.365  0.0322  0.0019  0.2883
 4348W        W 8092   7.507   5.661  12.079 -0.0300 -0.2951 -0.0017
 4349W        W 8093   0.695   9.298   3.572  0.2120 -0.4759 -0.2029
 4350W        W 8094   8.145   8.153   0.759 -0.0266  0.0139 -0.1538
 4351W        W 8095   9.830   7.764  12.159  0.2857 -0.0705 -0.1176
 4352W        W 8096   3.746   3.186  11.943  0.0782  0.0169  0.0100
 4353W        W 8097   3.377   1.805   2.133 -0.0897  0.1328  0.3644
 4354W        W 8098   9.317   9.332   2.200  0.0395  0.1151  0.0646
 4355W        W 8099   6.952   6.866   0.393 -0.1218  0.3603  0.0430
 4356W        W 8100   1.861   2.411  10.257 -0.2407 -0.1761  0.0358
 4357W        W 8101   1.352   3.238   2.503 -0.0323 -0.2120 -0.1092
 4358W        W 8102   4.922   9.904   0.787  0.1974 -0.1237  0.1888
 4359W        W 8103   0.361   8.348   1.618 -0.0196 -0.0900 -0.0470
 4360W        W 8104   6.876   7.656  11.344 -0.0612 -0.1849  0.4063
 4361W        W 8105   8.322   9.581   2.583 -0.1336  0.0089 -0.1963
 4362W        W 8106   5.338   1.007  11.870 -0.2535  0.5224  0.2996
 4363W        W 8107   9.888   1.904  11.408  0.0323  0.3988 -0.2155
 4364W        W 8108   3.852   9.696   9.598 -0.3098 -0.2712  0.0112
 4365W        W 8109   2.161   5.581   4.083  0.3333 -0.1305  0.0035
 4366W        W 8110   1.106   3.031   3.617  0.0653 -0.1268 -0.1125
 4367W        W 8111   8.714   5.175   4.015 -0.0834 -0.0167 -0.2089
 4368W        W 8112   6.344   3.271   0.932  0.1488  0.1290  0.0055
 4369W        W 8113   0.912   8.870  10.332 -0.1492 -0.1170  0.3471
 4370W        W 8114   0.411   9.827   0.513  0.4348  0.2928  0.5003
 4371W        W 8115   2.949   6.119   9.159  0.2228 -0.1700 -0.0894
 4372W        W 8116   5.829   7.399   9.468  0.0791  0.0719 -0.0571
 4373W        W 8117   0.593   8.732  12.294 -0.1455 -0.2635 -0.2491
 4374W        W 8118   6.717   8.352   1.560 -0.1120  0.2839  0.0225
 4375W        W 8119   4.253   3.059  10.860 -0.0140 -0.1709 -0.3827
 4376W        W 8120   3.478   3.391   1.525 -0.4121 -0.0426  0.2604
 4377W        W 8121   9.657   5.973   8.419  0.0564 -0.2774 -0.0288
 4378W        W 8122   4.723   3.726  11.086  0.2456 -0.3124 -0.3020
 4379W        W 8123   5.135   9.410   3.998 -0.3931  0.1497 -0.0063
 4380W        W 8124   5.718   8.029   4.092 -0.4418 -0.3171  0.2346
 4381W        W 8125   1.239   8.179   9.364 -0.1788  0.1481  0.0562
 4382W        W 8126   1.188   5.639   1.076 -0.1593 -0.0906 -0.0554
 4383W        W 8127   5.535   1.850  11.653  0.2034  0.0614  0.2706
 4384W        W 8128   9.549   5.434   0.653 -0.1712 -0.2943  0.0303
 4385W        W 8129   4.407   8.428   0.143 -0.3046  0.1122  0.1388
 4386W        W 8130   6.129   2.619   4.751  0.0308  0.0350 -0.2235
 4387W        W 8131   0.212   6.805   4.261 -0.0956 -0.1316  0.1527
 4388W        W 8132   0.863   6.888  10.497  0.0577  0.1014  0.1203
 4389W        W 8133   1.837   8.641   2.766  0.0099  0.1412  0.1162
 4390W        W 8134   6.705   5.249   1.799  0.0227  0.2778  0.2202
 4391W        W 8135   6.151   7.539   0.574 -0.2542 -0.0016 -0.2260
 4392W        W 8136   7.557   7.637   8.979 -0.0583  0.1745  0.3533
 4393W        W 8137   0.172   3.098   9.541  0.2226  0.2632  0.2244
 4394W        W 8138   0.365   2.987   0.663 -0.0320 -0.1120  0.1422
 4395W        W 8139   5.912   4.732   0.621 -0.2336 -0.1473 -0.0172
 4396W        W 8140   1.108   8.781   9.050 -0.0530  0.1543  0.2027
 4397W        W 8141   7.230   8.902   1.144  0.4220  0.1251 -0.0364
 4398W        W 8142   2.296   4.506   9.808  0.0252  0.2791  0.0854
 4399W        W 8143   3.651   5.616   9.454 -0.3059 -0.3833  0.3548
 4400W        W 8144   6.936   5.085  10.689 -0.4388 -0.0766  0.2483
 4401W        W 8145   1.311   9.331  11.343  0.0866  0.1592  0.0642
 4402W        W 8146   6.827   2.438   9.455  0.0678 -0.2615 -0.1836
 4403W        W 8147   2.612   2.732   2.958  0.0429 -0.1675  0.0202
 4404W        W 8148   4.993   1.948   9.532 -0.1072  0.3281  0.3600
 4405W        W 8149   0.063   6.740   1.845  0.2327  0.1382  0.2634
 4406W        W 8150   7.466   5.729   9.156 -0.4356  0.0640 -0.0647
 4407W        W 8151   3.983   5.257  11.303 -0.1494 -0.3413 -0.0422
 4408W        W 8152   1.401   1.664   1.179  0.2569 -0.1328 -0.2617
 4409W        W 8153   4.808   7.094  12.208 -0.3382  0.1790  0.0406
 4410W        W 8154   2.830   0.288   9.892  0.0221  0.3850  0.1644
 4411W        W 8155   5.357   2.551   2.659 -0.0152  0.0181  0.1670
 4412W        W 8156   5.188   6.920   2.569  0.2184  0.0797  0.1314
 4413W        W 8157   8.286   0.652   0.859 -0.1605 -0.1104 -0.1321
 4414W        W 8158   5.502   5.304   9.059  0.0595  0.2707  0.3615
 4415W        W 8159   5.303   5.318   4.990  0.2703 -0.2073 -0.1868
 4416W        W 8160   0.790   6.856  12.596  0.3510 -0.0065  0.1333
 4417W        W 8161   5.822   0.689   0.387  0.1699  0.1374  0.3265
 4418W        W 8162   9.652   4.750   1.619  0.1522  0.1449 -0.2139
 4419W        W 8163   5.833   4.530  12.431  0.0839  0.0180  0.0333
 4420W        W 8164   4.333   9.801  12.424 -0.0474 -0.2535  0.5205
 4421W        W 8165   9.168   8.992   3.598  0.1670 -0.1814 -0.0461
 4422W        W 8166   2.661   5.225   1.383  0.1114 -0.0775 -0.3238
 4423W        W 8167   4.818   9.719  12.702  0.1062 -0.5932 -0.0056
 4424W        W 8168   4.713   9.420   8.648  0.0894  0.2639 -0.0728
 4425W        W 8169   2.631   8.986   2.449 -0.3286  0.0836  0.1702
 4426W        W 8170   1.938   4.311   8.645 -0.3612  0.2192 -0.1129
 4427W        W 8171   9.228   5.910   3.320  0.0839 -0.2162 -0.0093
 4428W        W 8172   2.774   7.257  12.016 -0.0734 -0.1531 -0.1723
 4429W        W 8173   4.527   2.514   3.832 -0.0053  0.2850  0.3248
 4430W        W 8174   7.277   6.851   1.796 -0.3887  0.0598  0.0458
 4431W        W 8175   9.367   4.956   3.356 -0.2343  0.0674 -0.1927
 4432W        W 8176   6.744   6.906  10.972 -0.2040  0.2772  0.0797
 4433W        W 8177   5.324   4.755   4.586 -0.0747  0.1264 -0.1305
 4434W        W 8178   1.474   2.927   0.731  0.3801  0.0733  0.1498
 4435W        W 8179   0.666   5.804   0.010  0.0844 -0.1748  0.1761
 4436W        W 8180   8.998   4.483   2.957  0.0407 -0.1847 -0.2956
 4437W        W 8181   3.421   1.914  12.541 -0.1026  0.1528 -0.0372
 4438W        W 8182   6.042   0.865  11.300  0.1144 -0.2009  0.0259
 4439W        W 8183   9.563   8.629   0.408 -0.0860  0.0420 -0.2525
 4440W        W 8184   7.982   7.396  10.866 -0.0707  0.1787  0.1979
 4441W        W 8185   4.592   6.122   2.706 -0.1617  0.0926  0.2594
 4442W        W 8186   0.489   9.776  12.306  0.0516 -0.0320  0.2143
 4443W        W 8187   2.764   7.796   9.439  0.0448  0.1181 -0.2642
 4444W        W 8188   3.344   7.107   3.690 -0.1344 -0.1896  0.0238
 4445W        W 8189   0.673   2.416  11.218  0.0715  0.1454  0.2871
 4446W        W 8190   7.013   8.610   9.292 -0.0562  0.1392 -0.1831
 4447W        W 8191   5.940   5.171   5.293 -0.0265  0.2658  0.3002
 4448W        W 8192   0.509   8.255   9.758  0.0274 -0.0281  0.2907
 4449W        W 8193   0.549   8.472  11.786  0.0058 -0.0761  0.1141
 4450W        W 8194   6.929   4.244  10.933  0.0125  0.0369  0.0041
 4451W        W 8195   9.614   9.286   2.603  0.2079 -0.0285 -0.3099
 4452W        W 8196   0.091   9.669   2.465 -0.0577 -0.0724  0.3026
 4453W        W 8197   0.905   0.645  11.678  0.1662  0.3921  0.2041
 4454W        W 8198   0.923   6.445   0.753 -0.1941 -0.2999  0.2026
 4455W        W 8199   0.444   5.905   4.216 -0.0518 -0.0086  0.0145
 4456W        W 8200   1.696   0.574   0.344  0.2142  0.1349  0.1840
 4457W        W 8201   8.729   0.803   0.523 -0.1847  0.3016  0.0570
 4458W        W 8202   7.337   2.991  12.579  0.1080  0.0062 -0.2396
 4459W        W 8203   5.294   5.079  10.061  0.0228  0.4198 -0.0266
 4460W        W 8204   4.405   0.944   0.013  0.3190 -0.0187 -0.1950
 4461W        W 8205   0.973   1.670   9.191 -0.4436  0.4329  0.3134
 4462W        W 8206   8.408   5.233   2.591  0.0287 -0.0284 -0.2631
 4463W        W 8207   8.420   5.918   0.248 -0.0864  0.2928 -0.3567
 4464W        W 8208   5.158   9.235  10.931 -0.0731  0.0968 -0.0460
 4465W        W 8209   6.509   6.048  12.017  0.0307  0.0967 -0.1367
 4466W        W 8210   0.317   4.659   2.688  0.1192  0.2710 -0.3417
 4467W        W 8211   5.215   9.463  12.553 -0.0969  0.0821  0.3299
 4468W        W 8212   9.039   4.208   2.085  0.2032  0.0626 -0.0414
 4469W        W 8213   0.525   0.410   2.892 -0.0903 -0.0865  0.3203
 4470W        W 8214   0.392   7.320   9.379 -0.1417  0.1945 -0.1498
 4471W        W 8215   9.682   0.672   2.064 -0.2575  0.0126 -0.2595
 4472W        W 8216   2.553   9.360   2.895  0.1931  0.0774 -0.1922
 4473W        W 8217   7.644   3.903   4.100 -0.1115 -0.1505 -0.0445
 4474W        W 8218   9.665   0.315   2.501  0.1046  0.0295  0.0467
 4475W        W 8219   6.349   1.733  10.769  0.1160 -0.0363 -0.1880
 4476W        W 8220   7.333   8.788   3.991  0.0970  0.4602 -0.0520
 4477W        W 8221   5.557   0.174   1.960 -0.0405 -0.2011 -0.2884
 4478W        W 8222   2.278   4.081   2.446 -0.0006 -0.0497  0.0790
 4479W        W 8223   6.654   3.246  11.280  0.2951  0.4850  0.0993
 4480W        W 8224   0.176   3.728  11.200  0.0732  0.3458  0.4282
 4481W        W 8225   7.851   9.104   8.663  0.3074 -0.1998  0.0759
 4482W        W 8226   5.603   8.144   2.434  0.1346 -0.1703 -0.0381
 4483W        W 8227   4.640   2.502  12.820 -0.4559  0.0641  0.1708
 4484W        W 8228   7.096   2.778   3.008 -0.1096 -0.2312 -0.2431
 4485W        W 8229   6.448   0.672   9.153  0.4040 -0.0353  0.3051
 4486W        W 8230   0.241   1.088   9.400  0.2073  0.1918 -0.0870
 4487W        W 8231   8.780   8.758   2.421 -0.1113  0.0674 -0.2699
 4488W        W 8232   8.797   8.113  11.771 -0.0988 -0.0017 -0.0580
 4489W        W 8233   3.550   0.746   1.435 -0.0568 -0.1933  0.1186
 4490W        W 8234   6.862   2.561  10.480  0.2114  0.1217 -0.0239
 4491W        W 8235   2.562   3.317   9.348 -0.1382 -0.1959  0.1825
 4492W        W 8236   2.773   1.235  10.231 -0.2047  0.1582  0.0949
 4493W        W 8237   1.928   8.109   0.699  0.0641  0.1882 -0.1397
 4494W        W 8238   5.518   5.976   9.828  0.1827 -0.0152 -0.0182
 4495W        W 8239   4.019   9.921   1.766  0.1229 -0.0091  0.2111
 4496W        W 8240   4.626   3.287  12.349  0.2074  0.1149 -0.1435
 4497W        W 8241   8.081   3.995  11.842  0.0655  0.1652 -0.2156
 4498W        W 8242   7.908   4.052   1.750 -0.3034 -0.3826 -0.1719
 4499W        W 8243   0.686   2.716   1.397  0.1235  0.0683 -0.0550
 4500W        W 8244   4.080   6.059   8.500 -0.0126 -0.1571 -0.0428
 4501W        W 8245   7.223   7.985  11.274  0.4205 -0.1209 -0.0501
 4502W        W 8246   8.090   3.177   0.443 -0.0076  0.0429 -0.1241
 4503W        W 8247   1.648   5.830   9.476 -0.0359  0.0582 -0.3123
 4504W        W 8248   3.828   6.356  10.629 -0.0271 -0.1174  0.1302
 4505W        W 8249   6.607   9.064   0.719  0.0178  0.0020 -0.2371
 4506W        W 8250   7.515   1.032  12.305  0.1742  0.2413  0.2922
 4507W        W 8251   5.353   7.193   2.006  0.0108  0.1877  0.2549
 4508W        W 8252   4.151   2.657  10.567  0.5680  0.2027 -0.0828
 4509W        W 8253   6.150   2.670  11.087 -0.0621  0.1118 -0.0712
 4510W        W 8254   6.239   0.566   8.322 -0.0254 -0.2835  0.0666
 4511W        W 8255   5.462   3.835   8.714 -0.2223  0.0699 -0.2121
 4512W        W 8256   7.771   4.410   9.104  0.2001 -0.0419  0.0984
 4513W        W 8257   7.335   2.217   0.055  0.2804  0.0452 -0.3799
 4514W        W 8258   8.575   3.787   0.131  0.0044  0.0153  0.3186
 4515W        W 8259   9.454   1.052   1.783  0.1579  0.1137 -0.4697
 4516W        W 8260   0.353   0.257  10.985 -0.1370 -0.1260 -0.2551
 4517W        W 8261   9.116   0.551   3.291  0.0582 -0.1864  0.2722
 4518W        W 8262   8.867   4.115  11.516  0.2118  0.1847 -0.3029
 4519W        W 8263   9.797   8.395   1.701 -0.1986  0.0061  0.1638
 4520W        W 8264   4.454   0.719   3.984 -0.0949  0.2072 -0.3341
 4521W        W 8265   0.649   1.291  11.939  0.1083  0.1046  0.1367
 4522W        W 8266   9.037   9.511   4.406  0.2785 -0.0602  0.0570
 4523W        W 8267   6.958   6.057   4.901 -0.0337  0.1231 -0.2852
 4524W        W 8268   7.330   6.152   2.777  0.0025 -0.1443 -0.1168
 4525W        W 8269   1.544   0.305   0.798 -0.0777 -0.0513  0.0216
 4526W        W 8270   1.481   3.567  12.169  0.3154  0.0929  0.0787
 4527W        W 8271   7.418   7.113  10.209  0.2750 -0.0201 -0.1273
 4528W        W 8272   6.644   7.776   0.350 -0.0686  0.0198 -0.2497
 4529W        W 8273   3.612   0.175   2.066 -0.1223  0.0685 -0.1725
 4530W        W 8274   4.301   8.312   2.965 -0.1295 -0.0083  0.3497
 4531W        W 8275   0.550   9.220  10.327  0.0154 -0.0692  0.2940
 4532W        W 8276   9.862   3.729   2.459  0.1627  0.1908  0.0701
 4533W        W 8277   9.374   7.808  11.005  0.2031  0.1760 -0.0444
 4534W        W 8278   6.595   6.348   3.965  0.0978 -0.0126 -0.1816
 4535W        W 8279   3.695   9.243   4.135 -0.0417 -0.0335  0.1562
 4536W        W 8280   4.699   2.688   4.584  0.4384  0.0640 -0.1857
 4537W        W 8281   1.154   1.005   9.585  0.1301 -0.2220  0.0950
 4538W        W 8282   8.339   8.559   0.450  0.3372 -0.1456  0.0828
 4539W        W 8283   3.747   2.991   4.154 -0.3336 -0.0255  0.1156
 4540W        W 8284   2.553   6.764   2.555 -0.1296  0.1036 -0.2829
 4541W        W 8285   4.921   9.063   0.404 -0.2059 -0.1175 -0.1317
 4542W        W 8286   4.501   1.952  11.830 -0.1243 -0.1564  0.0459
 4543W        W 8287   6.628   1.363   9.114  0.0995 -0.2769 -0.1628
 4544W        W 8288   6.736   2.744  12.226 -0.1197  0.1614 -0.0132
 4545W        W 8289   4.673   0.251  12.293 -0.2782  0.0796 -0.3759
 4546W        W 8290   2.947   6.618  10.548  0.0009 -0.1722  0.1367
 4547W        W 8291   8.696   3.776  11.153  0.1430 -0.1268 -0.0707
 4548W        W 8292   7.384   2.442   9.308  0.0392 -0.1018  0.1909
 4549W        W 8293   8.814   6.198   9.846 -0.1972  0.0452  0.0221
 4550W        W 8294   2.943   2.697  11.712 -0.0250  0.0983 -0.2935
 4551W        W 8295   5.796   1.361   7.884 -0.0111  0.2862 -0.0342
 4552W        W 8296   6.307   3.310   9.498 -0.2139  0.3434  0.0720
 4553W        W 8297   1.749   5.432  11.040  0.2975 -0.1370  0.0072
 4554W        W 8298   6.891   2.451   0.923  0.0683  0.2604 -0.0627
 4555W        W 8299   5.907   9.679  11.883  0.2731 -0.1032 -0.1185
 4556W        W 8300   9.756   5.834  10.389  0.2068 -0.0777  0.0336
 4557W        W 8301   4.240   2.098   4.011  0.1662  0.2569 -0.3220
 4558W        W 8302   7.516   5.640   2.727  0.2542  0.1040 -0.5219
 4559W        W 8303   1.495   7.991   4.371 -0.0307 -0.1909  0.0754
 4560W        W 8304   1.436   4.693   1.682 -0.1305  0.1918  0.0795
 4561W        W 8305   7.904   6.865   2.684  0.0017 -0.3510  0.1587
 4562W        W 8306   2.303   6.137   1.603  0.2003  0.0722  0.1302
 4563W        W 8307   6.881   1.418  11.269  0.0282  0.0044  0.1619
 4564W        W 8308   5.357   8.741   8.116 -0.1512 -0.0015  0.1538
 4565W        W 8309   2.911   5.323   2.230 -0.1123 -0.2272 -0.1000
 4566W        W 8310   7.528   1.727   2.927 -0.0862  0.0713 -0.1312
 4567W        W 8311   8.325   9.768  10.537  0.1103  0.1485 -0.0974
 4568W        W 8312   7.255   0.366   9.902 -0.3061  0.0506 -0.0496
 4569W        W 8313   9.017   4.181   0.681 -0.4720 -0.0974  0.0710
 4570W        W 8314   1.888   1.023   0.500  0.4404 -0.2059 -0.0789
 4571W        W 8315   7.895   0.945   2.943  0.3705 -0.2271  0.1031
 4572W        W 8316   4.606   4.389   2.322 -0.2665 -0.0597  0.0406
 4573W        W 8317   1.090   5.723   2.952 -0.0974 -0.1404 -0.2578
 4574W        W 8318   6.051   4.502   9.942  0.0712  0.2468  0.0408
 4575W        W 8319   6.501   9.559  11.692  0.2842  0.0777  0.1270
 4576W        W 8320   8.598   5.754  12.359  0.1177 -0.4114 -0.0348
 4577W        W 8321   5.071   5.197  11.750 -0.1992  0.2354  0.3896
 4578W        W 8322   6.862   2.615   1.583 -0.0251  0.2466 -0.0257
 4579W        W 8323   7.250   6.457   0.511  0.1304 -0.0477 -0.3345
 4580W        W 8324   5.148   9.739   2.967 -0.0960 -0.0034  0.1362
 4581W        W 8325   7.505   7.663   2.821 -0.1342 -0.2791  0.1450
 4582W        W 8326   6.785   7.258   3.986 -0.0037  0.1394  0.0757
 4583W        W 8327   1.356   7.258   0.526  0.0869 -0.1593  0.0609
 4584W        W 8328   3.187   7.254  11.321 -0.2291 -0.0799 -0.1309
 4585W        W 8329   7.929   1.202   3.428  0.3134  0.2521  0.0592
 4586W        W 8330   2.683   1.234   0.594 -0.0323  0.0245  0.0217
 4587W        W 8331   9.318   8.563   4.816  0.4187  0.3274  0.0282
 4588W        W 8332   0.812   2.427  10.754 -0.3322 -0.1068  0.2503
 4589W        W 8333   9.423   8.497   2.401  0.2058 -0.0062  0.3097
 4590W        W 8334   0.497   9.844   1.196 -0.2075 -0.1453  0.0553
 4591W        W 8335   8.650   7.632   9.071  0.0301  0.0363  0.4233
 4592W        W 8336   4.327   2.329   1.092 -0.2495 -0.0607  0.2373
 4593W        W 8337   2.959   1.011  11.435  0.0287  0.1334 -0.4274
 4594W        W 8338   7.809   1.160   4.643 -0.1961  0.3582 -0.1406
 4595W        W 8339   5.032   0.837   4.034  0.2223  0.1375  0.3488
 4596W        W 8340   3.949   6.388   8.846 -0.0784 -0.0146 -0.4627
 4597W        W 8341   4.753   1.667   9.176 -0.2736 -0.1652 -0.2189
 4598W        W 8342   5.455   5.294   1.239  0.0584 -0.3644  0.0813
 4599W        W 8343   7.826   1.942   1.641 -0.2093 -0.1222  0.1625
 4600W        W 8344   5.904   8.475  10.125 -0.5257 -0.0282 -0.0965
 4601W        W 8345   6.234   6.708  11.027 -0.1799  0.2382 -0.0649
 4602W        W 8346   8.113   4.636   0.457  0.2170 -0.2188  0.1031
 4603W        W 8347   7.821   2.457   9.690  0.4061  0.1076 -0.4197
 4604W        W 8348   7.687   1.357  11.118  0.0829  0.0120 -0.0383
 4605W        W 8349   5.860   6.331   3.883  0.0870  0.3015  0.0547
 4606W        W 8350   0.049   6.931   3.828  0.0460  0.1956 -0.1543
 4607W        W 8351   1.386   3.724   1.272  0.2353 -0.0853  0.0260
 4608W        W 8352   4.702   9.875   2.405  0.0476 -0.0266 -0.3620
 4609W        W 8353   6.437   7.348   1.276  0.3066 -0.1307  0.0475
 4610W        W 8354   8.006   8.188   3.294 -0.0190 -0.0767  0.1687
 4611W        W 8355   8.252   2.613   9.548 -0.1095 -0.1970 -0.0577
 4612W        W 8356   2.957   6.756  11.057  0.1406 -0.1012 -0.1619
 4613W        W 8357   5.409   8.952  11.900 -0.0576  0.2108  0.3594
 4614W        W 8358   6.316   7.680   1.688  0.0920  0.0116 -0.1873
 4615W        W 8359   7.764   0.885   1.443 -0.1694  0.1603  0.2249
 4616W        W 8360   6.190   2.153  10.955  0.1137 -0.1242 -0.0079
 4617W        W 8361   8.003   1.446   4.279  0.3614 -0.2394 -0.0564
 4618W        W 8362   9.627   4.172   2.294  0.0680 -0.1268  0.0517
 4619W        W 8363   1.211   4.256  12.815 -0.0530 -0.1120 -0.1223
 4620W        W 8364   7.988   0.521   2.485  0.0071 -0.0584 -0.0500
 4621W        W 8365   0.510   3.186  11.696  0.0089  0.2560  0.3425
 4622W        W 8366   5.567   7.614   3.483  0.1070 -0.0260 -0.0297
 4623W        W 8367   7.395   8.525  12.260  0.1452  0.2691 -0.0988
 4624W        W 8368   6.454   4.295  11.133 -0.2724  0.4073  0.1871
 4625W        W 8369   0.372   4.786  12.765  0.0809  0.0548  0.0998
 4626W        W 8370   0.369   6.923   9.672  0.0528  0.4006 -0.1553
 4627W        W 8371   0.976   9.676  12.196  0.0169  0.0827  0.1736
 4628W        W 8372   6.878   5.886  12.824 -0.2350  0.0379 -0.0380
 4629W        W 8373   3.434   2.046   0.857 -0.0128  0.1489 -0.0739
 4630W        W 8374   5.531   7.037   0.629 -0.1005 -0.3135  0.2915
 4631W        W 8375   0.863   2.990   2.293 -0.1512 -0.0798  0.0163
 4632W        W 8376   9.842   0.606  10.809  0.1194 -0.2282  0.0088
 4633W        W 8377   6.358   0.473  12.429 -0.4099 -0.3520 -0.1417
 4634W        W 8378   8.580   2.313   0.702 -0.0064 -0.0653 -0.5852
 4635W        W 8379   1.126   6.280   9.906 -0.0036  0.3372 -0.2336
 4636W        W 8380   4.187   5.785  10.048  0.0886 -0.2617  0.2860
 4637W        W 8381   5.871   9.689  10.515  0.0218 -0.0125 -0.2107
 4638W        W 8382   8.426   5.848   8.710  0.0944 -0.3417  0.3594
 4639W        W 8383   4.154   1.756  11.375 -0.1920 -0.0890 -0.0891
 4640W        W 8384   2.900   5.765   8.687  0.2682  0.0538 -0.0107
 4641W        W 8385   9.474   5.359   4.696 -0.2747  0.0902 -0.1514
 4642W        W 8386   9.361   5.013   0.445 -0.0248 -0.0661  0.0157
 4643W        W 8387   0.066   3.491   3.211  0.1318 -0.2427 -0.1235
 4644W        W 8388   6.507   4.214   0.870 -0.2140 -0.0951  0.1747
 4645W        W 8389   5.309   0.227   9.229  0.1946  0.3617 -0.0494
 4646W        W 8390   2.033   0.640   2.893  0.3763  0.2654  0.2541
 4647W        W 8391   7.969   1.669   2.474 -0.0899 -0.0132 -0.0296
 4648W        W 8392   2.636   4.984   0.949 -0.0185  0.1766 -0.0323
 4649W        W 8393   7.496   9.117  12.526  0.0808  0.0699 -0.1250
 4650W        W 8394   4.448   4.233   2.788 -0.1920 -0.1289 -0.3118
 4651W        W 8395   5.254   7.621   3.887 -0.0148 -0.0375  0.1940
 4652W        W 8396   0.487   6.104   0.815  0.2497 -0.1435 -0.0039
 4653W        W 8397   3.559   0.556   0.146  0.0821 -0.0681 -0.1270
 4654W        W 8398   8.195   2.476   8.944 -0.0020  0.0088  0.0968
 4655W        W 8399   1.322   9.168  10.413  0.1161 -0.1546 -0.2441
 4656W        W 8400   3.682   9.046  12.070  0.0555 -0.1858  0.1261
 4657W        W 8401   0.592   3.647   1.869 -0.0793  0.1829 -0.0971
 4658W        W 8402   4.821   4.302   1.820 -0.2336 -0.1257  0.1910
 4659W        W 8403   3.194   7.437  12.278 -0.2326 -0.3964 -0.0656
 4660W        W 8404   4.436   6.933  10.551 -0.0222  0.0255 -0.0233
 4661W        W 8405   7.878   5.555  11.733 -0.1606 -0.2563 -0.2125
 4662W        W 8406   2.242   6.852  12.326 -0.3369 -0.0386 -0.0469
 4663W        W 8407   6.785   1.464   0.706  0.1097 -0.0049 -0.1401
 4664W        W 8408   9.873   1.608  12.660  0.2372 -0.1072  0.2047
 4665W        W 8409   8.606   7.083   4.296 -0.2403 -0.3062  0.0809
 4666W        W 8410   5.656   4.220   1.963 -0.0813  0.2657 -0.1576
 4667W        W 8411   7.030   2.721   9.071  0.3588  0.0745  0.0394
 4668W        W 8412   6.107   8.666   3.456  0.1110 -0.0560  0.2167
 4669W        W 8413   1.487   4.881   4.290  0.1467  0.2413 -0.0447
 4670W        W 8414   3.455   4.286  11.494 -0.3762 -0.0781 -0.1223
 4671W        W 8415   4.110   1.327  12.496 -0.3203 -0.1038 -0.2212
 4672W        W 8416   3.051   6.145   1.205 -0.0647  0.1169  0.1037
 4673W        W 8417   3.968   4.189   0.497 -0.0909  0.0331 -0.0064
 4674W        W 8418   8.815   4.066   2.803  0.0140 -0.0323  0.3899
 4675W        W 8419   3.345   6.304  10.845 -0.0142  0.1164 -0.0729
 4676W        W 8420   8.352   8.595   2.242 -0.1424  0.2571  0.2026
 4677W        W 8421   5.051   3.740   8.427  0.2391  0.1514 -0.0959
 4678W        W 8422   2.276   0.729   1.758 -0.1523 -0.0259  0.2672
 4679W        W 8423   7.096   2.588   2.099  0.1609 -0.0206 -0.2387
 4680W        W 8424   5.694   7.606   2.222 -0.0112  0.0019  0.0327
 4681W        W 8425   1.121   3.845   1.805 -0.1226  0.0186 -0.1255
 4682W        W 8426   9.014   5.297   4.386 -0.0965 -0.3169  0.0892
 4683W        W 8427   6.269   4.975  10.086  0.1308  0.0552  0.0865
 4684W        W 8428   3.955   3.868   8.333  0.3450 -0.2996 -0.2322
 4685W        W 8429   9.781   7.125   2.127 -0.0349 -0.0002  0.2050
 4686W        W 8430   0.783   7.341   1.034  0.2776 -0.1180  0.2830
 4687W        W 8431   2.696   9.712   0.458  0.3111  0.0424  0.4229
 4688W        W 8432   7.712   0.229  11.922  0.2979 -0.3520  0.1363
 4689W        W 8433   3.375   9.594   4.321  0.0356 -0.0206  0.1983
 4690W        W 8434   9.132   7.490  11.351 -0.1174  0.0233 -0.0011
 4691W        W 8435   4.760   0.497   0.773 -0.1080  0.3203 -0.2501
 4692W        W 8436   2.999   5.560  11.972 -0.2451  0.1826  0.0843
 4693W        W 8437   5.860   0.688  10.035  0.1086  0.0748  0.1768
 4694W        W 8438   9.891   7.374   1.255 -0.2145  0.1674  0.0688
 4695W        W 8439   9.589   6.957  11.429  0.1344 -0.0627 -0.0459
 4696W        W 8440   5.866   0.499   2.194 -0.4241  0.1709  0.2387
 4697W        W 8441   0.718   7.917  10.073 -0.1231 -0.0840  0.1070
 4698W        W 8442   4.456   9.113   2.019  0.0305  0.1596 -0.1921
 4699W        W 8443   3.976   4.188   2.779 -0.3092  0.4049 -0.0510
 4700W        W 8444   2.752   1.487   9.728 -0.0468  0.0247  0.0650
 4701W        W 8445   1.354   9.504   0.163 -0.1239 -0.0827  0.2623
 4702W        W 8446   0.337   9.419   1.509 -0.2731  0.0185  0.0749
 4703W        W 8447   0.587   4.619   1.841 -0.2694  0.0865  0.2064
 4704W        W 8448   0.021   8.501   0.668 -0.1089  0.0030  0.1324
 4705W        W 8449   8.844   1.466   2.129  0.3265 -0.3970  0.0304
 4706W        W 8450   2.774   2.722   3.699  0.2405  0.0765  0.2266
 4707W        W 8451   9.173   3.067   2.866  0.1191 -0.1066 -0.0142
 4708W        W 8452   5.827   5.645   5.162 -0.2039  0.0083 -0.0690
 4709W        W 8453   2.078   1.613   1.779  0.2286 -0.1375  0.0274
 4710W        W 8454   9.880   1.807   2.052 -0.0092  0.1222 -0.0543
 4711W        W 8455   0.066   2.878  11.817  0.1146 -0.0254 -0.0715
 4712W        W 8456   3.485   2.592   3.184  0.0736 -0.3181 -0.2019
 4713W        W 8457   3.986   4.051  10.452  0.1143 -0.1945  0.0067
 4714W        W 8458   4.267   2.977   4.814 -0.3298 -0.1267 -0.2916
 4715W        W 8459   7.036   5.354   9.208  0.0384  0.3722 -0.0538
 4716W        W 8460   0.178   4.879  10.284 -0.1116  0.0267  0.0276
 4717W        W 8461   7.724   1.122  10.113  0.0531  0.2345 -0.0992
 4718W        W 8462   5.747   7.256  11.811 -0.1551 -0.2784 -0.0061
 4719W        W 8463   7.518   7.638  10.918  0.2189 -0.1047  0.1365
 4720W        W 8464   9.788   6.020   8.922  0.0800 -0.2281  0.0152
 4721W        W 8465   2.954   9.397   2.555 -0.1873 -0.0876 -0.1861
 4722W        W 8466   3.510   8.032   9.918 -0.2681 -0.1209 -0.2248
 4723W        W 8467   1.621   2.558  11.080 -0.1599  0.0038 -0.3991
 4724W        W 8468   4.117   8.313   1.705 -0.1989 -0.1163  0.4212
 4725W        W 8469   1.258   6.225  11.706 -0.1259  0.3309  0.0042
 4726W        W 8470   8.002   6.432   9.659  0.1935 -0.2596  0.0781
 4727W        W 8471   9.073   9.190   3.005  0.1183  0.1031  0.1083
 4728W        W 8472   2.648   3.595   1.346 -0.0241  0.0647  0.0050
 4729W        W 8473   1.906   7.142  10.226 -0.0449  0.1257 -0.3230
 4730W        W 8474   4.409   0.204   4.006 -0.0591  0.2453 -0.0815
 4731W        W 8475   0.782   2.595   0.482  0.0817  0.2179 -0.1828
 4732W        W 8476   0.334   1.164   2.919 -0.0224 -0.1585 -0.2048
 4733W        W 8477   8.312   5.358  11.575 -0.0248  0.4512 -0.0343
 4734W        W 8478   9.301   3.971   1.720 -0.2190  0.5387  0.3942
 4735W        W 8479   0.316   7.621  12.334  0.2025 -0.2162  0.0885
 4736W        W 8480   1.449   6.572   1.796  0.0342 -0.3400  0.4063
 4737W        W 8481   5.965   5.799  12.784  0.2604  0.2098  0.2620
 4738W        W 8482   9.014   7.419  10.774  0.0339  0.2963 -0.3100
 4739W        W 8483   0.674   1.313   1.350  0.1365  0.3404 -0.2742
 4740W        W 8484   2.944   7.600   2.199 -0.2812  0.0839  0.2641
 4741W        W 8485   2.431   0.148   0.276 -0.0036 -0.1163  0.2063
 4742W        W 8486   2.025   6.369  10.591 -0.1768  0.4374  0.0525
 4743W        W 8487   3.009   0.191  10.337 -0.0943  0.0264  0.1094
 4744W        W 8488   1.320   5.409  10.237 -0.4981 -0.0696  0.1321
 4745W        W 8489   1.053   1.178   9.099 -0.2243  0.4227  0.0570
 4746W        W 8490   0.181   4.982   1.700  0.0842 -0.2129 -0.0465
 4747W        W 8491   1.841   1.368   3.239 -0.1000 -0.0546 -0.0046
 4748W        W 8492   6.178   9.173   3.999 -0.0128 -0.1217  0.1372
 4749W        W 8493   7.358   6.861  11.585 -0.0977 -0.2542 -0.1073
 4750W        W 8494   8.540   7.967   3.120  0.2313  0.0914  0.1268
 4751W        W 8495   4.215   0.816   2.629 -0.2502 -0.0975  0.1886
 4752W        W 8496   7.500   0.728   2.310 -0.1965  0.1225 -0.2839
 4753W        W 8497   1.860   2.733   1.992  0.1291  0.2274 -0.0850
 4754W        W 8498   9.743   0.486  10.324  0.0348 -0.1562  0.0828
 4755W        W 8499   2.706   2.914   1.665  0.0882 -0.3496 -0.0859
 4756W        W 8500   4.281   7.452   2.927 -0.1884  0.1693 -0.1434
 4757W        W 8501   2.859   1.184   0.115 -0.1001 -0.1611  0.0370
 4758W        W 8502   6.846   5.300   1.061  0.2077 -0.1210 -0.0478
 4759W        W 8503   9.159   8.289   0.440  0.2322 -0.2596  0.1456
 4760W        W 8504   8.327   0.212   8.041  0.1091 -0.0813  0.0830
 4761W        W 8505   8.385   0.596   2.056 -0.0472  0.3319  0.0247
 4762W        W 8506   2.922   5.995  10.533 -0.4113 -0.2223 -0.1525
 4763W        W 8507   7.231   8.051  12.475  0.0055  0.0608 -0.1406
 4764W        W 8508   2.416   7.009  11.737  0.1527 -0.0041  0.0606
 4765W        W 8509   3.743   2.659   3.692 -0.0281  0.0586 -0.0493
 4766W        W 8510   5.758   8.362   4.871  0.3311  0.1928  0.0694
 4767W        W 8511   2.363   7.611   9.659  0.0322 -0.2733 -0.0078
 4768W        W 8512   2.252   3.351   0.363  0.1754  0.0080 -0.2029
 4769W        W 8513   1.197   1.823  10.092 -0.0318  0.2486  0.2305
 4770W        W 8514   5.514   6.974   9.343 -0.0140 -0.0627  0.1640
 4771W        W 8515   2.793   0.387   1.161  0.2781  0.0562 -0.0664
 4772W        W 8516   0.140   0.967   3.375 -0.1301 -0.3866  0.0782
 4773W        W 8517   4.736   2.069   0.199 -0.1026 -0.6099  0.1827
 4774W        W 8518   8.867   2.653   2.448 -0.2755 -0.0175 -0.1376
 4775W        W 8519   6.536   0.035   1.730 -0.0921  0.3854  0.0490
 4776W        W 8520   6.826   3.644   3.949  0.2640 -0.2997 -0.3152
 4777W        W 8521   4.307   2.538   9.974  0.0222 -0.1832  0.1375
 4778W        W 8522   3.063   7.585   3.668 -0.0032  0.2604  0.1736
 4779W        W 8523   0.612   4.981   0.498 -0.0183 -0.0729 -0.0941
 4780W        W 8524   7.976   1.726   0.235  0.1109  0.0798  0.0883
 4781W        W 8525   3.552   9.382   0.036  0.2854 -0.1972 -0.2718
 4782W        W 8526   1.997   5.887   2.295 -0.0787  0.0559  0.1915
 4783W        W 8527   3.923   8.422   4.260  0.1386 -0.1083  0.0875
 4784W        W 8528   9.577   3.292   0.423 -0.1136  0.0762 -0.2614
 4785W        W 8529   1.640   8.024   3.010 -0.2149 -0.3681  0.1994
 4786W        W 8530   3.398   7.545  10.983  0.2287 -0.2951  0.3440
 4787W        W 8531   5.515   4.271   3.853  0.1545  0.0873  0.0092
 4788W        W 8532   4.464   2.578   1.495 -0.1604  0.2081  0.4440
 4789W        W 8533   9.657   7.356   1.645 -0.1844 -0.0902 -0.2588
 4790W        W 8534   1.854   1.248   8.677  0.1852 -0.0436 -0.1036
 4791W        W 8535   7.387   7.302   0.373  0.0671  0.3017 -0.0919
 4792W        W 8536   7.108   6.210   9.026  0.0879  0.1202  0.0276
 4793W        W 8537   1.821   5.349  12.024  0.3345  0.2236  0.1080
 4794W        W 8538   9.904   1.026   0.818  0.0763 -0.1043 -0.2421
 4795W        W 8539   6.967   4.681   8.696  0.0595 -0.1857  0.0667
 4796W        W 8540   5.532   6.655   1.947 -0.1250 -0.1829  0.0166
 4797W        W 8541   4.715   3.692   9.210 -0.0508  0.1447  0.0922
 4798W        W 8542   7.583   0.230  11.179  0.1227 -0.0960 -0.1217
 4799W        W 8543   8.774   4.227  12.467 -0.1092  0.1986  0.0533
 4800W        W 8544   5.404   0.488   4.084 -0.0449 -0.0431  0.0541
 4801W        W 8545   6.413   9.080   3.557 -0.1312 -0.2365  0.0303
 4802W        W 8546   7.510   0.778   9.227  0.2859 -0.2889 -0.0790
 4803W        W 8547   3.505   2.816   4.897  0.1471 -0.2317  0.0428
 4804W        W 8548   5.738   6.269   1.250 -0.0225  0.2464  0.0006
 4805W        W 8549   4.606   2.300   4.314 -0.1385  0.2109 -0.0834
 4806W        W 8550   6.330   6.091  12.625 -0.0456 -0.0593 -0.1795
 4807W        W 8551   1.587   3.624  10.765 -0.0182  0.2762 -0.0142
 4808W        W 8552   3.365   8.525   9.255  0.1242  0.2332 -0.0017
 4809W        W 8553   7.265   1.010   8.869  0.0509 -0.0546 -0.0848
 4810W        W 8554   1.745   9.465   0.461 -0.5554 -0.2176 -0.0203
 4811W        W 8555   9.095   2.039   1.536 -0.0976  0.0594  0.0737
 4812W        W 8556   4.526   9.659   3.094 -0.0446 -0.0217 -0.0108
 4813W        W 8557   9.430   5.108   1.058 -0.3278  0.2288  0.3775
 4814W        W 8558   2.225   9.627   0.508 -0.1431  0.0858 -0.0815
 4815W        W 8559   3.402   6.670   8.483  0.0195 -0.1420 -0.0739
 4816W        W 8560   0.964   8.626   1.086 -0.0248 -0.2278  0.0947
 4817W        W 8561   4.255   4.705  12.526 -0.1416 -0.4442 -0.0296
 4818W        W 8562   5.808   0.565   2.722  0.1837 -0.0202 -0.5816
 4819W        W 8563   6.202   4.125   3.769 -0.1815 -0.0401  0.1667
 4820W        W 8564   9.139   1.435   0.858  0.0987 -0.4997  0.3188
 4821W        W 8565   5.895   2.903   3.238 -0.1436  0.2140  0.1776
 4822W        W 8566   4.586   9.111   1.499  0.3205  0.0436  0.0747
 4823W        W 8567   8.773   6.213   8.318  0.4070  0.0251 -0.1865
 4824W        W 8568   8.342   9.182  11.449  0.3707 -0.1384 -0.1255
 4825W        W 8569   6.046   5.202   2.968 -0.2979 -0.2002  0.0346
 4826W        W 8570   3.745   7.280  11.230  0.0411  0.6106 -0.1238
 4827W        W 8571   9.420   8.310   9.088  0.1045 -0.3047 -0.0629
 4828W        W 8572   6.710   9.112   4.193 -0.2193  0.1911 -0.0341
 4829W        W 8573   5.904   9.180  12.105  0.3057 -0.3920 -0.1720
 4830W        W 8574   1.760   4.581  11.021 -0.0023 -0.0427 -0.0567
 4831W        W 8575   5.784   7.402   3.031 -0.1142  0.2234  0.3656
 4832W        W 8576   1.730   0.363  11.665 -0.0933  0.1679  0.0048
 4833W        W 8577   9.108   6.598   8.962 -0.2078  0.1205 -0.1618
 4834W        W 8578   7.393   0.105   9.465 -0.0145 -0.1073 -0.1492
 4835W        W 8579   6.057   1.558   9.765 -0.2271 -0.1012 -0.0031
 4836W        W 8580   6.495   3.548  10.218 -0.3160  0.0660  0.1865
 4837W        W 8581   2.188   0.928  12.427  0.1063 -0.1171  0.1204
 4838W        W 8582   3.607   9.371  11.351 -0.0865  0.0281  0.0044
 4839W        W 8583   4.405   7.909   2.714  0.0437 -0.0499  0.1433
 4840W        W 8584   7.284   3.883  11.252  0.0555 -0.1062 -0.0745
 4841W        W 8585   9.695   4.439  11.645 -0.0243 -0.0681  0.1202
 4842W        W 8586   0.800   1.818   2.477  0.1084  0.3069 -0.2164
 4843W        W 8587   8.013   8.749   1.789 -0.2465  0.0673  0.1970
 4844W        W 8588   6.564   6.897   9.410 -0.2267 -0.1650  0.1917
 4845W        W 8589   6.755   7.368   1.664 -0.2827  0.0451  0.0332
 4846W        W 8590   6.894   0.753   9.010  0.1113 -0.0617 -0.3462
 4847W        W 8591   6.853   4.730   1.982  0.0349 -0.1644 -0.0234
 4848W        W 8592   3.554   2.118   9.486 -0.3947  0.1214 -0.0175
 4849W        W 8593   8.059   0.103   0.529  0.0261  0.1584  0.4054
 4850W        W 8594   8.461   4.461   2.828 -0.2431  0.2811  0.1372
 4851W        W 8595   3.826   8.478   3.073  0.1542 -0.1600  0.0664
 4852W        W 8596   1.790   4.573   1.366  0.0050 -0.2258 -0.2135
 4853W        W 8597   7.049   6.717   9.794 -0.1066  0.2355 -0.1683
 4854W        W 8598   5.653   2.554  12.007 -0.3445  0.2646  0.2800
 4855W        W 8599   1.039   7.176   2.944  0.0792  0.2457 -0.1759
 4856W        W 8600   3.791   5.528   2.739  0.0856  0.1090  0.1699
 4857W        W 8601   4.121   7.699   4.324 -0.0658 -0.5157 -0.2990
 4858W        W 8602   5.324   6.152   9.041  0.1862 -0.0922  0.2166
 4859W        W 8603   9.195   0.800   4.252  0.1114  0.0445  0.2611
 4860W        W 8604   2.317   9.597  10.529 -0.2528 -0.1035  0.0722
 4861W        W 8605   6.424   7.239   3.171  0.3347 -0.0471 -0.0178
 4862W        W 8606   2.264   4.243  11.871  0.0801 -0.3023 -0.2559
 4863W        W 8607   4.294   3.620  12.634  0.0881  0.0776 -0.2311
 4864W        W 8608   6.421   7.794   9.894 -0.3193 -0.0862  0.0071
 4865W        W 8609   8.031   8.493  10.321 -0.3304  0.1844  0.3080
 4866W        W 8610   7.691   0.118   9.101  0.2920 -0.0877  0.0143
 4867W        W 8611   7.467   9.571   2.166 -0.0684 -0.2370  0.0398
 4868W        W 8612   1.115   4.452  12.306 -0.1869  0.0433 -0.3184
 4869W        W 8613   3.054   7.980   2.614  0.0557  0.4515 -0.2583
 4870W        W 8614   5.553   6.159   2.179  0.0672  0.0064 -0.0066
 4871W        W 8615   1.751   7.149  12.520 -0.1035  0.2737  0.4699
 4872W        W 8616   5.932   5.749   3.014  0.0555  0.2803 -0.0215
 4873W        W 8617   3.375   8.420   3.334 -0.3455 -0.0637  0.0378
 4874W        W 8618   0.906   3.879   3.410 -0.0049 -0.0026  0.2799
 4875W        W 8619   9.216   1.421   1.375  0.1012  0.0644  0.2349
 4876W        W 8620   6.753   9.334   1.109 -0.0792 -0.1748  0.2096
 4877W        W 8621   9.505   3.680   2.791  0.1610 -0.0539  0.0989
 4878W        W 8622   1.675   9.598   9.515  0.1899  0.1081 -0.0131
 4879W        W 8623   9.230   1.031   3.227 -0.4484 -0.0016 -0.1868
 4880W        W 8624   5.387   0.004  10.527 -0.0754  0.0565  0.0880
 4881W        W 8625   5.078   9.373  11.839  0.0598 -0.2578  0.2966
 4882W        W 8626   6.394   6.620   2.983 -0.0433  0.1082  0.1874
 4883W        W 8627   6.145   5.526   3.404 -0.0797 -0.0474 -0.0790
 4884W        W 8628   7.855   7.765   9.394  0.4782 -0.1667  0.0700
 4885W        W 8629   3.847   8.497   0.829 -0.0836  0.4957  0.0399
 4886W        W 8630   3.446   2.812  11.980  0.1619  0.2533  0.2157
 4887W        W 8631   3.265   2.181   8.121 -0.0031 -0.0071 -0.0261
 4888W        W 8632   2.581   7.991   9.964 -0.2707  0.2261  0.0012
 4889W        W 8633   3.725   6.724   0.183 -0.1340  0.3625  0.1923
 4890W        W 8634   0.651   9.787  10.921  0.1669 -0.1388  0.1252
 4891W        W 8635   7.129   3.483   9.948  0.1120 -0.1310 -0.1462
 4892W        W 8636   4.086   6.699   4.036 -0.0261 -0.0291  0.0112
 4893W        W 8637   3.073   7.877  11.973 -0.1548  0.0911  0.2957
 4894W        W 8638   6.038   9.072   8.783  0.1068  0.0047  0.0605
 4895W        W 8639   8.336   2.202   9.773 -0.0105  0.1549 -0.3048
 4896W        W 8640   8.769   7.025   8.769 -0.2370  0.3772  0.1405
 4897W        W 8641   4.410   4.094  12.736  0.1206  0.3232  0.0755
 4898W        W 8642   4.647   8.049   8.748 -0.3913 -0.2108  0.1756
 4899W        W 8643   4.528   0.172   4.917 -0.0992  0.3082  0.0826
 4900W        W 8644   0.123   5.516   2.030 -0.0513  0.0856 -0.3431
 4901W        W 8645   8.244   2.668   3.903 -0.0568  0.1096 -0.2340
 4902W        W 8646   8.268   5.599  12.704  0.2444 -0.1201  0.1661
 4903W        W 8647   4.864   9.859   4.003  0.0265  0.1648  0.2536
 4904W        W 8648   6.947   7.144   1.230 -0.0745  0.3334 -0.3229
 4905W        W 8649   4.632   7.304   1.190  0.1989  0.0199 -0.1162
 4906W        W 8650   7.125   1.444   2.050  0.0546  0.1376 -0.0481
 4907W        W 8651   7.763   4.778   0.146 -0.1909 -0.0783  0.1610
 4908W        W 8652   5.021   8.745  11.047  0.2197  0.0502  0.0919
 4909W        W 8653   3.964   2.992   9.463 -0.0100  0.1234  0.0216
 4910W        W 8654   4.060   3.346   0.391  0.1049  0.2503  0.0573
 4911W        W 8655   7.899   5.652   9.371  0.1634 -0.0726 -0.0401
 4912W        W 8656   7.524   1.346   3.745 -0.1127 -0.0237  0.2103
 4913W        W 8657   5.757   8.727   0.865 -0.4511 -0.2722 -0.1775
 4914W        W 8658   9.040   4.997  11.612  0.0204  0.1606 -0.2314
 4915W        W 8659   7.396   4.333   1.390 -0.2223  0.0245 -0.0670
 4916W        W 8660   5.434   0.678  12.662 -0.1161 -0.0684  0.0632
 4917W        W 8661   1.166   1.528   1.604 -0.0464 -0.0440  0.0652
 4918W        W 8662   0.324   5.296  12.818 -0.1050 -0.0473  0.1179
 4919W        W 8663   3.350   8.299  10.332 -0.1763 -0.4942 -0.0983
 4920W        W 8664   1.763   0.517  12.194  0.1529  0.0315 -0.0312
 4921W        W 8665   1.527   4.159  10.639 -0.0390  0.3073  0.1718
 4922W        W 8666   5.540   9.027   9.799  0.3512 -0.0836  0.1543
 4923W        W 8667   6.113   5.855   1.385  0.0752  0.2653  0.1370
 4924W        W 8668   5.792   1.842   9.023  0.0122  0.0395 -0.1045
 4925W        W 8669   5.416   5.923   2.922  0.0971 -0.0089  0.4194
 4926W        W 8670   3.435   2.545  12.389 -0.1276 -0.1842 -0.3274
 4927W        W 8671   5.438   0.420   3.152  0.1932 -0.0207  0.0998
 4928W        W 8672   4.669   6.513  10.087 -0.1835  0.0715 -0.1036
 4929W        W 8673   2.291   0.284   9.935 -0.2578 -0.3316 -0.3967
 4930W        W 8674   0.781   8.059   2.556  0.0213  0.1949 -0.3035
 4931W        W 8675   1.451   8.964  12.189 -0.1552  0.0993 -0.1007
 4932W        W 8676   1.987   2.224  12.509  0.0734  0.0572 -0.0206
 4933W        W 8677   6.286   9.005   2.032 -0.0089 -0.2145 -0.0800
 4934W        W 8678   8.972   6.181   4.010  0.1129  0.0429  0.0086
 4935W        W 8679   2.394   4.334   8.313 -0.0568  0.2805 -0.4112
 4936W        W 8680   8.253   9.558   3.626  0.1143  0.1664  0.1933
 4937W        W 8681   7.106   4.221   2.700  0.0011 -0.0102  0.0801
 4938W        W 8682   7.536   4.761   9.412 -0.3134  0.1671 -0.1005
 4939W        W 8683   4.842   5.941   8.814  0.1117 -0.1920  0.1882
 4940W        W 8684   6.342   9.820   0.290 -0.2669  0.4475 -0.2970
 4941W        W 8685   5.392   2.025   2.440  0.2747  0.1834 -0.0741
 4942W        W 8686   3.115   7.492   5.276  0.1263  0.1854 -0.2187
 4943W        W 8687   6.309   1.734   2.073  0.0602 -0.0211  0.0455
 4944W        W 8688   4.204   4.980   3.403 -0.3759 -0.1750 -0.1909
 4945W        W 8689   3.018   3.953  12.818  0.0444 -0.1052  0.1445
 4946W        W 8690   8.033   8.678   1.162  0.2029  0.0767  0.0336
 4947W        W 8691   2.344   1.340   4.169  0.0787 -0.1065 -0.1276
 4948W        W 8692   4.432   1.074   9.239 -0.1756 -0.1167  0.3414
 4949W        W 8693   2.724   1.812  11.207 -0.2334  0.1761 -0.1728
 4950W        W 8694   1.765   9.889   9.124  0.0553 -0.1201  0.2560
 4951W        W 8695   3.610   1.795   0.156  0.2058 -0.1987 -0.0269
 4952W        W 8696   0.982   8.720   1.613  0.3436 -0.0399 -0.1135
 4953W        W 8697   1.163   5.970  10.871  0.2372  0.3845  0.0270
 4954W        W 8698   5.372   8.986   4.003  0.2342  0.1144 -0.0668
 4955W        W 8699   4.326   9.770  10.650 -0.0050 -0.0132  0.0640
 4956W        W 8700   8.971   3.616  11.952  0.1501  0.0899  0.3761
 4957W        W 8701   8.795   8.490   9.800 -0.1230  0.3498  0.3912
 4958W        W 8702   5.145   3.571   2.314  0.1719 -0.1444  0.0124
 4959W        W 8703   0.747   3.445   0.667  0.1520 -0.0361  0.1199
 4960W        W 8704   1.837   3.557   1.386 -0.1101  0.5168  0.2317
 4961W        W 8705   5.699   1.468   9.388  0.1542  0.1533  0.2711
 4962W        W 8706   0.735   6.008  11.431 -0.1428  0.1538  0.0735
 4963W        W 8707   4.805   4.078  11.507  0.1169 -0.0301 -0.1608
 4964W        W 8708   5.264   4.665   1.811  0.0460 -0.0833 -0.2341
 4965W        W 8709   7.690   8.256  10.625  0.0952  0.1219  0.0351
 4966W        W 8710   4.837   5.880   0.133  0.1310 -0.1819 -0.2346
 4967W        W 8711   8.453   6.067  10.922  0.2453  0.1436  0.2992
 4968W        W 8712   7.466   1.335   3.210  0.0015  0.0137  0.0548
 4969W        W 8713   1.087   3.176   0.388  0.1062  0.0977 -0.3491
 4970W        W 8714   6.358   2.087   7.960 -0.1113 -0.2992  0.0727
 4971W        W 8715   7.534   6.849   1.381  0.1343 -0.1501 -0.0948
 4972W        W 8716   5.420   4.916   2.612  0.0728  0.1455 -0.0350
 4973W        W 8717   9.926   3.188   2.514 -0.1354  0.1383 -0.0955
 4974W        W 8718   5.551   8.186   1.835 -0.4373 -0.1996 -0.5450
 4975W        W 8719   2.193   7.928   9.338  0.1585 -0.3047  0.1573
 4976W        W 8720   1.906   6.427   9.225  0.2556 -0.5225  0.2923
 4977W        W 8721   9.655   3.836  11.754  0.1806 -0.2752  0.0779
 4978W        W 8722   1.451   8.861   2.983  0.4769 -0.2168 -0.1908
 4979W        W 8723   5.507   5.726   9.384 -0.1103 -0.2137  0.1787
 4980W        W 8724   2.183   9.103   0.746 -0.2505  0.0596  0.1750
 4981W        W 8725   8.291   3.429  11.954 -0.0424 -0.0464  0.0772
 4982W        W 8726   9.375   2.086  11.550 -0.0723  0.0044  0.3092
 4983W        W 8727   6.453   1.629  11.446 -0.1139  0.3301 -0.3498
 4984W        W 8728   8.079   3.012   3.551 -0.0509 -0.0108 -0.0863
 4985W        W 8729   7.068   9.677  12.162 -0.0363  0.1621 -0.0731
 4986W        W 8730   4.900   4.689  10.150  0.0858 -0.0933 -0.1770
 4987W        W 8731   0.617   0.867   0.988  0.0193  0.1086 -0.3103
 4988W        W 8732   7.163   0.486   3.116  0.0861 -0.1085 -0.2173
 4989W        W 8733   5.096   7.362  10.111 -0.5812  0.0258  0.3342
 4990W        W 8734   0.441   3.025   2.629 -0.0423  0.0041  0.1773
 4991W        W 8735   4.238   5.276  12.312  0.2911  0.0370  0.1882
 4992W        W 8736   8.342   8.919   1.481 -0.0321 -0.0064  0.1493
 4993W        W 8737   0.182   9.306   3.783  0.1608 -0.0219 -0.0697
 4994W        W 8738   8.601   0.551  11.269  0.1157  0.0745 -0.1607
 4995W        W 8739   2.462   1.785   2.288  0.1962  0.3239 -0.2570
 4996W        W 8740   0.797   2.020   0.641 -0.1405 -0.0395  0.0349
 4997W        W 8741   7.481   8.696  10.626  0.1363 -0.0830  0.0475
 4998W        W 8742   8.756   3.835   1.081  0.0763 -0.2203  0.2123
 4999W        W 8743   1.488   2.418  11.535 -0.1029  0.0884  0.0851
 5000W        W 8744   5.233   3.876   2.725 -0.0284  0.2600  0.1641
 5001W        W 8745   6.219   2.666   8.883  0.1337 -0.6630  0.0010
 5002W        W 8746   8.706   6.127  12.728 -0.0958 -0.0057 -0.1917
 5003W        W 8747   3.763   6.903   1.935 -0.1907  0.3142 -0.3556
 5004W        W 8748   1.991   8.188  12.685  0.1511  0.1698  0.0201
 5005W        W 8749   1.653   4.959   0.842 -0.3426 -0.0465  0.2452
 5006W        W 8750   1.649   1.059  12.369  0.0319  0.4114 -0.2665
 5007W        W 8751   7.521   8.460  11.118 -0.2117 -0.1186  0.0600
 5008W        W 8752   3.514   9.287   1.442 -0.1179  0.2237  0.2509
 5009W        W 8753   4.841   7.026   1.583  0.2491  0.0523  0.1333
 5010W        W 8754   8.583   2.343   3.634 -0.1445  0.1399  0.0975
 5011W        W 8755   9.091   7.228   8.431  0.0675 -0.1186 -0.0601
 5012W        W 8756   3.838   6.043   3.568 -0.2444  0.2719  0.2229
 5013W        W 8757   7.274   0.142  11.497  0.2294 -0.0945  0.1183
 5014W        W 8758   6.732   5.574   3.375  0.2549  0.1745 -0.1485
 5015W        W 8759   2.347   8.631   4.587  0.2059  0.3168 -0.0342
 5016W        W 8760   6.137   7.081   0.082  0.1279  0.2206 -0.1661
 5017W        W 8761   1.943   3.119   0.709  0.0547 -0.1030  0.0804
 5018W        W 8762   4.750   3.397   9.742  0.3399 -0.1699 -0.0251
 5019W        W 8763   6.175   9.349   7.803  0.2419 -0.1811 -0.0329
 5020W        W 8764   7.666   3.754  12.627 -0.0114 -0.0907 -0.0348
 5021W        W 8765   8.633   9.656   0.266 -0.2993  0.0638  0.2308
 5022W        W 8766   1.459   6.130   2.799  0.2143  0.1218  0.0524
 5023W        W 8767   8.665   9.132  11.058 -0.2619 -0.0875 -0.2387
 5024W        W 8768   9.698   6.400   0.698  0.2064  0.2088 -0.0355
 5025W        W 8769   4.477   1.746  12.678 -0.4731  0.2485  0.0257
 5026W        W 8770   2.323   7.577  11.035 -0.2595 -0.1532 -0.1985
 5027W        W 8771   8.924   8.360   1.625  0.3464 -0.1085 -0.1674
 5028W        W 8772   9.729   6.280   1.711 -0.2875 -0.0527  0.0833
 5029W        W 8773   6.516   3.719   2.112 -0.1382 -0.0065 -0.1699
 5030W        W 8774   5.396   2.051  12.691 -0.0177 -0.4865 -0.0944
 5031W        W 8775   7.011   4.059   1.714 -0.1579 -0.1804  0.0162
 5032W        W 8776   6.326   2.904   8.387 -0.0065  0.1242  0.0612
 5033W        W 8777   1.836   8.028  12.112  0.0584 -0.2338 -0.0223
 5034W        W 8778   1.656   2.806   2.537 -0.0168 -0.1965 -0.0114
 5035W        W 8779   1.927   5.121   9.767 -0.1472 -0.1326  0.0227
 5036W        W 8780   7.196   7.400   4.174 -0.0620 -0.0054 -0.1399
 5037W        W 8781   6.931   9.443   2.422  0.1171 -0.2194 -0.1183
 5038W        W 8782   3.022   1.955   1.809 -0.3792  0.0823  0.1271
 5039W        W 8783   6.120   5.639  10.762 -0.0816  0.1049  0.3021
 5040W        W 8784   0.469   8.271   0.731  0.3901  0.1119 -0.1155
 5041W        W 8785   4.239   8.751   2.717 -0.1418 -0.0903 -0.1453
 5042W        W 8786   9.333   1.325   2.773 -0.1143  0.3595 -0.0530
 5043W        W 8787   1.174   5.924  10.313 -0.2665  0.1475  0.2141
 5044W        W 8788   4.590   0.261   3.129  0.0364 -0.1387  0.0585
 5045W        W 8789   3.019   4.566  11.518  0.1002  0.1673  0.2917
 5046W        W 8790   2.433   8.776   9.464 -0.2949  0.0841 -0.0062
 5047W        W 8791   8.762   7.265  11.569  0.0231  0.0623  0.3577
 5048W        W 8792   3.356   1.413   2.426 -0.0651  0.1339  0.1368
 5049W        W 8793   4.910   4.382   1.295  0.1020 -0.3956 -0.1652
 5050W        W 8794   5.188   1.125   3.192 -0.0516  0.2769  0.1788
 5051W        W 8795   0.569   8.821   3.799  0.3324  0.1004  0.2739
 5052W        W 8796   9.077   8.071   9.554 -0.0934 -0.1012 -0.1809
 5053W        W 8797   7.491   4.217   1.912 -0.3588 -0.0548 -0.2691
 5054W        W 8798   7.947   7.790   4.065 -0.0046 -0.0288 -0.1983
 5055W        W 8799   9.855   1.881  10.906  0.0371 -0.2211  0.0186
 5056W        W 8800   4.725   5.247   2.164  0.1960 -0.0119  0.0963
 5057W        W 8801   3.516   0.418   3.707 -0.1581  0.4163  0.2559
 5058W        W 8802   9.744   9.405   4.157 -0.0201  0.2995 -0.0524
 5059W        W 8803   0.365   3.859  12.814 -0.1598  0.0560 -0.0291
 5060W        W 8804   4.380   2.853   9.200  0.0014 -0.1957 -0.1123
 5061W        W 8805   5.353   2.727   3.142 -0.1155  0.1835 -0.1763
 5062W        W 8806   0.225   4.382  10.425  0.1037 -0.0337  0.1366
 5063W        W 8807   1.486   4.069   2.240 -0.0770  0.1146  0.1133
 5064W        W 8808   8.991   2.460   3.384 -0.2735 -0.1252 -0.1119
 5065W        W 8809   1.476   7.974  11.023 -0.0587 -0.2661 -0.1257
 5066W        W 8810   1.488   6.806  11.274  0.1617  0.1305  0.1427
 5067W        W 8811   8.529   3.238   4.460  0.4042  0.0674  0.0704
 5068W        W 8812   2.588   2.327  11.889 -0.2334 -0.2877 -0.0238
 5069W        W 8813   5.037   3.957   0.048 -0.0778  0.2326 -0.0791
 5070W        W 8814   8.799   6.786  11.900 -0.0779 -0.1701 -0.0210
 5071W        W 8815   7.701   3.695  10.271  0.1436  0.1106  0.1580
 5072W        W 8816   2.690   4.940   3.511 -0.1456  0.1481  0.1033
 5073W        W 8817   5.234   7.982   1.446  0.1651  0.0089  0.0382
 5074W        W 8818   4.958   3.863   3.538  0.0388 -0.0981 -0.0404
 5075W        W 8819   6.105   8.265   2.858 -0.5853  0.2457  0.0449
 5076W        W 8820   5.995   7.991   2.049 -0.0766 -0.1659 -0.3214
 5077W        W 8821   5.520   7.565  10.812  0.0900 -0.2323 -0.1207
 5078W        W 8822   5.526   6.722   3.900 -0.5806  0.3415  0.0738
 5079W        W 8823   2.201   5.830  12.555  0.2379 -0.1656  0.1497
 5080W        W 8824   7.475   3.905   0.723 -0.0640  0.2181  0.3625
 5081W        W 8825   2.193   7.319  12.158  0.2297  0.1570 -0.0517
 5082W        W 8826   4.948   6.341  10.475  0.0174 -0.0029  0.2135
 5083W        W 8827   9.512   1.462   3.363 -0.3516 -0.0742 -0.1785
 5084W        W 8828   4.354   7.009   8.677  0.0100 -0.0092 -0.0811
 5085W        W 8829   0.950   7.832   9.530  0.1779  0.0297  0.0899
 5086W        W 8830   9.694   5.240   1.849 -0.1120 -0.1136  0.1963
 5087W        W 8831   9.821   8.710  11.066 -0.2516  0.0216  0.2615
 5088W        W 8832   4.404   3.107  11.743 -0.4247  0.0087  0.0624
 5089W        W 8833   3.289   4.954   0.263 -0.0774  0.1863  0.2325
 5090W        W 8834   2.919   4.474   3.689 -0.1941 -0.1261  0.1939
 5091W        W 8835   7.657   8.945  12.097 -0.0917  0.2333  0.1422
 5092W        W 8836   5.875   8.862   3.122  0.2900 -0.0583  0.1699
 5093W        W 8837   5.769   7.191  12.309 -0.0246  0.0757 -0.0214
 5094W        W 8838   3.853   3.876  10.887  0.0481  0.0301 -0.0256
 5095W        W 8839   1.350   4.395   9.510  0.0166  0.0761  0.2340
 5096W        W 8840   1.097   1.691   2.896  0.0114  0.2798  0.2965
 5097W        W 8841   9.685   0.331  12.204 -0.2099  0.2682  0.3254
 5098W        W 8842   7.218   7.291   9.686  0.3065 -0.3143 -0.0100
 5099W        W 8843   5.461   8.540   2.174 -0.0690  0.1419  0.1632
 5100W        W 8844   8.788   6.812   2.261 -0.0110  0.1126 -0.0189
 5101W        W 8845   2.816   7.524  10.460  0.1118  0.1450 -0.0066
 5102W        W 8846   2.200   7.461  11.575  0.1311  0.2507 -0.0085
 5103W        W 8847   6.176   2.031   1.363 -0.1195  0.1443  0.3150
 5104W        W 8848   1.156   9.021   2.298 -0.1960 -0.2124  0.0866
 5105W        W 8849   8.920   6.512  12.297 -0.2812  0.0735  0.2427
 5106W        W 8850   4.079   6.650   0.997 -0.1071  0.0819 -0.1188
 5107W        W 8851   0.179   9.246  11.590 -0.0069  0.0716 -0.3332
 5108W        W 8852   4.275   3.864   9.256  0.1965  0.1117  0.3297
 5109W        W 8853   2.077   4.287   0.400 -0.2174 -0.3770 -0.1979
 5110W        W 8854   5.816   0.981  12.816  0.4479 -0.3255 -0.0643
 5111W        W 8855   1.475   0.998  10.917 -0.0809  0.0145  0.0079
 5112W        W 8856   7.235   8.575   1.496  0.0046  0.0459  0.1107
 5113W        W 8857   8.358   1.107  12.180 -0.1804  0.0537 -0.1916
 5114W        W 8858   5.090   2.451   9.616  0.0429 -0.1897  0.2603
 5115W        W 8859   4.902   9.397   2.679 -0.1695 -0.0682 -0.0712
 5116W        W 8860   2.240   6.523  11.833  0.0538  0.0323 -0.2099
 5117W        W 8861   1.423   1.763  11.988  0.0345  0.1337 -0.1560
 5118W        W 8862   3.841   0.385   7.741 -0.0441  0.1986  0.2888
 5119W        W 8863   6.191   6.336  11.744 -0.1008  0.3096 -0.3106
 5120W        W 8864   3.982   0.754  12.539  0.2349  0.4838 -0.0355
 5121W        W 8865   6.777   6.078   4.413 -0.1288  0.0405 -0.1241
 5122W        W 8866   6.892   0.332  11.236  0.0757 -0.1056  0.1835
 5123W        W 8867   0.107   4.037   4.001 -0.0884  0.0123  0.0810
 5124W        W 8868   0.013   1.457   3.166  0.2077  0.1005  0.2128
 5125W        W 8869   4.098   2.064   4.954  0.0196 -0.1028 -0.2418
 5126W        W 8870   2.864   2.546   0.792  0.1334 -0.1867  0.3581
 5127W        W 8871   3.210   3.014   1.752 -0.0744 -0.1911 -0.0528
 5128W        W 8872   9.244   2.439  10.499  0.1245  0.2328  0.1162
 5129W        W 8873   3.219   0.111  11.269 -0.3519  0.1621  0.0827
 5130W        W 8874   0.752   5.062   8.699 -0.2530  0.0827 -0.1075
 5131W        W 8875   2.955   8.547  12.482  0.0628 -0.3513  0.2344
 5132W        W 8876   5.807   7.539   5.201 -0.1051  0.0273 -0.0942
 5133W        W 8877   4.146   2.039   0.169  0.0071  0.0400 -0.1879
 5134W        W 8878   8.708   2.996   2.081  0.0410 -0.0726 -0.2063
 5135W        W 8879   3.917   6.736  12.013  0.2816 -0.1358  0.0984
 5136W        W 8880   7.417   0.060  10.294  0.1341 -0.1920  0.0436
 5137W        W 8881   9.216   6.070   0.060  0.2287 -0.1745  0.3225
 5138W        W 8882   6.454   4.990   8.672 -0.0686 -0.1880  0.2160
 5139W        W 8883   6.948   7.765   3.758 -0.1327 -0.0373 -0.2554
 5140W        W 8884   4.726   3.024   8.703 -0.1902  0.1875 -0.0478
 5141W        W 8885   4.079   0.590   1.738  0.0012  0.3135  0.3397
 5142W        W 8886   1.446   3.523  11.631  0.1114 -0.2546 -0.0865
 5143W        W 8887   5.981   0.244   9.770 -0.3091 -0.0726 -0.3010
 5144W        W 8888   5.890   1.459   3.593  0.0070 -0.3088  0.0263
 5145W        W 8889   5.662   1.032   9.747 -0.1254  0.2368 -0.3383
 5146W        W 8890   5.394   9.248   4.422  0.0616  0.1048  0.0608
 5147W        W 8891   6.242   9.693   9.490 -0.1922 -0.1286 -0.0425
 5148W        W 8892   5.933   7.875  12.010  0.3894 -0.0541  0.3811
 5149W        W 8893   6.411   2.254   3.740 -0.1777 -0.1165 -0.0523
 5150W        W 8894   5.702   6.766   1.128  0.1429 -0.3258 -0.1320
 5151W        W 8895   0.327   3.513   2.748  0.2484  0.2271 -0.2426
 5152W        W 8896   1.410   3.113  10.907 -0.1666 -0.0964  0.1652
 5153W        W 8897   0.450   7.018   0.933 -0.1935 -0.1927 -0.3650
 5154W        W 8898   1.026   3.526  12.426 -0.1526 -0.1544  0.1094
 5155W        W 8899   3.043   5.829  12.747  0.1020  0.0091  0.1911
 5156W        W 8900   6.215   7.995  11.149  0.0904  0.1196 -0.4693
 5157W        W 8901   9.674   5.826  12.452  0.2215 -0.1435 -0.2727
 5158W        W 8902   1.427   9.879   1.185  0.0527  0.1400 -0.0134
 5159W        W 8903   6.848   6.967   4.823  0.1123  0.0144  0.2516
 5160W        W 8904   9.310   5.148  11.215  0.0145  0.0169 -0.0450
 5161W        W 8905   1.428   4.254   2.706 -0.0111 -0.3978 -0.3184
 5162W        W 8906   8.924   5.056   9.346  0.0321  0.0277  0.2677
 5163W        W 8907   4.103   5.184   4.991 -0.0832 -0.2386  0.1938
 5164W        W 8908   4.501   0.135   1.026  0.0238 -0.1531 -0.2088
 5165W        W 8909   4.359   4.131  10.771  0.0078 -0.1923 -0.2155
 5166W        W 8910   4.975   7.744   9.816  0.1623 -0.1431 -0.0336
 5167W        W 8911   0.245   6.423   1.471  0.5241 -0.0797 -0.1667
 5168W        W 8912   1.403   6.687   0.668  0.1637 -0.2843  0.0654
 5169W        W 8913   8.674   6.676   3.209  0.0996 -0.1956 -0.0621
 5170W        W 8914   8.255   2.852   1.365 -0.2055  0.0465 -0.2212
 5171W        W 8915   7.341   6.211  11.228  0.1041 -0.1192  0.3451
 5172W        W 8916   9.393   2.139   3.168  0.0524 -0.1069 -0.1406
 5173W        W 8917   9.530   8.220  10.520  0.0532  0.4078 -0.3068
 5174W        W 8918   4.313   3.775   2.900  0.0393 -0.1282  0.0715
 5175W        W 8919   5.796   3.417   9.479  0.4212 -0.0629  0.2096
 5176W        W 8920   7.699   0.581  11.519 -0.1234  0.1722  0.2035
 5177W        W 8921   5.813   5.627   8.960 -0.0634 -0.2890 -0.1037
 5178W        W 8922   0.308   8.274   9.278  0.1637 -0.0061  0.1214
 5179W        W 8923   2.105   0.060   1.725 -0.1260  0.0883  0.0368
 5180W        W 8924   3.159   5.460  10.589 -0.1736  0.2296  0.2280
 5181W        W 8925   8.610   8.672  10.784  0.0930  0.3708 -0.0668
 5182W        W 8926   1.300   3.777  11.221 -0.1299 -0.0844  0.0178
 5183W        W 8927   2.978   3.453   1.751  0.0027  0.2069  0.0904
 5184W        W 8928   4.356   2.677   3.317  0.2474 -0.1576 -0.0363
 5185W        W 8929   8.125   6.332  11.850  0.2440 -0.1669  0.2856
 5186W        W 8930   5.062   9.131   8.954  0.1465 -0.1913  0.0035
 5187W        W 8931   5.034   3.919   9.590 -0.1646 -0.2950  0.0722
 5188W        W 8932   1.091   5.590   1.608 -0.0366  0.0647 -0.1218
 5189W        W 8933   4.970   4.371   3.556  0.0152  0.0783  0.0461
 5190W        W 8934   8.825   6.231   9.243 -0.0599 -0.0261 -0.2500
 5191W        W 8935   2.112   5.593  10.706  0.1114  0.2095  0.1117
 5192W        W 8936   0.457   5.228   3.186  0.0386 -0.1965 -0.2283
 5193W        W 8937   7.929   7.161   0.668  0.0883  0.2126 -0.0473
 5194W        W 8938   6.457   9.179  10.029  0.3194  0.1546  0.1958
 5195W        W 8939   4.108   9.685  11.709  0.1246 -0.0965  0.1126
 5196W        W 8940   3.528   2.864   1.374  0.0970  0.2864  0.1245
 5197W        W 8941   9.094   5.205   3.000  0.2613 -0.2126  0.1199
 5198W        W 8942   3.502   8.152   2.875  0.3283  0.3233  0.0561
 5199W        W 8943   0.109   9.485  12.454  0.1029 -0.2123 -0.1079
 5200W        W 8944   5.232   9.168  10.138 -0.2399  0.0898  0.0342
 5201W        W 8945   5.129   4.425  11.211 -0.1088 -0.3283 -0.2807
 5202W        W 8946   2.532   9.885  10.186  0.1556 -0.1780 -0.1784
 5203W        W 8947   8.343   5.834   9.173 -0.2866  0.0574  0.3197
 5204W        W 8948   4.165   1.593   1.553  0.3644 -0.0238  0.0796
 5205W        W 8949   6.448   4.488  12.797 -0.1385 -0.4258 -0.1199
 5206W        W 8950   5.377   6.544  12.659  0.1523 -0.3276  0.0786
 5207W        W 8951   7.202   8.289  10.769 -0.1856 -0.2415 -0.3542
 5208W        W 8952   5.051   3.583   0.976  0.0519 -0.0967 -0.1218
 5209W        W 8953   2.879   5.430   2.751  0.1780 -0.0367  0.0494
 5210W        W 8954   5.429   3.101  11.729 -0.4366  0.2122  0.1930
 5211W        W 8955   2.802   0.820   3.863 -0.2194  0.0684  0.1126
 5212W        W 8956   9.256   0.199   2.164 -0.0587  0.1972 -0.0114
 5213W        W 8957   7.756   2.218   8.881 -0.2413  0.0903  0.0067
 5214W        W 8958   0.662   5.924   9.095 -0.1823  0.0676 -0.1909
 5215W        W 8959   1.826   2.688   1.001 -0.0342 -0.1492 -0.2450
 5216W        W 8960   2.361   7.273   4.837  0.0951 -0.1355  0.1368
 5217W        W 8961   8.867   4.884   3.272  0.2104 -0.5197  0.0829
 5218W        W 8962   5.704   7.520   0.817  0.2568  0.0247  0.2251
 5219W        W 8963   3.811   2.225  10.539 -0.2604 -0.1430  0.0283
 5220W        W 8964   7.557   3.223   9.693  0.0234 -0.1437  0.1269
 5221W        W 8965   9.202   8.517   4.327 -0.2085 -0.0365  0.0746
 5222W        W 8966   5.212   1.156   1.001  0.0256 -0.1350 -0.0968
 5223W        W 8967   6.656   0.386  11.961  0.1337 -0.0615  0.0265
 5224W        W 8968   3.932   1.140  10.571  0.0647 -0.2650 -0.0118
 5225W        W 8969   4.884   6.874   4.561  0.2813 -0.0502  0.3596
 5226W        W 8970   2.703   7.923   0.430 -0.2621  0.2853 -0.0064
 5227W        W 8971   6.836   8.764   9.849  0.2161 -0.0907 -0.0279
 5228W        W 8972   5.288   9.819  11.038  0.0551 -0.2260  0.3730
 5229W        W 8973   3.512   1.590  11.287 -0.0009 -0.0094  0.0452
 5230W        W 8974   6.992   4.976   8.183 -0.2575  0.0946 -0.0407
 5231W        W 8975   1.658   7.801   1.020  0.1877  0.2189  0.2031
 5232W        W 8976   6.102   6.239   2.206  0.0043  0.0100  0.1286
 5233W        W 8977   9.593   4.006   3.792 -0.0016  0.0334  0.0477
 5234W        W 8978   2.126   0.867   8.582  0.0002 -0.2817  0.1674
 5235W        W 8979   3.174   0.591   0.528 -0.0980 -0.1847 -0.0211
 5236W        W 8980   1.532   9.350   3.002  0.0706  0.2014 -0.0168
 5237W        W 8981   6.628   0.628   4.603  0.2399  0.5181 -0.1328
 5238W        W 8982   2.167   3.259  11.467 -0.0955 -0.0405 -0.0779
 5239W        W 8983   2.557   8.103  10.954 -0.1833 -0.0183  0.0053
 5240W        W 8984   8.793   7.309   4.776 -0.1462  0.1421 -0.1793
 5241W        W 8985   5.155   7.139   1.023 -0.1220  0.5262 -0.0685
 5242W        W 8986   2.578   3.263  11.832 -0.2149 -0.1009  0.1602
 5243W        W 8987   3.619   5.057   1.739  0.0695 -0.0292  0.2712
 5244W        W 8988   5.625   6.897   2.932 -0.1081  0.2440  0.1156
 5245W        W 8989   5.246   2.899  12.719 -0.0362  0.0187 -0.2310
 5246W        W 8990   5.409   0.645   8.977  0.1035  0.1849 -0.1046
 5247W        W 8991   2.665   0.731   0.276  0.0031 -0.4687  0.1018
 5248W        W 8992   4.686   9.060   3.069  0.1560  0.0608 -0.1860
 5249W        W 8993   2.482   2.165   0.965  0.1394 -0.0853 -0.0714
 5250W        W 8994   9.934   3.673  12.456 -0.1111 -0.0426  0.1582
 5251W        W 8995   2.908   4.053   2.569 -0.0480  0.0720  0.0283
 5252W        W 8996   1.288   9.231   8.759  0.1338  0.4595 -0.2544
 5253W        W 8997   0.706   5.527  12.370 -0.0758 -0.0742  0.1695
 5254W        W 8998   0.460   7.216   8.823  0.1476  0.0751  0.0939
 5255W        W 8999   2.157   9.071   2.645 -0.3761  0.1017  0.0985
 5256W        W 9000   8.609   0.512   3.402 -0.1337  0.3047 -0.1366
 5257W        W 9001   7.462   4.844  11.291  0.0047 -0.1049 -0.0220
 5258W        W 9002   4.776   3.994  12.067 -0.2589 -0.4111  0.2521
 5259W        W 9003   0.156   0.766  10.020  0.1291  0.2693  0.0111
 5260W        W 9004   7.156   5.478   1.387  0.1891 -0.0588 -0.2292
 5261W        W 9005   7.339   7.938  10.427  0.0471 -0.0300 -0.1993
 5262W        W 9006   3.009   7.972   4.571  0.1685 -0.1286 -0.3967
 5263W        W 9007   9.791   6.207   3.645 -0.1148  0.1383 -0.2798
 5264W        W 9008   9.582   7.956   9.733  0.3579 -0.1448 -0.0051
 5265W        W 9009   0.555   4.384   1.247 -0.1761  0.1274 -0.3062
 5266W        W 9010   7.825   9.736   2.649  0.0110  0.1621 -0.0170
 5267W        W 9011   8.354   4.066   1.944  0.1281  0.0358 -0.2267
 5268W        W 9012   9.803   1.374   1.640  0.0398  0.1479 -0.2329
 5269W        W 9013   3.152   6.075   1.678  0.0738 -0.1187 -0.0425
 5270W        W 9014   0.717   8.621   4.296  0.0257  0.1508  0.1592
 5271W        W 9015   1.745   8.183   9.558  0.3785  0.1224 -0.3913
 5272W        W 9016   6.622   7.011  12.012 -0.0441 -0.1243  0.1214
 5273W        W 9017   5.285   2.675   4.384 -0.1731 -0.0610 -0.1062
 5274W        W 9018   4.890   1.108   1.814 -0.0600  0.0565  0.1682
 5275W        W 9019   6.118   0.892   2.048  0.1037 -0.0850 -0.2071
 5276W        W 9020   9.475   6.235   4.219  0.1335  0.4672 -0.1682
 5277W        W 9021   2.311   7.176   3.068 -0.0293 -0.0263  0.1676
 5278W        W 9022   9.922   0.469  11.258 -0.1064  0.2740  0.1654
 5279W        W 9023   7.469   5.252   9.567  0.4388  0.1336 -0.0539
 5280W        W 9024   7.496   6.973   0.793 -0.1101 -0.2292 -0.1229
 5281W        W 9025   1.802   3.649  12.532  0.0234 -0.2006  0.0291
 5282W        W 9026   6.899   0.138   9.646 -0.4189  0.4876 -0.3621
 5283W        W 9027   9.723   7.604  10.086 -0.1400 -0.0050 -0.0132
 5284W        W 9028   3.284   8.711   1.979 -0.3152 -0.0561  0.0589
 5285W        W 9029   2.567   1.220   1.078  0.1813 -0.0180  0.2127
 5286W        W 9030   4.476   8.847   3.716  0.0547  0.2319  0.1799
 5287W        W 9031   1.880   1.870  11.703  0.1223 -0.1239 -0.0239
 5288W        W 9032   7.632   8.695   3.575 -0.2979  0.2800 -0.2193
 5289W        W 9033   2.078   9.544   2.852  0.1068  0.1693 -0.0212
 5290W        W 9034   7.878   4.114   2.258  0.0611 -0.1607 -0.0945
 5291W        W 9035   5.234   0.745   9.952  0.2420  0.1217  0.0689
 5292W        W 9036   4.036   3.306  10.450  0.1001 -0.2367 -0.0631
 5293W        W 9037   4.050   3.666   9.785  0.1234  0.0243  0.0015
 5294W        W 9038   7.071   7.802   8.903 -0.0806 -0.0307  0.1228
 5295W        W 9039   4.854   7.789   3.511  0.3957 -0.0116 -0.0173
 5296W        W 9040   0.683   5.555   2.729  0.0465 -0.0848 -0.0989
 5297W        W 9041   9.311   3.290  10.301  0.2798 -0.2666  0.2556
 5298W        W 9042   9.326   6.976   8.740  0.1090  0.2919  0.2385
 5299W        W 9043   2.505   4.109  10.949 -0.0606  0.1715  0.0086
 5300W        W 9044   5.573   4.879   0.935 -0.0424 -0.0728 -0.1741
 5301W        W 9045   0.709   5.039   2.692 -0.3006 -0.3135  0.0112
 5302W        W 9046   5.006   9.021  11.458  0.0250  0.2084  0.1687
 5303W        W 9047   7.677   5.445   0.554  0.1013  0.1103  0.1549
 5304W        W 9048   2.960   8.789   0.340 -0.1317 -0.1655 -0.2987
 5305W        W 9049   7.766   5.404   0.058  0.1627 -0.0761  0.0602
 5306W        W 9050   8.309   2.620  12.203 -0.2167  0.2518  0.0817
 5307W        W 9051   5.039   0.067   0.266 -0.0828 -0.1469  0.2050
 5308W        W 9052   5.984   6.319   1.736  0.1053  0.0981 -0.1547
 5309W        W 9053   1.239   7.737   9.021 -0.0653 -0.3969 -0.1704
 5310W        W 9054   3.773   0.836   3.938  0.0114 -0.2376  0.2301
 5311W        W 9055   5.044   0.256   7.744  0.1820 -0.2560 -0.1829
 5312W        W 9056   1.347   5.344   9.367  0.1122 -0.4803  0.2264
 5313W        W 9057   2.476   2.976   9.796  0.2033  0.1476  0.0484
 5314W        W 9058   9.045   5.525   0.576  0.0422 -0.1942  0.1736
 5315W        W 9059   9.848   5.031  11.626  0.0507 -0.1687 -0.1804
 5316W        W 9060   5.900   3.447  10.772  0.1447 -0.0362  0.0943
 5317W        W 9061   3.515   4.826  11.698 -0.1567 -0.3073 -0.1036
 5318W        W 9062   4.482   3.582   0.806 -0.3611 -0.0857  0.3861
 5319W        W 9063   5.465   3.610  11.607  0.2805  0.0340  0.3809
 5320W        W 9064   6.910   3.583   1.934  0.0055  0.2244 -0.1214
 5321W        W 9065   1.026   6.687  11.593  0.0523 -0.0193 -0.2779
 5322W        W 9066   6.321   1.702   2.626  0.3057  0.0434  0.0349
 5323W        W 9067   6.666   0.339   2.648  0.0222  0.1464 -0.0823
 5324W        W 9068   9.099   6.857   0.435 -0.0190  0.0569  0.0625
 5325W        W 9069   7.775   6.708   3.156 -0.6833  0.0839  0.3086
 5326W        W 9070   7.368   9.839   8.649 -0.0410 -0.2501  0.1344
 5327W        W 9071   6.004   1.063   3.836 -0.0282  0.1906 -0.0692
 5328W        W 9072   0.453   9.611  11.374  0.1208  0.1050  0.1168
 5329W        W 9073   8.467   4.905   1.110  0.1509 -0.0300 -0.2084
 5330W        W 9074   9.317   9.695  10.469  0.1955 -0.1230  0.1330
 5331W        W 9075   2.650   8.077   8.902  0.1848  0.0223  0.2166
 5332W        W 9076   3.029   7.906  12.772 -0.1444 -0.0053 -0.0779
 5333W        W 9077   5.514   7.094   3.413  0.0817  0.1544 -0.2142
 5334W        W 9078   5.930   0.217  12.221  0.0336  0.3113 -0.0609
 5335W        W 9079   4.604   2.764  10.645 -0.0003 -0.0265  0.0625
 5336W        W 9080   1.457   6.133   4.159 -0.0965  0.2738  0.3555
 5337W        W 9081   5.832   8.446   0.297 -0.1698  0.1718  0.1040
 5338W        W 9082   1.979   7.448   3.776  0.1833  0.0357  0.0027
 5339W        W 9083   6.454   5.091  10.545 -0.0024 -0.2304 -0.0295
 5340W        W 9084   9.457   2.517   0.869 -0.3865 -0.0263 -0.1008
 5341W        W 9085   4.159   3.421  11.271  0.0854  0.0224  0.2195
 5342W        W 9086   3.756   5.197   2.329 -0.2591 -0.0598 -0.0343
 5343W        W 9087   8.354   4.953  11.309  0.2026 -0.3074 -0.0079
 5344W        W 9088   9.806   1.489  12.096 -0.1686  0.1630 -0.0777
 5345W        W 9089   0.281   8.744   9.499 -0.1577 -0.0981  0.0456
 5346W        W 9090   8.949   1.133   1.705  0.4330  0.1590 -0.3249
 5347W        W 9091   7.246   5.531  10.506  0.2540 -0.0150  0.1756
 5348W        W 9092   7.435   2.268   0.990  0.2377 -0.0717  0.1296
 5349W        W 9093   7.120   2.919   9.581 -0.0311  0.0946 -0.2642
 5350W        W 9094   4.874   5.331   1.237 -0.0543 -0.1497 -0.0527
 5351W        W 9095   6.623   7.233   8.896 -0.2064 -0.0846  0.0688
 5352W        W 9096   5.636   4.827   2.101  0.0280  0.0230 -0.2154
 5353W        W 9097   3.495   4.619  12.775 -0.1805 -0.0798 -0.1287
 5354W        W 9098   5.838   3.687   2.152  0.0369  0.4439  0.0301
 5355W        W 9099   9.729   3.313   2.065 -0.0441 -0.2044 -0.1495
 5356W        W 9100   6.191   6.379   9.616 -0.1786 -0.0180  0.1392
 5357W        W 9101   4.028   5.807   1.465 -0.1204  0.0476 -0.0712
 5358W        W 9102   4.632   1.467  11.665 -0.0012  0.0346 -0.1159
 5359W        W 9103   4.972   1.347   8.866  0.1693  0.2570 -0.1501
 5360W        W 9104   9.365   4.821   2.840 -0.0209 -0.0949  0.1703
 5361W        W 9105   0.067   9.005  10.118 -0.0854 -0.2084 -0.1910
 5362W        W 9106   9.596   6.007   0.990 -0.0573  0.0890  0.0594
 5363W        W 9107   8.188   8.706  11.654  0.0509  0.0836  0.1018
 5364W        W 9108   0.351   5.300  10.073  0.0014 -0.0217 -0.1597
 5365W        W 9109   5.437   6.195  10.786  0.0365  0.0509  0.1363
 5366W        W 9110   6.999   0.030   1.011  0.0735 -0.1165  0.2294
 5367W        W 9111   2.658   8.137   4.855 -0.2397 -0.1185 -0.0025
 5368W        W 9112   0.026   6.259  10.413  0.0122  0.2911  0.1668
 5369W        W 9113   7.161   8.384  11.818  0.2263 -0.0688  0.3881
 5370W        W 9114   9.729   2.421   2.874 -0.1605 -0.2444 -0.0887
 5371W        W 9115   7.652   7.349   3.267 -0.3351 -0.0527  0.1264
 5372W        W 9116   9.571   5.616   9.323 -0.2897 -0.2540  0.0135
 5373W        W 9117   8.890   7.341  10.202 -0.1050 -0.1855 -0.0812
 5374W        W 9118   1.133   7.485   0.029  0.1695  0.5831 -0.0645
 5375W        W 9119   8.815   8.139  12.312 -0.2793  0.3387  0.0398
 5376W        W 9120   5.439   5.358  10.982 -0.0074  0.2439 -0.0937
 5377W        W 9121   1.954   8.506   2.229 -0.0917  0.0143 -0.3495
 5378W        W 9122   8.357   1.976  12.683 -0.2848  0.2958  0.1816
 5379W        W 9123   8.353   1.394   2.618 -0.1470  0.1360 -0.0077
 5380W        W 9124   9.887   6.637  12.307  0.1617 -0.1918 -0.1405
 5381W        W 9125   6.771   9.226   2.013 -0.1151 -0.1687  0.0899
 5382W        W 9126   0.757   3.217  12.172  0.0929  0.1799 -0.2551
 5383W        W 9127   5.053   4.412  11.756 -0.1924  0.2915 -0.3026
 5384W        W 9128   9.318   3.460   3.313  0.0192  0.1756  0.0248
 5385W        W 9129   5.554   7.146   1.492  0.1155 -0.0874 -0.0106
 5386W        W 9130   6.710   3.833  10.693 -0.0407  0.0013  0.0300
 5387W        W 9131   9.167   8.507   3.625 -0.1992 -0.0826  0.1301
 5388W        W 9132   1.514   6.366   3.292  0.0228 -0.1109  0.1339
 5389W        W 9133   3.540   5.116  10.840  0.1252 -0.0534 -0.0958
 5390W        W 9134   7.911   8.836   2.283 -0.3684 -0.0182 -0.4108
 5391W        W 9135   3.033   3.778   1.011 -0.0553 -0.1441 -0.0402
 5392W        W 9136   4.694   6.937  11.438  0.2834  0.1599 -0.2998
 5393W        W 9137   2.061   6.323  10.031  0.1622 -0.2495 -0.1037
 5394W        W 9138   3.711   9.629  10.773 -0.0350  0.0549 -0.2105
 5395W        W 9139   1.047   0.946  10.576  0.2360  0.3000  0.0264
 5396W        W 9140   5.276   4.172   1.656  0.2973 -0.0631 -0.1589
 5397W        W 9141   1.005   9.666   1.034 -0.0127 -0.2390 -0.0974
 5398W        W 9142   4.853   6.058   1.925  0.1497 -0.1925 -0.0332
 5399W        W 9143   8.067   1.249   0.111  0.0063 -0.3321 -0.0611
 5400W        W 9144   6.104   8.299  11.626  0.0202  0.3692  0.1406
 5401W        W 9145   7.152   6.841  10.605  0.0342  0.1674  0.0013
 5402W        W 9146   2.646   4.696   1.354 -0.1778  0.0094 -0.1667
 5403W        W 9147   5.029   3.442   4.111 -0.0097  0.5130  0.2107
 5404W        W 9148   4.074   9.415   1.818 -0.1202 -0.1321 -0.1185
 5405W        W 9149   0.427   8.745  10.515 -0.0065  0.0721  0.1713
 5406W        W 9150   1.745   8.389   9.995  0.3111  0.3125  0.1359
 5407W        W 9151   9.533   2.937  12.776 -0.2469 -0.2809  0.4173
 5408W        W 9152   6.918   9.020   0.256 -0.1418  0.2282 -0.0303
 5409W        W 9153   9.863   4.726   2.993 -0.0084  0.1206  0.1755
 5410W        W 9154   4.919   2.486   7.703 -0.2781 -0.1730  0.0738
 5411W        W 9155   0.217   5.002   8.799 -0.2950  0.1085  0.0233
 5412W        W 9156   6.184   0.137   2.452 -0.0591  0.0513  0.1780
 5413W        W 9157   0.671   8.438   2.855 -0.2723  0.1333 -0.0319
 5414W        W 9158   6.453   0.287   9.442 -0.1061 -0.1317  0.3580
 5415W        W 9159   9.731   6.568   3.990 -0.3078  0.0271 -0.1337
 5416W        W 9160   7.124   4.846   9.238  0.0805  0.2120 -0.0632
 5417W        W 9161   1.104   9.022   3.783  0.1808 -0.0988  0.2937
 5418W        W 9162   5.318   5.139   0.369 -0.0812 -0.0727  0.2987
 5419W        W 9163   5.877   5.325   0.956 -0.0045  0.0859  0.0165
 5420W        W 9164   8.834   5.964   2.701 -0.0511  0.1122 -0.1341
 5421W        W 9165   5.526   3.911  10.786 -0.1292  0.2538 -0.1710
 5422W        W 9166   2.316   5.455  12.155  0.0245  0.0288 -0.2250
 5423W        W 9167   2.896   7.939   4.061 -0.0728  0.2356 -0.1885
 5424W        W 9168   7.036   1.845   3.100  0.1028 -0.0348 -0.0991
 5425W        W 9169   4.611   8.109   1.459 -0.0623  0.2476  0.0294
 5426W        W 9170   7.529   3.154  10.438 -0.4941 -0.1275 -0.1206
 5427W        W 9171   8.537   1.628  10.390  0.0214  0.0729  0.2198
 5428W        W 9172   5.065   4.324   4.750  0.2826  0.0757  0.1640
 5429W        W 9173   1.646   7.470   0.068 -0.1965  0.2716  0.0584
 5430W        W 9174   2.209   6.182   1.046 -0.0691  0.0232  0.2538
 5431W        W 9175   4.937   6.168   3.561  0.1635 -0.1152 -0.0191
 5432W        W 9176   6.136   0.407   1.067 -0.0404 -0.1333 -0.0377
 5433W        W 9177   3.005   6.730   1.252 -0.0775 -0.0803 -0.3445
 5434W        W 9178   0.785   6.942   9.442  0.1227  0.4431 -0.0629
 5435W        W 9179   7.836   8.631   4.034 -0.3281 -0.1014  0.0961
 5436W        W 9180   7.021   7.896  12.068  0.2422 -0.2136  0.1080
 5437W        W 9181   1.623   9.048   2.516 -0.2031 -0.0359  0.1849
 5438W        W 9182   3.671   0.439  11.293  0.1212  0.0343 -0.2502
 5439W        W 9183   0.561   0.003   1.702 -0.2634 -0.0886 -0.2599
 5440W        W 9184   4.398   6.042   0.401  0.1211 -0.0088  0.1232
 5441W        W 9185   6.337   1.493   8.717 -0.7163 -0.1751 -0.2287
 5442W        W 9186   6.621   8.403   2.928 -0.0834  0.0561 -0.2264
 5443W        W 9187   8.532   4.068   0.714  0.1718 -0.0486 -0.1327
 5444W        W 9188   1.885   1.398   9.670 -0.2224 -0.0195 -0.2729
 5445W        W 9189   0.649   0.091  11.731 -0.1212 -0.2485 -0.2839
 5446W        W 9190   2.031   5.497   3.624 -0.1041  0.0563 -0.0875
 5447W        W 9191   4.699   6.225   1.397  0.1428  0.1328  0.4198
 5448W        W 9192   6.200   2.512   3.317 -0.0853 -0.0727  0.1019
 5449W        W 9193   7.281   5.080   0.993 -0.2417  0.1025  0.0229
 5450W        W 9194   4.208   7.790   1.480  0.1148 -0.1799 -0.0557
 5451W        W 9195   1.749   6.313   3.783  0.2930 -0.2197  0.4153
 5452W        W 9196   9.469   4.993  10.334 -0.4098  0.0937 -0.3293
 5453W        W 9197   6.124   5.317   9.138 -0.1094  0.4944  0.0943
 5454W        W 9198   2.217   4.786   1.710 -0.0308 -0.0001  0.3414
 5455W        W 9199   9.441   7.422  10.452 -0.0762 -0.0638 -0.1498
 5456W        W 9200   7.286   7.781   3.270  0.0267 -0.1663  0.2662
 5457W        W 9201   6.126   3.177   8.973  0.1371  0.4832  0.2315
 5458W        W 9202   3.618   0.675   1.934 -0.1358 -0.0446 -0.0018
 5459W        W 9203   1.498   6.784   3.612 -0.3480  0.1827 -0.1109
 5460W        W 9204   9.929   1.437   2.650  0.0902  0.2141 -0.0360
 5461W        W 9205   2.238   0.563   9.326 -0.3964  0.0601  0.1555
 5462W        W 9206   2.599   6.262   9.591 -0.2956 -0.0250  0.1498
 5463W        W 9207   9.766   5.332   3.773  0.1298 -0.1633  0.0100
 5464W        W 9208   3.619   9.300   9.471 -0.0280 -0.1258  0.1875
 5465W        W 9209   0.341   1.066   0.522  0.0794 -0.0984  0.1592
 5466W        W 9210   8.566   9.263   2.885 -0.0117  0.0293  0.2090
 5467W        W 9211   2.694   1.399  10.750 -0.0705  0.0796  0.0597
 5468W        W 9212   6.453   7.617   3.629 -0.3665 -0.2480  0.1311
 5469W        W 9213   9.133   8.611  10.157 -0.3197  0.0291 -0.2517
 5470W        W 9214   5.975   2.145  11.952 -0.0003 -0.1151 -0.0671
 5471W        W 9215   9.644   8.735   3.402 -0.2248 -0.0265 -0.1531
 5472W        W 9216   5.518   3.255   2.032  0.1441  0.1861  0.1127
 5473W        W 9217   5.672   3.316   4.896  0.0931  0.2429  0.0686
 5474W        W 9218   7.513   0.413   4.655 -0.0753 -0.0678  0.1565
 5475W        W 9219   3.981   9.828   7.930 -0.0674  0.2610 -0.0113
 5476W        W 9220   3.630   9.206   8.825  0.3411  0.2847  0.0594
 5477W        W 9221   2.091   0.562   4.345 -0.0452  0.1292 -0.2058
 5478W        W 9222   8.959   4.369   3.430 -0.0327  0.1443  0.3714
 5479W        W 9223   2.786   1.997  12.210  0.3561 -0.2091 -0.0673
 5480W        W 9224   6.570   1.249   2.067 -0.0551 -0.0877  0.2015
 5481W        W 9225   7.299   9.368   0.297  0.1255 -0.2012 -0.2368
 5482W        W 9226   5.296   6.281   3.874 -0.1208 -0.2585 -0.0340
 5483W        W 9227   3.421   1.861  11.710 -0.1510 -0.0526  0.1164
 5484W        W 9228   3.492   9.495   9.916  0.1271 -0.0794  0.1206
 5485W        W 9229   7.261   8.216   0.718  0.0753  0.4857  0.1482
 5486W        W 9230   0.425   1.833   1.043 -0.1901  0.0958  0.1698
 5487W        W 9231   5.977   8.506   4.306  0.0490 -0.4495 -0.3302
 5488W        W 9232   6.975   0.758  12.079  0.2379  0.0056 -0.2304
 5489W        W 9233   0.830   9.724   3.412 -0.0285  0.3122  0.0276
 5490W        W 9234   4.296   6.624   2.999  0.0598 -0.0466  0.1349
 5491W        W 9235   8.890   6.311  11.818  0.2612 -0.2146 -0.1336
 5492W        W 9236   4.399   0.067  11.982 -0.1840  0.0933  0.4318
 5493W        W 9237   5.079   6.073   2.520  0.0579 -0.1726  0.0840
 5494W        W 9238   9.661   7.477  11.300 -0.0243  0.1716  0.2120
 5495W        W 9239   6.914   1.507   3.465  0.1817 -0.0281 -0.0284
 5496W        W 9240   5.745   0.089  10.918  0.0317  0.0139  0.1371
 5497W        W 9241   3.860   2.874   8.963 -0.1827 -0.1290 -0.1154
 5498W        W 9242   5.870   3.431   3.423  0.1183  0.0197 -0.0639
 5499W        W 9243   6.935   0.051   9.194 -0.3967 -0.0445  0.0791
 5500W        W 9244   5.276   5.562   9.953  0.0422  0.0270  0.0689
 5501W        W 9245   6.584   5.113   3.290 -0.2847 -0.5187  0.1063
 5502W        W 9246   9.744   0.515   1.030 -0.1067 -0.0499  0.0733
 5503W        W 9247   3.790   3.389  12.782 -0.0788  0.2147  0.1257
 5504W        W 9248   2.589   4.362   4.792  0.3318 -0.3620  0.3651
 5505W        W 9249   3.392   9.303   2.363  0.0722 -0.1351 -0.0039
 5506W        W 9250   8.865   6.992  12.465  0.0392  0.0180 -0.0495
 5507W        W 9251   7.392   4.891   2.199  0.1561 -0.0745 -0.1696
 5508W        W 9252   7.694   6.642   4.090  0.2138 -0.1115 -0.1874
 5509W        W 9253   4.901   6.740   1.181  0.0015  0.0453  0.1133
 5510W        W 9254   4.699   3.543   8.064  0.0316  0.0255 -0.1800
 5511W        W 9255   0.938   7.745   2.147  0.0782 -0.1023 -0.2052
 5512W        W 9256   6.628   1.086  10.062 -0.0839  0.0862 -0.0132
 5513W        W 9257   5.022   2.541  10.566 -0.3332  0.1127 -0.0291
 5514W        W 9258   8.144   3.517  12.829 -0.0538 -0.0734  0.1067
 5515W        W 9259   6.701   7.482   2.694  0.0910 -0.1471 -0.1281
 5516W        W 9260   1.208   9.241   0.834 -0.4142 -0.1663 -0.3171
 5517W        W 9261   5.753   7.536   0.269  0.3621  0.0591 -0.0793
 5518W        W 9262   1.035   3.287   1.886 -0.0872  0.0521  0.4471
 5519W        W 9263   9.251   5.676  11.290  0.1660  0.0348  0.0090
 5520W        W 9264   3.516   0.133   8.983  0.0698 -0.0046 -0.0960
 5521W        W 9265   1.096   6.230   1.973  0.0384 -0.0718  0.0831
 5522W        W 9266   3.124   9.039   3.319  0.2523  0.0004 -0.0053
 5523W        W 9267   9.409   1.772  11.098 -0.1065  0.1627 -0.0609
 5524W        W 9268   0.300   8.912   4.310 -0.2077 -0.0057  0.1729
 5525W        W 9269   8.062   7.689   2.413  0.0317 -0.1524  0.1899
 5526W        W 9270   2.715   9.388   8.683 -0.0538  0.1667 -0.0971
 5527W        W 9271   7.052   2.184  10.228  0.0650 -0.0980 -0.2098
 5528W        W 9272   1.199   8.010   7.926 -0.1249  0.0524 -0.0985
 5529W        W 9273   6.678   3.122  12.574 -0.2376  0.0166  0.0555
 5530W        W 9274   2.619   5.801  12.318 -0.3005  0.0329 -0.2089
 5531W        W 9275   5.235   1.888  12.239 -0.1602 -0.1531  0.1559
 5532W        W 9276   3.442   0.188   0.640  0.1653  0.0000 -0.0308
 5533W        W 9277   7.152   1.358  10.426  0.2181 -0.1455  0.1418
 5534W        W 9278   5.852   1.888   2.230  0.3244  0.0950 -0.2265
 5535W        W 9279   3.607   4.332  10.270  0.0036  0.4135 -0.6059
 5536W        W 9280   3.588   5.155   3.569 -0.0134 -0.0423 -0.0937
 5537W        W 9281   5.154   0.948   8.628 -0.2268 -0.0744  0.1782
 5538W        W 9282   6.374   9.533   1.913 -0.0260  0.1774 -0.1129
 5539W        W 9283   8.538   1.790   2.890 -0.1457 -0.0519 -0.0537
 5540W        W 9284   5.358   5.906   0.004 -0.4558 -0.1488  0.1073
 5541W        W 9285   7.586   4.341   3.551 -0.1802  0.2174 -0.0840
 5542W        W 9286   3.098   6.761   3.380 -0.0658  0.0132  0.2135
 5543W        W 9287   2.885   9.088  10.577  0.3387  0.0922 -0.2124
 5544W        W 9288   1.449   9.428  10.837  0.1877  0.0719 -0.2493
 5545W        W 9289   0.398   4.012   1.672 -0.0289 -0.0779  0.0215
 5546W        W 9290   7.268   4.982   4.866 -0.0442 -0.3076  0.1555
 5547W        W 9291   1.601   3.058  11.871 -0.0737  0.1036  0.1878
 5548W        W 9292   1.128   9.505   3.784  0.0920  0.1441  0.1642
 5549W        W 9293   2.195   2.080  10.925  0.0757  0.2594 -0.0817
 5550W        W 9294   9.562   8.211   0.876  0.0664  0.2702  0.1027
 5551W        W 9295   4.030   7.487  12.460  0.0368 -0.0640 -0.2040
 5552W        W 9296   3.431   8.088   1.836 -0.1968 -0.0859  0.1068
 5553W        W 9297   2.576   0.804   8.973  0.0487 -0.0479  0.0715
 5554W        W 9298   8.594   1.445   3.697 -0.0034  0.0482 -0.0653
 5555W        W 9299   2.069   6.652   0.293 -0.0791  0.0059 -0.1061
 5556W        W 9300   0.799   2.299   1.630  0.0791  0.0134  0.0216
 5557W        W 9301   7.853   1.617   9.384  0.0458  0.1584  0.1396
 5558W        W 9302   8.551   0.684  10.048 -0.0615 -0.2110 -0.1544
 5559W        W 9303   3.600   4.515   2.563 -0.1028  0.1429 -0.2758
 5560W        W 9304   2.755   7.450   3.175 -0.0142  0.1043 -0.1888
 5561W        W 9305   3.337   6.923  12.715  0.0444  0.0632 -0.2547
 5562W        W 9306   8.968   7.988   9.009 -0.2040 -0.0599  0.0591
 5563W        W 9307   5.346   9.567   3.579  0.1065 -0.3128  0.4401
 5564W        W 9308   1.609   0.736  10.479  0.1353  0.2093  0.0449
 5565W        W 9309   4.276   4.140  12.181  0.3416 -0.0919 -0.0903
 5566W        W 9310   1.267   2.268   0.200 -0.0954  0.3953 -0.1292
 5567W        W 9311   4.875   0.315   9.054  0.0385  0.2773 -0.0366
 5568W        W 9312   4.621   9.210   0.770 -0.2068  0.0100 -0.3270
 5569W        W 9313   7.881   5.151   3.291  0.0700 -0.0582 -0.0843
 5570W        W 9314   5.408   5.647   1.550  0.0262 -0.1668 -0.1379
 5571W        W 9315   9.205   1.053   0.396  0.0515  0.1847  0.4581
 5572W        W 9316   1.618   0.462  10.067  0.0961 -0.1690  0.0203
 5573W        W 9317   9.126   5.718   1.766  0.0116  0.0323  0.1840
 5574W        W 9318   5.951   7.548   1.383  0.2509  0.2145  0.0268
 5575W        W 9319   6.004   0.217  10.253  0.0284  0.1346  0.1667
 5576W        W 9320   0.432   7.522   1.313  0.0475  0.1129 -0.1944
 5577W        W 9321   7.508   8.223   3.491 -0.2543  0.0355 -0.0749
 5578W        W 9322   8.746   9.780   3.512  0.3372 -0.0154 -0.2171
 5579W        W 9323   4.183   0.492   0.877 -0.1139 -0.1230  0.2306
 5580W        W 9324   7.776   7.253  11.700  0.3193 -0.2457 -0.1037
 5581W        W 9325   8.004   2.446   2.931 -0.0824 -0.2325  0.2678
 5582W        W 9326   3.273   7.737   3.134  0.2137 -0.1316 -0.2024
 5583W        W 9327   8.262   2.793   4.475  0.0028 -0.0210  0.3229
 5584W        W 9328   4.464   0.712  12.334  0.3367 -0.0238 -0.3569
 5585W        W 9329   9.164   8.738   3.201 -0.0907  0.1343  0.0192
 5586W        W 9330   2.086   4.670  12.756  0.1397  0.1460  0.2037
 5587W        W 9331   3.928   5.622  10.815 -0.0250  0.2729 -0.0171
 5588W        W 9332   8.116   0.832  10.332 -0.0497 -0.0157  0.0890
 5589W        W 9333   2.188   6.577   9.623 -0.1791 -0.1314 -0.2859
 5590W        W 9334   1.070   0.077   3.719 -0.1190  0.0655 -0.1211
 5591W        W 9335   8.107   0.190   9.430 -0.0365 -0.0947 -0.1651
 5592W        W 9336   9.229   1.229   2.256  0.2983 -0.2128  0.2004
 5593W        W 9337   1.342   0.677  11.876  0.1013 -0.0092 -0.0141
 5594W        W 9338   2.359   2.499   4.230 -0.1085  0.2475 -0.0442
 5595W        W 9339   5.261   9.077   2.295  0.0603 -0.0682  0.2057
 5596W        W 9340   3.068   4.752   1.048 -0.1403  0.0556  0.0788
 5597W        W 9341   2.695   3.897   1.719 -0.0453  0.1113 -0.1815
 5598W        W 9342   3.938   1.893  10.085 -0.2762 -0.0677  0.0110
 5599W        W 9343   5.140   5.219   3.066  0.2151 -0.3117  0.1445
 5600W        W 9344   4.193   6.383   2.523 -0.0501  0.0074  0.1575
 5601W        W 9345   7.026   5.233   3.131  0.0544 -0.2074  0.0025
 5602W        W 9346   9.678   0.471   1.568 -0.2704  0.0408  0.2650
 5603W        W 9347   6.535   8.922  10.903 -0.0541 -0.4948  0.3065
 5604W        W 9348   6.458   4.455   8.708  0.0427 -0.1219 -0.1776
 5605W        W 9349   3.403   6.601   1.615  0.1462 -0.1427 -0.2788
 5606W        W 9350   3.232   8.525   1.523 -0.0149  0.0463 -0.0236
 5607W        W 9351   1.017   0.897   1.344  0.0008 -0.3749  0.0493
 5608W        W 9352   9.644   0.624   4.070  0.1786 -0.0894 -0.2195
 5609W        W 9353   3.348   2.887   8.855  0.1387 -0.1101 -0.1400
 5610W        W 9354   4.490   9.274   9.082  0.1689 -0.1568  0.1501
 5611W        W 9355   5.293   7.197  12.066  0.0644 -0.1835  0.2944
 5612W        W 9356   6.393   4.787   2.915 -0.2305  0.1964 -0.1974
 5613W        W 9357   8.080   9.297   9.615 -0.2621 -0.4544 -0.1008
 5614W        W 9358   7.820   2.539   4.194 -0.2125 -0.1457  0.0417
 5615W        W 9359   2.784   6.114   0.738  0.0483 -0.1666  0.0553
 5616W        W 9360   0.642   3.882  11.059  0.0828  0.1907 -0.1092
 5617W        W 9361   1.227   9.001  12.680  0.2610  0.2158  0.1110
 5618W        W 9362   5.098   5.345   2.557 -0.1459 -0.2152  0.2494
 5619W        W 9363   4.909   9.588  10.407 -0.4334  0.2537 -0.1911
 5620W        W 9364   9.207   3.448   3.788  0.2983 -0.0739 -0.0998
 5621W        W 9365   7.908   2.298   0.773  0.0985  0.5386  0.1661
 5622W        W 9366   4.378   7.665  10.668  0.1833 -0.4042 -0.0401
 5623W        W 9367   2.694   9.441  11.654  0.1413  0.0490 -0.0698
 5624W        W 9368   2.313   8.462   9.873 -0.1179  0.3664  0.2418
 5625W        W 9369   4.670   6.970   4.071 -0.0905 -0.2298  0.5928
 5626W        W 9370   2.141   9.126   2.127 -0.4204 -0.3616 -0.0270
 5627W        W 9371   7.662   0.907  10.618 -0.1399  0.0502  0.0783
 5628W        W 9372   7.508   7.010  12.125 -0.3438  0.1666 -0.0932
 5629W        W 9373   3.859   7.194   3.648  0.2649 -0.1542  0.0095
 5630W        W 9374   0.864   4.358   0.746  0.2279  0.2611 -0.0766
 5631W        W 9375   2.583   9.632   9.164  0.0011 -0.0886 -0.1338
 5632W        W 9376   2.723   9.765  12.745 -0.1152  0.0480  0.0687
 5633W        W 9377   2.562   3.760  12.620 -0.2259 -0.2070 -0.1462
 5634W        W 9378   9.378   9.054   1.244 -0.0468  0.3188  0.2735
 5635W        W 9379   0.201   6.377   0.443 -0.0062  0.2224 -0.1603
 5636W        W 9380   6.125   8.318  12.169 -0.0665 -0.2106  0.0513
 5637W        W 9381   3.881   4.130   1.846  0.1764  0.0265  0.3579
 5638W        W 9382   8.829   2.354  11.486  0.2185  0.2682  0.2494
 5639W        W 9383   7.479   5.218   9.065  0.0238 -0.1083 -0.2309
 5640W        W 9384   9.757   2.777   2.139  0.1596  0.0105 -0.1090
 5641W        W 9385   5.773   1.657  10.956 -0.0734 -0.0579 -0.2158
 5642W        W 9386   2.570   6.593   2.105 -0.1098 -0.0205 -0.0856
 5643W        W 9387   2.088   1.292  11.584  0.0743 -0.2342 -0.0125
 5644W        W 9388   2.373   5.859   0.722  0.0792  0.1973 -0.0332
 5645W        W 9389   4.237   8.904   0.820  0.0859  0.1536 -0.3109
 5646W        W 9390   6.413   5.746   4.307  0.1032  0.0145 -0.4258
 5647W        W 9391   9.908   5.892   0.541  0.2762  0.0776  0.1263
 5648W        W 9392   9.863   3.243  10.302  0.0287 -0.1652 -0.1443
 5649W        W 9393   9.496   8.167   3.332  0.1218 -0.0667  0.0555
 5650W        W 9394   6.742   6.803   3.301 -0.1286  0.2222  0.1427
 5651W        W 9395   1.369   2.398  10.711 -0.3443 -0.1561  0.0015
 5652W        W 9396   8.291   1.889   0.703  0.1038  0.0066  0.0564
 5653W        W 9397   7.813   6.722  10.055 -0.0654 -0.2218  0.0467
 5654W        W 9398   6.379   5.377   2.551  0.1929  0.0319  0.0467
 5655W        W 9399   4.487   5.458   4.645 -0.1891  0.1777 -0.1191
 5656W        W 9400   1.798   7.668   1.702  0.5037  0.1116 -0.0649
 5657W        W 9401   0.266   5.855   3.709  0.1264  0.1684  0.0087
 5658W        W 9402   1.376   6.992   8.425 -0.2494  0.0682 -0.2757
 5659W        W 9403   4.274   1.309   1.180 -0.0667 -0.3566  0.2936
 5660W        W 9404   4.158   1.489   0.164  0.2173  0.2175 -0.1649
 5661W        W 9405   1.157   7.286   9.373 -0.3345 -0.2453  0.0371
 5662W        W 9406   1.436   4.393   3.792  0.1786  0.3214 -0.3520
 5663W        W 9407   0.095   9.072   2.335  0.0879 -0.2413 -0.0850
 5664W        W 9408   7.316   7.225   5.142  0.1528  0.0828  0.0094
 5665W        W 9409   1.591   1.838   1.848 -0.1747 -0.1016  0.2133
 5666W        W 9410   2.203   5.383   8.904  0.1215  0.1973  0.1722
 5667W        W 9411   4.114   8.105   1.091  0.0694 -0.2450  0.1409
 5668W        W 9412   6.772   6.938   2.768 -0.0785  0.2892 -0.3061
 5669W        W 9413   8.635   9.725  11.829 -0.3460  0.3221  0.2091
 5670W        W 9414   0.964   5.033   4.463  0.1533  0.3396  0.1193
 5671W        W 9415   4.491   1.210   0.414  0.1401  0.0234 -0.0729
 5672W        W 9416   8.846   1.211   0.055  0.0853  0.0302  0.0136
 5673W        W 9417   9.642   6.861   0.428  0.1058  0.4174  0.0703
 5674W        W 9418   7.296   5.640   3.362  0.1270  0.0979 -0.2667
 5675W        W 9419   0.371   8.622   1.033 -0.1139 -0.1328 -0.2296
 5676W        W 9420   5.464   5.784   8.661 -0.1472 -0.3107  0.3604
 5677W        W 9421   7.217   1.627  10.861 -0.2950  0.1894  0.3319
 5678W        W 9422   7.511   7.134  10.686  0.0527 -0.0840  0.0395
 5679W        W 9423   6.189   1.478   0.740 -0.0512 -0.0796  0.4683
 5680W        W 9424   8.051   7.076   3.233 -0.0757 -0.1939 -0.0671
 5681W        W 9425   0.029   3.227  12.684  0.2725  0.0830 -0.2313
 5682W        W 9426   6.592   7.804   9.079 -0.0305 -0.2419  0.1866
 5683W        W 9427   4.003   5.461   9.719 -0.2135  0.0736  0.2795
 5684W        W 9428   4.852   9.936   9.478 -0.2265  0.3892  0.0328
 5685W        W 9429   6.309   2.758   0.786  0.1657 -0.1711 -0.1462
 5686W        W 9430   3.268   8.667  11.310 -0.0879 -0.0895 -0.0526
 5687W        W 9431   4.505   1.369   2.438  0.1534 -0.2428  0.3363
 5688W        W 9432   5.797   2.622  10.682 -0.1828 -0.1442  0.1479
 5689W        W 9433   4.868   4.373   0.234  0.0848 -0.2790  0.0768
 5690W        W 9434   6.478   2.557  10.099  0.1953 -0.1286  0.2017
 5691W        W 9435   7.449   2.687   9.824  0.1092 -0.1609 -0.0739
 5692W        W 9436   9.590   7.831   1.300 -0.2355  0.1462  0.0861
 5693W        W 9437   4.364   2.994   9.737  0.0015  0.0344  0.3271
 5694W        W 9438   7.206   1.756  11.964 -0.1729  0.0789 -0.1745
 5695W        W 9439   4.512   0.902   0.887  0.1239  0.1403 -0.1703
 5696W        W 9440   6.713   6.113  10.541 -0.0095  0.1400 -0.0491
 5697W        W 9441   4.863   5.596   3.483 -0.1420 -0.0844  0.2954
 5698W        W 9442   6.252   7.550  12.182 -0.4029 -0.2264  0.3546
 5699W        W 9443   6.246   8.189   3.328 -0.2173 -0.1017 -0.1756
 5700W        W 9444   3.981   2.778  12.079 -0.0698  0.0111  0.3562
 5701W        W 9445   7.052   2.193  10.742 -0.0297 -0.1293 -0.1571
 5702W        W 9446   9.437   7.477   2.482 -0.0652 -0.0120 -0.3452
 5703W        W 9447   4.349   5.620   4.091  0.1992 -0.1359 -0.1929
 5704W        W 9448   7.587   2.193  10.204 -0.1263  0.2754  0.0049
 5705W        W 9449   4.365   9.640   0.643 -0.1157 -0.1479 -0.2079
 5706W        W 9450   2.246   8.595  12.612  0.1882 -0.1537  0.0597
 5707W        W 9451   1.023   0.108  12.606 -0.1099  0.2439 -0.3028
 5708W        W 9452   6.748   3.901  12.679 -0.4228 -0.0621  0.0125
 5709W        W 9453   1.597   5.654  12.328  0.2519 -0.0904 -0.0595
 5710W        W 9454   8.716   2.184   2.622 -0.1618 -0.1863 -0.3108
 5711W        W 9455   8.149   4.981  10.461  0.2505  0.0859  0.2852
 5712W        W 9456   3.040   9.102   2.041  0.2349  0.0096  0.1832
 5713W        W 9457   3.085   0.718  10.047  0.2152  0.0127  0.2639
 5714W        W 9458   3.420   3.375   8.923 -0.1631 -0.0310 -0.2487
 5715W        W 9459   8.896   9.779   9.510  0.0972 -0.1584  0.0775
 5716W        W 9460   3.943   5.988   9.658  0.0244  0.1534  0.0372
 5717W        W 9461   1.504   4.729   9.095  0.1559  0.0856 -0.0689
 5718W        W 9462   3.593   3.447   0.617 -0.4002 -0.1123  0.1982
 5719W        W 9463   2.558   2.324  11.301 -0.2528  0.1689 -0.1202
 5720W        W 9464   3.445   5.606   1.700 -0.1005  0.0023  0.4314
 5721W        W 9465   3.384   4.113   8.174 -0.0681  0.3178 -0.1149
 5722W        W 9466   1.469   8.500  11.935  0.3893  0.1544 -0.2636
 5723W        W 9467   4.380   3.449  10.126  0.0765 -0.2362 -0.0316
 5724W        W 9468   3.564   4.699   8.122 -0.0076  0.0521  0.0242
 5725W        W 9469   7.988   9.775   4.008  0.1040 -0.2872  0.3941
 5726W        W 9470   7.092   8.393   8.877  0.0416  0.0431  0.2410
 5727W        W 9471   3.070   6.040  12.237  0.2915  0.1913 -0.0149
 5728W        W 9472   0.963   5.553  10.631  0.0499 -0.2116  0.1420
 5729W        W 9473   9.332   0.317   0.789  0.0667  0.0809 -0.0198
 5730W        W 9474   6.969   0.359   7.598 -0.3973  0.0021 -0.2024
 5731W        W 9475   0.455   7.116  10.269  0.4603  0.2433  0.0835
 5732W        W 9476   0.887   5.283   3.465 -0.2037 -0.0667 -0.2095
 5733W        W 9477   7.327   6.226   0.103 -0.2766 -0.1748  0.0393
 5734W        W 9478   2.568   1.638   1.785  0.0970 -0.4010  0.1005
 5735W        W 9479   9.451   9.795   0.557  0.0714  0.2393 -0.0106
 5736W        W 9480   9.623   9.220  12.364 -0.2380 -0.1858 -0.0237
 5737W        W 9481   9.234   8.887   2.639 -0.0548  0.2597 -0.1279
 5738W        W 9482   5.730   2.393   4.469 -0.0894  0.0240 -0.1262
 5739W        W 9483   9.036   8.685  11.148  0.2222 -0.1314 -0.0663
 5740W        W 9484   6.762   5.158   2.718  0.0647 -0.0833  0.1883
 5741W        W 9485   5.892   6.473   2.977 -0.2117 -0.0552  0.3397
 5742W        W 9486   8.054   4.889   1.440  0.1468 -0.0307  0.0742
 5743W        W 9487   2.947   8.367   0.605 -0.2646  0.1885 -0.2415
 5744W        W 9488   1.209   4.717   2.564  0.0985  0.3504 -0.0523
 5745W        W 9489   8.374   4.826   2.372  0.0523 -0.0376  0.1467
 5746W        W 9490   2.218   7.665   2.234  0.4152  0.1499 -0.2475
 5747W        W 9491   7.333   4.356  11.389  0.0107 -0.2041  0.5966
 5748W        W 9492   2.715   1.707   0.931  0.1342  0.2124 -0.0301
 5749W        W 9493   6.156   7.897   0.207 -0.2185  0.0417 -0.1958
 5750W        W 9494   6.263   7.292  11.743  0.0438 -0.1981  0.0160
 5751W        W 9495   9.205   3.635   0.706  0.1576 -0.3643  0.1963
 5752W        W 9496   6.420   2.303   2.363 -0.1708 -0.1887  0.2093
 5753W        W 9497   3.881   5.726  11.481 -0.0725 -0.0820 -0.2115
 5754W        W 9498   5.178   6.629   3.539 -0.3426 -0.1911 -0.1266
 5755W        W 9499   0.243   8.119  12.150 -0.0498  0.3209 -0.1680
 5756W        W 9500   0.495   4.317  11.106  0.0016  0.2642 -0.2340
 5757W        W 9501   6.726   1.717   2.329 -0.0242  0.2415 -0.2130
 5758W        W 9502   7.739   9.935   1.871 -0.1882  0.1180  0.3120
 5759W        W 9503   3.976   2.390   0.731 -0.1154  0.1680  0.4436
 5760W        W 9504   9.557   2.820   1.227 -0.1407  0.0265  0.0775
 5761W        W 9505   2.649   9.668   3.573 -0.2449 -0.1545 -0.1226
 5762W        W 9506   8.173   0.589   3.908 -0.0538  0.0208 -0.0765
 5763W        W 9507   9.550   0.924  11.594 -0.2010  0.1188 -0.0090
 5764W        W 9508   6.052   3.373   2.925 -0.0422 -0.1450 -0.0945
 5765W        W 9509   7.910   7.772   3.065 -0.0757  0.1820  0.1633
 5766W        W 9510   8.969   6.590  12.752 -0.2143  0.0076  0.0278
 5767W        W 9511   1.010   3.938  12.124  0.1732  0.1083  0.0416
 5768W        W 9512   9.158   8.961   9.760 -0.1153 -0.2184 -0.0057
 5769W        W 9513   5.886   2.719   8.377  0.1490 -0.2296  0.0564
 5770W        W 9514   8.222   7.454  11.389 -0.2367  0.0271 -0.0774
 5771W        W 9515   8.786   9.605   1.107 -0.1421  0.2373 -0.0458
 5772W        W 9516   2.613   6.961   1.160 -0.1240  0.2120 -0.0315
 5773W        W 9517   3.485   4.429   1.943  0.1190  0.1840  0.3648
 5774W        W 9518   8.685   2.483  12.746  0.0750  0.0587  0.0996
 5775W        W 9519   3.806   5.137  10.010  0.1729 -0.0325 -0.0320
 5776W        W 9520   3.190   0.068   3.910 -0.0879  0.1386  0.0715
 5777W        W 9521   0.067   7.643   3.320  0.0644 -0.1256 -0.3397
 5778W        W 9522   6.812   3.257   0.918 -0.2646 -0.0938 -0.0356
 5779W        W 9523   3.632   6.688   2.382  0.1504  0.1726 -0.2695
 5780W        W 9524   6.863   6.879   4.299  0.3390 -0.1761 -0.2822
 5781W        W 9525   0.708   4.037   0.375  0.3289  0.0534  0.0273
 5782W        W 9526   5.515   2.251   0.625 -0.1211 -0.0241 -0.1400
 5783W        W 9527   0.979   0.524   0.983  0.1761  0.0322  0.1329
 5784W        W 9528   2.889   6.868  11.547  0.0309  0.0220 -0.3208
 5785W        W 9529   8.680   2.376  10.965 -0.0147 -0.0493 -0.2070
 5786W        W 9530   7.901   8.800  10.844  0.2175  0.1206  0.0815
 5787W        W 9531   3.133   8.162   9.636  0.3392 -0.0185 -0.0661
 5788W        W 9532   7.261   0.940   3.741 -0.0990  0.3380  0.2146
 5789W        W 9533   4.440   2.374   2.196  0.1655 -0.0452  0.1591
 5790W        W 9534   1.453   7.686  11.425  0.1403  0.1287 -0.1124
 5791W        W 9535   1.191   3.315   9.834 -0.1195  0.4227 -0.1755
 5792W        W 9536   6.476   3.552   2.654 -0.1167 -0.0325  0.2663
 5793W        W 9537   3.129   9.120   4.102  0.0278  0.2011 -0.2134
 5794W        W 9538   4.973   2.749  12.329  0.1660  0.3507 -0.0862
 5795W        W 9539   8.681   2.794   1.159  0.1530 -0.0290 -0.1117
 5796W        W 9540   6.790   5.996  11.285  0.2246  0.3023  0.1697
 5797W        W 9541   2.321   1.719   1.240 -0.1974 -0.0530 -0.0630
 5798W        W 9542   0.120   4.122  11.998 -0.0558 -0.0455  0.1243
 5799W        W 9543   7.008   5.680   1.851 -0.1652  0.0264  0.0100
 5800W        W 9544   7.677   6.131  10.880 -0.1843  0.2809  0.1102
 5801W        W 9545   3.141   3.863   1.497  0.1760 -0.2141 -0.0050
 5802W        W 9546   8.444   7.500   3.973  0.0372 -0.1385 -0.5306
 5803W        W 9547   6.846   1.057  11.704 -0.0596  0.0596 -0.1653
 5804W        W 9548   0.411   8.656   2.484  0.0753  0.0043  0.0756
 5805W        W 9549   4.970   0.964   0.614 -0.2975  0.0593  0.2794
 5806W        W 9550   9.552   0.093   1.275  0.0210 -0.1869  0.1705
 5807W        W 9551   1.004   4.926   1.697 -0.0863  0.0971  0.0836
 5808W        W 9552   0.051   9.819   1.685  0.0347 -0.0735 -0.0526
 5809W        W 9553   7.650   8.953   2.669  0.1489 -0.0202  0.0501
 5810W        W 9554   5.906   9.646   0.541  0.0086  0.3958  0.1010
 5811W        W 9555   2.430   2.418   3.288  0.0356 -0.1496 -0.1566
 5812W        W 9556   5.656   4.258   0.774  0.2513 -0.1549 -0.0303
 5813W        W 9557   9.549   0.831  10.038 -0.0070  0.0672 -0.0888
 5814W        W 9558   4.673   0.951   2.250 -0.1402  0.1768  0.3884
 5815W        W 9559   8.717   3.623   0.607 -0.0166 -0.0852 -0.1639
 5816W        W 9560   1.460   1.832  12.557 -0.3334  0.4657  0.0361
 5817W        W 9561   7.688   8.393   1.972  0.1906 -0.3808  0.1545
 5818W        W 9562   6.186   7.856   1.029  0.0629  0.3967  0.1572
 5819W        W 9563   7.041   1.384   2.910 -0.0528  0.0072  0.3145
 5820W        W 9564   7.045   8.216   3.169 -0.1006 -0.0368 -0.0910
 5821W        W 9565   6.000   3.789   2.655 -0.0379 -0.0039 -0.2885
 5822W        W 9566   0.021   3.801   0.853 -0.0268 -0.0922  0.0633
 5823W        W 9567   3.881   1.226   9.414 -0.0308 -0.2302  0.0406
 5824W        W 9568   3.660   6.142   1.649 -0.0078 -0.0756 -0.0942
 5825W        W 9569   8.483   2.927  11.865  0.1180  0.2119 -0.2674
 5826W        W 9570   7.920   5.812   1.359 -0.0840 -0.1697  0.1747
 5827W        W 9571   3.988   2.635  12.576 -0.2369  0.2764  0.0492
 5828W        W 9572   8.373   7.801  10.975 -0.4876  0.0268  0.4575
 5829W        W 9573   3.286   1.450   8.571  0.0436  0.0784 -0.3042
 5830W        W 9574   9.441   9.792   2.446  0.1327  0.0132  0.1240
 5831W        W 9575   5.599   1.618  12.521 -0.3130  0.1601 -0.0419
 5832W        W 9576   7.107   7.731   0.541 -0.2474 -0.2072 -0.3034
 5833W        W 9577   6.402   5.028   2.166 -0.1540  0.1596  0.2068
 5834W        W 9578   3.462   5.611  11.003 -0.1922 -0.0196  0.1133
 5835W        W 9579   8.505   7.681   4.444 -0.1454 -0.0062 -0.0923
 5836W        W 9580   7.869   7.756   9.917  0.0559  0.1042 -0.4956
 5837W        W 9581   5.664   4.640   4.133  0.2848 -0.2355 -0.4276
 5838W        W 9582   3.743   0.071   9.946 -0.2798 -0.3740 -0.1960
 5839W        W 9583   5.308   7.324   9.069 -0.0259 -0.1889  0.2094
 5840W        W 9584   2.090   2.904   1.342  0.1056  0.0212  0.2232
 5841W        W 9585   7.840   8.628   3.150 -0.2715 -0.4112 -0.0294
 5842W        W 9586   1.566   6.245   2.316 -0.0628  0.1033 -0.0353
 5843W        W 9587   4.075   7.667   3.376  0.1876  0.1520  0.0391
 5844W        W 9588   2.710   6.609  12.470  0.0855 -0.0073 -0.2184
 5845W        W 9589   2.181   9.496   8.911  0.0214  0.1409 -0.2417
 5846W        W 9590   9.778   8.099  11.819  0.0599 -0.1724 -0.0981
 5847W        W 9591   9.877   5.937   4.082  0.0493  0.0239 -0.2148
 5848W        W 9592   5.398   0.925   0.272 -0.1340  0.0092 -0.0481
 5849W        W 9593   7.413   6.374   8.309  0.1894  0.1461  0.0742
 5850W        W 9594   0.183   6.625   3.437  0.0314  0.4626 -0.0727
 5851W        W 9595   4.775   7.373   0.619  0.0140  0.3249  0.0252
 5852W        W 9596   2.045   2.425  11.847  0.0050  0.4532 -0.1483
 5853W        W 9597   2.639   9.756   1.617 -0.1879  0.1229  0.2685
 5854W        W 9598   4.148   4.955   1.298  0.2054  0.2273  0.2706
 5855W        W 9599   1.413   8.920   1.200  0.2787  0.0578 -0.0624
 5856W        W 9600   8.553   8.318   2.660 -0.1915 -0.1386 -0.0676
 5857W        W 9601   5.342   8.880   8.626 -0.2636 -0.0213 -0.4815
 5858W        W 9602   4.773   7.603   2.975 -0.2338 -0.0031 -0.1049
 5859W        W 9603   9.316   2.428   2.431  0.0143  0.2087  0.0843
 5860W        W 9604   3.638   6.198   1.053 -0.0188 -0.0771 -0.2021
 5861W        W 9605   4.899   1.889   3.229  0.2380  0.0414 -0.3431
 5862W        W 9606   1.077   8.673   3.361  0.2338 -0.0265  0.0839
 5863W        W 9607   5.018   3.665  10.046  0.0032 -0.0762 -0.0999
 5864W        W 9608   0.706   2.081   0.083 -0.1072  0.0581 -0.0396
 5865W        W 9609   2.452   8.741   1.951 -0.1483  0.0879 -0.1475
 5866W        W 9610   4.158   8.401   3.851 -0.1310  0.2325  0.0560
 5867W        W 9611   7.817   4.511   1.683 -0.1327 -0.1132  0.2352
 5868W        W 9612   3.994   0.644  10.547  0.0695 -0.1566  0.1666
 5869W        W 9613   8.202   3.862   2.552  0.0262  0.2990 -0.0735
 5870W        W 9614   2.472   0.974   4.893  0.1175  0.1303  0.0476
 5871W        W 9615   6.738   0.761   2.866 -0.1091  0.2743  0.0525
 5872W        W 9616   7.724   2.638  11.048 -0.1455  0.2286  0.0369
 5873W        W 9617   0.828   7.349  12.463 -0.3351 -0.1677 -0.0273
 5874W        W 9618   8.753   0.198  10.231  0.0865 -0.1751 -0.0027
 5875W        W 9619   0.709   5.720   8.569 -0.2662 -0.3341 -0.2332
 5876W        W 9620   0.772   9.030  10.775  0.0446  0.0566 -0.2086
 5877W        W 9621   1.653   0.351   2.558 -0.0399 -0.1329 -0.0072
 5878W        W 9622   5.118   5.238   1.676 -0.0404 -0.2691  0.0768
 5879W        W 9623   8.559   3.317   0.315 -0.3194  0.2596  0.1644
 5880W        W 9624   0.661   6.855   4.673 -0.1143  0.2157 -0.3285
 5881W        W 9625   5.171   3.867  11.272  0.0290 -0.0763  0.0465
 5882W        W 9626   8.115   6.059  11.353  0.0115  0.3445 -0.0525
 5883W        W 9627   9.381   9.426  11.375 -0.1415 -0.1068  0.2651
 5884W        W 9628   7.047   3.114   1.374  0.0495  0.0137  0.0964
 5885W        W 9629   0.958   1.281  11.060  0.0282  0.2992 -0.3504
 5886W        W 9630   4.308   4.532   4.163  0.1496  0.1176 -0.2622
 5887W        W 9631   7.929   6.418   0.089  0.1515 -0.1186  0.2238
 5888W        W 9632   6.695   4.075   3.327  0.1076 -0.4139  0.2147
 5889W        W 9633   1.345   2.736   0.237  0.0234 -0.2543 -0.0432
 5890W        W 9634   2.215   7.018   9.303 -0.0997 -0.1362  0.1024
 5891W        W 9635   0.513   6.883   3.137  0.2331 -0.4626  0.1822
 5892W        W 9636   0.191   7.062   0.369 -0.0083  0.0516  0.0177
 5893W        W 9637   4.717   1.233  12.487  0.0399 -0.2171  0.0641
 5894W        W 9638   8.245   6.155   1.489 -0.1290  0.1496  0.0809
 5895W        W 9639   3.109   2.410   1.595  0.1613  0.0678 -0.1995
 5896W        W 9640   6.525   7.850   4.574 -0.2899 -0.0520 -0.2605
 5897W        W 9641   9.714   7.510   9.536 -0.2715  0.5825  0.0746
 5898W        W 9642   6.472   9.190   1.468  0.0652 -0.1474 -0.3117
 5899W        W 9643   9.898   0.066   0.759  0.0464 -0.3126 -0.0220
 5900W        W 9644   2.539   2.989  12.317  0.0162  0.3309 -0.1201
 5901W        W 9645   0.910   3.160   2.760 -0.3093  0.0427 -0.0191
 5902W        W 9646   5.129   3.189   1.290 -0.0138  0.1844  0.1621
 5903W        W 9647   9.460   8.700  10.670  0.2519  0.1125  0.0980
 5904W        W 9648   6.375   1.728  12.648  0.3978  0.0846 -0.0153
 5905W        W 9649   3.863   9.003   9.806  0.1931 -0.0347  0.2774
 5906W        W 9650   2.009   0.002   8.552 -0.1557  0.3241 -0.0475
 5907W        W 9651   1.556   0.238  10.543  0.2606  0.1908  0.2036
 5908W        W 9652   4.192   5.658   3.536  0.3410 -0.2025  0.2036
 5909W        W 9653   5.009   1.869   1.603 -0.0110 -0.4512 -0.0373
 5910W        W 9654   0.175   2.925   1.182  0.2045  0.1819 -0.1524
 5911W        W 9655   3.404   3.818   3.148 -0.0566 -0.3306 -0.3120
 5912W        W 9656   6.533   8.191   3.722 -0.0464 -0.2613 -0.1413
 5913W        W 9657   6.525   3.507  12.310  0.3957  0.1749  0.1410
 5914W        W 9658   4.265   2.112   9.718  0.1104 -0.1990 -0.2286
 5915W        W 9659   1.400   5.232   1.226 -0.0921 -0.1297  0.1413
 5916W        W 9660   9.714   3.090   3.853 -0.0671 -0.0457 -0.2199
 5917W        W 9661   7.911   1.444   2.941 -0.1147  0.2357  0.1695
 5918W        W 9662   1.953   8.071  10.838 -0.0919 -0.2190 -0.2012
 5919W        W 9663   8.323   9.332  11.924  0.0014 -0.0457 -0.0857
 5920W        W 9664   2.818   5.097   9.353  0.0181 -0.0022  0.1407
 5921W        W 9665   0.254   7.954   3.716 -0.0780  0.2056 -0.0280
 5922W        W 9666   3.347   5.853   9.017  0.1740  0.1714 -0.2142
 5923W        W 9667   8.558   8.427   1.213 -0.1872 -0.4337  0.0119
 5924W        W 9668   7.848   3.291   8.655  0.1223 -0.0166  0.2644
 5925W        W 9669   7.452   0.390   8.448  0.0816 -0.1915 -0.0647
 5926W        W 9670   6.563   5.094  11.023  0.0488 -0.0535  0.2900
 5927W        W 9671   1.029   8.169  11.839 -0.0248  0.1058 -0.0537
 5928W        W 9672   7.489   3.636   3.270  0.1137  0.1700 -0.3487
 5929W        W 9673   6.368   8.720   1.646 -0.2713 -0.1588 -0.0122
 5930W        W 9674   1.606   2.055  11.224  0.0994 -0.0350 -0.0917
 5931W        W 9675   7.942   0.181   3.595  0.1298  0.1003  0.0672
 5932W        W 9676   6.247   9.488  11.278 -0.1058  0.0851  0.1536
 5933W        W 9677   0.397   9.037   8.998  0.0445 -0.0900 -0.1540
 5934W        W 9678   0.188   7.863   9.852 -0.1999  0.2089 -0.0207
 5935W        W 9679   0.520   6.982   2.674 -0.1315 -0.0331  0.0254
 5936W        W 9680   3.883   6.885   9.701 -0.2890  0.0610  0.2254
 5937W        W 9681   3.659   3.774   7.842  0.4076 -0.1554  0.3379
 5938W        W 9682   5.079   5.903   9.560  0.0761  0.0267 -0.1152
 5939W        W 9683   6.364   1.212  10.452  0.1339 -0.0296 -0.1548
 5940W        W 9684   2.858   3.107  11.246  0.2008 -0.2373 -0.1522
 5941W        W 9685   6.025   7.332   3.519 -0.1295  0.1449  0.1584
 5942W        W 9686   5.932   7.599   4.285  0.0158  0.0401  0.1150
 5943W        W 9687   5.331   3.879  12.487 -0.0084  0.0580  0.2923
 5944W        W 9688   4.856   7.313   2.080  0.0219  0.2320 -0.0749
 5945W        W 9689   7.240   5.758   4.156 -0.0185  0.1294  0.0338
 5946W        W 9690   8.567   1.919  11.815  0.4524  0.1851 -0.3771
 5947W        W 9691   1.605   3.890   3.658  0.0364  0.0131 -0.4454
 5948W        W 9692   4.361   0.941  10.946 -0.1838  0.2194  0.1895
 5949W        W 9693   5.686   0.632   1.690 -0.0785  0.0106  0.1135
 5950W        W 9694   4.307   0.712   3.167  0.1833  0.2524  0.2327
 5951W        W 9695   3.144   7.301   4.603 -0.0210  0.1326  0.0477
 5952W        W 9696   2.562   5.220   1.925 -0.1750  0.0195 -0.0346
 5953W        W 9697   5.381   7.783   9.422 -0.5075 -0.0378 -0.1532
 5954W        W 9698   3.053   2.613  11.239 -0.4508 -0.1135  0.1013
 5955W        W 9699   3.540   3.747   9.703 -0.2119  0.1932  0.0101
 5956W        W 9700   6.661   3.041   8.928  0.3480 -0.1719  0.2124
 5957W        W 9701   4.297   9.895   0.091 -0.1562  0.3336  0.0317
 5958W        W 9702   5.501   0.588  12.168  0.4095 -0.1351 -0.1124
 5959W        W 9703   6.693   1.046   3.696  0.4105  0.2711 -0.1591
 5960W        W 9704   5.741   2.076   9.854  0.0809  0.1379 -0.0518
 5961W        W 9705   2.593   6.587   9.225  0.3227 -0.3541  0.0532
 5962W        W 9706   5.960   1.979   0.903  0.2224  0.1804 -0.1773
 5963W        W 9707   2.752   8.642  10.698 -0.1188  0.0462  0.2149
 5964W        W 9708   3.171   4.421   2.375  0.1467  0.0102  0.0247
 5965W        W 9709   4.138   4.640   0.858 -0.0989  0.1371 -0.2378
 5966W        W 9710   0.287   2.349   1.321 -0.0972 -0.0098  0.1913
 5967W        W 9711   2.306   8.634   3.448  0.2858 -0.2905  0.1980
 5968W        W 9712   7.896   5.836   8.920 -0.1173 -0.1356  0.0031
 5969W        W 9713   0.865   3.641   2.773  0.0707  0.2229 -0.0033
 5970W        W 9714   5.435   8.477  10.860 -0.0797 -0.0378 -0.1078
 5971W        W 9715   7.437   7.762   3.883 -0.2548 -0.0568  0.1181
 5972W        W 9716   7.529   3.023   8.267 -0.0504 -0.1928 -0.1200
 5973W        W 9717   8.943   1.859  11.427  0.0334  0.1408  0.1067
 5974W        W 9718   9.569   3.939  12.247  0.0989  0.1729 -0.2482
 5975W        W 9719   7.843   5.078   2.382  0.0819  0.4586 -0.0782
 5976W        W 9720   5.829   0.148   1.420 -0.0227  0.0774 -0.1396
 5977W        W 9721   9.662   0.942   1.368  0.0431 -0.2061 -0.1143
 5978W        W 9722   1.069   9.270   3.243  0.1962  0.0311  0.1155
 5979W        W 9723   2.939   8.340  10.071 -0.3341  0.1994 -0.0375
 5980W        W 9724   2.461   7.489   1.396 -0.0704 -0.0697  0.1185
 5981W        W 9725   5.224   5.002  10.552 -0.0260 -0.0700 -0.0113
 5982W        W 9726   5.881   1.001  11.930 -0.1610  0.5400 -0.2214
 5983W        W 9727   6.121   8.733  11.878  0.0116 -0.0540  0.0897
 5984W        W 9728   3.368   6.955  11.849  0.3275  0.1866 -0.2294
 5985W        W 9729   3.757   4.745  11.233 -0.0988  0.1826  0.2668
 5986W        W 9730   0.058   9.402   2.888  0.0708  0.2409 -0.2299
 5987W        W 9731   5.451   0.347   0.234  0.1374  0.1829 -0.3890
 5988W        W 9732   9.547   7.619  11.782  0.2161  0.1623 -0.0108
 5989W        W 9733   5.211   3.205   4.522  0.2360  0.0117 -0.1806
 5990W        W 9734   2.387   9.349   3.863  0.0448 -0.0639  0.4283
 5991W        W 9735   6.055   7.776   2.573  0.1551 -0.0186  0.1356
 5992W        W 9736   6.208   8.772   7.934  0.1910 -0.1924 -0.1732
 5993W        W 9737   2.198   4.703   3.504  0.2927 -0.1025  0.1998
 5994W        W 9738   1.464   4.893  10.224  0.2525  0.0669  0.3615
 5995W        W 9739   1.551   8.944  11.729  0.0598  0.2603  0.0849
 5996W        W 9740   4.427   7.988   3.710 -0.0475  0.0146  0.2957
 5997W        W 9741   7.196   3.839   4.207  0.3287 -0.2964 -0.0460
 5998W        W 9742   6.805   3.797   0.454 -0.2953  0.0235 -0.0450
 5999W        W 9743   3.507   5.453   0.671  0.1647  0.0346  0.2817
 6000W        W 9744   8.563   5.605   0.665 -0.3229  0.0026 -0.2480
 6001W        W 9745   7.170   2.442   3.381  0.1278 -0.2269 -0.0968
 6002W        W 9746   0.928   0.974   0.600 -0.0211  0.1835  0.0141
 6003W        W 9747   4.621   0.584   1.340  0.0076 -0.1479 -0.4032
 6004W        W 9748   7.541   0.067   3.874  0.1733  0.1980  0.0069
 6005W        W 9749   9.860   2.587   9.439 -0.1543  0.0812  0.0652
 6006W        W 9750   4.241   5.035   0.478  0.0189 -0.1846 -0.0220
 6007W        W 9751   7.473   7.993  12.024  0.1182  0.0733  0.2285
 6008W        W 9752   6.112   1.158  10.027 -0.1564  0.0686 -0.4161
 6009W        W 9753   0.430   4.424   0.278  0.3532 -0.0039 -0.3704
 6010W        W 9754   5.264   6.802   8.979 -0.0790  0.1157  0.3111
 6011W        W 9755   2.102   6.835   2.804 -0.1769  0.1337  0.2201
 6012W        W 9756   1.697   4.988  12.774 -0.3684  0.0319 -0.2974
 6013W        W 9757   8.552   8.729   8.999 -0.2119  0.1659 -0.2144
 6014W        W 9758   7.022   3.622   1.408 -0.1965 -0.1871 -0.1655
 6015W        W 9759   5.905   6.607   4.318 -0.0727 -0.4213 -0.0374
 6016W        W 9760   7.064   6.731   0.932  0.1184 -0.0268  0.1162
 6017W        W 9761   5.948   6.709   0.667 -0.0489  0.0641  0.0556
 6018W        W 9762   7.492   2.948   9.255 -0.0850  0.0934  0.2572
 6019W        W 9763   7.524   2.501   0.510  0.0908 -0.0626  0.1233
 6020W        W 9764   4.473   0.490   2.137 -0.1193 -0.2598 -0.1536
 6021W        W 9765   6.093   5.586   0.536  0.2704  0.1974 -0.3264
 6022W        W 9766   5.212   0.375  10.909 -0.0391 -0.0946 -0.0750
 6023W        W 9767   2.417   3.802   3.365 -0.4254 -0.1163 -0.0909
 6024W        W 9768   5.848   4.238   9.542  0.2384 -0.4946 -0.3118
 6025W        W 9769   3.183   3.507  10.527 -0.0330 -0.1385 -0.2406
 6026W        W 9770   0.503   3.949   9.796 -0.3106  0.0513 -0.1480
 6027W        W 9771   7.077   6.970   2.372 -0.0798 -0.0205 -0.0028
 6028W        W 9772   6.560   0.459   0.084  0.0913 -0.2984 -0.2233
 6029W        W 9773   9.091   0.650   1.877  0.1490  0.0719  0.1812
 6030W        W 9774   7.248   2.851   0.802 -0.1529 -0.2706 -0.3148
 6031W        W 9775   2.390   2.841  10.590 -0.0119  0.2366 -0.0003
 6032W        W 9776   5.789   2.487   0.901  0.0848  0.0700 -0.1626
 6033W        W 9777   7.194   2.608  10.972  0.2326 -0.0320  0.0539
 6034W        W 9778   5.793   0.197   0.704 -0.2154  0.2450 -0.2630
 6035W        W 9779   6.319   3.066  11.638  0.0888 -0.0672  0.1902
 6036W        W 9780   1.816   2.925   0.268  0.1594 -0.0969  0.0421
 6037W        W 9781   6.292   6.532   1.016 -0.0063  0.1325 -0.0918
 6038W        W 9782   6.423   4.010  11.623 -0.1306  0.1234  0.2880
 6039W        W 9783   9.379   4.855  12.778 -0.0244  0.0689  0.1441
 6040W        W 9784   0.339   4.834  11.088  0.0978  0.1965 -0.1369
 6041W        W 9785   5.497   9.214   9.367 -0.0257  0.1017  0.0407
 6042W        W 9786   7.062   4.720   2.564  0.0230  0.2362 -0.0074
 6043W        W 9787   4.248   6.203   1.226 -0.1444 -0.0885  0.1603
 6044W        W 9788   7.039   1.099   2.466 -0.0782 -0.1927 -0.1063
 6045W        W 9789   2.462   6.003   0.262  0.0626 -0.1395  0.1628
 6046W        W 9790   2.890   1.547   2.130 -0.1691 -0.0224  0.0326
 6047W        W 9791   9.644   7.280   3.509  0.0218  0.2463 -0.1025
 6048W        W 9792   1.488   7.165   9.807 -0.0536  0.1208 -0.0578
 6049W        W 9793   4.133   6.479   9.644 -0.1125  0.1486  0.0107
 6050W        W 9794   1.814   6.310   1.332 -0.4076 -0.2599  0.0241
 6051W        W 9795   2.722   9.075   9.173 -0.1154  0.1620  0.1754
 6052W        W 9796   4.547   4.135   3.814 -0.1732 -0.0072  0.2434
 6053W        W 9797   8.855   1.307  12.282 -0.0064  0.0544 -0.1314
 6054W        W 9798   5.384   6.079   0.895 -0.1236 -0.0568  0.3772
 6055W        W 9799   1.261   5.254   0.737 -0.1522  0.1661  0.2398
 6056W        W 9800   3.134   7.167  10.684  0.0934 -0.1174  0.2300
 6057W        W 9801   8.047   8.265   2.336  0.1251 -0.0556 -0.1973
 6058W        W 9802   1.936   9.020   3.134  0.0220  0.0249 -0.0805
 6059W        W 9803   9.494   2.425  12.792 -0.1685 -0.0675 -0.0101
 6060W        W 9804   4.370   9.808   3.611  0.1113 -0.0844 -0.3929
 6061W        W 9805   9.159   8.968  11.551 -0.2180  0.1711  0.0599
 6062W        W 9806   1.213   7.713   0.762 -0.2226  0.2162 -0.3679
 6063W        W 9807   4.992   6.326  10.966 -0.1538  0.0891  0.2185
 6064W        W 9808   2.336   5.142   9.295 -0.1608  0.3578 -0.1983
 6065W        W 9809   0.689   9.712   2.415 -0.1407 -0.1414  0.2552
 6066W        W 9810   4.351   6.873   9.932 -0.2080  0.3183  0.0300
 6067W        W 9811   6.272   0.750   9.756 -0.0049 -0.0992  0.2657
 6068W        W 9812   5.441   1.168   9.086  0.1714 -0.4246 -0.0355
 6069W        W 9813   4.022   1.703  10.596 -0.0526  0.0814 -0.1813
 6070W        W 9814   4.110   2.266   3.457 -0.1866 -0.1730 -0.1167
 6071W        W 9815   3.398   3.191   0.207 -0.1596  0.2445 -0.0652
 6072W        W 9816   8.952   0.307   3.737  0.0712  0.0554  0.6114
 6073W        W 9817   6.243   8.712   0.540 -0.0998  0.2261 -0.0007
 6074W        W 9818   6.368   1.429   3.552 -0.0558  0.2101 -0.3500
 6075W        W 9819   4.967   6.187   3.026  0.0766  0.3971  0.0761
 6076W        W 9820   5.471   8.792   0.451  0.1353  0.1161  0.3726
 6077W        W 9821   3.014   3.947   0.484  0.0327  0.1473 -0.1931
 6078W        W 9822   7.042   6.592   8.566  0.1018 -0.0930  0.2547
 6079W        W 9823   1.468   7.341   3.763 -0.2491  0.3911  0.0796
 6080W        W 9824   9.195   6.930  10.253  0.2173  0.0399 -0.0076
 6081W        W 9825   1.967   1.971   2.137  0.1054 -0.1678  0.1085
 6082W        W 9826   8.636   6.555   4.370  0.2055 -0.2733  0.0197
 6083W        W 9827   6.315   2.319   8.473 -0.0389  0.3267 -0.0284
 6084W        W 9828   9.316   6.111   1.407 -0.0458  0.2231  0.0986
 6085W        W 9829   2.874   3.575  11.062 -0.2129 -0.2403  0.0422
 6086W        W 9830   2.764   5.491   3.238  0.0746 -0.2927  0.3396
 6087W        W 9831   9.460   0.358   9.901 -0.0549 -0.0567 -0.0207
 6088W        W 9832   0.819   2.100   3.659  0.0423 -0.2002  0.1603
 6089W        W 9833   7.756   0.054   9.894  0.1806 -0.0907  0.1120
 6090W        W 9834   0.923   0.184   9.696  0.1728 -0.0049 -0.4258
 6091W        W 9835   2.635   7.953   1.349 -0.0061 -0.1198 -0.1642
 6092W        W 9836   3.992   0.397   8.858 -0.1910  0.0586 -0.0008
 6093W        W 9837   1.172   3.311   1.003 -0.4175 -0.0667  0.0092
 6094W        W 9838   8.343   5.636   1.652  0.0785  0.0695 -0.2626
 6095W        W 9839   5.632   9.324  11.592 -0.2298 -0.1013  0.1844
 6096W        W 9840   3.937   4.515  11.606  0.0393 -0.0212  0.2259
 6097W        W 9841   6.921   7.911   1.819  0.2391  0.0797 -0.0051
 6098W        W 9842   0.584   2.887  10.615  0.0882  0.1199 -0.1211
 6099W        W 9843   5.700   8.026  10.951  0.0623 -0.3994 -0.2498
 6100W        W 9844   3.180   1.765   1.257  0.2450 -0.0308  0.0825
 6101W        W 9845   2.708   0.058  10.658  0.1328  0.0168 -0.1757
 6102W        W 9846   6.559   8.970  11.917 -0.0935  0.0633 -0.0994
 6103W        W 9847   0.141   5.604   2.987 -0.1077  0.0892  0.1021
 6104W        W 9848   2.559   6.566   9.979 -0.0168  0.0147 -0.0748
 6105W        W 9849   6.594   8.016   2.651 -0.0179 -0.1294 -0.0351
 6106W        W 9850   0.658   5.484  11.451 -0.1018  0.0030  0.1752
 6107W        W 9851   6.401   4.217  10.468 -0.2284  0.0376  0.2473
 6108W        W 9852   2.179   0.832  10.878  0.0878 -0.0041 -0.1243
 6109W        W 9853   0.237   2.189   3.703  0.1197 -0.0019  0.0467
 6110W        W 9854   2.173   1.748   9.836  0.2754  0.0917  0.0423
 6111W        W 9855   8.147   2.479  10.127  0.5506  0.1847  0.4559
 6112W        W 9856   1.271   6.455   8.642 -0.2685 -0.2839 -0.0874
 6113W        W 9857   0.200   8.301   0.222 -0.0971  0.0981  0.0464
 6114W        W 9858   5.490   2.328  10.416 -0.2330  0.0955  0.0145
 6115W        W 9859   7.288   5.938  10.104 -0.4191 -0.0552  0.1555
 6116W        W 9860   3.077   2.933  12.519  0.3448 -0.0107 -0.0381
 6117W        W 9861   5.068   8.168   4.809  0.0056 -0.0698  0.2164
 6118W        W 9862   0.864   7.820  12.208 -0.1215  0.1031 -0.0626
 6119W        W 9863   3.934   3.749  12.226  0.1851 -0.1891 -0.2467
 6120W        W 9864   5.769   6.164  11.470 -0.0903 -0.1306  0.1901
 6121W        W 9865   7.359   4.732   3.322 -0.1062  0.3040 -0.4550
 6122W        W 9866   7.215   8.753   0.617  0.0294 -0.1099 -0.2309
 6123W        W 9867   2.396   5.428   2.868  0.0392 -0.0381  0.0317
 6124W        W 9868   8.280   4.392   1.532 -0.2450  0.1785 -0.0641
 6125W        W 9869   2.347   3.300   1.551 -0.1499 -0.1321  0.0189
 6126W        W 9870   0.348   3.637   0.479  0.2605 -0.3226 -0.1103
 6127W        W 9871   5.978   3.259  10.334  0.1080  0.2223  0.1386
 6128W        W 9872   6.372   2.485   1.466  0.0159 -0.0796  0.0044
 6129W        W 9873   8.289   6.951   8.952  0.0674 -0.0384 -0.0739
 6130W        W 9874   7.869   4.936  11.588 -0.2273 -0.3102  0.0172
 6131W        W 9875   2.303   5.874   3.719  0.2568  0.1290 -0.1244
 6132W        W 9876   3.143   9.557   1.618  0.5371  0.3054 -0.0974
 6133W        W 9877   6.029   4.646   8.484  0.1649 -0.0187 -0.0797
 6134W        W 9878   3.239   1.148   4.063 -0.6105  0.1683  0.0104
 6135W        W 9879   4.048   9.403   0.161  0.0329  0.1934 -0.0852
 6136W        W 9880   3.106   8.083  10.995  0.2745  0.1317  0.1728
 6137W        W 9881   5.332   1.693   9.058  0.2706 -0.0869 -0.0486
 6138W        W 9882   3.946   4.765   3.884  0.0954 -0.0476  0.1433
 6139W        W 9883   4.274   3.887   2.391  0.4626  0.1133 -0.1679
 6140W        W 9884   7.326   5.070   0.144  0.1873  0.2139  0.0829
 6141W        W 9885   8.313   1.066   3.127 -0.3876 -0.0100 -0.1838
 6142W        W 9886   7.715   1.184   8.987  0.0104  0.2207 -0.0779
 6143W        W 9887   1.536   9.293   3.510 -0.1098  0.3269  0.2526
 6144W        W 9888   9.716   4.719   2.505  0.4076  0.0918 -0.0809
 6145W        W 9889   5.204   3.471   5.006 -0.0055 -0.0898 -0.0035
 6146W        W 9890   8.308   3.689   0.915 -0.0965  0.4169  0.0134
 6147W        W 9891   1.845   9.821   0.871  0.0641  0.2301  0.0298
 6148W        W 9892   7.257   9.170   4.916  0.0491  0.0266 -0.1054
 6149W        W 9893   3.427   3.865   9.226  0.0368  0.0516 -0.1940
 6150W        W 9894   3.984   1.551   4.649  0.1261 -0.2976  0.1231
 6151W        W 9895   2.760   3.500   2.634 -0.1928 -0.0870 -0.1542
 6152W        W 9896   6.977   3.643   2.411 -0.1079 -0.0308 -0.0126
 6153W        W 9897   9.610   4.811   3.776 -0.1769  0.2912  0.0260
 6154W        W 9898   1.270   7.453   2.411  0.1737  0.1877 -0.0638
 6155W        W 9899   6.544   4.506   2.330  0.1000  0.2179  0.0466
 6156W        W 9900   5.064   7.490   1.642 -0.2385 -0.0199  0.3739
 6157W        W 9901   5.240   3.560   3.202  0.0508 -0.2121  0.1311
 6158W        W 9902   7.687   0.809  12.757 -0.3708 -0.0964  0.1364
 6159W        W 9903   6.115   9.899   9.053  0.2575  0.2253 -0.1753
 6160W        W 9904   5.322   0.870  10.800  0.0357 -0.1964 -0.1326
 6161W        W 9905   3.085   7.980   9.138  0.0072  0.1365 -0.0899
 6162W        W 9906   8.207   3.145   1.788  0.0129 -0.0690 -0.0629
 6163W        W 9907   7.311   5.768  12.563  0.0574  0.2658  0.1831
 6164W        W 9908   4.299   6.716  11.671 -0.0319 -0.2088 -0.0659
 6165W        W 9909   8.508   9.348   8.650 -0.0334 -0.0948 -0.3323
 6166W        W 9910   6.257   6.015   3.810 -0.1323  0.2855  0.1519
 6167W        W 9911   3.616   7.782  11.936 -0.0352  0.0538 -0.1229
 6168W        W 9912   5.663   9.752   8.579 -0.0899 -0.1249  0.1248
 6169W        W 9913   8.183   3.827   4.650 -0.0519  0.2741  0.3583
 6170W        W 9914   2.882   3.853   3.073  0.3604 -0.0822 -0.1159
 6171W        W 9915   9.634   8.997   8.112 -0.2052  0.0167  0.1384
 6172W        W 9916   8.856   3.001   0.084 -0.0839  0.0846  0.0340
 6173W        W 9917   7.874   9.084  10.284 -0.3625  0.2601 -0.1199
 6174W        W 9918   9.574   1.636  11.731  0.0391 -0.0553  0.0449
 6175W        W 9919   3.051   4.255   1.801  0.1005  0.0982 -0.2634
 6176W        W 9920   8.631   7.408   1.391  0.2681 -0.2313  0.0371
 6177W        W 9921   3.037   9.014   8.609  0.1227 -0.1536  0.0684
 6178W        W 9922   0.536   5.020  11.555  0.2136  0.2357  0.2800
 6179W        W 9923   3.342   7.673   4.384  0.1232 -0.1464 -0.1235
 6180W        W 9924   5.453   9.572  10.172 -0.1894  0.0784  0.0819
 6181W        W 9925   7.687   5.810  11.319  0.2620 -0.1249  0.1300
 6182W        W 9926   8.705   0.896   4.441  0.0978 -0.1566 -0.0269
 6183W        W 9927   3.328   0.353   9.827 -0.0127  0.3111 -0.1447
 6184W        W 9928   3.879   5.825   3.122 -0.0287  0.0615 -0.0124
 6185W        W 9929   2.118   3.772   0.085 -0.0600  0.2110  0.2974
 6186W        W 9930   9.906   9.866   0.228  0.2177 -0.0978 -0.3634
 6187W        W 9931   1.067   8.294   9.837 -0.1689 -0.1087  0.3169
 6188W        W 9932   7.953   5.929   1.875 -0.0420 -0.0090 -0.2326
 6189W        W 9933   4.958   7.941   9.219 -0.1252  0.3349 -0.1732
 6190W        W 9934   7.386   1.274  11.892  0.2472 -0.3410 -0.0264
 6191W        W 9935   5.275   9.776  11.559 -0.1636  0.0168 -0.0678
 6192W        W 9936   2.024   8.756  11.987  0.2973  0.1407 -0.3345
 6193W        W 9937   3.568   8.999   8.340  0.2087 -0.2564 -0.2236
 6194W        W 9938   3.673   9.866  11.266  0.0729  0.1088 -0.0687
 6195W        W 9939   7.415   2.253   3.750  0.0385 -0.2748 -0.1030
 6196W        W 9940   6.413   4.613  11.861 -0.0616 -0.0308 -0.1059
 6197W        W 9941   1.285   8.279   2.170  0.1758 -0.0250  0.1081
 6198W        W 9942   7.732   1.297   0.468  0.2577 -0.4429  0.2270
 6199W        W 9943   6.125   4.529   1.997 -0.1522 -0.0852  0.2796
 6200W        W 9944   0.368   2.604  11.571  0.1249  0.2202  0.2610
 6201W        W 9945   9.523   2.709  10.824 -0.2276  0.2120 -0.3377
 6202W        W 9946   3.982   5.295   3.801 -0.3246 -0.0372 -0.0949
 6203W        W 9947   7.204   7.451  10.534 -0.1487 -0.0759  0.3634
 6204W        W 9948   8.062   9.813  11.974  0.1539  0.1845  0.2436
 6205W        W 9949   3.796   0.586   9.874 -0.3483 -0.1997 -0.0054
 6206W        W 9950   4.464   5.776   1.204 -0.2087 -0.0246  0.2930
 6207W        W 9951   5.230   8.033  10.808  0.0061  0.0576  0.3676
 6208W        W 9952   8.196   5.351   8.886 -0.0235 -0.0962 -0.2589
 6209W        W 9953   3.968   4.148   8.912 -0.0025 -0.0833  0.0038
 6210W        W 9954   9.384   1.026   0.965 -0.0604  0.0186 -0.3278
 6211W        W 9955   0.652   5.270   1.739  0.1141 -0.0481 -0.2107
 6212W        W 9956   1.928   8.466   4.301 -0.1177  0.4735 -0.0786
 6213W        W 9957   5.753   5.628  10.105  0.0251 -0.0971  0.1662
 6214W        W 9958   9.552   3.705  10.224 -0.0251  0.2160  0.1292
 6215W        W 9959   6.133   0.544  11.775  0.1706 -0.0116  0.2554
 6216W        W 9960   4.315   8.730  10.059 -0.0729 -0.0628  0.1048
 6217W        W 9961   5.741   4.998  10.742  0.5746  0.0046 -0.1108
 6218W        W 9962   4.038   3.725   3.791 -0.4303  0.2973 -0.2931
 6219W        W 9963   9.342   7.033   1.767 -0.0909 -0.0410 -0.0479
 6220W        W 9964   9.174   9.890  11.538 -0.3799  0.1865  0.1219
 6221W        W 9965   4.917   5.787   1.499  0.1453 -0.1887  0.1530
 6222W        W 9966   7.809   4.611   3.137 -0.5183  0.0269 -0.1887
 6223W        W 9967   8.424   6.916   7.879  0.0255  0.1333 -0.1612
 6224W        W 9968   1.935   9.289  10.887  0.4044 -0.0792  0.4273
 6225W        W 9969   6.731   9.606   0.740 -0.3318  0.0416 -0.1422
 6226W        W 9970   9.478   3.783  11.076 -0.3917 -0.3516  0.0601
 6227W        W 9971   4.046   7.264   1.165 -0.1438  0.2190 -0.1258
 6228W        W 9972   0.816   5.176  11.023 -0.2503 -0.0727 -0.1445
 6229W        W 9973   3.254   8.833  10.782 -0.1016  0.0942  0.2932
 6230W        W 9974   6.370   4.238   4.231 -0.1046 -0.0271  0.3704
 6231W        W 9975   9.312   2.116   0.600 -0.1058  0.3302  0.1011
 6232W        W 9976   5.919   9.320   3.538 -0.3217  0.2927 -0.0751
 6233W        W 9977   6.776   7.807   3.304 -0.1026  0.0389  0.1674
 6234W        W 9978   3.050   0.573   1.618  0.0008  0.0259  0.1747
 6235W        W 9979   4.493   5.668   1.851  0.1272  0.0139  0.1530
 6236W        W 9980   0.461   7.685   1.994  0.5615 -0.2340  0.0010
 6237W        W 9981   0.137   8.394   4.145 -0.0878 -0.1698 -0.2959
 6238W        W 9982   4.031   6.096   0.734  0.0100 -0.1100  0.0851
 6239W        W 9983   5.254   4.061   1.056 -0.3283  0.1435 -0.1691
 6240W        W 9984   2.134   3.416   3.277  0.0403  0.3128  0.1477
 6241W        W 9985   6.102   3.173  12.719 -0.0902 -0.0060  0.0935
 6242W        W 9986   3.856   6.047  11.822  0.2205  0.0799 -0.2235
 6243W        W 9987   7.407   9.718  11.802  0.1233  0.1241 -0.2419
 6244W        W 9988   5.961   8.571   1.883  0.0681 -0.0606  0.2115
 6245W        W 9989   2.725   8.703   8.844  0.1395  0.0757  0.1324
 6246W        W 9990   8.433   1.224  10.018 -0.2305  0.0998 -0.0324
 6247W        W 9991   5.074   4.787   0.028  0.3516 -0.1215  0.2267
 6248W        W 9992   3.088   1.489  11.621  0.0258 -0.3700 -0.4307
 6249W        W 9993   9.156   0.058   3.344  0.1905  0.0159  0.2392
 6250W        W 9994   5.632   1.452   2.245  0.0876  0.0773  0.0413
 6251W        W 9995   6.824   5.503   4.260  0.0187 -0.0197  0.1360
 6252W        W 9996   0.854   1.758  11.939  0.2529  0.2550 -0.1276
 6253W        W 9997   6.172   1.618   9.256 -0.0094  0.0214 -0.0310
 6254W        W 9998   6.183   8.196   1.463 -0.0703 -0.0052 -0.0513
 6255W        W 9999   3.447   1.050   0.124 -0.0045  0.0364 -0.0984
 6256W        W10000   8.295   8.925   9.969  0.1945 -0.1541  0.2452
 6257W        W10001   9.530   7.201  10.928  0.3078 -0.0920 -0.1127
 6258W        W10002   4.581   4.155   9.517  0.0361  0.0226  0.2512
 6259W        W10003   1.708   2.169  12.123  0.0746  0.3657 -0.2233
 6260W        W10004   4.657   1.870   1.110 -0.1754  0.1755 -0.0657
 6261W        W10005   7.427   3.376   1.530  0.0447 -0.0513 -0.0621
 6262W        W10006   6.050   3.527   9.894  0.1924  0.0424 -0.1096
 6263W        W10007   9.565   0.993   2.504 -0.1898 -0.2174  0.1260
 6264W        W10008   1.657   7.854   0.410  0.1796  0.2700 -0.3308
 6265W        W10009   7.915   6.765   0.979 -0.3285  0.2103  0.3969
 6266W        W10010   9.217   8.152  10.076  0.2138 -0.0315  0.1706
 6267W        W10011   3.868   6.354   2.989  0.2753 -0.0260 -0.1238
 6268W        W10012   4.321   7.369   2.163  0.0894  0.2729  0.1170
 6269W        W10013   2.932   8.453   3.944  0.1750 -0.0537  0.1748
 6270W        W10014   8.466   6.604   9.704 -0.1745  0.0213  0.2323
 6271W        W10015   9.075   9.375  10.921 -0.1082 -0.2231  0.0760
 6272W        W10016   3.599   0.676   9.020 -0.1608 -0.0498 -0.3441
 6273W        W10017   8.289   3.991  10.944  0.1038  0.1192  0.0804
 6274W        W10018   6.020   4.877   1.315 -0.0085  0.1679  0.0234
 6275W        W10019   9.591   7.796   3.634  0.1929  0.2608 -0.0858
 6276W        W10020   5.956   4.590   3.774 -0.1055  0.1324  0.1919
 6277W        W10021   5.570   3.464   2.567 -0.0287  0.0450  0.1296
 6278W        W10022   9.079   1.833  11.917  0.0101  0.0616  0.1558
 6279W        W10023   7.825   3.119  11.307  0.4209 -0.1329  0.0888
 6280W        W10024   6.066   8.397  12.647  0.2886 -0.0954  0.1939
 6281W        W10025   6.459   6.026   0.565  0.2313 -0.1352  0.0477
 6282W        W10026   0.841   6.630   2.828  0.0997 -0.0076 -0.2691
 6283W        W10027   3.031   0.415   3.589  0.0666  0.2411 -0.1430
 6284W        W10028   2.971   6.002  11.718 -0.1451  0.1624 -0.0369
 6285W        W10029   1.688   8.946  10.627 -0.0243 -0.1375 -0.0351
 6286W        W10030   3.024   6.761   2.567 -0.3618 -0.2512  0.1060
 6287W        W10031   9.498   0.417   3.041 -0.1618  0.2798  0.0127
 6288W        W10032   6.936   3.070   4.109 -0.0978 -0.1225  0.1156
 6289W        W10033   7.899   0.923   0.957  0.1134  0.0552 -0.1585
 6290W        W10034   7.311   8.999   9.416 -0.0010  0.0280  0.1493
 6291W        W10035   0.176   4.646  11.498 -0.0698  0.0571  0.0376
 6292W        W10036   7.162   3.041  10.147 -0.3968 -0.0029  0.0482
 6293W        W10037   8.196   6.480  11.052  0.0576 -0.0424 -0.1305
 6294W        W10038   8.700   8.787   2.957 -0.0733 -0.0057 -0.1485
 6295W        W10039   4.981   5.782  12.467  0.1776  0.2504 -0.1738
 6296W        W10040   8.007   5.519   2.517  0.0927  0.0175  0.3551
 6297W        W10041   4.874   4.229   9.953 -0.1753 -0.1066 -0.2673
 6298W        W10042   9.935   8.118  10.183  0.1959 -0.0345 -0.2484
 6299W        W10043   6.615   2.883   3.164  0.1817  0.0338  0.1838
 6300W        W10044   2.899   7.452   9.102 -0.1078 -0.0950 -0.2459
 6301W        W10045   4.442   4.374  11.727 -0.3256 -0.1794 -0.2361
 6302W        W10046   9.564   9.581  10.941  0.3426 -0.1634  0.1636
 6303W        W10047   2.491   6.686  10.839 -0.2900  0.1869  0.3221
 6304W        W10048   7.717   5.772   4.552 -0.3334 -0.1428  0.3399
 6305W        W10049   4.726   7.323   8.437 -0.0354 -0.1680  0.0171
 6306W        W10050   0.035   0.599  11.790 -0.0698 -0.1927 -0.1579
 6307W        W10051   9.870   5.591   0.120 -0.3092 -0.2202 -0.4245
 6308W        W10052   5.323   2.061   1.921 -0.0681  0.2470 -0.1521
 6309W        W10053   8.535   9.655   1.987  0.1316  0.0722  0.1023
 6310W        W10054   5.282   9.412   0.322 -0.0310  0.1871 -0.0698
 6311W        W10055   4.929   9.054  10.522 -0.0219 -0.2161  0.3160
 6312W        W10056   1.030   5.189  11.583 -0.1361 -0.0326 -0.0436
 6313W        W10057   5.226   7.099   3.797  0.0667  0.1301  0.1098
 6314W        W10058   3.893   3.943   3.281  0.1311 -0.0777 -0.1439
 6315W        W10059   8.800   8.820   0.456 -0.2044 -0.0234 -0.0273
 6316W        W10060   8.778   6.370   3.598 -0.4566  0.1849  0.0431
 6317W        W10061   2.062   0.707   9.756  0.2910 -0.2085  0.1693
 6318W        W10062   7.397   0.031   2.855  0.0157  0.0803 -0.0601
 6319W        W10063   0.833   0.306  11.153  0.0126  0.1050  0.3741
 6320W        W10064   3.803   4.689   0.450  0.4285  0.1228 -0.2918
 6321W        W10065   9.732   5.222   2.877 -0.1684 -0.0609 -0.2615
 6322W        W10066   7.642   7.085  12.627 -0.0961  0.0802 -0.0309
 6323W        W10067   7.074   8.112   4.154  0.0757 -0.0531 -0.2900
 6324W        W10068   6.585   2.873  10.920  0.0032 -0.0081 -0.0119
 6325W        W10069   8.456   0.196   1.071 -0.0422 -0.0050 -0.1744
 6326W        W10070   4.327   3.388   2.607 -0.1904  0.2999 -0.1795
 6327W        W10071   7.141   4.359   9.390 -0.2185 -0.0517 -0.2484
 6328W        W10072   2.069   7.313   2.581 -0.2830 -0.0072  0.2013
 6329W        W10073   6.401   4.110   0.369  0.2799 -0.0132 -0.0746
 6330W        W10074   5.257   7.333   9.631 -0.0455  0.3984  0.1068
 6331W        W10075   5.777   4.321  10.303  0.0546  0.2048  0.1382
 6332W        W10076   9.712   1.292   2.134  0.1053 -0.0863 -0.0037
 6333W        W10077   7.673   1.668  11.760  0.0147  0.1802  0.0031
 6334W        W10078   3.167   4.234  11.945  0.2358 -0.2129  0.1177
 6335W        W10079   6.620   7.879   1.333 -0.2475 -0.0991  0.2281
 6336W        W10080   7.153   1.753   2.518  0.2445 -0.1196 -0.0660
 6337W        W10081   3.585   2.523  11.399 -0.0302  0.0231  0.0168
 6338W        W10082   2.386   8.239   2.020  0.1328 -0.2184  0.2799
 6339W        W10083   4.031   8.166   3.368 -0.0298  0.1117 -0.0307
 6340W        W10084   1.909   2.910   8.975 -0.0344  0.0178  0.0866
 6341W        W10085   2.514   4.992   2.674  0.1425 -0.0083 -0.1491
 6342W        W10086   7.057   7.248   0.763  0.0099 -0.0021  0.3045
 6343W        W10087   0.044   2.839   2.958  0.0193 -0.0019  0.0380
 6344W        W10088   1.520   9.837   8.415 -0.0520 -0.3690 -0.3860
 6345W        W10089   5.017   2.703   1.126  0.0421  0.1190  0.1041
 6346W        W10090   3.311   7.122   1.765  0.0432 -0.0434  0.1541
 6347W        W10091   3.419   0.757   3.114 -0.2080  0.1029 -0.1310
 6348W        W10092   2.090   1.358  12.598 -0.6151 -0.2574  0.2941
 6349W        W10093   6.276   8.093   0.628 -0.2024  0.0213 -0.1406
 6350W        W10094   4.786   6.083  11.763 -0.2721 -0.2214  0.2677
 6351W        W10095   4.422   4.796   2.306 -0.0177 -0.0899  0.1484
 6352W        W10096   2.838   5.897   3.008  0.2777 -0.3762 -0.3572
 6353W        W10097   7.802   9.840  11.534  0.2992  0.0770 -0.2648
 6354W        W10098   8.016   8.791   8.960 -0.0985  0.3495 -0.1504
 6355W        W10099   6.573   2.069  10.311  0.5091  0.0360  0.3864
 6356W        W10100   7.573   8.482   1.095  0.1358  0.0354 -0.0692
 6357W        W10101   1.853   9.689  11.737  0.4842  0.1444  0.1054
 6358W        W10102   8.870   5.266   0.949  0.1567  0.3589  0.1556
 6359W        W10103   3.751   4.384   8.533 -0.1603  0.0757  0.0874
 6360W        W10104   7.801   6.199   3.625 -0.0477 -0.2616  0.2388
 6361W        W10105   3.848   7.950   0.559  0.0250  0.4153  0.1134
 6362W        W10106   4.248   5.947   2.254 -0.1491 -0.1267 -0.0897
 6363W        W10107   9.721   3.023  12.313  0.0153  0.0501 -0.2125
 6364W        W10108   5.571   4.637   9.789  0.0489  0.2129  0.1246
 6365W        W10109   7.503   5.831   9.660 -0.1531 -0.0933  0.1804
 6366W        W10110   4.915   3.888   1.481 -0.1325  0.1535  0.0345
 6367W        W10111   2.247   8.565  10.839 -0.1291 -0.2800 -0.1561
 6368W        W10112   1.657   7.653   3.409  0.1501 -0.0494 -0.0569
 6369W        W10113   1.876   9.239  11.399  0.0628 -0.2326  0.0647
 6370W        W10114   8.746   1.347   3.000  0.0479 -0.0828 -0.2538
 6371W        W10115   6.803   6.578   1.393 -0.2837 -0.2555  0.2546
 6372W        W10116   6.095   8.792   9.790  0.3933 -0.1762  0.0966
 6373W        W10117   4.683   9.254   9.509  0.1063 -0.1474  0.2766
 6374W        W10118   4.713   9.608   1.137 -0.2076 -0.1864 -0.1207
 6375W        W10119   4.019   0.599   9.345 -0.0373  0.0466  0.0890
 6376W        W10120   1.401   5.430   3.409 -0.0314 -0.2339 -0.1480
 6377W        W10121   6.755   5.958   3.740 -0.0847  0.0052 -0.0402
 6378W        W10122   5.697   3.816   9.791 -0.0947 -0.2509 -0.0040
 6379W        W10123   5.130   5.192   0.817  0.1365 -0.0420 -0.1176
 6380W        W10124   4.745   1.713   2.803 -0.1348  0.1612 -0.1045
 6381W        W10125   6.724   0.697   1.781 -0.0828  0.3214  0.2752
 6382W        W10126   8.906   8.762  12.573  0.1497  0.0659 -0.1313
 6383W        W10127   9.174   4.487  11.773  0.2907 -0.1446  0.1654
 6384W        W10128   8.115   8.847   7.981  0.2313 -0.1029 -0.0108
 6385W        W10129   6.611   0.566   8.631 -0.1598  0.2599  0.3046
 6386W        W10130   3.824   3.652   2.486 -0.1014 -0.1429 -0.0508
 6387W        W10131   9.863   5.654   9.799  0.1687 -0.0209 -0.1395
 6388W        W10132   8.471   3.132   9.435  0.2113  0.0476  0.1932
 6389W        W10133   4.426   0.137   9.139 -0.1944  0.2922  0.1319
 6390W        W10134   8.276   0.623  10.878 -0.0560  0.1394 -0.2783
 6391W        W10135   3.546   6.635   9.411 -0.1643 -0.1176 -0.2966
 6392W        W10136   6.845   5.538  11.598  0.0539  0.1072  0.4730
 6393W        W10137   4.514   6.146   9.648  0.1320  0.2035  0.2719
 6394W        W10138   8.242   9.589   3.129 -0.1811 -0.0464  0.1266
 6395W        W10139   2.475   6.740  11.298 -0.4881 -0.0212 -0.1164
 6396W        W10140   1.158   9.487   2.568 -0.1373  0.2882 -0.1511
 6397W        W10141   5.274   4.909   9.176  0.0024  0.0982  0.0504
 6398W        W10142   2.579   9.214   0.334  0.0026  0.0885 -0.0004
 6399W        W10143   0.263   3.186  12.203 -0.0176  0.1306 -0.0104
 6400W        W10144   4.670   7.044   3.062 -0.1184  0.2459  0.1609
 6401W        W10145   3.771   1.385   8.715 -0.1465  0.2486 -0.2091
 6402W        W10146   6.776   7.749   9.597 -0.1390 -0.0935 -0.1821
 6403W        W10147   2.613   7.713  11.864 -0.3233  0.0832  0.1765
 6404W        W10148   1.774   9.772   3.218  0.0550  0.1653 -0.0033
 6405W        W10149   2.607   1.220   3.440 -0.1124  0.1296  0.1329
 6406W        W10150   9.668   6.878   1.447  0.0119  0.0606 -0.0105
 6407W        W10151   3.885   0.830  11.673  0.1199 -0.1944 -0.1790
 6408W        W10152   8.068   7.406   9.044  0.0868  0.0952  0.3773
 6409W        W10153   3.149   9.862  10.772 -0.0604 -0.2419 -0.0299
 6410W        W10154   8.947   3.731  10.245 -0.1235 -0.1871  0.0345
 6411W        W10155   4.858   4.877   3.439  0.4944 -0.1322 -0.0788
 6412W        W10156   4.691   2.059   3.819 -0.1793 -0.2626 -0.1523
 6413W        W10157   6.383   6.891   1.459 -0.1466 -0.0336  0.1387
 6414W        W10158   2.719   4.783   8.439  0.3041 -0.0092 -0.1971
 6415W        W10159   7.354   2.265   2.976 -0.0995  0.3067  0.2408
 6416W        W10160   5.505   5.270  12.016  0.1101 -0.0554  0.0020
 6417W        W10161   3.267   6.415   4.279  0.2569  0.2020 -0.1282
 6418W        W10162   8.989   7.568   2.768 -0.0656  0.0940  0.1270
 6419W        W10163   8.589   7.924   1.068 -0.1886 -0.0751  0.0976
 6420W        W10164   8.863   4.668  12.696  0.0128 -0.0640  0.1872
 6421W        W10165   2.629   5.996  11.324 -0.3071  0.3068  0.4094
 6422W        W10166   5.871   2.334  12.466 -0.0762 -0.1948 -0.1534
 6423W        W10167   0.188   0.705  12.273  0.2066 -0.0429  0.1678
 6424W        W10168   5.389   3.777   1.890 -0.2123 -0.3967  0.1784
 6425W        W10169   9.738   9.133   0.837  0.1078 -0.3455 -0.0295
 6426W        W10170   4.833   5.363  10.833  0.2118  0.3602 -0.2396
 6427W        W10171   5.884   3.372   0.620  0.2167 -0.1503 -0.0337
 6428W        W10172   0.078   9.045   3.264 -0.2108  0.3101  0.4210
 6429W        W10173   0.740   8.985   0.840  0.2233  0.0015 -0.1476
 6430W        W10174   1.355   4.755   1.180  0.0179  0.2470 -0.0373
 6431W        W10175   1.461   4.387  10.048 -0.1145 -0.0787  0.1644
 6432W        W10176   1.421   2.110   2.278  0.1269 -0.1107 -0.1391
 6433W        W10177   8.229   0.849  11.358  0.0854 -0.2038 -0.1852
 6434W        W10178   0.951   1.532  10.519 -0.0380 -0.4506  0.0127
 6435W        W10179   2.534   5.532  12.750 -0.0092 -0.0538 -0.1141
 6436W        W10180   0.419   0.472  11.502  0.2192 -0.4866 -0.1748
 6437W        W10181   1.412   9.861  11.619 -0.0768  0.0107  0.1770
 6438W        W10182   7.518   9.433   4.559 -0.0937 -0.0202 -0.2774
 6439W        W10183   8.478   4.632   3.264  0.0833 -0.1684 -0.0525
 6440W        W10184   2.004   8.675   1.595 -0.0019  0.1586 -0.0428
 6441W        W10185   3.830   5.533  12.787  0.1845 -0.2244  0.0375
 6442W        W10186   5.931   5.606   2.514  0.0319 -0.1763 -0.0083
 6443W        W10187   4.665   8.750   9.093  0.1320  0.1988 -0.0114
 6444W        W10188   6.679   2.090   2.695 -0.1356 -0.2145  0.0607
 6445W        W10189   4.283   7.467   9.650  0.4048 -0.0491  0.0462
 6446W        W10190   9.272   3.518   9.817  0.0323 -0.0118 -0.0754
 6447W        W10191   3.795   0.583   0.585 -0.3243  0.0571  0.1231
 6448W        W10192   0.062   7.515   3.806 -0.2324 -0.1163  0.2662
 6449W        W10193   2.120   2.381   0.314  0.0075 -0.2346 -0.0781
 6450W        W10194   8.428   9.231   9.258  0.3831 -0.0631 -0.4039
 6451W        W10195   9.915   2.662   1.558 -0.1999 -0.0429 -0.1087
 6452W        W10196   2.533   4.758   4.426  0.1263  0.0055  0.0806
 6453W        W10197   7.877   4.034   9.447  0.0296 -0.1329  0.2678
 6454W        W10198   6.025   4.808  11.515  0.1942 -0.0776 -0.4302
 6455W        W10199   3.463   9.451   3.271 -0.0004 -0.0092 -0.5200
 6456W        W10200   6.567   9.705   4.119  0.1791 -0.0793  0.1073
 6457W        W10201   0.520   5.583   0.424 -0.0825  0.0021  0.2804
 6458W        W10202   4.431   3.037   2.986 -0.3102 -0.2688  0.5169
 6459W        W10203   2.682   2.687  12.766 -0.0288 -0.0387 -0.2850
 6460W        W10204   1.514   0.944   2.127  0.0487  0.2357  0.0362
 6461W        W10205   4.478   5.781   3.141 -0.2300 -0.3238 -0.1620
 6462W        W10206   9.726   8.907   9.636  0.1967  0.1953 -0.2584
 6463W        W10207   1.850   5.280  10.300 -0.0076 -0.0538  0.0841
 6464W        W10208   1.480   5.271   1.708  0.1714  0.3383 -0.2223
 6465W        W10209   5.991   5.742  11.789 -0.0437 -0.2500 -0.3942
 6466W        W10210   8.386   6.205   2.646  0.0432 -0.1097  0.1540
 6467W        W10211   9.184   3.927   0.244 -0.1993 -0.3297  0.0980
 6468W        W10212   7.019   3.408  10.989 -0.2212 -0.3499 -0.0926
 6469W        W10213   0.885   8.593   2.403  0.1447  0.0375  0.1943
 6470W        W10214   0.146   3.337   0.890 -0.4189  0.1382  0.4123
 6471W        W10215   2.033   0.096   2.885 -0.3275  0.0929 -0.1428
 6472W        W10216   2.593   8.601  12.114  0.0038  0.2885 -0.1035
 6473W        W10217   5.879   8.883  10.809 -0.0978  0.0398  0.2628
 6474W        W10218   3.968   5.038   8.184 -0.3033 -0.0198 -0.1181
 6475W        W10219   0.246   4.098  11.539  0.0476  0.1719 -0.1681
 6476W        W10220   7.017   0.481   1.188  0.0607 -0.2924  0.1327
 6477W        W10221   8.181   2.148   2.537 -0.0595  0.0054  0.0947
 6478W        W10222   6.933   9.020   1.524 -0.1828 -0.0336 -0.0342
 6479W        W10223   8.614   4.040   3.699  0.0097 -0.0291 -0.0431
 6480W        W10224   7.529   5.427  10.078 -0.0361 -0.1582 -0.3188
 6481W        W10225   1.985   3.236  12.767  0.0269 -0.1884  0.3161
 6482W        W10226   3.552   6.430   3.441  0.0188 -0.0693 -0.2100
 6483W        W10227   4.919   1.585  10.445  0.1603 -0.0924 -0.2484
 6484W        W10228   9.055   4.041  10.996  0.3733 -0.2435 -0.0501
 6485W        W10229   7.428   9.468  10.268 -0.1127  0.3232  0.1269
 6486W        W10230   3.235   4.783   3.418 -0.0973  0.0724  0.0120
 6487W        W10231   4.438   9.428   2.439  0.0136 -0.0637  0.0050
 6488W        W10232   0.286   1.535  11.637  0.0176  0.2565 -0.1306
 6489W        W10233   0.062   1.508   3.677 -0.2617 -0.0130  0.1412
 6490W        W10234   7.963   2.912   2.647  0.0622  0.0335  0.1079
 6491W        W10235   6.834   0.896  10.545  0.2148  0.0548 -0.0381
 6492W        W10236   7.698   6.074  11.730 -0.3305  0.0672 -0.1157
 6493W        W10237   7.580   6.000   2.270 -0.1923 -0.1704  0.2565
 6494W        W10238   9.138   2.578   2.896 -0.2333 -0.1384  0.0145
 6495W        W10239   9.712   5.925  11.148 -0.0839  0.1544 -0.0705
 6496W        W10240   8.358   8.831   0.001 -0.0518 -0.0702 -0.0172
 6497W        W10241   7.668   7.996   0.545  0.1051  0.2992 -0.1569
 6498W        W10242   0.201   8.147  11.430  0.1477 -0.0620 -0.2517
 6499W        W10243   9.146   9.448  11.842  0.0908  0.0181 -0.0772
 6500W        W10244   2.156   5.342   1.133 -0.1746  0.0393  0.1507
 6501W        W10245   5.716   2.285  11.512  0.0897 -0.1082 -0.1477
 6502W        W10246   0.298   1.164  12.359 -0.1175 -0.2615 -0.0858
 6503W        W10247   5.946   8.932   9.258  0.0537  0.1007 -0.3308
 6504W        W10248   6.435   4.587   0.467  0.0090 -0.2217 -0.0910
 6505W        W10249   0.733   9.088   9.446  0.1731  0.0999  0.1577
 6506W        W10250   8.246   9.884  10.018  0.0458  0.2603  0.4162
 6507W        W10251   4.417   4.493   1.216 -0.1222  0.0079  0.1402
 6508W        W10252   4.994   2.151  10.980  0.2516 -0.1943 -0.0006
 6509W        W10253   4.733   3.215   9.213  0.1707  0.5342 -0.2929
 6510W        W10254   8.521   1.442  10.870  0.0333 -0.0521 -0.0851
 6511W        W10255   1.611   6.310  10.314  0.0306 -0.0518 -0.2498
 6512W        W10256   7.686   2.806   1.030  0.1535 -0.1046 -0.3048
 6513W        W10257   1.391   2.917  11.386 -0.1524  0.1400  0.1167
 6514W        W10258   8.481   1.881   3.986  0.1620 -0.2612 -0.0260
 6515W        W10259   2.378   7.283   3.527  0.1884 -0.1162 -0.4038
 6516W        W10260   4.120   7.145   5.195 -0.0016  0.4363  0.0664
 6517W        W10261   2.716   1.109   1.861 -0.4578 -0.0114  0.3451
 6518W        W10262   8.678   8.278   0.695 -0.2136  0.0817 -0.1457
 6519W        W10263   3.116   9.284   0.312  0.2591 -0.0346 -0.0997
 6520W        W10264   8.321   4.315   2.365  0.0417 -0.1917 -0.3983
 6521W        W10265   9.864   4.953  12.411  0.0396  0.1272 -0.3966
 6522W        W10266   0.016   2.376   3.317  0.1568  0.1887 -0.1314
 6523W        W10267   1.874   1.248  11.097 -0.1434  0.2359 -0.1788
 6524W        W10268   3.675   7.276  10.586 -0.0677 -0.2881  0.0696
 6525W        W10269   6.568   4.740   1.156  0.0517  0.2061 -0.1436
 6526W        W10270   8.778   0.968   2.119 -0.1166  0.2147  0.0631
 6527W        W10271   8.820   6.948   9.711  0.1507  0.0923 -0.0251
 6528W        W10272   4.146   3.261   2.166 -0.0010 -0.4343 -0.1079
 6529W        W10273   5.569   8.218  11.399 -0.3004  0.1623  0.0979
 6530W        W10274   9.720   2.392   0.452 -0.0408 -0.0426  0.0260
 6531W        W10275   9.870   7.137   0.820  0.2040  0.3199 -0.1342
 6532W        W10276   7.786   7.155   4.962  0.0981  0.0433  0.0522
 6533W        W10277   5.723   0.270   8.395  0.0005 -0.0401  0.1513
 6534W        W10278   5.750   5.962   0.514  0.0268  0.3293 -0.1170
 6535W        W10279   4.651   7.303  11.774  0.0140 -0.0746 -0.1907
 6536W        W10280   1.510   1.895   9.096 -0.1528 -0.0802  0.2395
 6537W        W10281   1.621   7.564  10.203 -0.1551  0.0521 -0.2446
 6538W        W10282   6.253   7.310   4.037 -0.0900 -0.2235 -0.2486
 6539W        W10283   1.845   1.535   1.039  0.0883 -0.1924 -0.3092
 6540W        W10284   3.235   6.428  12.765 -0.0739 -0.4752 -0.1145
 6541W        W10285   4.683   5.253   0.349  0.0293  0.1078  0.2001
 6542W        W10286   2.533   3.160  12.805  0.0473 -0.0608  0.0117
 6543W        W10287   6.868   6.329   1.826 -0.0350 -0.3810 -0.0393
 6544W        W10288   6.725   9.027  11.462  0.1271 -0.0144  0.1842
 6545W        W10289   6.801   5.833  10.189  0.1053  0.0638 -0.3973
 6546W        W10290   6.188   9.583  12.344 -0.2603  0.1559  0.0847
 6547W        W10291   5.022   8.920   1.653  0.3732  0.0112  0.0481
 6548W        W10292   2.528   7.403   1.927  0.2493  0.1587  0.2395
 6549W        W10293   8.439   9.744   0.750 -0.0988 -0.1080 -0.3036
 6550W        W10294   5.355   3.429  11.152  0.2806 -0.3452  0.1274
 6551W        W10295   3.756   1.145   2.157 -0.1377  0.2654 -0.0513
 6552W        W10296   4.375   6.008   8.919  0.0940  0.3475  0.0310
 6553W        W10297   3.142   0.603  12.263 -0.0694  0.0446 -0.0163
 6554W        W10298   8.115   5.673   4.319 -0.2697  0.1973 -0.0014
 6555W        W10299   9.501   2.982   1.718 -0.0154  0.1690 -0.0704
 6556W        W10300   0.853   4.824  11.930  0.2356 -0.2156  0.2457
 6557W        W10301   0.440   7.577   8.458  0.0483  0.1180  0.1820
 6558W        W10302   1.620   5.812  12.777  0.0835 -0.1290 -0.0004
 6559W        W10303   8.028   4.425  10.684 -0.1325 -0.0458  0.0863
 6560W        W10304   9.467   5.346  12.489 -0.0874  0.0381  0.1059
 6561W        W10305   4.867   7.898   1.791 -0.2961 -0.2089 -0.0035
 6562W        W10306   7.974   0.768  11.922 -0.2741 -0.0761 -0.1317
 6563W        W10307   5.269   0.816  11.316 -0.1721  0.0730  0.1890
 6564W        W10308   8.952   5.741  10.053 -0.4053  0.1077 -0.3174
 6565W        W10309   9.246   6.643   4.143  0.0202  0.2626  0.1790
 6566W        W10310   3.327   3.468  12.089 -0.1052 -0.2387 -0.0835
 6567W        W10311   3.823   3.225   3.743  0.1495 -0.1653 -0.2496
 6568W        W10312   6.918   7.127   8.460 -0.0962  0.2881  0.1865
 6569W        W10313   1.667   6.352  11.383  0.0117 -0.1066 -0.1531
 6570W        W10314   0.092   8.254   2.573 -0.0212  0.3337  0.0711
 6571W        W10315   4.744   6.576  11.869  0.1323 -0.1329  0.4055
 6572W        W10316   4.783   3.518   8.757 -0.2607 -0.0040 -0.0747
 6573W        W10317   8.871   5.116   1.468  0.0226  0.4760 -0.0562
 6574W        W10318   3.110   6.495  11.843 -0.1880 -0.2225  0.2167
 6575W        W10319   5.051   4.086  10.371  0.0419  0.0708 -0.0334
 6576W        W10320   1.875   4.563  10.542  0.0073  0.3622  0.1432
 6577W        W10321   4.580   2.164  11.329  0.1301  0.3213  0.1603
 6578W        W10322   4.520   0.055  10.234 -0.0685  0.0260  0.1089
 6579W        W10323   9.041   2.794  11.113  0.1726  0.0175  0.2102
 6580W        W10324   5.395   2.541  11.007  0.2983 -0.0370 -0.0301
 6581W        W10325   4.567   0.009   7.850 -0.1881  0.1213 -0.1511
 6582W        W10326   1.783   1.830   0.613 -0.3521 -0.3327 -0.1372
 6583W        W10327   3.179   7.022   9.242 -0.1551  0.0980  0.1561
 6584W        W10328   4.805   7.196   8.957 -0.0753  0.1908  0.1626
 6585W        W10329   5.999   1.243  12.416 -0.0578 -0.1046  0.0055
 6586W        W10330   2.942   3.020   0.197 -0.0642  0.0919  0.0219
 6587W        W10331   7.943   4.603   9.547 -0.1660  0.1162 -0.1708
 6588W        W10332   9.215   6.424   7.985  0.3046  0.1802 -0.0591
 6589W        W10333   2.895   3.018   3.362 -0.1128  0.0188  0.0269
 6590W        W10334   6.703   7.273  12.389  0.0868 -0.2225 -0.2180
 6591W        W10335   7.399   0.125  12.518 -0.3467 -0.1813  0.3158
 6592W        W10336   0.713   2.626   2.669  0.1543 -0.3079 -0.3396
 6593W        W10337   7.313   6.606  10.209 -0.2035 -0.0125  0.1349
 6594W        W10338   9.881   1.441  11.143 -0.0090 -0.0960  0.0186
 6595W        W10339   1.760   3.387   2.839  0.1136  0.1612  0.1636
 6596W        W10340   5.768   6.318  12.001 -0.1194  0.0603 -0.1908
 6597W        W10341   3.481   6.724  10.501  0.1019 -0.0076  0.0827
 6598W        W10342   0.344   3.238   2.190  0.2521 -0.2611 -0.1522
 6599W        W10343   1.887   3.162   1.751  0.0832 -0.0973 -0.1961
 6600W        W10344   8.259   7.931  11.593 -0.2213  0.2044  0.1575
 6601W        W10345   6.416   4.607   3.898 -0.0052 -0.0767  0.0369
 6602W        W10346   7.816   3.691   1.013 -0.0085  0.2062  0.0432
 6603W        W10347   5.716   3.992  12.745  0.2930  0.0410 -0.1042
 6604W        W10348   3.139   6.335   9.560  0.1277 -0.3028  0.1681
 6605W        W10349   3.326   8.091   0.416 -0.1674  0.3729 -0.0455
 6606W        W10350   0.157   3.262  11.296 -0.1031  0.4247 -0.1500
 6607W        W10351   1.206   8.213  10.595 -0.1114 -0.2002  0.0725
 6608W        W10352   5.080   4.369  12.239  0.2914  0.0356  0.2708
 6609W        W10353   0.414   0.756  11.053 -0.0720 -0.0993  0.1248
 6610W        W10354   1.859   9.464   3.855 -0.0107  0.1973 -0.1894
 6611W        W10355   4.241   2.983   4.353  0.0337 -0.0919  0.2397
 6612W        W10356   5.929   7.274   8.479  0.2110 -0.3130 -0.1203
 6613W        W10357   0.625   7.831   0.871 -0.1888 -0.2389 -0.2799
 6614W        W10358   2.619   6.376   8.795 -0.2025 -0.2190  0.2347
 6615W        W10359   6.527   6.161   9.238 -0.1316 -0.0999 -0.1990
 6616W        W10360   5.160   1.358  12.274  0.0507 -0.0898  0.0402
 6617W        W10361   5.590   0.240   3.704 -0.0571  0.0997  0.2793
 6618W        W10362   0.373   9.336  10.765 -0.0359 -0.0944  0.1368
 6619W        W10363   8.373   3.542  10.329  0.3716 -0.0254 -0.2581
 6620W        W10364   8.285   1.580  12.170 -0.0733 -0.0696  0.1922
 6621W        W10365   1.200   5.819   8.371  0.0625  0.3465 -0.0476
 6622W        W10366   2.633   7.161  10.923 -0.1561 -0.1411 -0.3399
 6623W        W10367   6.052   2.073   9.439 -0.0687  0.2598 -0.0010
 6624W        W10368   1.302   8.534  10.208 -0.0165 -0.3471  0.2144
 6625W        W10369   0.110   1.063  10.811 -0.1470 -0.0446  0.0221
 6626W        W10370   3.551   0.682  10.733 -0.0632  0.0013  0.2329
 6627W        W10371   3.431   4.964   9.739 -0.2140 -0.0068  0.0163
 6628W        W10372   5.359   2.203  11.942  0.1763 -0.3456 -0.0687
 6629W        W10373   9.836   9.645   9.241 -0.1464 -0.0394  0.4263
 6630W        W10374   3.273   6.296  10.307  0.3781  0.0750 -0.0941
 6631W        W10375   1.359   7.191   3.330  0.4228  0.0843  0.0808
 6632W        W10376   9.259   8.676   8.777  0.0301  0.2419  0.0563
 6633W        W10377   7.125   1.936   1.953  0.2824 -0.1280  0.3166
 6634W        W10378   4.437   9.282   3.405  0.0927 -0.1546  0.1280
 6635W        W10379   1.365   5.823   1.980  0.3855  0.0784  0.1144
 6636W        W10380   8.831   7.232  12.072  0.1002  0.1665 -0.0943
 6637W        W10381   9.424   9.238  10.540 -0.2048 -0.1865  0.2302
 6638W        W10382   1.972   5.907  10.349  0.0266  0.1569 -0.0775
 6639W        W10383   8.281   8.061  10.146 -0.0277  0.1259  0.2569
 6640W        W10384   6.128   1.287  10.924  0.0417  0.0702 -0.2530
 6641W        W10385   3.080   2.100   3.723  0.0521  0.2548 -0.1502
 6642W        W10386   4.355   0.272  11.500  0.0272 -0.2894  0.1406
 6643W        W10387   3.755   7.366   3.054 -0.1185 -0.1699 -0.0608
 6644W        W10388   6.139   3.168  11.150 -0.1316 -0.1378  0.2693
 6645W        W10389   8.377   9.727   9.540  0.0551 -0.0763 -0.1238
 6646W        W10390   2.956   9.472   3.141 -0.3048  0.1768  0.5265
 6647W        W10391   9.030   7.950   1.871  0.1860 -0.3418 -0.0295
 6648W        W10392   7.264   4.298  12.016 -0.0682 -0.0440  0.0053
 6649W        W10393   1.845   6.968   0.752 -0.0677  0.1594 -0.0863
 6650W        W10394   8.613   3.372  12.604  0.1066  0.0730  0.0434
 6651W        W10395   9.843   6.613  11.770  0.1094 -0.0699 -0.1055
 6652W        W10396   9.443   1.662   2.397  0.0573  0.1940 -0.3742
 6653W        W10397   7.712   9.587   3.634 -0.0490  0.0276 -0.0362
 6654W        W10398   0.004   0.457  12.729  0.0642  0.0437 -0.1454
 6655W        W10399   2.096   9.398   3.381 -0.1872 -0.4208 -0.4456
 6656W        W10400   6.809   2.266  12.331  0.1365  0.0106 -0.0381
 6657W        W10401   4.489   9.757  11.336 -0.0776 -0.0747  0.0474
 6658W        W10402   5.493   4.225  11.463 -0.0598  0.6271 -0.3754
 6659W        W10403   8.870   4.274  10.096  0.0280  0.0141  0.3021
 6660W        W10404   0.208   0.467   1.819 -0.0105  0.1190 -0.1602
 6661W        W10405   5.666   7.180   2.533 -0.2016  0.0987 -0.0606
 6662W        W10406   5.788   8.951   2.218  0.0377 -0.1460 -0.1847
 6663W        W10407   7.032   7.934   2.318  0.0504  0.0941  0.1177
 6664W        W10408   7.713   4.244  10.318 -0.0007 -0.1752 -0.1825
 6665W        W10409   9.259   3.049  11.459 -0.0674  0.1626  0.0703
 6666W        W10410   7.548   6.360   9.777  0.3158  0.0833  0.0386
 6667W        W10411   7.785   7.087   8.822 -0.0999  0.2965  0.1689
 6668W        W10412   9.235   6.181  11.108 -0.0895  0.3391 -0.3450
 6669W        W10413   3.213   1.131   0.544  0.4935  0.0820 -0.0571
 6670W        W10414   5.716   2.801   4.054 -0.2348  0.0034 -0.0247
 6671W        W10415   9.014   6.798   3.564 -0.2075  0.0198  0.0461
 6672W        W10416   7.062   9.506   3.065  0.0710  0.1590  0.4425
 6673W        W10417   0.797   4.810   3.227  0.2116 -0.0345 -0.0048
 6674W        W10418   1.148   5.834   3.571  0.5334  0.0066  0.0994
 6675W        W10419   2.434   3.243  11.010  0.4403  0.1837 -0.1614
 6676W        W10420   3.834   8.214  10.575 -0.0267  0.0001 -0.1886
 6677W        W10421   1.029   1.647   0.007 -0.1528  0.0080  0.2213
 6678W        W10422   1.526   5.041  12.273  0.0151 -0.0271 -0.3353
 6679W        W10423   2.961   2.037   0.697 -0.4752 -0.1858 -0.0907
 6680W        W10424   5.003   4.026   3.977  0.2865 -0.0330  0.3094
 6681W        W10425   8.729   9.655  10.105  0.2106 -0.0571  0.1872
 6682W        W10426   0.783   1.947  10.803  0.0054 -0.1639 -0.1678
 6683W        W10427   8.350   5.493   9.511 -0.0385 -0.1124  0.0713
 6684W        W10428   7.772   6.152   9.317 -0.1286  0.1718 -0.0618
 6685W        W10429   9.476   3.496  12.811  0.0405 -0.2307  0.0455
 6686W        W10430   1.865   6.821   1.843 -0.0592  0.1991  0.0040
 6687W        W10431   7.564   7.590  12.706  0.0904 -0.4954  0.0891
 6688W        W10432   2.864   3.299   3.902  0.0556 -0.1096  0.0004
 6689W        W10433   7.384   5.280  12.368 -0.0267  0.3651 -0.1582
 6690W        W10434   3.059   1.055  11.961  0.3872 -0.1743 -0.2181
 6691W        W10435   4.665   0.457   3.607 -0.4157 -0.1150  0.1049
 6692W        W10436   3.761   2.345   9.902 -0.2116  0.0033  0.1221
 6693W        W10437   9.121   1.604   0.386 -0.3286 -0.0387 -0.0324
 6694W        W10438   3.238   4.629   8.511  0.0742 -0.1418  0.0073
 6695W        W10439   2.851   5.042   3.053 -0.1309 -0.3391 -0.1498
 6696W        W10440   4.653   3.695   4.169  0.1269  0.1289 -0.1418
 6697W        W10441   6.940   1.693   1.522 -0.1347  0.1584  0.1071
 6698W        W10442   9.860   8.636   2.189 -0.1145  0.2988 -0.2070
 6699W        W10443   6.283   2.026   8.960 -0.0089  0.4182  0.1664
 6700W        W10444   7.988   1.070  12.499 -0.1435  0.0386 -0.0861
 6701W        W10445   9.366   9.021  11.020 -0.1110  0.0801  0.0204
 6702W        W10446   1.949   8.005  10.287  0.1495 -0.1099  0.2392
 6703W        W10447   6.003   6.845  11.947 -0.1310  0.0137  0.0609
 6704W        W10448   7.449   1.514   9.654  0.0088  0.1750 -0.1148
 6705W        W10449   9.445   5.452   3.307 -0.0780 -0.3026  0.1109
 6706W        W10450   3.617   4.463  10.790 -0.2022  0.2721  0.0064
 6707W        W10451   3.401   8.236   0.907 -0.1495 -0.0293  0.2576
 6708W        W10452   4.304   7.382  10.221 -0.1355  0.2821 -0.2876
 6709W        W10453   9.712   0.999   3.026  0.2112 -0.1479  0.1283
 6710W        W10454   1.628   2.454   3.052 -0.0323  0.0461 -0.0531
 6711W        W10455   8.309   5.380   1.184 -0.0819 -0.2549  0.2130
 6712W        W10456   1.985   0.380  10.797  0.3903 -0.1359  0.2179
 6713W        W10457   4.537   8.530   1.105 -0.0636  0.2153  0.1777
 6714W        W10458   5.806   7.750   9.061 -0.0003  0.4095  0.0913
 6715W        W10459   6.332   8.010  10.704 -0.1630 -0.1306 -0.1468
 6716W        W10460   1.838   7.083   4.207 -0.2554  0.1457 -0.0317
 6717W        W10461   6.828   4.301   0.255 -0.1553  0.0329 -0.0137
 6718W        W10462   4.193   9.312  10.768  0.0253 -0.2277 -0.0276
 6719W        W10463   7.047   1.385   3.966  0.3042  0.0979  0.1920
 6720W        W10464   3.573   2.079   2.813  0.3502 -0.1508  0.0982
 6721W        W10465   2.527   8.362   1.572  0.1696 -0.0987 -0.0531
 6722W        W10466   9.918   5.102   3.360  0.1657 -0.0510 -0.1211
 6723W        W10467   4.830   2.063   2.135  0.1399  0.1694  0.1950
 6724W        W10468   1.566   1.598  11.416  0.1158  0.2501 -0.1908
 6725W        W10469   9.526   9.837   4.182  0.4599  0.0809 -0.0278
 6726W        W10470   6.196   2.722   0.194  0.1892 -0.1242  0.4966
 6727W        W10471   8.687   0.079  12.755 -0.0783 -0.1754  0.0048
 6728W        W10472   2.502   9.287  10.141 -0.2909  0.2556 -0.1436
 6729W        W10473   6.036   3.198   1.379  0.0071  0.2884 -0.0660
 6730W        W10474   6.880   9.884  11.729 -0.1783 -0.4071 -0.0837
 6731W        W10475   0.540   2.640   0.938 -0.3198 -0.0064  0.2171
 6732W        W10476   5.959   3.610   8.710  0.2237  0.3406  0.0602
 6733W        W10477   0.920   9.376   9.109  0.0279  0.2589 -0.1283
 6734W        W10478   3.939   4.681   9.027  0.0103  0.0331  0.1302
 6735W        W10479   4.670   4.384   0.805  0.0148 -0.1219  0.1576
 6736W        W10480   7.730   5.842   3.126  0.0209  0.2977 -0.2055
 6737W        W10481   1.921   9.591  12.310  0.0499  0.0708 -0.1945
 6738W        W10482   9.779   1.885   3.466  0.1194  0.1181 -0.0511
 6739W        W10483   9.469   2.787  11.836 -0.0297 -0.0235  0.1403
 6740W        W10484   4.935   9.824  12.215  0.2181  0.0561 -0.0631
 6741W        W10485   1.451   9.409   9.919  0.0992  0.0070  0.0855
 6742W        W10486   4.533   8.441  10.503 -0.0594 -0.4800  0.2692
 6743W        W10487   6.402   4.792   1.672  0.0042 -0.2807 -0.1672
 6744W        W10488   4.570   9.196   4.008  0.3610  0.0594  0.1264
 6745W        W10489   5.133   3.154   8.975 -0.0702 -0.1193 -0.1741
 6746W        W10490   7.175   7.275   1.973  0.1053  0.2052 -0.0124
 6747W        W10491   6.140   4.062   2.258 -0.0519  0.0946 -0.1278
 6748W        W10492   6.946   6.582  11.483  0.2302 -0.4673 -0.0741
 6749W        W10493   8.856   7.874  10.922  0.0438 -0.5533  0.3685
 6750W        W10494   5.751   2.264   1.379 -0.0321  0.1303  0.0614
 6751W        W10495   9.110   3.269   1.867 -0.0359 -0.0550 -0.0852
 6752W        W10496   7.374   9.519   9.321  0.3159 -0.2468  0.3300
 6753W        W10497   3.307   5.279   9.350 -0.0823 -0.1853  0.0438
 6754W        W10498   6.340   2.158  11.446 -0.0709  0.0517  0.2542
 6755W        W10499   9.067   9.498   2.605 -0.4316  0.3994  0.0112
 6756W        W10500   0.014   7.216  11.680  0.1521  0.5128  0.1435
 6757W        W10501   9.707   6.394   8.016  0.0161 -0.0460  0.1873
 6758W        W10502   0.608   9.467   0.821 -0.0432  0.1084  0.1154
 6759W        W10503   2.375   6.975   0.016 -0.0488 -0.3045  0.0691
 6760W        W10504   4.682   2.986   4.057 -0.1593 -0.0676  0.0032
 6761W        W10505   1.847   5.894   0.524  0.2272  0.0941  0.1213
 6762W        W10506   4.865   3.824   1.994  0.1111  0.2631 -0.2507
 6763W        W10507   2.789   5.788   2.403  0.1636 -0.0352  0.0748
 6764W        W10508   2.871   3.485   0.210  0.2675  0.0040 -0.1813
 6765W        W10509   0.088   1.985   3.014  0.2863 -0.1110  0.1290
 6766W        W10510   8.395   4.709   4.039  0.0922 -0.3114  0.1173
 6767W        W10511   6.271   6.916   8.739  0.1398 -0.0658  0.1502
 6768W        W10512   8.201   4.967   2.974 -0.0283 -0.0059 -0.0442
 6769W        W10513   4.334   4.486   1.859  0.3333  0.0917  0.3936
 6770W        W10514   2.140   7.936   3.467 -0.0527  0.0659 -0.0717
 6771W        W10515   2.518   2.167  10.053  0.0867 -0.0342  0.2498
 6772W        W10516   9.110   8.119  11.288  0.1425 -0.1114  0.1116
 6773W        W10517   6.637   4.627  10.763  0.0344  0.1220 -0.0331
 6774W        W10518   1.726   3.906   9.385 -0.3120  0.1478  0.0607
 6775W        W10519   3.576   6.013   5.070 -0.0138 -0.2647  0.0642
 6776W        W10520   8.655   8.273  11.121 -0.2711 -0.1098 -0.2415
 6777W        W10521   7.585   8.039   2.450 -0.0894  0.0676  0.1010
 6778W        W10522   9.237   9.923  10.046  0.2194  0.0892  0.1037
 6779W        W10523   2.304   0.432   2.165 -0.1493  0.3948  0.0355
 6780W        W10524   5.807   0.653   3.387 -0.1768  0.1093 -0.2183
 6781W        W10525   0.851   6.789  11.145 -0.2246  0.3906  0.1160
 6782W        W10526   6.267   0.642   2.543  0.0527  0.0793  0.0321
 6783W        W10527   3.665   2.358  11.852 -0.0282  0.0405  0.0040
 6784W        W10528   6.597   1.557   3.033 -0.1294  0.1519 -0.2715
 6785W        W10529   1.020   1.032   3.650  0.3256 -0.0952  0.0369
 6786W        W10530   6.586   7.564   0.834 -0.2017 -0.2408 -0.3387
 6787W        W10531   3.643   8.774   1.593  0.0471  0.2081  0.1875
 6788W        W10532   4.293   1.902   7.748  0.3776 -0.1894  0.3557
 6789W        W10533   9.334   7.905  12.469  0.0954  0.1517  0.1705
 6790W        W10534   3.038   3.813   2.146  0.0253  0.1880  0.2196
 6791W        W10535   2.164   8.949  11.116  0.0931  0.0267 -0.1392
 6792W        W10536   8.380   3.332  10.858 -0.1768  0.3927 -0.0136
 6793W        W10537   4.503   5.863   8.410 -0.0484  0.2923  0.1437
 6794W        W10538   4.162   0.280  12.499 -0.2261 -0.1480  0.1913
 6795W        W10539   5.421   4.465  10.739 -0.1282 -0.2934 -0.1498
 6796W        W10540   1.150   7.181  11.412 -0.0853  0.1764 -0.1731
 6797W        W10541   7.603   4.466  10.989 -0.0399 -0.3287  0.0148
 6798W        W10542   4.882   5.674   5.162  0.1788  0.4272  0.1940
 6799W        W10543   0.197   7.656  11.553  0.0664  0.2859  0.0895
 6800W        W10544   7.375   9.622  12.729 -0.2623 -0.2306  0.1670
 6801W        W10545   1.245   8.345   2.989 -0.1665  0.1041  0.0398
 6802W        W10546   6.372   0.483   2.052  0.0510  0.1495 -0.0948
 6803W        W10547   8.598   9.379  10.636 -0.0368  0.3910 -0.2471
 6804W        W10548   8.313   6.457   1.076 -0.2840 -0.2016 -0.0737
 6805W        W10549   2.135   4.630  11.354 -0.0980 -0.0714 -0.4222
 6806W        W10550   6.244   0.910   0.332 -0.0267 -0.0025 -0.2256
 6807W        W10551   0.210   3.567  11.789 -0.1375  0.0548 -0.0070
 6808W        W10552   8.251   3.614   8.948  0.1556  0.0214 -0.1066
 6809W        W10553   0.294   4.771   3.329  0.0440 -0.0420 -0.0088
 6810W        W10554   1.106   0.521  10.252  0.4712  0.2755 -0.3133
 6811W        W10555   8.675   4.667   1.538  0.4163 -0.2054  0.1218
 6812W        W10556   5.271   3.084   2.655  0.1206  0.2911  0.0074
 6813W        W10557   8.466   7.925   8.671  0.0034 -0.2613  0.0413
 6814W        W10558   7.587   0.238   0.645  0.1919 -0.4000  0.0182
 6815W        W10559   0.098   4.776   0.351  0.4328 -0.1265 -0.0595
 6816W        W10560   8.844   7.093   1.819 -0.1551  0.0826  0.2196
 6817W        W10561   7.915   9.494  10.603  0.2705 -0.2080  0.1052
 6818W        W10562   5.334   9.666   9.197  0.2443 -0.1656 -0.1137
 6819W        W10563   1.867   9.808  10.778 -0.0379  0.1980  0.1427
 6820W        W10564   3.436   2.891   2.186 -0.1525  0.1912  0.1513
 6821W        W10565   5.794   9.567   1.615 -0.1437 -0.0782  0.1090
 6822W        W10566   5.467   9.796   0.014  0.2104 -0.1878 -0.1993
 6823W        W10567   7.950   2.099  11.691  0.1331  0.1777 -0.3579
 6824W        W10568   1.409   0.760   0.763 -0.0688 -0.2201  0.3264
 6825W        W10569   2.697   7.123   4.511  0.2488  0.1606 -0.1180
 6826W        W10570   1.755   8.851  12.643 -0.0366  0.3711 -0.0927
 6827W        W10571   5.645   0.646  11.590  0.0363  0.2773 -0.0021
 6828W        W10572   9.165   4.613  11.262 -0.6069  0.1481 -0.0659
 6829W        W10573   3.004   4.179   9.241  0.0185 -0.0396 -0.0224
 6830W        W10574   9.625   9.860  11.849  0.1104  0.1218  0.0078
 6831W        W10575   1.925   5.536   8.103  0.0300 -0.0951  0.0320
 6832W        W10576   1.506   8.321   4.003 -0.0096  0.0653 -0.1689
 6833W        W10577   1.819   7.594  11.844  0.1139 -0.0321  0.1178
 6834W        W10578   3.410   2.558   1.003 -0.0212 -0.0886  0.3351
 6835W        W10579   9.023   8.420   2.744  0.0650 -0.4250  0.3365
 6836W        W10580   9.658   9.527   0.013 -0.0630  0.0032 -0.3427
 6837W        W10581   2.908   0.867   3.334  0.0430 -0.0850 -0.2883
 6838W        W10582   1.339   6.419  12.140 -0.1269  0.0648  0.1565
 6839W        W10583   4.558   7.934   0.922  0.1181  0.1218  0.4945
 6840W        W10584   9.839   5.222   1.360 -0.1249  0.0987 -0.0421
 6841W        W10585   4.983   0.548   0.246  0.2486 -0.3849 -0.0161
 6842W        W10586   7.329   3.521   2.771  0.1251  0.3249  0.2210
 6843W        W10587   1.038   0.117  10.661  0.1001  0.2945 -0.0240
 6844W        W10588   9.930   3.068  10.819  0.3532  0.2078 -0.0692
 6845W        W10589   5.822   1.313  10.417 -0.0707  0.2368  0.2900
 6846W        W10590   9.188   6.407   0.698 -0.0047 -0.1120  0.1805
 6847W        W10591   6.520   2.956  10.352  0.0907  0.2309 -0.4048
 6848W        W10592   4.410   4.778  10.127 -0.0901 -0.2192 -0.0404
 6849W        W10593   1.454   3.546   2.124 -0.1370  0.1595 -0.0206
 6850W        W10594   7.600   8.158  11.527 -0.3542  0.0787  0.0020
 6851W        W10595   4.884   6.880   0.723  0.1665  0.1024  0.1861
 6852W        W10596   9.378   5.993   0.513  0.0409  0.3518  0.2265
 6853W        W10597   6.031   8.368   3.856  0.0650  0.0965  0.2855
 6854W        W10598   0.967   9.635   0.454 -0.2257 -0.2141  0.1594
 6855W        W10599   0.205   7.252  11.187 -0.0128  0.2023 -0.0963
 6856W        W10600   1.748   7.886   3.834  0.0262  0.2578 -0.1123
 6857W        W10601   4.113   1.069   8.866 -0.5530 -0.0659  0.1708
 6858W        W10602   7.468   2.347  12.387 -0.3399  0.0455 -0.0122
 6859W        W10603   6.512   9.506  12.703 -0.1139  0.1144  0.3547
 6860W        W10604   4.113   0.176   3.209 -0.2774 -0.0753  0.0511
 6861W        W10605   2.456   8.240   3.110  0.0634 -0.2758 -0.3272
 6862W        W10606   6.142   9.207  11.663 -0.1355 -0.0082 -0.2275
 6863W        W10607   2.772   4.534   2.724  0.0713 -0.0597  0.0216
 6864W        W10608   1.632   8.953  10.078 -0.0310  0.1827 -0.2568
 6865W        W10609   8.951   9.766   0.616 -0.2077 -0.0794 -0.4147
 6866W        W10610   0.341   7.438   0.675  0.0520  0.0862  0.0056
 6867W        W10611   7.488   7.418   8.529  0.0392 -0.1138  0.0134
 6868W        W10612   7.545   5.686   1.651  0.2895 -0.1977 -0.1417
 6869W        W10613   5.323   8.394   0.763  0.3472 -0.1908  0.2000
 6870W        W10614   2.403   1.635   3.749  0.2165  0.0509  0.0453
 6871W        W10615   7.091   5.022  11.508  0.0858  0.1043  0.1724
 6872W        W10616   1.870   9.856  10.192  0.2171 -0.0794  0.3154
 6873W        W10617   6.941   1.781  10.496 -0.0603  0.1138 -0.1449
 6874W        W10618   6.229   9.394   0.838 -0.2071  0.1641 -0.0112
 6875W        W10619   6.552   2.084   4.194 -0.0268  0.1335 -0.0343
 6876W        W10620   2.619   3.050   2.566 -0.0080 -0.0075  0.1983
 6877W        W10621   6.399   3.014   2.753 -0.0331  0.0787  0.1100
 6878W        W10622   7.002   0.380   4.775  0.0330 -0.1486 -0.2534
 6879W        W10623   6.078   6.961   9.284 -0.0231  0.0480  0.1837
 6880W        W10624   0.963   0.579  12.755 -0.0303  0.1113 -0.0393
 6881W        W10625   0.380   1.228   9.892 -0.0613 -0.3730  0.0629
 6882W        W10626   0.047   7.245  10.672 -0.0445  0.0293  0.2631
 6883W        W10627   2.896   2.518   4.154  0.2321 -0.2140  0.0129
 6884W        W10628   6.076   0.564   8.765 -0.1120 -0.2134  0.4232
 6885W        W10629   5.921   3.539   0.124 -0.0963 -0.0163  0.2091
 6886W        W10630   2.314   7.796  12.309 -0.0254 -0.1195  0.0233
 6887W        W10631   1.970   7.023   5.181  0.1874 -0.0621  0.1376
 6888W        W10632   2.739   2.261   9.215  0.3356  0.2294 -0.5238
 6889W        W10633   3.554   2.049   1.704  0.0346 -0.0071 -0.2139
 6890W        W10634   2.636   9.001  11.016 -0.0686 -0.0806  0.0360
 6891W        W10635   0.958   9.480  10.600  0.2137  0.0429  0.0678
 6892W        W10636   5.913   9.248   4.393  0.1534 -0.0698  0.1057
 6893W        W10637   6.132   2.211   1.875  0.1390  0.1379  0.1056
 6894W        W10638   8.772   3.215  11.635 -0.0261 -0.1518 -0.0977
 6895W        W10639   0.485   7.065  12.260 -0.0399  0.0993  0.1327
 6896W        W10640   8.564   8.450  10.269  0.2388  0.1551  0.0963
 6897W        W10641   7.620   0.467   2.867  0.1107 -0.0155 -0.0088
 6898W        W10642   9.527   6.963   2.754  0.0299 -0.1702  0.1944
 6899W        W10643   6.670   2.319  11.798 -0.3357  0.0716  0.4190
 6900W        W10644   5.722   9.394  11.082 -0.1189  0.0545  0.0607
 6901W        W10645   9.924   4.527   2.088  0.0234 -0.2478 -0.3802
 6902W        W10646   9.709   8.968  11.533  0.4332  0.2110  0.0017
 6903W        W10647   2.780   1.126   2.355  0.0967  0.2684  0.1211
 6904W        W10648   4.289   8.366   0.615  0.2485 -0.0273 -0.2334
 6905W        W10649   8.426   5.027   0.628  0.0479 -0.1048 -0.2226
 6906W        W10650   8.161   9.728   8.948  0.2748  0.0333  0.3157
 6907W        W10651   5.079   5.443  11.281 -0.0769 -0.0330 -0.2860
 6908W        W10652   1.914   1.099   1.857 -0.1049 -0.1978  0.1748
 6909W        W10653   9.717   6.041   0.061 -0.0514  0.0167 -0.0188
 6910W        W10654   2.320   0.586  11.780 -0.0249 -0.0033 -0.2048
 6911W        W10655   9.041   3.435   0.208 -0.4541  0.3164 -0.2416
 6912W        W10656   0.142   3.055   1.783  0.2734 -0.4792  0.0135
 6913W        W10657   6.534   4.219   1.951  0.2102  0.0396 -0.2733
 6914W        W10658   1.674   8.416  10.500  0.0601 -0.3147 -0.1191
 6915W        W10659   9.261   3.004   3.509  0.1404  0.1000 -0.0233
 6916W        W10660   5.699   8.043  12.754  0.1675 -0.1366 -0.2944
 6917W        W10661   4.410   2.525   2.793  0.1433 -0.3163 -0.0475
 6918W        W10662   6.526   4.484  10.075  0.0556  0.2707  0.0590
 6919W        W10663   6.860   1.697   8.872 -0.1407  0.1299  0.2660
 6920W        W10664   5.291   8.335   0.200  0.0963  0.1175 -0.0046
 6921W        W10665   8.459   2.304   3.085 -0.2603  0.0906 -0.0092
 6922W        W10666   8.176   2.799   2.216  0.1164  0.1317  0.0360
 6923W        W10667   1.667   2.422   0.538  0.1598  0.0385  0.1531
 6924W        W10668   7.754   0.844  11.112 -0.3916  0.1578 -0.0053
 6925W        W10669   2.152   3.695  10.996 -0.1452 -0.3155 -0.2453
 6926W        W10670   2.871   1.432   1.421  0.1732  0.2801 -0.2657
 6927W        W10671   4.840   0.686  10.859  0.1441 -0.1691  0.3972
 6928W        W10672   6.495   2.392   0.447  0.0075 -0.0538 -0.2061
 6929W        W10673   3.493   5.153  11.309 -0.1686 -0.0018 -0.1274
 6930W        W10674   7.169   5.481   5.137  0.0957  0.3628 -0.2643
 6931W        W10675   1.368   8.002  10.105 -0.2870  0.0815 -0.3033
 6932W        W10676   7.042   6.585  12.730  0.5414  0.0456  0.1045
 6933W        W10677   7.160   8.305   1.921  0.0152  0.1344  0.0939
 6934W        W10678   2.099   6.418   1.973  0.0710 -0.3298 -0.1396
 6935W        W10679   0.194   5.603   0.854 -0.3188 -0.0334  0.0334
 6936W        W10680   4.772   6.729  10.883 -0.0813 -0.1824  0.0795
 6937W        W10681   8.241   7.844   3.592 -0.2932 -0.0597  0.0493
 6938W        W10682   7.229   6.975   3.337 -0.2108 -0.0132  0.0865
 6939W        W10683   9.285   9.405   0.847 -0.3288 -0.2835 -0.0334
 6940W        W10684   8.180   4.148   0.273 -0.0766  0.0398  0.1364
 6941W        W10685   4.552   8.084  11.237  0.2523 -0.1033 -0.1937
 6942W        W10686   7.040   7.814  10.817 -0.0449 -0.1409  0.2339
 6943W        W10687   0.158   8.234   8.805  0.1064  0.0538  0.0232
 6944W        W10688   3.487   7.840   9.499 -0.0944 -0.2561  0.1035
 6945W        W10689   3.201   6.526   3.798 -0.0633  0.0667  0.1987
 6946W        W10690   7.256   6.930   3.980  0.1490 -0.0487 -0.1719
 6947W        W10691   6.602   4.966   9.150 -0.1489 -0.0931 -0.0148
 6948W        W10692   1.671   9.132   1.641 -0.0649  0.1063 -0.0782
 6949W        W10693   0.617   4.418  11.681  0.1345 -0.0607 -0.2390
 6950W        W10694   8.828   9.426   3.863  0.3747 -0.0267  0.2506
 6951W        W10695   9.704   8.964   8.767 -0.1053 -0.0673  0.2766
 6952W        W10696   2.797   3.075  10.210 -0.2159 -0.0205  0.1205
 6953W        W10697   0.518   6.463   9.396 -0.0005  0.1271  0.0565
 6954W        W10698   9.341   1.933   4.149  0.0134  0.3100 -0.0825
 6955W        W10699   4.925   7.562  12.630 -0.2188 -0.0032  0.1155
 6956W        W10700   3.248   1.271   3.114 -0.0634  0.2158 -0.0228
 6957W        W10701   5.162   4.134   2.144 -0.2736 -0.4474  0.1685
 6958W        W10702   9.502   9.367   9.602 -0.2283  0.2023 -0.1977
 6959W        W10703   7.694   1.820   3.883 -0.4264 -0.0388  0.1476
 6960W        W10704   3.903   5.686   0.971  0.2932  0.3467 -0.2505
 6961W        W10705   0.991   8.044   3.682  0.4454 -0.1248  0.0810
 6962W        W10706   5.472   9.014   1.262  0.1402 -0.1758  0.0215
 6963W        W10707   9.283   9.310   3.984 -0.1217 -0.0356  0.2811
 6964W        W10708   6.189   5.356  12.811 -0.0417  0.3706 -0.2409
 6965W        W10709   9.253   9.606   1.285 -0.0517  0.0976  0.0066
 6966W        W10710   4.417   9.659   9.436  0.3871 -0.0368  0.0998
 6967W        W10711   1.960   6.726  10.974 -0.2186  0.0268  0.2653
 6968W        W10712   3.580   6.140   9.334 -0.0611 -0.1336 -0.1317
 6969W        W10713   7.732   9.875   4.538  0.2810 -0.2149 -0.2212
 6970W        W10714   4.003   5.116  11.785 -0.2670  0.2857  0.1265
 6971W        W10715   2.447   0.907  11.430 -0.1965 -0.2301 -0.0207
 6972W        W10716   9.194   0.791   2.821 -0.2339  0.0879  0.0057
 6973W        W10717   9.102   9.650  12.775  0.3053 -0.0077  0.1504
 6974W        W10718   2.849   8.934   2.914 -0.1279 -0.0643 -0.1105
 6975W        W10719   5.070   3.219  10.207  0.2869  0.1561 -0.0151
 6976W        W10720   9.548   9.037   3.078  0.1339 -0.1167  0.1844
 6977W        W10721   3.671   4.310  11.997 -0.2129  0.1644 -0.0593
 6978W        W10722   8.028   4.090   0.720  0.3158  0.2318 -0.0245
 6979W        W10723   7.001   2.778  11.801  0.0585  0.0221 -0.1401
 6980W        W10724   4.392   7.014   0.880  0.1578  0.1255  0.3525
 6981W        W10725   1.952   1.144   2.796  0.1737  0.0166 -0.0514
 6982W        W10726   7.507   6.868   9.691 -0.4646 -0.2423  0.1776
 6983W        W10727   2.930   3.321   4.422 -0.2372  0.0652  0.1284
 6984W        W10728   9.702   6.149   9.988 -0.1406 -0.1841 -0.1408
 6985W        W10729   7.071   3.888   9.639  0.0839  0.0332 -0.0021
 6986W        W10730   9.728   3.831   1.343 -0.1899  0.0363  0.3569
 6987W        W10731   3.817   4.843   3.182  0.2870 -0.0115  0.0536
 6988W        W10732   2.422   7.048   9.945  0.1974 -0.1062  0.1716
 6989W        W10733   1.160   8.802   8.439  0.1881  0.0809 -0.0663
 6990W        W10734   7.421   6.625  12.450 -0.2030  0.0210  0.3099
 6991W        W10735   7.299   1.079  11.435  0.0785 -0.0378  0.1390
 6992W        W10736   9.934   6.567   9.293  0.3345  0.1645 -0.0039
 6993W        W10737   8.289   6.322   0.579  0.3611  0.0862  0.3465
 6994W        W10738   7.007   6.926   8.007 -0.3735 -0.0374  0.0432
 6995W        W10739   4.807   4.776   2.011 -0.0583 -0.2994 -0.0336
 6996W        W10740   8.547   2.007   1.234  0.0447 -0.3212 -0.1574
 6997W        W10741   0.387   2.921  10.158  0.3353 -0.1746  0.1911
 6998W        W10742   0.633   5.665   1.131 -0.0194 -0.2072 -0.0405
 6999W        W10743   3.092   1.374  11.057  0.1123  0.0844  0.1204
 7000W        W10744   4.687   8.611   2.893 -0.0629  0.0896  0.0309
 7001W        W10745   8.511   3.932  10.044  0.2378 -0.0106 -0.2342
 7002W        W10746   8.898   1.090  10.181  0.1248  0.1194  0.0288
 7003W        W10747   3.964   8.004   9.651 -0.2434 -0.1338 -0.0076
 7004W        W10748   1.349   7.707  10.600  0.0752  0.5015  0.0954
 7005W        W10749   7.633   1.831   0.738  0.0690 -0.1778  0.0536
 7006W        W10750   8.477   6.776   1.907 -0.0033 -0.1855 -0.1440
 7007W        W10751   5.769   5.826   3.681 -0.1910 -0.2633  0.0651
 7008W        W10752   4.946   0.047   1.352 -0.1761  0.2270  0.2084
 7009W        W10753   2.939   6.095   9.997  0.1288 -0.3153  0.1799
 7010W        W10754   3.101   2.029   0.206 -0.0634  0.0175 -0.2204
 7011W        W10755   9.212   5.803   4.361  0.0635 -0.1190  0.1997
 7012W        W10756   2.175   7.374  12.653 -0.1310  0.2953 -0.1194
 7013W        W10757   6.205   9.790  10.875 -0.0085 -0.0884 -0.0626
 7014W        W10758   8.861   9.388   4.871 -0.0480  0.0813  0.2655
 7015W        W10759   9.244   6.432   9.974  0.1952  0.1193  0.0044
 7016W        W10760   8.704   0.823   2.941 -0.0396 -0.0503 -0.3713
 7017W        W10761   0.302   6.416   3.955 -0.0141 -0.1101  0.3473
 7018W        W10762   1.399   4.661  10.696 -0.1518 -0.1897  0.1176
 7019W        W10763   2.989   3.047   9.689 -0.2637  0.3361  0.1386
 7020W        W10764   1.005   0.617   3.994 -0.1783 -0.1254  0.4101
 7021W        W10765   4.196   9.765   9.979  0.3157  0.0767 -0.0118
 7022W        W10766   3.770   3.743   8.822  0.0852 -0.0463  0.0772
 7023W        W10767   4.221   1.548   9.212  0.2621  0.0115  0.0304
 7024W        W10768   6.331   9.607   1.372  0.0758 -0.2358  0.0116
 7025W        W10769   8.601   8.198   3.586  0.0493 -0.0224 -0.2993
 7026W        W10770   9.901   9.936  12.524  0.1651 -0.1492  0.0353
 7027W        W10771   6.470   3.401   8.607  0.0462  0.0337  0.0479
 7028W        W10772   5.450   7.547   8.622  0.1395  0.0161  0.1372
 7029W        W10773   6.744   2.579   4.136  0.0786 -0.2665  0.1441
 7030W        W10774   5.694   6.605   3.447 -0.1011  0.0065 -0.3192
 7031W        W10775   8.507   4.795  10.780  0.4966 -0.0647  0.0441
 7032W        W10776   6.768   4.466   1.562 -0.2331  0.3212  0.1126
 7033W        W10777   6.780   1.958   0.133 -0.0132 -0.1011  0.1191
 7034W        W10778   5.083   9.345   3.236 -0.1312  0.1278  0.0951
 7035W        W10779   7.365   8.128   8.066  0.0909  0.1706 -0.2493
 7036W        W10780   9.251   7.050   2.283  0.1545 -0.5504 -0.3532
 7037W        W10781   3.412   5.629  12.366 -0.5541 -0.0338  0.2565
 7038W        W10782   2.718   1.903   3.467  0.0299  0.1608  0.2962
 7039W        W10783   9.066   2.733  10.138  0.1500 -0.3653  0.2454
 7040W        W10784   8.424   0.177   8.638 -0.0399  0.2949 -0.1286
 7041W        W10785   1.115   9.857  11.142  0.2305  0.0401  0.0363
 7042W        W10786   6.151   8.959  11.235 -0.0133 -0.3135  0.4567
 7043W        W10787   6.011   5.203  11.082  0.1046  0.0825  0.0263
 7044W        W10788   9.612   8.886   1.728  0.0787  0.2066  0.1685
 7045W        W10789   0.901   0.791  11.121  0.0984 -0.0849  0.1546
 7046W        W10790   5.521   5.532   0.754  0.2160 -0.2911 -0.0701
 7047W        W10791   7.091   4.643   1.124  0.1130 -0.4117  0.2018
 7048W        W10792   6.451   8.554  11.390 -0.2890 -0.0114  0.1679
 7049W        W10793   2.070   6.884   4.684  0.1598  0.4722  0.0298
 7050W        W10794   8.721   9.903   2.448  0.2571 -0.3509 -0.0658
 7051W        W10795   5.111   6.516   2.183  0.0530 -0.1172  0.0428
 7052W        W10796   4.918   5.474  10.338  0.1777 -0.0945 -0.2922
 7053W        W10797   0.496   6.385   4.445  0.0856  0.0143  0.1982
 7054W        W10798   8.094   3.270   2.320 -0.1448  0.1372  0.2602
 7055W        W10799   3.130   1.154  12.464 -0.0747 -0.1352 -0.4137
 7056W        W10800   9.717   2.083   2.517  0.1396 -0.0982 -0.3427
 7057W        W10801   8.234   8.366   8.801  0.0309 -0.2596 -0.1991
 7058W        W10802   3.197   2.279  11.631 -0.0593  0.0995  0.1425
 7059W        W10803   7.491   4.802   3.866 -0.0974  0.1245 -0.1213
 7060W        W10804   7.131   3.673   0.939  0.0603 -0.0144 -0.0190
 7061W        W10805   6.240   0.048  12.639 -0.2316  0.0163 -0.3763
 7062W        W10806   1.757   3.162  12.351  0.0183 -0.0438  0.1664
 7063W        W10807   6.812   6.709   9.037  0.0577 -0.0402  0.0962
 7064W        W10808   4.421   1.874   2.402  0.0855  0.1088  0.2700
 7065W        W10809   9.899   9.545   3.370 -0.0544 -0.0032 -0.0896
 7066W        W10810   7.828   9.713  11.051 -0.4211  0.2194  0.0244
 7067W        W10811   5.558   6.725  11.702 -0.0487 -0.0026  0.2495
 7068W        W10812   1.779   1.381  11.966 -0.2842  0.1237 -0.1686
 7069W        W10813   4.785   8.160  12.817 -0.3355  0.1858 -0.1468
 7070W        W10814   1.595   2.799  10.517  0.0223 -0.1019 -0.3791
 7071W        W10815   4.003   1.655   9.691 -0.0655  0.0673  0.0044
 7072W        W10816   2.346   5.216   3.299  0.3383  0.3163  0.4133
 7073W        W10817   2.284   4.598  10.810 -0.0376 -0.3074  0.0695
 7074W        W10818   9.006   2.076   9.278  0.2513 -0.0180  0.1730
 7075W        W10819   9.150   3.185  12.581 -0.0861 -0.0632 -0.0425
 7076W        W10820   6.887   1.340   1.152  0.1552 -0.2823 -0.1962
 7077W        W10821   1.268   1.140   2.532  0.2560 -0.2099  0.1414
 7078W        W10822   9.906   8.814   0.061 -0.2033  0.0684 -0.2839
 7079W        W10823   0.936   3.075  12.731 -0.0067 -0.2681 -0.0632
 7080W        W10824   2.616   2.500   2.513  0.0675 -0.0893 -0.0775
 7081W        W10825   0.757   5.733  11.060  0.0918  0.2738  0.0962
 7082W        W10826   5.113   4.256   8.494 -0.2448  0.0746 -0.2334
 7083W        W10827   5.073   7.210   4.261  0.1868  0.0125  0.1883
 7084W        W10828   5.171   4.909   4.091 -0.0259  0.3218  0.1016
 7085W        W10829   9.016   7.006   1.322 -0.1635  0.0281 -0.1550
 7086W        W10830   2.305   7.822   1.738  0.0608  0.2916  0.4680
 7087W        W10831   8.010   6.776   2.090  0.1531 -0.2024 -0.2735
 7088W        W10832   2.385   2.703   0.924 -0.2810  0.2381  0.1922
 7089W        W10833   4.016   8.878   3.989 -0.0555 -0.1974 -0.1602
 7090W        W10834   6.644   3.155  11.932  0.0494 -0.1160  0.1138
 7091W        W10835   1.941   7.909  11.419 -0.0117  0.2910  0.2498
 7092W        W10836   0.166   7.379   2.427 -0.1794 -0.0865 -0.1492
 7093W        W10837   3.452   2.354  10.954  0.0462 -0.0058  0.4648
 7094W        W10838   1.364   2.767  12.553 -0.2851 -0.1867 -0.0994
 7095W        W10839   5.726   9.543   9.660 -0.2176 -0.1210 -0.0455
 7096W        W10840   3.946   8.482   8.733  0.1127  0.1778 -0.0305
 7097W        W10841   9.456   1.445   9.396 -0.1945 -0.0443 -0.3315
 7098W        W10842   2.150   3.194   8.540  0.0620  0.1239 -0.0072
 7099W        W10843   4.459   5.291   9.553  0.2206  0.0523 -0.1614
 7100W        W10844   5.008   5.682   2.940  0.2171 -0.0001  0.1571
 7101W        W10845   3.676   6.753   3.799  0.2078  0.0389 -0.0026
 7102W        W10846   5.235   5.230   3.581  0.2665 -0.1771 -0.0013
 7103W        W10847   4.654   3.480   2.258  0.1704 -0.0450 -0.0062
 7104W        W10848   7.652   6.484   1.827 -0.0814  0.2428 -0.2403
 7105W        W10849   4.263   9.320   1.091  0.1131  0.0097 -0.5046
 7106W        W10850   8.220   4.469  11.779  0.1316  0.1100  0.0958
 7107W        W10851   3.049   8.174   3.077  0.0101 -0.1421  0.0166
 7108W        W10852   1.765   8.559   1.147  0.0314 -0.2733 -0.1643
 7109W        W10853   1.736   4.589   2.387  0.1833  0.0680 -0.1511
 7110W        W10854   3.341   5.305   3.048 -0.1737  0.0633 -0.3565
 7111W        W10855   8.348   6.834   0.674  0.0762  0.2697  0.0974
 7112W        W10856   6.615   0.647  11.586 -0.0478  0.3918  0.0797
 7113W        W10857   2.009   9.240  11.988 -0.0844  0.2089  0.2449
 7114W        W10858   8.933   3.705   2.045 -0.0772  0.0464  0.0318
 7115W        W10859   5.702   2.394   3.546  0.1568 -0.1222  0.0872
 7116W        W10860   1.143   6.367  11.190  0.2525  0.0960  0.2552
 7117W        W10861   8.970   1.566  11.030 -0.1878 -0.1460  0.0180
 7118W        W10862   0.787   1.247   2.504 -0.0246 -0.0290 -0.0860
 7119W        W10863   6.971   9.748   2.017  0.0987 -0.0379 -0.0423
 7120W        W10864   7.566   2.757   3.210 -0.3922  0.0616  0.0490
 7121W        W10865   2.182   6.736  10.292  0.2584  0.1830  0.0409
 7122W        W10866   7.278   4.088  12.570  0.0762  0.0064  0.0954
 7123W        W10867   3.002   8.749   7.927  0.2363 -0.0740 -0.0423
 7124W        W10868   5.491   5.576  10.513  0.0242 -0.0918  0.0339
 7125W        W10869   4.601   6.038  10.172  0.1766 -0.3050 -0.1514
 7126W        W10870   1.724   3.757   8.903 -0.0403 -0.1206  0.1462
 7127W        W10871   3.849   7.664  10.276 -0.3245 -0.0086 -0.2773
 7128W        W10872   2.778   6.662   0.652 -0.1945  0.2529 -0.0569
 7129W        W10873   8.434   7.438   8.672 -0.0618  0.0688 -0.2688
 7130W        W10874   4.928   5.666   4.653  0.2411 -0.1031 -0.1500
 7131W        W10875   9.462   5.757  11.996 -0.2637 -0.1130 -0.3523
 7132W        W10876   1.356   9.910   9.925 -0.3413  0.1125 -0.2385
 7133W        W10877   6.400   9.332   0.363  0.0372 -0.0211 -0.2959
 7134W        W10878   0.873   9.516  12.806 -0.1211 -0.3088  0.0564
 7135W        W10879   8.177   6.817   0.228  0.1023 -0.2218  0.0598
 7136W        W10880   5.671   4.581  11.197 -0.2679  0.1761 -0.0762
 7137W        W10881   7.467   0.094   3.308  0.0262  0.1302 -0.4607
 7138W        W10882   5.542   7.694   1.741 -0.0933 -0.1468  0.1607
 7139W        W10883   3.767   5.177   0.331 -0.2644 -0.4254  0.0985
 7140W        W10884   4.218   6.664  12.767 -0.1244  0.3009 -0.0017
 7141W        W10885   6.840   4.770   0.181  0.0064 -0.3784 -0.4227
 7142W        W10886   1.276   3.498   3.685  0.2305  0.0484 -0.1430
 7143W        W10887   1.969   0.177  11.277  0.1307  0.2779 -0.4181
 7144W        W10888   0.570   6.700   0.467 -0.0635  0.4406 -0.0857
 7145W        W10889   3.676   4.394   3.137 -0.0334 -0.2446  0.0977
 7146W        W10890   1.259   7.938   2.586 -0.0428 -0.0720 -0.2131
 7147W        W10891   4.861   0.103  11.638  0.1271 -0.1150 -0.1125
 7148W        W10892   0.423   0.039   9.498  0.2265 -0.0789  0.0497
 7149W        W10893   7.324   4.299   4.794  0.4051 -0.7285 -0.2163
 7150W        W10894   1.195   9.167   1.762  0.1332  0.0084 -0.1906
 7151W        W10895   8.154   2.402  11.162 -0.1457 -0.2689 -0.2297
 7152W        W10896   6.276   4.526   9.465  0.1587  0.0563  0.0766
 7153W        W10897   1.569   5.686   1.438 -0.3012 -0.0828  0.2523
 7154W        W10898   3.947   9.799   4.022  0.2249  0.1071 -0.2445
 7155W        W10899   4.643   1.050   8.662  0.2774 -0.0409  0.0022
 7156W        W10900   0.204   4.065   2.108  0.1408 -0.1584 -0.0446
 7157W        W10901   2.266   4.201   9.406 -0.2046  0.1786 -0.1778
 7158W        W10902   4.820   7.452   9.402  0.2387  0.2850 -0.0285
 7159W        W10903   5.980   5.255  10.382  0.0490  0.1166 -0.1621
 7160W        W10904   9.903   4.549  12.781 -0.0705 -0.1254 -0.0587
 7161W        W10905   4.417   5.334   1.448  0.1748  0.4975 -0.1967
 7162W        W10906   3.796   3.070   1.744 -0.0488  0.0839  0.3267
 7163W        W10907   4.360   9.366  12.606 -0.1673 -0.1270  0.0895
 7164W        W10908   5.112   8.570   2.587  0.1389  0.1579  0.1446
 7165W        W10909   2.687   8.526  11.246  0.1455  0.0934 -0.1461
 7166W        W10910   3.240   1.497   0.035 -0.0704 -0.2662 -0.1722
 7167W        W10911   5.910   4.108   4.169  0.1005 -0.0161 -0.1487
 7168W        W10912   8.086   6.219   3.180 -0.1085  0.0159  0.1419
 7169W        W10913   0.335   5.203  12.287  0.3266 -0.2342  0.2559
 7170W        W10914   9.419   5.473  10.134 -0.0078 -0.0509  0.0684
 7171W        W10915   5.174   9.908   2.464 -0.2412  0.0593 -0.4170
 7172W        W10916   7.681   7.504  10.404  0.1557 -0.1706  0.0444
 7173W        W10917   3.039   3.106  12.035 -0.0148 -0.1209  0.3514
 7174W        W10918   5.492   7.280  11.247  0.1725 -0.0533  0.0067
 7175W        W10919   0.774   0.332  12.193 -0.3017 -0.2589 -0.0257
 7176W        W10920   1.239   5.355  12.014 -0.1544 -0.2248 -0.0541
 7177W        W10921   0.509   1.697   0.369  0.1397  0.3194  0.1216
 7178W        W10922   0.389   3.379   1.459  0.3018 -0.0492  0.2557
 7179W        W10923   1.846   7.312   2.090  0.1615 -0.2632  0.3698
 7180W        W10924   4.060   9.532  11.162 -0.1379 -0.1413 -0.2787
 7181W        W10925   5.598   0.528   9.589  0.1252  0.1353 -0.2507
 7182W        W10926   4.994   4.826  12.060  0.0107 -0.0927 -0.0006
 7183W        W10927   0.934   3.368   3.296 -0.1674 -0.3640 -0.1461
 7184W        W10928   4.082   9.416   3.799 -0.0492  0.1699  0.0135
 7185W        W10929   7.967   3.044   9.452 -0.1417  0.3086 -0.1145
 7186W        W10930   4.696   3.180  11.046  0.0049  0.2474 -0.2549
 7187W        W10931   4.298   9.668   8.844 -0.3132 -0.1311 -0.2222
 7188W        W10932   1.336   2.858   9.973  0.1464  0.2165 -0.3593
 7189W        W10933   6.658   2.726   0.031 -0.0711  0.2805  0.1608
 7190W        W10934   5.381   6.445   2.921  0.0750 -0.1150  0.0992
 7191W        W10935   3.492   8.678  12.328 -0.1010  0.0353  0.2528
 7192W        W10936   2.640   0.838   1.436  0.4144 -0.2314  0.0069
 7193W        W10937   0.678   0.929  10.255  0.1037  0.0504  0.1018
 7194W        W10938   3.911   9.605   1.425 -0.0236 -0.2758  0.2165
 7195W        W10939   6.897   6.002   2.239  0.1542  0.0535  0.3979
 7196W        W10940   0.593   5.103   3.936  0.3096 -0.0989 -0.1696
 7197W        W10941   7.405   6.571   3.682  0.1853 -0.1273 -0.0935
 7198W        W10942   5.188   0.545   8.142  0.0783 -0.2156 -0.2662
 7199W        W10943   8.515   0.590   9.520 -0.0780 -0.3154  0.2636
 7200W        W10944   4.838   6.747  12.692  0.0156  0.2219  0.0397
 7201W        W10945   4.158   7.213  11.486 -0.1432 -0.0299 -0.1689
 7202W        W10946   3.306   9.369  10.960 -0.4202  0.0823  0.2798
 7203W        W10947   4.320   5.068   1.835 -0.1985  0.2444  0.0782
 7204W        W10948   2.617   7.236   9.485 -0.0168 -0.0210  0.1284
 7205W        W10949   2.491   5.230   4.302 -0.1380 -0.2236  0.0111
 7206W        W10950   6.574   9.799   9.970  0.2048  0.1330 -0.0082
 7207W        W10951   1.544   7.110   2.680 -0.0623 -0.3912  0.3006
 7208W        W10952   8.693   3.671   9.205 -0.1739  0.2274  0.1278
 7209W        W10953   4.300   5.274  10.083  0.1260 -0.2263  0.0063
 7210W        W10954   9.699   6.468   2.761  0.1958  0.1640 -0.0415
 7211W        W10955   0.906   5.794   0.681  0.0227 -0.3161 -0.1344
 7212W        W10956   8.268   6.264  10.095 -0.2030 -0.1696 -0.0474
 7213W        W10957   2.031   9.107   0.260  0.0239  0.1418 -0.2973
 7214W        W10958   9.203   4.527  12.281  0.0958 -0.0629  0.2038
 7215W        W10959   6.303   9.392   2.550  0.0889 -0.0428 -0.3599
 7216W        W10960   5.273   7.299   4.760  0.5882  0.0909 -0.0444
 7217W        W10961   3.276   9.499   8.612  0.0034 -0.0182  0.1539
 7218W        W10962   6.529   5.173   0.268 -0.1872  0.0670 -0.1119
 7219W        W10963   0.320   1.648  12.229 -0.1537  0.0361 -0.0480
 7220W        W10964   7.467   8.119   9.187  0.1568 -0.2375 -0.3735
 7221W        W10965   7.120   0.173  10.736 -0.0417  0.1321  0.1488
 7222W        W10966   8.564   2.771   0.468  0.0949  0.2191 -0.1137
 7223W        W10967   1.644   1.037  11.620  0.2805  0.0936  0.2761
 7224W        W10968   4.735   9.634  10.889 -0.0954 -0.0264 -0.1446
 7225W        W10969   8.123   9.194   0.928 -0.1124 -0.0180 -0.0964
 7226W        W10970   1.896   5.073   3.409  0.2803 -0.3510  0.0535
 7227W        W10971   7.496   1.340   8.092 -0.0122  0.0719 -0.2728
 7228W        W10972   7.254   0.613  12.498 -0.1354  0.2152  0.0291
 7229W        W10973   8.191   6.674  10.348  0.2876  0.0020 -0.0363
 7230ION    NA+10974   2.545   0.500  10.770 -0.1663 -0.4011  0.2008
 7231ION    NA+10975   3.903   2.087   7.986  0.0589 -0.2675 -0.0202
 7232ION    NA+10976   6.188   9.041  12.500  0.2807 -0.0510  0.0926
 7233ION    NA+10977   8.144   8.032   1.838 -0.1310 -0.0706 -0.0438
 7234ION    NA+10978   7.229   3.918   8.755  0.1195  0.2730  0.3398
 7235ION    NA+10979   0.348   2.642   9.733  0.1694 -0.0215  0.3562
 7236ION    NA+10980   3.658   2.563   1.717 -0.1594  0.1617  0.0176
 7237ION    NA+10981   2.815   4.206   1.265  0.1336  0.2237 -0.2022
 7238ION    NA+10982   0.430   0.133   8.980  0.0227  0.0449 -0.2657
 7239ION    NA+10983   8.368   6.704   8.437 -0.0093  0.0240  0.0382
 7240ION    NA+10984   2.705   5.278   8.591  0.1716  0.2728  0.0485
 7241ION    NA+10985   7.043   2.417   0.476  0.0893  0.2114 -0.1796
 7242ION    NA+10986   5.387   3.068  12.219  0.4651  0.2088 -0.0466
 7243ION    NA+10987   6.057   6.510   4.775 -0.3364  0.1108  0.2999
 7244ION    NA+10988   7.108   1.842   1.051 -0.5344 -0.1925 -0.0737
 7245ION    NA+10989   2.883   3.033   8.601  0.0814  0.0514  0.0103
 7246ION    NA+10990   4.106   7.033   8.240 -0.0998 -0.4669 -0.1818
 7247ION    NA+10991   0.197   3.884   3.526  0.0952  0.0862 -0.2958
 7248ION    NA+10992   6.276   1.217  11.731 -0.2087 -0.2236 -0.1681
 7249ION    NA+10993   9.707   9.426   1.558  0.1768 -0.0610 -0.2260
 7250ION    NA+10994   1.890   3.527  10.293  0.1221  0.2228 -0.0630
 7251ION    NA+10995   8.153   5.859  10.336  0.1408  0.0893 -0.1087
 7252ION    NA+10996   0.255   2.542   0.259 -0.0442  0.0566  0.3107
 7253ION    NA+10997   9.026   5.118  10.192 -0.2519 -0.1579 -0.2300
 7254ION    NA+10998   8.752   7.836   4.957 -0.1822 -0.3164  0.1742
 7255ION    NA+10999   7.344   1.382   0.839 -0.1614  0.2028  0.1493
 7256ION    NA+11000   9.032   7.841   3.189  0.1482  0.0876 -0.0668
 7257ION    NA+11001   9.872   4.968  10.735 -0.2237  0.1146 -0.0352
 7258ION    NA+11002   7.828   0.577   1.978  0.0733 -0.2191 -0.3288
 7259ION    NA+11003   0.281   0.205  12.056  0.1308  0.1203 -0.2917
 7260ION    NA+11004   1.452   9.431  11.945  0.1373  0.0327 -0.2848
 7261ION    NA+11005   6.203   0.541   1.555 -0.1903 -0.1439 -0.3191
 7262ION    NA+11006   7.739   1.986  12.124  0.0036  0.1861  0.1402
 7263ION    NA+11007   9.170   7.672   9.903 -0.0293  0.0369 -0.0765
 7264ION    NA+11008   6.403   6.343  10.032 -0.3288 -0.0963  0.1322
 7265ION    NA+11009   6.270   0.090  11.809 -0.1012 -0.1034 -0.2178
 7266ION    NA+11010   4.202   8.911  12.790  0.0433 -0.0971 -0.3932
 7267ION    NA+11011   2.077   9.072   4.653  0.0669  0.3041 -0.4145
 7268ION    NA+11012   7.562   6.509  11.950 -0.1571 -0.0563 -0.0822
 7269ION    NA+11013   2.539   6.842   8.536  0.0654  0.3221 -0.0324
 7270ION    NA+11014   5.754   8.783  11.545 -0.2521 -0.0434 -0.0615
 7271ION    NA+11015   5.905   1.930   0.064  0.0498  0.2330  0.0651
 7272ION    NA+11016   3.465   5.456   9.862  0.4080 -0.1603  0.0876
 7273ION    NA+11017   5.171   0.479  10.432 -0.0136  0.2187 -0.1310
 7274ION    NA+11018   9.596   6.351   3.229 -0.0029 -0.0895 -0.1653
 7275ION    NA+11019   0.095   4.199   1.210  0.3069 -0.1579  0.2831
 7276ION    NA+11020   3.707   8.207   1.390  0.0809  0.1544 -0.1572
 7277ION    NA+11021   2.625   7.883   3.491 -0.0088 -0.0242 -0.2734
 7278ION    NA+11022   3.741   9.867   3.527  0.0829  0.2125 -0.1753
 7279ION    NA+11023   2.545   5.263   0.447 -0.0091 -0.0342  0.0687
 7280ION    NA+11024   1.935   2.941  11.025 -0.2810 -0.3116 -0.3315
 7281ION    NA+11025   0.765   3.548   9.549  0.3399  0.0317  0.2621
 7282ION    NA+11026   2.077   3.422   8.987  0.1943  0.3005 -0.1631
 7283ION    NA+11027   3.703   8.851  11.361  0.0580 -0.1594 -0.1046
 7284ION    NA+11028   0.430   1.297  11.162 -0.0853 -0.1609  0.2055
 7285ION    NA+11029   5.046   0.208   3.327  0.2212  0.0606 -0.1381
 7286ION    NA+11030   8.504   5.998   2.045  0.2164  0.0646  0.0369
 7287ION    NA+11031   4.332   7.029   2.670  0.3118  0.0733  0.1723
 7288ION    NA+11032   4.032   7.949   8.774 -0.1111  0.1007  0.0587
 7289ION    NA+11033   3.059   1.404   0.958  0.1208 -0.1844 -0.0059
 7290ION    NA+11034   9.007   2.425   1.998 -0.0597 -0.0791 -0.1809
 7291ION    NA+11035   3.352   3.567   4.505 -0.4006 -0.1253 -0.2773
 7292ION    NA+11036   4.401   8.429  12.461 -0.0007  0.0419 -0.2148
 7293ION    NA+11037   9.423   6.528   4.638  0.0171  0.0615 -0.0614
 7294ION    NA+11038   0.502   6.242   1.972 -0.2072 -0.2155  0.1603
 7295ION    NA+11039   8.890   5.969  10.745  0.1245  0.5006 -0.1095
 7296ION    NA+11040   1.106   2.748   9.513  0.1593  0.2122  0.2483
 7297ION    NA+11041   8.456   8.676   4.897  0.2929  0.0852 -0.0209
 7298ION    NA+11042   5.288   8.540  12.153 -0.2550 -0.0949 -0.1276
 7299ION    NA+11043   3.092   8.519  11.983 -0.0415  0.0159  0.1590
 7300ION    NA+11044   8.001   2.137   9.334  0.3015 -0.2470  0.2700
 7301ION    NA+11045   1.245   6.922  12.305  0.1576  0.1068 -0.0607
 7302ION    NA+11046   7.470   7.022   2.891  0.0164 -0.0805 -0.1906
 7303ION    NA+11047   5.998   3.960   3.378 -0.1872  0.4455  0.0903
 7304ION    NA+11048   2.250   4.511   2.147  0.3470 -0.0231 -0.2822
 7305ION    NA+11049   8.673   4.008   2.344 -0.1590 -0.0629  0.1745
 7306ION    CL-11050   2.911   5.234   0.102 -0.4331 -0.0080 -0.2303
 7307ION    CL-11051   5.451   3.960   9.344 -0.3450 -0.0925  0.3321
 7308ION    CL-11052   2.303   9.809  11.554  0.0962  0.0499 -0.1452
 7309ION    CL-11053   6.699   6.429   9.603  0.2964  0.0408 -0.1561
 7310ION    CL-11054   8.526   5.686  10.613 -0.1436  0.0949  0.1286
 7311ION    CL-11055   6.658   2.834   1.202 -0.1044  0.0520 -0.1882
 7312ION    CL-11056   6.504   0.206   8.984  0.0863 -0.2350  0.1532
 7313ION    CL-11057   8.667   8.679   3.539 -0.2767  0.2770 -0.3555
 7314ION    CL-11058   9.139   7.976   3.666  0.0893 -0.0153  0.0236
 7315ION    CL-11059   7.092   6.658  11.995  0.0842  0.2831 -0.2407
 7316ION    CL-11060   7.137   1.894   0.564 -0.1208 -0.1634  0.4072
 7317ION    CL-11061   4.021   4.221   3.761 -0.2484 -0.2076 -0.0691
 7318ION    CL-11062   5.495   5.477   4.110  0.0712 -0.0592 -0.5321
 7319ION    CL-11063   7.992   2.342  12.630  0.1618  0.0841  0.1018
 7320ION    CL-11064   7.965   2.708  11.521  0.1691  0.0374  0.0568
 7321ION    CL-11065   9.384   5.703   3.754 -0.1327 -0.0314  0.3278
 7322ION    CL-11066   9.438   6.061   2.526  0.1153  0.1111  0.0086
 7323ION    CL-11067   3.270   5.761  10.196  0.0361  0.0281  0.1911
 7324ION    CL-11068   4.329   1.583   3.906 -0.0229  0.0059 -0.1609
 7325ION    CL-11069   1.926   0.057   4.049 -0.1216  0.0464 -0.1836
 7326ION    CL-11070   0.410   3.446  10.035 -0.0723  0.0310 -0.2301
 7327ION    CL-11071   0.611   1.118  10.727  0.3002 -0.1263  0.1380
 7328ION    CL-11072   6.868   8.819   3.802 -0.0220 -0.2808  0.1143
 7329ION    CL-11073   0.805   4.492   2.805  0.1092  0.1687  0.0804
 7330ION    CL-11074   0.911   7.389   3.973  0.1193  0.0140  0.4382
 7331ION    CL-11075   0.191   9.501  10.119  0.1853  0.1713 -0.2501
 7332ION    CL-11076   1.716   1.970  10.079 -0.3861  0.1340 -0.0018
 7333ION    CL-11077   1.334   3.096   3.065  0.0764  0.1943 -0.0007
 7334ION    CL-11078   1.026   6.427   9.161  0.2274  0.0105 -0.1724
 7335ION    CL-11079   5.597   3.310  12.624  0.2168 -0.3401 -0.0534
 7336ION    CL-11080   5.300   0.291   8.618  0.1207 -0.0433 -0.0184
 7337ION    CL-11081   4.959   8.575  12.532 -0.0759 -0.1623  0.2231
 7338ION    CL-11082   2.063   3.311  10.673  0.0713 -0.3723  0.1254
 7339ION    CL-11083   4.721   7.328   2.575  0.4961 -0.0030  0.2778
 7340ION    CL-11084   6.747   7.724   4.170 -0.0257  0.2032  0.0869
 7341ION    CL-11085   0.853   6.706  12.080 -0.0796  0.0370 -0.3371
 7342ION    CL-11086   1.485   3.795  10.220  0.1540  0.4611 -0.1036
 7343ION    CL-11087   1.691   7.528   4.275 -0.3125  0.1555  0.0655
 7344ION    CL-11088   2.543   8.250   3.805  0.1782 -0.0585 -0.2151
 7345ION    CL-11089   2.788   8.822  11.646 -0.0944  0.0512  0.2016
 7346ION    CL-11090   4.174   7.042   3.206 -0.1170 -0.0068 -0.0171
 7347ION    CL-11091   9.233   2.877   2.152  0.0008  0.1213  0.0656
 7348ION    CL-11092   1.508   8.972  11.103  0.0889  0.0517 -0.1148
 7349ION    CL-11093   5.933   1.882  11.341 -0.3496  0.0054  0.3430
 7350ION    CL-11094   4.602   8.865  12.410 -0.0268 -0.0870  0.0260
 7351ION    CL-11095   2.639   0.502  10.300  0.1209 -0.0494  0.2897
 7352ION    CL-11096   6.451   8.648  12.382  0.0810 -0.0034  0.1676
 7353ION    CL-11097   8.463   5.692   2.419 -0.1227  0.1030  0.0747
 7354ION    CL-11098   2.625   3.478   9.797 -0.0219  0.1159  0.0965
 7355ION    CL-11099   6.891   9.829  12.662 -0.1693 -0.1170 -0.1649
 7356ION    CL-11100   9.832   5.313  10.380 -0.0824  0.1370  0.0552
 7357ION    CL-11101   3.204   0.838  11.084  0.0090  0.6832  0.1489
 7358ION    CL-11102   6.368   2.196  12.820  0.0838 -0.3256  0.0051
 7359ION    CL-11103   4.670   3.523   3.221 -0.1507  0.1201 -0.1098
 7360ION    CL-11104   8.749   2.356   1.511  0.2011 -0.3573 -0.0271
 7361ION    CL-11105   2.373   7.536   9.148 -0.2324 -0.2323 -0.1942
 7362ION    CL-11106   7.114   7.365   3.021  0.4220 -0.0409 -0.1962
 7363ION    CL-11107   0.460   7.797   9.413 -0.2611 -0.1220  0.3457
 7364ION    CL-11108   1.060   4.720   9.928  0.2920  0.2882 -0.0908
 7365ION    CL-11109   1.962   6.748  11.488  0.0723  0.0129  0.1565
 7366ION    CL-11110   4.824   8.373   9.406  0.2474 -0.1891 -0.0467
 7367ION    CL-11111   7.326   5.047  10.328 -0.1482  0.0350 -0.3897
 7368ION    CL-11112   4.220   6.835  11.141 -0.3478  0.1853  0.1441
 7369ION    CL-11113   7.816   2.580   9.209 -0.1986 -0.1250  0.2547
 7370ION    CL-11114   8.255   3.299   4.055  0.1651 -0.0498 -0.1398
 7371ION    CL-11115   7.909   1.277  12.017 -0.1458 -0.1171  0.1183
 7372ION    CL-11116   5.406   9.846   0.550 -0.0619  0.1770 -0.0361
 7373ION    CL-11117   5.965   6.046   9.305  0.0828 -0.0258 -0.0199
 7374ION    CL-11118   8.059   6.260  10.621 -0.1037  0.2784 -0.0309
 7375ION    CL-11119   3.025   4.918   2.582  0.0138 -0.1201 -0.0043
 7376ION    CL-11120   5.689   8.426  11.870 -0.1271 -0.3526  0.1267
 7377ION    CL-11121   9.365   1.296  10.284 -0.2241  0.1896  0.1098
 7378ION    CL-11122   3.497   9.627   3.830 -0.0005 -0.0569 -0.0232
 7379ION    CL-11123   7.559   1.670   1.191  0.0513  0.0916  0.0503
 7380ION    CL-11124   2.510   4.375   1.717 -0.0279 -0.2272 -0.1544
 7381ION    CL-11125   3.619   2.442   9.171 -0.0428  0.1276 -0.1238
   9.94180   9.94180  12.83467
