Protein in INSANE! Membrane UpperLeaflet>POPC=1.0 LowerLeaflet>POPC=1.0
10365
    1AU     AUC    1   8.474   9.283   6.145 -0.0909 -0.0384 -0.0220
    1AU     AUC    2   8.293   9.046   6.068 -0.0416  0.1003 -0.0449
    1AU     AUC    3   8.630   9.111   5.924 -0.0026 -0.0025  0.0538
    1AU     AUC    4   8.387   9.498   6.424  0.0660  0.0062  0.0597
    1AU     AUC    5   8.646   9.597   6.186  0.0739 -0.0674  0.1447
    1AU     AUC    6   8.378   9.604   6.067 -0.0415 -0.0337 -0.0342
    1AU     AUC    7   8.316   9.291   5.886  0.0058 -0.1188 -0.0616
    1AU     AUC    8   8.656   9.309   6.432  0.0512 -0.0260 -0.0532
    1AU     AUC    9   8.648   9.028   6.263  0.0294 -0.0624 -0.0236
    1AU     AUC   10   8.813   9.268   6.100 -0.0793  0.0216 -0.0096
    1AU     AUC   11   8.641   9.472   5.903  0.0736 -0.0339 -0.0262
    1AU     AUC   12   8.327   9.149   6.374  0.0034  0.0111  0.0347
    1AU     AUC   13   8.164   9.324   6.185 -0.0166 -0.0439  0.0363
    1AU     AUC   14   8.158   8.761   5.981  0.0461 -0.0787  0.0521
    1AU     AUC   15   8.485   8.776   5.856 -0.0191 -0.0349 -0.0715
    1AU     AUC   16   8.762   8.899   5.721  0.0496 -0.0015  0.0335
    1AU     AUC   17   8.256   9.697   6.661  0.1363 -0.0244 -0.1050
    1AU     AUC   18   8.547   9.816   6.472 -0.0203 -0.0104  0.0634
    1AU     AUC   19   8.794   9.890   6.242 -0.0442  0.0230  0.0089
    1AU     AUC   20   8.185   9.911   5.960  0.0112 -0.1080 -0.0961
    1AU     AUC   21   8.148   9.599   5.760 -0.0070  0.0674  0.0440
    1AU     AUC   22   8.161   9.300   5.560 -0.0494  0.0203 -0.0140
    1AU     AUC   23   8.824   9.335   6.713 -0.1074 -0.0070  0.1308
    1AU     AUC   24   8.798   9.019   6.546 -0.0198 -0.0240 -0.0037
    1AU     AUC   25   8.764   8.721   6.379 -0.0179  0.0779 -0.0994
    1AU     AUC   26   9.163   9.271   6.074 -0.0774 -0.0321  0.0290
    1AU     AUC   27   8.965   9.438   5.816 -0.0705  0.0080 -0.0607
    1AU     AUC   28   8.797   9.623   5.618  0.0244  0.0889 -0.0018
    1AU     AUC   29   8.211   8.983   6.652 -0.0121 -0.0350  0.0324
    1AU     AUC   30   7.985   9.167   6.439 -0.0687 -0.0076 -0.0784
    1AU     AUC   31   7.811   9.344   6.191  0.0993 -0.0156 -0.0800
    1AU     AUC   32   9.013   9.080   5.873 -0.0519  0.0629 -0.0466
    1AU     AUC   33   8.798   9.246   5.633 -0.1014 -0.0134  0.0388
    1AU     AUC   34   8.097   8.840   6.303 -0.0442  0.0079 -0.0002
    1AU     AUC   35   7.961   9.038   6.071  0.1390 -0.0210  0.0596
    1AU     AUC   36   9.013   9.585   6.144 -0.0029 -0.0224 -0.0459
    1AU     AUC   37   8.781   9.816   5.926  0.1115  0.0586 -0.1471
    1AU     AUC   38   8.221   9.347   6.699 -0.0261  0.0253  0.0927
    1AU     AUC   39   8.011   9.511   6.488  0.0758 -0.0503  0.0715
    1AU     AUC   40   8.200   8.991   5.759  0.0104 -0.0279 -0.0784
    1AU     AUC   41   8.478   9.102   5.621 -0.0984  0.1637 -0.1539
    1AU     AUC   42   8.207   9.818   6.325 -0.0118 -0.1372 -0.0422
    1AU     AUC   43   8.481   9.947   6.102  0.0521 -0.0050  0.0091
    1AU     AUC   44   8.453   8.711   6.185 -0.0628  0.0622  0.0517
    1AU     AUC   45   8.785   8.786   6.064  0.0342 -0.0351  0.0185
    1AU     AUC   46   8.581   9.547   6.708  0.0017 -0.0231  0.0013
    1AU     AUC   47   8.851   9.636   6.456  0.0514  0.0953  0.0480
    1AU     AUC   48   8.457   9.806   5.784  0.0771  0.0514 -0.1052
    1AU     AUC   49   8.462   9.455   5.588 -0.0045 -0.0265  0.0547
    1AU     AUC   50   8.987   9.298   6.399  0.0368 -0.0150  0.0143
    1AU     AUC   51   9.014   8.983   6.255  0.0729 -0.0654 -0.1261
    1AU     AUC   52   8.022   9.613   6.118  0.0141 -0.0063  0.0202
    1AU     AUC   53   7.948   9.302   5.848  0.0125  0.0246  0.0067
    1AU     AUC   54   8.505   9.160   6.722  0.0288 -0.0022  0.0028
    1AU     AUC   55   8.461   8.827   6.475  0.0127 -0.1487 -0.0112
    1AU    AUSL   56   9.078   8.991   5.560  0.0184  0.0491  0.0599
    1AU    AUSL   57   9.324   8.947   5.967  0.0695  0.0421  0.0325
    1AU     AUL   58   9.359   8.748   5.600  0.0272 -0.0008 -0.0517
    1AU       S   59   9.528   8.547   5.964 -0.6358 -0.0872  0.3990
    1AU     LIG   60   9.787   8.076   6.124 -0.1584  0.3127 -0.3392
    1AU     LIG   61  10.000   7.723   6.285 -0.3171 -0.0100 -0.0286
    1AU     LIG   62  10.267   7.594   6.522 -0.3666  0.2191  0.3584
    1AU       S   63   9.465   9.110   5.328  0.1071  0.2185  0.3524
    1AU     LIG   64   9.876   8.891   5.340  0.0093 -0.3171 -0.3918
    1AU     LIG   65  10.140   8.550   5.769 -0.3348  0.1780 -0.0226
    1AU     LIG   66  10.046   8.514   6.231 -0.2008 -0.3741  0.6253
    1AU    AUSL   67   9.322   9.306   5.736 -0.0367 -0.0848 -0.0671
    1AU    AUSL   68   9.145   9.739   5.629  0.1587 -0.0604  0.0050
    1AU     AUL   69   9.438   9.637   5.468  0.0335 -0.0950 -0.0862
    1AU       S   70   9.538   9.199   5.556  0.2663  0.0660  0.0142
    1AU     LIG   71   9.799   8.926   5.849  0.1609  0.3442  0.0561
    1AU     LIG   72   9.905   9.044   6.271 -0.3481  0.0930  0.2047
    1AU     LIG   73   9.846   9.183   6.646  0.2634  0.3609  0.1137
    1AU       S   74   9.574   9.975   5.807 -0.0067  0.4600 -0.1042
    1AU     LIG   75  10.113   9.802   5.910  0.0094 -0.2989 -0.0590
    1AU     LIG   76  10.441   9.733   6.105  0.0102  0.1139 -0.2389
    1AU     LIG   77  10.734   9.500   6.253  0.3240  0.0237  0.4517
    1AU    AUSL   78   9.049   9.381   5.400 -0.0476 -0.0090 -0.0871
    1AU    AUSL   79   8.720   9.102   5.353 -0.0215  0.0208  0.0335
    1AU     AUL   80   9.015   8.986   5.274  0.0943 -0.0108  0.0465
    1AU       S   81   9.280   9.322   5.131 -0.3991 -0.0291  0.1086
    1AU     LIG   82   9.228   9.101   4.757  0.0914 -0.0112 -0.2594
    1AU     LIG   83   9.233   8.769   4.562 -0.2603 -0.1725 -0.0935
    1AU     LIG   84   9.188   8.476   4.264 -0.1796 -0.0409 -0.0606
    1AU       S   85   8.806   9.315   5.015 -0.1908 -0.0917 -0.0058
    1AU     LIG   86   8.865   8.841   4.851  0.0902  0.0294  0.0437
    1AU     LIG   87   8.731   8.604   4.518 -0.2824 -0.1166  0.1465
    1AU     LIG   88   8.409   8.369   4.477 -0.4208  0.1990  0.3173
    1AU    AUSL   89   7.725   8.758   6.098 -0.0083  0.0501  0.0836
    1AU    AUSL   90   7.723   9.148   5.877  0.0665  0.0114  0.0190
    1AU     AUL   91   7.425   8.930   5.922  0.0005  0.0150  0.0085
    1AU       S   92   7.352   8.768   6.333  0.2682 -0.2438 -0.0711
    1AU     LIG   93   6.985   8.782   6.183  0.1301 -0.4659  0.0277
    1AU     LIG   94   6.680   8.433   6.087 -0.3125 -0.1188  0.0565
    1AU     LIG   95   6.575   8.017   6.103 -0.0877  0.1049  0.4379
    1AU       S   96   7.592   8.843   5.474  0.5211 -0.1254 -0.3986
    1AU     LIG   97   7.226   8.653   5.366  0.0007 -0.0370  0.1369
    1AU     LIG   98   6.942   8.282   5.362 -0.4769  0.0364  0.0814
    1AU     LIG   99   6.589   8.248   5.581  0.1248 -0.1779  0.0948
    1AU    AUSL  100   7.804   8.766   6.519  0.0140 -0.0041 -0.0129
    1AU    AUSL  101   8.040   8.508   6.238 -0.0548  0.0393  0.1040
    1AU     AUL  102   7.665   8.460   6.239 -0.0113 -0.0515 -0.0297
    1AU       S  103   7.956   8.172   6.418 -0.0000 -0.0017 -0.2575
    1AU     LIG  104   7.530   7.992   6.331 -0.0535 -0.2084  0.1533
    1AU     LIG  105   7.191   7.905   6.073  0.0010  0.0554 -0.1216
    1AU     LIG  106   6.991   8.105   5.787 -0.0374 -0.2753  0.2858
    1AU       S  107   7.376   8.693   6.514 -0.0871  0.0966  0.0687
    1AU     LIG  108   7.123   8.293   6.345 -0.1250 -0.1364 -0.0423
    1AU     LIG  109   6.706   8.188   6.572 -0.0175 -0.2945  0.0571
    1AU     LIG  110   6.545   8.168   6.991 -0.1206 -0.0453  0.1640
    1AU    AUSL  111   7.720   9.129   6.309  0.0555 -0.0439 -0.0522
    1AU    AUSL  112   7.978   9.092   6.748 -0.0147  0.0069  0.0835
    1AU     AUL  113   7.701   8.898   6.726  0.0237 -0.0455 -0.0500
    1AU       S  114   7.494   9.185   7.030 -0.4552 -0.0235  0.1909
    1AU     LIG  115   7.193   8.937   6.974  0.0035  0.2461  0.1428
    1AU     LIG  116   6.879   8.737   6.652  0.0076  0.0621 -0.0828
    1AU     LIG  117   6.476   8.706   6.563 -0.0125  0.1924  0.1191
    1AU       S  118   7.382   9.007   6.425  0.0973  0.2524  0.2950
    1AU     LIG  119   7.224   9.380   6.242  0.0826 -0.0633  0.0967
    1AU     LIG  120   6.778   9.575   6.123 -0.0983 -0.0498 -0.2062
    1AU     LIG  121   6.623   9.965   6.183 -0.0818  0.1259 -0.0906
    1AU    AUSL  122   9.073   9.969   6.007  0.0206 -0.0075 -0.0755
    1AU    AUSL  123   8.754   9.901   5.696  0.0641 -0.0706 -0.0356
    1AU     AUL  124   9.132  10.045   5.649 -0.0009 -0.1233 -0.0786
    1AU       S  125   9.530   9.895   5.897  0.1491 -0.1875 -0.3808
    1AU     LIG  126   9.390  10.389   5.943  0.0279 -0.2128 -0.0527
    1AU     LIG  127   9.470  10.682   6.224 -0.0276 -0.1523  0.0664
    1AU     LIG  128   9.459  10.920   6.586 -0.0439  0.4291 -0.3854
    1AU       S  129   8.787  10.406   5.673 -0.0847 -0.0424 -0.0522
    1AU     LIG  130   8.746  10.870   5.748 -0.0091  0.0287  0.1619
    1AU     LIG  131   8.717  11.045   6.085 -0.3727  0.1726  0.3704
    1AU     LIG  132   8.701  11.477   6.084 -0.1280  0.0116 -0.0362
    1AU    AUSL  133   9.147   9.557   6.020  0.0555 -0.0031  0.0104
    1AU    AUSL  134   9.225   9.827   6.381  0.0136 -0.0316 -0.0466
    1AU     AUL  135   9.223  10.030   6.209 -0.0445  0.0796 -0.0666
    1AU       S  136   9.542   9.865   6.526 -0.2733 -0.0264 -0.2657
    1AU     LIG  137   9.733  10.112   6.266  0.1563 -0.0500  0.0760
    1AU     LIG  138  10.220  10.154   6.379 -0.2304 -0.0454  0.1866
    1AU     LIG  139  10.524   9.853   6.586  0.0003  0.1163  0.0282
    1AU       S  140   9.480   9.704   5.940 -0.1615 -0.2294 -0.2269
    1AU     LIG  141   9.823   9.466   5.872 -0.0591  0.0996 -0.0249
    1AU     LIG  142  10.238   9.280   6.005 -0.0305 -0.1033 -0.1498
    1AU     LIG  143  10.621   9.013   6.018 -0.1299 -0.1684  0.1839
    1AU    AUSL  144   7.975   9.492   6.927 -0.0684 -0.0026  0.0451
    1AU    AUSL  145   8.319   9.184   6.973 -0.0283 -0.0116 -0.0127
    1AU     AUL  146   7.975   9.154   7.082  0.0473 -0.0520  0.0525
    1AU       S  147   7.576   9.365   7.156  0.0280 -0.1144 -0.2093
    1AU     LIG  148   7.643   8.931   7.415 -0.1004  0.2705  0.3198
    1AU     LIG  149   7.642   8.557   7.429  0.1051  0.2963 -0.3242
    1AU     LIG  150   7.692   8.241   7.795  0.1351 -0.2105 -0.2686
    1AU       S  151   8.332   9.335   7.317  0.1450  0.5668  0.0679
    1AU     LIG  152   8.433   9.519   7.723  0.0327 -0.1053 -0.1952
    1AU     LIG  153   8.343   9.762   8.021  0.0389  0.1986  0.6070
    1AU     LIG  154   8.511   9.745   8.425 -0.2967  0.0689  0.1522
    1AU    AUSL  155   7.673   9.410   6.641  0.0470  0.0817  0.0063
    1AU    AUSL  156   7.902   9.824   6.654  0.0011 -0.0711  0.0117
    1AU     AUL  157   7.779   9.707   6.944  0.0257 -0.0412 -0.0320
    1AU       S  158   7.489   9.889   6.607 -0.1175  0.4085  0.0829
    1AU     LIG  159   7.311   9.914   6.990 -0.1539  0.1895  0.2007
    1AU     LIG  160   7.154   9.543   7.221  0.0356  0.0924  0.0046
    1AU     LIG  161   6.879   9.655   7.481 -0.1161 -0.0372  0.0653
    1AU       S  162   7.500   9.349   6.830 -0.0151  0.1099 -0.0259
    1AU     LIG  163   7.061   9.432   6.725 -0.0292  0.3653 -0.0695
    1AU     LIG  164   6.807   9.272   6.599 -0.1609  0.1240  0.1727
    1AU     LIG  165   6.387   9.178   6.605  0.1340  0.0909  0.0008
    1AU    AUSL  166   8.277   8.956   5.440 -0.1053 -0.0404  0.0647
    1AU    AUSL  167   7.990   8.820   5.773 -0.0092  0.0630  0.0441
    1AU     AUL  168   8.025   8.708   5.283  0.0332 -0.0361  0.1081
    1AU       S  169   7.742   8.667   5.654  0.3605  0.0101 -0.0062
    1AU     LIG  170   7.868   8.248   5.871 -0.3720  0.2286  0.5451
    1AU     LIG  171   8.073   7.848   6.044 -0.1037  0.0187 -0.0163
    1AU     LIG  172   7.947   7.611   6.363  0.0428  0.0275 -0.2184
    1AU       S  173   8.489   8.493   5.122  0.4895 -0.1289 -0.2542
    1AU     LIG  174   8.579   8.246   4.903 -0.2844 -0.0474 -0.0230
    1AU     LIG  175   8.961   8.174   4.662  0.0938 -0.1145  0.0932
    1AU     LIG  176   9.171   7.885   4.366 -0.1701 -0.0785  0.4344
    1AU    AUSL  177   8.259   8.521   5.641 -0.0744  0.0204  0.1160
    1AU    AUSL  178   8.703   8.399   5.783 -0.0046 -0.0784 -0.0432
    1AU     AUL  179   8.394   8.155   5.692 -0.0767  0.0010 -0.0028
    1AU       S  180   8.377   8.413   5.335  0.1267 -0.3617 -0.0702
    1AU     LIG  181   8.001   8.181   5.359 -0.1088 -0.3999 -0.0173
    1AU     LIG  182   7.774   7.871   5.520  0.1081  0.2269  0.0596
    1AU     LIG  183   7.601   7.798   5.886 -0.1626 -0.1652 -0.1614
    1AU       S  184   8.801   8.042   5.939  0.1510 -0.6260  0.1425
    1AU     LIG  185   8.502   7.711   5.812  0.0899 -0.4965  0.3256
    1AU     LIG  186   8.283   7.377   5.969  0.3119  0.2141  0.0014
    1AU     LIG  187   8.049   7.056   6.330 -0.5312 -0.3697 -0.0052
    1AU    AUSL  188   8.640   8.750   5.562  0.0146  0.0070 -0.0841
    1AU    AUSL  189   8.346   9.305   5.201  0.0204 -0.0251 -0.0615
    1AU     AUL  190   8.472   8.956   5.175  0.0231  0.0044 -0.0316
    1AU       S  191   8.598   9.375   4.919  0.0179  0.0716  0.2525
    1AU     LIG  192   8.652   9.144   4.505 -0.0523 -0.2263  0.2394
    1AU     LIG  193   8.396   8.824   4.194  0.0220 -0.1386  0.1053
    1AU     LIG  194   8.326   8.536   3.852 -0.3292 -0.2609 -0.0341
    1AU       S  195   8.678   8.581   5.344  0.0412 -0.0394 -0.0655
    1AU     LIG  196   9.012   8.480   5.245 -0.1086 -0.0377  0.2541
    1AU     LIG  197   9.367   8.304   5.416  0.0968 -0.0292 -0.3412
    1AU     LIG  198   9.703   8.255   5.626  0.0175 -0.1341 -0.0072
    1AU    AUSL  199   8.243  10.209   6.170  0.0392 -0.0504 -0.0005
    1AU    AUSL  200   8.701  10.148   6.057  0.0688  0.0436 -0.0589
    1AU     AUL  201   8.480  10.516   6.080 -0.0020 -0.0063  0.0458
    1AU       S  202   8.865  10.381   5.864 -0.0075  0.1851  0.0462
    1AU     LIG  203   8.956  10.597   6.235  0.0275  0.1894  0.1237
    1AU     LIG  204   8.972  10.700   6.676 -0.4134 -0.2238  0.1832
    1AU     LIG  205   8.990  11.018   7.022 -0.0647  0.1483  0.2695
    1AU       S  206   8.187  10.477   6.387  0.1035  0.1054  0.1874
    1AU     LIG  207   8.201  10.910   6.149 -0.0245  0.0858 -0.3912
    1AU     LIG  208   8.136  11.332   6.141 -0.2523  0.2908  0.1147
    1AU     LIG  209   8.246  11.761   5.917  0.1330 -0.2447 -0.2055
    1AU    AUSL  210   8.270   9.963   6.506 -0.0383 -0.0291 -0.0910
    1AU    AUSL  211   7.880  10.017   6.238  0.0163  0.0361  0.1029
    1AU     AUL  212   7.926  10.133   6.517 -0.1071  0.0183  0.0195
    1AU       S  213   8.161  10.545   6.607 -0.0695  0.3868  0.3053
    1AU     LIG  214   8.024  11.054   6.633 -0.0140  0.1022  0.0539
    1AU     LIG  215   8.231  11.496   6.575 -0.4078 -0.2065 -0.1387
    1AU     LIG  216   8.576  11.811   6.698  0.0984 -0.2138 -0.5177
    1AU       S  217   7.455  10.028   6.444 -0.3504  0.1940 -0.1223
    1AU     LIG  218   7.296  10.324   6.720  0.1950 -0.0447 -0.1448
    1AU     LIG  219   7.034  10.327   6.949 -0.2350 -0.1993  0.0324
    1AU     LIG  220   6.900  10.144   7.341 -0.1893  0.0723  0.0538
    1AU    AUSL  221   8.588  10.229   6.448 -0.0190 -0.0007  0.0464
    1AU    AUSL  222   8.556   9.981   6.820  0.1277 -0.0458  0.0325
    1AU     AUL  223   8.304  10.145   6.783  0.1513 -0.0480  0.0833
    1AU       S  224   8.868  10.206   6.860  0.3661  0.2817  0.0781
    1AU     LIG  225   8.695  10.565   7.069  0.1629 -0.0178  0.1552
    1AU     LIG  226   8.428  10.844   6.991  0.2149  0.2780  0.1820
    1AU     LIG  227   8.096  11.003   7.182  0.1780  0.3786 -0.1372
    1AU       S  228   8.563  10.448   6.521 -0.0387  0.0701  0.2291
    1AU     LIG  229   8.549  10.926   6.552  0.0808  0.0122 -0.0785
    1AU     LIG  230   8.731  11.342   6.565 -0.1064 -0.5741 -0.1204
    1AU     LIG  231   9.028  11.641   6.459 -0.2865 -0.2783  0.1466
    1AU    AUSL  232   8.748   8.491   6.191  0.0753  0.0236  0.0209
    1AU    AUSL  233   8.938   8.776   5.891  0.0604  0.0153 -0.0487
    1AU     AUL  234   8.981   8.468   5.808 -0.0103  0.0357  0.0028
    1AU       S  235   8.806   8.255   6.259 -0.2312  0.2505  0.3280
    1AU     LIG  236   9.212   8.093   6.486  0.1368  0.1591 -0.1834
    1AU     LIG  237   9.469   7.820   6.515 -0.0140 -0.2290 -0.2150
    1AU     LIG  238   9.599   7.405   6.381 -0.2735  0.0453  0.1235
    1AU       S  239   9.397   8.422   5.989  0.4441  0.5438  0.2388
    1AU     LIG  240   9.345   7.979   6.051 -0.0471 -0.1842  0.0786
    1AU     LIG  241   9.163   7.568   6.166  0.0584 -0.1662  0.0025
    1AU     LIG  242   8.829   7.516   6.112 -0.1075  0.3644  0.1398
    1AU    AUSL  243   8.383   8.594   6.030  0.0226 -0.0434  0.0573
    1AU    AUSL  244   8.400   8.394   6.435 -0.0272  0.0454 -0.0464
    1AU     AUL  245   8.328   8.276   6.124 -0.0407  0.1176  0.0181
    1AU       S  246   8.716   8.048   6.146  0.1030  0.0813 -0.1483
    1AU     LIG  247   8.388   7.797   6.421  0.1829  0.0146 -0.0495
    1AU     LIG  248   8.498   7.311   6.440 -0.1925 -0.1151 -0.0880
    1AU     LIG  249   8.597   7.064   6.840 -0.0310  0.6427  0.1317
    1AU       S  250   8.114   8.164   6.585  0.2549  0.1468  0.1693
    1AU     LIG  251   7.795   7.794   6.805  0.2898  0.3749 -0.0255
    1AU     LIG  252   7.585   7.401   6.632  0.2550  0.3717  0.4121
    1AU     LIG  253   7.494   7.312   6.238 -0.0613 -0.2083  0.0112
    1AU    AUSL  254   8.864   9.685   6.870  0.0029  0.0233 -0.0177
    1AU    AUSL  255   8.384   9.606   6.884  0.0305  0.0202  0.0631
    1AU     AUL  256   8.607   9.851   7.088 -0.0191 -0.0776 -0.0420
    1AU       S  257   8.290   9.547   7.294 -0.4298 -0.0393 -0.0931
    1AU     LIG  258   8.080   9.985   7.218 -0.1911  0.0986 -0.0455
    1AU     LIG  259   7.766  10.157   6.968  0.2517 -0.1067 -0.1036
    1AU     LIG  260   7.896  10.496   7.023  0.1401  0.1911  0.1090
    1AU       S  261   9.022  10.111   6.972  0.2472  0.3667 -0.1520
    1AU     LIG  262   9.179  10.499   7.130  0.0613  0.0277 -0.0525
    1AU     LIG  263   9.588  10.774   7.197 -0.0860  0.2810  0.1038
    1AU     LIG  264   9.912  10.557   7.164  0.3129  0.0409  0.0752
    1AU    AUSL  265   8.833   9.884   6.486  0.1240 -0.0123  0.0137
    1AU    AUSL  266   9.067   9.479   6.557 -0.0129  0.0834  0.0390
    1AU     AUL  267   9.162   9.710   6.760 -0.0405  0.0992  0.0793
    1AU       S  268   9.609   9.698   6.637 -0.2352  0.1104 -0.2541
    1AU     LIG  269  10.028   9.955   6.780  0.1464 -0.1145  0.1725
    1AU     LIG  270  10.241  10.336   6.856 -0.0145 -0.1139  0.2214
    1AU     LIG  271  10.335  10.697   6.882 -0.1434 -0.2242 -0.4643
    1AU       S  272   8.974  10.144   6.677  0.0900 -0.0663 -0.2033
    1AU     LIG  273   9.451  10.299   6.676  0.6105 -0.0432  0.2504
    1AU     LIG  274   9.852  10.537   6.662  0.3518 -0.3348 -0.3130
    1AU     LIG  275  10.100  10.620   6.377 -0.0497  0.0695  0.0055
    1AU    AUSL  276   8.453   9.863   5.392  0.0151  0.0568  0.0547
    1AU    AUSL  277   8.365  10.119   5.763 -0.1127 -0.0078  0.0458
    1AU     AUL  278   8.664  10.046   5.418  0.0181 -0.0883  0.0884
    1AU       S  279   8.429  10.333   5.658  0.0389  0.4306  0.0204
    1AU     LIG  280   8.037  10.495   5.810 -0.0826  0.3356  0.0868
    1AU     LIG  281   7.710  10.458   6.140 -0.2396  0.0048  0.2272
    1AU     LIG  282   7.662  10.579   6.506 -0.1913 -0.1061  0.0704
    1AU       S  283   8.271  10.157   5.112  0.1069  0.0327 -0.0666
    1AU     LIG  284   8.511  10.464   4.997 -0.1632  0.2952  0.1845
    1AU     LIG  285   8.732  10.592   4.642  0.1357  0.0786  0.0843
    1AU     LIG  286   8.744  10.656   4.200 -0.1049  0.0710 -0.3019
    1AU    AUSL  287   8.056   9.932   5.556 -0.0803  0.0733  0.0307
    1AU    AUSL  288   7.795   9.543   5.575  0.0496  0.0061  0.0365
    1AU     AUL  289   7.879   9.614   5.277  0.0443 -0.0622 -0.0007
    1AU       S  290   8.031  10.153   5.359  0.0558 -0.6665 -0.2205
    1AU     LIG  291   7.854  10.578   5.301 -0.1065 -0.0015  0.0192
    1AU     LIG  292   7.613  10.814   5.118 -0.2912  0.0286  0.3049
    1AU     LIG  293   7.506  10.999   4.771 -0.2134  0.2251 -0.0069
    1AU       S  294   7.609   9.809   5.591 -0.0335 -0.1090  0.2044
    1AU     LIG  295   7.395   9.563   5.220 -0.0258 -0.4148 -0.1252
    1AU     LIG  296   7.309   9.164   5.046 -0.2690  0.0282  0.2820
    1AU     LIG  297   6.999   8.835   4.677  0.2737  0.3546  0.0351
    1AU    AUSL  298   8.228   9.524   5.537 -0.0237 -0.1175 -0.0170
    1AU    AUSL  299   8.660   9.515   5.438 -0.0559 -0.0240 -0.0382
    1AU     AUL  300   8.331   9.627   5.197 -0.0167  0.1446 -0.0065
    1AU       S  301   8.762   9.542   5.086 -0.2245  0.3814 -0.3560
    1AU     LIG  302   9.089   9.788   5.115 -0.0320  0.1989  0.0090
    1AU     LIG  303   9.489  10.038   5.189 -0.3915 -0.2100 -0.1588
    1AU     LIG  304   9.606  10.312   5.490 -0.0530  0.0091 -0.2513
    1AU       S  305   8.080  10.001   5.083  0.1339  0.2202 -0.4430
    1AU     LIG  306   8.065   9.612   4.798 -0.2083  0.1149 -0.5108
    1AU     LIG  307   8.145   9.276   4.674  0.0228  0.2490  0.3561
    1AU     LIG  308   7.825   9.059   4.366  0.0371  0.1944 -0.2833
    1AU    AUSL  309   9.209   9.095   6.353  0.0414 -0.0240 -0.1071
    1AU    AUSL  310   9.135   8.662   6.248 -0.0251 -0.0422 -0.1109
    1AU     AUL  311   9.468   8.908   6.227 -0.0456  0.0249  0.0358
    1AU       S  312   9.541   8.809   6.688 -0.3069  0.2925 -0.0230
    1AU     LIG  313   9.933   8.698   6.656 -0.1496  0.1956 -0.2136
    1AU     LIG  314  10.257   8.351   6.823 -0.0909 -0.2766  0.0404
    1AU     LIG  315  10.384   7.891   6.937 -0.0281  0.0331  0.2936
    1AU       S  316   9.246   8.508   6.207  0.1084  0.0467  0.0736
    1AU     LIG  317   9.591   8.403   6.403  0.0418 -0.2148 -0.1901
    1AU     LIG  318   9.910   8.113   6.585  0.4425  0.2544  0.0371
    1AU     LIG  319   9.923   7.760   6.822  0.4339  0.2866 -0.0977
    1AU    AUSL  320   9.123   9.161   6.831 -0.1118  0.0268  0.0648
    1AU    AUSL  321   9.435   9.436   6.295  0.0246  0.0394  0.0061
    1AU     AUL  322   9.369   9.276   6.646  0.0031 -0.0211 -0.0370
    1AU       S  323   9.478   8.887   6.897  0.0572 -0.2579 -0.2017
    1AU     LIG  324   9.721   8.837   7.221  0.1779  0.1790  0.1452
    1AU     LIG  325   9.679   8.626   7.681  0.0374  0.0290 -0.1340
    1AU     LIG  326   9.496   8.456   8.097  0.3679  0.1065  0.1628
    1AU       S  327   9.637   9.567   6.356 -0.2981 -0.0849 -0.3501
    1AU     LIG  328  10.034   9.577   6.463  0.2220 -0.1715 -0.0801
    1AU     LIG  329  10.405   9.387   6.586  0.3417 -0.1170 -0.1884
    1AU     LIG  330  10.944   9.564   6.739  0.0220  0.0721 -0.2599
    1AU    AUSL  331   9.076   8.787   6.643 -0.0535  0.0120  0.0736
    1AU    AUSL  332   8.735   9.029   6.785  0.0401 -0.0268 -0.1129
    1AU     AUL  333   9.052   8.970   7.034  0.0607  0.0248  0.0107
    1AU       S  334   8.891   8.574   7.064 -0.1263  0.1433  0.0483
    1AU     LIG  335   9.088   8.183   7.316  0.1223 -0.2089  0.2952
    1AU     LIG  336   8.968   7.817   7.048  0.0013  0.0611 -0.0181
    1AU     LIG  337   8.910   7.408   7.011 -0.0302  0.0151 -0.4659
    1AU       S  338   9.270   8.705   6.742 -0.2906 -0.2879 -0.0848
    1AU     LIG  339   9.331   8.319   6.951  0.1226 -0.1404  0.0294
    1AU     LIG  340   9.453   7.957   7.011 -0.2080 -0.4360  0.2826
    1AU     LIG  341   9.567   7.570   7.219  0.0496  0.0901  0.2690
    1AU    AUSL  342   7.579   9.535   5.962 -0.0666 -0.1075  0.1480
    1AU    AUSL  343   7.911   9.136   5.499 -0.0135  0.0050  0.0974
    1AU     AUL  344   7.532   9.326   5.627  0.0769 -0.0825  0.0352
    1AU       S  345   7.343   9.784   5.753 -0.3022  0.0210  0.0486
    1AU     LIG  346   7.114   9.963   6.035 -0.0083  0.2593  0.0637
    1AU     LIG  347   7.223  10.356   6.137 -0.4697  0.0501  0.3224
    1AU     LIG  348   7.229  10.819   6.330 -0.2196 -0.1471  0.0359
    1AU       S  349   7.608   8.958   5.374  0.1099  0.4540 -0.2047
    1AU     LIG  350   7.777   9.112   5.024 -0.0889 -0.0909  0.0172
    1AU     LIG  351   7.605   9.439   4.785  0.1206  0.3790  0.0823
    1AU     LIG  352   7.359   9.329   4.506 -0.2679  0.0760 -0.2642
    1AU    AUSL  353   7.979   9.729   5.923  0.0699 -0.0888  0.1114
    1AU    AUSL  354   7.801   9.601   6.295 -0.0383 -0.0677 -0.0317
    1AU     AUL  355   7.653   9.886   6.072  0.0523 -0.0235  0.0381
    1AU       S  356   7.576  10.018   5.654 -0.1864 -0.1329  0.4813
    1AU     LIG  357   7.616  10.375   5.624 -0.2619 -0.2644 -0.3840
    1AU     LIG  358   7.620  10.824   5.798 -0.4487 -0.2957 -0.0694
    1AU     LIG  359   7.719  10.986   6.234 -0.0455  0.0891 -0.3079
    1AU       S  360   7.369   9.741   6.474  0.1385 -0.4135  0.5070
    1AU     LIG  361   6.987   9.918   6.582  0.1311 -0.1575  0.2018
    1AU     LIG  362   6.564   9.702   6.632  0.0603  0.0759  0.3383
    1AU     LIG  363   6.101   9.639   6.601  0.0763  0.0482  0.0497
    1AU    AUSL  364   8.421   8.770   6.918  0.0072  0.0726  0.0319
    1AU    AUSL  365   8.712   9.343   7.048 -0.0605 -0.0267 -0.0288
    1AU     AUL  366   8.588   8.961   7.142 -0.0074 -0.0935  0.0316
    1AU       S  367   8.634   9.416   7.266  0.0786 -0.0111  0.1991
    1AU     LIG  368   9.094   9.504   7.257 -0.0957  0.2460 -0.4376
    1AU     LIG  369   9.457   9.497   7.119  0.1971  0.1222  0.2587
    1AU     LIG  370   9.880   9.428   7.077  0.0743 -0.4423 -0.1936
    1AU       S  371   8.737   8.518   7.056  0.5492  0.0473 -0.1194
    1AU     LIG  372   8.551   8.162   7.177  0.0538 -0.0691 -0.0237
    1AU     LIG  373   8.371   7.763   6.932  0.1946 -0.0926  0.4369
    1AU     LIG  374   8.130   7.233   6.776  0.1288 -0.0892  0.4015
    1AU    AUSL  375   8.681   8.646   6.609  0.0159 -0.0845  0.0579
    1AU    AUSL  376   8.219   8.763   6.567 -0.0241 -0.0506  0.0440
    1AU     AUL  377   8.360   8.500   6.791  0.0310  0.0670 -0.0129
    1AU       S  378   8.840   8.416   6.768  0.1636 -0.1575  0.3204
    1AU     LIG  379   8.738   8.110   6.717 -0.3401  0.0878 -0.4159
    1AU     LIG  380   8.881   7.693   6.573  0.2538  0.1085 -0.0716
    1AU     LIG  381   8.976   7.244   6.495 -0.2423 -0.0471 -0.1778
    1AU       S  382   7.949   8.369   6.676  0.1916  0.1162  0.5024
    1AU     LIG  383   7.538   8.261   6.828 -0.0210 -0.0569 -0.0575
    1AU     LIG  384   7.119   8.364   6.859  0.0005  0.0472  0.1195
    1AU     LIG  385   6.876   8.498   7.114  0.0836 -0.2743  0.1801
    2POPC   NC3  386   2.426   4.148   8.912 -0.0201 -0.0455  0.2519
    2POPC   PO4  387   2.192   4.224   8.536 -0.1059  0.0994  0.1059
    2POPC   GL1  388   2.497   4.167   8.173 -0.0707  0.2658 -0.3318
    2POPC   GL2  389   2.278   3.976   7.976 -0.2820  0.0374  0.2469
    2POPC   C1A  390   2.739   4.195   7.804  0.1058  0.1602  0.1597
    2POPC   D2A  391   2.667   3.957   7.490  0.2629  0.3260 -0.0047
    2POPC   C3A  392   2.721   3.472   7.512  0.1831 -0.2499  0.2320
    2POPC   C4A  393   2.791   3.134   7.323  0.2643 -0.4938  0.1495
    2POPC   C1B  394   2.268   4.240   7.562  0.0239 -0.0718  0.0953
    2POPC   C2B  395   2.120   4.296   7.175  0.1151 -0.0653  0.2767
    2POPC   C3B  396   2.159   4.605   6.828 -0.2487 -0.1308  0.0869
    2POPC   C4B  397   1.837   4.772   6.520  0.0493  0.0277  0.2576
    3POPC   NC3  398   0.022   4.082   8.481  0.1678 -0.0291 -0.2587
    3POPC   PO4  399  -0.443   3.992   8.265 -0.3767 -0.0854  0.1645
    3POPC   GL1  400  -0.360   3.739   7.977 -0.0012 -0.1687  0.1782
    3POPC   GL2  401  -0.302   3.475   8.185  0.1094  0.0753 -0.1046
    3POPC   C1A  402  -0.038   3.600   7.790 -0.1442  0.1903  0.0216
    3POPC   D2A  403   0.047   3.311   7.452  0.0229 -0.0114 -0.2313
    3POPC   C3A  404  -0.107   3.104   7.049 -0.1393 -0.0904 -0.3183
    3POPC   C4A  405   0.073   3.154   6.587  0.3297  0.2180  0.0240
    3POPC   C1B  406  -0.421   3.285   7.741 -0.0311 -0.0626  0.3515
    3POPC   C2B  407  -0.498   3.349   7.317 -0.0243  0.0501 -0.0091
    3POPC   C3B  408  -0.820   3.535   7.020  0.2606  0.0799 -0.1623
    3POPC   C4B  409  -1.194   3.667   6.912 -0.0536 -0.0132 -0.0636
    4POPC   NC3  410   2.123   0.980   8.433  0.0343 -0.0526  0.1686
    4POPC   PO4  411   1.824   0.613   8.408  0.0866  0.2403  0.1415
    4POPC   GL1  412   1.586   0.711   8.042  0.1437 -0.0330 -0.0957
    4POPC   GL2  413   1.460   0.968   8.249 -0.2371  0.3925  0.1068
    4POPC   C1A  414   1.471   0.840   7.592  0.0707  0.1148 -0.0777
    4POPC   D2A  415   1.100   1.125   7.424  0.1125  0.1661  0.0889
    4POPC   C3A  416   0.799   1.375   7.174 -0.1967  0.3086 -0.2768
    4POPC   C4A  417   1.210   1.551   6.869  0.1191  0.1580  0.2480
    4POPC   C1B  418   1.162   0.953   7.987 -0.2942  0.1409  0.4443
    4POPC   C2B  419   0.764   0.896   7.747  0.2994  0.0773  0.2929
    4POPC   C3B  420   0.480   0.740   7.555  0.2397 -0.1907  0.1797
    4POPC   C4B  421   0.495   0.317   7.307  0.1512  0.0818 -0.1232
    5POPC   NC3  422   4.050   2.690   8.932 -0.2751 -0.3043  0.1428
    5POPC   PO4  423   3.562   2.672   8.687  0.0717 -0.3441  0.0466
    5POPC   GL1  424   3.576   2.647   8.189  0.2273  0.1077 -0.2849
    5POPC   GL2  425   3.385   2.403   8.014  0.2315  0.1497  0.0340
    5POPC   C1A  426   3.726   2.578   7.727 -0.3177 -0.1201  0.1424
    5POPC   D2A  427   3.795   2.573   7.355 -0.2147 -0.0506  0.2556
    5POPC   C3A  428   4.141   2.703   7.014  0.2378  0.1849  0.2544
    5POPC   C4A  429   4.509   2.953   6.698  0.0042 -0.0981 -0.3857
    5POPC   C1B  430   3.134   2.312   7.568 -0.1769  0.1262 -0.1590
    5POPC   C2B  431   3.466   2.144   7.275 -0.1186 -0.1502 -0.0763
    5POPC   C3B  432   3.849   2.124   6.979 -0.1550  0.1595  0.0278
    5POPC   C4B  433   3.899   1.827   6.668  0.0188  0.1573 -0.0069
    6POPC   NC3  434   8.491   0.418   9.425  0.2322 -0.1237  0.0341
    6POPC   PO4  435   8.350   0.855   9.508  0.0744 -0.1243  0.0384
    6POPC   GL1  436   8.219   0.934   9.162 -0.1402 -0.0166 -0.0275
    6POPC   GL2  437   7.943   0.836   8.927 -0.1944  0.1759  0.0798
    6POPC   C1A  438   8.348   0.788   8.755 -0.0686 -0.1356 -0.0138
    6POPC   D2A  439   8.387   0.959   8.410 -0.2462 -0.1896  0.3479
    6POPC   C3A  440   8.705   0.960   8.111 -0.1846  0.1301 -0.2491
    6POPC   C4A  441   8.671   0.589   7.913 -0.3221  0.1546  0.3324
    6POPC   C1B  442   7.943   0.542   8.441  0.2271 -0.0487 -0.1352
    6POPC   C2B  443   8.268   0.518   8.181 -0.0084 -0.1153 -0.1328
    6POPC   C3B  444   8.703   0.495   8.367 -0.2414  0.0015 -0.1609
    6POPC   C4B  445   8.874   0.829   8.598 -0.1376 -0.2128 -0.1310
    7POPC   NC3  446   5.980   4.190   8.446 -0.2532  0.1565  0.0817
    7POPC   PO4  447   6.383   4.151   8.267  0.1254  0.4633  0.1469
    7POPC   GL1  448   6.207   3.855   7.991 -0.2040  0.1709 -0.2400
    7POPC   GL2  449   5.840   3.957   7.985 -0.3043 -0.0283  0.0550
    7POPC   C1A  450   6.159   3.711   7.556 -0.1295  0.1177 -0.1217
    7POPC   D2A  451   5.923   3.435   7.371 -0.1832 -0.0972  0.1143
    7POPC   C3A  452   6.115   3.500   6.955  0.0170 -0.0580  0.1247
    7POPC   C4A  453   6.333   3.751   7.113 -0.2620  0.2211  0.1012
    7POPC   C1B  454   5.926   4.200   7.674 -0.0868  0.1566  0.0927
    7POPC   C2B  455   5.851   4.600   7.401 -0.5072  0.1877 -0.2346
    7POPC   C3B  456   5.856   4.654   6.937 -0.1605  0.1500  0.2674
    7POPC   C4B  457   5.875   4.793   6.535 -0.1083  0.1796  0.0294
    8POPC   NC3  458   0.360   7.541   8.762 -0.1772 -0.1495 -0.0822
    8POPC   PO4  459   0.048   7.175   8.623  0.0953 -0.1668 -0.0114
    8POPC   GL1  460   0.045   7.113   8.120 -0.3045 -0.1704  0.0884
    8POPC   GL2  461   0.158   7.405   8.134 -0.0964  0.0176  0.0569
    8POPC   C1A  462   0.069   7.153   7.688  0.4081  0.0102 -0.1126
    8POPC   D2A  463  -0.265   7.055   7.375 -0.2032  0.1823  0.3797
    8POPC   C3A  464  -0.312   7.123   6.994  0.0437  0.1380 -0.3041
    8POPC   C4A  465  -0.189   6.960   6.559 -0.0988 -0.0275 -0.0101
    8POPC   C1B  466   0.545   7.483   7.828 -0.0216  0.0547 -0.2438
    8POPC   C2B  467   0.658   7.688   7.408 -0.1093 -0.0446 -0.1402
    8POPC   C3B  468   0.751   7.406   7.016  0.0519 -0.2828  0.0187
    8POPC   C4B  469   0.774   7.099   6.662 -0.1072 -0.1400  0.1812
    9POPC   NC3  470   6.130   8.316   8.570 -0.1463  0.0519  0.3125
    9POPC   PO4  471   6.165   8.684   8.862 -0.1010 -0.0058 -0.1638
    9POPC   GL1  472   6.115   8.740   8.340 -0.2932  0.1580 -0.3248
    9POPC   GL2  473   6.395   8.905   8.253  0.2303  0.0783 -0.0629
    9POPC   C1A  474   5.897   8.789   7.989  0.2031 -0.2726  0.0123
    9POPC   D2A  475   5.580   8.825   7.748 -0.1138  0.0643  0.3766
    9POPC   C3A  476   5.439   9.179   7.654 -0.0968  0.0793  0.2078
    9POPC   C4A  477   5.513   9.452   7.428  0.0250 -0.0613 -0.0198
    9POPC   C1B  478   6.351   8.735   7.816  0.2492  0.2378  0.0271
    9POPC   C2B  479   6.189   8.756   7.351 -0.2528  0.1416  0.2085
    9POPC   C3B  480   6.118   9.084   7.062  0.0593  0.1829  0.1737
    9POPC   C4B  481   5.851   9.238   6.810  0.4247 -0.0710 -0.2391
   10POPC   NC3  482   6.982   6.085   8.351 -0.1683 -0.0530  0.0756
   10POPC   PO4  483   6.918   6.492   8.241 -0.1025  0.3086 -0.0884
   10POPC   GL1  484   7.296   6.322   7.972  0.0420 -0.1959  0.0420
   10POPC   GL2  485   7.522   6.593   7.983  0.0313 -0.2901 -0.1089
   10POPC   C1A  486   7.498   6.355   7.483 -0.0639  0.0395  0.0339
   10POPC   D2A  487   7.695   6.450   7.158 -0.0672  0.2382 -0.2783
   10POPC   C3A  488   7.672   6.322   6.776 -0.0851 -0.2488 -0.1720
   10POPC   C4A  489   7.885   6.454   6.401 -0.0381  0.5756  0.1394
   10POPC   C1B  490   7.720   6.855   7.628  0.3238  0.1353 -0.0408
   10POPC   C2B  491   8.012   6.772   7.345 -0.1244  0.2341 -0.5549
   10POPC   C3B  492   8.166   6.663   6.880 -0.0651 -0.0012  0.0014
   10POPC   C4B  493   8.402   6.521   6.489 -0.2004 -0.0043  0.1111
   11POPC   NC3  494   6.378   1.202   8.463  0.2905 -0.0464  0.2177
   11POPC   PO4  495   6.057   1.271   8.142  0.0573  0.0178 -0.1319
   11POPC   GL1  496   6.054   1.330   7.683 -0.3563 -0.0925 -0.0450
   11POPC   GL2  497   6.012   1.590   7.684 -0.0058  0.3011  0.2299
   11POPC   C1A  498   6.099   1.060   7.230  0.0626 -0.3277 -0.1937
   11POPC   D2A  499   6.057   0.856   6.850  0.3391 -0.0764 -0.0034
   11POPC   C3A  500   5.641   0.617   6.786 -0.0530  0.4449  0.1507
   11POPC   C4A  501   5.227   0.547   6.468 -0.2529  0.0951  0.0022
   11POPC   C1B  502   6.069   1.819   7.342 -0.2199  0.1456  0.4840
   11POPC   C2B  503   6.125   1.806   6.889 -0.0754  0.0330 -0.2756
   11POPC   C3B  504   5.903   1.848   6.474 -0.1277  0.1919 -0.2185
   11POPC   C4B  505   5.767   1.665   6.145  0.1434 -0.3450 -0.1677
   12POPC   NC3  506   6.544   2.374   8.324  0.2560 -0.2347 -0.0367
   12POPC   PO4  507   6.103   2.253   8.305 -0.4502  0.2183 -0.0177
   12POPC   GL1  508   6.028   2.333   7.875  0.1268 -0.0047 -0.1197
   12POPC   GL2  509   5.824   2.050   7.699 -0.0214  0.0475  0.0413
   12POPC   C1A  510   6.119   2.348   7.424  0.1201 -0.1314  0.0001
   12POPC   D2A  511   5.997   2.290   7.119 -0.0739  0.0075 -0.2668
   12POPC   C3A  512   6.291   2.184   6.708 -0.0435  0.4007  0.0868
   12POPC   C4A  513   6.435   2.544   6.510  0.1283 -0.5521  0.1153
   12POPC   C1B  514   5.622   2.487   7.451 -0.1789 -0.0125  0.0346
   12POPC   C2B  515   5.595   2.897   7.310  0.0346 -0.1766  0.0238
   12POPC   C3B  516   5.478   3.114   6.903 -0.1534  0.1002 -0.0103
   12POPC   C4B  517   5.658   2.943   6.396 -0.4143 -0.0212 -0.1438
   13POPC   NC3  518   0.553   9.120   9.009  0.1333 -0.4768 -0.0761
   13POPC   PO4  519   0.436   8.867   8.635 -0.1732 -0.1283  0.0967
   13POPC   GL1  520   0.399   8.615   8.217  0.0964 -0.2652 -0.1606
   13POPC   GL2  521   0.496   8.318   8.183  0.1075 -0.2837  0.0094
   13POPC   C1A  522   0.404   8.747   7.861 -0.1881 -0.1257  0.0645
   13POPC   D2A  523   0.305   8.984   7.589 -0.0991 -0.2434 -0.3357
   13POPC   C3A  524  -0.018   9.213   7.646  0.0837 -0.4084  0.2185
   13POPC   C4A  525  -0.300   9.161   7.465 -0.0913  0.1610  0.1541
   13POPC   C1B  526   0.649   8.042   7.741 -0.0203  0.0016 -0.0323
   13POPC   C2B  527   0.864   8.133   7.319 -0.1834 -0.1439 -0.0619
   13POPC   C3B  528   1.115   8.306   6.937  0.2506  0.1621 -0.1930
   13POPC   C4B  529   0.925   8.408   6.510 -0.2047  0.0911  0.0253
   14POPC   NC3  530   6.378   5.401   8.574  0.5796  0.1662 -0.0177
   14POPC   PO4  531   6.301   5.795   8.643 -0.0704 -0.2575 -0.0481
   14POPC   GL1  532   6.415   5.773   8.231  0.2185 -0.1851  0.1609
   14POPC   GL2  533   6.202   5.773   7.865 -0.0366 -0.3583  0.1041
   14POPC   C1A  534   6.699   5.757   7.856  0.2147  0.0826 -0.0180
   14POPC   D2A  535   6.577   6.074   7.484 -0.0874  0.0042 -0.1574
   14POPC   C3A  536   6.483   5.819   7.116  0.1025  0.1526 -0.2839
   14POPC   C4A  537   6.321   5.609   6.796  0.1073 -0.1063 -0.3266
   14POPC   C1B  538   6.008   6.040   7.627 -0.2663  0.0583 -0.1522
   14POPC   C2B  539   6.157   6.194   7.184 -0.1747 -0.1462 -0.0392
   14POPC   C3B  540   6.153   6.077   6.768 -0.1581  0.0070  0.3665
   14POPC   C4B  541   6.292   5.853   6.373  0.4401 -0.2981  0.0634
   15POPC   NC3  542   7.691   0.142   8.888 -0.2928  0.1890  0.0109
   15POPC   PO4  543   7.304  -0.097   8.869 -0.0738 -0.2387 -0.1835
   15POPC   GL1  544   7.320  -0.052   8.423  0.2698 -0.2284  0.2584
   15POPC   GL2  545   7.210  -0.307   8.427 -0.1286 -0.0036  0.1752
   15POPC   C1A  546   7.320   0.326   8.226  0.0148  0.0357 -0.0838
   15POPC   D2A  547   7.470   0.617   8.062 -0.0968 -0.1126 -0.0262
   15POPC   C3A  548   7.892   0.420   7.815  0.1486  0.1344 -0.0988
   15POPC   C4A  549   8.327   0.339   7.657 -0.1532 -0.0272 -0.2956
   15POPC   C1B  550   7.060  -0.371   8.005  0.2714 -0.0223 -0.2062
   15POPC   C2B  551   6.780  -0.700   7.760  0.2977 -0.0364 -0.2097
   15POPC   C3B  552   6.673  -0.864   7.369 -0.1767 -0.0249 -0.0216
   15POPC   C4B  553   6.597  -0.727   7.030  0.2500 -0.1013 -0.0946
   16POPC   NC3  554   8.961   6.997   8.744  0.0144 -0.0513 -0.2585
   16POPC   PO4  555   8.460   7.107   8.842  0.2483 -0.1798 -0.0684
   16POPC   GL1  556   8.531   7.260   8.415  0.2500  0.1354  0.0801
   16POPC   GL2  557   8.418   7.019   8.142  0.1492 -0.1458  0.2492
   16POPC   C1A  558   8.819   7.531   8.302 -0.0149  0.0087 -0.0757
   16POPC   D2A  559   9.028   7.853   8.094  0.3480  0.2432  0.1169
   16POPC   C3A  560   8.882   8.204   8.202  0.2450 -0.0171  0.2994
   16POPC   C4A  561   8.660   8.619   8.113 -0.1934 -0.2284  0.1959
   16POPC   C1B  562   8.664   6.825   7.813 -0.1826 -0.1409 -0.0358
   16POPC   C2B  563   8.659   6.439   7.564  0.0810  0.0509 -0.0646
   16POPC   C3B  564   8.536   5.987   7.451  0.6387  0.0558 -0.0562
   16POPC   C4B  565   8.239   5.763   7.156  0.0166 -0.0782 -0.1376
   17POPC   NC3  566   1.738   6.504   8.953 -0.1715  0.2320  0.4587
   17POPC   PO4  567   1.474   6.509   8.510  0.0564  0.1570 -0.3382
   17POPC   GL1  568   1.633   6.529   8.182 -0.0119 -0.2805  0.3590
   17POPC   GL2  569   1.646   6.885   8.099  0.1339  0.0844  0.0368
   17POPC   C1A  570   1.574   6.356   7.780 -0.2140  0.0733  0.3796
   17POPC   D2A  571   1.684   6.416   7.438 -0.4899  0.0402 -0.0927
   17POPC   C3A  572   1.850   6.170   7.138 -0.1428 -0.0714 -0.1987
   17POPC   C4A  573   2.096   6.369   6.778 -0.0358  0.0578  0.0999
   17POPC   C1B  574   1.602   7.140   7.725  0.0706 -0.4268  0.1332
   17POPC   C2B  575   1.496   6.941   7.273 -0.0777 -0.2344 -0.0406
   17POPC   C3B  576   1.631   7.196   6.838 -0.0988  0.4151 -0.4163
   17POPC   C4B  577   1.736   7.197   6.405  0.4666  0.0541  0.1946
   18POPC   NC3  578   2.558   3.675   8.287 -0.2090  0.0407  0.0500
   18POPC   PO4  579   2.758   3.943   8.519  0.0210 -0.3129  0.0966
   18POPC   GL1  580   3.007   3.933   8.133  0.1142  0.2358 -0.0877
   18POPC   GL2  581   2.890   3.737   7.909  0.0243  0.0477 -0.2504
   18POPC   C1A  582   3.349   4.058   7.941  0.1128  0.0623  0.0584
   18POPC   D2A  583   3.633   3.975   7.658  0.0542 -0.1329 -0.1608
   18POPC   C3A  584   3.576   3.833   7.234  0.1355 -0.4569  0.0286
   18POPC   C4A  585   3.498   3.507   6.933 -0.0935 -0.2549  0.1290
   18POPC   C1B  586   3.150   3.788   7.574 -0.1131 -0.0387 -0.1912
   18POPC   C2B  587   3.004   3.690   7.166  0.2159  0.2152 -0.0322
   18POPC   C3B  588   2.784   3.961   6.813  0.0070  0.0951  0.0903
   18POPC   C4B  589   2.535   4.329   6.769 -0.1816  0.2815  0.1996
   19POPC   NC3  590   4.928   4.236   8.472  0.3653 -0.0193  0.2517
   19POPC   PO4  591   5.039   3.804   8.362  0.0364  0.1746 -0.0660
   19POPC   GL1  592   4.982   3.795   7.990 -0.1657  0.0894 -0.2789
   19POPC   GL2  593   5.134   4.031   7.794 -0.0677 -0.0509  0.3496
   19POPC   C1A  594   5.127   3.649   7.493 -0.1743  0.2558  0.1196
   19POPC   D2A  595   5.052   3.441   7.062 -0.3312  0.3904 -0.2644
   19POPC   C3A  596   5.025   3.084   6.758 -0.0769 -0.1982 -0.0328
   19POPC   C4A  597   4.951   2.918   6.402  0.0723  0.0266  0.1392
   19POPC   C1B  598   4.960   4.079   7.364  0.1979  0.3022  0.0819
   19POPC   C2B  599   5.194   3.881   6.967 -0.0388 -0.3571  0.1181
   19POPC   C3B  600   5.177   3.752   6.531 -0.2574  0.3288 -0.1891
   19POPC   C4B  601   4.958   3.456   6.286 -0.1656 -0.1591  0.0528
   20POPC   NC3  602   2.959   9.190   8.809  0.2244 -0.2971 -0.1634
   20POPC   PO4  603   3.159   9.291   8.430  0.0954 -0.1394 -0.3069
   20POPC   GL1  604   3.246   9.236   7.977  0.1415 -0.1768  0.2260
   20POPC   GL2  605   3.077   9.192   7.745 -0.0471 -0.0417 -0.0367
   20POPC   C1A  606   3.622   9.280   7.641 -0.1205  0.1386  0.0454
   20POPC   D2A  607   3.730   9.513   7.240 -0.2913  0.0265 -0.5436
   20POPC   C3A  608   3.625  10.022   7.190  0.0114  0.1632 -0.0142
   20POPC   C4A  609   3.368  10.253   6.841  0.3195  0.0482  0.2313
   20POPC   C1B  610   3.143   9.135   7.351 -0.1723 -0.0995  0.2737
   20POPC   C2B  611   3.114   9.253   6.898 -0.1876  0.0122  0.2128
   20POPC   C3B  612   3.262   9.249   6.506 -0.0109  0.0407 -0.1407
   20POPC   C4B  613   3.262   8.965   6.133  0.0542 -0.2300 -0.1210
   21POPC   NC3  614   6.328   7.628   8.150  0.0568  0.1433 -0.1314
   21POPC   PO4  615   6.101   7.886   8.267  0.0960  0.0604  0.0407
   21POPC   GL1  616   6.014   8.045   7.905 -0.0678 -0.1242  0.0611
   21POPC   GL2  617   6.297   7.887   7.671  0.0190  0.1746 -0.3571
   21POPC   C1A  618   5.839   8.320   7.614  0.0368 -0.0157  0.1616
   21POPC   D2A  619   5.732   8.290   7.159  0.0821 -0.0196  0.2973
   21POPC   C3A  620   5.724   8.570   6.813  0.1630  0.0925  0.1460
   21POPC   C4A  621   5.990   8.777   6.556  0.2134 -0.0591  0.1696
   21POPC   C1B  622   6.131   7.923   7.136 -0.1217  0.0958 -0.0131
   21POPC   C2B  623   6.116   8.087   6.708  0.2123  0.1852 -0.4681
   21POPC   C3B  624   6.224   8.381   6.328  0.2383  0.1256 -0.3895
   21POPC   C4B  625   6.146   8.324   5.886 -0.0246  0.0269 -0.0493
   22POPC   NC3  626   4.887   0.451   8.411 -0.0384  0.0081 -0.4123
   22POPC   PO4  627   5.264   0.511   8.141  0.0974 -0.0425  0.1892
   22POPC   GL1  628   5.261   0.346   7.790 -0.3198 -0.0921 -0.1396
   22POPC   GL2  629   5.196   0.677   7.662 -0.0025  0.1278  0.6253
   22POPC   C1A  630   5.155   0.066   7.585 -0.3071 -0.2143  0.0891
   22POPC   D2A  631   5.204  -0.036   7.110 -0.1316  0.0437  0.0049
   22POPC   C3A  632   5.189   0.258   6.863 -0.3087  0.2374  0.3657
   22POPC   C4A  633   4.983   0.672   6.861 -0.0713 -0.0433 -0.0068
   22POPC   C1B  634   5.047   0.933   7.296  0.1411  0.1793 -0.0169
   22POPC   C2B  635   5.213   1.385   7.185  0.0103 -0.2134 -0.0148
   22POPC   C3B  636   5.203   1.717   6.919  0.4036  0.0010 -0.1578
   22POPC   C4B  637   5.120   2.160   7.054  0.0381  0.2918  0.2266
   23POPC   NC3  638   4.379   5.321   8.562  0.0147  0.2856 -0.0192
   23POPC   PO4  639   4.801   5.135   8.437  0.0938 -0.1346  0.1620
   23POPC   GL1  640   4.680   5.169   8.012  0.2523  0.0078 -0.2115
   23POPC   GL2  641   4.741   4.846   7.923  0.1451 -0.0468  0.2216
   23POPC   C1A  642   4.753   5.333   7.649 -0.0847 -0.0096  0.0343
   23POPC   D2A  643   4.567   5.514   7.338  0.0370 -0.0107  0.0631
   23POPC   C3A  644   4.559   5.280   6.930 -0.1982 -0.1973  0.4371
   23POPC   C4A  645   4.818   5.204   6.569  0.0763  0.1690  0.4195
   23POPC   C1B  646   5.040   4.875   7.648 -0.0909  0.0846  0.3296
   23POPC   C2B  647   5.194   4.656   7.413  0.2653 -0.0894  0.0078
   23POPC   C3B  648   5.127   4.410   6.984  0.0994  0.3630  0.2100
   23POPC   C4B  649   4.881   4.134   6.726 -0.4083  0.1011 -0.0528
   24POPC   NC3  650   4.323   2.033   8.555  0.1005  0.0068  0.0096
   24POPC   PO4  651   4.182   1.774   8.219 -0.0771  0.1527 -0.0044
   24POPC   GL1  652   4.027   2.001   7.857  0.0612 -0.1930 -0.0127
   24POPC   GL2  653   3.686   2.089   7.824 -0.2123 -0.1145 -0.1835
   24POPC   C1A  654   4.119   2.187   7.487  0.0125 -0.2986  0.4534
   24POPC   D2A  655   4.332   2.181   7.062 -0.0357  0.0137 -0.1004
   24POPC   C3A  656   4.235   2.212   6.608  0.1036  0.5471  0.0049
   24POPC   C4A  657   4.046   2.052   6.251  0.0749 -0.0575  0.1972
   24POPC   C1B  658   3.802   1.781   7.466 -0.4205 -0.1228 -0.5369
   24POPC   C2B  659   4.157   1.671   7.197 -0.3788  0.0919  0.0971
   24POPC   C3B  660   4.420   1.690   6.775  0.1627  0.0357 -0.0315
   24POPC   C4B  661   4.831   1.463   6.529  0.0521 -0.1703 -0.0291
   25POPC   NC3  662   4.102   8.682   8.159 -0.0316  0.3076 -0.1690
   25POPC   PO4  663   4.069   9.052   8.343  0.1088  0.1987 -0.3111
   25POPC   GL1  664   4.060   9.202   7.941  0.2630  0.0221  0.1769
   25POPC   GL2  665   4.073   9.020   7.748  0.0932 -0.0646  0.3937
   25POPC   C1A  666   4.227   9.527   7.644  0.2117 -0.3935  0.6061
   25POPC   D2A  667   4.222   9.578   7.185 -0.4671  0.0658 -0.4913
   25POPC   C3A  668   3.913   9.766   6.858 -0.0513 -0.0265  0.0212
   25POPC   C4A  669   3.882  10.131   6.563 -0.1026 -0.1694  0.1677
   25POPC   C1B  670   4.124   9.060   7.336 -0.2917 -0.1321 -0.0040
   25POPC   C2B  671   4.226   9.201   6.840 -0.1504 -0.2414  0.0555
   25POPC   C3B  672   4.405   9.042   6.481 -0.1245 -0.0682  0.1462
   25POPC   C4B  673   4.275   8.741   6.206 -0.0914 -0.2511  0.0652
   26POPC   NC3  674   5.642   3.774   9.135  0.3361  0.3961  0.1592
   26POPC   PO4  675   5.870   3.423   8.805  0.0868 -0.0405  0.0402
   26POPC   GL1  676   5.990   3.376   8.285 -0.2712  0.1289  0.1485
   26POPC   GL2  677   6.320   3.230   7.983  0.0014 -0.0933 -0.0434
   26POPC   C1A  678   5.861   3.428   7.860  0.2536 -0.0176 -0.1577
   26POPC   D2A  679   5.622   3.747   7.574  0.3369  0.0288  0.0930
   26POPC   C3A  680   5.802   3.841   7.139 -0.1747  0.0499 -0.1211
   26POPC   C4A  681   5.560   3.576   6.921  0.1808  0.2043 -0.0530
   26POPC   C1B  682   6.356   3.227   7.631 -0.2184 -0.2037 -0.2550
   26POPC   C2B  683   6.413   3.230   7.194  0.4464  0.1684  0.1123
   26POPC   C3B  684   6.769   3.487   6.990  0.0932  0.3150 -0.4116
   26POPC   C4B  685   6.882   3.360   6.699  0.0445  0.0825  0.1546
   27POPC   NC3  686   9.254   4.909   8.319  0.1512  0.0191 -0.2719
   27POPC   PO4  687   8.725   4.708   8.399 -0.2421  0.0376  0.6333
   27POPC   GL1  688   8.822   4.925   7.952  0.0931  0.0833  0.0064
   27POPC   GL2  689   8.558   4.984   7.946 -0.0163  0.3606  0.4362
   27POPC   C1A  690   8.839   5.032   7.474 -0.0510  0.1826  0.3002
   27POPC   D2A  691   9.239   5.243   7.380 -0.1948 -0.3060  0.0388
   27POPC   C3A  692   9.364   5.167   6.950 -0.1394  0.0690  0.0470
   27POPC   C4A  693   9.291   4.841   6.737  0.0968 -0.0559 -0.2959
   27POPC   C1B  694   8.351   4.777   7.598 -0.0840  0.2479  0.2284
   27POPC   C2B  695   8.423   4.692   7.127 -0.0147 -0.0435  0.1652
   27POPC   C3B  696   8.745   4.549   6.810  0.0855  0.0185  0.0968
   27POPC   C4B  697   9.152   4.388   6.674 -0.3004 -0.0612  0.0991
   28POPC   NC3  698   6.104   6.268   8.258  0.0089  0.4203 -0.0985
   28POPC   PO4  699   5.593   6.310   8.159 -0.0577 -0.0317 -0.1476
   28POPC   GL1  700   5.798   6.399   7.858  0.0245  0.1453 -0.1469
   28POPC   GL2  701   6.154   6.568   7.785  0.2296  0.0870 -0.1032
   28POPC   C1A  702   5.719   6.440   7.437  0.2345 -0.2670 -0.2963
   28POPC   D2A  703   5.584   6.674   7.019  0.2688  0.1200 -0.0245
   28POPC   C3A  704   5.141   6.711   6.974 -0.4652 -0.0460  0.0751
   28POPC   C4A  705   4.704   6.576   7.136  0.1640 -0.4041 -0.2382
   28POPC   C1B  706   6.475   6.609   7.311  0.1653  0.0868 -0.0139
   28POPC   C2B  707   6.709   6.333   7.082 -0.0835  0.1390 -0.2031
   28POPC   C3B  708   6.727   6.067   6.738  0.0858  0.2730 -0.0763
   28POPC   C4B  709   6.786   5.699   6.404  0.0634 -0.2184  0.1543
   29POPC   NC3  710   7.707   5.263   8.467  0.1776  0.0003 -0.1843
   29POPC   PO4  711   7.707   4.841   8.351  0.0370  0.4327  0.2064
   29POPC   GL1  712   7.811   4.722   7.957 -0.2624  0.0968 -0.0072
   29POPC   GL2  713   7.641   4.443   7.992 -0.1400 -0.0066 -0.0201
   29POPC   C1A  714   7.910   4.579   7.508 -0.0089  0.1415  0.4035
   29POPC   D2A  715   7.888   4.460   7.030 -0.1383  0.1426 -0.1476
   29POPC   C3A  716   7.985   4.663   6.672 -0.2523  0.1348 -0.0023
   29POPC   C4A  717   8.388   4.964   6.658 -0.3157  0.0040 -0.1813
   29POPC   C1B  718   7.459   4.341   7.621  0.0996  0.0365 -0.1473
   29POPC   C2B  719   7.586   4.165   7.284  0.1461  0.2043 -0.1429
   29POPC   C3B  720   7.606   4.035   6.884  0.0451  0.1567 -0.0419
   29POPC   C4B  721   7.213   4.015   6.531  0.2609 -0.1846  0.1121
   30POPC   NC3  722   7.521   5.937   8.344  0.2798 -0.0148  0.0400
   30POPC   PO4  723   7.314   5.520   8.401  0.3018 -0.1298  0.2580
   30POPC   GL1  724   7.199   5.571   7.958 -0.0162  0.1228 -0.2737
   30POPC   GL2  725   7.437   5.849   7.854  0.2043 -0.2306  0.1411
   30POPC   C1A  726   7.155   5.531   7.571  0.0703 -0.0083  0.2162
   30POPC   D2A  727   7.243   5.313   7.244 -0.1673  0.1137  0.2632
   30POPC   C3A  728   7.473   5.525   6.920 -0.1589 -0.1074 -0.0681
   30POPC   C4A  729   7.705   5.371   6.513 -0.2173 -0.1675 -0.0257
   30POPC   C1B  730   7.087   5.991   7.568  0.0269  0.1013 -0.2122
   30POPC   C2B  731   6.945   5.836   7.193  0.3514 -0.0013 -0.0113
   30POPC   C3B  732   6.882   5.545   6.909  0.0233  0.1999  0.0840
   30POPC   C4B  733   6.724   5.211   6.524 -0.1153 -0.0567 -0.1825
   31POPC   NC3  734   8.763   3.198   8.681 -0.2565 -0.2237 -0.1894
   31POPC   PO4  735   9.199   3.194   8.550 -0.0104  0.0344  0.0332
   31POPC   GL1  736   9.102   3.017   8.165  0.0749 -0.2441  0.1563
   31POPC   GL2  737   8.883   3.212   8.016 -0.1489  0.1387 -0.1538
   31POPC   C1A  738   8.937   2.764   7.759  0.4300  0.0628  0.0179
   31POPC   D2A  739   8.957   2.511   7.400  0.1104  0.2706  0.2111
   31POPC   C3A  740   8.585   2.300   7.159 -0.1418 -0.2188 -0.1002
   31POPC   C4A  741   8.312   2.514   6.773 -0.1943  0.1072 -0.0348
   31POPC   C1B  742   8.806   3.447   7.631  0.0103 -0.0283 -0.1453
   31POPC   C2B  743   9.162   3.757   7.526  0.2667 -0.1919 -0.1174
   31POPC   C3B  744   9.538   3.807   7.301 -0.1337 -0.0973 -0.3603
   31POPC   C4B  745   9.750   3.605   7.001 -0.3541  0.0348 -0.2137
   32POPC   NC3  746   5.982   1.783   8.153  0.1100 -0.2721 -0.2578
   32POPC   PO4  747   6.328   1.958   7.977 -0.1819  0.4775  0.1184
   32POPC   GL1  748   6.362   2.035   7.640  0.0808  0.0212 -0.1745
   32POPC   GL2  749   6.564   1.676   7.566 -0.0313 -0.1399  0.0043
   32POPC   C1A  750   6.471   2.103   7.236  0.0375 -0.0633  0.1735
   32POPC   D2A  751   6.589   2.462   7.018  0.0699 -0.0742 -0.0781
   32POPC   C3A  752   6.195   2.676   6.938 -0.4117  0.0418 -0.0857
   32POPC   C4A  753   5.979   3.004   6.866 -0.1669 -0.1476  0.0193
   32POPC   C1B  754   6.413   1.500   7.192  0.0589 -0.1469 -0.3298
   32POPC   C2B  755   6.389   1.227   6.823 -0.3739 -0.3500  0.1370
   32POPC   C3B  756   6.552   1.149   6.472  0.1383  0.0288  0.2123
   32POPC   C4B  757   6.712   1.444   6.135 -0.0773 -0.1037 -0.0046
   33POPC   NC3  758   0.508   6.718   8.684  0.2633  0.1275 -0.0866
   33POPC   PO4  759   0.611   6.575   8.281  0.1241 -0.2448 -0.1753
   33POPC   GL1  760   0.463   6.742   7.882 -0.1396 -0.2732  0.2313
   33POPC   GL2  761   0.652   7.025   7.825  0.2647 -0.1910 -0.1583
   33POPC   C1A  762   0.184   6.699   7.478 -0.0313  0.1041 -0.1615
   33POPC   D2A  763   0.169   6.875   7.052 -0.0425  0.0124  0.3236
   33POPC   C3A  764   0.423   6.752   6.801 -0.3643  0.2488 -0.2879
   33POPC   C4A  765   0.420   6.539   6.443  0.0644  0.2007  0.1653
   33POPC   C1B  766   0.536   7.047   7.390  0.1997  0.0218 -0.2753
   33POPC   C2B  767   0.260   7.312   7.238 -0.0074 -0.2533  0.0361
   33POPC   C3B  768   0.242   7.271   6.793  0.0325 -0.0413  0.1627
   33POPC   C4B  769   0.363   7.061   6.365 -0.2315  0.1119  0.1177
   34POPC   NC3  770   0.469   4.895   8.264 -0.1483 -0.1376 -0.3302
   34POPC   PO4  771   0.397   5.299   8.094  0.0639 -0.2576 -0.2524
   34POPC   GL1  772   0.173   5.353   7.738 -0.0128  0.0125  0.0281
   34POPC   GL2  773   0.122   5.046   7.555 -0.2288  0.3322  0.1071
   34POPC   C1A  774   0.061   5.378   7.225 -0.2299  0.2802  0.0850
   34POPC   D2A  775   0.245   5.782   6.970 -0.3622 -0.2568 -0.1034
   34POPC   C3A  776   0.148   6.085   6.689 -0.2360  0.1768 -0.1731
   34POPC   C4A  777   0.016   6.141   6.391 -0.0252  0.0059 -0.1085
   34POPC   C1B  778   0.288   4.929   7.132  0.2515 -0.1624 -0.3933
   34POPC   C2B  779   0.078   5.146   6.706 -0.1612  0.2829  0.2014
   34POPC   C3B  780   0.461   5.431   6.512 -0.1376  0.1780  0.0981
   34POPC   C4B  781   0.515   5.821   6.457 -0.0594  0.3766  0.0548
   35POPC   NC3  782   4.969   2.318   8.843  0.3566 -0.1954  0.1935
   35POPC   PO4  783   4.774   2.258   8.466 -0.0279 -0.7246  0.0118
   35POPC   GL1  784   4.922   2.347   7.955  0.1100  0.0708 -0.0188
   35POPC   GL2  785   4.742   2.575   7.810  0.0475 -0.2601  0.3788
   35POPC   C1A  786   5.100   2.482   7.457 -0.1086  0.2085  0.0391
   35POPC   D2A  787   5.295   2.619   7.035  0.1022  0.4055 -0.4013
   35POPC   C3A  788   5.687   2.609   6.898  0.0623  0.1841 -0.1427
   35POPC   C4A  789   5.904   2.477   6.566 -0.2394 -0.2169 -0.0310
   35POPC   C1B  790   4.634   2.129   7.602  0.0280  0.3483 -0.1478
   35POPC   C2B  791   4.441   1.778   7.631  0.0267 -0.0977 -0.2497
   35POPC   C3B  792   4.119   1.367   7.704  0.0676 -0.1646 -0.1521
   35POPC   C4B  793   3.857   1.304   7.468 -0.1733  0.2524  0.1533
   36POPC   NC3  794   5.918   7.351   8.573  0.0127 -0.5447 -0.2060
   36POPC   PO4  795   6.237   7.183   8.226 -0.1162  0.0887  0.1744
   36POPC   GL1  796   6.149   7.081   7.866 -0.3082  0.2611 -0.3333
   36POPC   GL2  797   6.163   7.431   7.711  0.5328  0.2390  0.4521
   36POPC   C1A  798   6.377   7.094   7.458  0.2784  0.3435 -0.0355
   36POPC   D2A  799   6.455   7.176   7.062 -0.0376 -0.1487 -0.2709
   36POPC   C3A  800   6.847   6.842   7.015  0.1319  0.0066  0.0253
   36POPC   C4A  801   6.862   6.649   6.701  0.0564  0.2036 -0.1467
   36POPC   C1B  802   6.048   7.410   7.278  0.1017  0.1627 -0.0364
   36POPC   C2B  803   5.954   7.167   6.898  0.0723  0.0012 -0.2186
   36POPC   C3B  804   6.287   7.083   6.577  0.1462 -0.1420  0.1245
   36POPC   C4B  805   6.681   7.154   6.510 -0.1302 -0.1491 -0.2195
   37POPC   NC3  806   0.293   1.421   8.858  0.0693  0.0896 -0.2309
   37POPC   PO4  807  -0.121   1.305   8.988  0.1480  0.0316 -0.3128
   37POPC   GL1  808  -0.045   1.138   8.666 -0.2687  0.0328  0.2922
   37POPC   GL2  809   0.203   1.081   8.467 -0.2989 -0.3093 -0.0890
   37POPC   C1A  810  -0.357   0.995   8.416 -0.0935 -0.0590  0.0829
   37POPC   D2A  811  -0.600   0.694   8.164 -0.0020 -0.1508 -0.2725
   37POPC   C3A  812  -0.555   0.631   7.735  0.0882 -0.2607 -0.0332
   37POPC   C4A  813  -0.921   0.522   7.433 -0.0561  0.1497 -0.3711
   37POPC   C1B  814   0.305   0.986   8.055  0.1383 -0.3932  0.2177
   37POPC   C2B  815   0.376   1.233   7.583  0.0512 -0.2828 -0.0531
   37POPC   C3B  816   0.287   1.392   7.257  0.3114  0.1489  0.0151
   37POPC   C4B  817   0.256   1.316   6.869  0.2952  0.0300 -0.4556
   38POPC   NC3  818   7.778   3.301   8.991 -0.2553 -0.4990  0.0634
   38POPC   PO4  819   7.810   3.185   8.542 -0.2306 -0.0698  0.3390
   38POPC   GL1  820   7.796   3.069   8.049  0.0449 -0.0176 -0.2301
   38POPC   GL2  821   7.486   2.996   7.834  0.1038 -0.2158  0.2254
   38POPC   C1A  822   7.974   3.087   7.697 -0.1596 -0.4114 -0.1026
   38POPC   D2A  823   8.415   3.106   7.695  0.0264  0.3749 -0.2050
   38POPC   C3A  824   8.683   3.029   7.332 -0.2629 -0.2785 -0.1308
   38POPC   C4A  825   8.959   2.987   6.977  0.0638  0.1998  0.0559
   38POPC   C1B  826   7.498   2.983   7.383 -0.4878 -0.1187  0.0329
   38POPC   C2B  827   7.761   3.157   7.000 -0.1186  0.0383 -0.2834
   38POPC   C3B  828   7.993   2.954   6.676 -0.2252  0.1624 -0.0675
   38POPC   C4B  829   8.338   3.198   6.420 -0.0345 -0.1482 -0.2364
   39POPC   NC3  830   3.945   7.683   8.413  0.2292 -0.1824 -0.1072
   39POPC   PO4  831   4.010   8.123   8.242 -0.4949 -0.1385 -0.0931
   39POPC   GL1  832   4.241   8.234   7.889  0.0511  0.2102  0.0541
   39POPC   GL2  833   3.938   8.287   7.655 -0.3299  0.4521 -0.1989
   39POPC   C1A  834   4.431   8.006   7.592 -0.0778 -0.1739  0.0053
   39POPC   D2A  835   4.787   8.005   7.231 -0.0769  0.1540  0.3274
   39POPC   C3A  836   4.708   8.123   6.838 -0.1083 -0.0879  0.1321
   39POPC   C4A  837   4.501   8.377   6.532  0.3903  0.4032 -0.0407
   39POPC   C1B  838   4.241   8.608   7.464 -0.2261  0.1299  0.1848
   39POPC   C2B  839   4.568   8.849   7.252 -0.2515 -0.0047 -0.0782
   39POPC   C3B  840   4.812   8.998   6.862 -0.0491 -0.1558 -0.2460
   39POPC   C4B  841   4.921   9.027   6.497  0.4081 -0.3683  0.3909
   40POPC   NC3  842   7.170   2.050   8.435 -0.0587 -0.0545  0.0484
   40POPC   PO4  843   7.538   2.060   8.529  0.0703  0.1773 -0.0619
   40POPC   GL1  844   7.688   1.749   8.296 -0.3664  0.0279  0.3354
   40POPC   GL2  845   7.403   1.767   8.059 -0.1481  0.4097 -0.3603
   40POPC   C1A  846   7.944   1.424   8.069  0.0343  0.1368  0.3516
   40POPC   D2A  847   8.339   1.456   8.138 -0.1334  0.0364 -0.0707
   40POPC   C3A  848   8.370   1.860   7.964 -0.2418  0.2713  0.0595
   40POPC   C4A  849   8.574   1.989   7.579  0.3656  0.0894  0.2116
   40POPC   C1B  850   7.418   1.681   7.687 -0.2188 -0.0623 -0.1488
   40POPC   C2B  851   7.519   1.984   7.293  0.2672 -0.2203 -0.0454
   40POPC   C3B  852   7.386   2.138   6.839 -0.1582  0.2543 -0.1124
   40POPC   C4B  853   7.372   2.443   6.435  0.1354 -0.0032  0.0761
   41POPC   NC3  854   5.422   5.406   8.510  0.3638  0.1617 -0.0509
   41POPC   PO4  855   5.340   5.814   8.351  0.0661  0.1089  0.0947
   41POPC   GL1  856   5.200   5.919   7.936  0.4592  0.1396 -0.0232
   41POPC   GL2  857   5.485   5.942   7.768  0.1033 -0.0230  0.1004
   41POPC   C1A  858   5.014   5.866   7.532 -0.2180  0.0889 -0.3637
   41POPC   D2A  859   4.789   6.031   7.143 -0.0148  0.2364  0.0776
   41POPC   C3A  860   4.697   6.185   6.720 -0.2455 -0.0835  0.1747
   41POPC   C4A  861   4.572   6.195   6.387 -0.3638 -0.1317  0.2054
   41POPC   C1B  862   5.461   5.966   7.354 -0.0793  0.0050  0.1513
   41POPC   C2B  863   5.706   6.099   6.952  0.1828 -0.1145 -0.2519
   41POPC   C3B  864   5.652   6.093   6.573  0.1774  0.3126  0.4308
   41POPC   C4B  865   5.359   5.724   6.378  0.0905 -0.0576 -0.3107
   42POPC   NC3  866   7.084   3.711   8.149  0.0158  0.1692  0.0274
   42POPC   PO4  867   7.450   3.430   8.255 -0.1505 -0.0153 -0.0990
   42POPC   GL1  868   7.619   3.546   7.831 -0.2599  0.0431 -0.1313
   42POPC   GL2  869   7.895   3.876   7.890  0.1038 -0.0838 -0.2102
   42POPC   C1A  870   7.685   3.486   7.440  0.2317 -0.2072  0.2456
   42POPC   D2A  871   7.430   3.678   7.102 -0.2906  0.1707  0.0701
   42POPC   C3A  872   7.485   3.570   6.643 -0.1526 -0.2459 -0.1451
   42POPC   C4A  873   7.418   3.635   6.205 -0.1825  0.0139  0.1241
   42POPC   C1B  874   8.002   3.895   7.403 -0.0332  0.2465 -0.2340
   42POPC   C2B  875   7.986   3.694   7.020  0.0158 -0.2025  0.1467
   42POPC   C3B  876   7.989   3.487   6.651 -0.3768 -0.1131 -0.1002
   42POPC   C4B  877   7.950   3.441   6.200  0.2474 -0.0035 -0.2990
   43POPC   NC3  878   6.927   7.368   8.672  0.0985 -0.2957  0.2187
   43POPC   PO4  879   6.641   7.577   8.463 -0.0553  0.2792 -0.2449
   43POPC   GL1  880   6.823   7.818   8.064 -0.0188  0.1187 -0.2051
   43POPC   GL2  881   6.787   8.006   7.948 -0.1468 -0.0649 -0.4046
   43POPC   C1A  882   7.100   7.544   7.737 -0.2617  0.1556 -0.2172
   43POPC   D2A  883   7.191   7.566   7.347  0.2114 -0.0907  0.1667
   43POPC   C3A  884   7.625   7.452   7.222 -0.0351  0.2637 -0.2843
   43POPC   C4A  885   7.645   7.105   7.025 -0.1672 -0.0785  0.0470
   43POPC   C1B  886   6.828   7.935   7.488  0.1609 -0.2652  0.3017
   43POPC   C2B  887   6.937   7.927   7.100  0.1816 -0.4453  0.0788
   43POPC   C3B  888   6.746   7.702   6.746 -0.2749 -0.0595 -0.0225
   43POPC   C4B  889   6.682   7.606   6.365  0.0080  0.1808 -0.3330
   44POPC   NC3  890   5.497   3.367   8.500  0.1948  0.0118 -0.1311
   44POPC   PO4  891   5.241   2.999   8.413  0.0638 -0.0012 -0.0316
   44POPC   GL1  892   5.426   2.983   8.092 -0.1119 -0.0450  0.0438
   44POPC   GL2  893   5.118   2.883   7.827  0.3158  0.0834 -0.0303
   44POPC   C1A  894   5.780   2.950   7.756 -0.1654 -0.1278  0.1516
   44POPC   D2A  895   6.101   2.909   7.363  0.2974  0.1252 -0.1807
   44POPC   C3A  896   6.495   2.752   7.465  0.3998  0.1550  0.4683
   44POPC   C4A  897   6.758   2.355   7.483 -0.1258  0.2113  0.2803
   44POPC   C1B  898   4.876   3.298   7.737  0.0332 -0.1693 -0.2215
   44POPC   C2B  899   4.590   3.522   7.399  0.2184  0.0235 -0.0805
   44POPC   C3B  900   4.682   3.792   7.117 -0.1300  0.1922 -0.1154
   44POPC   C4B  901   4.588   3.768   6.601  0.0453  0.1646 -0.1471
   45POPC   NC3  902   6.405   6.694   8.300  0.0679 -0.0110 -0.1758
   45POPC   PO4  903   6.626   6.917   8.062  0.0999 -0.0569  0.0248
   45POPC   GL1  904   6.743   7.218   7.812 -0.0591  0.1124  0.0011
   45POPC   GL2  905   6.627   7.523   7.666  0.1608  0.7195  0.1700
   45POPC   C1A  906   6.856   7.169   7.417 -0.2938  0.1979 -0.1190
   45POPC   D2A  907   6.931   7.312   6.989  0.0353  0.0327  0.2517
   45POPC   C3A  908   7.232   7.058   6.647  0.0512 -0.0845  0.5542
   45POPC   C4A  909   7.712   6.862   6.623  0.0101  0.0824  0.0500
   45POPC   C1B  910   6.525   7.659   7.203 -0.1101  0.0414  0.3333
   45POPC   C2B  911   6.239   7.559   6.805 -0.1583 -0.0992  0.4960
   45POPC   C3B  912   5.916   7.328   6.430 -0.2506 -0.1299 -0.0863
   45POPC   C4B  913   5.964   6.999   6.109 -0.1417  0.0556  0.0164
   46POPC   NC3  914   4.103   0.644   8.561  0.0389 -0.1860 -0.1512
   46POPC   PO4  915   4.359   0.311   8.346  0.0295  0.1462 -0.0963
   46POPC   GL1  916   4.285   0.182   7.923 -0.1131  0.3935  0.0155
   46POPC   GL2  917   3.900   0.119   7.888  0.0292  0.2102 -0.2173
   46POPC   C1A  918   4.609   0.131   7.532 -0.1684 -0.1155 -0.1531
   46POPC   D2A  919   4.657   0.085   7.017 -0.0748  0.0838 -0.1137
   46POPC   C3A  920   4.933  -0.221   6.733  0.0040  0.1659  0.0228
   46POPC   C4A  921   5.374  -0.248   6.682 -0.2577  0.1412 -0.1734
   46POPC   C1B  922   3.988   0.212   7.478 -0.1591  0.1860 -0.0595
   46POPC   C2B  923   4.193   0.362   7.170 -0.2354 -0.3920 -0.1288
   46POPC   C3B  924   4.032   0.686   7.036  0.0497  0.1653 -0.1398
   46POPC   C4B  925   3.662   0.923   7.077 -0.1396 -0.1809  0.1114
   47POPC   NC3  926   9.554   2.687   8.777  0.1026 -0.0156 -0.3210
   47POPC   PO4  927   9.519   2.282   8.645 -0.0240 -0.1993  0.2299
   47POPC   GL1  928   9.361   2.054   8.421 -0.0846 -0.1031  0.1137
   47POPC   GL2  929   9.044   1.989   8.486 -0.4760 -0.0307  0.2996
   47POPC   C1A  930   9.422   1.999   8.027  0.0602  0.1615 -0.1864
   47POPC   D2A  931   9.265   1.656   7.749  0.1910  0.0222 -0.0780
   47POPC   C3A  932   9.112   1.839   7.431  0.0538  0.0970  0.2685
   47POPC   C4A  933   9.029   2.188   7.029 -0.1996  0.0066 -0.0033
   47POPC   C1B  934   8.882   1.796   8.195  0.1999 -0.0889  0.0913
   47POPC   C2B  935   8.756   1.566   7.814  0.5181  0.0562  0.2216
   47POPC   C3B  936   8.675   1.552   7.301  0.1167  0.2611 -0.1791
   47POPC   C4B  937   8.373   1.730   7.056 -0.1796 -0.0180  0.2658
   48POPC   NC3  938   3.721   3.653   8.855 -0.2502 -0.2654  0.3185
   48POPC   PO4  939   3.633   3.668   8.465  0.0330 -0.2798  0.0777
   48POPC   GL1  940   3.603   3.625   8.057 -0.3907  0.1205  0.0102
   48POPC   GL2  941   3.575   3.263   7.987 -0.3421  0.1720 -0.1596
   48POPC   C1A  942   3.638   3.467   7.597  0.3044 -0.0896 -0.1428
   48POPC   D2A  943   3.700   3.061   7.493  0.2185 -0.0096  0.1859
   48POPC   C3A  944   3.632   3.018   7.056 -0.1362 -0.0922  0.3746
   48POPC   C4A  945   3.964   3.093   6.785 -0.0035 -0.0258 -0.0469
   48POPC   C1B  946   4.064   3.365   7.924  0.1016  0.0988 -0.4783
   48POPC   C2B  947   4.473   3.520   7.949  0.3636 -0.1301 -0.0476
   48POPC   C3B  948   4.633   3.894   7.712 -0.0543 -0.3011 -0.0427
   48POPC   C4B  949   4.336   4.182   7.391 -0.2989 -0.1535  0.1188
   49POPC   NC3  950   1.241   3.595   8.377 -0.0616 -0.0508 -0.0018
   49POPC   PO4  951   0.901   3.288   8.362  0.2390 -0.1543  0.1613
   49POPC   GL1  952   0.718   3.482   8.075 -0.3029  0.0698 -0.1834
   49POPC   GL2  953   0.483   3.362   7.895 -0.1608 -0.3469 -0.3167
   49POPC   C1A  954   0.861   3.776   7.802  0.0244 -0.0225 -0.0433
   49POPC   D2A  955   1.037   3.998   7.378 -0.0483 -0.0426  0.1111
   49POPC   C3A  956   1.373   3.897   7.193  0.0075  0.1449 -0.0079
   49POPC   C4A  957   1.720   3.929   6.984  0.0166 -0.0497  0.1787
   49POPC   C1B  958   0.548   3.260   7.501  0.1120  0.0170 -0.0578
   49POPC   C2B  959   0.412   3.316   7.105 -0.1268 -0.1353  0.0458
   49POPC   C3B  960   0.470   3.403   6.769 -0.4135 -0.1579  0.0492
   49POPC   C4B  961   0.827   3.534   6.580  0.3504 -0.0354 -0.0508
   50POPC   NC3  962   7.871   9.107   9.422  0.1397  0.1370  0.0809
   50POPC   PO4  963   8.269   9.174   9.099  0.1304 -0.1178 -0.2784
   50POPC   GL1  964   8.169   9.333   8.677  0.1565  0.1397  0.0373
   50POPC   GL2  965   8.052   9.641   8.580  0.3861 -0.0438 -0.0850
   50POPC   C1A  966   7.708   9.285   8.357 -0.1758  0.0304 -0.0771
   50POPC   D2A  967   7.377   8.939   8.309  0.0794 -0.1998 -0.0005
   50POPC   C3A  968   7.231   8.830   7.900 -0.1444 -0.0214  0.0107
   50POPC   C4A  969   7.151   8.578   7.551  0.0214 -0.0317 -0.1509
   50POPC   C1B  970   7.883   9.768   8.196  0.0611  0.2494 -0.0785
   50POPC   C2B  971   7.582   9.557   7.938  0.0215  0.3244  0.0887
   50POPC   C3B  972   7.398   9.295   7.677 -0.0704 -0.1906 -0.0838
   50POPC   C4B  973   7.167   9.088   7.431  0.2208  0.0974 -0.0528
   51POPC   NC3  974   7.835   5.652   8.786  0.4156 -0.1424 -0.0468
   51POPC   PO4  975   8.212   5.420   8.476  0.2024  0.0021  0.0154
   51POPC   GL1  976   8.345   5.480   8.042 -0.0451 -0.0702  0.2880
   51POPC   GL2  977   8.363   5.802   7.867  0.1205  0.0669 -0.0809
   51POPC   C1A  978   8.282   5.297   7.586  0.2111  0.1645 -0.4011
   51POPC   D2A  979   8.336   5.153   7.203 -0.2447  0.4015  0.1049
   51POPC   C3A  980   7.966   4.931   7.132 -0.1643 -0.0991  0.3595
   51POPC   C4A  981   7.576   5.013   6.965  0.2065 -0.1095 -0.1309
   51POPC   C1B  982   7.943   5.915   7.520  0.0487 -0.1428  0.2026
   51POPC   C2B  983   7.511   5.840   7.317  0.2744 -0.3921 -0.2937
   51POPC   C3B  984   7.344   6.077   7.098 -0.0254  0.0858  0.2203
   51POPC   C4B  985   7.262   6.018   6.677  0.1449 -0.0183  0.3285
   52POPC   NC3  986   4.572   7.660   8.471 -0.0966  0.0147  0.1687
   52POPC   PO4  987   4.958   7.411   8.392  0.1140 -0.1107  0.0892
   52POPC   GL1  988   5.352   7.479   8.165  0.0771  0.1384 -0.0854
   52POPC   GL2  989   5.223   7.299   7.829 -0.2139 -0.0988 -0.1271
   52POPC   C1A  990   5.448   7.766   7.878 -0.0419  0.1703  0.1714
   52POPC   D2A  991   5.736   7.760   7.485  0.3311 -0.1895 -0.0624
   52POPC   C3A  992   5.671   7.573   6.977  0.1702 -0.0590 -0.1005
   52POPC   C4A  993   5.484   7.594   6.490 -0.0638 -0.0076 -0.0953
   52POPC   C1B  994   5.552   7.303   7.408 -0.2579  0.0894 -0.2374
   52POPC   C2B  995   5.395   7.187   7.060 -0.0285 -0.0154  0.3138
   52POPC   C3B  996   5.571   7.006   6.564  0.1650  0.0346 -0.2677
   52POPC   C4B  997   5.449   7.119   6.152  0.1286  0.0489 -0.2347
   53POPC   NC3  998   4.083   6.197   8.447 -0.1176 -0.2104 -0.3722
   53POPC   PO4  999   3.791   6.474   8.299 -0.1274  0.2532 -0.0293
   53POPC   GL1 1000   3.640   6.302   7.943  0.2647 -0.0988  0.1046
   53POPC   GL2 1001   3.408   6.562   7.857 -0.1265  0.0989  0.1131
   53POPC   C1A 1002   3.823   6.324   7.559 -0.0496 -0.2458  0.0367
   53POPC   D2A 1003   3.819   6.481   7.161 -0.0712  0.1353  0.3604
   53POPC   C3A 1004   3.566   6.488   6.876 -0.0104  0.0366 -0.0443
   53POPC   C4A 1005   3.240   6.888   6.766 -0.1883  0.3647 -0.1542
   53POPC   C1B 1006   3.239   6.446   7.372  0.1852 -0.0068 -0.0908
   53POPC   C2B 1007   2.967   6.640   7.111  0.1004  0.2338  0.1569
   53POPC   C3B 1008   2.543   6.814   6.894  0.0136  0.4766  0.1381
   53POPC   C4B 1009   2.153   7.036   6.773 -0.2057 -0.1862  0.1448
   54POPC   NC3 1010   2.710   7.650   9.001  0.0299  0.3506 -0.0801
   54POPC   PO4 1011   2.727   7.647   8.468  0.2891 -0.1076 -0.2668
   54POPC   GL1 1012   2.803   7.520   8.021 -0.1286  0.3167  0.0437
   54POPC   GL2 1013   2.572   7.215   7.983  0.2515 -0.4619  0.1943
   54POPC   C1A 1014   3.004   7.334   7.681  0.0128  0.2053  0.0555
   54POPC   D2A 1015   3.061   7.195   7.210 -0.2850 -0.0172 -0.3370
   54POPC   C3A 1016   2.806   7.224   6.922 -0.1298 -0.2374 -0.0263
   54POPC   C4A 1017   2.373   7.436   6.985  0.3587  0.1164 -0.0636
   54POPC   C1B 1018   2.468   7.372   7.538 -0.4589 -0.2059  0.0005
   54POPC   C2B 1019   2.658   7.727   7.299  0.1090 -0.0063 -0.0484
   54POPC   C3B 1020   2.868   7.707   6.863  0.0538  0.3268 -0.6863
   54POPC   C4B 1021   2.716   7.669   6.404  0.1558  0.0103  0.0102
   55POPC   NC3 1022   7.790   7.330   8.767  0.2713 -0.1002 -0.3528
   55POPC   PO4 1023   7.468   7.587   8.658  0.0956  0.3973  0.2124
   55POPC   GL1 1024   7.628   7.708   8.254 -0.0814 -0.1931 -0.4974
   55POPC   GL2 1025   7.377   7.724   8.103 -0.0889 -0.1037 -0.3584
   55POPC   C1A 1026   7.986   7.883   8.077 -0.0366  0.1625  0.0359
   55POPC   D2A 1027   8.279   7.950   7.698  0.0765  0.3078  0.1976
   55POPC   C3A 1028   8.675   8.233   7.714 -0.1892  0.0663  0.2365
   55POPC   C4A 1029   9.159   8.316   7.775 -0.2029  0.0037 -0.0323
   55POPC   C1B 1030   7.580   7.783   7.670 -0.3496  0.1786  0.3743
   55POPC   C2B 1031   7.837   7.961   7.378 -0.1597 -0.1158  0.0215
   55POPC   C3B 1032   8.038   8.192   7.136  0.3313  0.0243 -0.0743
   55POPC   C4B 1033   7.972   8.653   7.093  0.3392 -0.2724  0.1858
   56POPC   NC3 1034   6.929   9.513   9.152 -0.0194  0.0823  0.0586
   56POPC   PO4 1035   6.711   9.519   8.725  0.2819 -0.1682 -0.4047
   56POPC   GL1 1036   6.702   9.421   8.281  0.2743  0.3308 -0.0911
   56POPC   GL2 1037   6.815   9.736   8.239 -0.1588  0.1139 -0.1971
   56POPC   C1A 1038   6.407   9.262   7.897 -0.1309  0.0642 -0.3017
   56POPC   D2A 1039   6.444   9.283   7.494 -0.0766 -0.0883  0.0964
   56POPC   C3A 1040   6.627   9.455   7.106 -0.0582 -0.0845 -0.2216
   56POPC   C4A 1041   6.745   9.814   7.043 -0.0279 -0.0888  0.0955
   56POPC   C1B 1042   6.588   9.783   7.867 -0.3213  0.1578 -0.3065
   56POPC   C2B 1043   6.395   9.742   7.453  0.4223  0.2133  0.2776
   56POPC   C3B 1044   6.076   9.561   7.173 -0.0378 -0.3096 -0.0268
   56POPC   C4B 1045   5.702   9.773   6.974 -0.0785 -0.1321  0.1570
   57POPC   NC3 1046   3.244   3.891   8.646  0.0580  0.1794  0.0612
   57POPC   PO4 1047   3.635   4.164   8.660 -0.0068 -0.3038  0.2579
   57POPC   GL1 1048   3.561   4.320   8.244  0.3520 -0.0471  0.0991
   57POPC   GL2 1049   3.854   4.087   8.145  0.1858  0.3160  0.0379
   57POPC   C1A 1050   3.557   4.477   7.834 -0.1313 -0.3930 -0.2590
   57POPC   D2A 1051   3.081   4.575   7.728 -0.5053 -0.0317  0.0389
   57POPC   C3A 1052   3.023   4.850   7.390 -0.2184 -0.2660  0.0831
   57POPC   C4A 1053   3.073   4.934   7.023  0.0298 -0.0077 -0.1859
   57POPC   C1B 1054   4.073   3.953   7.865  0.0187  0.2250 -0.1264
   57POPC   C2B 1055   4.068   3.644   7.538 -0.1643  0.0932 -0.1678
   57POPC   C3B 1056   3.950   3.398   7.189  0.4305 -0.0564 -0.3197
   57POPC   C4B 1057   4.296   3.423   6.980 -0.0837 -0.1352 -0.0452
   58POPC   NC3 1058   4.787   2.772   8.226  0.1290  0.0281 -0.1155
   58POPC   PO4 1059   4.511   3.082   8.478 -0.1973 -0.0479 -0.0344
   58POPC   GL1 1060   4.376   3.010   8.045 -0.1027  0.0895 -0.0448
   58POPC   GL2 1061   4.001   2.931   7.950 -0.2101  0.0446 -0.0601
   58POPC   C1A 1062   4.362   3.063   7.512 -0.1690  0.2404 -0.2486
   58POPC   D2A 1063   4.669   3.075   7.214  0.2438  0.3084  0.0688
   58POPC   C3A 1064   5.120   3.012   7.357 -0.0485 -0.1618  0.2614
   58POPC   C4A 1065   5.434   3.278   7.561 -0.2678  0.0138  0.1267
   58POPC   C1B 1066   4.232   2.583   7.729  0.1947  0.3490 -0.0798
   58POPC   C2B 1067   4.554   2.542   7.382 -0.1449 -0.3446 -0.1035
   58POPC   C3B 1068   4.740   2.540   6.957 -0.0097 -0.1518  0.1553
   58POPC   C4B 1069   4.680   2.493   6.460  0.0224 -0.2547 -0.1479
   59POPC   NC3 1070   1.238   9.354   8.647 -0.1141 -0.0535  0.2352
   59POPC   PO4 1071   1.667   9.425   8.731  0.1521 -0.0256  0.2157
   59POPC   GL1 1072   1.800   9.538   8.337  0.0004 -0.0894  0.1242
   59POPC   GL2 1073   1.891   9.861   8.198  0.2359 -0.1411 -0.3979
   59POPC   C1A 1074   1.747   9.418   7.967 -0.0057  0.1887 -0.0593
   59POPC   D2A 1075   1.553   9.544   7.652 -0.0872 -0.0576  0.1477
   59POPC   C3A 1076   1.283   9.385   7.304  0.0441  0.0104  0.1243
   59POPC   C4A 1077   0.968   9.261   7.068  0.0935 -0.2611  0.0604
   59POPC   C1B 1078   1.944   9.863   7.800  0.3534 -0.0085 -0.0927
   59POPC   C2B 1079   1.848   9.722   7.348 -0.1736  0.1052  0.0375
   59POPC   C3B 1080   1.697   9.734   6.969  0.2102 -0.0596  0.0357
   59POPC   C4B 1081   1.768   9.969   6.548  0.0315 -0.1474 -0.0422
   60POPC   NC3 1082   2.239   2.074   8.384 -0.0705 -0.0507  0.1067
   60POPC   PO4 1083   2.227   2.460   8.368 -0.3156  0.0040 -0.0960
   60POPC   GL1 1084   2.137   2.701   7.965 -0.1796  0.1433 -0.0805
   60POPC   GL2 1085   1.914   3.054   8.100 -0.0149  0.1736  0.3029
   60POPC   C1A 1086   2.285   2.724   7.540 -0.0299  0.4394  0.0396
   60POPC   D2A 1087   2.261   2.679   7.070 -0.1443  0.0474 -0.0122
   60POPC   C3A 1088   2.352   2.260   6.824 -0.3179  0.0351 -0.1659
   60POPC   C4A 1089   2.364   1.871   6.630  0.1122 -0.1111  0.0737
   60POPC   C1B 1090   1.904   3.076   7.596  0.1042 -0.1656  0.0204
   60POPC   C2B 1091   1.824   2.925   7.143 -0.0404  0.1541  0.0560
   60POPC   C3B 1092   1.588   3.023   6.751  0.4119 -0.1086  0.1777
   60POPC   C4B 1093   1.220   3.188   6.699  0.2032 -0.1286 -0.1571
   61POPC   NC3 1094   5.519   9.171   8.781 -0.0513 -0.0685 -0.0532
   61POPC   PO4 1095   5.672   9.447   8.368 -0.3429  0.3487 -0.0701
   61POPC   GL1 1096   5.895   9.295   7.980  0.2100 -0.1618  0.1345
   61POPC   GL2 1097   5.890   9.584   7.804 -0.3684 -0.0656  0.0024
   61POPC   C1A 1098   5.959   9.197   7.518 -0.0379 -0.0622 -0.0290
   61POPC   D2A 1099   5.673   8.903   7.253 -0.0654  0.1425  0.0032
   61POPC   C3A 1100   5.374   8.624   7.223  0.1840 -0.2830  0.3334
   61POPC   C4A 1101   4.951   8.499   7.106 -0.1821  0.0494  0.1940
   61POPC   C1B 1102   5.688   9.909   7.502  0.0210 -0.2243  0.0243
   61POPC   C2B 1103   5.411  10.194   7.250  0.1898  0.1409  0.2111
   61POPC   C3B 1104   4.978  10.134   7.288  0.1805  0.0058  0.0541
   61POPC   C4B 1105   4.641  10.340   7.249  0.1867  0.3414 -0.1292
   62POPC   NC3 1106   9.448   9.336   9.461 -0.0810 -0.3855 -0.0155
   62POPC   PO4 1107   9.824   9.181   9.341  0.0288  0.0450  0.0970
   62POPC   GL1 1108   9.643   9.277   8.974  0.1653 -0.0425  0.1485
   62POPC   GL2 1109   9.957   9.370   8.786  0.1882  0.0591 -0.0788
   62POPC   C1A 1110   9.584   9.247   8.519 -0.0952 -0.3091  0.0870
   62POPC   D2A 1111   9.824   9.038   8.114 -0.0589  0.3270  0.1236
   62POPC   C3A 1112  10.241   9.251   8.051 -0.1050  0.1093 -0.2746
   62POPC   C4A 1113  10.721   9.310   8.088 -0.2434  0.0208  0.1176
   62POPC   C1B 1114  10.041   9.472   8.451 -0.2336  0.0899 -0.0968
   62POPC   C2B 1115   9.768   9.551   8.002  0.2272  0.1361  0.0129
   62POPC   C3B 1116   9.751   9.746   7.522 -0.2973  0.0063 -0.0767
   62POPC   C4B 1117   9.623   9.966   7.113 -0.1913  0.1741  0.1749
   63POPC   NC3 1118   4.244   7.067   8.079 -0.1472  0.1333 -0.2260
   63POPC   PO4 1119   4.186   7.247   8.490  0.4283 -0.2700 -0.2349
   63POPC   GL1 1120   4.283   7.585   8.076  0.1298 -0.1875  0.0341
   63POPC   GL2 1121   4.066   7.773   7.860  0.0577 -0.0158  0.1195
   63POPC   C1A 1122   4.517   7.549   7.674 -0.0606 -0.1883  0.0108
   63POPC   D2A 1123   4.681   7.515   7.184  0.1058 -0.3006 -0.2207
   63POPC   C3A 1124   4.870   7.173   6.986 -0.0618  0.1273  0.0900
   63POPC   C4A 1125   4.806   6.819   6.689 -0.1458 -0.0159 -0.0804
   63POPC   C1B 1126   4.004   7.636   7.483 -0.0772 -0.0090  0.2311
   63POPC   C2B 1127   3.879   7.566   7.032 -0.1381  0.0336  0.0502
   63POPC   C3B 1128   4.052   7.550   6.544 -0.0200  0.2863  0.0899
   63POPC   C4B 1129   3.795   7.393   6.158  0.4259 -0.0151  0.0863
   64POPC   NC3 1130   1.730   4.292   8.613  0.0072  0.1296 -0.0796
   64POPC   PO4 1131   1.462   3.994   8.342  0.1019 -0.1776 -0.2251
   64POPC   GL1 1132   1.433   3.881   7.961  0.1676 -0.4223  0.0263
   64POPC   GL2 1133   1.467   4.094   7.682  0.0804 -0.0456  0.1077
   64POPC   C1A 1134   1.360   3.531   7.700 -0.1692  0.4368 -0.0950
   64POPC   D2A 1135   1.039   3.308   7.539  0.0072  0.0656 -0.2387
   64POPC   C3A 1136   0.986   3.026   7.189  0.0365  0.2123 -0.1919
   64POPC   C4A 1137   0.571   2.932   6.822 -0.1489  0.0858 -0.2554
   64POPC   C1B 1138   1.756   3.912   7.550 -0.0869 -0.1852 -0.0668
   64POPC   C2B 1139   1.795   3.502   7.240 -0.1073 -0.2186 -0.1503
   64POPC   C3B 1140   1.414   3.356   7.104 -0.0652 -0.1214 -0.1214
   64POPC   C4B 1141   0.965   3.502   7.054  0.2316  0.1928 -0.1682
   65POPC   NC3 1142   3.199   5.559   8.805 -0.0862 -0.1135  0.2103
   65POPC   PO4 1143   3.093   6.009   8.589  0.3980  0.3653 -0.1734
   65POPC   GL1 1144   3.143   5.821   8.053  0.0689 -0.1729 -0.0377
   65POPC   GL2 1145   3.124   5.436   7.979  0.1124  0.0868 -0.2452
   65POPC   C1A 1146   3.260   5.830   7.610 -0.0141  0.0024 -0.0113
   65POPC   D2A 1147   3.380   5.901   7.271  0.1181 -0.0153 -0.2712
   65POPC   C3A 1148   3.070   6.208   6.921 -0.1517  0.1175 -0.2708
   65POPC   C4A 1149   2.936   6.463   6.561 -0.3956  0.2586  0.3144
   65POPC   C1B 1150   3.161   5.344   7.528  0.0623  0.2166 -0.0728
   65POPC   C2B 1151   3.158   5.456   7.102  0.0129 -0.0797 -0.2493
   65POPC   C3B 1152   3.346   5.525   6.821  0.1004  0.3224 -0.2011
   65POPC   C4B 1153   3.295   5.203   6.526  0.1876 -0.1981  0.3186
   66POPC   NC3 1154   7.853   2.310   9.150 -0.3093  0.0582  0.3558
   66POPC   PO4 1155   7.972   2.303   8.640 -0.0791 -0.1350 -0.2907
   66POPC   GL1 1156   7.930   2.258   8.110 -0.0752 -0.1000 -0.3619
   66POPC   GL2 1157   8.009   2.626   7.905  0.1233 -0.2017 -0.1894
   66POPC   C1A 1158   7.812   1.937   7.782 -0.0177  0.1185  0.1006
   66POPC   D2A 1159   7.989   1.647   7.573 -0.0325 -0.2303  0.0277
   66POPC   C3A 1160   8.361   1.319   7.632 -0.4041  0.0082 -0.6619
   66POPC   C4A 1161   8.693   1.022   7.508 -0.1502 -0.0201 -0.1083
   66POPC   C1B 1162   8.113   2.237   7.630 -0.5989  0.0210  0.1741
   66POPC   C2B 1163   8.080   2.089   7.251  0.0718 -0.1538 -0.3484
   66POPC   C3B 1164   7.927   2.165   6.822 -0.0862 -0.4363  0.2246
   66POPC   C4B 1165   7.970   2.158   6.394 -0.0084  0.0299 -0.1569
   67POPC   NC3 1166   0.435   0.670   9.119  0.0459  0.0840 -0.2494
   67POPC   PO4 1167   0.054   0.540   9.359 -0.0805 -0.1810  0.1361
   67POPC   GL1 1168  -0.061   0.740   9.013  0.0815 -0.0676 -0.0691
   67POPC   GL2 1169  -0.330   0.844   8.953 -0.1019 -0.2935  0.1417
   67POPC   C1A 1170   0.047   0.672   8.547  0.0400  0.1050  0.2831
   67POPC   D2A 1171  -0.094   0.622   8.089  0.0620 -0.1875  0.1382
   67POPC   C3A 1172  -0.238   0.275   7.945 -0.1823 -0.1554 -0.1938
   67POPC   C4A 1173  -0.366  -0.052   7.738  0.0958 -0.2731  0.4662
   67POPC   C1B 1174  -0.405   0.497   8.665  0.3139  0.0351 -0.1232
   67POPC   C2B 1175  -0.563   0.210   8.329  0.0168  0.0725  0.1362
   67POPC   C3B 1176  -0.776   0.148   7.956 -0.1798 -0.0718  0.0510
   67POPC   C4B 1177  -0.897   0.050   7.553  0.0819 -0.0043  0.0186
   68POPC   NC3 1178   1.579   9.130   9.153 -0.0943  0.3791  0.0592
   68POPC   PO4 1179   1.502   8.899   8.794 -0.1875  0.0643 -0.1042
   68POPC   GL1 1180   1.547   9.042   8.362 -0.1371 -0.2604  0.0076
   68POPC   GL2 1181   1.759   8.777   8.207 -0.2409 -0.0846 -0.0347
   68POPC   C1A 1182   1.386   8.993   7.935 -0.1344 -0.0296 -0.0804
   68POPC   D2A 1183   1.169   8.965   7.630  0.0092 -0.2040  0.1081
   68POPC   C3A 1184   0.752   9.137   7.628 -0.0285 -0.0046 -0.2412
   68POPC   C4A 1185   0.499   9.504   7.454 -0.0372 -0.1446 -0.0322
   68POPC   C1B 1186   1.849   8.987   7.770  0.2298 -0.0119  0.2359
   68POPC   C2B 1187   1.765   9.223   7.344 -0.0813 -0.1815  0.1350
   68POPC   C3B 1188   1.776   9.129   6.885  0.1169 -0.1933  0.2256
   68POPC   C4B 1189   1.651   9.105   6.570  0.1238 -0.0223 -0.0743
   69POPC   NC3 1190   2.746   9.596   8.378  0.1092  0.1793 -0.1799
   69POPC   PO4 1191   2.740   9.968   8.324  0.5143 -0.1796 -0.0945
   69POPC   GL1 1192   2.473   9.876   7.972  0.3064  0.1027  0.1188
   69POPC   GL2 1193   2.374   9.613   7.962 -0.1923 -0.2121 -0.0479
   69POPC   C1A 1194   2.323   9.955   7.410  0.1907  0.4513  0.0462
   69POPC   D2A 1195   2.195   9.970   7.001 -0.1201  0.0058  0.1390
   69POPC   C3A 1196   2.560   9.920   6.742  0.1724 -0.2824  0.1593
   69POPC   C4A 1197   2.910  10.075   6.721  0.0130 -0.0087 -0.1638
   69POPC   C1B 1198   2.122   9.417   7.693 -0.3733 -0.0311  0.2943
   69POPC   C2B 1199   2.218   9.448   7.206 -0.1314  0.4058 -0.2251
   69POPC   C3B 1200   2.076   9.562   6.776 -0.2909 -0.0237  0.0427
   69POPC   C4B 1201   2.196   9.760   6.390 -0.0090  0.1004  0.2885
   70POPC   NC3 1202   8.315   8.189   9.681  0.1520  0.1093 -0.2553
   70POPC   PO4 1203   8.601   8.407   9.370  0.1511  0.0564  0.0421
   70POPC   GL1 1204   8.581   8.656   8.968  0.2289  0.0048 -0.2815
   70POPC   GL2 1205   8.299   8.815   8.697  0.1621  0.1830 -0.0157
   70POPC   C1A 1206   8.820   8.820   8.581 -0.2209  0.1758 -0.1184
   70POPC   D2A 1207   9.185   8.936   8.387  0.3932 -0.1580  0.0411
   70POPC   C3A 1208   9.002   8.901   7.943 -0.2924  0.2869  0.0593
   70POPC   C4A 1209   9.006   9.242   7.666  0.2204 -0.3459 -0.0782
   70POPC   C1B 1210   8.169   8.887   8.256 -0.0213 -0.1841 -0.1319
   70POPC   C2B 1211   8.139   9.311   8.084 -0.1445  0.0937 -0.0142
   70POPC   C3B 1212   7.930   9.381   7.581 -0.2122 -0.0281 -0.3215
   70POPC   C4B 1213   7.780   9.700   7.435 -0.0123  0.3460  0.0215
   71POPC   NC3 1214   1.431   0.450   8.992 -0.1551 -0.1924 -0.0676
   71POPC   PO4 1215   1.265   0.098   8.846 -0.0828 -0.1746  0.0301
   71POPC   GL1 1216   1.245   0.093   8.447  0.4426 -0.0341  0.0983
   71POPC   GL2 1217   1.420   0.363   8.473 -0.2478  0.0480  0.0276
   71POPC   C1A 1218   1.314   0.055   8.038  0.4032 -0.0966  0.1840
   71POPC   D2A 1219   1.484   0.309   7.703 -0.2127  0.0976 -0.0391
   71POPC   C3A 1220   1.373   0.344   7.276 -0.0591 -0.5626  0.1535
   71POPC   C4A 1221   1.268   0.393   6.821  0.0888 -0.1553  0.0180
   71POPC   C1B 1222   1.131   0.653   8.318  0.1165 -0.2705 -0.0054
   71POPC   C2B 1223   0.764   1.066   8.350 -0.2080 -0.0797  0.0205
   71POPC   C3B 1224   0.617   1.444   8.084 -0.0166  0.0799  0.2744
   71POPC   C4B 1225   0.879   1.485   7.768  0.1543  0.1183  0.2697
   72POPC   NC3 1226   3.771   8.398   8.941  0.1249  0.0532  0.1312
   72POPC   PO4 1227   3.768   8.602   8.516  0.1273  0.1380  0.2407
   72POPC   GL1 1228   3.682   8.534   7.944 -0.0192  0.0832 -0.2000
   72POPC   GL2 1229   3.371   8.793   7.773 -0.0207  0.2722 -0.1602
   72POPC   C1A 1230   3.759   8.702   7.537 -0.1141  0.2233  0.1265
   72POPC   D2A 1231   3.856   8.620   7.039 -0.4157 -0.1474 -0.5405
   72POPC   C3A 1232   3.916   8.811   6.619  0.1147 -0.1363  0.1032
   72POPC   C4A 1233   3.802   8.907   6.167  0.1990  0.0745  0.3288
   72POPC   C1B 1234   2.922   8.727   7.544  0.1003  0.1343 -0.2211
   72POPC   C2B 1235   2.564   8.593   7.296 -0.1247 -0.1545  0.3347
   72POPC   C3B 1236   2.434   8.599   6.884 -0.0718  0.2105 -0.0330
   72POPC   C4B 1237   2.352   8.680   6.484  0.0170 -0.0796 -0.0071
   73POPC   NC3 1238   8.189   1.347   9.446 -0.2104 -0.1121 -0.1698
   73POPC   PO4 1239   8.226   1.522   9.029 -0.1801  0.1237 -0.1104
   73POPC   GL1 1240   8.347   1.413   8.611  0.0890 -0.0589 -0.2867
   73POPC   GL2 1241   8.069   1.357   8.574 -0.1213 -0.2059 -0.2723
   73POPC   C1A 1242   8.724   1.336   8.475 -0.0851  0.0165  0.2875
   73POPC   D2A 1243   9.053   1.282   8.208  0.1904 -0.0438 -0.0466
   73POPC   C3A 1244   9.057   1.120   7.837  0.0386  0.0183  0.1373
   73POPC   C4A 1245   9.189   1.144   7.452  0.0788  0.3372 -0.1044
   73POPC   C1B 1246   7.893   1.073   8.427  0.1047  0.0672  0.2461
   73POPC   C2B 1247   7.935   0.887   8.073  0.1391 -0.0572  0.1877
   73POPC   C3B 1248   8.139   0.814   7.728  0.3358  0.3567 -0.2465
   73POPC   C4B 1249   8.289   0.816   7.335  0.1714 -0.0313  0.0629
   74POPC   NC3 1250   6.708   3.710   8.664  0.1628  0.1238  0.0727
   74POPC   PO4 1251   6.567   3.597   8.257 -0.1425 -0.2120 -0.1704
   74POPC   GL1 1252   6.769   3.435   7.874  0.1799  0.0400 -0.0514
   74POPC   GL2 1253   7.057   3.257   7.951  0.0353 -0.2522 -0.2497
   74POPC   C1A 1254   6.769   3.606   7.472  0.2061  0.1210  0.0270
   74POPC   D2A 1255   6.635   4.047   7.373 -0.4501 -0.0632  0.2038
   74POPC   C3A 1256   6.586   4.041   6.870 -0.2996  0.4894 -0.0617
   74POPC   C4A 1257   6.723   4.015   6.430  0.1703  0.0522  0.1114
   74POPC   C1B 1258   7.236   3.405   7.583 -0.1238  0.0548  0.0751
   74POPC   C2B 1259   7.200   3.261   7.103  0.1330  0.0907  0.1220
   74POPC   C3B 1260   7.298   3.096   6.694 -0.1404 -0.0308  0.1463
   74POPC   C4B 1261   7.570   3.164   6.318 -0.0802  0.1037 -0.2422
   75POPC   NC3 1262   8.241   2.663   8.406  0.0160  0.1418 -0.0315
   75POPC   PO4 1263   8.730   2.777   8.460 -0.0795 -0.0075 -0.0577
   75POPC   GL1 1264   8.823   2.375   8.230 -0.0874 -0.0064  0.1282
   75POPC   GL2 1265   8.441   2.322   8.088  0.4358 -0.2838  0.1087
   75POPC   C1A 1266   8.918   2.215   7.837 -0.0444  0.1755  0.2297
   75POPC   D2A 1267   9.306   2.295   7.632 -0.1167  0.3207 -0.0105
   75POPC   C3A 1268   9.776   2.400   7.701 -0.0319  0.1361  0.0574
   75POPC   C4A 1269  10.245   2.322   7.540 -0.0134  0.0960 -0.5368
   75POPC   C1B 1270   8.473   2.575   7.815 -0.1792  0.1213 -0.0693
   75POPC   C2B 1271   8.363   2.661   7.430  0.0601 -0.4045 -0.2772
   75POPC   C3B 1272   7.942   2.689   7.294 -0.0430  0.0357 -0.3076
   75POPC   C4B 1273   7.589   2.634   6.903 -0.1349  0.0095 -0.1484
   76POPC   NC3 1274   2.628   2.731   8.605 -0.0601 -0.2823 -0.3060
   76POPC   PO4 1275   2.630   2.244   8.612 -0.0307 -0.2426 -0.1913
   76POPC   GL1 1276   2.650   2.291   8.170 -0.3047  0.0852  0.0687
   76POPC   GL2 1277   2.709   2.617   8.068  0.1355 -0.1973 -0.1011
   76POPC   C1A 1278   2.604   2.312   7.668  0.1566 -0.0981  0.1180
   76POPC   D2A 1279   2.402   2.170   7.298 -0.2376  0.0522 -0.2192
   76POPC   C3A 1280   2.474   1.795   7.150  0.1352  0.1059 -0.0482
   76POPC   C4A 1281   2.439   1.402   7.483 -0.2054 -0.1131 -0.0397
   76POPC   C1B 1282   2.826   2.752   7.714  0.1560  0.0867  0.1211
   76POPC   C2B 1283   2.791   2.592   7.302  0.1249 -0.0084  0.1955
   76POPC   C3B 1284   2.968   2.594   6.884  0.1038 -0.0342  0.1020
   76POPC   C4B 1285   3.175   2.606   6.440  0.1274 -0.1190 -0.2219
   77POPC   NC3 1286   3.320   8.505   8.271 -0.3188 -0.0981  0.0010
   77POPC   PO4 1287   3.030   8.863   8.269 -0.1273  0.2793  0.3283
   77POPC   GL1 1288   2.677   8.895   7.944 -0.1112  0.3490  0.0242
   77POPC   GL2 1289   2.646   9.202   7.977 -0.2264 -0.1395  0.2307
   77POPC   C1A 1290   2.298   8.944   7.617  0.2393  0.2453  0.1005
   77POPC   D2A 1291   2.092   8.887   7.211 -0.1024 -0.2128  0.0041
   77POPC   C3A 1292   2.229   9.081   6.841 -0.0795  0.0228 -0.2098
   77POPC   C4A 1293   2.333   9.212   6.476  0.2953  0.1768  0.0895
   77POPC   C1B 1294   2.624   9.276   7.524 -0.1506 -0.1643  0.0398
   77POPC   C2B 1295   2.683   9.034   7.100 -0.1378  0.1044 -0.1929
   77POPC   C3B 1296   2.979   8.796   6.928 -0.0460  0.1683 -0.1193
   77POPC   C4B 1297   3.016   8.408   6.906  0.2006  0.1951  0.2428
   78POPC   NC3 1298   0.133   6.701   8.348 -0.3645 -0.0276 -0.0572
   78POPC   PO4 1299  -0.269   6.675   8.629  0.3020  0.1333  0.1326
   78POPC   GL1 1300  -0.413   6.853   8.292  0.0864  0.1197 -0.2466
   78POPC   GL2 1301  -0.678   7.045   8.214 -0.0177  0.0712 -0.0553
   78POPC   C1A 1302  -0.398   6.954   7.834  0.0899 -0.0692 -0.3538
   78POPC   D2A 1303  -0.699   7.208   7.588 -0.0666 -0.1509  0.0025
   78POPC   C3A 1304  -0.945   7.402   7.869 -0.1682 -0.1816  0.1525
   78POPC   C4A 1305  -1.314   7.549   8.008  0.3888  0.3543 -0.1631
   78POPC   C1B 1306  -0.384   7.329   8.191  0.0125 -0.1121 -0.1282
   78POPC   C2B 1307  -0.315   7.431   7.878  0.2528 -0.2206 -0.2260
   78POPC   C3B 1308   0.108   7.631   7.731  0.0098  0.2291  0.2252
   78POPC   C4B 1309   0.265   7.913   7.309 -0.0584 -0.2286 -0.0260
   79POPC   NC3 1310   0.920   4.473   8.988  0.1599  0.4162 -0.1681
   79POPC   PO4 1311   0.764   4.369   8.468  0.4399 -0.1369 -0.2601
   79POPC   GL1 1312   0.732   4.501   8.073 -0.1033  0.0814  0.1425
   79POPC   GL2 1313   0.946   4.468   7.747 -0.1304 -0.0982  0.1259
   79POPC   C1A 1314   0.475   4.375   7.713 -0.1233  0.0805  0.1695
   79POPC   D2A 1315   0.623   4.265   7.272  0.0180 -0.1302  0.1093
   79POPC   C3A 1316   0.546   4.513   7.017 -0.1973 -0.0774 -0.0514
   79POPC   C4A 1317   0.516   4.970   6.679 -0.0027 -0.1213 -0.0286
   79POPC   C1B 1318   1.070   4.501   7.375 -0.0436  0.2689 -0.1058
   79POPC   C2B 1319   1.084   4.452   6.981  0.0430 -0.1459  0.0752
   79POPC   C3B 1320   1.292   4.158   6.647 -0.1766 -0.1156 -0.1395
   79POPC   C4B 1321   1.272   3.688   6.612 -0.0008 -0.2221  0.2961
   80POPC   NC3 1322   2.922   4.969   8.458  0.0143 -0.3367 -0.3505
   80POPC   PO4 1323   2.417   4.939   8.475 -0.0864 -0.0759  0.1040
   80POPC   GL1 1324   2.504   4.735   8.147 -0.0363  0.3782 -0.3031
   80POPC   GL2 1325   2.244   4.579   7.960  0.0133  0.0212  0.1502
   80POPC   C1A 1326   2.585   4.661   7.662 -0.1023  0.2564  0.1826
   80POPC   D2A 1327   2.522   4.678   7.221 -0.0818  0.2407  0.1240
   80POPC   C3A 1328   2.652   4.747   6.765  0.0093 -0.1576  0.3351
   80POPC   C4A 1329   2.464   4.689   6.374  0.1304  0.1001 -0.1430
   80POPC   C1B 1330   2.169   4.938   7.602  0.0792 -0.1383 -0.1742
   80POPC   C2B 1331   1.820   5.153   7.626  0.1470  0.0461 -0.2536
   80POPC   C3B 1332   1.834   5.540   7.769 -0.0446  0.1429  0.4821
   80POPC   C4B 1333   1.785   5.938   7.651  0.2568  0.1761 -0.0745
   81POPC   NC3 1334   8.691   5.309   8.364 -0.0618 -0.1473  0.0201
   81POPC   PO4 1335   9.191   5.410   8.319  0.0243 -0.1692 -0.0909
   81POPC   GL1 1336   8.878   5.577   7.961  0.3450  0.0036  0.4084
   81POPC   GL2 1337   9.173   5.643   7.812 -0.1481 -0.0396  0.0560
   81POPC   C1A 1338   8.717   5.546   7.511 -0.2220 -0.0228 -0.2608
   81POPC   D2A 1339   8.766   5.681   7.110  0.0237 -0.0697 -0.0872
   81POPC   C3A 1340   8.596   6.118   6.981  0.1168 -0.0083 -0.1924
   81POPC   C4A 1341   8.873   6.404   6.744  0.0921  0.1548 -0.2628
   81POPC   C1B 1342   9.401   5.748   7.402  0.1468 -0.0931 -0.3996
   81POPC   C2B 1343   9.438   5.642   6.978 -0.1053  0.0190 -0.3001
   81POPC   C3B 1344   9.663   5.600   6.553  0.0508 -0.0397  0.2340
   81POPC   C4B 1345   9.607   5.247   6.203  0.0114 -0.4868  0.1772
   82POPC   NC3 1346   2.105   7.083   8.203  0.1573  0.0362 -0.3500
   82POPC   PO4 1347   1.918   7.393   8.565 -0.0993  0.2495 -0.1149
   82POPC   GL1 1348   1.855   7.650   8.118 -0.0181  0.1013 -0.0349
   82POPC   GL2 1349   2.142   7.600   7.961 -0.0130 -0.1039 -0.0250
   82POPC   C1A 1350   1.613   7.635   7.791 -0.1612  0.1276 -0.3358
   82POPC   D2A 1351   1.602   7.468   7.288 -0.4282 -0.1513  0.1070
   82POPC   C3A 1352   1.937   7.241   7.254  0.2422  0.0260 -0.0744
   82POPC   C4A 1353   2.345   7.023   7.278  0.0446 -0.0798  0.4663
   82POPC   C1B 1354   2.109   7.692   7.498  0.0448 -0.3804 -0.0256
   82POPC   C2B 1355   2.071   7.863   7.136  0.0045  0.2998 -0.0860
   82POPC   C3B 1356   2.220   7.831   6.705  0.0184 -0.1157  0.2111
   82POPC   C4B 1357   2.175   7.487   6.435  0.0156 -0.4252  0.0468
   83POPC   NC3 1358   3.035   8.015   8.267 -0.0477  0.2546  0.2000
   83POPC   PO4 1359   2.539   7.980   8.111 -0.0373  0.1268 -0.1787
   83POPC   GL1 1360   2.748   7.969   7.820  0.1384  0.0399  0.2169
   83POPC   GL2 1361   3.065   7.810   7.762 -0.3551  0.2892  0.1282
   83POPC   C1A 1362   2.963   8.229   7.414 -0.0420 -0.0702  0.0618
   83POPC   D2A 1363   3.364   8.403   7.470 -0.1175 -0.0662  0.1512
   83POPC   C3A 1364   3.350   8.647   7.178  0.2543  0.1805 -0.4178
   83POPC   C4A 1365   3.626   9.084   7.034  0.1146 -0.0741 -0.0484
   83POPC   C1B 1366   3.166   7.772   7.320  0.1316 -0.3890 -0.2149
   83POPC   C2B 1367   3.374   7.991   7.070  0.1306  0.4122  0.1724
   83POPC   C3B 1368   3.529   8.332   6.733 -0.1160 -0.1849 -0.0866
   83POPC   C4B 1369   3.419   8.796   6.676 -0.1772  0.0216  0.0775
   84POPC   NC3 1370   5.663   6.537   8.639  0.1943 -0.4498 -0.0524
   84POPC   PO4 1371   5.343   6.660   8.472  0.1476 -0.0884 -0.1367
   84POPC   GL1 1372   5.407   6.765   7.958 -0.1383 -0.0329 -0.2344
   84POPC   GL2 1373   5.328   6.572   7.753 -0.0239  0.0498  0.3303
   84POPC   C1A 1374   5.673   6.920   7.765  0.1713  0.2349  0.1393
   84POPC   D2A 1375   5.902   6.912   7.441  0.1249  0.2146 -0.1383
   84POPC   C3A 1376   6.067   6.757   7.037 -0.0699  0.0380  0.0788
   84POPC   C4A 1377   6.308   6.595   6.772  0.1580 -0.3037  0.1696
   84POPC   C1B 1378   5.222   6.910   7.440 -0.2999  0.1916 -0.1924
   84POPC   C2B 1379   4.877   7.012   7.433 -0.0098  0.3462  0.0045
   84POPC   C3B 1380   4.427   7.054   7.501 -0.0840  0.0871  0.0448
   84POPC   C4B 1381   3.991   6.891   7.407  0.1829  0.1192  0.0516
   85POPC   NC3 1382   1.806   3.391   8.583  0.1867 -0.0096 -0.0676
   85POPC   PO4 1383   2.146   3.410   8.372 -0.0906 -0.1669  0.0115
   85POPC   GL1 1384   2.339   3.391   7.914  0.1563 -0.0917  0.0008
   85POPC   GL2 1385   2.452   3.077   7.758 -0.0075 -0.0120 -0.1323
   85POPC   C1A 1386   2.233   3.678   7.550 -0.1068 -0.1059 -0.0262
   85POPC   D2A 1387   2.323   3.808   7.100  0.0024  0.1955 -0.0222
   85POPC   C3A 1388   2.293   3.923   6.575 -0.4139  0.4823 -0.3304
   85POPC   C4A 1389   2.217   4.222   6.328  0.1010  0.1082  0.1085
   85POPC   C1B 1390   2.308   3.238   7.320  0.1286  0.0700 -0.0666
   85POPC   C2B 1391   2.154   3.252   6.906  0.1569  0.4064  0.0938
   85POPC   C3B 1392   2.115   2.945   6.633  0.1403 -0.0929 -0.0283
   85POPC   C4B 1393   1.801   2.647   6.354  0.2794  0.2785 -0.1634
   86POPC   NC3 1394   6.774   1.190   9.097  0.0084  0.2294 -0.5019
   86POPC   PO4 1395   6.918   1.324   8.680  0.0509  0.3349  0.1040
   86POPC   GL1 1396   6.994   1.098   8.400 -0.0468 -0.1395  0.1229
   86POPC   GL2 1397   7.124   0.844   8.369 -0.0261 -0.0706 -0.0879
   86POPC   C1A 1398   7.497   1.157   8.109 -0.0322 -0.2214  0.2049
   86POPC   D2A 1399   7.761   1.149   7.653  0.3290 -0.3118  0.2515
   86POPC   C3A 1400   7.603   1.454   7.281  0.1127  0.0019 -0.0716
   86POPC   C4A 1401   7.827   1.718   7.043  0.0819 -0.1455  0.2779
   86POPC   C1B 1402   7.043   0.832   7.901  0.0021 -0.0685  0.0920
   86POPC   C2B 1403   7.242   0.826   7.585 -0.3395 -0.2182 -0.0196
   86POPC   C3B 1404   7.376   0.966   7.235  0.1131  0.0883 -0.1038
   86POPC   C4B 1405   7.468   1.107   6.860  0.1333 -0.2359  0.2560
   87POPC   NC3 1406   8.969   3.580   8.388 -0.0083 -0.3566 -0.2588
   87POPC   PO4 1407   8.823   3.848   8.071  0.1861 -0.1200 -0.1230
   87POPC   GL1 1408   9.045   4.132   7.857 -0.3068  0.1028  0.3300
   87POPC   GL2 1409   9.026   4.449   7.956  0.1305 -0.2980  0.0436
   87POPC   C1A 1410   9.347   4.239   7.551  0.1412  0.0225 -0.0655
   87POPC   D2A 1411   9.436   4.231   7.088  0.0406  0.2326 -0.1155
   87POPC   C3A 1412   9.348   3.841   6.819 -0.3769  0.0706  0.0550
   87POPC   C4A 1413   9.290   3.372   6.801  0.2089  0.1940 -0.1732
   87POPC   C1B 1414   9.257   4.752   7.618 -0.2738 -0.2220 -0.2867
   87POPC   C2B 1415   9.487   4.765   7.167  0.0039 -0.3837  0.0786
   87POPC   C3B 1416   9.673   4.607   6.846 -0.0503  0.2025 -0.1744
   87POPC   C4B 1417   9.618   4.313   6.556 -0.1191  0.0324  0.2301
   88POPC   NC3 1418   3.543   6.029   8.347 -0.1763  0.1556 -0.0735
   88POPC   PO4 1419   3.454   5.602   8.368  0.1605  0.0812 -0.0965
   88POPC   GL1 1420   3.624   5.751   7.972  0.1019  0.3312 -0.1799
   88POPC   GL2 1421   3.646   5.341   7.766  0.2617  0.2557 -0.3530
   88POPC   C1A 1422   3.758   5.840   7.565 -0.0174 -0.4586  0.0464
   88POPC   D2A 1423   3.911   5.956   7.142 -0.0105 -0.1881 -0.1797
   88POPC   C3A 1424   3.755   5.773   6.822  0.1369  0.1634  0.2698
   88POPC   C4A 1425   3.541   5.896   6.526  0.2777  0.2292  0.0986
   88POPC   C1B 1426   3.581   5.424   7.341 -0.2466  0.2617 -0.0519
   88POPC   C2B 1427   3.624   5.153   7.006 -0.0530  0.0266  0.0740
   88POPC   C3B 1428   3.686   4.880   6.729 -0.2580  0.0070 -0.0125
   88POPC   C4B 1429   3.520   4.530   6.826 -0.3597  0.2047  0.3773
   89POPC   NC3 1430   6.859   8.279   9.091 -0.1883 -0.2509  0.1235
   89POPC   PO4 1431   6.969   8.289   8.700 -0.1155  0.2265  0.1186
   89POPC   GL1 1432   6.961   8.349   8.307  0.0202  0.0479  0.1159
   89POPC   GL2 1433   7.236   8.188   8.130 -0.1418  0.1563 -0.0943
   89POPC   C1A 1434   6.812   8.576   8.126  0.0080 -0.2020  0.0878
   89POPC   D2A 1435   6.686   8.353   7.641  0.3054  0.0802 -0.0200
   89POPC   C3A 1436   6.346   8.318   7.400  0.0528  0.2492 -0.1010
   89POPC   C4A 1437   6.191   8.480   6.937 -0.0680 -0.2937 -0.0695
   89POPC   C1B 1438   7.201   8.091   7.752  0.3220 -0.1770 -0.0487
   89POPC   C2B 1439   7.348   8.144   7.294  0.0359 -0.2123  0.0716
   89POPC   C3B 1440   7.304   7.762   6.920 -0.1646  0.0763 -0.1358
   89POPC   C4B 1441   7.192   7.626   6.492 -0.0736  0.0943 -0.1731
   90POPC   NC3 1442   7.793   4.176   8.357 -0.1447  0.2877  0.2740
   90POPC   PO4 1443   7.525   3.938   8.279 -0.0878  0.0131 -0.1653
   90POPC   GL1 1444   7.382   4.010   7.943 -0.1698 -0.0127 -0.1095
   90POPC   GL2 1445   7.111   4.239   7.976 -0.1018 -0.0418 -0.2213
   90POPC   C1A 1446   7.175   3.926   7.530 -0.1248 -0.0712  0.3128
   90POPC   D2A 1447   7.122   4.034   7.073  0.1562  0.0684 -0.0856
   90POPC   C3A 1448   6.895   4.427   7.084  0.1603  0.3630  0.0448
   90POPC   C4A 1449   6.804   4.654   6.705  0.0541 -0.2616 -0.1477
   90POPC   C1B 1450   6.915   4.459   7.635  0.0357  0.0923  0.1127
   90POPC   C2B 1451   6.959   4.863   7.244  0.0825 -0.0355  0.0432
   90POPC   C3B 1452   7.022   5.011   6.916  0.0512 -0.1516  0.1159
   90POPC   C4B 1453   7.182   5.193   6.628 -0.0840 -0.0624 -0.0490
   91POPC   NC3 1454   6.119   4.721   8.178  0.0308  0.1656  0.1683
   91POPC   PO4 1455   5.862   5.054   8.388  0.3646  0.1428 -0.0745
   91POPC   GL1 1456   5.823   5.277   8.055 -0.1771  0.2078 -0.1083
   91POPC   GL2 1457   5.572   5.485   8.016 -0.1707 -0.1702 -0.0582
   91POPC   C1A 1458   5.821   5.368   7.598 -0.0540  0.1206 -0.2821
   91POPC   D2A 1459   5.981   5.088   7.208 -0.1067 -0.1409 -0.0028
   91POPC   C3A 1460   5.861   5.252   6.744  0.1338  0.2741 -0.1131
   91POPC   C4A 1461   5.748   5.619   6.715  0.0004  0.0384  0.2600
   91POPC   C1B 1462   5.340   5.459   7.672  0.2331  0.0398 -0.0663
   91POPC   C2B 1463   5.114   5.468   7.235 -0.2131 -0.0933 -0.2218
   91POPC   C3B 1464   4.871   5.637   6.853  0.3113  0.1534  0.2999
   91POPC   C4B 1465   4.820   5.688   6.501  0.1001  0.0359  0.2903
   92POPC   NC3 1466   4.592   6.175   8.818  0.2366 -0.1450  0.1257
   92POPC   PO4 1467   4.451   5.804   8.580  0.4534  0.0004  0.0416
   92POPC   GL1 1468   4.521   5.631   8.188 -0.2232 -0.0318  0.0399
   92POPC   GL2 1469   4.660   5.802   7.860 -0.3130 -0.2067 -0.3676
   92POPC   C1A 1470   4.279   5.466   7.873 -0.0447  0.0597  0.2061
   92POPC   D2A 1471   4.056   5.485   7.548  0.1045  0.1824  0.0045
   92POPC   C3A 1472   4.116   5.472   7.130 -0.1901  0.0404 -0.0078
   92POPC   C4A 1473   4.309   5.776   6.890  0.0927 -0.0039 -0.2377
   92POPC   C1B 1474   4.382   5.960   7.547 -0.0138  0.0257  0.1458
   92POPC   C2B 1475   4.342   6.223   7.119 -0.0713  0.0048 -0.4328
   92POPC   C3B 1476   4.195   6.318   6.736  0.2406 -0.0729  0.0728
   92POPC   C4B 1477   3.913   6.364   6.445 -0.1205  0.0059  0.0190
   93POPC   NC3 1478   1.574   7.784   8.554  0.3220  0.1721 -0.3456
   93POPC   PO4 1479   1.343   7.376   8.570  0.0255  0.0563 -0.4083
   93POPC   GL1 1480   1.363   7.349   8.242  0.0727  0.1794 -0.1309
   93POPC   GL2 1481   1.300   7.715   8.191 -0.2493  0.2314  0.1073
   93POPC   C1A 1482   1.084   7.107   8.059  0.2237  0.1588  0.2670
   93POPC   D2A 1483   1.132   6.773   7.859 -0.3013  0.2399 -0.0964
   93POPC   C3A 1484   1.013   6.872   7.409  0.1013  0.1365 -0.3507
   93POPC   C4A 1485   0.888   6.601   7.137 -0.0906  0.1540 -0.0443
   93POPC   C1B 1486   1.045   7.605   7.799 -0.0747 -0.0756  0.0164
   93POPC   C2B 1487   1.152   7.367   7.411  0.1549 -0.2222  0.0883
   93POPC   C3B 1488   1.140   7.113   7.018  0.1076 -0.1579  0.0858
   93POPC   C4B 1489   1.202   7.389   6.568 -0.4599 -0.1871 -0.5670
   94POPC   NC3 1490   0.793   6.310   8.628 -0.1903 -0.1998 -0.1661
   94POPC   PO4 1491   1.152   5.968   8.511  0.2998 -0.0073  0.0018
   94POPC   GL1 1492   1.062   5.791   8.004 -0.2101 -0.0755 -0.1188
   94POPC   GL2 1493   1.224   5.974   7.770 -0.1056  0.3316  0.1158
   94POPC   C1A 1494   0.928   5.610   7.580  0.2202 -0.2511 -0.1430
   94POPC   D2A 1495   0.589   5.347   7.399  0.1640 -0.1411  0.1997
   94POPC   C3A 1496   0.524   5.379   7.002 -0.1767  0.1007 -0.1277
   94POPC   C4A 1497   0.770   5.679   6.850 -0.2610  0.0896  0.2380
   94POPC   C1B 1498   1.375   5.568   7.583  0.3865 -0.0521 -0.2543
   94POPC   C2B 1499   1.742   5.420   7.200 -0.2860 -0.1441 -0.2477
   94POPC   C3B 1500   1.795   5.299   6.796 -0.0348  0.1107 -0.1937
   94POPC   C4B 1501   1.485   5.157   6.392 -0.1474 -0.1621  0.1830
   95POPC   NC3 1502   5.707   0.563   8.418 -0.0187 -0.1823 -0.1012
   95POPC   PO4 1503   6.129   0.765   8.354  0.1242 -0.3716  0.1090
   95POPC   GL1 1504   6.379   0.953   7.982  0.0403 -0.2331  0.1221
   95POPC   GL2 1505   6.611   1.010   8.042 -0.0661  0.3317  0.0514
   95POPC   C1A 1506   6.516   0.967   7.501 -0.2947  0.1032 -0.0543
   95POPC   D2A 1507   6.870   0.973   7.195 -0.0504 -0.4741  0.1351
   95POPC   C3A 1508   6.980   1.142   6.757  0.4719  0.0024 -0.0299
   95POPC   C4A 1509   6.951   1.595   6.574 -0.1680  0.1816 -0.1809
   95POPC   C1B 1510   6.758   0.470   8.134  0.0520  0.0813 -0.1830
   95POPC   C2B 1511   6.994   0.317   7.828  0.0450 -0.4056  0.0861
   95POPC   C3B 1512   7.371   0.307   7.505 -0.1008  0.0977 -0.0916
   95POPC   C4B 1513   7.677   0.627   7.446 -0.0946 -0.0944  0.1560
   96POPC   NC3 1514   0.271   8.368   8.785  0.2175 -0.0989  0.4064
   96POPC   PO4 1515   0.425   7.980   8.570 -0.2103 -0.2287  0.3917
   96POPC   GL1 1516   0.245   7.869   8.315 -0.3050 -0.0952 -0.0285
   96POPC   GL2 1517   0.014   8.168   8.389  0.2339 -0.1112 -0.0378
   96POPC   C1A 1518  -0.145   7.828   8.090 -0.0560  0.0468 -0.1819
   96POPC   D2A 1519  -0.304   7.893   7.661 -0.0050 -0.1271 -0.3388
   96POPC   C3A 1520  -0.144   8.225   7.390 -0.4373 -0.0473  0.0721
   96POPC   C4A 1521   0.098   8.387   7.086 -0.0421 -0.3283  0.3603
   96POPC   C1B 1522   0.140   8.171   7.865 -0.2583 -0.0207  0.1753
   96POPC   C2B 1523   0.348   8.393   7.499 -0.1786  0.0857 -0.2618
   96POPC   C3B 1524   0.459   8.664   7.229  0.3123  0.0024 -0.2725
   96POPC   C4B 1525   0.448   8.993   7.030  0.3356 -0.0963 -0.0652
   97POPC   NC3 1526   1.857   1.834   9.192  0.0585 -0.0523 -0.0661
   97POPC   PO4 1527   1.772   1.825   8.687  0.1363 -0.0555 -0.3164
   97POPC   GL1 1528   1.339   1.721   8.484  0.3463 -0.0047 -0.1223
   97POPC   GL2 1529   1.251   1.967   8.148 -0.4062 -0.0279 -0.0926
   97POPC   C1A 1530   1.191   1.395   8.231  0.1298 -0.1997 -0.0368
   97POPC   D2A 1531   1.374   1.388   7.850 -0.3639 -0.0739 -0.0770
   97POPC   C3A 1532   1.546   1.373   7.347  0.0079  0.0309 -0.0289
   97POPC   C4A 1533   1.714   1.203   6.957 -0.0346 -0.1501 -0.0806
   97POPC   C1B 1534   1.156   1.837   7.663 -0.1133  0.2175 -0.0098
   97POPC   C2B 1535   0.966   1.876   7.289 -0.1179 -0.1099 -0.0596
   97POPC   C3B 1536   0.684   1.828   6.961 -0.0523  0.0179  0.4854
   97POPC   C4B 1537   0.444   1.664   6.606  0.0830  0.0987 -0.1136
   98POPC   NC3 1538   5.055   6.928   8.216  0.1274 -0.2041  0.2326
   98POPC   PO4 1539   4.669   6.724   8.041 -0.0096  0.0481 -0.0460
   98POPC   GL1 1540   4.836   6.618   7.696 -0.0426  0.0536 -0.0224
   98POPC   GL2 1541   4.799   6.267   7.706 -0.0330  0.1467  0.0693
   98POPC   C1A 1542   5.146   6.336   7.334 -0.3464  0.0872 -0.0351
   98POPC   D2A 1543   5.137   6.177   6.889 -0.2895 -0.1594  0.2649
   98POPC   C3A 1544   5.287   5.808   6.919 -0.1271 -0.2183 -0.1923
   98POPC   C4A 1545   5.334   5.306   6.738  0.2508  0.0942 -0.0965
   98POPC   C1B 1546   4.370   6.506   7.475 -0.1015 -0.0217 -0.0733
   98POPC   C2B 1547   4.275   6.780   7.041 -0.1734  0.0750 -0.4658
   98POPC   C3B 1548   4.226   7.276   6.949  0.4010  0.1006  0.2058
   98POPC   C4B 1549   4.320   7.740   6.881  0.2289  0.0636 -0.0126
   99POPC   NC3 1550   8.284   4.922   8.515 -0.0534 -0.0285 -0.3272
   99POPC   PO4 1551   8.141   4.586   8.269  0.1080 -0.0254  0.1019
   99POPC   GL1 1552   8.164   4.360   7.874  0.0337  0.0869 -0.0769
   99POPC   GL2 1553   8.507   4.359   7.894  0.1075 -0.0414 -0.2950
   99POPC   C1A 1554   8.346   4.251   7.385 -0.1251  0.0006 -0.1154
   99POPC   D2A 1555   8.401   4.146   6.972  0.0291 -0.3522  0.0554
   99POPC   C3A 1556   8.122   4.159   6.674 -0.2041  0.1506  0.0854
   99POPC   C4A 1557   7.816   3.919   6.350  0.0356  0.3675 -0.3531
   99POPC   C1B 1558   8.785   4.494   7.532 -0.0474 -0.0334 -0.1819
   99POPC   C2B 1559   8.986   4.658   7.204  0.2206  0.2454  0.1458
   99POPC   C3B 1560   8.845   5.028   6.900 -0.1250 -0.1407 -0.3500
   99POPC   C4B 1561   8.750   5.295   6.601 -0.0009  0.0410  0.0453
  100POPC   NC3 1562   0.590   2.411   8.205 -0.0624 -0.2485 -0.4701
  100POPC   PO4 1563   0.798   2.069   8.408 -0.0231  0.2114  0.0864
  100POPC   GL1 1564   0.725   1.922   8.006  0.0766 -0.2176  0.0482
  100POPC   GL2 1565   0.320   2.007   7.978 -0.0531 -0.2509  0.1680
  100POPC   C1A 1566   0.525   1.767   7.552  0.2118 -0.0157  0.0345
  100POPC   D2A 1567   0.273   1.992   7.182  0.1967  0.1330 -0.0075
  100POPC   C3A 1568   0.045   1.804   6.833 -0.0210  0.2097  0.2483
  100POPC   C4A 1569  -0.113   1.704   6.426 -0.0567 -0.1557  0.1269
  100POPC   C1B 1570   0.004   1.939   7.580 -0.1003 -0.2272 -0.2029
  100POPC   C2B 1571  -0.147   2.182   7.233  0.1859 -0.0004  0.2523
  100POPC   C3B 1572  -0.199   2.207   6.836 -0.0924 -0.1880  0.0681
  100POPC   C4B 1573  -0.131   2.263   6.397 -0.0185  0.1505 -0.1408
  101POPC   NC3 1574   4.678   4.674   8.412  0.1840  0.1596 -0.0147
  101POPC   PO4 1575   4.308   4.925   8.291 -0.2214 -0.0471  0.0411
  101POPC   GL1 1576   4.216   4.991   7.850  0.4451 -0.1257 -0.2034
  101POPC   GL2 1577   4.017   4.934   7.657 -0.2614  0.1335 -0.0472
  101POPC   C1A 1578   4.466   4.997   7.472 -0.1004  0.0650 -0.1262
  101POPC   D2A 1579   4.787   5.051   7.245 -0.0207 -0.1898 -0.4577
  101POPC   C3A 1580   5.049   4.971   6.958 -0.3896 -0.1291 -0.1752
  101POPC   C4A 1581   5.391   4.809   6.726  0.0138 -0.0387  0.0451
  101POPC   C1B 1582   4.055   4.874   7.189 -0.1205  0.2022 -0.4166
  101POPC   C2B 1583   4.078   5.170   6.697 -0.1621  0.0324 -0.1275
  101POPC   C3B 1584   4.362   5.425   6.481  0.0779  0.0771 -0.2709
  101POPC   C4B 1585   4.185   5.818   6.371 -0.2119  0.0087  0.1480
  102POPC   NC3 1586   9.709   5.415   8.374  0.2245 -0.2115 -0.0870
  102POPC   PO4 1587   9.719   4.945   8.103 -0.1463 -0.0837  0.0475
  102POPC   GL1 1588   9.779   4.662   7.811 -0.1023 -0.0262  0.0764
  102POPC   GL2 1589   9.620   4.408   7.921 -0.0895  0.0996  0.2646
  102POPC   C1A 1590   9.873   4.469   7.308 -0.2365 -0.1896 -0.2153
  102POPC   D2A 1591   9.928   4.150   7.025  0.1448  0.2991 -0.1108
  102POPC   C3A 1592  10.163   4.182   6.634  0.2459 -0.2297  0.0493
  102POPC   C4A 1593  10.149   3.923   6.285  0.1081 -0.2431  0.0329
  102POPC   C1B 1594   9.784   4.046   7.659  0.5572  0.1245 -0.0073
  102POPC   C2B 1595   9.997   3.752   7.479  0.0200 -0.1312  0.2442
  102POPC   C3B 1596  10.301   3.769   7.149 -0.1566  0.3222 -0.0850
  102POPC   C4B 1597  10.572   3.979   6.833 -0.1981  0.0424  0.4387
  103POPC   NC3 1598   0.542   0.272   9.453  0.0134  0.0861  0.0730
  103POPC   PO4 1599   0.868   0.281   9.130 -0.1416 -0.1978  0.2661
  103POPC   GL1 1600   0.758   0.309   8.662  0.1837 -0.1857  0.0078
  103POPC   GL2 1601   0.538   0.637   8.614  0.0287 -0.3453  0.1495
  103POPC   C1A 1602   0.740   0.038   8.311 -0.2680 -0.1070  0.0247
  103POPC   D2A 1603   0.713   0.048   7.878 -0.0299  0.2489  0.0718
  103POPC   C3A 1604   1.057  -0.022   7.572  0.3736 -0.3566  0.0014
  103POPC   C4A 1605   0.887   0.097   7.156 -0.3772 -0.4252  0.4635
  103POPC   C1B 1606   0.574   0.589   8.224  0.0921 -0.1894  0.3424
  103POPC   C2B 1607   0.885   0.474   7.964  0.1418  0.1835 -0.2518
  103POPC   C3B 1608   0.916   0.450   7.583  0.1062 -0.1057 -0.2089
  103POPC   C4B 1609   0.866   0.654   7.222  0.1771 -0.2375 -0.2108
  104POPC   NC3 1610   4.415   4.304   9.071 -0.1419  0.2546 -0.0938
  104POPC   PO4 1611   4.422   4.257   8.636 -0.0907 -0.2754 -0.1072
  104POPC   GL1 1612   4.420   4.263   8.161 -0.1828 -0.2836 -0.2095
  104POPC   GL2 1613   4.627   4.304   8.032 -0.1102  0.2627 -0.1204
  104POPC   C1A 1614   4.208   4.470   7.813 -0.0943 -0.0454  0.0986
  104POPC   D2A 1615   3.857   4.494   7.468 -0.1138  0.3418 -0.0919
  104POPC   C3A 1616   3.935   4.356   7.111  0.1894  0.3966 -0.1575
  104POPC   C4A 1617   4.029   3.944   6.884 -0.2581 -0.1266  0.0446
  104POPC   C1B 1618   4.792   4.393   7.665  0.0279 -0.1614 -0.1384
  104POPC   C2B 1619   4.689   4.532   7.274 -0.1690 -0.2608 -0.4258
  104POPC   C3B 1620   4.426   4.311   6.906 -0.1815 -0.2207  0.0335
  104POPC   C4B 1621   4.277   4.177   6.456  0.2700 -0.0496 -0.0319
  105POPC   NC3 1622   7.305   1.620   8.569  0.4603  0.0227 -0.3137
  105POPC   PO4 1623   6.852   1.685   8.323 -0.1478  0.0736  0.2333
  105POPC   GL1 1624   6.941   1.725   7.895  0.0380 -0.1889  0.1668
  105POPC   GL2 1625   7.069   1.334   7.911  0.3428 -0.3374 -0.0054
  105POPC   C1A 1626   7.004   1.950   7.566  0.0565  0.1190 -0.3899
  105POPC   D2A 1627   6.967   2.100   7.139 -0.0423 -0.3115 -0.0889
  105POPC   C3A 1628   6.700   1.898   6.849  0.0691  0.1669 -0.0155
  105POPC   C4A 1629   6.454   1.666   6.525  0.0249  0.2312 -0.1035
  105POPC   C1B 1630   7.038   1.277   7.511  0.0727 -0.2066 -0.0660
  105POPC   C2B 1631   7.182   1.603   7.016 -0.0879 -0.0892 -0.1015
  105POPC   C3B 1632   7.450   1.564   6.687 -0.1286 -0.1930 -0.1968
  105POPC   C4B 1633   7.760   1.750   6.439  0.2429  0.0879  0.2871
  106POPC   NC3 1634   9.544   1.778   8.762 -0.3512 -0.1715  0.1174
  106POPC   PO4 1635   9.952   1.933   8.513  0.0482 -0.2318  0.1144
  106POPC   GL1 1636   9.752   1.687   8.249  0.3170 -0.3189  0.2660
  106POPC   GL2 1637   9.510   1.477   8.282  0.1411  0.2025  0.2311
  106POPC   C1A 1638   9.855   1.566   7.891 -0.1710 -0.0718  0.3182
  106POPC   D2A 1639   9.624   1.347   7.540  0.1493 -0.3835  0.0644
  106POPC   C3A 1640   9.529   1.543   7.209  0.1249  0.0060 -0.1966
  106POPC   C4A 1641   9.237   1.759   6.901 -0.1087  0.2508  0.2446
  106POPC   C1B 1642   9.566   1.175   7.982  0.0729 -0.1344  0.0931
  106POPC   C2B 1643   9.677   0.837   7.660 -0.1588  0.0463 -0.1322
  106POPC   C3B 1644   9.578   0.542   7.517  0.0011  0.0867  0.2307
  106POPC   C4B 1645   9.207   0.285   7.384  0.2034 -0.0284  0.1960
  107POPC   NC3 1646   8.554   6.317   8.424  0.1892  0.1313  0.1404
  107POPC   PO4 1647   8.972   6.512   8.350 -0.1914  0.2300  0.0541
  107POPC   GL1 1648   9.078   6.392   7.916  0.1016 -0.0732  0.0314
  107POPC   GL2 1649   8.834   6.067   7.981 -0.1477 -0.1863  0.3036
  107POPC   C1A 1650   9.204   6.591   7.546 -0.2592  0.2065  0.1756
  107POPC   D2A 1651   9.032   6.835   7.239 -0.2103 -0.1200 -0.0769
  107POPC   C3A 1652   9.069   6.835   6.738 -0.2184  0.0572  0.1240
  107POPC   C4A 1653   8.854   6.787   6.309 -0.0579  0.4240  0.0878
  107POPC   C1B 1654   9.006   6.052   7.573 -0.0390  0.0763  0.0135
  107POPC   C2B 1655   9.102   6.282   7.170 -0.0867 -0.4806 -0.0274
  107POPC   C3B 1656   9.385   6.590   7.023 -0.1535  0.0520  0.0663
  107POPC   C4B 1657   9.678   6.549   6.721  0.2374  0.0578  0.0971
  108POPC   NC3 1658   5.225   8.068   8.679 -0.0759 -0.1723 -0.2732
  108POPC   PO4 1659   5.004   7.830   8.606 -0.3429 -0.1854 -0.0336
  108POPC   GL1 1660   5.011   8.046   8.188 -0.4575 -0.0753  0.0221
  108POPC   GL2 1661   4.720   7.851   7.983  0.0359 -0.3415 -0.0607
  108POPC   C1A 1662   4.813   8.313   7.805 -0.1457  0.3789 -0.2497
  108POPC   D2A 1663   4.582   8.630   7.845 -0.1253  0.2482  0.0410
  108POPC   C3A 1664   4.711   9.012   7.767  0.1740  0.1214  0.1038
  108POPC   C4A 1665   4.631   9.372   7.413 -0.2011  0.1091 -0.0161
  108POPC   C1B 1666   5.014   7.744   7.711  0.0496  0.0988  0.3864
  108POPC   C2B 1667   5.137   7.605   7.291 -0.1211  0.2327  0.1195
  108POPC   C3B 1668   5.123   7.669   6.905  0.0586 -0.3217  0.0155
  108POPC   C4B 1669   4.725   7.597   6.668 -0.2360  0.4718  0.2371
  109POPC   NC3 1670   8.166   6.654   8.945 -0.0178  0.2082 -0.1666
  109POPC   PO4 1671   7.980   6.408   8.575  0.3670 -0.0268  0.0590
  109POPC   GL1 1672   8.137   6.502   8.169  0.0568  0.1137  0.0297
  109POPC   GL2 1673   8.358   6.398   7.971 -0.1325  0.2553 -0.0943
  109POPC   C1A 1674   8.165   6.815   7.809  0.1389 -0.3524  0.2645
  109POPC   D2A 1675   8.359   7.214   7.628  0.1497  0.2312 -0.2709
  109POPC   C3A 1676   8.497   7.050   7.314  0.0028 -0.0967 -0.0266
  109POPC   C4A 1677   8.598   6.586   7.127 -0.0853  0.2192  0.0756
  109POPC   C1B 1678   8.125   6.350   7.640  0.0665  0.2609 -0.0411
  109POPC   C2B 1679   8.159   6.283   7.184 -0.0717 -0.0438 -0.2705
  109POPC   C3B 1680   8.173   6.157   6.723 -0.0008 -0.0500  0.0258
  109POPC   C4B 1681   8.303   6.103   6.331  0.1523  0.2496 -0.1389
  110POPC   NC3 1682   9.467   6.370   8.262  0.1974  0.3050  0.0698
  110POPC   PO4 1683   9.696   5.915   8.382  0.0196  0.1389  0.1168
  110POPC   GL1 1684   9.551   5.998   8.005  0.2146 -0.2061  0.0601
  110POPC   GL2 1685   9.660   5.782   7.873 -0.1449  0.1318 -0.1094
  110POPC   C1A 1686   9.530   6.221   7.618  0.2027 -0.0565  0.4346
  110POPC   D2A 1687   9.618   6.159   7.107 -0.2994  0.0660 -0.1280
  110POPC   C3A 1688   9.359   6.140   6.751  0.1070  0.1260 -0.1104
  110POPC   C4A 1689   9.041   5.815   6.594 -0.2720 -0.1556  0.0267
  110POPC   C1B 1690   9.845   5.786   7.512 -0.2886  0.0000  0.3524
  110POPC   C2B 1691  10.255   5.943   7.350 -0.6017 -0.0490 -0.1448
  110POPC   C3B 1692  10.613   6.029   7.275 -0.1352 -0.0823  0.0455
  110POPC   C4B 1693  10.991   5.952   7.092 -0.0629 -0.1263 -0.2254
  111POPC   NC3 1694   7.190   6.897   8.232 -0.0215 -0.0909  0.1159
  111POPC   PO4 1695   7.490   7.180   8.381  0.0207 -0.0208  0.2479
  111POPC   GL1 1696   7.525   7.246   7.943  0.0532 -0.0633 -0.1762
  111POPC   GL2 1697   7.260   7.066   7.789 -0.1862  0.0017  0.0560
  111POPC   C1A 1698   7.882   7.298   7.726 -0.1979 -0.0587 -0.1672
  111POPC   D2A 1699   8.133   7.535   7.352 -0.2464 -0.1609  0.0807
  111POPC   C3A 1700   8.676   7.588   7.419  0.3623  0.1513  0.1035
  111POPC   C4A 1701   8.923   7.800   7.565 -0.2776  0.1039 -0.0982
  111POPC   C1B 1702   7.247   6.863   7.404 -0.0965 -0.1035 -0.1100
  111POPC   C2B 1703   7.302   6.665   6.978 -0.0305 -0.0382  0.0796
  111POPC   C3B 1704   7.312   6.562   6.481  0.1646 -0.2315  0.2387
  111POPC   C4B 1705   7.575   6.808   6.130 -0.1525 -0.3473 -0.1263
  112POPC   NC3 1706   8.029   3.618   8.327 -0.1982 -0.2790  0.1077
  112POPC   PO4 1707   8.479   3.551   8.346  0.0138  0.1908 -0.1211
  112POPC   GL1 1708   8.366   3.557   7.891  0.0024 -0.1950  0.1880
  112POPC   GL2 1709   8.454   3.856   7.728  0.1305  0.1472  0.3201
  112POPC   C1A 1710   8.279   3.492   7.416 -0.0387 -0.1733 -0.0375
  112POPC   D2A 1711   8.197   3.159   7.195  0.0383  0.0526  0.3331
  112POPC   C3A 1712   8.482   2.935   6.899 -0.1552 -0.3242  0.0289
  112POPC   C4A 1713   8.789   2.560   6.778  0.0530 -0.2274  0.4719
  112POPC   C1B 1714   8.762   4.027   7.411 -0.3665 -0.1268 -0.0496
  112POPC   C2B 1715   8.947   4.059   7.012  0.0309  0.0427 -0.0189
  112POPC   C3B 1716   8.759   4.023   6.571  0.0581  0.0654  0.1170
  112POPC   C4B 1717   8.416   3.794   6.446  0.0945  0.0335 -0.0007
  113POPC   NC3 1718   5.610   0.985   8.247 -0.0818 -0.2638  0.1507
  113POPC   PO4 1719   5.578   1.365   8.023 -0.2863  0.2416 -0.1335
  113POPC   GL1 1720   5.578   1.284   7.607  0.0463 -0.1889  0.0686
  113POPC   GL2 1721   5.647   0.956   7.639 -0.2791 -0.1086  0.0733
  113POPC   C1A 1722   5.758   1.453   7.245 -0.1992  0.3855  0.0040
  113POPC   D2A 1723   5.895   1.348   6.820  0.0323  0.0935  0.0095
  113POPC   C3A 1724   5.531   1.470   6.548  0.1612  0.1561  0.2688
  113POPC   C4A 1725   5.205   1.828   6.460 -0.4599 -0.0328  0.0891
  113POPC   C1B 1726   5.626   0.946   7.141  0.3415 -0.2667  0.0783
  113POPC   C2B 1727   5.393   1.059   6.790  0.2963 -0.2161 -0.2470
  113POPC   C3B 1728   5.050   1.025   6.550 -0.1323  0.0891 -0.1144
  113POPC   C4B 1729   4.781   0.767   6.386  0.1416 -0.0569  0.0452
  114POPC   NC3 1730   1.399   4.970   8.625  0.1659  0.1560 -0.1784
  114POPC   PO4 1731   1.026   4.851   8.304  0.0924  0.1829  0.0169
  114POPC   GL1 1732   0.920   4.963   7.949 -0.0476 -0.2599  0.2721
  114POPC   GL2 1733   0.588   4.907   7.795  0.0021  0.2037  0.0628
  114POPC   C1A 1734   1.070   5.157   7.619  0.0710  0.0452 -0.2817
  114POPC   D2A 1735   1.175   5.302   7.209  0.1770 -0.1973 -0.2148
  114POPC   C3A 1736   1.408   4.964   6.868  0.0197  0.0894 -0.1001
  114POPC   C4A 1737   1.318   4.714   6.525 -0.3471 -0.1012 -0.1808
  114POPC   C1B 1738   0.655   4.806   7.389 -0.1081  0.0237  0.0579
  114POPC   C2B 1739   0.910   4.904   7.029 -0.0709 -0.1189  0.1902
  114POPC   C3B 1740   1.007   5.198   6.693 -0.1057  0.0159  0.1246
  114POPC   C4B 1741   0.884   5.530   6.324  0.2666 -0.0539 -0.2694
  115POPC   NC3 1742   3.491   6.902   8.360 -0.3025 -0.3074  0.0196
  115POPC   PO4 1743   3.756   7.268   8.213 -0.1988 -0.1113 -0.1352
  115POPC   GL1 1744   3.636   7.340   7.799  0.2730 -0.0280 -0.0629
  115POPC   GL2 1745   3.520   7.565   7.708  0.1669  0.0319 -0.1120
  115POPC   C1A 1746   3.551   7.340   7.238  0.2348  0.0790 -0.0936
  115POPC   D2A 1747   3.299   7.489   6.881 -0.1088 -0.0351 -0.0110
  115POPC   C3A 1748   3.528   7.555   6.543  0.2379  0.0271  0.2513
  115POPC   C4A 1749   3.578   7.870   6.250  0.0032  0.0401 -0.0616
  115POPC   C1B 1750   3.610   7.941   7.502 -0.0179 -0.2947  0.2098
  115POPC   C2B 1751   3.847   8.079   7.192 -0.2501  0.2161  0.4122
  115POPC   C3B 1752   4.233   8.254   7.022 -0.0876  0.0138  0.3374
  115POPC   C4B 1753   4.364   8.673   6.888  0.0911  0.2921  0.1634
  116POPC   NC3 1754   1.568   6.981   8.651  0.0234  0.1606 -0.1500
  116POPC   PO4 1755   1.967   6.715   8.532  0.2396 -0.1312 -0.0573
  116POPC   GL1 1756   2.244   6.596   8.117 -0.3203  0.4506  0.2933
  116POPC   GL2 1757   2.223   6.774   7.805  0.1864  0.1347 -0.3322
  116POPC   C1A 1758   2.158   6.282   7.760 -0.1585 -0.2909  0.1011
  116POPC   D2A 1759   2.262   5.916   7.418 -0.3067  0.3899 -0.1205
  116POPC   C3A 1760   2.299   6.042   7.063 -0.1386 -0.1676 -0.2960
  116POPC   C4A 1761   2.585   6.279   6.881 -0.1520 -0.1550 -0.0797
  116POPC   C1B 1762   1.962   6.802   7.487  0.3504 -0.0961 -0.1349
  116POPC   C2B 1763   1.932   6.702   7.071 -0.1393 -0.2297 -0.3206
  116POPC   C3B 1764   1.752   6.763   6.651 -0.0896 -0.2496 -0.1329
  116POPC   C4B 1765   2.040   6.829   6.265  0.0645 -0.1892 -0.0987
  117POPC   NC3 1766   5.653   0.148   8.111 -0.0525 -0.0581 -0.0139
  117POPC   PO4 1767   6.065   0.275   8.342 -0.5204 -0.0506  0.0189
  117POPC   GL1 1768   6.140   0.309   7.929  0.1646  0.1417  0.0782
  117POPC   GL2 1769   5.917   0.559   7.962 -0.0377  0.0660 -0.3117
  117POPC   C1A 1770   6.474   0.500   7.604 -0.0783 -0.3983 -0.1835
  117POPC   D2A 1771   6.468   0.598   7.106 -0.2413  0.3082 -0.1209
  117POPC   C3A 1772   6.540   0.654   6.699  0.3841 -0.2416  0.1050
  117POPC   C4A 1773   6.879   0.736   6.446 -0.1723  0.2391  0.3354
  117POPC   C1B 1774   6.026   0.684   7.598  0.0404 -0.2954 -0.1787
  117POPC   C2B 1775   5.965   0.570   7.242  0.1177 -0.1487  0.1957
  117POPC   C3B 1776   6.107   0.330   6.941  0.0050 -0.0026 -0.1013
  117POPC   C4B 1777   6.130   0.445   6.467 -0.1097  0.2242  0.0372
  118POPC   NC3 1778   3.454   9.695   8.737  0.1031 -0.2766 -0.0665
  118POPC   PO4 1779   3.243   9.946   8.412 -0.2287 -0.1523 -0.0982
  118POPC   GL1 1780   3.246   9.887   7.954  0.0978  0.2272  0.3327
  118POPC   GL2 1781   2.960   9.691   7.886  0.3006 -0.2774 -0.1931
  118POPC   C1A 1782   3.429   9.753   7.571 -0.1361 -0.2624 -0.0253
  118POPC   D2A 1783   3.185   9.791   7.205 -0.1946  0.3528 -0.1739
  118POPC   C3A 1784   3.381   9.621   6.811  0.2170 -0.0358  0.1517
  118POPC   C4A 1785   3.615   9.757   6.410 -0.0342  0.3195  0.1740
  118POPC   C1B 1786   2.810   9.834   7.507  0.1328 -0.2791  0.4702
  118POPC   C2B 1787   2.747   9.615   7.114  0.2183 -0.2172  0.3139
  118POPC   C3B 1788   2.594   9.437   6.802  0.1544 -0.1839 -0.3955
  118POPC   C4B 1789   2.809   9.585   6.437  0.1568 -0.0892  0.1686
  119POPC   NC3 1790   2.261   0.401   8.363 -0.1200 -0.0596 -0.0733
  119POPC   PO4 1791   2.559   0.730   8.525  0.0568 -0.2379  0.0315
  119POPC   GL1 1792   2.456   0.729   8.086  0.0194 -0.0384  0.0725
  119POPC   GL2 1793   2.704   0.606   7.790 -0.0423  0.0387 -0.2812
  119POPC   C1A 1794   2.208   0.724   7.698  0.3979 -0.2238 -0.2238
  119POPC   D2A 1795   1.845   0.490   7.366  0.0295  0.0115 -0.0504
  119POPC   C3A 1796   1.480   0.779   7.087  0.0551 -0.2637 -0.1428
  119POPC   C4A 1797   1.090   0.936   6.857 -0.0759 -0.1749  0.0687
  119POPC   C1B 1798   2.757   0.979   7.492  0.1620  0.1592  0.2065
  119POPC   C2B 1799   2.879   1.362   7.255 -0.0101 -0.0792  0.1264
  119POPC   C3B 1800   2.939   1.724   6.967 -0.1947  0.1273 -0.3172
  119POPC   C4B 1801   2.854   2.159   7.150  0.0666 -0.3773 -0.0263
  120POPC   NC3 1802   2.188   1.571   8.839  0.0007  0.0748 -0.3076
  120POPC   PO4 1803   2.185   1.579   8.494 -0.2259  0.1222  0.1416
  120POPC   GL1 1804   1.778   1.701   8.207 -0.0268 -0.0339 -0.3006
  120POPC   GL2 1805   1.976   1.584   7.954 -0.1415  0.2681 -0.4063
  120POPC   C1A 1806   1.587   1.998   7.814  0.5558  0.3588 -0.0643
  120POPC   D2A 1807   1.412   2.139   7.344 -0.0772  0.3161  0.1532
  120POPC   C3A 1808   1.585   2.178   6.956 -0.3769 -0.0843 -0.1130
  120POPC   C4A 1809   1.828   2.548   6.880  0.0220  0.2009  0.0851
  120POPC   C1B 1810   1.841   1.220   7.795  0.2279  0.0937 -0.0295
  120POPC   C2B 1811   1.942   1.008   7.371 -0.0538 -0.2404 -0.0877
  120POPC   C3B 1812   2.201   1.129   7.007 -0.2568 -0.0476 -0.0407
  120POPC   C4B 1813   2.563   1.294   6.891 -0.0133  0.0445 -0.2864
  121POPC   NC3 1814   1.962   2.825   8.508 -0.2611  0.0089  0.2467
  121POPC   PO4 1815   1.833   2.346   8.620  0.0310 -0.1965  0.0306
  121POPC   GL1 1816   1.761   2.300   8.124  0.2343  0.0487 -0.1569
  121POPC   GL2 1817   1.513   2.526   8.124 -0.1308 -0.3321  0.0880
  121POPC   C1A 1818   2.043   2.174   7.745  0.1239  0.2280 -0.2339
  121POPC   D2A 1819   2.281   1.851   7.714  0.2824  0.2046 -0.1444
  121POPC   C3A 1820   2.732   1.823   7.569  0.1292  0.1671 -0.1255
  121POPC   C4A 1821   2.843   1.478   7.770  0.2297 -0.0229 -0.0770
  121POPC   C1B 1822   1.692   2.532   7.691 -0.3075 -0.1144 -0.0204
  121POPC   C2B 1823   1.942   2.350   7.281  0.3880 -0.1322  0.2529
  121POPC   C3B 1824   1.970   1.848   7.080  0.1353  0.0981 -0.0732
  121POPC   C4B 1825   2.080   1.532   6.822  0.4590  0.4383  0.0497
  122POPC   NC3 1826   4.689   8.790   8.783 -0.0455 -0.0317  0.1480
  122POPC   PO4 1827   5.038   9.039   8.537 -0.4438  0.0071  0.1285
  122POPC   GL1 1828   5.017   8.784   8.051  0.3183  0.0627  0.1589
  122POPC   GL2 1829   5.292   8.605   8.130  0.3471 -0.0295  0.2280
  122POPC   C1A 1830   5.109   8.707   7.609  0.3097 -0.0418  0.1662
  122POPC   D2A 1831   5.062   9.032   7.325  0.3059 -0.0508 -0.1730
  122POPC   C3A 1832   5.317   8.996   6.937  0.1657 -0.0844 -0.0690
  122POPC   C4A 1833   5.439   8.987   6.502 -0.1414 -0.0224  0.0593
  122POPC   C1B 1834   5.350   8.309   7.842 -0.1180  0.3116  0.1570
  122POPC   C2B 1835   5.280   8.083   7.458  0.0326 -0.2919  0.0019
  122POPC   C3B 1836   5.301   8.123   7.076  0.3539 -0.0848 -0.3797
  122POPC   C4B 1837   5.583   8.080   6.735 -0.2047  0.3903  0.2345
  123POPC   NC3 1838   3.571   3.186   8.474  0.2756  0.2543  0.1064
  123POPC   PO4 1839   3.098   2.978   8.608 -0.0196 -0.2160  0.0712
  123POPC   GL1 1840   3.031   2.988   8.189  0.0336  0.1738 -0.2961
  123POPC   GL2 1841   2.848   3.212   8.103  0.0633 -0.1389 -0.1230
  123POPC   C1A 1842   3.310   2.900   7.796  0.1303 -0.1453 -0.0374
  123POPC   D2A 1843   3.307   2.756   7.350 -0.2886 -0.2702  0.1070
  123POPC   C3A 1844   3.478   2.505   6.989 -0.1236  0.1793  0.1861
  123POPC   C4A 1845   3.782   2.499   6.669 -0.1013 -0.1834  0.2569
  123POPC   C1B 1846   3.122   3.356   7.779  0.1908 -0.1110  0.0165
  123POPC   C2B 1847   3.271   3.260   7.369 -0.0734  0.4554  0.0449
  123POPC   C3B 1848   3.112   3.218   6.951 -0.1487  0.1650 -0.0928
  123POPC   C4B 1849   3.377   3.164   6.557 -0.0167  0.0434 -0.3435
  124POPC   NC3 1850   9.293   2.563   8.278  0.2108  0.1924  0.0622
  124POPC   PO4 1851   9.687   2.929   8.392 -0.0598 -0.0400  0.1381
  124POPC   GL1 1852   9.802   3.058   7.981  0.2078  0.2839  0.0385
  124POPC   GL2 1853   9.500   2.882   7.784  0.0619  0.0005  0.2238
  124POPC   C1A 1854   9.964   2.877   7.549  0.0746  0.2943 -0.3695
  124POPC   D2A 1855   9.854   2.627   7.253  0.1634 -0.3855  0.1133
  124POPC   C3A 1856   9.799   2.621   6.825  0.1910 -0.1368 -0.1138
  124POPC   C4A 1857  10.041   2.641   6.418  0.4219 -0.1120  0.0797
  124POPC   C1B 1858   9.348   2.840   7.426  0.3526 -0.3682 -0.0204
  124POPC   C2B 1859   9.361   2.659   7.044 -0.0628 -0.1075 -0.0298
  124POPC   C3B 1860   9.336   2.828   6.636  0.1693 -0.2701 -0.1696
  124POPC   C4B 1861   9.605   2.759   6.184  0.1421  0.0529  0.1856
  125POPC   NC3 1862   0.741   6.125   8.096  0.1905 -0.3256 -0.2274
  125POPC   PO4 1863   0.280   6.250   8.088  0.2002 -0.0752 -0.0721
  125POPC   GL1 1864   0.315   6.205   7.673 -0.3254 -0.0004  0.0412
  125POPC   GL2 1865   0.726   6.282   7.638 -0.3203 -0.4573  0.1648
  125POPC   C1A 1866   0.317   6.317   7.156 -0.1555  0.0809 -0.0673
  125POPC   D2A 1867   0.613   6.135   6.833 -0.0362  0.1323  0.5077
  125POPC   C3A 1868   0.984   6.427   6.687  0.1791  0.1171  0.1057
  125POPC   C4A 1869   1.227   6.701   6.495  0.1092  0.0747  0.1879
  125POPC   C1B 1870   1.147   6.389   7.527  0.3399  0.0236  0.0971
  125POPC   C2B 1871   1.351   6.467   7.082  0.0353 -0.1961  0.1019
  125POPC   C3B 1872   1.581   6.261   6.768 -0.2436  0.1480 -0.1199
  125POPC   C4B 1873   1.763   6.053   6.442 -0.1866 -0.0133  0.1540
  126POPC   NC3 1874   3.468   1.277   9.030  0.0359  0.1510  0.1182
  126POPC   PO4 1875   3.772   0.912   8.848 -0.0894  0.0052  0.1042
  126POPC   GL1 1876   3.916   0.924   8.248  0.1251 -0.0450 -0.1196
  126POPC   GL2 1877   4.006   0.617   8.085 -0.3797  0.0361 -0.1063
  126POPC   C1A 1878   3.855   0.951   7.808  0.0927 -0.0581 -0.1644
  126POPC   D2A 1879   3.924   0.673   7.535  0.2076 -0.0848 -0.1975
  126POPC   C3A 1880   4.335   0.580   7.631  0.3510  0.2499  0.0210
  126POPC   C4A 1881   4.699   0.526   7.768  0.0664 -0.0099  0.2266
  126POPC   C1B 1882   3.552   0.567   7.905 -0.1186  0.1250 -0.1390
  126POPC   C2B 1883   3.205   0.557   7.541  0.3601  0.2198 -0.1115
  126POPC   C3B 1884   2.762   0.521   7.227 -0.0728  0.2024 -0.0233
  126POPC   C4B 1885   2.361   0.697   7.207 -0.2521 -0.3473  0.0570
  127POPC   NC3 1886   3.539   4.722   8.561  0.0770 -0.0352  0.2259
  127POPC   PO4 1887   3.399   5.143   8.316 -0.2501  0.0518  0.0938
  127POPC   GL1 1888   3.284   4.894   8.165 -0.0443  0.1545 -0.2990
  127POPC   GL2 1889   3.408   4.927   7.844  0.2920  0.0986  0.2928
  127POPC   C1A 1890   2.881   4.980   7.876  0.1772  0.0032 -0.0674
  127POPC   D2A 1891   2.686   5.212   7.518 -0.1485 -0.0004  0.0071
  127POPC   C3A 1892   2.654   5.168   7.100 -0.2907  0.4965  0.1432
  127POPC   C4A 1893   2.836   5.255   6.704 -0.1029 -0.1444 -0.2595
  127POPC   C1B 1894   3.545   4.901   7.430  0.0634 -0.1493 -0.1943
  127POPC   C2B 1895   3.449   4.609   7.282  0.0794 -0.3807  0.0817
  127POPC   C3B 1896   3.228   4.265   7.299 -0.1916  0.0465 -0.1137
  127POPC   C4B 1897   2.857   4.311   7.229 -0.2257 -0.2855  0.0078
  128POPC   NC3 1898   2.239   8.272   8.324 -0.0629 -0.0666 -0.2438
  128POPC   PO4 1899   1.829   8.150   8.352  0.0791 -0.0499 -0.3734
  128POPC   GL1 1900   1.713   8.287   8.087  0.0140  0.0961  0.0743
  128POPC   GL2 1901   1.864   8.069   7.850 -0.2441  0.3251 -0.3556
  128POPC   C1A 1902   1.508   8.505   7.751 -0.0960 -0.0119  0.3758
  128POPC   D2A 1903   1.598   8.726   7.328 -0.1723 -0.4608 -0.3421
  128POPC   C3A 1904   1.328   8.934   7.056  0.0539  0.1080 -0.6097
  128POPC   C4A 1905   1.094   9.038   6.648 -0.1491  0.2376  0.3261
  128POPC   C1B 1906   1.756   8.069   7.466 -0.2610 -0.1059  0.0666
  128POPC   C2B 1907   1.612   8.079   7.023  0.0601 -0.2752 -0.0867
  128POPC   C3B 1908   1.490   8.198   6.578  0.2177  0.0032  0.2492
  128POPC   C4B 1909   1.307   8.101   6.165 -0.1969 -0.3509 -0.0499
  129POPC   NC3 1910   6.872   4.644   8.593  0.0840  0.2595  0.4458
  129POPC   PO4 1911   6.637   4.990   8.340  0.1698 -0.0091  0.0404
  129POPC   GL1 1912   6.350   5.145   8.034  0.2047  0.0079 -0.1045
  129POPC   GL2 1913   6.101   4.989   7.784 -0.1646 -0.0622 -0.2948
  129POPC   C1A 1914   6.460   5.353   7.740  0.1596  0.0272 -0.1160
  129POPC   D2A 1915   6.654   5.429   7.372 -0.0588 -0.0238  0.0432
  129POPC   C3A 1916   6.532   5.093   7.019 -0.3451 -0.1599  0.2563
  129POPC   C4A 1917   6.324   4.731   6.783  0.0512 -0.3094  0.1031
  129POPC   C1B 1918   6.504   4.916   7.581  0.0570 -0.2235  0.0568
  129POPC   C2B 1919   6.440   4.599   7.309  0.3583  0.1717 -0.5395
  129POPC   C3B 1920   6.179   4.271   7.152  0.0716  0.1660  0.2468
  129POPC   C4B 1921   6.112   4.127   6.728  0.0386 -0.0553 -0.4426
  130POPC   NC3 1922   5.448   2.212   8.642  0.1147 -0.0839 -0.4689
  130POPC   PO4 1923   5.166   2.027   8.210  0.1658 -0.0000 -0.2042
  130POPC   GL1 1924   5.169   1.966   7.849 -0.5065  0.0267  0.1185
  130POPC   GL2 1925   5.391   1.761   7.761  0.1451 -0.1466 -0.2418
  130POPC   C1A 1926   5.048   1.743   7.447 -0.1285  0.1349 -0.1721
  130POPC   D2A 1927   4.638   1.863   7.163 -0.3636  0.2554  0.2260
  130POPC   C3A 1928   4.791   2.028   6.702  0.2544  0.0324  0.1421
  130POPC   C4A 1929   4.684   1.920   6.325  0.0547  0.0547 -0.1699
  130POPC   C1B 1930   5.502   1.811   7.402  0.2698  0.2330 -0.2283
  130POPC   C2B 1931   5.649   1.885   7.017 -0.1895  0.0588 -0.0251
  130POPC   C3B 1932   5.483   2.165   6.721  0.0246 -0.1562 -0.1770
  130POPC   C4B 1933   5.223   2.432   6.551 -0.1065  0.0108  0.0107
  131POPC   NC3 1934   5.299   4.632   9.105 -0.1254 -0.2033  0.1839
  131POPC   PO4 1935   5.608   4.505   8.609 -0.1404  0.1060  0.1851
  131POPC   GL1 1936   5.619   4.670   8.169 -0.0014  0.0557  0.0085
  131POPC   GL2 1937   5.739   4.445   8.019 -0.0662  0.0315 -0.0814
  131POPC   C1A 1938   5.604   4.914   7.744  0.2389 -0.1004  0.0132
  131POPC   D2A 1939   5.473   5.084   7.289 -0.0760  0.3928  0.3080
  131POPC   C3A 1940   5.590   5.427   7.144  0.2354 -0.1841  0.0961
  131POPC   C4A 1941   6.005   5.661   7.231  0.3339  0.2227  0.2613
  131POPC   C1B 1942   5.477   4.351   7.723 -0.4929 -0.1703 -0.2662
  131POPC   C2B 1943   5.456   4.246   7.321  0.1633 -0.1383  0.1787
  131POPC   C3B 1944   5.593   4.187   6.855 -0.1683 -0.2482 -0.1261
  131POPC   C4B 1945   5.696   3.863   6.507 -0.1911 -0.2437  0.0705
  132POPC   NC3 1946   8.678   9.050   9.358 -0.0103 -0.4285 -0.1966
  132POPC   PO4 1947   8.889   9.483   9.421 -0.0272  0.0240  0.0852
  132POPC   GL1 1948   9.182   9.685   9.173  0.2026  0.0162 -0.4221
  132POPC   GL2 1949   9.185  10.092   9.134 -0.3584  0.0943  0.1851
  132POPC   C1A 1950   9.430   9.783   8.872  0.0464  0.0655 -0.0822
  132POPC   D2A 1951   9.576   9.783   8.501 -0.1225 -0.1262 -0.3209
  132POPC   C3A 1952   9.929   9.955   8.241 -0.1918  0.1637  0.3997
  132POPC   C4A 1953  10.008  10.113   7.805 -0.2056  0.2634  0.2046
  132POPC   C1B 1954   8.887   9.984   8.795 -0.3397  0.0415 -0.2048
  132POPC   C2B 1955   8.941   9.605   8.734  0.2943 -0.1274  0.1555
  132POPC   C3B 1956   9.013   9.410   8.275  0.1173 -0.0312  0.0454
  132POPC   C4B 1957   9.342   9.254   8.047 -0.0831 -0.2408  0.1629
  133POPC   NC3 1958   2.416   6.767   8.733  0.0070  0.1534  0.2932
  133POPC   PO4 1959   2.554   6.882   8.408 -0.0950  0.0368 -0.0584
  133POPC   GL1 1960   2.736   6.755   8.070 -0.0717  0.1081  0.0991
  133POPC   GL2 1961   3.073   6.976   7.968  0.1299  0.1797  0.0021
  133POPC   C1A 1962   2.886   6.389   7.812  0.3263 -0.0037 -0.4117
  133POPC   D2A 1963   2.698   6.229   7.392  0.0473  0.0274  0.1424
  133POPC   C3A 1964   2.545   6.584   7.346 -0.2177  0.1283  0.0449
  133POPC   C4A 1965   2.749   6.917   7.576  0.0645  0.3251  0.0087
  133POPC   C1B 1966   3.304   6.943   7.582 -0.0398  0.1031  0.0746
  133POPC   C2B 1967   3.488   6.845   7.219 -0.0726 -0.1761  0.0727
  133POPC   C3B 1968   3.856   6.982   6.853 -0.0681  0.1549 -0.2182
  133POPC   C4B 1969   3.926   6.989   6.452  0.2427  0.3131  0.2582
  134POPC   NC3 1970   2.085   5.778   8.567  0.0321  0.1319 -0.2947
  134POPC   PO4 1971   2.301   5.419   8.350  0.5001  0.0232  0.0573
  134POPC   GL1 1972   2.387   5.398   7.874  0.0536  0.0480 -0.0283
  134POPC   GL2 1973   2.675   5.494   7.869 -0.2484 -0.0228  0.4827
  134POPC   C1A 1974   2.217   5.397   7.486  0.1665 -0.0285  0.0434
  134POPC   D2A 1975   2.260   5.553   7.099 -0.0173 -0.1466 -0.0188
  134POPC   C3A 1976   2.037   5.726   6.857 -0.0309  0.1137  0.3375
  134POPC   C4A 1977   1.642   5.759   6.776 -0.0258 -0.0011 -0.2825
  134POPC   C1B 1978   2.768   5.702   7.487 -0.0789  0.1124  0.0883
  134POPC   C2B 1979   2.752   5.710   7.057  0.0338 -0.1974  0.1186
  134POPC   C3B 1980   2.542   5.653   6.712 -0.1682 -0.1573  0.0813
  134POPC   C4B 1981   2.442   5.951   6.559 -0.1155  0.3924 -0.1990
  135POPC   NC3 1982   1.469   8.497   8.497 -0.0855  0.1722  0.1301
  135POPC   PO4 1983   1.086   8.825   8.490 -0.0511  0.2342 -0.0108
  135POPC   GL1 1984   1.012   8.451   8.182 -0.3625  0.3401  0.0185
  135POPC   GL2 1985   1.245   8.276   8.087 -0.0739 -0.1153  0.3599
  135POPC   C1A 1986   0.893   8.576   7.761 -0.2456  0.1075 -0.0387
  135POPC   D2A 1987   0.946   8.655   7.313 -0.1537 -0.0479  0.2999
  135POPC   C3A 1988   0.857   8.704   6.928  0.1108 -0.0142 -0.0012
  135POPC   C4A 1989   0.682   8.864   6.533  0.2663  0.1240 -0.1050
  135POPC   C1B 1990   1.186   8.121   7.705  0.1336 -0.1338  0.0525
  135POPC   C2B 1991   1.303   7.913   7.385 -0.1460 -0.0727 -0.1681
  135POPC   C3B 1992   1.225   7.695   6.977  0.1148 -0.3857  0.2263
  135POPC   C4B 1993   1.079   7.865   6.561  0.4045  0.2011 -0.3751
  136POPC   NC3 1994   7.483   5.152   8.045 -0.3264 -0.1655  0.1761
  136POPC   PO4 1995   7.764   5.570   8.027 -0.0334  0.0964  0.0112
  136POPC   GL1 1996   7.760   5.458   7.623 -0.0805 -0.1772 -0.0892
  136POPC   GL2 1997   7.731   5.113   7.617 -0.0533 -0.0936  0.0251
  136POPC   C1A 1998   7.885   5.404   7.195 -0.0982  0.0117  0.1784
  136POPC   D2A 1999   8.019   5.389   6.905 -0.4012  0.0297 -0.2517
  136POPC   C3A 2000   8.133   5.667   6.666  0.2149  0.1986  0.0185
  136POPC   C4A 2001   8.520   5.749   6.626 -0.1450  0.0866 -0.1619
  136POPC   C1B 2002   7.433   4.836   7.447  0.0937 -0.0848 -0.3157
  136POPC   C2B 2003   7.394   4.546   7.019 -0.0259 -0.1812 -0.0529
  136POPC   C3B 2004   7.299   4.676   6.630  0.0636 -0.2070 -0.0492
  136POPC   C4B 2005   7.590   4.955   6.369 -0.3325  0.1749 -0.0419
  137POPC   NC3 2006   1.995   4.641   8.374 -0.2828  0.1856 -0.0082
  137POPC   PO4 2007   1.627   4.744   8.286  0.0605  0.0505  0.0819
  137POPC   GL1 2008   1.651   4.699   7.935 -0.0478  0.1533 -0.1626
  137POPC   GL2 2009   1.353   4.742   7.796 -0.0842  0.1340 -0.0718
  137POPC   C1A 2010   1.802   4.486   7.535 -0.0980 -0.2848 -0.0200
  137POPC   D2A 2011   1.612   4.384   7.305 -0.0830  0.1712  0.1559
  137POPC   C3A 2012   1.679   4.430   6.891 -0.1112  0.2512  0.2216
  137POPC   C4A 2013   1.790   4.246   6.579  0.1933 -0.2275 -0.0243
  137POPC   C1B 2014   1.480   4.887   7.370 -0.1822 -0.1769  0.0888
  137POPC   C2B 2015   1.859   4.866   7.184 -0.1826  0.1718  0.0594
  137POPC   C3B 2016   2.213   5.053   7.065  0.2688 -0.0594  0.1290
  137POPC   C4B 2017   2.335   5.194   6.699 -0.0224 -0.0259 -0.2796
  138POPC   NC3 2018   2.576   9.113   8.526 -0.2075  0.1033 -0.1240
  138POPC   PO4 2019   2.336   8.779   8.332 -0.1304 -0.0155 -0.2081
  138POPC   GL1 2020   2.230   8.581   7.924  0.2899  0.1312  0.3012
  138POPC   GL2 2021   2.463   8.417   7.763 -0.2265 -0.0273  0.2378
  138POPC   C1A 2022   1.970   8.544   7.562  0.1914  0.0604  0.0011
  138POPC   D2A 2023   2.065   8.393   7.163  0.0812  0.2026  0.3572
  138POPC   C3A 2024   1.806   8.617   6.854 -0.1097  0.0880 -0.3137
  138POPC   C4A 2025   1.470   8.650   6.696 -0.3029 -0.3039  0.0423
  138POPC   C1B 2026   2.390   8.138   7.436  0.6443  0.1215 -0.0493
  138POPC   C2B 2027   2.573   8.172   7.017 -0.0268 -0.0079 -0.0192
  138POPC   C3B 2028   2.691   8.167   6.592 -0.3720  0.1834 -0.1711
  138POPC   C4B 2029   2.455   8.263   6.294 -0.0965 -0.0766  0.2151
  139POPC   NC3 2030   4.266   1.274   8.343 -0.0674 -0.4043 -0.2636
  139POPC   PO4 2031   4.732   1.162   8.431  0.0626  0.0299  0.0541
  139POPC   GL1 2032   4.633   1.269   8.003 -0.4858  0.0048 -0.3536
  139POPC   GL2 2033   4.632   1.454   7.922  0.0252  0.3653  0.1908
  139POPC   C1A 2034   4.534   1.038   7.679 -0.1198  0.4876  0.2153
  139POPC   D2A 2035   4.261   0.978   7.383 -0.1878  0.0082 -0.1289
  139POPC   C3A 2036   4.209   1.169   7.029 -0.2725  0.0115  0.0662
  139POPC   C4A 2037   3.920   1.367   6.884  0.1646 -0.1090 -0.0790
  139POPC   C1B 2038   4.625   1.378   7.361 -0.3698 -0.1130  0.1500
  139POPC   C2B 2039   4.683   1.131   6.892  0.2521  0.0215 -0.3439
  139POPC   C3B 2040   4.448   0.780   6.745 -0.1885  0.1559  0.1523
  139POPC   C4B 2041   4.394   0.381   6.687 -0.0079  0.0449 -0.2242
  140POPC   NC3 2042   2.958   0.983   8.709 -0.2334  0.0605 -0.1561
  140POPC   PO4 2043   3.354   1.237   8.498  0.0790  0.3794 -0.1229
  140POPC   GL1 2044   3.418   1.094   8.059 -0.3334  0.3628 -0.1175
  140POPC   GL2 2045   3.187   0.939   7.818  0.1016  0.3495  0.1423
  140POPC   C1A 2046   3.345   1.380   7.704  0.0293 -0.0137  0.3418
  140POPC   D2A 2047   3.303   1.709   7.448 -0.0129 -0.0606 -0.2299
  140POPC   C3A 2048   3.496   1.554   7.075  0.0673  0.0689  0.1851
  140POPC   C4A 2049   3.441   1.704   6.619 -0.1025  0.1279  0.0181
  140POPC   C1B 2050   3.290   0.985   7.391  0.0152  0.1196  0.2690
  140POPC   C2B 2051   3.141   1.118   6.952 -0.0385  0.1012  0.0857
  140POPC   C3B 2052   3.339   1.105   6.574 -0.0630  0.1096  0.0137
  140POPC   C4B 2053   3.072   0.726   6.427  0.3648 -0.1692 -0.0314
  141POPC   NC3 2054   1.493   3.236   8.945  0.0500 -0.1035  0.1383
  141POPC   PO4 2055   1.506   2.966   8.448 -0.1264  0.0642 -0.1070
  141POPC   GL1 2056   1.298   3.069   8.093 -0.1886  0.2319  0.0306
  141POPC   GL2 2057   0.979   3.058   7.933 -0.1420  0.0211 -0.0144
  141POPC   C1A 2058   1.366   2.916   7.547  0.0038 -0.0621 -0.4539
  141POPC   D2A 2059   1.413   2.678   7.143  0.2303 -0.0228 -0.0669
  141POPC   C3A 2060   1.119   2.303   7.044  0.2975 -0.0583 -0.2940
  141POPC   C4A 2061   1.134   2.064   6.756  0.2331 -0.2770  0.1578
  141POPC   C1B 2062   0.853   2.818   7.664  0.4465 -0.1556 -0.1944
  141POPC   C2B 2063   0.709   2.614   7.209  0.0737 -0.0843 -0.1743
  141POPC   C3B 2064   0.597   2.371   6.938 -0.1365 -0.3633 -0.0325
  141POPC   C4B 2065   0.372   2.196   6.621 -0.0637 -0.1390  0.1282
  142POPC   NC3 2066   7.306   2.969   8.353  0.0843  0.0393 -0.0269
  142POPC   PO4 2067   7.125   2.551   8.315  0.1831  0.0692  0.0483
  142POPC   GL1 2068   7.210   2.582   7.937 -0.1168  0.1636  0.2880
  142POPC   GL2 2069   7.394   2.274   8.084  0.2754 -0.0086 -0.1050
  142POPC   C1A 2070   6.990   2.848   7.727  0.1231 -0.1565  0.3923
  142POPC   D2A 2071   6.841   3.071   7.438 -0.2573 -0.4765 -0.0385
  142POPC   C3A 2072   6.699   2.964   7.005 -0.2231 -0.1766 -0.0283
  142POPC   C4A 2073   6.450   3.058   6.690  0.0517 -0.2042  0.1699
  142POPC   C1B 2074   7.587   2.398   7.673 -0.3188 -0.1814 -0.0518
  142POPC   C2B 2075   7.351   2.477   7.371  0.1331  0.1208 -0.0744
  142POPC   C3B 2076   6.985   2.662   7.189 -0.2234 -0.0201 -0.0905
  142POPC   C4B 2077   6.934   2.685   6.667 -0.3731 -0.1406  0.1158
  143POPC   NC3 2078   8.182   8.203   8.998  0.0415 -0.3299 -0.0754
  143POPC   PO4 2079   7.841   8.454   8.728  0.1653 -0.0875  0.1545
  143POPC   GL1 2080   7.931   8.462   8.316  0.2250  0.2354 -0.2088
  143POPC   GL2 2081   7.637   8.519   8.185 -0.1658 -0.1083 -0.1419
  143POPC   C1A 2082   8.199   8.453   7.907  0.3014  0.3779  0.0348
  143POPC   D2A 2083   8.333   8.515   7.449 -0.1672 -0.0316  0.2889
  143POPC   C3A 2084   8.761   8.704   7.521  0.1229  0.1884  0.0852
  143POPC   C4A 2085   9.244   8.678   7.384 -0.1648 -0.0869  0.0766
  143POPC   C1B 2086   7.812   8.811   7.856  0.0012  0.0772  0.4687
  143POPC   C2B 2087   8.150   8.933   7.600 -0.0063 -0.1098  0.0833
  143POPC   C3B 2088   8.484   9.070   7.804  0.0534  0.1081 -0.0014
  143POPC   C4B 2089   8.583   9.138   8.298 -0.2759  0.1303  0.1999
  144POPC   NC3 2090   1.016   1.802   4.358 -0.0013 -0.0162 -0.0410
  144POPC   PO4 2091   1.012   2.249   4.492  0.1720 -0.1297 -0.0702
  144POPC   GL1 2092   0.849   2.215   4.931 -0.0700 -0.1777 -0.2122
  144POPC   GL2 2093   0.957   2.057   5.227  0.5274  0.0208  0.0192
  144POPC   C1A 2094   0.735   2.541   5.320 -0.1566  0.2150  0.2024
  144POPC   D2A 2095   0.601   2.766   5.629 -0.2058  0.1396  0.2815
  144POPC   C3A 2096   0.656   2.482   6.028  0.1533  0.1752  0.1673
  144POPC   C4A 2097   0.829   2.420   6.427 -0.0713 -0.0940 -0.0897
  144POPC   C1B 2098   1.067   1.750   5.337 -0.0633 -0.1573 -0.1551
  144POPC   C2B 2099   1.432   1.516   5.446 -0.2241 -0.3558  0.5609
  144POPC   C3B 2100   1.441   1.104   5.325 -0.1781 -0.0570 -0.1470
  144POPC   C4B 2101   1.344   0.697   5.132 -0.1584 -0.3161  0.1969
  145POPC   NC3 2102   1.141   8.355   3.816 -0.0486  0.0802 -0.0313
  145POPC   PO4 2103   1.482   8.526   4.139  0.0238  0.1889  0.1071
  145POPC   GL1 2104   1.354   8.547   4.555 -0.0674 -0.0135 -0.0684
  145POPC   GL2 2105   1.633   8.562   4.699 -0.1366 -0.1127 -0.0248
  145POPC   C1A 2106   1.074   8.631   4.972 -0.2978  0.1625 -0.2327
  145POPC   D2A 2107   0.981   8.700   5.450  0.0544  0.2439 -0.0928
  145POPC   C3A 2108   0.602   9.021   5.586  0.0651 -0.3919  0.1840
  145POPC   C4A 2109   0.304   9.320   5.453  0.0100 -0.3938  0.2421
  145POPC   C1B 2110   1.533   8.524   5.087 -0.4215  0.3348 -0.0125
  145POPC   C2B 2111   1.463   8.449   5.513  0.1814  0.2538  0.0119
  145POPC   C3B 2112   1.271   8.550   5.851  0.0127 -0.0079  0.0389
  145POPC   C4B 2113   1.259   8.616   6.251  0.0220  0.1402  0.2786
  146POPC   NC3 2114   0.741   2.657   4.634  0.1667 -0.1502  0.4624
  146POPC   PO4 2115   0.347   2.804   4.756  0.0978  0.0502  0.0960
  146POPC   GL1 2116   0.229   3.133   5.039  0.2198  0.3000  0.5397
  146POPC   GL2 2117  -0.091   3.120   5.014  0.1061  0.0148 -0.0116
  146POPC   C1A 2118   0.062   3.196   5.539 -0.2664 -0.1321  0.1542
  146POPC   D2A 2119   0.271   3.045   5.935  0.2143 -0.1040 -0.0300
  146POPC   C3A 2120   0.332   3.408   6.258 -0.2693  0.2036 -0.4863
  146POPC   C4A 2121   0.031   3.697   6.528 -0.2764 -0.2779  0.0656
  146POPC   C1B 2122  -0.140   3.509   5.191  0.4563  0.0439 -0.1930
  146POPC   C2B 2123  -0.366   3.794   5.515 -0.0924  0.0363 -0.1446
  146POPC   C3B 2124  -0.720   3.784   5.691  0.0306  0.2117  0.1642
  146POPC   C4B 2125  -0.952   3.810   5.950 -0.0802 -0.2190 -0.3350
  147POPC   NC3 2126   5.205   9.484   4.447 -0.1352  0.1518 -0.2314
  147POPC   PO4 2127   4.837   9.714   4.544 -0.1265  0.1900 -0.1602
  147POPC   GL1 2128   4.748   9.593   4.971  0.0076 -0.0825  0.0998
  147POPC   GL2 2129   4.459   9.621   5.199 -0.1765  0.1311  0.0103
  147POPC   C1A 2130   4.935   9.946   5.232 -0.3106 -0.0135 -0.1064
  147POPC   D2A 2131   4.918  10.250   5.602  0.0170  0.0853  0.0742
  147POPC   C3A 2132   4.930  10.168   6.023  0.2583 -0.1230 -0.2634
  147POPC   C4A 2133   4.815   9.984   6.371 -0.0517  0.1570  0.1275
  147POPC   C1B 2134   4.204   9.494   5.561 -0.3440  0.2625  0.1278
  147POPC   C2B 2135   4.067   9.804   5.862  0.3299 -0.0926  0.0511
  147POPC   C3B 2136   4.111   9.734   6.366  0.0765  0.1720  0.0042
  147POPC   C4B 2137   4.450   9.555   6.592  0.0195 -0.1812 -0.2382
  148POPC   NC3 2138   8.283   3.285   4.161  0.2729 -0.0936  0.0499
  148POPC   PO4 2139   8.325   3.044   4.516 -0.1157  0.0573  0.1346
  148POPC   GL1 2140   8.227   3.025   4.871 -0.1965  0.0071  0.4373
  148POPC   GL2 2141   8.373   3.291   4.919  0.1778  0.0243 -0.2913
  148POPC   C1A 2142   8.065   3.063   5.297  0.0125 -0.1825 -0.3387
  148POPC   D2A 2143   8.198   3.097   5.695 -0.1794 -0.0743  0.0993
  148POPC   C3A 2144   7.947   2.881   5.930  0.3696 -0.0287 -0.1180
  148POPC   C4A 2145   7.826   2.619   6.325  0.0625 -0.1166 -0.1580
  148POPC   C1B 2146   8.662   3.221   5.108  0.3468  0.0973  0.0930
  148POPC   C2B 2147   8.935   2.875   5.319 -0.4639 -0.0339 -0.1923
  148POPC   C3B 2148   8.815   2.553   5.574  0.0516 -0.0103 -0.0551
  148POPC   C4B 2149   8.555   2.166   5.546  0.1253 -0.0713  0.1114
  149POPC   NC3 2150   8.470   3.767   4.003  0.0436  0.0303  0.0812
  149POPC   PO4 2151   8.834   3.736   4.306  0.1883  0.0457  0.0580
  149POPC   GL1 2152   8.861   3.723   4.758 -0.1199 -0.1855  0.3184
  149POPC   GL2 2153   8.670   4.009   4.919  0.0915 -0.0392 -0.1589
  149POPC   C1A 2154   8.998   3.534   5.192 -0.3169  0.1106  0.0087
  149POPC   D2A 2155   9.217   3.271   5.436 -0.0747  0.2631  0.0867
  149POPC   C3A 2156   9.171   3.368   5.936  0.1442 -0.2356  0.0179
  149POPC   C4A 2157   9.348   3.218   6.307 -0.0338 -0.1016  0.0093
  149POPC   C1B 2158   8.639   3.840   5.287  0.1265  0.1132  0.2912
  149POPC   C2B 2159   8.478   3.484   5.556 -0.2431 -0.2510  0.2557
  149POPC   C3B 2160   8.588   3.299   6.011  0.2058 -0.0409  0.1728
  149POPC   C4B 2161   8.912   3.519   6.402  0.2702  0.0751  0.0564
  150POPC   NC3 2162   8.470   7.725   2.622  0.0565  0.0035  0.2215
  150POPC   PO4 2163   8.418   7.861   3.039 -0.0687  0.3001 -0.0355
  150POPC   GL1 2164   8.443   8.107   3.485  0.1361 -0.3259  0.1924
  150POPC   GL2 2165   8.637   8.438   3.488 -0.1145 -0.0566 -0.2647
  150POPC   C1A 2166   8.418   7.951   3.937 -0.0116  0.0719  0.0521
  150POPC   D2A 2167   8.664   7.912   4.322  0.1285  0.1147  0.1410
  150POPC   C3A 2168   8.581   7.755   4.751 -0.0138 -0.1978  0.1164
  150POPC   C4A 2169   8.860   7.661   5.087  0.6096  0.2752 -0.2338
  150POPC   C1B 2170   8.728   8.877   3.637 -0.0895 -0.1458 -0.1023
  150POPC   C2B 2171   8.405   9.112   3.757  0.3792  0.1692 -0.2929
  150POPC   C3B 2172   7.998   9.137   3.872  0.1060 -0.1305  0.1952
  150POPC   C4B 2173   7.618   9.081   3.921  0.0734 -0.0961 -0.0001
  151POPC   NC3 2174   1.242   0.235   3.690 -0.0843  0.0424  0.0135
  151POPC   PO4 2175   1.055   0.390   4.146 -0.0653  0.0838 -0.1279
  151POPC   GL1 2176   0.887   0.437   4.537  0.1352 -0.1674  0.1884
  151POPC   GL2 2177   1.222   0.423   4.716 -0.1356  0.0709 -0.2815
  151POPC   C1A 2178   0.755   0.333   4.944 -0.2146 -0.2338 -0.0650
  151POPC   D2A 2179   0.805   0.149   5.371 -0.0162 -0.0066  0.0956
  151POPC   C3A 2180   0.795   0.408   5.727 -0.2652  0.3365  0.0284
  151POPC   C4A 2181   1.094   0.545   5.962 -0.1018 -0.4198 -0.2341
  151POPC   C1B 2182   1.231   0.074   5.080  0.3544 -0.0276 -0.5431
  151POPC   C2B 2183   1.417  -0.243   5.424 -0.3787 -0.0966 -0.1064
  151POPC   C3B 2184   1.624  -0.175   5.795 -0.2062 -0.1926 -0.1186
  151POPC   C4B 2185   1.606  -0.143   6.317  0.1847 -0.0391 -0.0570
  152POPC   NC3 2186   2.347   2.098   4.815  0.0803 -0.0147 -0.2736
  152POPC   PO4 2187   1.906   2.289   4.968  0.2128  0.1754 -0.0681
  152POPC   GL1 2188   1.857   2.416   5.343  0.1098  0.1219 -0.1739
  152POPC   GL2 2189   2.123   2.258   5.454  0.3129 -0.0120 -0.1405
  152POPC   C1A 2190   1.777   2.589   5.593  0.0980 -0.2157 -0.1084
  152POPC   D2A 2191   2.136   2.875   5.676 -0.1861  0.1676  0.3143
  152POPC   C3A 2192   2.110   2.963   6.028 -0.2064 -0.1799  0.2391
  152POPC   C4A 2193   2.279   3.277   6.325  0.0490 -0.2790 -0.0832
  152POPC   C1B 2194   2.018   2.404   5.964 -0.2595 -0.0333  0.0653
  152POPC   C2B 2195   2.284   2.536   6.241  0.0208 -0.0507 -0.3751
  152POPC   C3B 2196   2.627   2.722   6.513  0.0431  0.1344 -0.2297
  152POPC   C4B 2197   2.576   3.013   6.865 -0.0339 -0.1363  0.1345
  153POPC   NC3 2198   5.174   0.656   4.307  0.1048  0.1405 -0.1767
  153POPC   PO4 2199   5.534   0.372   4.413  0.1194  0.2481  0.2697
  153POPC   GL1 2200   5.424   0.241   4.886  0.3076 -0.0853  0.0279
  153POPC   GL2 2201   5.237  -0.002   4.932  0.0708  0.0927 -0.1516
  153POPC   C1A 2202   5.435   0.205   5.387 -0.2587 -0.0420  0.1866
  153POPC   D2A 2203   5.560  -0.202   5.618  0.1199  0.6883 -0.2709
  153POPC   C3A 2204   5.501  -0.139   6.002 -0.0419 -0.0922  0.0883
  153POPC   C4A 2205   5.179   0.038   6.224  0.1282  0.0905 -0.1164
  153POPC   C1B 2206   5.717  -0.177   5.087 -0.2762 -0.2428 -0.0216
  153POPC   C2B 2207   6.088  -0.061   4.995  0.0309  0.1877 -0.1546
  153POPC   C3B 2208   6.440  -0.021   5.319 -0.0753  0.4025 -0.3038
  153POPC   C4B 2209   6.401   0.122   5.751  0.2318  0.0191 -0.2842
  154POPC   NC3 2210   7.184   4.956   4.608 -0.1103  0.0164 -0.3132
  154POPC   PO4 2211   7.112   5.381   4.711 -0.1090 -0.0678 -0.3410
  154POPC   GL1 2212   7.048   5.444   5.085 -0.0631 -0.0799  0.2712
  154POPC   GL2 2213   6.710   5.549   5.058 -0.1411  0.0747  0.2630
  154POPC   C1A 2214   7.205   5.719   5.386 -0.0550  0.3772  0.1828
  154POPC   D2A 2215   7.362   5.800   5.730 -0.0655  0.0608 -0.0157
  154POPC   C3A 2216   7.100   5.951   6.009  0.0632 -0.1598 -0.2341
  154POPC   C4A 2217   6.947   6.232   6.312 -0.0397 -0.2481 -0.4184
  154POPC   C1B 2218   6.614   5.203   5.284  0.1682  0.0366  0.0870
  154POPC   C2B 2219   6.493   5.116   5.747 -0.2310 -0.0085  0.1068
  154POPC   C3B 2220   6.511   4.776   6.090  0.0823  0.1282  0.0077
  154POPC   C4B 2221   6.386   4.397   6.389  0.0650 -0.1034  0.1932
  155POPC   NC3 2222   5.267   1.810   4.045 -0.1115 -0.2441  0.0886
  155POPC   PO4 2223   4.831   1.963   4.152 -0.1171  0.0183 -0.2315
  155POPC   GL1 2224   4.770   2.088   4.654 -0.3001 -0.4540 -0.1371
  155POPC   GL2 2225   4.410   2.091   4.748  0.2430  0.0056 -0.2230
  155POPC   C1A 2226   4.760   2.182   5.093  0.2004  0.0241  0.1701
  155POPC   D2A 2227   4.804   2.349   5.489  0.1806  0.2279 -0.0131
  155POPC   C3A 2228   5.141   2.233   5.682  0.3475  0.3432  0.0818
  155POPC   C4A 2229   5.341   1.878   5.954  0.2405  0.1217 -0.1338
  155POPC   C1B 2230   4.109   2.141   5.127 -0.0159 -0.1244 -0.0952
  155POPC   C2B 2231   3.788   2.349   5.582 -0.0818 -0.2719  0.2361
  155POPC   C3B 2232   3.898   2.508   5.967  0.1631 -0.3421  0.0212
  155POPC   C4B 2233   4.269   2.453   6.090 -0.0877 -0.0036 -0.0910
  156POPC   NC3 2234   2.051   7.903   4.159 -0.0775  0.0428  0.1822
  156POPC   PO4 2235   2.240   7.960   4.562 -0.1199  0.0154  0.2100
  156POPC   GL1 2236   2.100   7.727   4.975 -0.1469  0.0424 -0.2869
  156POPC   GL2 2237   2.317   7.513   5.109 -0.0391  0.1346  0.0051
  156POPC   C1A 2238   2.057   7.583   5.484 -0.2602 -0.3128  0.0884
  156POPC   D2A 2239   2.180   7.671   5.946 -0.2007 -0.0403  0.0504
  156POPC   C3A 2240   2.016   7.962   6.244 -0.1009 -0.0277  0.1779
  156POPC   C4A 2241   2.082   8.269   6.599  0.0606  0.0801  0.0668
  156POPC   C1B 2242   2.472   7.987   5.285 -0.0128 -0.0011  0.2973
  156POPC   C2B 2243   2.348   8.119   5.668  0.1398  0.0367  0.1781
  156POPC   C3B 2244   2.204   8.484   5.815 -0.0207 -0.1265 -0.1056
  156POPC   C4B 2245   2.304   8.844   6.032  0.0248  0.0307  0.2473
  157POPC   NC3 2246   0.044   2.055   4.066 -0.1067  0.0012  0.0667
  157POPC   PO4 2247  -0.250   2.147   4.386  0.1859  0.0766 -0.1365
  157POPC   GL1 2248  -0.362   2.145   4.821  0.2170  0.0810 -0.4108
  157POPC   GL2 2249  -0.206   2.205   5.087  0.0802 -0.0406  0.4633
  157POPC   C1A 2250  -0.413   1.813   5.267 -0.2229  0.3776 -0.1580
  157POPC   D2A 2251  -0.630   1.475   5.344 -0.3979  0.1705  0.2469
  157POPC   C3A 2252  -0.701   1.625   5.757 -0.0330 -0.2184  0.0370
  157POPC   C4A 2253  -0.491   1.907   6.042 -0.2452  0.3094  0.2476
  157POPC   C1B 2254  -0.126   2.231   5.478 -0.1710  0.0530  0.0797
  157POPC   C2B 2255  -0.053   2.132   5.921  0.0060  0.1709  0.1850
  157POPC   C3B 2256   0.344   2.011   6.139 -0.0981  0.0553 -0.0980
  157POPC   C4B 2257   0.736   1.959   6.290  0.0509  0.0119  0.0507
  158POPC   NC3 2258   9.636   8.766   3.262  0.3464 -0.1672 -0.0397
  158POPC   PO4 2259   9.585   8.313   3.286 -0.0164 -0.1708  0.3450
  158POPC   GL1 2260   9.551   8.114   3.688 -0.1419  0.0205 -0.1906
  158POPC   GL2 2261   9.489   7.830   3.931  0.0524 -0.4463 -0.2542
  158POPC   C1A 2262   9.094   8.190   3.827 -0.1745  0.1874 -0.1102
  158POPC   D2A 2263   8.745   8.410   4.049 -0.0790 -0.1789  0.2035
  158POPC   C3A 2264   8.945   8.863   4.105 -0.1890 -0.0449 -0.0615
  158POPC   C4A 2265   9.223   9.142   4.274 -0.0591 -0.0122  0.0765
  158POPC   C1B 2266   9.549   8.189   4.167 -0.0931 -0.3263 -0.1227
  158POPC   C2B 2267   9.721   8.484   4.479  0.0725 -0.2291  0.2199
  158POPC   C3B 2268  10.069   8.350   4.673 -0.1510 -0.0199 -0.1369
  158POPC   C4B 2269  10.490   8.505   4.611 -0.0495 -0.0977  0.1836
  159POPC   NC3 2270   7.234   3.398   4.180 -0.1678 -0.1452  0.2567
  159POPC   PO4 2271   6.895   3.644   4.368 -0.1666 -0.0640  0.0156
  159POPC   GL1 2272   6.778   3.570   4.752 -0.1926 -0.1906 -0.2020
  159POPC   GL2 2273   6.664   3.804   4.888 -0.0336 -0.1885  0.2201
  159POPC   C1A 2274   6.818   3.204   5.129  0.1435  0.0408  0.2425
  159POPC   D2A 2275   7.043   2.951   5.389 -0.0417 -0.3210 -0.0354
  159POPC   C3A 2276   6.953   2.718   5.743  0.4494 -0.0606 -0.2241
  159POPC   C4A 2277   6.893   2.354   6.032 -0.0759  0.3451 -0.4748
  159POPC   C1B 2278   6.518   3.780   5.313 -0.0051 -0.2748 -0.3236
  159POPC   C2B 2279   6.570   3.738   5.809  0.1399 -0.0179  0.0928
  159POPC   C3B 2280   6.949   3.760   6.021 -0.1943 -0.0158 -0.4639
  159POPC   C4B 2281   7.047   3.330   6.226 -0.4102  0.0639  0.0400
  160POPC   NC3 2282   7.489   4.292   4.474 -0.2866 -0.1171 -0.1225
  160POPC   PO4 2283   7.634   4.652   4.563 -0.4130  0.1929 -0.0153
  160POPC   GL1 2284   7.621   4.949   4.886  0.0080  0.0332 -0.1116
  160POPC   GL2 2285   7.763   5.177   4.894  0.1502 -0.1555 -0.1199
  160POPC   C1A 2286   7.694   4.873   5.395  0.1770 -0.2800  0.2914
  160POPC   D2A 2287   7.714   4.521   5.563 -0.0715 -0.1038  0.1854
  160POPC   C3A 2288   7.613   4.428   6.041 -0.2938 -0.0540  0.3317
  160POPC   C4A 2289   7.602   4.346   6.442 -0.2468  0.0226 -0.0380
  160POPC   C1B 2290   7.514   5.279   5.215  0.1751 -0.1449 -0.0603
  160POPC   C2B 2291   7.660   5.383   5.616 -0.2798 -0.5196 -0.1937
  160POPC   C3B 2292   7.726   5.553   6.046 -0.1326  0.0966  0.2556
  160POPC   C4B 2293   8.125   5.718   6.091  0.1227 -0.0907 -0.1934
  161POPC   NC3 2294   5.123   6.807   4.632  0.0273  0.0764 -0.3839
  161POPC   PO4 2295   4.741   6.958   4.907 -0.2696 -0.0456  0.3017
  161POPC   GL1 2296   4.999   7.140   5.172 -0.1009 -0.4459  0.1269
  161POPC   GL2 2297   4.798   7.364   5.309  0.2216 -0.4460 -0.0875
  161POPC   C1A 2298   5.199   7.376   5.492 -0.2710  0.1815  0.1230
  161POPC   D2A 2299   5.402   7.463   5.777 -0.2584 -0.1382  0.1840
  161POPC   C3A 2300   5.874   7.538   5.921 -0.1504 -0.1594 -0.0422
  161POPC   C4A 2301   6.132   7.808   6.033  0.1356 -0.1655  0.3088
  161POPC   C1B 2302   4.831   7.615   5.729 -0.1223 -0.2191  0.1994
  161POPC   C2B 2303   4.895   7.861   6.085 -0.1332  0.1599  0.3769
  161POPC   C3B 2304   5.086   7.959   6.421  0.1896 -0.1373 -0.0515
  161POPC   C4B 2305   5.165   8.397   6.696  0.3966 -0.0883  0.0597
  162POPC   NC3 2306   2.454   8.488   4.640  0.2174 -0.0817 -0.1133
  162POPC   PO4 2307   2.910   8.510   4.555 -0.1679  0.0407 -0.2092
  162POPC   GL1 2308   3.021   8.805   4.952  0.0060 -0.2539  0.2528
  162POPC   GL2 2309   2.657   8.777   5.057  0.0405  0.2182  0.1961
  162POPC   C1A 2310   3.324   8.819   5.254 -0.0070  0.3041 -0.0466
  162POPC   D2A 2311   3.433   8.829   5.662 -0.0391  0.1078 -0.0512
  162POPC   C3A 2312   3.734   9.126   5.722  0.4025  0.0758 -0.1574
  162POPC   C4A 2313   3.686   9.450   6.053  0.1588 -0.2816 -0.0273
  162POPC   C1B 2314   2.606   8.455   5.406  0.2022  0.2114 -0.0123
  162POPC   C2B 2315   2.819   8.206   5.741 -0.2887  0.2206 -0.2895
  162POPC   C3B 2316   3.035   8.111   6.190 -0.1383  0.0743 -0.2941
  162POPC   C4B 2317   3.195   8.022   6.550  0.0628  0.0923  0.0054
  163POPC   NC3 2318   7.013   5.887   4.782 -0.3463  0.3106 -0.1858
  163POPC   PO4 2319   7.079   6.155   4.485 -0.0380  0.3473  0.2284
  163POPC   GL1 2320   7.566   6.229   4.665 -0.0005  0.1791 -0.1252
  163POPC   GL2 2321   7.423   6.103   4.966  0.2531 -0.3539 -0.2208
  163POPC   C1A 2322   7.765   6.494   4.976  0.3367  0.0811 -0.1356
  163POPC   D2A 2323   7.853   6.576   5.534  0.1961  0.1224  0.0719
  163POPC   C3A 2324   8.122   6.444   5.845 -0.3425  0.0320  0.1594
  163POPC   C4A 2325   8.393   6.800   6.098 -0.4271 -0.1392 -0.1126
  163POPC   C1B 2326   7.657   6.124   5.447 -0.1736  0.0060  0.3018
  163POPC   C2B 2327   7.804   6.054   5.895  0.2111  0.1689 -0.2201
  163POPC   C3B 2328   7.781   5.952   6.401 -0.1164 -0.0364 -0.1060
  163POPC   C4B 2329   7.804   5.877   6.957  0.0530 -0.1081  0.1736
  164POPC   NC3 2330   5.508   6.273   4.481  0.2278 -0.2082 -0.0820
  164POPC   PO4 2331   5.235   6.387   4.805  0.1236  0.1008 -0.1588
  164POPC   GL1 2332   5.215   6.558   5.162  0.0143 -0.0355 -0.1152
  164POPC   GL2 2333   4.940   6.661   5.234 -0.2997  0.2798  0.2776
  164POPC   C1A 2334   5.159   6.427   5.568  0.1847 -0.2728 -0.2569
  164POPC   D2A 2335   5.173   6.580   6.012  0.3234  0.1711 -0.1265
  164POPC   C3A 2336   4.866   6.631   6.263  0.3168 -0.4453  0.2484
  164POPC   C4A 2337   4.358   6.690   6.405  0.1480  0.0420  0.1519
  164POPC   C1B 2338   4.905   6.886   5.545 -0.1250 -0.1670 -0.0184
  164POPC   C2B 2339   5.041   7.088   5.870 -0.0986 -0.4056  0.0139
  164POPC   C3B 2340   5.045   7.423   6.198  0.1162  0.0686  0.2645
  164POPC   C4B 2341   5.119   7.260   6.562 -0.1302  0.1364 -0.2835
  165POPC   NC3 2342   5.261   7.834   3.816 -0.0303 -0.0206  0.0405
  165POPC   PO4 2343   5.353   7.866   4.301  0.0088 -0.2114  0.2603
  165POPC   GL1 2344   5.239   8.219   4.620 -0.1062 -0.1551 -0.0084
  165POPC   GL2 2345   5.563   8.397   4.682 -0.2877 -0.1635  0.1788
  165POPC   C1A 2346   5.362   8.327   5.118 -0.0007 -0.0213 -0.2825
  165POPC   D2A 2347   5.599   8.560   5.437  0.0291 -0.0314  0.2374
  165POPC   C3A 2348   5.697   8.489   5.822 -0.1853 -0.0594 -0.1001
  165POPC   C4A 2349   5.523   8.582   6.221 -0.2672  0.0101  0.0219
  165POPC   C1B 2350   5.829   8.630   4.936 -0.1620  0.0922  0.1665
  165POPC   C2B 2351   6.051   8.732   5.285 -0.1647 -0.1472 -0.2528
  165POPC   C3B 2352   6.236   8.859   5.677  0.1238  0.1617  0.0935
  165POPC   C4B 2353   6.078   8.838   6.088 -0.0007 -0.0993  0.0384
  166POPC   NC3 2354   7.470   3.649   3.781  0.1229  0.1538 -0.0921
  166POPC   PO4 2355   7.738   3.467   4.054  0.0209  0.4150 -0.3461
  166POPC   GL1 2356   7.573   3.483   4.536 -0.2293  0.0178 -0.0299
  166POPC   GL2 2357   7.943   3.409   4.676  0.0976  0.1914 -0.0282
  166POPC   C1A 2358   7.651   3.744   4.934 -0.1154  0.0306  0.0262
  166POPC   D2A 2359   7.790   3.923   5.404  0.0106  0.0207 -0.0336
  166POPC   C3A 2360   7.867   4.040   5.827 -0.1156 -0.0778  0.3676
  166POPC   C4A 2361   8.110   4.318   6.040  0.2515 -0.0485  0.0095
  166POPC   C1B 2362   7.779   3.278   4.975 -0.0177  0.1326  0.0120
  166POPC   C2B 2363   7.626   3.405   5.376 -0.0609 -0.0744  0.0785
  166POPC   C3B 2364   7.404   3.659   5.700  0.1042  0.1443 -0.3022
  166POPC   C4B 2365   7.329   4.012   5.897 -0.3380  0.3020 -0.0361
  167POPC   NC3 2366   2.479   7.049   4.928  0.1800  0.0837 -0.3166
  167POPC   PO4 2367   2.634   6.711   4.835  0.0830 -0.0920  0.1685
  167POPC   GL1 2368   2.508   6.578   5.287 -0.4920  0.2397  0.0623
  167POPC   GL2 2369   2.594   6.878   5.388 -0.4279 -0.0088 -0.2920
  167POPC   C1A 2370   2.186   6.628   5.663  0.0715 -0.1330  0.1040
  167POPC   D2A 2371   1.802   6.819   5.665 -0.0679  0.3170 -0.1079
  167POPC   C3A 2372   1.906   7.196   5.808 -0.0435 -0.0296 -0.0614
  167POPC   C4A 2373   2.316   7.231   6.005 -0.1020 -0.0801  0.0268
  167POPC   C1B 2374   2.593   6.864   5.893 -0.1936  0.1570  0.0966
  167POPC   C2B 2375   2.811   7.304   6.061  0.1243  0.0376  0.0969
  167POPC   C3B 2376   3.110   7.629   6.023 -0.1079  0.0763  0.3222
  167POPC   C4B 2377   3.177   7.914   5.720  0.0071 -0.0417 -0.3858
  168POPC   NC3 2378   1.847   7.638   4.553  0.0323  0.0203 -0.1193
  168POPC   PO4 2379   2.180   7.337   4.669 -0.0604  0.2824  0.3504
  168POPC   GL1 2380   1.811   7.301   4.944 -0.1514  0.3637 -0.3940
  168POPC   GL2 2381   1.650   7.504   5.077  0.3273 -0.0065  0.1601
  168POPC   C1A 2382   1.559   7.065   5.352  0.1760 -0.2375  0.0517
  168POPC   D2A 2383   1.275   6.890   5.659 -0.1165  0.1657  0.1522
  168POPC   C3A 2384   1.172   6.582   5.919 -0.1736 -0.0455  0.2343
  168POPC   C4A 2385   1.303   6.269   6.265 -0.3916  0.2769  0.4342
  168POPC   C1B 2386   1.594   7.597   5.509  0.0050  0.0351 -0.0261
  168POPC   C2B 2387   1.666   7.660   5.932 -0.1832  0.0147 -0.2819
  168POPC   C3B 2388   1.541   7.699   6.372 -0.1814 -0.1163  0.1322
  168POPC   C4B 2389   1.771   7.665   6.757 -0.1948  0.0532 -0.2174
  169POPC   NC3 2390   4.180   3.009   4.723 -0.1350 -0.0930  0.1931
  169POPC   PO4 2391   3.924   3.373   4.651 -0.1246  0.1982  0.0119
  169POPC   GL1 2392   4.009   3.373   5.041  0.1436 -0.2281 -0.0025
  169POPC   GL2 2393   4.256   3.101   5.175 -0.1136 -0.1767  0.0345
  169POPC   C1A 2394   4.070   3.509   5.442 -0.0894 -0.0702 -0.0067
  169POPC   D2A 2395   4.126   3.422   5.988 -0.1199  0.0425  0.0988
  169POPC   C3A 2396   4.044   3.043   6.179 -0.0686 -0.2514 -0.0630
  169POPC   C4A 2397   4.126   2.781   6.454  0.2321  0.1201 -0.1286
  169POPC   C1B 2398   3.967   2.998   5.555 -0.0723 -0.0733 -0.4015
  169POPC   C2B 2399   3.564   2.743   5.639  0.1245 -0.2495  0.1419
  169POPC   C3B 2400   3.306   2.508   5.923  0.0172 -0.3094  0.3497
  169POPC   C4B 2401   2.868   2.399   6.064  0.0103  0.3854 -0.0402
  170POPC   NC3 2402   9.113   4.873   4.036 -0.1974 -0.2002 -0.1123
  170POPC   PO4 2403   9.373   5.242   4.243 -0.3164 -0.0261  0.2105
  170POPC   GL1 2404   9.196   5.038   4.579 -0.1350 -0.0348  0.1657
  170POPC   GL2 2405   8.971   5.198   4.807 -0.0559  0.1120  0.0224
  170POPC   C1A 2406   9.074   4.739   4.921  0.2583 -0.1124  0.3125
  170POPC   D2A 2407   9.062   4.654   5.356 -0.1544  0.0607  0.0551
  170POPC   C3A 2408   9.142   4.736   5.752 -0.3678 -0.0911  0.0592
  170POPC   C4A 2409   9.057   4.498   6.089  0.0261 -0.2223 -0.0749
  170POPC   C1B 2410   8.826   5.124   5.221 -0.0348 -0.2018 -0.1506
  170POPC   C2B 2411   8.561   4.856   5.533 -0.0899  0.1835  0.2766
  170POPC   C3B 2412   8.195   4.752   5.736  0.1868 -0.1779  0.3939
  170POPC   C4B 2413   8.172   4.785   6.180 -0.1899 -0.0913 -0.2129
  171POPC   NC3 2414   0.667   9.331   3.440  0.0706 -0.0880 -0.1657
  171POPC   PO4 2415   0.435   8.988   3.482  0.0794  0.0686 -0.0269
  171POPC   GL1 2416   0.050   9.179   3.651 -0.0170  0.0936  0.2143
  171POPC   GL2 2417  -0.315   9.067   3.753 -0.2891 -0.1094 -0.2149
  171POPC   C1A 2418   0.015   9.294   4.051 -0.0123  0.0492 -0.0438
  171POPC   D2A 2419  -0.164   9.489   4.483  0.0679  0.2106 -0.1655
  171POPC   C3A 2420  -0.251   9.873   4.575  0.3614  0.0488  0.2762
  171POPC   C4A 2421   0.041  10.224   4.782 -0.2639 -0.1168 -0.1232
  171POPC   C1B 2422  -0.178   8.788   4.061  0.1322  0.0451  0.2451
  171POPC   C2B 2423  -0.091   9.011   4.441 -0.2723  0.1023  0.0803
  171POPC   C3B 2424   0.131   9.226   4.854  0.2548 -0.1088  0.2295
  171POPC   C4B 2425   0.524   9.331   4.997  0.0860 -0.1329 -0.0578
  172POPC   NC3 2426   0.200   5.197   4.378 -0.1043  0.1104  0.0856
  172POPC   PO4 2427   0.604   5.551   4.560 -0.0373 -0.0172  0.3313
  172POPC   GL1 2428   0.508   5.854   4.804  0.2868  0.0036  0.2259
  172POPC   GL2 2429   0.529   6.241   4.654  0.3660  0.2526 -0.0090
  172POPC   C1A 2430   0.231   5.779   5.163 -0.1349  0.3461  0.0587
  172POPC   D2A 2431   0.170   5.847   5.566  0.0533  0.0200  0.5666
  172POPC   C3A 2432   0.491   6.005   5.994 -0.0662 -0.3475 -0.3603
  172POPC   C4A 2433   0.762   6.402   6.024 -0.5155  0.1278 -0.1155
  172POPC   C1B 2434   0.357   6.327   5.034  0.0559  0.3986  0.1714
  172POPC   C2B 2435   0.122   6.269   5.346  0.0600  0.0308 -0.2675
  172POPC   C3B 2436   0.230   6.577   5.726 -0.0748  0.0846 -0.0955
  172POPC   C4B 2437   0.520   6.822   5.971  0.0271  0.1140  0.3700
  173POPC   NC3 2438   0.929   5.852   4.343 -0.4064  0.1456 -0.0590
  173POPC   PO4 2439   1.199   6.192   4.317 -0.0205  0.1186 -0.1142
  173POPC   GL1 2440   0.986   6.209   4.762  0.1644 -0.0321 -0.1978
  173POPC   GL2 2441   0.830   6.070   5.095 -0.1238 -0.0954 -0.2107
  173POPC   C1A 2442   0.801   6.612   5.064 -0.0969 -0.4422 -0.0430
  173POPC   D2A 2443   0.700   6.646   5.509 -0.2716 -0.1933  0.1893
  173POPC   C3A 2444   0.535   6.259   5.558 -0.0129  0.0540  0.1349
  173POPC   C4A 2445   0.757   5.831   5.544 -0.0257 -0.1409  0.0618
  173POPC   C1B 2446   1.203   5.997   5.232 -0.1272 -0.2591 -0.0472
  173POPC   C2B 2447   1.477   5.711   5.482 -0.1618 -0.2020 -0.4872
  173POPC   C3B 2448   1.655   5.412   5.739  0.0771 -0.3141 -0.0166
  173POPC   C4B 2449   1.794   5.394   5.981  0.3193  0.0233 -0.0165
  174POPC   NC3 2450   7.894   2.609   4.108  0.2366  0.1689 -0.2617
  174POPC   PO4 2451   8.014   2.343   3.758  0.0572  0.0084  0.1103
  174POPC   GL1 2452   7.953   2.019   3.924  0.0341 -0.0359 -0.1747
  174POPC   GL2 2453   7.752   2.140   4.210  0.0355 -0.2854 -0.0351
  174POPC   C1A 2454   8.120   1.810   4.277 -0.0575 -0.0860 -0.0641
  174POPC   D2A 2455   7.983   1.597   4.580 -0.2066 -0.2406  0.2392
  174POPC   C3A 2456   7.950   1.182   4.400  0.2802  0.1193 -0.3041
  174POPC   C4A 2457   8.280   0.918   4.244 -0.3496 -0.1146  0.3799
  174POPC   C1B 2458   7.617   1.979   4.630 -0.1952 -0.0287 -0.0614
  174POPC   C2B 2459   7.664   1.687   4.982 -0.0765  0.0287 -0.0133
  174POPC   C3B 2460   7.592   1.546   5.479  0.2058  0.3250  0.2706
  174POPC   C4B 2461   7.704   1.650   5.889 -0.0390 -0.0668  0.0037
  175POPC   NC3 2462   6.809   7.647   3.665 -0.2922 -0.0161 -0.3531
  175POPC   PO4 2463   6.661   7.921   4.044  0.3602  0.1462 -0.1137
  175POPC   GL1 2464   6.994   7.923   4.241 -0.3002 -0.1975 -0.3117
  175POPC   GL2 2465   6.849   7.832   4.609  0.1558  0.3874  0.1189
  175POPC   C1A 2466   7.320   7.884   4.673 -0.0151 -0.2176 -0.2186
  175POPC   D2A 2467   7.564   7.989   5.093  0.0854  0.1023 -0.1720
  175POPC   C3A 2468   7.478   8.221   5.572  0.3018  0.1103 -0.1750
  175POPC   C4A 2469   7.316   8.452   5.926 -0.2040  0.1519 -0.0975
  175POPC   C1B 2470   6.884   7.459   4.953  0.3043 -0.3551 -0.3290
  175POPC   C2B 2471   6.730   7.266   5.268  0.3182 -0.3455  0.0239
  175POPC   C3B 2472   6.447   7.024   5.610  0.1046  0.0586  0.0128
  175POPC   C4B 2473   6.367   7.273   5.998  0.0262 -0.0456 -0.3220
  176POPC   NC3 2474   8.115   7.547   3.521  0.0428  0.1865 -0.1404
  176POPC   PO4 2475   7.836   7.658   3.809  0.1879  0.0792  0.0594
  176POPC   GL1 2476   8.259   7.434   4.037  0.3282  0.0816 -0.1512
  176POPC   GL2 2477   8.085   7.114   4.133 -0.3261 -0.2126 -0.2427
  176POPC   C1A 2478   8.511   7.244   4.320 -0.3882 -0.5662  0.0574
  176POPC   D2A 2479   8.920   7.426   4.509 -0.2010  0.1975  0.0333
  176POPC   C3A 2480   9.188   7.563   4.765  0.2112  0.1720  0.0547
  176POPC   C4A 2481   9.419   7.610   5.143 -0.4153 -0.0602  0.3639
  176POPC   C1B 2482   7.932   7.120   4.473  0.1404 -0.0486  0.2116
  176POPC   C2B 2483   7.998   7.222   4.865 -0.0410  0.1030  0.0183
  176POPC   C3B 2484   8.164   7.525   5.057 -0.1861  0.1280 -0.0119
  176POPC   C4B 2485   8.417   7.857   5.295  0.0287 -0.3103 -0.1380
  177POPC   NC3 2486   4.185   8.067   4.494  0.1447  0.0578  0.2702
  177POPC   PO4 2487   4.041   7.737   4.626  0.2215 -0.1532  0.1409
  177POPC   GL1 2488   4.070   8.126   4.972  0.2254 -0.0680  0.3155
  177POPC   GL2 2489   3.916   8.374   4.835  0.3109  0.1228  0.1063
  177POPC   C1A 2490   4.174   8.161   5.435  0.0468 -0.1017 -0.3064
  177POPC   D2A 2491   3.901   8.048   5.778  0.0226  0.0105  0.0272
  177POPC   C3A 2492   4.051   7.790   6.018  0.0112  0.2046 -0.1145
  177POPC   C4A 2493   4.390   7.872   6.371 -0.1599 -0.0347  0.1814
  177POPC   C1B 2494   3.593   8.373   5.171 -0.0224 -0.0885  0.0330
  177POPC   C2B 2495   3.609   7.954   5.385  0.0207 -0.2048 -0.3109
  177POPC   C3B 2496   3.587   7.679   5.769  0.0564 -0.4026 -0.5546
  177POPC   C4B 2497   3.405   7.334   5.803 -0.0873  0.0255 -0.1548
  178POPC   NC3 2498   1.713   4.488   4.467 -0.1635 -0.0071 -0.3566
  178POPC   PO4 2499   1.451   4.844   4.434  0.0583 -0.3491  0.0285
  178POPC   GL1 2500   1.248   4.816   4.808  0.0728  0.2031 -0.2161
  178POPC   GL2 2501   1.254   5.115   4.887  0.0718  0.0789 -0.1274
  178POPC   C1A 2502   1.033   4.777   5.121  0.2916 -0.0243  0.4897
  178POPC   D2A 2503   0.792   5.027   5.300  0.0125 -0.0136  0.4464
  178POPC   C3A 2504   0.840   4.898   5.632 -0.0412 -0.1944 -0.1940
  178POPC   C4A 2505   1.181   4.610   5.749  0.0388  0.2446 -0.0114
  178POPC   C1B 2506   1.548   5.329   5.138 -0.0336 -0.0094 -0.0307
  178POPC   C2B 2507   1.822   5.087   5.392 -0.1787  0.1237  0.2272
  178POPC   C3B 2508   2.030   5.025   5.788 -0.1454  0.0508  0.1867
  178POPC   C4B 2509   2.194   5.127   6.205 -0.0228 -0.1678  0.1675
  179POPC   NC3 2510   0.081   4.376   4.481 -0.1227 -0.0685 -0.1469
  179POPC   PO4 2511   0.377   4.745   4.337  0.1973  0.1174 -0.0579
  179POPC   GL1 2512   0.180   4.918   4.784  0.1809  0.0471  0.1515
  179POPC   GL2 2513  -0.063   4.800   4.788  0.0161  0.2392 -0.1118
  179POPC   C1A 2514   0.190   4.977   5.251  0.1796  0.3877 -0.2214
  179POPC   D2A 2515  -0.130   4.814   5.521  0.2577  0.4352  0.0553
  179POPC   C3A 2516  -0.059   4.644   5.924  0.2154 -0.1105 -0.1333
  179POPC   C4A 2517  -0.234   4.771   6.294  0.3159  0.1220  0.3610
  179POPC   C1B 2518  -0.282   5.057   5.086 -0.2519 -0.0846  0.3777
  179POPC   C2B 2519  -0.463   5.156   5.474  0.1736 -0.0444 -0.0914
  179POPC   C3B 2520  -0.580   5.174   6.012  0.3967  0.0040  0.1059
  179POPC   C4B 2521  -0.500   5.321   6.516  0.0247 -0.2272 -0.0543
  180POPC   NC3 2522   5.644   3.492   4.007  0.0653  0.2203  0.1079
  180POPC   PO4 2523   5.433   3.211   4.292  0.1567 -0.2814 -0.1516
  180POPC   GL1 2524   5.422   3.101   4.770 -0.1178  0.1010  0.3245
  180POPC   GL2 2525   5.336   2.711   4.735 -0.0557 -0.1868  0.1647
  180POPC   C1A 2526   5.703   2.911   5.115 -0.1504  0.0737 -0.3121
  180POPC   D2A 2527   5.525   2.795   5.547  0.1499  0.0780 -0.0124
  180POPC   C3A 2528   5.577   2.547   5.951 -0.1285  0.0854  0.0423
  180POPC   C4A 2529   5.679   2.155   6.148 -0.2245  0.0279  0.0587
  180POPC   C1B 2530   5.410   2.372   5.190  0.1113 -0.1576 -0.1649
  180POPC   C2B 2531   5.573   2.236   5.579  0.2103  0.1221  0.1777
  180POPC   C3B 2532   5.916   2.013   5.742  0.1238  0.0967  0.4118
  180POPC   C4B 2533   6.152   2.214   6.194 -0.1018  0.1287  0.1737
  181POPC   NC3 2534   1.943   2.300   4.436  0.1056 -0.0123 -0.0607
  181POPC   PO4 2535   1.853   1.864   4.672 -0.1466  0.1600 -0.2674
  181POPC   GL1 2536   1.860   1.891   5.223  0.3063  0.4637 -0.5978
  181POPC   GL2 2537   1.583   2.005   5.454  0.1139  0.1473 -0.0169
  181POPC   C1A 2538   2.029   1.823   5.646  0.1170 -0.1498  0.3187
  181POPC   D2A 2539   2.249   1.569   5.839 -0.2221 -0.4926 -0.0391
  181POPC   C3A 2540   2.288   1.462   6.283 -0.1318 -0.0881  0.0603
  181POPC   C4A 2541   2.087   1.098   6.538  0.0839  0.0131  0.0624
  181POPC   C1B 2542   1.583   2.218   5.849  0.6086 -0.0464 -0.0273
  181POPC   C2B 2543   1.489   2.220   6.281 -0.1715  0.0568 -0.1976
  181POPC   C3B 2544   1.388   2.512   6.643 -0.1291  0.0604 -0.3080
  181POPC   C4B 2545   1.040   2.726   6.780 -0.1456  0.0965  0.0114
  182POPC   NC3 2546   3.631   3.296   4.122 -0.0936  0.0553 -0.0507
  182POPC   PO4 2547   3.445   3.215   4.570  0.0945 -0.0280 -0.2027
  182POPC   GL1 2548   3.457   3.015   4.959 -0.1666  0.0593  0.0186
  182POPC   GL2 2549   3.804   2.843   5.059  0.3279 -0.0677  0.2917
  182POPC   C1A 2550   3.258   3.074   5.397  0.0707 -0.0017 -0.0663
  182POPC   D2A 2551   3.072   2.920   5.823 -0.1803 -0.0021 -0.2556
  182POPC   C3A 2552   3.329   2.970   6.122  0.1276 -0.0371 -0.1050
  182POPC   C4A 2553   3.621   2.726   6.273  0.0735 -0.2026  0.2002
  182POPC   C1B 2554   4.079   2.620   5.228  0.0055  0.0057 -0.4093
  182POPC   C2B 2555   4.282   2.323   5.586 -0.0154  0.0342  0.1633
  182POPC   C3B 2556   4.572   2.046   5.788  0.0792  0.2066  0.0126
  182POPC   C4B 2557   4.881   1.713   5.841  0.0402 -0.3318  0.2415
  183POPC   NC3 2558   0.869   7.178   3.779 -0.4073 -0.0180  0.2358
  183POPC   PO4 2559   1.128   7.118   4.160 -0.1280  0.0755  0.1684
  183POPC   GL1 2560   1.027   7.278   4.513 -0.2160  0.0726 -0.0514
  183POPC   GL2 2561   1.310   7.322   4.693 -0.1614 -0.0470  0.2228
  183POPC   C1A 2562   0.945   7.601   4.998 -0.0063 -0.2160  0.4124
  183POPC   D2A 2563   0.948   7.733   5.413  0.2372 -0.1686  0.0419
  183POPC   C3A 2564   0.548   7.535   5.617 -0.0527  0.1912  0.0767
  183POPC   C4A 2565   0.482   7.468   5.924  0.1606  0.1633 -0.1202
  183POPC   C1B 2566   1.127   7.098   5.062 -0.3867 -0.0554 -0.3186
  183POPC   C2B 2567   0.914   7.209   5.367  0.1496  0.1032  0.0367
  183POPC   C3B 2568   0.858   7.120   5.755  0.2966  0.1468 -0.3510
  183POPC   C4B 2569   0.900   7.040   6.199  0.0702 -0.0854  0.2112
  184POPC   NC3 2570   6.102   8.798   4.022 -0.0781  0.0732  0.0896
  184POPC   PO4 2571   5.660   8.750   4.059  0.1743 -0.1858  0.0883
  184POPC   GL1 2572   5.855   8.754   4.433  0.2119  0.0966  0.0494
  184POPC   GL2 2573   5.855   9.065   4.551  0.0016 -0.1371  0.0506
  184POPC   C1A 2574   6.233   8.770   4.774  0.2483 -0.0273  0.1174
  184POPC   D2A 2575   6.621   8.827   4.978  0.2843  0.0135  0.0704
  184POPC   C3A 2576   6.573   8.732   5.325 -0.0824  0.2248 -0.0956
  184POPC   C4A 2577   6.761   8.699   5.674 -0.6010 -0.0212  0.1121
  184POPC   C1B 2578   6.017   9.151   4.988 -0.4852  0.1721  0.0369
  184POPC   C2B 2579   6.072   9.353   5.433 -0.0209 -0.0159 -0.1527
  184POPC   C3B 2580   6.041   9.375   5.856 -0.2649 -0.3568 -0.0128
  184POPC   C4B 2581   6.276   9.550   6.176 -0.1247 -0.1141 -0.2021
  185POPC   NC3 2582   1.481   7.506   4.284  0.0364  0.1165 -0.0992
  185POPC   PO4 2583   1.531   8.016   4.306  0.1291  0.0672 -0.0005
  185POPC   GL1 2584   1.531   8.032   4.664 -0.2155 -0.0435  0.0412
  185POPC   GL2 2585   1.745   8.074   4.842  0.0474  0.0456  0.1639
  185POPC   C1A 2586   1.217   8.127   4.890 -0.0770  0.2004  0.0861
  185POPC   D2A 2587   1.078   8.168   5.295  0.1942 -0.0894  0.0589
  185POPC   C3A 2588   0.895   8.252   5.768 -0.2723 -0.2652  0.0403
  185POPC   C4A 2589   0.831   8.526   6.045  0.0358  0.1809 -0.2968
  185POPC   C1B 2590   1.527   8.003   5.262  0.0434  0.0153 -0.1331
  185POPC   C2B 2591   1.327   7.960   5.650  0.3322 -0.0112  0.0763
  185POPC   C3B 2592   1.131   7.636   6.021  0.0061  0.1887 -0.0852
  185POPC   C4B 2593   1.392   7.255   6.025  0.4006  0.1352  0.0682
  186POPC   NC3 2594   8.545   6.610   3.632  0.2942  0.1403  0.0899
  186POPC   PO4 2595   9.018   6.719   3.748  0.0618  0.0222  0.1151
  186POPC   GL1 2596   8.991   6.809   4.231  0.1131  0.0042 -0.3191
  186POPC   GL2 2597   9.255   6.883   4.371  0.2787 -0.0350 -0.1867
  186POPC   C1A 2598   8.891   6.847   4.724 -0.0216  0.1034  0.0782
  186POPC   D2A 2599   8.591   6.831   5.202  0.1004  0.1273  0.3790
  186POPC   C3A 2600   8.701   6.859   5.579 -0.1118  0.0151  0.1988
  186POPC   C4A 2601   8.763   7.068   5.902  0.1777 -0.3063  0.0216
  186POPC   C1B 2602   9.500   7.114   4.743  0.0855  0.0848 -0.2563
  186POPC   C2B 2603   9.587   7.153   5.236 -0.0490 -0.0155 -0.2069
  186POPC   C3B 2604   9.422   7.340   5.612  0.0273  0.0977 -0.0600
  186POPC   C4B 2605   9.250   7.826   5.618 -0.0274  0.3434 -0.0373
  187POPC   NC3 2606   3.869   7.251   4.602  0.2296 -0.0086  0.1783
  187POPC   PO4 2607   3.537   7.394   4.979 -0.3176 -0.1215  0.1137
  187POPC   GL1 2608   3.957   7.464   5.082 -0.0801  0.4689  0.0370
  187POPC   GL2 2609   3.932   7.525   5.445  0.3021  0.0476  0.2347
  187POPC   C1A 2610   4.320   7.742   5.216  0.2991 -0.3592 -0.1715
  187POPC   D2A 2611   4.664   7.928   5.395 -0.2715  0.2503 -0.2750
  187POPC   C3A 2612   4.590   8.108   5.733 -0.2065  0.4230 -0.0190
  187POPC   C4A 2613   4.441   8.255   6.048 -0.0126 -0.0404 -0.1185
  187POPC   C1B 2614   3.884   7.199   5.660 -0.0634 -0.2600  0.3688
  187POPC   C2B 2615   4.143   7.047   5.986 -0.1616  0.2366 -0.0750
  187POPC   C3B 2616   4.559   6.972   5.906  0.0538 -0.0981  0.1074
  187POPC   C4B 2617   4.634   6.526   5.828 -0.0343 -0.1190  0.3406
  188POPC   NC3 2618   5.905   6.206   4.712 -0.0635 -0.0721  0.1898
  188POPC   PO4 2619   6.073   5.816   4.719 -0.1350  0.2131 -0.0262
  188POPC   GL1 2620   6.130   5.535   5.087  0.2295  0.1344  0.0621
  188POPC   GL2 2621   6.086   5.178   5.101  0.2663  0.1089  0.4727
  188POPC   C1A 2622   6.231   5.546   5.509 -0.3173 -0.4385 -0.0237
  188POPC   D2A 2623   6.193   5.488   5.949 -0.1790  0.2144  0.1383
  188POPC   C3A 2624   5.812   5.741   6.128 -0.0907  0.2060 -0.0998
  188POPC   C4A 2625   5.537   6.173   6.096  0.1524 -0.3644 -0.2860
  188POPC   C1B 2626   6.098   5.107   5.464 -0.1462 -0.0606 -0.0677
  188POPC   C2B 2627   5.670   5.340   5.766  0.2770  0.0381 -0.3990
  188POPC   C3B 2628   5.308   5.618   5.855 -0.0932 -0.0300 -0.1186
  188POPC   C4B 2629   5.294   6.005   5.688  0.1803  0.0759 -0.1940
  189POPC   NC3 2630   0.978   6.632   4.076 -0.0857 -0.3307 -0.2441
  189POPC   PO4 2631   0.493   6.634   4.189 -0.4194  0.1070  0.3065
  189POPC   GL1 2632   0.621   6.988   4.341  0.2729  0.1181 -0.4418
  189POPC   GL2 2633   0.816   6.767   4.511  0.0865  0.1379 -0.2330
  189POPC   C1A 2634   0.440   7.339   4.513 -0.1839 -0.1857 -0.0185
  189POPC   D2A 2635   0.082   7.465   4.687 -0.2380 -0.0553 -0.3268
  189POPC   C3A 2636   0.079   7.878   4.972 -0.3803 -0.3286  0.2472
  189POPC   C4A 2637   0.083   8.338   5.116  0.1285  0.2838 -0.0211
  189POPC   C1B 2638   0.668   7.072   4.855 -0.0339  0.4266 -0.0370
  189POPC   C2B 2639   0.462   7.378   5.132  0.1272 -0.3465  0.0873
  189POPC   C3B 2640   0.146   7.588   5.387 -0.1699 -0.1140  0.2321
  189POPC   C4B 2641   0.041   7.768   5.717  0.3348  0.3793 -0.2802
  190POPC   NC3 2642   5.291   8.644   4.357 -0.0323 -0.2340  0.0714
  190POPC   PO4 2643   5.400   9.015   4.434 -0.1429 -0.1745  0.2491
  190POPC   GL1 2644   5.408   9.188   4.817 -0.2475  0.2569  0.0390
  190POPC   GL2 2645   5.059   9.188   5.036  0.4477  0.1529  0.3500
  190POPC   C1A 2646   5.641   9.101   5.291  0.0388 -0.2644 -0.0727
  190POPC   D2A 2647   5.773   8.947   5.647  0.2176  0.0145  0.0311
  190POPC   C3A 2648   5.600   9.106   5.974 -0.0033 -0.2416  0.1861
  190POPC   C4A 2649   5.789   9.358   6.286 -0.2167  0.2046 -0.2130
  190POPC   C1B 2650   5.106   9.357   5.430 -0.1595 -0.1668  0.1232
  190POPC   C2B 2651   5.069   9.716   5.723  0.3655  0.2278 -0.0217
  190POPC   C3B 2652   5.396  10.035   5.850  0.2533  0.0110  0.1543
  190POPC   C4B 2653   5.705  10.331   6.156  0.0220 -0.1235 -0.1909
  191POPC   NC3 2654   7.167   0.164   3.050 -0.2447 -0.2023 -0.0615
  191POPC   PO4 2655   7.696   0.168   3.083  0.0037  0.2745 -0.0166
  191POPC   GL1 2656   7.840   0.205   3.466  0.0433 -0.1455  0.1521
  191POPC   GL2 2657   8.162   0.190   3.434  0.2678 -0.0020 -0.0289
  191POPC   C1A 2658   8.012   0.516   3.750  0.0319  0.0172 -0.2179
  191POPC   D2A 2659   8.246   0.342   4.101  0.0727  0.0509  0.1149
  191POPC   C3A 2660   8.564   0.500   4.322  0.1999 -0.2993  0.1097
  191POPC   C4A 2661   8.982   0.345   4.533 -0.0384  0.2033  0.0350
  191POPC   C1B 2662   8.007  -0.060   3.819 -0.0843 -0.1692  0.0324
  191POPC   C2B 2663   8.267  -0.196   4.144 -0.2173  0.2755 -0.0573
  191POPC   C3B 2664   8.428  -0.093   4.431  0.2795  0.1653  0.0332
  191POPC   C4B 2665   8.526   0.210   4.739  0.0331  0.1862 -0.0148
  192POPC   NC3 2666   3.437   3.616   4.921  0.0181  0.0816  0.1916
  192POPC   PO4 2667   3.265   3.960   4.912  0.1722  0.1977  0.4255
  192POPC   GL1 2668   3.222   3.720   5.338  0.2390  0.0697 -0.0382
  192POPC   GL2 2669   3.582   3.574   5.367 -0.0948  0.0247 -0.0038
  192POPC   C1A 2670   3.032   3.477   5.706 -0.3101 -0.1634  0.1211
  192POPC   D2A 2671   3.108   3.425   6.152 -0.1858  0.0580  0.1392
  192POPC   C3A 2672   2.685   3.595   6.403  0.5117  0.0869 -0.1555
  192POPC   C4A 2673   2.651   3.491   6.915 -0.1723 -0.0410 -0.1300
  192POPC   C1B 2674   3.586   3.355   5.748 -0.2432 -0.0319  0.0568
  192POPC   C2B 2675   3.614   3.393   6.167  0.0572  0.1554  0.4060
  192POPC   C3B 2676   3.537   3.638   6.431  0.0200  0.2627  0.0450
  192POPC   C4B 2677   3.108   3.647   6.615  0.0979 -0.2774 -0.0664
  193POPC   NC3 2678   4.983   7.564   4.304 -0.0079 -0.1003 -0.1528
  193POPC   PO4 2679   5.232   7.300   4.649 -0.1050  0.1033  0.0039
  193POPC   GL1 2680   5.257   7.552   4.990 -0.0575 -0.0329  0.2215
  193POPC   GL2 2681   5.422   7.800   4.806 -0.1209  0.0051 -0.2122
  193POPC   C1A 2682   5.409   7.863   5.301  0.2456  0.0920  0.0143
  193POPC   D2A 2683   5.184   7.958   5.689  0.0149  0.3324 -0.0630
  193POPC   C3A 2684   5.397   7.925   6.019 -0.0792 -0.2337  0.1999
  193POPC   C4A 2685   5.704   8.079   6.199  0.1751 -0.2755  0.1590
  193POPC   C1B 2686   5.823   7.859   5.026  0.2751 -0.1602 -0.3772
  193POPC   C2B 2687   6.294   7.914   4.877 -0.1515 -0.0520 -0.0499
  193POPC   C3B 2688   6.648   7.935   5.126  0.0827  0.2449  0.0695
  193POPC   C4B 2689   7.042   7.895   5.144 -0.0879  0.2603 -0.0304
  194POPC   NC3 2690   4.735   6.437   4.813  0.2448  0.2157 -0.1094
  194POPC   PO4 2691   4.441   6.131   4.653 -0.2420 -0.0856  0.1436
  194POPC   GL1 2692   4.485   6.108   5.081  0.4330  0.2288 -0.1343
  194POPC   GL2 2693   4.755   6.179   5.303  0.1191  0.0572  0.1601
  194POPC   C1A 2694   4.237   6.177   5.510  0.1258  0.1211  0.0078
  194POPC   D2A 2695   3.783   6.366   5.580  0.2778 -0.2004 -0.0295
  194POPC   C3A 2696   3.654   6.356   5.988 -0.0458  0.0441 -0.1550
  194POPC   C4A 2697   3.384   6.557   6.372 -0.0728  0.0200 -0.3372
  194POPC   C1B 2698   4.676   5.980   5.687 -0.1374 -0.1094  0.0789
  194POPC   C2B 2699   4.873   5.969   6.039 -0.2248 -0.0876 -0.2740
  194POPC   C3B 2700   5.160   6.231   6.377  0.1768  0.1674 -0.1853
  194POPC   C4B 2701   5.306   6.605   6.515  0.0184  0.2341  0.2649
  195POPC   NC3 2702   4.251   7.956   3.989 -0.0752 -0.0345 -0.0355
  195POPC   PO4 2703   4.721   7.952   3.970 -0.1811  0.0800 -0.0695
  195POPC   GL1 2704   4.753   8.021   4.503 -0.3980 -0.0347  0.4762
  195POPC   GL2 2705   4.563   7.878   4.813 -0.0128  0.2723  0.2191
  195POPC   C1A 2706   4.947   8.089   5.001 -0.4695  0.5684 -0.0700
  195POPC   D2A 2707   4.886   8.357   5.414 -0.2780 -0.2002 -0.0992
  195POPC   C3A 2708   5.238   8.410   5.742  0.2505  0.1555  0.3086
  195POPC   C4A 2709   5.001   8.440   6.185  0.3237 -0.2480  0.1443
  195POPC   C1B 2710   4.541   8.331   5.078 -0.0657  0.0224  0.3740
  195POPC   C2B 2711   4.434   8.544   5.391 -0.1527  0.2633  0.3323
  195POPC   C3B 2712   4.643   8.618   5.807  0.2674 -0.2807 -0.0633
  195POPC   C4B 2713   4.718   8.885   6.011  0.2832  0.4864 -0.2808
  196POPC   NC3 2714   4.082   3.834   4.786 -0.0298 -0.2877  0.2997
  196POPC   PO4 2715   4.407   3.488   4.712  0.2199  0.1565  0.4268
  196POPC   GL1 2716   4.464   3.634   5.116 -0.0490  0.1181  0.4298
  196POPC   GL2 2717   4.527   3.894   5.135 -0.3768 -0.1500 -0.0128
  196POPC   C1A 2718   4.551   3.543   5.504  0.0894 -0.0235 -0.2641
  196POPC   D2A 2719   4.596   3.629   5.912  0.2311 -0.2072  0.2980
  196POPC   C3A 2720   4.537   3.968   6.129 -0.1748  0.0089  0.1837
  196POPC   C4A 2721   4.554   4.412   6.109  0.0304  0.2162  0.0640
  196POPC   C1B 2722   4.964   3.831   5.317  0.2565 -0.2145 -0.2436
  196POPC   C2B 2723   5.315   4.089   5.532 -0.2567 -0.0449 -0.0293
  196POPC   C3B 2724   5.480   4.338   5.949 -0.0197  0.0787 -0.1627
  196POPC   C4B 2725   5.500   4.722   6.180  0.1359  0.1072 -0.4684
  197POPC   NC3 2726   1.494   2.963   3.931  0.2712  0.0639 -0.0898
  197POPC   PO4 2727   1.243   3.276   4.273  0.1516  0.2071  0.2989
  197POPC   GL1 2728   1.228   3.186   4.799  0.3808 -0.0518 -0.2292
  197POPC   GL2 2729   1.518   3.009   4.901 -0.0088  0.0540 -0.2733
  197POPC   C1A 2730   1.093   3.102   5.176  0.0996 -0.0431  0.2745
  197POPC   D2A 2731   1.113   2.914   5.629 -0.0773 -0.1466 -0.1291
  197POPC   C3A 2732   0.817   2.932   6.046  0.0611  0.0559  0.0473
  197POPC   C4A 2733   0.801   3.006   6.407  0.0104  0.2544 -0.0256
  197POPC   C1B 2734   1.455   2.735   5.283  0.3700  0.1463  0.0774
  197POPC   C2B 2735   1.264   2.414   5.361  0.2949 -0.0961  0.0482
  197POPC   C3B 2736   1.115   2.411   5.720 -0.1152  0.2820 -0.1168
  197POPC   C4B 2737   1.243   2.701   6.173 -0.0436 -0.0603  0.0652
  198POPC   NC3 2738   1.154   5.088   4.082 -0.1734  0.0721  0.1262
  198POPC   PO4 2739   1.045   5.302   4.504 -0.1045 -0.0339 -0.0461
  198POPC   GL1 2740   0.961   5.568   4.969  0.0918 -0.0887  0.0963
  198POPC   GL2 2741   0.709   5.559   5.135  0.2541 -0.0031 -0.1531
  198POPC   C1A 2742   1.120   5.410   5.389  0.2968 -0.0312 -0.0877
  198POPC   D2A 2743   1.338   5.037   5.582 -0.0639  0.0819 -0.1953
  198POPC   C3A 2744   1.599   4.882   5.962  0.1848 -0.4374 -0.2701
  198POPC   C4A 2745   2.038   4.601   6.094  0.2684 -0.0685 -0.0881
  198POPC   C1B 2746   0.450   5.360   5.349 -0.1943 -0.1113 -0.1299
  198POPC   C2B 2747   0.564   5.367   5.659  0.0183 -0.2009 -0.1091
  198POPC   C3B 2748   0.880   5.398   5.807 -0.0640 -0.0283 -0.0190
  198POPC   C4B 2749   1.211   5.344   5.949 -0.2015 -0.1315  0.0212
  199POPC   NC3 2750   4.586   8.872   4.030  0.1631  0.0099  0.2489
  199POPC   PO4 2751   4.782   8.496   4.294  0.3166  0.2370  0.1429
  199POPC   GL1 2752   4.825   8.572   4.691  0.1503 -0.1519 -0.1486
  199POPC   GL2 2753   5.179   8.712   4.855  0.0991 -0.1197  0.1318
  199POPC   C1A 2754   4.748   8.843   5.110 -0.1612 -0.0458 -0.0858
  199POPC   D2A 2755   4.742   9.013   5.513  0.0098 -0.0683  0.0807
  199POPC   C3A 2756   4.679   9.442   5.671 -0.2372 -0.4403  0.2756
  199POPC   C4A 2757   4.528   9.668   5.906  0.0285  0.2995  0.0141
  199POPC   C1B 2758   5.173   8.804   5.373  0.0611 -0.3933 -0.2791
  199POPC   C2B 2759   5.149   8.885   5.809 -0.1223  0.1572  0.3057
  199POPC   C3B 2760   5.120   9.242   5.987 -0.1880 -0.2974  0.4421
  199POPC   C4B 2761   4.807   9.400   6.216 -0.2448 -0.0326  0.2750
  200POPC   NC3 2762   6.917   2.752   4.354  0.0601  0.1893 -0.0883
  200POPC   PO4 2763   7.365   2.888   4.309 -0.2741  0.1009 -0.0904
  200POPC   GL1 2764   7.420   2.658   4.729  0.4642 -0.1354 -0.0806
  200POPC   GL2 2765   7.626   2.448   4.625 -0.2001 -0.2292 -0.1227
  200POPC   C1A 2766   7.728   2.765   5.023 -0.0743  0.0402 -0.0833
  200POPC   D2A 2767   8.055   2.617   5.076 -0.0275  0.5674  0.1652
  200POPC   C3A 2768   8.061   2.396   5.518 -0.3937 -0.1272 -0.0302
  200POPC   C4A 2769   7.745   2.328   5.838  0.1539  0.2908  0.0484
  200POPC   C1B 2770   7.494   2.252   5.060  0.2121 -0.4252  0.0024
  200POPC   C2B 2771   7.391   1.997   5.375  0.0941  0.0096 -0.0625
  200POPC   C3B 2772   7.276   2.025   5.799 -0.0040 -0.1012 -0.3350
  200POPC   C4B 2773   7.353   1.947   6.271  0.3212  0.1870  0.0181
  201POPC   NC3 2774   4.196   5.711   4.784 -0.0330  0.2258 -0.1223
  201POPC   PO4 2775   3.946   5.283   4.806 -0.1208  0.0186 -0.2006
  201POPC   GL1 2776   3.794   5.425   5.181  0.1187  0.0229  0.0428
  201POPC   GL2 2777   3.518   5.214   5.256 -0.3303 -0.2433 -0.0969
  201POPC   C1A 2778   3.812   5.266   5.632  0.0677 -0.0748 -0.1800
  201POPC   D2A 2779   3.732   5.155   6.052  0.0784 -0.0778  0.0210
  201POPC   C3A 2780   3.960   4.887   6.271  0.1680  0.1751 -0.2293
  201POPC   C4A 2781   4.062   4.619   6.598 -0.3573 -0.3728 -0.1492
  201POPC   C1B 2782   3.525   4.863   5.630  0.0900 -0.1603 -0.3299
  201POPC   C2B 2783   3.629   4.608   5.932 -0.3164 -0.1586 -0.0239
  201POPC   C3B 2784   3.661   4.262   6.269 -0.1186  0.2481 -0.1833
  201POPC   C4B 2785   3.299   4.061   6.351 -0.1895 -0.0024 -0.1725
  202POPC   NC3 2786   8.536   2.252   3.622 -0.2050  0.2490 -0.1875
  202POPC   PO4 2787   8.765   2.325   3.979 -0.0267  0.0908 -0.1123
  202POPC   GL1 2788   8.919   2.154   4.436 -0.0562 -0.1888  0.0916
  202POPC   GL2 2789   8.992   1.807   4.455 -0.3270  0.2897  0.2858
  202POPC   C1A 2790   8.516   1.948   4.625  0.1742 -0.1686  0.0274
  202POPC   D2A 2791   8.076   2.133   4.755 -0.1095 -0.0423 -0.2522
  202POPC   C3A 2792   7.956   2.103   5.142  0.1685  0.0982 -0.1271
  202POPC   C4A 2793   8.077   1.813   5.527  0.0929  0.1489  0.1955
  202POPC   C1B 2794   8.945   1.856   4.821  0.1973 -0.0117 -0.2682
  202POPC   C2B 2795   8.732   1.793   5.261  0.0434 -0.2198  0.2664
  202POPC   C3B 2796   8.530   1.547   5.552 -0.0066  0.0823  0.2026
  202POPC   C4B 2797   8.079   1.318   5.634  0.0517 -0.0084 -0.4441
  203POPC   NC3 2798   2.051   6.254   4.580  0.1753  0.2340 -0.0432
  203POPC   PO4 2799   2.263   5.978   4.399  0.0421 -0.0796  0.0353
  203POPC   GL1 2800   2.205   5.720   4.772  0.2900 -0.4189 -0.0758
  203POPC   GL2 2801   1.804   5.863   4.846 -0.1999  0.1850 -0.2358
  203POPC   C1A 2802   2.015   5.585   5.185 -0.0427 -0.1375 -0.1534
  203POPC   D2A 2803   2.181   5.416   5.566  0.0538  0.3867 -0.1963
  203POPC   C3A 2804   2.331   5.479   5.875  0.0156 -0.2517 -0.2618
  203POPC   C4A 2805   2.134   5.642   6.233 -0.1411  0.1999 -0.0695
  203POPC   C1B 2806   1.684   6.092   5.149  0.1021  0.1896  0.1280
  203POPC   C2B 2807   1.637   6.219   5.515 -0.0899 -0.0017  0.2129
  203POPC   C3B 2808   1.700   6.353   5.931 -0.3837 -0.3307  0.1414
  203POPC   C4B 2809   1.595   6.767   6.113  0.1826  0.0672  0.1599
  204POPC   NC3 2810   3.777   6.332   4.265  0.0500 -0.4610 -0.0574
  204POPC   PO4 2811   4.029   6.364   4.697 -0.0947 -0.0497 -0.1793
  204POPC   GL1 2812   4.151   6.524   5.205 -0.0820  0.0865  0.2064
  204POPC   GL2 2813   4.429   6.752   5.224 -0.0222 -0.4373 -0.3742
  204POPC   C1A 2814   4.165   6.701   5.654  0.0292  0.4726  0.2440
  204POPC   D2A 2815   4.149   6.374   6.011 -0.2494  0.3050 -0.1766
  204POPC   C3A 2816   3.959   5.948   5.907  0.1263  0.0529 -0.0016
  204POPC   C4A 2817   3.869   5.646   6.037  0.0149  0.1915  0.0963
  204POPC   C1B 2818   4.344   7.154   5.342  0.1435 -0.0691  0.1168
  204POPC   C2B 2819   4.377   7.418   5.694 -0.0531 -0.1249  0.1021
  204POPC   C3B 2820   4.470   7.415   6.143 -0.3103  0.2547 -0.0653
  204POPC   C4B 2821   4.472   7.185   6.486 -0.1499  0.0147  0.3621
  205POPC   NC3 2822   7.821   6.441   4.304 -0.1346 -0.0012  0.0849
  205POPC   PO4 2823   7.372   6.470   4.228 -0.1406 -0.0126 -0.0650
  205POPC   GL1 2824   7.308   6.627   4.652  0.1219 -0.2456  0.1616
  205POPC   GL2 2825   7.361   6.899   4.499  0.1394  0.1372  0.1239
  205POPC   C1A 2826   7.274   6.601   5.079 -0.1776 -0.0003  0.2256
  205POPC   D2A 2827   7.153   6.204   5.343  0.4749 -0.1140  0.3440
  205POPC   C3A 2828   6.780   6.128   5.642 -0.2176  0.3082  0.0868
  205POPC   C4A 2829   6.507   5.988   5.946 -0.1945  0.2348 -0.0335
  205POPC   C1B 2830   7.630   6.941   4.826  0.1169 -0.0024 -0.0877
  205POPC   C2B 2831   7.677   6.944   5.231 -0.1866 -0.2960 -0.3602
  205POPC   C3B 2832   7.394   6.744   5.597 -0.0652 -0.0693 -0.0022
  205POPC   C4B 2833   7.362   6.323   5.802  0.0313 -0.2608 -0.4030
  206POPC   NC3 2834   6.400   3.570   4.431 -0.2135  0.3985  0.2850
  206POPC   PO4 2835   6.194   3.919   4.189 -0.2884 -0.0158 -0.2450
  206POPC   GL1 2836   6.297   4.032   4.630  0.0666  0.0618  0.1746
  206POPC   GL2 2837   6.127   3.861   4.832 -0.0101  0.0117 -0.1261
  206POPC   C1A 2838   6.364   4.201   5.081  0.0617  0.1265 -0.1302
  206POPC   D2A 2839   6.321   4.149   5.547 -0.3241  0.2530  0.1437
  206POPC   C3A 2840   6.609   4.265   5.922 -0.0111  0.0581  0.0866
  206POPC   C4A 2841   7.053   4.366   6.167  0.0287  0.4740  0.2284
  206POPC   C1B 2842   6.047   3.713   5.336  0.1494  0.1260 -0.0138
  206POPC   C2B 2843   6.038   3.498   5.764 -0.2865 -0.1733 -0.0455
  206POPC   C3B 2844   5.975   3.475   6.149 -0.1450 -0.0213  0.0394
  206POPC   C4B 2845   6.068   3.240   6.369 -0.0086 -0.1166 -0.1959
  207POPC   NC3 2846   8.739   6.287   4.088 -0.3039  0.0140 -0.1113
  207POPC   PO4 2847   8.313   6.284   4.060 -0.1650  0.0406  0.4034
  207POPC   GL1 2848   8.412   6.542   4.483  0.0404 -0.1222  0.0863
  207POPC   GL2 2849   8.175   6.438   4.683  0.2931 -0.1537 -0.0212
  207POPC   C1A 2850   8.347   6.944   4.627 -0.0173 -0.1718 -0.1036
  207POPC   D2A 2851   8.584   7.231   4.882 -0.0557 -0.1848  0.2421
  207POPC   C3A 2852   9.032   7.164   5.113  0.2114 -0.2204 -0.0292
  207POPC   C4A 2853   9.113   7.018   5.384 -0.2020 -0.1950 -0.0735
  207POPC   C1B 2854   8.146   6.783   5.068  0.0028  0.3208  0.2829
  207POPC   C2B 2855   8.186   7.024   5.378  0.3972  0.4602 -0.1701
  207POPC   C3B 2856   8.512   7.349   5.468  0.0207  0.1816  0.0286
  207POPC   C4B 2857   8.923   7.461   5.521  0.2067  0.2269 -0.3434
  208POPC   NC3 2858   5.253   5.559   4.833 -0.5290  0.4038  0.3546
  208POPC   PO4 2859   5.501   5.840   4.719  0.1377 -0.1886  0.2756
  208POPC   GL1 2860   5.723   5.952   5.100  0.0193  0.1098 -0.1338
  208POPC   GL2 2861   5.504   6.121   5.269 -0.4142  0.2983  0.4381
  208POPC   C1A 2862   6.008   6.243   5.300 -0.3857  0.0299  0.1971
  208POPC   D2A 2863   6.391   6.462   5.480  0.1124 -0.0304 -0.0246
  208POPC   C3A 2864   6.266   6.551   5.901 -0.1538 -0.1135 -0.0187
  208POPC   C4A 2865   6.476   6.760   6.253  0.1031  0.1689  0.1181
  208POPC   C1B 2866   5.667   6.405   5.597  0.0843  0.0400  0.1066
  208POPC   C2B 2867   5.953   6.736   5.587  0.3875  0.0777 -0.3245
  208POPC   C3B 2868   6.011   7.170   5.574  0.1412 -0.0270 -0.1008
  208POPC   C4B 2869   5.781   7.454   5.462  0.1836 -0.0594  0.2097
  209POPC   NC3 2870   3.086   4.042   4.293 -0.3598  0.2323 -0.1202
  209POPC   PO4 2871   2.816   4.452   4.297 -0.2399 -0.0148  0.1410
  209POPC   GL1 2872   2.778   4.652   4.733  0.1756 -0.3184  0.0406
  209POPC   GL2 2873   2.469   4.417   4.939 -0.0772 -0.2252  0.0489
  209POPC   C1A 2874   2.754   4.745   5.197  0.0783  0.1776 -0.1248
  209POPC   D2A 2875   3.004   4.543   5.543 -0.0272  0.1735  0.1751
  209POPC   C3A 2876   2.847   4.675   5.926  0.2806  0.0780  0.2242
  209POPC   C4A 2877   2.896   4.928   6.326 -0.0369 -0.2543  0.1742
  209POPC   C1B 2878   2.611   4.264   5.380  0.0614  0.1767 -0.5179
  209POPC   C2B 2879   2.857   3.962   5.629 -0.2433  0.0423 -0.0652
  209POPC   C3B 2880   2.939   3.884   6.025  0.3315 -0.0931 -0.0315
  209POPC   C4B 2881   2.662   4.122   6.305 -0.0238  0.1972  0.1736
  210POPC   NC3 2882   8.528   5.003   4.619 -0.0859  0.0188  0.2725
  210POPC   PO4 2883   8.067   4.959   4.457  0.2009  0.1654  0.0897
  210POPC   GL1 2884   8.109   5.391   4.665  0.1500 -0.2102 -0.0835
  210POPC   GL2 2885   8.290   5.360   4.960  0.1556  0.2142  0.3581
  210POPC   C1A 2886   7.932   5.558   5.188 -0.1794  0.2619 -0.0047
  210POPC   D2A 2887   8.006   5.741   5.568 -0.1688 -0.0965 -0.0931
  210POPC   C3A 2888   8.401   5.887   5.710 -0.2562 -0.1465 -0.1025
  210POPC   C4A 2889   8.571   5.615   6.117 -0.0970 -0.1273 -0.2340
  210POPC   C1B 2890   8.467   5.479   5.325  0.1909 -0.0488 -0.0282
  210POPC   C2B 2891   8.773   5.396   5.680  0.0857 -0.1224 -0.2902
  210POPC   C3B 2892   8.630   5.077   6.077 -0.1799  0.1355  0.1873
  210POPC   C4B 2893   8.847   4.899   6.377  0.0024  0.0755 -0.1592
  211POPC   NC3 2894   0.891   3.064   4.040  0.2833 -0.1268  0.1038
  211POPC   PO4 2895   0.832   3.152   4.484  0.2018 -0.0518 -0.0240
  211POPC   GL1 2896   0.724   3.276   4.900 -0.0308 -0.1067  0.3668
  211POPC   GL2 2897   0.866   3.502   5.072  0.1518 -0.0606  0.4012
  211POPC   C1A 2898   0.624   3.226   5.372  0.0331 -0.0910 -0.1524
  211POPC   D2A 2899   0.600   3.322   5.729 -0.1670  0.0173  0.1224
  211POPC   C3A 2900   0.598   3.765   5.804  0.1751 -0.0739  0.0677
  211POPC   C4A 2901   0.316   4.141   5.803 -0.2402 -0.0263 -0.2504
  211POPC   C1B 2902   0.402   3.642   5.154  0.1695 -0.0250 -0.0128
  211POPC   C2B 2903   0.162   3.743   5.487 -0.1886 -0.2026 -0.0037
  211POPC   C3B 2904   0.116   3.630   5.799 -0.4272  0.2331  0.0536
  211POPC   C4B 2905  -0.087   3.445   6.000 -0.5046  0.1505 -0.0151
  212POPC   NC3 2906   3.067   2.455   4.964  0.0065 -0.1511 -0.1108
  212POPC   PO4 2907   2.845   2.155   4.772  0.2952 -0.0085  0.1095
  212POPC   GL1 2908   2.831   1.888   5.057  0.2698  0.0319 -0.5614
  212POPC   GL2 2909   3.193   1.905   5.143 -0.4366 -0.0016  0.2132
  212POPC   C1A 2910   2.699   1.706   5.554  0.1776  0.0955  0.2087
  212POPC   D2A 2911   2.745   1.629   5.992  0.2044 -0.2178  0.2326
  212POPC   C3A 2912   2.662   1.871   6.191  0.0084  0.3720  0.0017
  212POPC   C4A 2913   2.743   2.225   6.524 -0.1687  0.4577 -0.3533
  212POPC   C1B 2914   3.203   2.147   5.577  0.0300  0.1062  0.0997
  212POPC   C2B 2915   3.108   2.005   5.965  0.0259 -0.1651  0.1541
  212POPC   C3B 2916   3.141   2.045   6.290  0.0819  0.0982 -0.0890
  212POPC   C4B 2917   3.225   2.176   6.709  0.0748 -0.0044  0.0921
  213POPC   NC3 2918   6.644   9.383   3.845  0.0226  0.2696  0.0429
  213POPC   PO4 2919   6.857   9.691   3.546 -0.3583 -0.0979  0.2074
  213POPC   GL1 2920   7.014   9.798   3.887  0.1109 -0.0142  0.1259
  213POPC   GL2 2921   6.945   9.966   4.068 -0.1608  0.1019  0.1598
  213POPC   C1A 2922   7.276   9.506   4.062  0.1432  0.1976  0.0428
  213POPC   D2A 2923   7.691   9.516   4.219  0.0312 -0.2157 -0.1676
  213POPC   C3A 2924   7.884   9.790   4.363 -0.2138 -0.2291 -0.0122
  213POPC   C4A 2925   8.070  10.193   4.572 -0.0873 -0.1138  0.0352
  213POPC   C1B 2926   6.854   9.951   4.468 -0.2608  0.1054 -0.1222
  213POPC   C2B 2927   7.051   9.765   4.733  0.0686 -0.0638  0.0074
  213POPC   C3B 2928   7.064   9.915   5.134  0.0258 -0.1469 -0.1969
  213POPC   C4B 2929   6.884   9.734   5.587  0.0608 -0.1486 -0.2470
  214POPC   NC3 2930   4.322   0.278   4.331 -0.1647 -0.0027  0.1197
  214POPC   PO4 2931   4.708   0.449   4.343  0.0007  0.0661  0.0673
  214POPC   GL1 2932   4.876   0.473   4.756  0.1426 -0.1224 -0.2987
  214POPC   GL2 2933   4.633   0.363   4.876  0.0061 -0.0811 -0.0743
  214POPC   C1A 2934   5.089   0.722   5.145  0.3631 -0.1620 -0.0222
  214POPC   D2A 2935   5.368   0.760   5.565  0.2025  0.0257  0.0106
  214POPC   C3A 2936   5.774   0.657   5.695 -0.1375 -0.0345 -0.6233
  214POPC   C4A 2937   6.175   0.532   5.651  0.2751  0.2414  0.0180
  214POPC   C1B 2938   4.534   0.473   5.284  0.2045  0.2154 -0.2284
  214POPC   C2B 2939   4.471   0.474   5.696  0.1665 -0.0143  0.1355
  214POPC   C3B 2940   4.422   0.402   6.124  0.1171 -0.0134 -0.1117
  214POPC   C4B 2941   4.190   0.719   6.339 -0.2247 -0.0865 -0.0114
  215POPC   NC3 2942   6.697   6.078   4.191  0.0200  0.2092 -0.3724
  215POPC   PO4 2943   6.291   6.067   4.320  0.1009 -0.3234 -0.1960
  215POPC   GL1 2944   6.584   6.165   4.676  0.2048 -0.1278 -0.1068
  215POPC   GL2 2945   6.456   5.992   4.939 -0.0895  0.3384 -0.0749
  215POPC   C1A 2946   6.723   6.331   5.122 -0.0211  0.2490  0.0404
  215POPC   D2A 2947   6.895   6.626   5.481  0.0896  0.0273 -0.1187
  215POPC   C3A 2948   6.725   6.491   5.899  0.0558 -0.0466  0.1485
  215POPC   C4A 2949   6.940   6.689   6.114  0.3401  0.0443  0.1708
  215POPC   C1B 2950   6.485   5.961   5.300 -0.1315  0.2147 -0.1842
  215POPC   C2B 2951   6.745   5.617   5.586 -0.1195  0.2603 -0.2707
  215POPC   C3B 2952   6.801   5.422   5.990  0.2026 -0.1136  0.0559
  215POPC   C4B 2953   6.921   4.926   6.224 -0.2244 -0.2220  0.4118
  216POPC   NC3 2954   2.947   0.156   4.678  0.2041 -0.2716  0.2250
  216POPC   PO4 2955   2.750   0.489   4.688  0.0282 -0.3419 -0.2473
  216POPC   GL1 2956   2.851   0.554   5.113  0.0067  0.0949  0.4596
  216POPC   GL2 2957   2.734   0.828   5.275  0.2796  0.2799 -0.0542
  216POPC   C1A 2958   2.673   0.290   5.492  0.3093 -0.0452  0.2266
  216POPC   D2A 2959   2.408  -0.058   5.696  0.0233  0.0278  0.1648
  216POPC   C3A 2960   2.129   0.016   5.932  0.2116 -0.0315 -0.0383
  216POPC   C4A 2961   2.068   0.437   6.120  0.0325 -0.0277 -0.0932
  216POPC   C1B 2962   3.094   0.922   5.484 -0.0471 -0.0371  0.1675
  216POPC   C2B 2963   3.269   1.073   5.877  0.2260 -0.1438  0.3764
  216POPC   C3B 2964   3.611   0.997   6.130 -0.2692 -0.4885 -0.0545
  216POPC   C4B 2965   3.826   1.043   6.493  0.0226  0.1823 -0.3529
  217POPC   NC3 2966   6.634   0.389   3.683 -0.0186 -0.0168 -0.1993
  217POPC   PO4 2967   6.666   0.750   3.533  0.1371  0.1486 -0.0436
  217POPC   GL1 2968   6.915   0.847   3.918 -0.2976  0.1520 -0.1136
  217POPC   GL2 2969   6.734   0.699   4.132  0.0238 -0.2366  0.2189
  217POPC   C1A 2970   7.241   0.579   4.214 -0.0961 -0.1910  0.0569
  217POPC   D2A 2971   7.438   0.174   4.426 -0.3855 -0.1997 -0.3742
  217POPC   C3A 2972   7.556   0.208   4.934  0.1357  0.1630  0.1386
  217POPC   C4A 2973   7.484   0.543   5.197 -0.0882 -0.1431  0.0549
  217POPC   C1B 2974   6.777   0.957   4.542  0.0584  0.2001 -0.0719
  217POPC   C2B 2975   7.108   0.969   4.883  0.1638 -0.2215  0.1828
  217POPC   C3B 2976   7.133   0.884   5.265  0.3291 -0.0748  0.0797
  217POPC   C4B 2977   7.126   0.566   5.550  0.4150 -0.1462 -0.0561
  218POPC   NC3 2978   2.561   6.764   4.040  0.1679 -0.1304  0.2241
  218POPC   PO4 2979   2.442   6.454   4.350 -0.1158 -0.1962  0.1390
  218POPC   GL1 2980   2.439   6.286   4.830 -0.2354 -0.0273  0.1919
  218POPC   GL2 2981   2.651   5.965   4.880 -0.2933 -0.2908 -0.1337
  218POPC   C1A 2982   2.239   6.166   5.185  0.1024  0.0332 -0.1217
  218POPC   D2A 2983   2.243   5.973   5.543  0.2146 -0.1969  0.0255
  218POPC   C3A 2984   1.917   5.816   5.744  0.0329  0.3294 -0.0978
  218POPC   C4A 2985   1.553   5.874   6.005 -0.1385  0.0149  0.1225
  218POPC   C1B 2986   2.573   5.709   5.213  0.0925  0.6017 -0.0677
  218POPC   C2B 2987   2.730   5.712   5.688  0.1816 -0.0365  0.2261
  218POPC   C3B 2988   2.425   5.965   5.986 -0.0905 -0.0249  0.2136
  218POPC   C4B 2989   2.177   6.272   6.213  0.0079  0.1826  0.1666
  219POPC   NC3 2990   5.345   5.142   4.623 -0.0296  0.2778 -0.0341
  219POPC   PO4 2991   5.719   5.375   4.676  0.2173 -0.3496  0.2149
  219POPC   GL1 2992   5.586   5.263   5.049 -0.0455 -0.0213  0.0447
  219POPC   GL2 2993   5.730   5.470   5.338 -0.2172  0.2516  0.1624
  219POPC   C1A 2994   5.635   4.918   5.418 -0.0603 -0.1257 -0.0521
  219POPC   D2A 2995   5.742   4.726   5.673 -0.0449 -0.2345  0.0329
  219POPC   C3A 2996   5.989   4.962   6.002 -0.1386 -0.0435  0.0613
  219POPC   C4A 2997   6.242   5.115   6.383 -0.4226  0.0413  0.2611
  219POPC   C1B 2998   5.745   5.810   5.584 -0.2360 -0.2149 -0.1554
  219POPC   C2B 2999   6.095   5.998   5.697  0.2190  0.1018 -0.1132
  219POPC   C3B 3000   6.037   6.202   6.106 -0.0315 -0.0623  0.1045
  219POPC   C4B 3001   6.445   6.293   6.377 -0.0790  0.0138  0.2062
  220POPC   NC3 3002   7.844   5.990   4.122  0.1195  0.1429 -0.1610
  220POPC   PO4 3003   8.089   5.847   4.492 -0.3872 -0.3627 -0.1913
  220POPC   GL1 3004   8.013   5.999   4.931  0.0488 -0.0033  0.2315
  220POPC   GL2 3005   8.286   5.882   4.943  0.0509 -0.1489 -0.3082
  220POPC   C1A 3006   8.114   6.157   5.303 -0.1743 -0.2388 -0.4444
  220POPC   D2A 3007   8.489   6.368   5.519  0.3059 -0.0419  0.3098
  220POPC   C3A 3008   8.645   6.439   5.897  0.0368 -0.1563 -0.3020
  220POPC   C4A 3009   8.779   6.294   6.241 -0.3429  0.0367  0.0193
  220POPC   C1B 3010   8.543   6.266   4.986  0.1880 -0.0732 -0.0469
  220POPC   C2B 3011   8.870   6.440   5.101 -0.0673  0.0342  0.1484
  220POPC   C3B 3012   9.026   6.457   5.527 -0.2227 -0.1492  0.2790
  220POPC   C4B 3013   9.116   6.605   5.949 -0.1398 -0.0185  0.1780
  221POPC   NC3 3014   2.502   9.242   4.132  0.1442 -0.0874 -0.3281
  221POPC   PO4 3015   2.703   9.533   4.405  0.2462 -0.1044  0.2492
  221POPC   GL1 3016   2.449   9.696   4.769 -0.0562 -0.0644  0.0873
  221POPC   GL2 3017   2.612   9.851   5.044  0.0142 -0.0628 -0.1191
  221POPC   C1A 3018   2.337   9.374   5.060 -0.0369  0.1066 -0.1479
  221POPC   D2A 3019   2.467   9.136   5.435  0.3564 -0.1453  0.0256
  221POPC   C3A 3020   2.113   8.817   5.371 -0.0313  0.2442 -0.1933
  221POPC   C4A 3021   1.826   8.768   5.746  0.3134 -0.2787 -0.4430
  221POPC   C1B 3022   2.715   9.564   5.308 -0.4132  0.0659  0.5211
  221POPC   C2B 3023   2.798   9.387   5.730 -0.2700 -0.1249 -0.1506
  221POPC   C3B 3024   2.672   9.205   6.110 -0.1574 -0.0151  0.4319
  221POPC   C4B 3025   2.788   9.055   6.517 -0.1367  0.2754 -0.1537
  222POPC   NC3 3026   6.643   8.393   3.894  0.1146  0.4209 -0.0792
  222POPC   PO4 3027   6.513   8.900   3.806 -0.1050  0.0680 -0.0153
  222POPC   GL1 3028   6.896   8.878   4.093 -0.1126  0.0334 -0.0060
  222POPC   GL2 3029   6.946   9.171   4.220 -0.0030  0.2578  0.1423
  222POPC   C1A 3030   7.305   8.893   4.304 -0.2412 -0.2461  0.2055
  222POPC   D2A 3031   7.512   8.854   4.733 -0.2576 -0.3120  0.0941
  222POPC   C3A 3032   7.934   8.724   4.690  0.1516  0.0331  0.0643
  222POPC   C4A 3033   8.321   8.796   4.781  0.0572  0.0914 -0.1109
  222POPC   C1B 3034   6.811   9.368   4.540 -0.4272 -0.3635  0.4288
  222POPC   C2B 3035   6.834   9.415   5.043  0.2185 -0.1763  0.3238
  222POPC   C3B 3036   6.936   9.223   5.404 -0.0322 -0.1637  0.2873
  222POPC   C4B 3037   6.994   9.141   5.879 -0.0444 -0.3720  0.0816
  223POPC   NC3 3038   8.894   4.204   4.522  0.0554 -0.0772  0.1151
  223POPC   PO4 3039   8.769   4.565   4.338 -0.4643 -0.2465  0.0927
  223POPC   GL1 3040   8.601   4.515   4.777  0.1193  0.0622  0.5542
  223POPC   GL2 3041   8.257   4.605   4.789 -0.0691 -0.1450 -0.0052
  223POPC   C1A 3042   8.443   4.463   5.211  0.0216  0.0216 -0.2220
  223POPC   D2A 3043   8.152   4.277   5.447 -0.1516 -0.2648 -0.0928
  223POPC   C3A 3044   8.251   3.883   5.582 -0.0430 -0.3200  0.2917
  223POPC   C4A 3045   8.259   3.700   5.998  0.1167 -0.1575  0.0975
  223POPC   C1B 3046   8.100   4.826   5.113 -0.1477 -0.0911  0.0884
  223POPC   C2B 3047   8.104   5.156   5.390  0.2220  0.0975 -0.1167
  223POPC   C3B 3048   8.144   5.252   5.846 -0.1419  0.2620  0.1496
  223POPC   C4B 3049   8.141   5.290   6.284  0.4135  0.0608 -0.0916
  224POPC   NC3 3050   4.353   2.257   4.265  0.1673 -0.2338 -0.1963
  224POPC   PO4 3051   4.540   2.591   4.455  0.0617 -0.0254  0.0770
  224POPC   GL1 3052   4.874   2.581   4.881  0.2063  0.0370 -0.1867
  224POPC   GL2 3053   4.541   2.609   4.980  0.2704 -0.2970  0.0961
  224POPC   C1A 3054   5.083   2.713   5.277  0.0358  0.3149 -0.2190
  224POPC   D2A 3055   5.014   2.771   5.730 -0.1723 -0.2535 -0.2948
  224POPC   C3A 3056   5.244   3.027   5.983  0.1933  0.0021  0.2104
  224POPC   C4A 3057   5.426   3.357   6.321 -0.0282  0.1682 -0.1211
  224POPC   C1B 3058   4.573   2.766   5.352 -0.2292  0.0609  0.1568
  224POPC   C2B 3059   4.423   2.967   5.704 -0.0010 -0.4419  0.1659
  224POPC   C3B 3060   4.625   3.081   6.053  0.1565  0.1342 -0.0318
  224POPC   C4B 3061   4.463   3.296   6.357 -0.1167  0.0459 -0.1171
  225POPC   NC3 3062   3.389   7.181   4.494  0.0926 -0.1664 -0.0719
  225POPC   PO4 3063   2.973   7.062   4.653  0.0152  0.1412 -0.0639
  225POPC   GL1 3064   2.894   7.233   5.149  0.2117 -0.0185 -0.0946
  225POPC   GL2 3065   3.082   7.457   5.276  0.1975 -0.0899  0.1688
  225POPC   C1A 3066   2.971   7.153   5.605  0.0721  0.1766  0.1151
  225POPC   D2A 3067   3.153   6.836   5.945  0.0035 -0.0075  0.2193
  225POPC   C3A 3068   2.833   6.853   6.323  0.1872  0.1011  0.0471
  225POPC   C4A 3069   2.539   7.096   6.496 -0.0175 -0.0053 -0.1599
  225POPC   C1B 3070   3.039   7.893   5.256  0.1590  0.0582 -0.1343
  225POPC   C2B 3071   3.176   8.369   5.465 -0.0619 -0.1942 -0.0003
  225POPC   C3B 3072   3.374   8.370   5.903 -0.1392  0.2308 -0.0533
  225POPC   C4B 3073   3.450   8.537   6.241 -0.2774 -0.0825 -0.1887
  226POPC   NC3 3074   3.101   5.772   4.072 -0.1528  0.0111 -0.2116
  226POPC   PO4 3075   3.190   5.865   4.544 -0.2237  0.0904  0.1685
  226POPC   GL1 3076   3.170   5.859   4.996  0.1750 -0.0975 -0.1824
  226POPC   GL2 3077   3.284   6.109   5.224 -0.2963 -0.2722  0.0147
  226POPC   C1A 3078   3.221   5.654   5.396 -0.0856  0.0813  0.0996
  226POPC   D2A 3079   3.307   5.435   5.694  0.3481  0.0070  0.1327
  226POPC   C3A 3080   3.410   5.524   6.117  0.3485  0.4227  0.0385
  226POPC   C4A 3081   3.755   5.438   6.449 -0.0890  0.1460  0.0170
  226POPC   C1B 3082   2.914   6.129   5.403  0.1176  0.0005  0.2117
  226POPC   C2B 3083   2.676   6.368   5.677  0.1022 -0.0058 -0.3005
  226POPC   C3B 3084   2.661   6.392   6.145  0.1834 -0.1612 -0.1890
  226POPC   C4B 3085   2.443   6.609   6.468  0.4470  0.2330  0.3494
  227POPC   NC3 3086   5.337   1.006   3.962 -0.0645 -0.2915 -0.1007
  227POPC   PO4 3087   5.240   1.320   4.159  0.0465 -0.1179 -0.3690
  227POPC   GL1 3088   5.250   1.206   4.625  0.0789 -0.1406 -0.4324
  227POPC   GL2 3089   5.300   0.953   4.751 -0.2959 -0.0315  0.3279
  227POPC   C1A 3090   5.203   1.336   5.111  0.0996 -0.0722  0.1014
  227POPC   D2A 3091   4.894   1.466   5.370  0.0332  0.1029 -0.2100
  227POPC   C3A 3092   4.991   1.173   5.724 -0.0169 -0.1202 -0.3630
  227POPC   C4A 3093   5.218   0.830   6.053  0.2305 -0.0811 -0.0641
  227POPC   C1B 3094   5.560   0.965   5.187  0.1997  0.1737  0.0423
  227POPC   C2B 3095   5.738   1.133   5.454  0.2437  0.0603 -0.0540
  227POPC   C3B 3096   5.677   1.083   6.005 -0.0343 -0.1115  0.1260
  227POPC   C4B 3097   5.810   0.992   6.462 -0.0896  0.0499 -0.1458
  228POPC   NC3 3098   5.871   7.373   4.449  0.0348  0.1138  0.3247
  228POPC   PO4 3099   6.003   7.017   4.585  0.1730 -0.2256 -0.1818
  228POPC   GL1 3100   6.018   7.262   4.939  0.0314  0.3143 -0.1473
  228POPC   GL2 3101   5.722   7.363   4.932 -0.0229  0.1347 -0.2308
  228POPC   C1A 3102   6.207   7.471   5.224 -0.5449 -0.0589 -0.1757
  228POPC   D2A 3103   6.310   7.702   5.564 -0.1660  0.0032 -0.0586
  228POPC   C3A 3104   6.766   7.687   5.616 -0.0036 -0.1466  0.2508
  228POPC   C4A 3105   7.250   7.608   5.540 -0.1547  0.1128 -0.2091
  228POPC   C1B 3106   5.605   7.085   5.208 -0.0198 -0.1350 -0.2905
  228POPC   C2B 3107   5.437   6.889   5.620 -0.1439  0.2736 -0.1739
  228POPC   C3B 3108   5.631   6.698   6.008 -0.1259 -0.0463 -0.0122
  228POPC   C4B 3109   5.834   6.589   6.435  0.1356 -0.0008 -0.0203
  229POPC   NC3 3110   3.548   0.316   4.486 -0.1560  0.1311 -0.0731
  229POPC   PO4 3111   3.905  -0.044   4.420 -0.1296  0.3512  0.2471
  229POPC   GL1 3112   3.705   0.005   4.832  0.0192  0.1718 -0.1317
  229POPC   GL2 3113   3.426   0.231   4.954  0.1671 -0.0715 -0.1274
  229POPC   C1A 3114   3.885  -0.024   5.267  0.1906  0.0152 -0.1748
  229POPC   D2A 3115   3.609  -0.016   5.602  0.2596 -0.1714 -0.1439
  229POPC   C3A 3116   3.559   0.260   5.956  0.1262  0.0798  0.1914
  229POPC   C4A 3117   3.542   0.500   6.211  0.3473  0.0979  0.0970
  229POPC   C1B 3118   3.315   0.372   5.327 -0.0739 -0.1791 -0.0720
  229POPC   C2B 3119   3.107   0.083   5.705  0.4451 -0.2237  0.2031
  229POPC   C3B 3120   2.662   0.144   6.075 -0.1090 -0.1398  0.2875
  229POPC   C4B 3121   2.551   0.447   6.305 -0.1485  0.0958 -0.0410
  230POPC   NC3 3122   1.813   8.906   4.388  0.2027  0.2173  0.0995
  230POPC   PO4 3123   2.270   8.832   4.306  0.2606 -0.0328  0.1581
  230POPC   GL1 3124   2.120   8.857   4.776 -0.0402  0.3017 -0.2755
  230POPC   GL2 3125   2.069   8.554   4.967 -0.3168 -0.0639 -0.1436
  230POPC   C1A 3126   1.880   9.095   5.080 -0.0578 -0.2317 -0.3426
  230POPC   D2A 3127   1.533   8.967   5.392 -0.1771  0.3053  0.3632
  230POPC   C3A 3128   1.447   9.070   5.733  0.0194 -0.1280 -0.1887
  230POPC   C4A 3129   1.365   9.094   6.150  0.1538 -0.0694 -0.1380
  230POPC   C1B 3130   1.982   8.175   5.236  0.1406  0.0026 -0.4547
  230POPC   C2B 3131   1.812   8.104   5.713  0.2134  0.1669 -0.1388
  230POPC   C3B 3132   1.734   8.308   6.097  0.1443  0.0271  0.0081
  230POPC   C4B 3133   1.761   8.735   6.294  0.2077 -0.0764  0.1490
  231POPC   NC3 3134   4.462   1.201   4.213  0.0265  0.4034  0.1536
  231POPC   PO4 3135   4.292   0.799   4.375  0.6464 -0.1478 -0.1022
  231POPC   GL1 3136   4.413   0.874   4.793 -0.0630  0.0401 -0.2216
  231POPC   GL2 3137   4.191   0.936   4.970 -0.0448  0.1874  0.2401
  231POPC   C1A 3138   4.724   1.036   5.072  0.0243  0.3550 -0.1650
  231POPC   D2A 3139   4.586   0.956   5.478  0.1166 -0.0594 -0.3333
  231POPC   C3A 3140   4.618   0.911   5.898 -0.0245 -0.0020  0.1059
  231POPC   C4A 3141   4.677   1.242   6.120 -0.0674  0.0743  0.1778
  231POPC   C1B 3142   4.090   0.828   5.350  0.0516 -0.0590 -0.0107
  231POPC   C2B 3143   4.154   1.224   5.577 -0.1753  0.1781 -0.0426
  231POPC   C3B 3144   4.494   1.492   5.637  0.0887 -0.0216  0.2317
  231POPC   C4B 3145   4.576   1.845   5.369 -0.0308  0.2567  0.4994
  232POPC   NC3 3146   1.323   3.888   4.094  0.0905  0.0380  0.1054
  232POPC   PO4 3147   1.608   3.975   4.515 -0.1920  0.0964 -0.1470
  232POPC   GL1 3148   1.714   4.121   4.827  0.4496  0.0765 -0.1672
  232POPC   GL2 3149   1.978   3.836   4.897  0.0786  0.1446 -0.0199
  232POPC   C1A 3150   2.010   4.483   5.062 -0.0193  0.0541 -0.1654
  232POPC   D2A 3151   2.242   4.711   5.338  0.1319  0.1285 -0.1204
  232POPC   C3A 3152   2.344   4.591   5.739  0.0841  0.3275 -0.4067
  232POPC   C4A 3153   2.535   4.218   5.885  0.0817 -0.1499  0.1066
  232POPC   C1B 3154   2.185   4.067   5.173 -0.2811  0.1886 -0.3211
  232POPC   C2B 3155   2.042   4.277   5.543  0.1577  0.1101  0.3280
  232POPC   C3B 3156   1.766   4.571   5.624 -0.0479 -0.0922 -0.2283
  232POPC   C4B 3157   1.568   4.632   5.280  0.0090  0.0536 -0.0372
  233POPC   NC3 3158   0.258   1.544   4.507 -0.0534 -0.1053 -0.0263
  233POPC   PO4 3159   0.567   1.912   4.637  0.1567 -0.0113  0.1896
  233POPC   GL1 3160   0.648   1.698   5.009  0.0412 -0.1729  0.0261
  233POPC   GL2 3161   0.480   1.469   5.018 -0.3159  0.4502 -0.3194
  233POPC   C1A 3162   0.531   1.721   5.476 -0.0703 -0.2137 -0.2273
  233POPC   D2A 3163   0.459   1.590   5.866 -0.1169  0.1303 -0.0568
  233POPC   C3A 3164   0.778   1.265   6.125 -0.1818 -0.1465 -0.3912
  233POPC   C4A 3165   0.900   1.325   6.578  0.2394 -0.1114 -0.0255
  233POPC   C1B 3166   0.396   1.202   5.513  0.0418 -0.2282 -0.0907
  233POPC   C2B 3167   0.576   0.955   5.687 -0.3622  0.2021  0.1149
  233POPC   C3B 3168   0.701   0.767   6.057 -0.4090  0.2538  0.1118
  233POPC   C4B 3169   0.921   0.710   6.460 -0.3034 -0.2925 -0.1972
  234POPC   NC3 3170   0.836   1.403   4.553 -0.0572 -0.1487 -0.0054
  234POPC   PO4 3171   0.998   0.971   4.485  0.1078  0.2634  0.0197
  234POPC   GL1 3172   1.036   1.154   4.917 -0.2130 -0.0970 -0.1152
  234POPC   GL2 3173   0.748   1.001   4.943 -0.1084 -0.1840  0.0586
  234POPC   C1A 3174   0.854   1.287   5.313 -0.2925 -0.0686 -0.2517
  234POPC   D2A 3175   0.961   1.450   5.671  0.0593 -0.0126  0.0990
  234POPC   C3A 3176   1.392   1.386   5.934  0.2172  0.1439  0.0235
  234POPC   C4A 3177   1.619   1.730   5.945 -0.0987  0.0015  0.1393
  234POPC   C1B 3178   0.877   0.790   5.330 -0.2299  0.1410  0.2097
  234POPC   C2B 3179   1.165   0.923   5.688  0.0050 -0.0517  0.0342
  234POPC   C3B 3180   1.177   1.030   6.190  0.2260  0.2337 -0.0697
  234POPC   C4B 3181   1.348   1.147   6.500 -0.1489 -0.2273  0.1678
  235POPC   NC3 3182   6.341   1.272   3.714 -0.3661  0.1231  0.0117
  235POPC   PO4 3183   6.497   1.224   4.015  0.1459  0.0674 -0.1076
  235POPC   GL1 3184   6.339   1.125   4.402 -0.0911  0.0442  0.0434
  235POPC   GL2 3185   6.043   1.201   4.502 -0.0462  0.1004  0.0547
  235POPC   C1A 3186   6.416   1.160   4.853  0.0257  0.2015  0.0179
  235POPC   D2A 3187   6.687   0.990   5.133  0.0872 -0.0360  0.3049
  235POPC   C3A 3188   6.731   0.994   5.541 -0.3352 -0.1926  0.1017
  235POPC   C4A 3189   6.855   1.034   5.971 -0.0475 -0.0082  0.1563
  235POPC   C1B 3190   5.940   1.238   4.928  0.1057 -0.3978  0.1878
  235POPC   C2B 3191   5.715   1.578   4.956  0.0785  0.0556  0.1130
  235POPC   C3B 3192   5.469   1.819   4.991  0.0287  0.0148 -0.0466
  235POPC   C4B 3193   5.185   1.915   5.335  0.0468 -0.4288  0.3753
  236POPC   NC3 3194   7.489   1.285   3.496  0.2646 -0.4292  0.0610
  236POPC   PO4 3195   7.269   1.718   3.627  0.1345 -0.1594  0.0392
  236POPC   GL1 3196   7.255   1.364   3.912 -0.0248  0.1130 -0.4087
  236POPC   GL2 3197   6.987   1.312   4.198  0.1043  0.0080 -0.1524
  236POPC   C1A 3198   7.435   1.088   4.281  0.1590  0.1388  0.1371
  236POPC   D2A 3199   7.570   0.848   4.642 -0.0787  0.0931  0.2159
  236POPC   C3A 3200   7.222   0.520   4.736  0.5028  0.0350 -0.0627
  236POPC   C4A 3201   6.795   0.553   4.895 -0.0796 -0.0401  0.0702
  236POPC   C1B 3202   6.876   1.429   4.514  0.1511 -0.2737 -0.0531
  236POPC   C2B 3203   6.767   1.524   4.920 -0.3028  0.1380  0.1875
  236POPC   C3B 3204   6.616   1.425   5.281 -0.1526 -0.0798 -0.0009
  236POPC   C4B 3205   6.593   1.439   5.669  0.1079 -0.0920  0.0713
  237POPC   NC3 3206   2.887   4.857   4.052 -0.0704  0.3449 -0.3169
  237POPC   PO4 3207   2.623   4.982   4.405  0.2447  0.1621  0.0192
  237POPC   GL1 3208   2.689   5.139   4.862  0.3463  0.0599  0.1969
  237POPC   GL2 3209   2.863   5.456   4.870  0.2167  0.3907 -0.6520
  237POPC   C1A 3210   2.430   5.230   5.231 -0.0410 -0.0502  0.3404
  237POPC   D2A 3211   2.565   5.027   5.661  0.1226  0.0130 -0.2693
  237POPC   C3A 3212   2.846   5.344   5.954  0.0291  0.1018  0.0222
  237POPC   C4A 3213   2.639   5.408   6.286 -0.3362 -0.0619  0.1383
  237POPC   C1B 3214   2.918   5.220   5.338 -0.0029 -0.1747 -0.0388
  237POPC   C2B 3215   3.060   5.028   5.576  0.0233  0.1361  0.0369
  237POPC   C3B 3216   3.301   4.923   6.049  0.0036  0.0449 -0.1747
  237POPC   C4B 3217   3.430   4.693   6.356  0.3134 -0.1405 -0.1314
  238POPC   NC3 3218   9.485   6.541   4.048  0.0375 -0.4550 -0.0346
  238POPC   PO4 3219   9.227   6.335   4.264 -0.0379  0.1303 -0.0646
  238POPC   GL1 3220   9.185   6.448   4.731  0.1619 -0.2262  0.2783
  238POPC   GL2 3221   9.399   6.219   4.748 -0.1263 -0.1039 -0.0698
  238POPC   C1A 3222   9.325   6.716   5.022 -0.1130 -0.1130 -0.0407
  238POPC   D2A 3223   9.594   6.715   5.409  0.1776  0.0773 -0.0781
  238POPC   C3A 3224   9.452   6.911   5.740  0.0241 -0.0229  0.0355
  238POPC   C4A 3225   9.242   7.066   6.117  0.0585 -0.0617  0.2512
  238POPC   C1B 3226   9.380   6.084   5.214  0.2388  0.1584  0.1732
  238POPC   C2B 3227   9.411   6.094   5.590 -0.0093 -0.1982 -0.2373
  238POPC   C3B 3228   9.584   6.300   5.908 -0.0413 -0.0285 -0.2486
  238POPC   C4B 3229   9.621   6.605   6.198  0.1370  0.1813  0.2566
  239POPC   NC3 3230   3.974   5.012   4.165  0.0494 -0.0714 -0.2582
  239POPC   PO4 3231   4.065   4.846   4.579 -0.3570  0.2252 -0.1492
  239POPC   GL1 3232   4.315   4.883   5.025  0.1376  0.0419 -0.1596
  239POPC   GL2 3233   4.635   4.858   5.038 -0.0590 -0.0026 -0.0699
  239POPC   C1A 3234   4.210   5.075   5.420  0.1470  0.0620  0.1416
  239POPC   D2A 3235   4.165   5.579   5.494  0.0860 -0.3515 -0.2293
  239POPC   C3A 3236   3.694   5.782   5.527 -0.1317  0.1338  0.0381
  239POPC   C4A 3237   3.469   5.930   5.828 -0.1555  0.2778 -0.0793
  239POPC   C1B 3238   4.669   5.007   5.432 -0.1804  0.0469  0.2290
  239POPC   C2B 3239   4.648   4.912   5.938  0.0901 -0.1251  0.0680
  239POPC   C3B 3240   4.485   4.880   6.400 -0.0613 -0.0439  0.0501
  239POPC   C4B 3241   4.510   4.822   6.820 -0.1018  0.0828 -0.4496
  240POPC   NC3 3242   6.194   4.497   4.276 -0.0372  0.0333  0.3390
  240POPC   PO4 3243   6.590   4.478   4.520  0.1138 -0.3513  0.3444
  240POPC   GL1 3244   6.699   4.519   4.915 -0.1803 -0.0895  0.3040
  240POPC   GL2 3245   7.085   4.584   4.900  0.2489  0.1730 -0.0570
  240POPC   C1A 3246   6.755   4.474   5.402  0.2017  0.1521  0.1460
  240POPC   D2A 3247   6.891   4.724   5.746 -0.0766 -0.1006  0.3176
  240POPC   C3A 3248   7.342   4.759   5.750  0.0899 -0.1958 -0.0719
  240POPC   C4A 3249   7.764   4.983   5.908 -0.1559  0.1991 -0.0994
  240POPC   C1B 3250   7.200   4.834   5.251  0.1429 -0.1278 -0.0736
  240POPC   C2B 3251   7.136   5.198   5.576 -0.2620  0.0829  0.2524
  240POPC   C3B 3252   7.296   5.265   6.082  0.0498 -0.0077 -0.0955
  240POPC   C4B 3253   7.313   5.617   6.327  0.1204 -0.0292 -0.1446
  241POPC   NC3 3254   3.796   4.466   4.802 -0.1188  0.2429 -0.0002
  241POPC   PO4 3255   3.490   4.453   5.115 -0.1389 -0.0159  0.1369
  241POPC   GL1 3256   3.501   4.375   5.401 -0.0568 -0.0575 -0.1472
  241POPC   GL2 3257   3.354   4.155   5.510  0.0810 -0.2856 -0.1322
  241POPC   C1A 3258   3.950   4.381   5.556  0.0785 -0.0100  0.1631
  241POPC   D2A 3259   4.104   4.323   5.923  0.0392 -0.0333 -0.1301
  241POPC   C3A 3260   4.017   3.872   6.111  0.0076 -0.2634  0.0433
  241POPC   C4A 3261   4.046   3.510   6.453  0.1073 -0.0120  0.2714
  241POPC   C1B 3262   3.239   4.306   5.900 -0.3520 -0.0913 -0.2690
  241POPC   C2B 3263   2.987   4.444   6.381 -0.0879 -0.0148 -0.1137
  241POPC   C3B 3264   3.038   4.416   6.778  0.0183  0.0357  0.2850
  241POPC   C4B 3265   3.380   4.043   6.822 -0.2245  0.1364 -0.1673
  242POPC   NC3 3266   5.792   2.763   4.498  0.0506  0.0659 -0.0755
  242POPC   PO4 3267   6.140   3.066   4.405  0.0917  0.1296 -0.0017
  242POPC   GL1 3268   6.021   3.120   4.808 -0.1918  0.1681  0.0570
  242POPC   GL2 3269   6.264   3.402   5.007 -0.2247  0.0841 -0.0794
  242POPC   C1A 3270   6.264   2.886   5.048  0.1089  0.0288  0.1140
  242POPC   D2A 3271   6.580   2.653   5.110 -0.0438  0.2593  0.2319
  242POPC   C3A 3272   6.397   2.264   5.266 -0.0581  0.2459 -0.1809
  242POPC   C4A 3273   6.473   1.870   5.364 -0.0486 -0.3843  0.2485
  242POPC   C1B 3274   6.469   3.348   5.497  0.2802  0.1640 -0.0490
  242POPC   C2B 3275   6.415   3.161   5.893  0.0682  0.0579  0.0345
  242POPC   C3B 3276   6.567   3.446   6.203  0.0563 -0.0401  0.1670
  242POPC   C4B 3277   6.456   3.635   6.609  0.1404  0.2607 -0.2117
  243POPC   NC3 3278   0.731   0.734   4.125 -0.1797  0.0137 -0.1101
  243POPC   PO4 3279   0.512   1.224   4.186 -0.0215 -0.0605 -0.0146
  243POPC   GL1 3280   0.379   1.077   4.633  0.0049  0.0943  0.0247
  243POPC   GL2 3281   0.519   0.750   4.594  0.0301 -0.5236  0.3022
  243POPC   C1A 3282   0.171   1.080   5.080 -0.3932  0.1870 -0.2414
  243POPC   D2A 3283  -0.079   1.132   5.430  0.1750  0.1544 -0.0467
  243POPC   C3A 3284   0.099   0.995   5.857  0.3344  0.1427 -0.2617
  243POPC   C4A 3285   0.287   0.584   5.876 -0.0285  0.0074 -0.2254
  243POPC   C1B 3286   0.277   0.376   4.382 -0.0319  0.0235  0.0535
  243POPC   C2B 3287  -0.051   0.157   4.107  0.2369  0.1573 -0.2521
  243POPC   C3B 3288  -0.541   0.056   4.160 -0.2939  0.4045  0.1057
  243POPC   C4B 3289  -0.761  -0.147   4.506  0.4041 -0.0196 -0.2366
  244POPC   NC3 3290   1.341   6.793   4.443  0.1671  0.3044  0.0284
  244POPC   PO4 3291   1.726   7.092   4.509  0.1564  0.0142  0.3602
  244POPC   GL1 3292   1.613   6.766   4.905 -0.1366  0.1847 -0.0174
  244POPC   GL2 3293   1.324   6.614   4.893  0.0973 -0.0046  0.0382
  244POPC   C1A 3294   1.916   6.666   5.216 -0.1036 -0.0552 -0.1215
  244POPC   D2A 3295   2.129   7.107   5.337  0.1850 -0.1343 -0.2212
  244POPC   C3A 3296   2.469   7.339   5.539 -0.0706 -0.1842 -0.1662
  244POPC   C4A 3297   2.684   7.684   5.738 -0.4179 -0.0892  0.2279
  244POPC   C1B 3298   1.340   6.535   5.311  0.0678 -0.0576  0.2839
  244POPC   C2B 3299   1.054   6.213   5.669  0.2161  0.1186 -0.0628
  244POPC   C3B 3300   1.044   5.871   6.019  0.2698 -0.1627  0.1057
  244POPC   C4B 3301   1.190   5.874   6.552  0.1500  0.0881 -0.0781
  245POPC   NC3 3302   0.326   3.379   4.516  0.2421 -0.0542 -0.0912
  245POPC   PO4 3303   0.038   3.801   4.562 -0.0767  0.2345 -0.2685
  245POPC   GL1 3304   0.193   4.025   4.973 -0.1063  0.6239 -0.1029
  245POPC   GL2 3305   0.252   4.385   5.008  0.0269 -0.5051  0.2578
  245POPC   C1A 3306   0.461   4.115   5.346 -0.1664  0.0713 -0.2929
  245POPC   D2A 3307   0.783   4.413   5.533  0.1531 -0.2445  0.0646
  245POPC   C3A 3308   0.718   4.490   5.948 -0.0285 -0.2884 -0.0165
  245POPC   C4A 3309   0.318   4.514   6.271 -0.3825 -0.0781  0.0460
  245POPC   C1B 3310   0.272   4.548   5.486  0.0049  0.2344  0.0072
  245POPC   C2B 3311   0.357   4.915   5.801  0.2288  0.0608  0.0191
  245POPC   C3B 3312   0.621   5.094   6.130 -0.2348 -0.1618  0.1089
  245POPC   C4B 3313   0.984   4.907   6.241  0.1590 -0.0595  0.0138
  246POPC   NC3 3314   1.507   1.133   4.637  0.0937  0.0745 -0.0623
  246POPC   PO4 3315   1.892   1.002   4.496 -0.0828  0.3450 -0.2491
  246POPC   GL1 3316   1.869   0.937   4.918 -0.1245  0.0936 -0.0082
  246POPC   GL2 3317   1.693   0.563   4.761  0.1002 -0.0477  0.0793
  246POPC   C1A 3318   1.813   0.742   5.294 -0.1476 -0.2566  0.1040
  246POPC   D2A 3319   1.873   0.791   5.750  0.1266  0.1605 -0.0699
  246POPC   C3A 3320   1.549   0.774   6.106  0.0672 -0.1029  0.0070
  246POPC   C4A 3321   1.529   0.701   6.560 -0.0592  0.1912 -0.1416
  246POPC   C1B 3322   1.685   0.289   5.169 -0.0713 -0.3129 -0.2118
  246POPC   C2B 3323   1.833   0.291   5.611 -0.1301 -0.0481 -0.0865
  246POPC   C3B 3324   1.527   0.278   6.010  0.0491  0.1590  0.2489
  246POPC   C4B 3325   1.234   0.271   6.344 -0.1201  0.1110  0.1699
  247POPC   NC3 3326   9.393   5.801   4.160  0.0552 -0.0458  0.0677
  247POPC   PO4 3327   9.196   5.707   4.495  0.0447  0.2407  0.0563
  247POPC   GL1 3328   9.001   5.927   4.851 -0.1798 -0.4089 -0.0760
  247POPC   GL2 3329   8.962   5.654   5.012  0.3610  0.1341  0.4432
  247POPC   C1A 3330   8.843   5.988   5.375  0.3219 -0.1090 -0.1156
  247POPC   D2A 3331   8.889   5.976   5.878 -0.1687  0.0055 -0.0445
  247POPC   C3A 3332   9.242   6.079   6.136  0.1311  0.5209 -0.0752
  247POPC   C4A 3333   9.230   6.485   6.436  0.0942 -0.0886  0.0074
  247POPC   C1B 3334   9.188   5.635   5.347 -0.2027  0.0103  0.2141
  247POPC   C2B 3335   9.317   5.652   5.764  0.0463 -0.0019 -0.0175
  247POPC   C3B 3336   9.672   5.773   6.024 -0.3886  0.0523  0.1912
  247POPC   C4B 3337  10.055   5.540   6.107 -0.4264  0.0642  0.2534
  248POPC   NC3 3338   3.591   9.123   4.285  0.2744 -0.2918  0.2959
  248POPC   PO4 3339   3.589   9.172   4.686  0.1634  0.0142 -0.1203
  248POPC   GL1 3340   3.257   9.410   4.922 -0.2982 -0.2992  0.0092
  248POPC   GL2 3341   2.922   9.310   4.913  0.2633 -0.2210 -0.2451
  248POPC   C1A 3342   3.268   9.520   5.317  0.1343 -0.2181 -0.0529
  248POPC   D2A 3343   3.269   9.307   5.739 -0.2406 -0.2690  0.1447
  248POPC   C3A 3344   3.180   9.490   6.080  0.2955 -0.0398  0.2065
  248POPC   C4A 3345   3.110   9.932   6.241  0.0323 -0.2903  0.2231
  248POPC   C1B 3346   2.945   9.086   5.339  0.1690  0.1386  0.0658
  248POPC   C2B 3347   2.946   8.748   5.711  0.1036  0.0448  0.0179
  248POPC   C3B 3348   2.795   8.605   6.113 -0.0915  0.0842  0.0294
  248POPC   C4B 3349   2.955   8.583   6.444 -0.2635  0.0988 -0.3171
  249POPC   NC3 3350   2.346   1.078   4.859 -0.0439  0.0631 -0.1604
  249POPC   PO4 3351   2.009   1.470   4.925  0.0002  0.2210 -0.5273
  249POPC   GL1 3352   1.959   1.348   5.267 -0.1657  0.2423 -0.2490
  249POPC   GL2 3353   2.211   1.189   5.406 -0.2548  0.4406  0.2444
  249POPC   C1A 3354   1.803   1.298   5.689  0.2818 -0.0180  0.0471
  249POPC   D2A 3355   1.798   1.217   6.102 -0.2073 -0.2392 -0.0265
  249POPC   C3A 3356   1.792   1.495   6.420 -0.1139 -0.0136  0.0449
  249POPC   C4A 3357   1.620   1.781   6.668 -0.0138 -0.2545  0.1267
  249POPC   C1B 3358   2.292   1.041   5.830 -0.1732  0.1201  0.1438
  249POPC   C2B 3359   2.251   0.868   6.151  0.0479 -0.3791  0.1959
  249POPC   C3B 3360   2.131   0.629   6.581  0.2461 -0.3078 -0.1881
  249POPC   C4B 3361   1.932   0.742   6.919  0.4965 -0.2039 -0.0123
  250POPC   NC3 3362   8.050   4.331   4.261  0.0617 -0.2049 -0.2754
  250POPC   PO4 3363   8.412   4.132   4.306 -0.2500  0.2436  0.0818
  250POPC   GL1 3364   8.220   4.122   4.757  0.0904  0.3974 -0.2552
  250POPC   GL2 3365   8.249   3.813   4.933  0.1123  0.3298  0.3390
  250POPC   C1A 3366   7.924   4.228   4.992  0.1955 -0.1269 -0.1684
  250POPC   D2A 3367   7.547   4.329   5.122 -0.3012  0.1152 -0.0518
  250POPC   C3A 3368   7.218   4.287   5.483 -0.4101 -0.5544 -0.1454
  250POPC   C4A 3369   6.909   4.029   5.595 -0.1880  0.1282  0.1380
  250POPC   C1B 3370   8.102   3.592   5.241  0.1789  0.2085 -0.2237
  250POPC   C2B 3371   7.924   3.547   5.695  0.0292  0.1576 -0.0652
  250POPC   C3B 3372   7.650   3.225   5.832  0.1338  0.2935 -0.0794
  250POPC   C4B 3373   7.424   2.861   6.009  0.5305 -0.0399 -0.0955
  251POPC   NC3 3374   8.892   1.426   3.310 -0.0790 -0.1308 -0.1720
  251POPC   PO4 3375   9.333   1.316   3.575 -0.0155 -0.0816 -0.0504
  251POPC   GL1 3376   9.171   1.421   3.870  0.1972  0.0878 -0.0182
  251POPC   GL2 3377   9.192   1.165   4.042  0.1069 -0.2382  0.1826
  251POPC   C1A 3378   8.844   1.538   4.085  0.4750 -0.1590  0.0390
  251POPC   D2A 3379   8.505   1.530   4.380 -0.0262  0.0354  0.3751
  251POPC   C3A 3380   8.393   1.215   4.655  0.1254 -0.0805  0.1511
  251POPC   C4A 3381   8.026   0.914   4.833  0.0143 -0.0145 -0.3297
  251POPC   C1B 3382   9.003   1.292   4.478 -0.0264  0.1460 -0.4536
  251POPC   C2B 3383   8.850   1.283   4.927 -0.1682 -0.2911 -0.2136
  251POPC   C3B 3384   8.773   1.045   5.292  0.0705  0.1750  0.1856
  251POPC   C4B 3385   8.431   1.023   5.405  0.4005 -0.1149 -0.4697
  252POPC   NC3 3386   8.743   0.443   3.139 -0.2003  0.2673 -0.0520
  252POPC   PO4 3387   8.654   0.983   3.147 -0.2405  0.0880 -0.0141
  252POPC   GL1 3388   8.837   0.970   3.516 -0.1628  0.0349  0.1414
  252POPC   GL2 3389   8.749   1.177   3.714 -0.1440 -0.3379 -0.0048
  252POPC   C1A 3390   9.079   0.743   3.815  0.1207  0.2038  0.1460
  252POPC   D2A 3391   9.422   0.633   4.165  0.0466  0.0110 -0.2007
  252POPC   C3A 3392   9.235   0.746   4.596 -0.4545 -0.0434  0.0117
  252POPC   C4A 3393   9.126   0.702   4.944 -0.0349  0.1386 -0.0972
  252POPC   C1B 3394   8.372   1.351   3.965 -0.0417  0.1697 -0.1542
  252POPC   C2B 3395   7.943   1.555   3.914 -0.3825 -0.0811 -0.3369
  252POPC   C3B 3396   7.623   1.653   4.182  0.0649 -0.2012  0.1817
  252POPC   C4B 3397   7.349   1.608   4.416  0.2134  0.2743 -0.1220
  253POPC   NC3 3398   9.295   3.811   4.058 -0.1362  0.1539 -0.0237
  253POPC   PO4 3399   9.337   4.056   4.375  0.2671  0.2299 -0.0699
  253POPC   GL1 3400   9.352   4.206   4.769 -0.2804 -0.1544  0.0399
  253POPC   GL2 3401   9.366   3.901   4.983 -0.6029  0.0355  0.0808
  253POPC   C1A 3402   9.463   4.397   5.119 -0.1728 -0.1276  0.1869
  253POPC   D2A 3403   9.529   4.265   5.542  0.1058  0.0500 -0.1227
  253POPC   C3A 3404   9.366   4.145   5.892  0.1141  0.1188 -0.1885
  253POPC   C4A 3405   9.345   3.976   6.223 -0.0875  0.1366 -0.1865
  253POPC   C1B 3406   9.041   4.115   5.186  0.3704  0.2871  0.0034
  253POPC   C2B 3407   8.748   4.263   5.535  0.2689 -0.0895 -0.0009
  253POPC   C3B 3408   8.612   4.470   5.972 -0.0081 -0.2478 -0.0459
  253POPC   C4B 3409   8.450   4.428   6.436  0.2677 -0.0987 -0.1541
  254POPC   NC3 3410   6.213   7.816   3.848  0.0573 -0.1400  0.2358
  254POPC   PO4 3411   6.153   8.294   3.838  0.0420  0.2035  0.1249
  254POPC   GL1 3412   6.206   8.313   4.200 -0.1772 -0.0021  0.0634
  254POPC   GL2 3413   6.406   8.617   4.364  0.0221 -0.0262  0.1719
  254POPC   C1A 3414   6.060   8.301   4.589  0.3411  0.0412 -0.0617
  254POPC   D2A 3415   6.218   8.346   5.046 -0.0123 -0.1768 -0.2374
  254POPC   C3A 3416   6.028   8.207   5.426  0.0279  0.3057  0.2609
  254POPC   C4A 3417   5.783   7.993   5.666 -0.0705  0.2370  0.0195
  254POPC   C1B 3418   6.583   8.300   4.670  0.1284 -0.2828  0.1171
  254POPC   C2B 3419   6.961   8.273   4.785  0.2925 -0.0773  0.0998
  254POPC   C3B 3420   7.273   8.357   4.959 -0.1951 -0.2092  0.2224
  254POPC   C4B 3421   7.626   8.507   5.057 -0.1338  0.2977 -0.3141
  255POPC   NC3 3422   9.091   2.518   4.247 -0.1741 -0.1952 -0.0978
  255POPC   PO4 3423   9.159   2.829   4.535 -0.1634  0.0199  0.1156
  255POPC   GL1 3424   9.082   2.516   4.818 -0.0045 -0.2119 -0.0711
  255POPC   GL2 3425   9.393   2.653   5.050  0.5554 -0.0173 -0.1726
  255POPC   C1A 3426   8.963   2.265   5.155 -0.2923 -0.0153 -0.4006
  255POPC   D2A 3427   9.058   2.100   5.609 -0.3151 -0.0541 -0.2333
  255POPC   C3A 3428   8.846   2.250   5.985  0.0232  0.2632  0.1496
  255POPC   C4A 3429   8.533   2.314   6.253  0.0252 -0.1871 -0.3660
  255POPC   C1B 3430   9.281   2.562   5.483 -0.1831 -0.2738 -0.0791
  255POPC   C2B 3431   9.280   2.513   5.922 -0.1047  0.0845 -0.2416
  255POPC   C3B 3432   9.082   2.480   6.338  0.2951 -0.2037  0.0681
  255POPC   C4B 3433   8.898   2.911   6.454 -0.2869 -0.2450 -0.2677
  256POPC   NC3 3434   4.047   9.183   4.502  0.0607  0.1205 -0.1313
  256POPC   PO4 3435   4.400   8.832   4.526 -0.1521 -0.3072 -0.2299
  256POPC   GL1 3436   4.312   8.721   4.913  0.0450  0.3619  0.1440
  256POPC   GL2 3437   3.937   8.853   4.930  0.0780 -0.0189 -0.0258
  256POPC   C1A 3438   4.290   9.003   5.281 -0.1477 -0.1330 -0.1363
  256POPC   D2A 3439   4.253   8.997   5.724  0.0693  0.3125 -0.0995
  256POPC   C3A 3440   4.189   9.324   6.113 -0.1289 -0.2649 -0.1547
  256POPC   C4A 3441   3.858   9.300   6.529  0.0735  0.1694 -0.1684
  256POPC   C1B 3442   3.882   8.762   5.375 -0.1831  0.0897  0.0951
  256POPC   C2B 3443   3.987   8.584   5.817  0.0589  0.2846  0.0439
  256POPC   C3B 3444   3.981   8.330   6.249  0.1112 -0.0844 -0.1870
  256POPC   C4B 3445   3.933   8.046   6.597  0.1843  0.1755 -0.3278
  257POPC   NC3 3446   7.302   2.636   3.705 -0.3487 -0.0626 -0.1041
  257POPC   PO4 3447   7.331   2.448   4.109 -0.0758  0.3414  0.3776
  257POPC   GL1 3448   7.164   2.236   4.528 -0.2376 -0.1304 -0.0835
  257POPC   GL2 3449   6.964   2.397   4.783  0.1518  0.0698 -0.0337
  257POPC   C1A 3450   7.213   1.840   4.847  0.3313 -0.0986 -0.2325
  257POPC   D2A 3451   7.185   1.415   5.120  0.2282 -0.1289 -0.1156
  257POPC   C3A 3452   7.146   1.291   5.516  0.0560 -0.0055 -0.0423
  257POPC   C4A 3453   7.198   1.538   5.859 -0.1202 -0.2227  0.0737
  257POPC   C1B 3454   7.066   2.512   5.187 -0.2281  0.0331  0.0165
  257POPC   C2B 3455   6.802   2.308   5.477 -0.2099 -0.0393  0.0651
  257POPC   C3B 3456   6.375   2.206   5.773  0.0087  0.2670 -0.0524
  257POPC   C4B 3457   6.312   1.815   5.979  0.2414  0.1220  0.0718
  258POPC   NC3 3458   8.141   1.078   3.016  0.0700  0.1385 -0.3089
  258POPC   PO4 3459   7.892   1.453   3.120  0.0591  0.1775  0.0554
  258POPC   GL1 3460   8.005   1.233   3.521 -0.0994 -0.1334  0.1065
  258POPC   GL2 3461   8.267   1.059   3.498  0.4470 -0.3262 -0.0392
  258POPC   C1A 3462   7.884   0.949   3.969  0.0340  0.0023  0.0909
  258POPC   D2A 3463   7.718   0.560   4.140  0.2842 -0.1409 -0.2870
  258POPC   C3A 3464   7.592   0.219   3.939 -0.2207  0.0155 -0.1779
  258POPC   C4A 3465   7.509  -0.116   3.585  0.1103 -0.0709 -0.3547
  258POPC   C1B 3466   8.387   0.814   3.737 -0.2806  0.0788  0.0489
  258POPC   C2B 3467   8.633   0.463   3.727  0.0842  0.2231 -0.2819
  258POPC   C3B 3468   8.684   0.072   4.068 -0.0170  0.1074  0.0781
  258POPC   C4B 3469   8.721  -0.371   4.078  0.0216  0.0127  0.0475
  259POPC   NC3 3470   5.672   4.474   4.387 -0.1498 -0.1298  0.1129
  259POPC   PO4 3471   5.283   4.606   4.587  0.0277  0.0866  0.1269
  259POPC   GL1 3472   5.505   4.344   4.828 -0.2211 -0.0505 -0.4033
  259POPC   GL2 3473   5.385   4.423   5.174  0.2127 -0.0339  0.2728
  259POPC   C1A 3474   5.549   3.946   5.046 -0.1885  0.4186 -0.2371
  259POPC   D2A 3475   5.594   3.681   5.544 -0.3424 -0.0111  0.2665
  259POPC   C3A 3476   5.559   3.301   5.701  0.0509  0.3057  0.0220
  259POPC   C4A 3477   5.848   3.065   5.905  0.1149 -0.0686  0.1736
  259POPC   C1B 3478   5.222   4.562   5.485  0.3598 -0.3064 -0.0327
  259POPC   C2B 3479   4.980   4.377   5.864 -0.1254  0.2719 -0.1011
  259POPC   C3B 3480   5.016   4.216   6.259 -0.2905  0.4250  0.1972
  259POPC   C4B 3481   5.365   4.352   6.489 -0.0998  0.0024  0.0663
  260POPC   NC3 3482   0.923   4.645   4.409  0.3039  0.0040  0.1611
  260POPC   PO4 3483   0.608   4.342   4.639 -0.1247 -0.1210 -0.0859
  260POPC   GL1 3484   0.787   4.327   5.031  0.1436 -0.1201 -0.0506
  260POPC   GL2 3485   0.906   3.981   4.930  0.0280 -0.0594 -0.3850
  260POPC   C1A 3486   1.176   4.244   5.344 -0.1900  0.2039 -0.1575
  260POPC   D2A 3487   1.539   4.120   5.571  0.4815  0.1512  0.1933
  260POPC   C3A 3488   1.404   3.700   5.680 -0.1920  0.0448 -0.0569
  260POPC   C4A 3489   1.085   3.446   5.559 -0.2005 -0.0779 -0.0296
  260POPC   C1B 3490   0.894   3.864   5.407 -0.0111 -0.0755 -0.3773
  260POPC   C2B 3491   1.058   4.054   5.852 -0.1208 -0.0701 -0.2624
  260POPC   C3B 3492   0.840   4.206   6.327  0.0745 -0.0776 -0.2053
  260POPC   C4B 3493   0.783   4.563   6.558  0.2017 -0.0269  0.2332
  261POPC   NC3 3494   8.775   3.290   4.499  0.0676 -0.0379 -0.2319
  261POPC   PO4 3495   8.792   3.119   4.175 -0.0722 -0.1112 -0.1155
  261POPC   GL1 3496   8.702   2.751   4.427  0.1057 -0.1479  0.1026
  261POPC   GL2 3497   8.739   2.851   4.766 -0.1892  0.1302 -0.0803
  261POPC   C1A 3498   8.500   2.434   4.635 -0.2781  0.1596  0.2185
  261POPC   D2A 3499   8.450   2.234   5.053  0.0536 -0.1730 -0.1590
  261POPC   C3A 3500   8.311   1.698   4.948  0.1301  0.4364 -0.2532
  261POPC   C4A 3501   8.057   1.388   5.084  0.2273 -0.2693 -0.0231
  261POPC   C1B 3502   8.581   2.724   5.026 -0.2916  0.2337  0.3049
  261POPC   C2B 3503   8.397   2.673   5.369 -0.3976 -0.2566  0.3227
  261POPC   C3B 3504   8.386   2.620   5.799  0.3353 -0.2441 -0.0687
  261POPC   C4B 3505   8.451   2.775   6.162  0.0695  0.0875  0.2090
  262POPC   NC3 3506   6.690   4.247   4.071  0.0837 -0.1481 -0.0639
  262POPC   PO4 3507   7.060   4.233   4.251 -0.0841  0.2033 -0.2329
  262POPC   GL1 3508   6.974   4.126   4.616  0.1695  0.1157  0.0176
  262POPC   GL2 3509   7.171   3.884   4.688 -0.1912  0.0791 -0.1208
  262POPC   C1A 3510   6.985   4.050   5.099 -0.4300  0.0731  0.1709
  262POPC   D2A 3511   7.295   3.808   5.276 -0.0050  0.0616  0.0059
  262POPC   C3A 3512   6.960   3.552   5.455 -0.2219  0.2219  0.0782
  262POPC   C4A 3513   6.903   3.232   5.780 -0.2760 -0.3212 -0.1460
  262POPC   C1B 3514   7.249   3.434   4.936  0.2667 -0.0843  0.2514
  262POPC   C2B 3515   7.351   3.116   5.090  0.2570  0.1986 -0.0489
  262POPC   C3B 3516   7.499   2.902   5.483  0.2828  0.1272 -0.2440
  262POPC   C4B 3517   7.413   2.464   5.533 -0.0874  0.0099  0.0994
  263POPC   NC3 3518   5.934   0.180   4.172  0.1503  0.2260  0.0509
  263POPC   PO4 3519   6.375   0.049   4.049 -0.0576  0.0387  0.2607
  263POPC   GL1 3520   6.448  -0.061   4.404  0.3629  0.1650 -0.4479
  263POPC   GL2 3521   6.181  -0.145   4.538 -0.1836  0.3807  0.1000
  263POPC   C1A 3522   6.517   0.160   4.856 -0.2602 -0.1469  0.0654
  263POPC   D2A 3523   6.338   0.428   5.090  0.3936  0.1689 -0.0265
  263POPC   C3A 3524   6.620   0.431   5.404 -0.0878 -0.0195  0.1174
  263POPC   C4A 3525   6.673   0.573   5.775  0.2076 -0.0219  0.2622
  263POPC   C1B 3526   6.401  -0.468   4.707 -0.2338  0.3623  0.0656
  263POPC   C2B 3527   6.446  -0.505   5.219  0.3983  0.2784 -0.1378
  263POPC   C3B 3528   6.522  -0.373   5.733 -0.1396  0.5915 -0.2454
  263POPC   C4B 3529   6.554  -0.629   6.053 -0.3859  0.1252  0.1826
  264POPC   NC3 3530   4.463   4.494   4.717  0.0490 -0.0194 -0.2261
  264POPC   PO4 3531   4.247   4.282   4.944  0.1141  0.1080  0.0524
  264POPC   GL1 3532   4.375   4.411   5.323  0.3299 -0.2376  0.1080
  264POPC   GL2 3533   4.712   4.434   5.383 -0.2675  0.2448 -0.0055
  264POPC   C1A 3534   4.387   4.632   5.663  0.0550  0.0746 -0.1372
  264POPC   D2A 3535   4.125   4.870   5.842 -0.1491 -0.0106  0.1081
  264POPC   C3A 3536   4.274   5.200   5.959 -0.2217 -0.1735  0.0963
  264POPC   C4A 3537   4.357   5.613   5.957 -0.1088 -0.3211  0.1799
  264POPC   C1B 3538   4.623   4.123   5.615  0.1608 -0.1536 -0.2483
  264POPC   C2B 3539   4.298   3.972   5.673 -0.1162 -0.2193  0.0057
  264POPC   C3B 3540   3.814   3.887   5.692  0.1208  0.0763 -0.2255
  264POPC   C4B 3541   3.395   3.854   5.897 -0.1956 -0.0669 -0.0486
  265POPC   NC3 3542   6.884   8.847   3.073  0.0143  0.0929  0.0044
  265POPC   PO4 3543   7.274   8.587   3.254 -0.0342 -0.2149  0.1427
  265POPC   GL1 3544   7.404   8.447   3.634  0.1522 -0.0956  0.0463
  265POPC   GL2 3545   7.324   8.689   3.872  0.3939 -0.4311  0.2864
  265POPC   C1A 3546   7.414   8.223   4.023 -0.1043 -0.1725 -0.2069
  265POPC   D2A 3547   7.536   8.424   4.453 -0.0402  0.3148 -0.2061
  265POPC   C3A 3548   7.743   8.237   4.722 -0.1034  0.3103  0.2245
  265POPC   C4A 3549   8.073   8.263   4.900  0.1751 -0.1561 -0.1062
  265POPC   C1B 3550   7.832   8.659   4.117 -0.2499  0.1877  0.1180
  265POPC   C2B 3551   8.021   8.428   4.275 -0.0968  0.0430  0.1042
  265POPC   C3B 3552   8.164   7.992   4.406  0.0745 -0.0634 -0.1889
  265POPC   C4B 3553   8.092   7.585   4.490 -0.1706  0.2952 -0.2600
  266POPC   NC3 3554   1.674   0.183   4.469  0.2419  0.1715 -0.1293
  266POPC   PO4 3555   1.725  -0.306   4.424 -0.2673  0.2054  0.2236
  266POPC   GL1 3556   1.411  -0.264   4.768  0.1544  0.0546  0.0361
  266POPC   GL2 3557   1.418  -0.586   4.955 -0.0929 -0.0383  0.0178
  266POPC   C1A 3558   1.001  -0.292   4.828  0.0491  0.1247 -0.0500
  266POPC   D2A 3559   0.887  -0.685   4.718 -0.2780  0.0164  0.1490
  266POPC   C3A 3560   0.640  -0.888   5.010  0.0384  0.2338 -0.2455
  266POPC   C4A 3561   0.575  -1.197   5.284 -0.0874  0.0385 -0.0135
  266POPC   C1B 3562   1.005  -0.532   5.262  0.0373 -0.1378 -0.2564
  266POPC   C2B 3563   0.914  -0.280   5.646 -0.3014  0.0320 -0.3795
  266POPC   C3B 3564   1.123   0.075   5.744 -0.2379 -0.2694  0.2621
  266POPC   C4B 3565   1.280   0.415   5.515  0.0506  0.2698  0.0249
  267POPC   NC3 3566   9.661   2.525   4.682 -0.1445  0.0126  0.1156
  267POPC   PO4 3567  10.000   2.390   4.458  0.0554 -0.3484 -0.0622
  267POPC   GL1 3568  10.068   2.368   4.990 -0.2425 -0.1952 -0.0476
  267POPC   GL2 3569  10.131   2.141   5.216 -0.1691 -0.3303  0.2745
  267POPC   C1A 3570   9.893   2.665   5.315  0.0322  0.1083  0.0015
  267POPC   D2A 3571   9.826   2.678   5.704  0.6865 -0.0335 -0.1409
  267POPC   C3A 3572   9.442   2.939   5.764 -0.1420  0.0653  0.0644
  267POPC   C4A 3573   8.913   2.922   5.927  0.4386  0.1206  0.0432
  267POPC   C1B 3574  10.129   2.182   5.633 -0.1628 -0.0760 -0.0400
  267POPC   C2B 3575  10.546   1.942   5.793 -0.1431  0.0742  0.1190
  267POPC   C3B 3576  10.790   1.769   6.022 -0.3269 -0.0139 -0.4146
  267POPC   C4B 3577  10.925   1.732   6.433  0.0602 -0.0433  0.1079
  268POPC   NC3 3578   2.407   0.755   4.420 -0.3604 -0.0013  0.2025
  268POPC   PO4 3579   1.982   0.531   4.346 -0.0116  0.0675  0.1119
  268POPC   GL1 3580   2.116   0.352   4.807  0.3398 -0.0206 -0.0714
  268POPC   GL2 3581   2.252   0.625   5.098  0.1218  0.1251 -0.1218
  268POPC   C1A 3582   2.142   0.149   5.230  0.4010 -0.0286  0.2415
  268POPC   D2A 3583   1.928  -0.101   5.347  0.1275  0.2071 -0.0033
  268POPC   C3A 3584   2.034  -0.447   5.637  0.2937  0.1773  0.0246
  268POPC   C4A 3585   2.045  -0.489   6.049  0.1446  0.0390  0.3406
  268POPC   C1B 3586   2.282   0.566   5.516  0.0049  0.1003 -0.2776
  268POPC   C2B 3587   2.656   0.653   5.828  0.1042 -0.0476  0.1464
  268POPC   C3B 3588   3.020   0.588   5.930 -0.1649 -0.2637 -0.5064
  268POPC   C4B 3589   3.354   0.624   5.725  0.2771  0.1420  0.1408
  269POPC   NC3 3590   0.258   5.988   3.635 -0.0322  0.0306 -0.0069
  269POPC   PO4 3591   0.008   6.074   3.876 -0.1770  0.1485  0.3598
  269POPC   GL1 3592   0.005   6.146   4.363 -0.0039  0.0321  0.2230
  269POPC   GL2 3593   0.032   6.482   4.458 -0.2055  0.0138  0.2035
  269POPC   C1A 3594   0.039   5.941   4.753 -0.1459  0.0032  0.5837
  269POPC   D2A 3595  -0.216   5.599   4.893 -0.1707  0.2374 -0.2590
  269POPC   C3A 3596  -0.091   5.433   5.293 -0.2638  0.1142 -0.2144
  269POPC   C4A 3597   0.076   5.311   5.728 -0.0350 -0.0725  0.1315
  269POPC   C1B 3598   0.179   6.808   4.806  0.0888 -0.0601 -0.0296
  269POPC   C2B 3599   0.353   6.941   5.223 -0.0609  0.0304  0.0007
  269POPC   C3B 3600   0.323   7.084   5.641 -0.1953  0.0853  0.2190
  269POPC   C4B 3601   0.060   7.212   5.964  0.1133  0.1110  0.1383
  270POPC   NC3 3602   6.023   0.713   4.323 -0.0738  0.0616 -0.0156
  270POPC   PO4 3603   5.631   0.959   4.402 -0.1177 -0.2555  0.1769
  270POPC   GL1 3604   5.832   0.791   4.769 -0.1635  0.0355 -0.0520
  270POPC   GL2 3605   6.180   0.788   4.803 -0.2791  0.0373 -0.4834
  270POPC   C1A 3606   5.845   0.406   5.093  0.1362  0.2750  0.1463
  270POPC   D2A 3607   5.957   0.118   5.530 -0.0028 -0.3572  0.1994
  270POPC   C3A 3608   5.913   0.152   5.992  0.2745 -0.4342  0.0638
  270POPC   C4A 3609   5.639   0.139   6.402 -0.2076  0.2872 -0.0253
  270POPC   C1B 3610   6.100   0.877   5.202 -0.0566  0.2553 -0.0405
  270POPC   C2B 3611   6.258   1.026   5.567 -0.0583  0.0595  0.2681
  270POPC   C3B 3612   6.312   0.943   5.886 -0.0750  0.0885 -0.1783
  270POPC   C4B 3613   6.408   0.663   6.150 -0.0864  0.2845  0.0300
  271POPC   NC3 3614   5.098   2.364   4.394 -0.1104  0.1447  0.2633
  271POPC   PO4 3615   5.593   2.330   4.495  0.2455  0.0750 -0.2110
  271POPC   GL1 3616   5.769   2.197   4.839 -0.0750 -0.1361  0.3574
  271POPC   GL2 3617   6.024   2.471   4.900  0.1342 -0.2614  0.3392
  271POPC   C1A 3618   5.906   1.999   5.196  0.4332  0.2597 -0.0396
  271POPC   D2A 3619   5.613   1.713   5.488  0.3595  0.0697 -0.0867
  271POPC   C3A 3620   5.435   1.443   5.719 -0.2427  0.1036 -0.2132
  271POPC   C4A 3621   5.228   1.372   6.148  0.0435  0.0897 -0.3842
  271POPC   C1B 3622   5.982   2.551   5.324 -0.1806  0.0611 -0.0522
  271POPC   C2B 3623   6.091   2.633   5.717  0.0839  0.1300 -0.1245
  271POPC   C3B 3624   6.407   2.697   6.029 -0.0154  0.2105  0.1294
  271POPC   C4B 3625   6.723   2.948   6.273 -0.1335 -0.0095 -0.2317
  272POPC   NC3 3626   0.906   9.195   4.056 -0.0645 -0.0950 -0.1359
  272POPC   PO4 3627   0.865   9.549   3.929 -0.0826  0.0310 -0.1373
  272POPC   GL1 3628   0.602   9.557   4.227  0.2389  0.1638  0.2320
  272POPC   GL2 3629   0.688   9.736   4.485  0.1422  0.3130 -0.3992
  272POPC   C1A 3630   0.357   9.291   4.420 -0.1921 -0.1750  0.0623
  272POPC   D2A 3631   0.379   8.831   4.563  0.1897 -0.0709 -0.2158
  272POPC   C3A 3632   0.105   8.771   4.903  0.0656 -0.0897 -0.1360
  272POPC   C4A 3633  -0.333   8.679   5.044 -0.1761 -0.2713 -0.1134
  272POPC   C1B 3634   0.283   9.725   4.750 -0.2334 -0.0360 -0.0479
  272POPC   C2B 3635   0.113   9.641   5.120  0.2840 -0.2291 -0.1386
  272POPC   C3B 3636   0.238   9.835   5.471  0.1312 -0.2594  0.0082
  272POPC   C4B 3637   0.421  10.239   5.386 -0.1219  0.1756 -0.1354
  273POPC   NC3 3638   2.766   4.100   4.655  0.0585  0.0273 -0.4676
  273POPC   PO4 3639   2.491   3.640   4.831  0.2549  0.1975 -0.1642
  273POPC   GL1 3640   2.351   3.521   5.174  0.0932  0.0134 -0.2250
  273POPC   GL2 3641   2.618   3.462   5.396  0.1795  0.2641  0.0464
  273POPC   C1A 3642   2.183   3.334   5.575 -0.3078  0.0057 -0.2344
  273POPC   D2A 3643   1.861   3.405   5.915 -0.3244  0.0815  0.1925
  273POPC   C3A 3644   1.789   3.206   6.277 -0.2715 -0.2742 -0.6360
  273POPC   C4A 3645   1.707   3.474   6.704  0.0181 -0.1253 -0.2897
  273POPC   C1B 3646   2.484   3.717   5.737  0.1257 -0.0632  0.1372
  273POPC   C2B 3647   2.279   3.756   6.150  0.0734 -0.3205  0.0428
  273POPC   C3B 3648   1.890   3.789   6.347 -0.0549  0.0299  0.3110
  273POPC   C4B 3649   1.542   3.687   6.176  0.3409  0.0955  0.1306
  274POPC   NC3 3650   4.447   5.157   4.639 -0.1098 -0.2172  0.2947
  274POPC   PO4 3651   4.883   5.268   4.894 -0.1194 -0.0699  0.1113
  274POPC   GL1 3652   4.919   5.562   5.232  0.1108  0.2920  0.0061
  274POPC   GL2 3653   5.278   5.641   5.324  0.2582  0.1444 -0.0672
  274POPC   C1A 3654   4.712   5.502   5.561  0.0557  0.0641 -0.0826
  274POPC   D2A 3655   4.799   5.408   6.045 -0.1174 -0.1194 -0.0740
  274POPC   C3A 3656   5.153   5.269   6.201 -0.2516  0.1622  0.3512
  274POPC   C4A 3657   5.621   5.270   6.272  0.2261  0.1559 -0.0759
  274POPC   C1B 3658   5.183   5.268   5.571  0.1945 -0.0639  0.0248
  274POPC   C2B 3659   5.300   4.929   5.805 -0.1763  0.1868  0.1525
  274POPC   C3B 3660   5.031   4.722   6.238 -0.1217  0.0255  0.1803
  274POPC   C4B 3661   4.917   4.636   6.606 -0.1259 -0.1403 -0.1812
  275POPC   NC3 3662   3.001   1.359   4.165  0.0394  0.2652 -0.2135
  275POPC   PO4 3663   2.817   1.038   4.493 -0.0492  0.4401  0.0246
  275POPC   GL1 3664   2.948   1.300   4.935 -0.1148 -0.0527 -0.2669
  275POPC   GL2 3665   2.688   1.337   5.201 -0.2833 -0.1363  0.1404
  275POPC   C1A 3666   3.202   1.429   5.317  0.0348 -0.1276 -0.2428
  275POPC   D2A 3667   3.255   1.586   5.737  0.0571  0.1768  0.0186
  275POPC   C3A 3668   3.272   1.473   6.148 -0.3314 -0.1306  0.1282
  275POPC   C4A 3669   2.965   1.466   6.505  0.1442  0.0174  0.0993
  275POPC   C1B 3670   2.754   1.199   5.668  0.0560 -0.0715 -0.0795
  275POPC   C2B 3671   2.778   1.128   6.007  0.0195  0.2327 -0.2882
  275POPC   C3B 3672   2.663   1.045   6.436  0.2656  0.0264 -0.0619
  275POPC   C4B 3673   2.593   0.780   6.701  0.0207 -0.1899 -0.2579
  276POPC   NC3 3674   6.232   5.341   4.639  0.1039 -0.4124 -0.1837
  276POPC   PO4 3675   6.425   4.947   4.362 -0.1149  0.0006  0.0555
  276POPC   GL1 3676   6.228   4.707   4.764  0.2906 -0.1560  0.0692
  276POPC   GL2 3677   6.013   4.428   4.758  0.0245  0.1588 -0.2051
  276POPC   C1A 3678   6.205   4.664   5.200 -0.2021 -0.1128  0.2272
  276POPC   D2A 3679   6.314   4.693   5.573  0.2257  0.0444  0.0315
  276POPC   C3A 3680   6.167   4.424   5.952  0.2184 -0.0479 -0.1118
  276POPC   C4A 3681   5.887   4.323   6.314 -0.0121 -0.0075 -0.1472
  276POPC   C1B 3682   5.881   4.348   5.104  0.0719  0.0925 -0.1440
  276POPC   C2B 3683   5.813   4.207   5.495 -0.0203  0.2487  0.1902
  276POPC   C3B 3684   5.935   3.976   5.813 -0.0369  0.0684 -0.0135
  276POPC   C4B 3685   6.193   3.923   6.111  0.0013 -0.3571  0.0006
  277POPC   NC3 3686   7.071   2.043   3.971  0.2630 -0.2397 -0.1219
  277POPC   PO4 3687   6.752   2.245   4.209  0.0790  0.4469  0.0463
  277POPC   GL1 3688   6.637   2.052   4.594 -0.0964 -0.1598  0.2289
  277POPC   GL2 3689   6.374   2.117   4.774  0.1403  0.0087 -0.1011
  277POPC   C1A 3690   6.778   2.008   5.003 -0.0777 -0.0403  0.0003
  277POPC   D2A 3691   6.945   1.763   5.421 -0.1424 -0.3809  0.1171
  277POPC   C3A 3692   6.815   1.869   5.883  0.0768  0.0716  0.1559
  277POPC   C4A 3693   6.646   2.060   6.365  0.0419  0.0196 -0.3395
  277POPC   C1B 3694   6.249   1.695   4.921  0.1369  0.1758  0.3304
  277POPC   C2B 3695   6.063   1.526   5.307  0.1185  0.3486 -0.3097
  277POPC   C3B 3696   6.057   1.404   5.777  0.0167 -0.0531 -0.0519
  277POPC   C4B 3697   6.117   1.303   6.208  0.0472 -0.0273 -0.3409
  278POPC   NC3 3698   2.700   3.190   4.701  0.0146  0.0303  0.1329
  278POPC   PO4 3699   3.055   2.912   4.719 -0.4245 -0.0031 -0.0525
  278POPC   GL1 3700   2.906   2.860   5.155  0.1529  0.2309  0.5079
  278POPC   GL2 3701   3.010   2.655   5.423  0.0674 -0.0009 -0.0758
  278POPC   C1A 3702   2.675   2.998   5.508  0.0282 -0.1764 -0.1739
  278POPC   D2A 3703   2.589   3.243   5.899 -0.0009  0.0050  0.3846
  278POPC   C3A 3704   2.675   3.010   6.130 -0.0565  0.2327  0.0422
  278POPC   C4A 3705   2.549   2.664   5.831  0.0845 -0.2112 -0.1850
  278POPC   C1B 3706   2.737   2.391   5.487  0.2714  0.3281 -0.2362
  278POPC   C2B 3707   2.486   2.104   5.786  0.1474 -0.4537 -0.2920
  278POPC   C3B 3708   2.141   1.951   6.127  0.0730  0.0160  0.1334
  278POPC   C4B 3709   1.962   2.165   6.554  0.0687 -0.0926  0.0954
  279POPC   NC3 3710   3.911   1.184   4.092  0.1792 -0.4465  0.3316
  279POPC   PO4 3711   3.886   1.332   4.527 -0.1264 -0.2179 -0.2347
  279POPC   GL1 3712   3.935   1.365   4.995 -0.0168  0.3481 -0.1034
  279POPC   GL2 3713   4.282   1.380   5.155 -0.1088 -0.2597  0.1092
  279POPC   C1A 3714   3.699   1.411   5.283 -0.0902 -0.0472  0.2304
  279POPC   D2A 3715   3.580   1.846   5.526 -0.1666  0.1370  0.1468
  279POPC   C3A 3716   3.645   1.993   5.965  0.0659 -0.4352 -0.0636
  279POPC   C4A 3717   3.597   2.210   6.308  0.1037 -0.0873 -0.2176
  279POPC   C1B 3718   4.066   1.696   5.429  0.0578  0.2700  0.0578
  279POPC   C2B 3719   4.115   1.734   5.821  0.0925  0.2147 -0.1827
  279POPC   C3B 3720   4.306   1.583   6.234  0.1006 -0.2518  0.0292
  279POPC   C4B 3721   4.336   1.200   6.517 -0.0259 -0.1052  0.3096
  280POPC   NC3 3722   7.198   7.070   4.043  0.4965  0.1506  0.1484
  280POPC   PO4 3723   6.805   7.279   4.052 -0.1874 -0.4185 -0.0642
  280POPC   GL1 3724   6.893   7.190   4.476 -0.0117  0.1763  0.0834
  280POPC   GL2 3725   7.146   7.409   4.478 -0.0379 -0.4484  0.0251
  280POPC   C1A 3726   7.030   6.991   4.899 -0.2230 -0.0087 -0.1073
  280POPC   D2A 3727   7.198   7.021   5.289  0.0101 -0.0734 -0.2037
  280POPC   C3A 3728   6.955   7.052   5.709 -0.0490  0.1971  0.3073
  280POPC   C4A 3729   7.024   7.433   5.969  0.1887 -0.1528  0.0403
  280POPC   C1B 3730   7.450   7.475   4.842 -0.0368  0.0386 -0.1761
  280POPC   C2B 3731   7.639   7.481   5.218 -0.1126 -0.0180  0.1659
  280POPC   C3B 3732   7.875   7.357   5.590 -0.0514  0.0417 -0.0906
  280POPC   C4B 3733   7.894   7.057   5.869 -0.0839 -0.1281  0.1037
  281POPC   NC3 3734   3.351   1.206   4.604  0.1789 -0.2159  0.0962
  281POPC   PO4 3735   3.445   0.985   4.299  0.1615 -0.2202 -0.0124
  281POPC   GL1 3736   3.681   0.815   4.718  0.0515  0.2019  0.1491
  281POPC   GL2 3737   4.006   0.558   4.708  0.0490 -0.1026  0.0841
  281POPC   C1A 3738   3.524   0.860   5.198 -0.0909 -0.1991 -0.0891
  281POPC   D2A 3739   3.672   0.992   5.614 -0.0414  0.1320  0.0107
  281POPC   C3A 3740   3.745   1.392   5.790  0.0975 -0.2640 -0.0942
  281POPC   C4A 3741   3.763   1.562   6.186  0.0507  0.0751  0.0693
  281POPC   C1B 3742   3.814   0.460   5.087  0.0881  0.0927 -0.1987
  281POPC   C2B 3743   3.841   0.476   5.559 -0.2452  0.2314  0.0980
  281POPC   C3B 3744   3.997   0.707   5.862 -0.1147 -0.1772 -0.3148
  281POPC   C4B 3745   4.085   1.133   6.067 -0.1279  0.1955  0.2596
  282POPC   NC3 3746   0.373   8.086   3.728 -0.2114  0.2442  0.2660
  282POPC   PO4 3747   0.708   8.015   3.984  0.0974 -0.0317  0.1880
  282POPC   GL1 3748   0.488   7.922   4.248  0.0900  0.2281 -0.1497
  282POPC   GL2 3749   0.627   7.848   4.567  0.2544 -0.1164  0.2634
  282POPC   C1A 3750   0.132   7.946   4.478 -0.1026  0.1708  0.2334
  282POPC   D2A 3751  -0.248   8.164   4.755 -0.2663 -0.1454 -0.0152
  282POPC   C3A 3752  -0.549   8.040   5.081  0.1516  0.2561 -0.2655
  282POPC   C4A 3753  -0.842   7.995   5.448  0.0361 -0.1921 -0.1623
  282POPC   C1B 3754   0.532   8.020   4.987 -0.0530  0.1402 -0.2604
  282POPC   C2B 3755   0.429   8.090   5.434  0.0248  0.2264 -0.1473
  282POPC   C3B 3756   0.507   7.971   5.802  0.0750  0.1933 -0.1658
  282POPC   C4B 3757   0.701   8.021   6.268 -0.1944 -0.1052  0.1641
  283POPC   NC3 3758   4.628   3.248   4.026  0.1663  0.1480  0.0806
  283POPC   PO4 3759   4.525   3.135   4.376 -0.0628  0.0494 -0.0106
  283POPC   GL1 3760   4.648   3.094   4.801  0.0575 -0.2139 -0.4656
  283POPC   GL2 3761   4.920   3.332   4.822 -0.2324 -0.0904 -0.2493
  283POPC   C1A 3762   4.815   3.185   5.286  0.1055 -0.3550  0.1766
  283POPC   D2A 3763   5.050   3.343   5.622  0.2391 -0.1061  0.1627
  283POPC   C3A 3764   5.096   3.733   5.897  0.1192  0.0057  0.2471
  283POPC   C4A 3765   5.464   3.874   5.994 -0.1541 -0.0102 -0.0489
  283POPC   C1B 3766   5.250   3.464   5.100  0.1347 -0.4341 -0.0185
  283POPC   C2B 3767   5.687   3.451   5.139 -0.2133  0.0761 -0.1126
  283POPC   C3B 3768   6.018   3.126   5.398  0.0774 -0.0879 -0.2267
  283POPC   C4B 3769   6.477   2.844   5.520  0.0143 -0.3015 -0.0266
  284POPC   NC3 3770   1.203   3.689   4.538  0.2992  0.2832  0.0600
  284POPC   PO4 3771   1.400   3.742   5.009 -0.0460  0.0909  0.0754
  284POPC   GL1 3772   1.468   3.418   5.254  0.0805  0.3991 -0.0563
  284POPC   GL2 3773   1.820   3.401   5.143  0.1278 -0.0290 -0.1179
  284POPC   C1A 3774   1.583   3.126   5.584 -0.1694  0.0035 -0.0864
  284POPC   D2A 3775   1.630   2.876   5.966  0.2165 -0.1020  0.0888
  284POPC   C3A 3776   1.331   3.172   6.112 -0.3282 -0.0230  0.0832
  284POPC   C4A 3777   1.010   3.502   6.076  0.2485 -0.0094 -0.3826
  284POPC   C1B 3778   1.892   3.759   5.490  0.0053 -0.0580 -0.1124
  284POPC   C2B 3779   1.878   3.865   5.840 -0.3319 -0.1057 -0.1321
  284POPC   C3B 3780   1.696   4.212   6.118  0.1494 -0.1023  0.1458
  284POPC   C4B 3781   1.413   4.403   6.134  0.1301  0.3235 -0.0538
  285POPC   NC3 3782   9.649   1.176   3.903 -0.0998 -0.1815 -0.0323
  285POPC   PO4 3783   9.645   1.156   4.350 -0.0979 -0.0914  0.1061
  285POPC   GL1 3784   9.541   1.286   4.720  0.1817 -0.1112  0.1173
  285POPC   GL2 3785   9.420   1.565   4.776  0.3174  0.1830  0.3411
  285POPC   C1A 3786   9.284   1.115   5.069  0.1373  0.1148 -0.1075
  285POPC   D2A 3787   9.215   0.901   5.527  0.1935 -0.1377  0.0102
  285POPC   C3A 3788   9.251   1.193   5.807  0.0276 -0.0055  0.1232
  285POPC   C4A 3789   9.207   1.455   6.172  0.0490 -0.0417  0.4140
  285POPC   C1B 3790   9.742   1.650   5.110 -0.0171 -0.0002 -0.0861
  285POPC   C2B 3791   9.773   1.706   5.567  0.1511 -0.1865 -0.4604
  285POPC   C3B 3792   9.648   1.594   5.887 -0.4843 -0.2280  0.0878
  285POPC   C4B 3793   9.848   1.343   6.236 -0.0538 -0.0686  0.2086
  286POPC   NC3 3794   2.911   6.605   4.408  0.2010  0.0469 -0.0898
  286POPC   PO4 3795   3.300   6.711   4.626  0.2693  0.0662  0.0486
  286POPC   GL1 3796   3.257   6.882   5.131 -0.1863  0.0471  0.0860
  286POPC   GL2 3797   3.079   6.677   5.286  0.1390  0.1667  0.0108
  286POPC   C1A 3798   3.485   6.827   5.534 -0.0289  0.1287  0.0547
  286POPC   D2A 3799   3.646   6.888   5.997 -0.1239 -0.2856 -0.0465
  286POPC   C3A 3800   3.389   7.090   6.371 -0.3619 -0.0746  0.1559
  286POPC   C4A 3801   3.008   7.295   6.511  0.0093  0.3315  0.1398
  286POPC   C1B 3802   3.207   6.443   5.598 -0.2556 -0.1106  0.0684
  286POPC   C2B 3803   3.148   6.298   5.983  0.1056  0.3903  0.3187
  286POPC   C3B 3804   3.017   5.836   6.115  0.1213 -0.1856 -0.1964
  286POPC   C4B 3805   3.030   5.846   6.599  0.0154  0.4257  0.2460
  287W        W 3806   2.789   7.060  11.664  0.5000 -0.1057 -0.0527
  288W        W 3807   7.338   2.608  12.245 -0.5755  0.3290  0.0781
  289W        W 3808   6.367   0.235   9.381  0.1072  0.5244  0.1313
  290W        W 3809   3.309   7.511   3.993 -0.0606  0.0223 -0.0137
  291W        W 3810   4.779   8.450   3.771  0.1627 -0.0131  0.2426
  292W        W 3811   3.642   2.652   9.229  0.0889  0.0028  0.1902
  293W        W 3812   6.911   3.853   1.373 -0.1979 -0.2260  0.1315
  294W        W 3813   9.533   7.846  11.207  0.0762  0.0210  0.1432
  295W        W 3814   6.250   6.680   2.192 -0.2537  0.0821  0.1078
  296W        W 3815   6.451   2.870   0.366  0.1931 -0.0720 -0.0121
  297W        W 3816   8.401   7.018   2.146 -0.1942  0.1001  0.2237
  298W        W 3817   4.819   7.943   3.052 -0.1499 -0.0302 -0.1497
  299W        W 3818   5.188   2.141  11.365  0.0310  0.1263  0.1406
  300W        W 3819   1.107   8.001   1.269  0.0991 -0.1476 -0.2482
  301W        W 3820   7.514   2.716   1.138 -0.0278  0.2086 -0.0288
  302W        W 3821   2.183   4.542   1.627  0.3622 -0.4077 -0.1008
  303W        W 3822   4.750   3.390   8.756  0.0366 -0.1825  0.0685
  304W        W 3823   7.679   1.391   2.620  0.0231 -0.0541 -0.3068
  305W        W 3824   3.814   3.401  10.857  0.2746 -0.1770  0.2005
  306W        W 3825   2.289   8.379   4.019  0.0346  0.4065 -0.1284
  307W        W 3826   0.294   0.488   2.275 -0.2495 -0.2369 -0.0658
  308W        W 3827   4.289   7.344   2.747 -0.0781 -0.1588 -0.1960
  309W        W 3828   4.234   3.348   0.743  0.4621 -0.1592  0.0955
  310W        W 3829   9.646   9.408   0.397  0.2969 -0.0229  0.2101
  311W        W 3830   9.450   5.709  11.525  0.4282  0.1386 -0.1663
  312W        W 3831   5.594   1.578   4.450 -0.0784 -0.0103  0.1636
  313W        W 3832   0.933   7.924  11.616  0.3173 -0.1552  0.1529
  314W        W 3833   0.903   6.390  11.751 -0.2512  0.1616  0.1396
  315W        W 3834   1.646   6.922   3.316 -0.2409 -0.0265  0.1847
  316W        W 3835   8.147   0.341   9.028  0.3711  0.3131  0.0674
  317W        W 3836   1.525   6.886   1.102  0.0334 -0.3781 -0.3532
  318W        W 3837   5.667   3.483  10.936  0.3300 -0.0844  0.4857
  319W        W 3838   4.368   4.636   1.388  0.3167  0.1491  0.1423
  320W        W 3839   0.880   5.479  11.667  0.0416  0.3270 -0.0230
  321W        W 3840   5.039   0.589   0.008 -0.0698 -0.1069 -0.0446
  322W        W 3841   5.766   4.836   9.253 -0.0073 -0.2277 -0.1595
  323W        W 3842   1.443   4.848   1.225  0.0617  0.0848 -0.2981
  324W        W 3843   8.507   5.949  10.997  0.1918 -0.3329  0.0271
  325W        W 3844   4.933   5.494   9.199 -0.1228  0.2979 -0.2258
  326W        W 3845   2.114   7.015   8.983 -0.2489  0.3247  0.2970
  327W        W 3846   7.559   5.655   3.817  0.3003  0.0278  0.4584
  328W        W 3847   0.725   3.110   2.879 -0.1783  0.0866 -0.1070
  329W        W 3848   1.389   5.709   0.639 -0.2109 -0.2470  0.0000
  330W        W 3849   8.421   7.906   8.332 -0.2526 -0.0670 -0.0249
  331W        W 3850   7.184   2.159   2.969 -0.1222  0.1502  0.0886
  332W        W 3851   6.065   4.015   9.472  0.0425 -0.2795 -0.2274
  333W        W 3852   5.786   5.219  11.021  0.2705 -0.2713  0.0982
  334W        W 3853   1.798   5.706  11.595  0.0780  0.0884 -0.0844
  335W        W 3854   9.062   3.111   0.296 -0.0780 -0.2061 -0.0728
  336W        W 3855   4.765   0.466   1.215 -0.0236  0.1957 -0.2987
  337W        W 3856   8.187   0.535   0.766  0.1797 -0.2362  0.1249
  338W        W 3857   4.122   2.969  10.703 -0.0516 -0.2720 -0.1041
  339W        W 3858   8.545   6.096   2.132  0.2330  0.1123 -0.2063
  340W        W 3859   3.183   1.668   4.698 -0.3661 -0.1608 -0.0738
  341W        W 3860   3.478   7.602   1.888 -0.2740  0.3094  0.1537
  342W        W 3861   4.132   6.649  10.306  0.0720 -0.2122  0.1048
  343W        W 3862   1.995   3.924   8.875 -0.1975  0.1479 -0.0887
  344W        W 3863   3.572   7.532   3.113 -0.1220 -0.2270 -0.0118
  345W        W 3864   3.860   1.869   1.762 -0.1977 -0.1609 -0.1217
  346W        W 3865   7.022   1.032  11.469  0.2141 -0.1813  0.2031
  347W        W 3866   7.602   5.266   4.476  0.1550 -0.3727  0.2844
  348W        W 3867   3.931   2.420   3.456 -0.2263  0.2656 -0.2439
  349W        W 3868   5.525   8.148  10.131 -0.1923  0.0038  0.0380
  350W        W 3869   2.699   5.559  10.289 -0.3579 -0.2727 -0.1296
  351W        W 3870   2.731   1.212   2.632 -0.3221 -0.3253 -0.0674
  352W        W 3871   8.981   2.221  11.989  0.1342  0.0228  0.1723
  353W        W 3872   0.802   0.740   0.762  0.1102  0.2214  0.0552
  354W        W 3873   4.147   1.680  11.214  0.1489  0.0107 -0.0542
  355W        W 3874   4.973   2.080  10.784  0.0651 -0.0698 -0.0605
  356W        W 3875   1.028   4.566   2.375 -0.2477  0.0879  0.1139
  357W        W 3876   8.384   7.334   0.722 -0.0120  0.2602 -0.4000
  358W        W 3877   0.956   0.329  11.114  0.1625 -0.0179 -0.2086
  359W        W 3878   2.717   7.576   1.413  0.0883 -0.2245 -0.2711
  360W        W 3879   2.910   7.514   1.870  0.3937  0.0749 -0.2273
  361W        W 3880   0.704   1.944   3.194  0.0540  0.0762 -0.1861
  362W        W 3881   4.602   6.458   0.163 -0.2377 -0.1154 -0.2537
  363W        W 3882   7.708   2.121  10.317 -0.0246  0.2788 -0.0937
  364W        W 3883   1.439   4.074  11.543 -0.1762  0.1209 -0.1228
  365W        W 3884   1.273   3.808   3.515 -0.0083 -0.0458 -0.0382
  366W        W 3885   1.442   0.733   4.363  0.1136  0.1122  0.0097
  367W        W 3886   1.760   9.371   1.464  0.2182  0.1683 -0.1321
  368W        W 3887   2.649   0.438  12.159 -0.0536  0.1494 -0.1902
  369W        W 3888   5.209   2.535   0.217 -0.2676  0.2591 -0.1350
  370W        W 3889   5.319   3.599   2.752  0.0444  0.1945  0.4315
  371W        W 3890   8.487   4.252   2.656 -0.1448 -0.0819  0.1883
  372W        W 3891   2.172   4.476   0.769  0.0909 -0.0994  0.1088
  373W        W 3892   1.638   8.139   1.021  0.1868  0.3145 -0.1236
  374W        W 3893   5.706   3.979   2.697 -0.0499  0.0665  0.0382
  375W        W 3894   1.172   5.490  10.705  0.2811  0.3702 -0.0639
  376W        W 3895   0.042   5.828   1.721  0.0281  0.0092 -0.1974
  377W        W 3896   5.930   6.546   4.346  0.0967 -0.0618 -0.0591
  378W        W 3897   0.992   8.328  10.794  0.3171  0.1220  0.2456
  379W        W 3898   6.821   6.609   0.316  0.2279  0.0586  0.0352
  380W        W 3899   3.093   9.606  11.363 -0.3302  0.0125 -0.0800
  381W        W 3900   7.340   9.680  10.109  0.0367 -0.0489 -0.1081
  382W        W 3901   5.529   0.498  10.773 -0.1681  0.0057  0.3409
  383W        W 3902   5.022   8.393  10.331  0.2619  0.0606  0.0910
  384W        W 3903   5.714   2.780   9.143  0.2543 -0.0873 -0.1314
  385W        W 3904   2.570   7.754  11.612 -0.1616 -0.0795 -0.0927
  386W        W 3905   6.307   7.714   2.150 -0.2950 -0.0606  0.3762
  387W        W 3906   8.254   0.269   2.342 -0.1434 -0.0246 -0.2210
  388W        W 3907   8.416   1.885   2.351 -0.0432  0.0212 -0.2767
  389W        W 3908   5.379   4.164   8.230  0.0059 -0.1358 -0.2741
  390W        W 3909   8.309   3.883   0.747 -0.4588 -0.1016  0.2518
  391W        W 3910   1.427   8.360  11.288  0.3034  0.4301  0.2537
  392W        W 3911   7.857   0.501  11.251  0.2579 -0.1456 -0.2949
  393W        W 3912   5.070   8.137   3.445  0.0568  0.1962 -0.1391
  394W        W 3913   0.300   3.254   9.238 -0.3373  0.0295 -0.0372
  395W        W 3914   1.382   3.916  12.200 -0.1114 -0.1679  0.0097
  396W        W 3915   4.923   9.396   8.982  0.4090  0.0757 -0.1813
  397W        W 3916   9.099   6.047  10.900  0.2776 -0.2064 -0.0590
  398W        W 3917   0.425   2.128   1.015 -0.1727  0.1797 -0.0259
  399W        W 3918   6.240   4.245   3.824  0.1048 -0.2999  0.1321
  400W        W 3919   9.093   0.277   1.182  0.0452 -0.3665  0.1651
  401W        W 3920   8.526   3.273   3.699 -0.0782  0.1106 -0.0102
  402W        W 3921   8.588   5.960   2.616 -0.0090 -0.1016  0.0528
  403W        W 3922   5.086   1.482   9.096 -0.0327 -0.1501 -0.1180
  404W        W 3923   8.880   7.703   3.180 -0.1041  0.1841 -0.0002
  405W        W 3924   1.433   3.980   2.996  0.4824  0.0086  0.2861
  406W        W 3925   5.043   9.252   0.357  0.0993  0.3348 -0.0775
  407W        W 3926   8.457   8.734   1.134 -0.0919  0.0897  0.1343
  408W        W 3927   3.408   9.149   1.631  0.2421 -0.0638  0.1817
  409W        W 3928   4.857   1.522   4.442  0.1644  0.3695  0.2048
  410W        W 3929   5.001   0.263   3.242 -0.2083 -0.0985  0.2124
  411W        W 3930   2.679   0.471   1.913 -0.1270 -0.0742 -0.0059
  412W        W 3931   5.427   3.254  11.354  0.4281 -0.0181 -0.0621
  413W        W 3932   8.032   4.647  10.321  0.0168 -0.1860  0.1795
  414W        W 3933   7.393   3.378  10.542 -0.0883  0.0248 -0.0808
  415W        W 3934   3.731   0.441   9.422  0.1062 -0.2022  0.1610
  416W        W 3935   3.600   0.357   2.151 -0.0409 -0.0684 -0.0141
  417W        W 3936   7.271   8.258   0.973  0.1403  0.1878 -0.1704
  418W        W 3937   4.990   5.263   1.971 -0.0451 -0.2039 -0.0049
  419W        W 3938   1.065   3.014   0.744 -0.2900  0.1189 -0.1428
  420W        W 3939   1.947   5.183   0.411 -0.3856  0.3228  0.0259
  421W        W 3940   0.466   2.108  12.248 -0.1492  0.1675 -0.0628
  422W        W 3941   6.653   7.072   0.515 -0.0563 -0.3710 -0.3462
  423W        W 3942   3.231   6.564  10.430 -0.1360  0.1218  0.4445
  424W        W 3943   8.869   2.834   1.362  0.1059  0.0331  0.0091
  425W        W 3944   3.023   9.656   2.679  0.0081  0.1917  0.1076
  426W        W 3945   6.512   8.689  11.175  0.0775 -0.1035  0.1348
  427W        W 3946   3.089   5.058  11.377 -0.4457 -0.2002 -0.0602
  428W        W 3947   7.878   4.326   3.089 -0.2130 -0.1932 -0.1490
  429W        W 3948   0.415   0.375  11.220 -0.2023  0.3780  0.1612
  430W        W 3949   7.293   6.445   0.435  0.0418 -0.0567 -0.0976
  431W        W 3950   3.746   8.337  10.676 -0.3093 -0.1730  0.0980
  432W        W 3951   8.261   3.981   1.290  0.1134 -0.1198  0.2543
  433W        W 3952   0.666   3.728  11.734  0.0470 -0.2593 -0.0397
  434W        W 3953   0.238   8.939  12.031  0.2062  0.5570  0.0293
  435W        W 3954   5.249   1.444   2.504  0.3775 -0.1312 -0.0299
  436W        W 3955   3.665   6.520   5.112  0.1623 -0.2949  0.1848
  437W        W 3956   7.547   3.709   0.173 -0.2386  0.0910 -0.1927
  438W        W 3957   6.018   1.726  10.973  0.3059 -0.0326  0.1817
  439W        W 3958   1.455   3.056  10.733  0.2390 -0.0207  0.0555
  440W        W 3959   8.292   2.987   1.024  0.1696 -0.1329  0.4010
  441W        W 3960   8.184   8.359   3.051 -0.2643 -0.0442 -0.2535
  442W        W 3961   8.885   2.930   1.871  0.1713 -0.2951  0.3576
  443W        W 3962   8.199   5.951  12.018  0.4119 -0.0832 -0.1912
  444W        W 3963   3.376   2.483   3.233 -0.1490  0.0463 -0.0525
  445W        W 3964   0.834   1.059   9.348  0.3540 -0.1462  0.1357
  446W        W 3965   0.618   1.418   9.619 -0.0509 -0.1415  0.1059
  447W        W 3966   4.831   4.850   4.601  0.1788  0.3721 -0.1960
  448W        W 3967   6.033   1.644   9.106 -0.0991  0.2697 -0.2482
  449W        W 3968   1.397   4.215   1.515 -0.1749 -0.0510  0.2837
  450W        W 3969   5.869   6.635   2.549 -0.4831  0.1785 -0.0831
  451W        W 3970   0.072   4.152   0.033 -0.1322  0.0210  0.0528
  452W        W 3971   4.133   8.146   8.736  0.0498 -0.3355  0.0790
  453W        W 3972   0.969   4.214  11.356 -0.0747 -0.0210 -0.1133
  454W        W 3973   0.768   4.605   3.420  0.4454  0.0164  0.1121
  455W        W 3974   9.673   0.358  11.403 -0.1415 -0.1469 -0.0882
  456W        W 3975   3.617   2.029  10.661 -0.2090 -0.2807  0.2290
  457W        W 3976   6.437   2.148   8.936  0.0514 -0.1100  0.0853
  458W        W 3977   2.471   7.262  11.321 -0.0203  0.3178  0.2909
  459W        W 3978   6.148   6.687   1.718  0.0861  0.2060 -0.2266
  460W        W 3979   5.632   7.446   9.109 -0.0074  0.0284  0.1899
  461W        W 3980   3.160   9.652   1.216 -0.2697  0.0844  0.2841
  462W        W 3981   3.544   6.206   3.301  0.0585 -0.0818 -0.5453
  463W        W 3982   6.838   8.618   3.499  0.1198 -0.0861 -0.3116
  464W        W 3983   4.460   0.524   3.125  0.0180  0.0082  0.0515
  465W        W 3984   3.504   8.394   1.401  0.0617 -0.0464  0.0953
  466W        W 3985   2.357   2.768   9.864  0.1845  0.0784  0.2647
  467W        W 3986   6.683   2.293   2.035  0.1497 -0.2369 -0.1729
  468W        W 3987   2.430   7.563   4.223  0.1938  0.0859  0.0492
  469W        W 3988   1.739   8.973   2.297  0.1748  0.2180  0.0041
  470W        W 3989   3.889   7.936  10.266  0.1082  0.1175  0.0735
  471W        W 3990   2.442   6.677  11.950  0.0013  0.2203  0.0550
  472W        W 3991   0.178   1.099   1.314 -0.0668 -0.0772  0.2057
  473W        W 3992   0.693   2.014  11.006  0.0155 -0.0097  0.1907
  474W        W 3993   2.215   6.698   0.587 -0.1629 -0.2319 -0.1306
  475W        W 3994   0.516   5.848   9.457  0.2851  0.0392  0.0953
  476W        W 3995   2.831   6.244   3.391 -0.2308 -0.1288  0.0641
  477W        W 3996   8.684   4.311   9.519 -0.2547 -0.1574  0.0553
  478W        W 3997   5.824   0.810  10.209  0.2985  0.2165 -0.0613
  479W        W 3998   6.214   8.588   9.950  0.2589  0.0227  0.0663
  480W        W 3999   3.130   0.329   9.962 -0.0975 -0.1479 -0.2179
  481W        W 4000   1.220   6.753   1.455 -0.2092  0.1752  0.0022
  482W        W 4001   8.975   8.849   3.141 -0.1260  0.2738  0.0881
  483W        W 4002   6.650   4.371   9.894  0.0141 -0.0477  0.2496
  484W        W 4003   9.367   6.437   9.187 -0.3227  0.2751 -0.0323
  485W        W 4004   0.451   8.635  11.025 -0.0561  0.1036  0.3073
  486W        W 4005   6.917   5.514   3.760 -0.0674  0.0935  0.1755
  487W        W 4006   1.286   0.725   3.793  0.0930  0.2092 -0.0129
  488W        W 4007   5.310   9.508   7.940 -0.0523 -0.1561 -0.0100
  489W        W 4008   6.860   6.106   0.583  0.2362  0.1821  0.0133
  490W        W 4009   9.570   9.211  11.880  0.1144  0.0985 -0.5219
  491W        W 4010   9.043   8.632   9.274 -0.1255 -0.1924 -0.2236
  492W        W 4011   1.821   7.538  10.565  0.1815 -0.0632  0.0814
  493W        W 4012   4.299   1.683   4.339  0.2526 -0.1973  0.1714
  494W        W 4013   9.090   1.614   9.582 -0.1060  0.4402 -0.1116
  495W        W 4014   7.378   4.466   8.406 -0.0164  0.1978  0.0493
  496W        W 4015   4.811   6.433   0.800  0.3878  0.1492 -0.1214
  497W        W 4016   3.730   1.011   9.360 -0.0417 -0.0928 -0.0500
  498W        W 4017   3.781   6.806   9.238 -0.0073  0.0847 -0.3134
  499W        W 4018   2.283   9.178  11.721  0.1413  0.0785 -0.0840
  500W        W 4019   0.891   4.127  10.411  0.0839 -0.1821  0.2635
  501W        W 4020   2.590   7.946   3.897 -0.1593  0.0039 -0.0595
  502W        W 4021   5.618   6.850   3.839  0.0938  0.2476  0.1286
  503W        W 4022   8.115   9.110   3.359  0.0798  0.0348  0.2969
  504W        W 4023   1.640   6.544  10.522  0.3629 -0.1093 -0.0497
  505W        W 4024   5.014   5.517   8.144  0.2321  0.2667  0.0599
  506W        W 4025   0.161   6.027   2.184  0.0532 -0.2258  0.0640
  507W        W 4026   0.417   4.121   0.552  0.1073  0.0457  0.2045
  508W        W 4027   8.975   0.631  10.534  0.1857  0.2656 -0.2919
  509W        W 4028   9.309   5.175   7.862  0.1274 -0.0205 -0.0602
  510W        W 4029   3.108   7.374   2.849 -0.0146  0.2081 -0.1155
  511W        W 4030   2.197   7.764   8.453 -0.2909 -0.2005 -0.1240
  512W        W 4031   1.295   8.210   0.664  0.1513 -0.2086 -0.1532
  513W        W 4032   6.019   1.489   1.543  0.0643  0.2923  0.1795
  514W        W 4033   8.716   6.844  10.960  0.0140  0.0274  0.3052
  515W        W 4034   5.389   5.810   0.025 -0.1183 -0.1111 -0.0792
  516W        W 4035   7.239   9.379   3.243  0.0193  0.1091 -0.0519
  517W        W 4036   6.884   7.518   2.767  0.2014 -0.0313 -0.1029
  518W        W 4037   7.238   2.605   2.747  0.2975  0.2172  0.1993
  519W        W 4038   6.503   0.197  10.414 -0.1423  0.0596  0.1108
  520W        W 4039   1.285   8.321  10.371  0.1432  0.0412 -0.0706
  521W        W 4040   4.978   5.243   4.314  0.1667 -0.0902  0.0721
  522W        W 4041   1.840   7.964  11.510 -0.1519  0.1892 -0.1098
  523W        W 4042   5.177   0.257  12.183 -0.2623 -0.0754  0.0396
  524W        W 4043   2.706   2.811   2.562  0.2034 -0.3228  0.0956
  525W        W 4044   2.967   2.490  12.276 -0.1215  0.0281 -0.4234
  526W        W 4045   7.779   3.705   9.655  0.1158 -0.1493 -0.1752
  527W        W 4046   1.447   1.401  11.502  0.1685 -0.2550  0.0082
  528W        W 4047   9.587   1.647  11.483  0.1010  0.1060 -0.1320
  529W        W 4048   6.014   6.808   1.100 -0.0919  0.0800 -0.0298
  530W        W 4049   7.427   3.084   2.713  0.3759 -0.0506  0.3566
  531W        W 4050   1.148   7.640   2.458 -0.0302 -0.1392  0.1143
  532W        W 4051   5.028   8.030   1.780 -0.1764  0.0484 -0.0605
  533W        W 4052   3.620   4.426  12.486  0.0784  0.3339  0.1931
  534W        W 4053   6.489   0.318   8.564 -0.2143 -0.1953 -0.2052
  535W        W 4054   3.105   7.877   9.229 -0.0256  0.0306  0.0103
  536W        W 4055   6.775   6.241   2.517 -0.0250  0.0027  0.3155
  537W        W 4056   5.362   7.320  10.148  0.2694  0.0787  0.0296
  538W        W 4057   5.215   0.189   0.345 -0.0618  0.1931  0.2902
  539W        W 4058   2.780   5.241  12.368 -0.0069  0.0033 -0.0266
  540W        W 4059   1.975   0.034   1.877  0.2217 -0.2703 -0.1402
  541W        W 4060   7.295   5.262   4.006  0.0452  0.0362 -0.3292
  542W        W 4061   3.833   5.985  11.737 -0.0786  0.1369 -0.3125
  543W        W 4062   7.302   4.187   9.962 -0.2009  0.2453 -0.1288
  544W        W 4063   6.914   6.878  10.898  0.0549 -0.0930 -0.0008
  545W        W 4064   5.234   4.146   4.488 -0.4494  0.1803 -0.0570
  546W        W 4065   9.024   2.604   9.748 -0.0637 -0.1502  0.1084
  547W        W 4066   0.344   7.533  12.232  0.2339 -0.0927  0.2310
  548W        W 4067   8.720   7.230   3.843  0.2149  0.3358 -0.1552
  549W        W 4068   5.411   7.446   4.104 -0.0750 -0.0750 -0.1734
  550W        W 4069   2.912   2.356   0.726 -0.5786 -0.1362  0.2498
  551W        W 4070   6.741   8.319  12.005 -0.1762 -0.4155  0.1126
  552W        W 4071   1.600   1.810   0.520 -0.1052  0.3733 -0.1276
  553W        W 4072   1.034   5.606   2.420  0.0653  0.2162 -0.0012
  554W        W 4073   0.111   1.147  11.605 -0.1811 -0.0054 -0.0415
  555W        W 4074   2.722   1.285   0.732 -0.0680 -0.0950 -0.1990
  556W        W 4075   1.607   6.135   1.913  0.0078  0.0908  0.0992
  557W        W 4076   0.325   5.964   9.907 -0.0372  0.3156 -0.0597
  558W        W 4077   3.991   6.114   3.871  0.2005  0.0371  0.3755
  559W        W 4078   4.040   7.469   2.241 -0.3653  0.2839  0.1972
  560W        W 4079   8.696   1.825  12.063  0.2362 -0.1346  0.0254
  561W        W 4080   2.069   8.311  10.162 -0.3607  0.0216 -0.1038
  562W        W 4081   6.144   4.354   1.500  0.1881  0.0671  0.0296
  563W        W 4082   3.984   3.279  12.461  0.0137  0.3816 -0.0473
  564W        W 4083   1.497   1.589   4.468 -0.3574  0.4236 -0.1999
  565W        W 4084   7.147   2.989  11.859 -0.0590  0.0734 -0.0240
  566W        W 4085   2.699   6.948  10.257  0.1749 -0.0468  0.1068
  567W        W 4086   8.338   6.809  12.085  0.1361  0.0312 -0.1056
  568W        W 4087   0.108   3.770  10.904  0.3446 -0.3863 -0.1394
  569W        W 4088   4.153   2.429   0.908 -0.0396  0.1265 -0.1370
  570W        W 4089   4.121   8.180   9.342 -0.0331  0.2308 -0.0233
  571W        W 4090   7.382   9.428   1.242  0.0281  0.1364 -0.1515
  572W        W 4091   0.592   4.557  11.205 -0.0315 -0.0611 -0.0859
  573W        W 4092   0.000   0.136  10.698 -0.1500 -0.0046  0.0723
  574W        W 4093   2.727   6.295   3.975  0.1722 -0.2879 -0.2591
  575W        W 4094   8.313   4.030   8.300  0.0658  0.1369  0.0406
  576W        W 4095   2.901   4.134   1.120  0.1779 -0.3583  0.0518
  577W        W 4096   5.180   3.571   8.903 -0.1649  0.0192 -0.3857
  578W        W 4097   7.877   3.051   2.364 -0.1077 -0.1686  0.1901
  579W        W 4098   8.804   9.678   2.850 -0.0913 -0.2855  0.1604
  580W        W 4099   8.630   0.620   9.975 -0.0747 -0.0955 -0.2351
  581W        W 4100   5.172   7.815   0.365  0.2293  0.1225  0.0381
  582W        W 4101   1.989   8.252   9.255  0.1656  0.0473  0.0794
  583W        W 4102   2.585   7.719   2.860 -0.2479  0.0141 -0.2112
  584W        W 4103   3.368   3.372  11.711  0.1468  0.0349 -0.1608
  585W        W 4104   1.397   4.214   2.444  0.0627 -0.0021 -0.0503
  586W        W 4105   5.746   2.375  11.411  0.0471  0.0079 -0.0171
  587W        W 4106   9.554   1.703   3.771 -0.1390 -0.2755 -0.0855
  588W        W 4107   0.637   0.636   3.112  0.2976 -0.1149  0.0768
  589W        W 4108   2.452   5.226   9.949 -0.0344  0.2509  0.1090
  590W        W 4109   4.161   3.537  11.542 -0.6653 -0.3519 -0.0919
  591W        W 4110   6.959   8.006   1.897 -0.0656 -0.0024  0.2931
  592W        W 4111   1.197   1.001  11.539  0.1038  0.1500 -0.2482
  593W        W 4112   0.753   0.135   3.387  0.1971  0.0493 -0.0437
  594W        W 4113   0.483   7.691  10.385 -0.0756  0.3144 -0.0443
  595W        W 4114   4.310   0.242   9.285 -0.0553  0.2021 -0.1218
  596W        W 4115   8.886   1.013  12.078  0.0560  0.0674  0.2957
  597W        W 4116   5.989   8.078   1.919 -0.1304  0.1106 -0.2225
  598W        W 4117   1.192   4.831   9.944  0.0874 -0.0101  0.2164
  599W        W 4118   2.193   4.059   3.576  0.0822  0.4116 -0.2724
  600W        W 4119   4.517   6.071  12.217 -0.1435  0.0072  0.2294
  601W        W 4120   6.892   4.685  11.713 -0.2104 -0.0942 -0.1137
  602W        W 4121   8.687   4.481   2.181  0.1745  0.2606  0.1284
  603W        W 4122   3.448   4.304   9.089 -0.2156 -0.0290  0.2043
  604W        W 4123   2.439   0.015   0.443 -0.2536  0.1120 -0.0176
  605W        W 4124   9.490   4.793   1.640 -0.0956  0.1200  0.0696
  606W        W 4125   2.006   9.373   0.915 -0.0226  0.2764 -0.2272
  607W        W 4126   3.159   8.396  12.215  0.3604  0.3107 -0.3062
  608W        W 4127   1.580   5.022  10.852 -0.4570  0.0018 -0.2481
  609W        W 4128   6.622   6.163   9.141  0.0924  0.2997 -0.2152
  610W        W 4129   9.509   0.739   2.101 -0.5178 -0.1507 -0.1282
  611W        W 4130   1.196   1.865   1.760  0.0592 -0.0139  0.0899
  612W        W 4131   6.385   2.782  11.969  0.0534  0.0521  0.4440
  613W        W 4132   7.287   1.746   2.716  0.0980 -0.0949 -0.0414
  614W        W 4133   0.715   1.966   9.395  0.0593  0.1614  0.3058
  615W        W 4134   3.739   3.970   5.133 -0.1757  0.3020  0.2630
  616W        W 4135   9.150   0.069   2.276  0.0339 -0.1682 -0.3881
  617W        W 4136   4.580   2.247   0.703  0.0309  0.2477  0.1955
  618W        W 4137   1.200   0.905   2.083  0.0124  0.1659  0.0473
  619W        W 4138   6.857   3.901  10.386  0.1290  0.1269 -0.1147
  620W        W 4139   4.809   3.640  12.322  0.3135  0.0040  0.0109
  621W        W 4140   2.200   8.324   1.569  0.1911 -0.1446 -0.2801
  622W        W 4141   8.108   3.361   0.718 -0.0151  0.4139 -0.0744
  623W        W 4142   3.942   8.101   1.419 -0.0254 -0.1692 -0.1782
  624W        W 4143   2.755   1.180  12.084 -0.0159 -0.1429  0.1958
  625W        W 4144   5.797   7.154   0.566  0.2846 -0.1281 -0.2663
  626W        W 4145   8.141   3.046  11.828 -0.1542  0.2242  0.3239
  627W        W 4146   8.660   8.424   0.808 -0.0633  0.3695 -0.0769
  628W        W 4147   9.441   3.168   3.079 -0.0417  0.0185  0.1154
  629W        W 4148   2.417   8.805   3.763  0.0694 -0.1333 -0.1345
  630W        W 4149   2.384   4.896   3.913 -0.2303  0.1547 -0.2716
  631W        W 4150   8.621   4.060   0.425  0.1678  0.0048  0.2095
  632W        W 4151   6.910   5.201   7.865 -0.0789 -0.0340 -0.1335
  633W        W 4152   2.066   7.431   0.205 -0.0707  0.0611  0.4289
  634W        W 4153   5.118   1.338  10.401  0.0831  0.1049 -0.1384
  635W        W 4154   3.836   9.652   0.694  0.3746 -0.0714  0.0059
  636W        W 4155   9.076   1.476   1.905 -0.2013 -0.1452  0.0738
  637W        W 4156   8.811   5.894  10.472  0.0768 -0.0638  0.3340
  638W        W 4157   0.301   1.614   3.978  0.0100 -0.0607 -0.1380
  639W        W 4158   4.079   8.658   0.191  0.1683  0.1024  0.1597
  640W        W 4159   3.174   3.387   0.857  0.0733 -0.0983 -0.0200
  641W        W 4160   5.155   2.370   2.628  0.4192 -0.0612 -0.4472
  642W        W 4161   0.577   9.128   9.530  0.0484 -0.1178 -0.5730
  643W        W 4162   2.825   6.037   0.088  0.3255  0.1463  0.0864
  644W        W 4163   9.176   7.657   2.010  0.3013  0.2227  0.1123
  645W        W 4164   4.010   6.429   3.505  0.1175  0.0207  0.2670
  646W        W 4165   0.311   6.240  12.418 -0.1904 -0.1453 -0.0478
  647W        W 4166   8.852   7.704  11.829 -0.1662 -0.2470 -0.2270
  648W        W 4167   0.913   2.606   1.044  0.0983 -0.0286 -0.0063
  649W        W 4168   3.404   7.570   9.528 -0.1652  0.1315 -0.0298
  650W        W 4169   2.731   2.057   1.348 -0.1094  0.2790 -0.1623
  651W        W 4170   3.841   4.264  10.360  0.2164  0.1097  0.1680
  652W        W 4171   2.855   5.141  11.805 -0.2169  0.0248 -0.0618
  653W        W 4172   6.189   2.855  11.481 -0.2438  0.1111 -0.2032
  654W        W 4173   4.504   5.530   1.093 -0.1946 -0.4007  0.1879
  655W        W 4174   1.216   8.164   3.006 -0.1817 -0.0088  0.1023
  656W        W 4175   9.442   4.926  10.091 -0.2276  0.3974 -0.0549
  657W        W 4176   3.796   6.560   2.987 -0.0194  0.1182  0.1353
  658W        W 4177   6.584   3.083   4.561 -0.0085 -0.1153 -0.0050
  659W        W 4178   5.622   4.462   2.384 -0.2523  0.3386  0.0485
  660W        W 4179   7.662   6.386   3.807 -0.2978 -0.2149  0.0821
  661W        W 4180   3.873   2.640   2.974  0.3978  0.0937 -0.2982
  662W        W 4181   5.827   3.793   1.243 -0.2952 -0.0806 -0.0086
  663W        W 4182   1.512   2.727   3.457 -0.0062 -0.2773  0.0338
  664W        W 4183   9.189   0.507  11.941  0.0061  0.2334 -0.1419
  665W        W 4184   7.139   5.634  11.017 -0.3118 -0.0247 -0.0772
  666W        W 4185   3.923   6.236  12.143 -0.0113 -0.1328 -0.0407
  667W        W 4186   1.881   5.340   0.883  0.2465  0.0410 -0.0871
  668W        W 4187   0.766   9.189   8.448  0.0130 -0.0333 -0.0408
  669W        W 4188   2.173   1.833   4.238 -0.2474 -0.0904  0.1474
  670W        W 4189   1.819   2.427   2.339 -0.1375  0.1587  0.0199
  671W        W 4190   9.330   8.969   1.278 -0.3086  0.2657  0.1028
  672W        W 4191   8.326   8.184   2.524 -0.0403  0.1883 -0.0119
  673W        W 4192   4.064   6.394  11.551 -0.4009  0.0205  0.0582
  674W        W 4193   0.297   5.422   1.615 -0.0827  0.2382  0.1474
  675W        W 4194   2.546   1.909   9.828 -0.1906  0.1717 -0.0046
  676W        W 4195   9.687   5.782  10.326  0.0332  0.0531  0.1050
  677W        W 4196   9.469   7.055  10.694 -0.1826 -0.0132 -0.0928
  678W        W 4197   1.564   8.860   9.644  0.1319 -0.3366 -0.0233
  679W        W 4198   4.964   7.431   3.832  0.2361  0.0542 -0.2224
  680W        W 4199   7.449   2.451   8.847 -0.0136  0.1425 -0.0004
  681W        W 4200   1.690   0.926   2.241  0.0232 -0.0940 -0.1162
  682W        W 4201   7.239   3.732   0.906  0.3870 -0.2715 -0.0588
  683W        W 4202   3.130   4.909  10.878  0.1681  0.2869 -0.0131
  684W        W 4203   5.092   1.835  10.348  0.0025  0.2141 -0.1085
  685W        W 4204   6.130   3.426  10.797  0.0429  0.1560 -0.2634
  686W        W 4205   6.130   7.641  12.439 -0.0831  0.0820 -0.2898
  687W        W 4206   1.974   7.797   1.237 -0.4357  0.0695  0.2455
  688W        W 4207   0.442   0.600  10.255 -0.0830  0.1885  0.1352
  689W        W 4208   5.980   9.012   1.293  0.0999  0.1209  0.1545
  690W        W 4209   2.732   0.409   0.628 -0.0810  0.1797  0.1818
  691W        W 4210   3.741   9.192  10.266  0.1199 -0.2124  0.0263
  692W        W 4211   6.768   1.255  11.089 -0.1389 -0.0327  0.1462
  693W        W 4212   6.321   3.233   1.030 -0.4561 -0.0744  0.3838
  694W        W 4213   2.701   7.482   4.656 -0.1044  0.2687 -0.1056
  695W        W 4214   9.277   8.563  10.682 -0.2234  0.1311 -0.5000
  696W        W 4215   1.948   8.932  10.032 -0.0320 -0.2000  0.4254
  697W        W 4216   5.026   3.014  11.029  0.4359 -0.1991 -0.2252
  698W        W 4217   4.851   2.722   0.999  0.1797 -0.0378 -0.0742
  699W        W 4218   3.437   9.037  10.788  0.0901  0.1652  0.0540
  700W        W 4219   8.786   9.413   1.931 -0.1596 -0.0402  0.0873
  701W        W 4220   9.617   7.140  10.242  0.0899 -0.0892 -0.1648
  702W        W 4221   9.626   0.084   3.169 -0.0518 -0.1322 -0.1591
  703W        W 4222   8.946   3.597   8.930 -0.4722 -0.5528  0.1735
  704W        W 4223   1.933   2.273  10.574 -0.0333 -0.2249  0.1138
  705W        W 4224   4.873   2.850  10.101  0.0303 -0.1614 -0.2696
  706W        W 4225   0.409   7.062  10.191  0.2379 -0.2002 -0.0260
  707W        W 4226   2.217   2.271   4.022 -0.2808  0.0373 -0.0432
  708W        W 4227   0.616   6.319   9.694 -0.1261  0.2332  0.3558
  709W        W 4228   6.300   4.473   9.541  0.0321  0.0755 -0.2358
  710W        W 4229   3.943   1.932  11.579 -0.3857 -0.2270 -0.0211
  711W        W 4230   7.472   3.227  11.607 -0.0494 -0.4500  0.0661
  712W        W 4231   9.406   3.325   1.205 -0.0435 -0.0415 -0.3694
  713W        W 4232   7.082   6.517   3.729  0.2379  0.1850 -0.1188
  714W        W 4233   1.441   3.422   2.843 -0.2764 -0.0372  0.1098
  715W        W 4234   6.287   1.300  10.961  0.4242  0.0977 -0.0119
  716W        W 4235   9.314   8.604   2.177  0.0505  0.0621 -0.3373
  717W        W 4236   0.313   6.907   0.942 -0.1362 -0.1766 -0.2940
  718W        W 4237   9.571   0.401   1.112  0.4207 -0.0430 -0.1060
  719W        W 4238   6.929   6.652   7.729 -0.1470 -0.1114  0.1468
  720W        W 4239   4.974   3.919   2.968 -0.0304  0.0774 -0.2266
  721W        W 4240   7.819   3.009   4.366 -0.0820  0.1780 -0.1801
  722W        W 4241   3.393   2.335   3.980  0.5091 -0.1306  0.4235
  723W        W 4242   1.801   5.763  12.111 -0.0030  0.1975 -0.2804
  724W        W 4243   9.223   5.330   1.343 -0.4380 -0.0922 -0.2086
  725W        W 4244   0.985   8.714   4.222  0.0245  0.1910 -0.1851
  726W        W 4245   0.436   2.932  12.459 -0.3172 -0.3264 -0.0182
  727W        W 4246   2.970   2.072   8.963  0.1330  0.4211  0.1301
  728W        W 4247   4.810   5.650   3.890 -0.0752 -0.3583 -0.1508
  729W        W 4248   3.011   6.846   8.597 -0.2337  0.0219 -0.3696
  730W        W 4249   6.593   8.391   2.359  0.0504 -0.4402 -0.0750
  731W        W 4250   2.284   2.983   0.791 -0.2900 -0.0548  0.0612
  732W        W 4251   4.881   7.432   2.953 -0.3101 -0.4000  0.0767
  733W        W 4252   6.153   2.974   8.997  0.2839  0.1563 -0.1313
  734W        W 4253   2.282   8.011  11.290 -0.0829 -0.1797  0.0203
  735W        W 4254   3.215   2.334  10.051 -0.4232 -0.3113  0.0610
  736W        W 4255   7.640   5.386   3.298  0.0296  0.2913  0.0268
  737W        W 4256   2.811   6.425   8.791 -0.0953 -0.1260  0.0373
  738W        W 4257   2.668   9.662  10.722 -0.1077  0.3507  0.2292
  739W        W 4258   6.083   2.506   8.730  0.2849 -0.1129  0.2300
  740W        W 4259   0.548   5.718   0.149  0.0894  0.0032 -0.0065
  741W        W 4260   6.913   6.065  10.931 -0.0317 -0.3030  0.1473
  742W        W 4261   7.404   3.866   4.250  0.1561 -0.1254  0.0434
  743W        W 4262   4.494   0.978   0.526 -0.0609  0.2648  0.2279
  744W        W 4263   6.496   6.848   9.444 -0.0277 -0.3018 -0.0663
  745W        W 4264   4.948   9.152  12.293  0.0231 -0.0124  0.5447
  746W        W 4265   5.856   2.189  10.351  0.3033  0.2148 -0.0813
  747W        W 4266   2.671   6.356  11.093  0.2214  0.5845 -0.2749
  748W        W 4267   3.796   9.419   9.694  0.2863 -0.1386  0.3068
  749W        W 4268   3.419   8.281  10.191 -0.1898 -0.2111 -0.2784
  750W        W 4269   0.816   9.582   2.962  0.0565 -0.0252 -0.1000
  751W        W 4270   4.584   9.200  11.817  0.1522  0.0009  0.2378
  752W        W 4271   7.630   4.971  10.634 -0.2523 -0.0685 -0.2976
  753W        W 4272   7.458   4.527   0.853  0.0366 -0.0384  0.1164
  754W        W 4273   2.519   8.258  10.358  0.1454  0.1793  0.1371
  755W        W 4274   5.319   8.704   8.895 -0.3023  0.1206  0.1439
  756W        W 4275   5.733   8.387  11.492  0.0615 -0.1005 -0.1144
  757W        W 4276   2.354   8.793  10.368 -0.0392  0.2105  0.2512
  758W        W 4277   1.345   4.611   0.092  0.0389 -0.0740  0.0269
  759W        W 4278   3.390   3.998   1.278  0.1540  0.2513  0.1464
  760W        W 4279   7.193   7.937   8.958 -0.3745  0.2570  0.0186
  761W        W 4280   6.286   0.776   0.477  0.1823 -0.0213 -0.0692
  762W        W 4281   3.229   0.270   9.152  0.1373  0.1166 -0.2881
  763W        W 4282   5.465   7.518   0.773 -0.0182  0.0746  0.3600
  764W        W 4283   7.701   4.663   0.447 -0.0330 -0.0202  0.1262
  765W        W 4284   0.482   9.527   9.841  0.1497  0.0401 -0.0611
  766W        W 4285   8.790   7.389  11.014  0.1535  0.0541 -0.0620
  767W        W 4286   0.585   0.132   2.062 -0.1200  0.1351 -0.1526
  768W        W 4287   3.665   7.956   3.862 -0.0565 -0.0798 -0.0249
  769W        W 4288   1.631   6.341  10.993 -0.1067  0.2908 -0.1534
  770W        W 4289   8.650   0.597   0.359  0.1548 -0.2883  0.1969
  771W        W 4290   3.261   8.153   4.102 -0.2711 -0.3624 -0.0517
  772W        W 4291   3.240   5.449  12.002 -0.3287  0.0436  0.2199
  773W        W 4292   0.932   4.226   2.792  0.2827  0.2612 -0.1825
  774W        W 4293   1.804   4.211   1.705 -0.0829  0.0975 -0.2417
  775W        W 4294   6.993   4.603   2.805  0.2965  0.0327  0.1622
  776W        W 4295   2.181   6.520  12.314  0.4109  0.0172  0.0000
  777W        W 4296   5.693   9.706   0.108  0.1797  0.1369  0.1465
  778W        W 4297   9.279   3.551   4.512  0.1350  0.2496  0.1115
  779W        W 4298   9.311   5.425   9.220 -0.0418 -0.1300 -0.1724
  780W        W 4299   5.627   4.883   2.777  0.0311  0.0138 -0.2539
  781W        W 4300   6.850   6.640   1.571 -0.1838 -0.3286  0.0372
  782W        W 4301   3.737   8.548  11.617  0.1604  0.2505  0.0912
  783W        W 4302   6.389   0.406   4.385  0.1408  0.1418  0.3629
  784W        W 4303   0.597   7.370   1.201  0.1081 -0.1857 -0.1145
  785W        W 4304   2.351   2.864   9.332  0.0078 -0.5591  0.0414
  786W        W 4305   8.061   7.716   0.720 -0.0826 -0.0549 -0.0434
  787W        W 4306   2.044   1.253  10.718  0.4238 -0.0456  0.4526
  788W        W 4307   2.400   5.538  12.226  0.0762 -0.2249 -0.2398
  789W        W 4308   5.025   9.550   8.484  0.1688  0.0456 -0.0679
  790W        W 4309   2.894   4.648   0.480 -0.1818 -0.0013 -0.0976
  791W        W 4310   5.464   3.025  10.754  0.0544  0.1774  0.2691
  792W        W 4311   4.020   6.134   1.496 -0.1969  0.0536 -0.1362
  793W        W 4312   7.953   2.004  10.914  0.0642  0.1416 -0.0449
  794W        W 4313   0.860   4.574  11.711 -0.0600 -0.0143 -0.0485
  795W        W 4314   2.590   4.005   0.227  0.0337 -0.0341 -0.0224
  796W        W 4315   6.554   9.517   9.625 -0.0777  0.0058 -0.0905
  797W        W 4316   4.726   4.927   1.613 -0.1822 -0.2571 -0.0395
  798W        W 4317   0.268   1.521   1.656  0.0326 -0.5905  0.0913
  799W        W 4318   0.256   5.034   2.383  0.2252  0.0820  0.1722
  800W        W 4319   6.762   5.007   2.014 -0.2150  0.3310  0.1103
  801W        W 4320   1.560   4.659  11.199 -0.0451  0.2526 -0.0705
  802W        W 4321   5.723   8.510  10.944 -0.0220  0.0174 -0.0597
  803W        W 4322   2.792   5.283  11.035  0.6431  0.0213 -0.1203
  804W        W 4323   0.142   8.157  12.463 -0.2734 -0.1548  0.0165
  805W        W 4324   2.370   0.599   1.184  0.0277  0.0004 -0.1785
  806W        W 4325   9.484   2.189   2.508  0.3182  0.1157  0.1369
  807W        W 4326   6.449   5.131   9.950 -0.1790  0.0274 -0.0594
  808W        W 4327   4.757   5.864  10.408 -0.4733 -0.4150 -0.1512
  809W        W 4328   2.702   8.037   4.597  0.0824  0.2992  0.3386
  810W        W 4329   0.967   8.415   2.554 -0.1788  0.0608  0.1495
  811W        W 4330   3.854   4.624   3.900  0.0148 -0.0247  0.2220
  812W        W 4331   9.517   2.359   0.361  0.3224  0.1884 -0.0482
  813W        W 4332   7.245   7.635   3.956 -0.0886 -0.3469  0.0136
  814W        W 4333   2.228   9.588   8.544 -0.2466  0.1501  0.0919
  815W        W 4334   7.765   2.842   9.912  0.1333  0.1237  0.0365
  816W        W 4335   5.103   1.345   1.215 -0.1953 -0.1655 -0.0793
  817W        W 4336   6.552   9.099  11.470  0.2258  0.0227 -0.3678
  818W        W 4337   6.710   8.514   0.108  0.1314 -0.2035 -0.0791
  819W        W 4338   8.694   9.150   8.871  0.1510 -0.4068 -0.0333
  820W        W 4339   8.800   8.769   2.065 -0.1397  0.1296 -0.1354
  821W        W 4340   6.832   2.507   3.779 -0.0013  0.5440  0.0598
  822W        W 4341   7.782   3.630  11.351  0.0642  0.0076 -0.0397
  823W        W 4342   1.066   8.317   9.036 -0.2915 -0.2014  0.3846
  824W        W 4343   4.438   6.210   2.653  0.1947 -0.1101 -0.0834
  825W        W 4344   5.806   2.672   2.907  0.2094  0.1557 -0.0794
  826W        W 4345   9.048   5.321   2.347 -0.2282  0.0356 -0.0471
  827W        W 4346   2.016   2.440   1.151  0.0305 -0.0973  0.1067
  828W        W 4347   5.754   1.059  11.822 -0.0122  0.0948  0.0414
  829W        W 4348   8.371   5.122   9.494 -0.3624 -0.0844 -0.3888
  830W        W 4349   0.651   8.676   0.270 -0.1173  0.0047  0.1710
  831W        W 4350   4.090   4.040   2.646  0.1986  0.0783 -0.1253
  832W        W 4351   8.828   1.897   3.682  0.1746  0.4778  0.3298
  833W        W 4352   8.874   0.704   9.071  0.3378 -0.1471  0.0017
  834W        W 4353   4.104   3.392   8.680  0.1400 -0.0520  0.3526
  835W        W 4354   9.538   5.082   2.655 -0.0853 -0.1027 -0.1008
  836W        W 4355   1.686   5.711  10.086  0.1447  0.1538  0.2068
  837W        W 4356   3.059   5.231   2.419  0.0141  0.3996  0.0257
  838W        W 4357   3.009   1.283  10.740 -0.0646 -0.1604 -0.0494
  839W        W 4358   0.213   6.779   3.306  0.2910 -0.3022 -0.0827
  840W        W 4359   4.640   8.923   2.271  0.1620 -0.1135  0.1714
  841W        W 4360   6.240   2.434   0.489  0.3267  0.6171 -0.1051
  842W        W 4361   4.566   3.130   3.177 -0.0019  0.1770 -0.1222
  843W        W 4362   2.698   6.754   1.333  0.2452  0.0405  0.2248
  844W        W 4363   0.110   2.533   0.023  0.1910  0.0933  0.3012
  845W        W 4364   7.502   1.802   3.154  0.0793 -0.0139  0.0932
  846W        W 4365   8.303   4.587  10.714 -0.1908  0.1115 -0.0393
  847W        W 4366   7.156   1.281   2.512 -0.2488  0.0222 -0.0715
  848W        W 4367   8.165   9.495  12.204 -0.0961 -0.2395 -0.2365
  849W        W 4368   5.553   8.354   1.908  0.0759  0.2793 -0.1437
  850W        W 4369   3.579   2.301   5.132 -0.0836  0.3601 -0.4234
  851W        W 4370   2.635   7.940  10.743  0.2411  0.2931 -0.1604
  852W        W 4371   1.566   4.783  12.162 -0.0681 -0.2449  0.4599
  853W        W 4372   8.564   0.025   9.065  0.1100 -0.0794 -0.1170
  854W        W 4373   6.188   3.282   0.541 -0.0535  0.2523  0.0635
  855W        W 4374   4.597   3.167   1.679 -0.1367  0.1644 -0.1176
  856W        W 4375   3.552   2.079   8.308 -0.1399  0.1237 -0.1790
  857W        W 4376   5.349   4.799   0.515  0.1188 -0.0576  0.2759
  858W        W 4377   0.778   4.974   8.733  0.2406  0.2122  0.1420
  859W        W 4378   3.417   6.759   4.159 -0.1571 -0.1708  0.2489
  860W        W 4379   5.769   2.411   9.588  0.0639  0.1849  0.0726
  861W        W 4380   9.144   1.620   9.075 -0.1144 -0.1879  0.0022
  862W        W 4381   5.668   2.484   2.443  0.2122  0.3117 -0.1051
  863W        W 4382   3.159   7.837   1.573 -0.1655  0.1737 -0.1316
  864W        W 4383   5.401   2.669   9.789  0.0382  0.0107  0.2785
  865W        W 4384   3.003   6.301   2.915 -0.1480 -0.2120 -0.2978
  866W        W 4385   5.123   6.426  11.597  0.2346 -0.0259  0.0137
  867W        W 4386   6.358   4.546   8.565 -0.1048  0.1816  0.0698
  868W        W 4387   0.534   7.817   0.069  0.0801 -0.0577  0.0534
  869W        W 4388   3.354   1.504   1.914 -0.2921 -0.0436 -0.1062
  870W        W 4389   5.246   9.307   9.880 -0.2403  0.0538  0.1510
  871W        W 4390   9.156   4.646  11.931 -0.0367 -0.2787 -0.2021
  872W        W 4391   1.862   4.705   9.410 -0.1493 -0.3165  0.3419
  873W        W 4392   9.148   0.660  10.009  0.1154  0.0683 -0.1184
  874W        W 4393   5.420   4.473  10.499 -0.0317 -0.2538 -0.1277
  875W        W 4394   6.036   9.259   2.610 -0.0696  0.1930 -0.1167
  876W        W 4395   4.602   9.025   9.211  0.2377 -0.0046 -0.1340
  877W        W 4396   5.920   8.098  12.332  0.0165 -0.3687 -0.0857
  878W        W 4397   9.323   4.435  10.092 -0.2363  0.2237  0.2760
  879W        W 4398   7.096   4.788  11.213  0.3412 -0.0029 -0.0036
  880W        W 4399   8.673   1.177   8.941 -0.2514 -0.2295  0.1416
  881W        W 4400   3.875   9.149  11.488  0.1830 -0.0013 -0.2110
  882W        W 4401   6.666   9.060   0.803 -0.0778 -0.1022  0.2639
  883W        W 4402   0.305   5.576  10.620  0.1029 -0.0352 -0.0023
  884W        W 4403   8.004   7.408   8.335 -0.0004  0.0068  0.1869
  885W        W 4404   6.312   9.293   2.139  0.3221 -0.0427 -0.3446
  886W        W 4405   5.772   8.836   9.206  0.0668  0.2041 -0.0598
  887W        W 4406   0.004   7.810   3.311  0.2166 -0.0981 -0.0313
  888W        W 4407   1.647   4.797   0.465  0.0791 -0.2390  0.1473
  889W        W 4408   9.050   9.523   3.666 -0.0881 -0.0945 -0.4150
  890W        W 4409   0.445   0.768   9.705 -0.0583 -0.1764  0.3450
  891W        W 4410   9.332   6.192   8.698 -0.0630 -0.0729  0.2068
  892W        W 4411   3.379   2.838   1.011  0.1695  0.2302  0.1379
  893W        W 4412   5.264   2.680   3.047  0.1963 -0.1760 -0.0461
  894W        W 4413   4.288   0.182   0.460  0.0638 -0.2085  0.1554
  895W        W 4414   9.281   7.221   2.294  0.0825  0.0499 -0.1610
  896W        W 4415   2.256   1.274  12.014  0.0158 -0.3125  0.0237
  897W        W 4416   4.800   5.938   9.517  0.0325  0.0769 -0.1247
  898W        W 4417   3.059   8.696  11.311 -0.1603  0.1603  0.2334
  899W        W 4418   0.313   0.502   1.339  0.2055 -0.0221  0.2149
  900W        W 4419   3.893   6.908   8.689 -0.3282 -0.1554  0.1216
  901W        W 4420   5.415   9.262   4.047 -0.1425 -0.1113 -0.2664
  902W        W 4421   2.498   2.012  10.302 -0.0237 -0.1345 -0.0484
  903W        W 4422   3.225   5.957  11.712  0.1162  0.0655  0.0844
  904W        W 4423   7.020   1.717  10.286  0.1199  0.2714 -0.0739
  905W        W 4424   0.012   1.763   2.658  0.1679  0.0785 -0.0165
  906W        W 4425   7.032   8.817   9.688 -0.0503  0.1144  0.0321
  907W        W 4426   8.345   7.693   9.741  0.1283  0.1503 -0.2907
  908W        W 4427   5.858   3.356   9.319 -0.3712  0.1581 -0.3319
  909W        W 4428   1.713   5.450   3.243  0.1172 -0.1802  0.3199
  910W        W 4429   7.676   0.452   1.579  0.0446 -0.0781 -0.0284
  911W        W 4430   8.040   8.320  11.155 -0.4540  0.1618 -0.0580
  912W        W 4431   8.351   2.782   4.082 -0.1617 -0.2333  0.1789
  913W        W 4432   7.425   7.436  10.628 -0.0029 -0.1049 -0.0157
  914W        W 4433   7.453   1.893   0.943 -0.0135 -0.1504  0.0799
  915W        W 4434   3.396   2.775  11.630  0.2882 -0.1201  0.5396
  916W        W 4435   1.924   3.604  10.929 -0.2013  0.1058  0.0392
  917W        W 4436   1.070   6.399   3.633  0.0819 -0.3567 -0.1900
  918W        W 4437   1.569   7.844   2.842  0.0450  0.0542  0.1379
  919W        W 4438   1.109   2.047  11.843 -0.1074  0.0016 -0.0897
  920W        W 4439   3.988   1.355  10.217  0.0721 -0.2462  0.0510
  921W        W 4440   3.798   3.087  11.629  0.0135  0.0287  0.0836
  922W        W 4441   6.848   5.995   3.692 -0.1004 -0.4269 -0.2873
  923W        W 4442   2.075   8.106   8.800 -0.1712  0.1397 -0.0422
  924W        W 4443   7.478   8.076   0.032 -0.1534 -0.0476  0.1981
  925W        W 4444   5.416   6.846  10.238  0.0699 -0.1667 -0.5275
  926W        W 4445   5.815   0.052   8.770  0.3633  0.0430  0.4630
  927W        W 4446   5.468   9.513   0.662 -0.0401  0.0217  0.0128
  928W        W 4447   6.001   7.969   0.292 -0.0458 -0.0684 -0.0720
  929W        W 4448   6.122   3.217  11.849  0.2629  0.0693 -0.0139
  930W        W 4449   9.389   4.899   9.188  0.2302 -0.2718  0.0652
  931W        W 4450   1.916   4.836  11.854 -0.1091  0.0018 -0.1498
  932W        W 4451   1.060   5.844   1.122  0.3078  0.1664 -0.1915
  933W        W 4452   4.912   1.938   1.498 -0.0066  0.0276  0.1622
  934W        W 4453   6.643   0.781   8.614  0.1564 -0.2035  0.0843
  935W        W 4454   2.210   9.027   3.289 -0.0400  0.1531  0.2354
  936W        W 4455   0.811   6.794  10.604  0.1476  0.1146 -0.0068
  937W        W 4456   1.891   2.005   0.897  0.1695  0.0789  0.2065
  938W        W 4457   4.101   9.595   2.699 -0.1516  0.3261  0.1624
  939W        W 4458   7.398   4.781   8.758  0.2643 -0.1436  0.0178
  940W        W 4459   8.644   3.218   0.089  0.2718 -0.1061  0.0971
  941W        W 4460   1.366   5.992  12.246 -0.0625  0.2265  0.0280
  942W        W 4461   1.519   8.475   0.258 -0.1480  0.1195  0.0075
  943W        W 4462   2.131   1.995   2.356  0.3773  0.1278  0.0110
  944W        W 4463   1.531   1.603   4.974  0.0777  0.0449 -0.4214
  945W        W 4464   3.293   0.958  11.608 -0.0212  0.1286  0.1211
  946W        W 4465   8.173   9.146   2.749  0.4118  0.1497  0.0521
  947W        W 4466   9.359   6.360  11.682  0.1277 -0.2083 -0.0541
  948W        W 4467   0.874   2.475   8.715  0.0665 -0.3792 -0.3241
  949W        W 4468   2.033   5.166   9.586  0.2051  0.1300 -0.1023
  950W        W 4469   0.001   3.193   8.803 -0.0092  0.1256 -0.0125
  951W        W 4470   5.406   5.369   2.947  0.1357 -0.3395  0.2614
  952W        W 4471   8.404   3.611   4.523 -0.0040  0.1256 -0.0733
  953W        W 4472   9.621   2.754   3.371  0.2094  0.1770 -0.0049
  954W        W 4473   1.244   0.007   3.210 -0.0382  0.0469 -0.1819
  955W        W 4474   7.524   8.959  10.470 -0.0004 -0.1851  0.0718
  956W        W 4475   5.415   3.452   2.288  0.0039  0.1561 -0.0760
  957W        W 4476   4.487   9.373   4.261 -0.0570 -0.3438  0.1459
  958W        W 4477   4.828   2.800   2.624 -0.0389 -0.0386 -0.1377
  959W        W 4478   1.752   4.845   4.834 -0.0458  0.2791 -0.0730
  960W        W 4479   9.381   7.890   9.318 -0.2417  0.1133  0.1797
  961W        W 4480   2.072   9.502   3.303  0.0354 -0.2516  0.0583
  962W        W 4481   1.175   1.399   3.495 -0.0555  0.0560  0.1787
  963W        W 4482   2.537   6.585   3.063 -0.0652 -0.1068  0.3937
  964W        W 4483   4.772   7.590   1.699  0.6624  0.1766  0.2362
  965W        W 4484   0.126   2.594   2.972 -0.1641  0.0478  0.3453
  966W        W 4485   2.312   8.106  12.160  0.0854 -0.1932  0.1093
  967W        W 4486   1.787   4.341   0.417  0.2189  0.0037  0.1611
  968W        W 4487   6.706   9.345  12.440 -0.0124  0.1310 -0.0275
  969W        W 4488   7.175   5.614   1.595 -0.1942  0.0344  0.1815
  970W        W 4489   1.045   3.161   1.921 -0.1271  0.0220  0.1726
  971W        W 4490   1.123   2.218   1.264 -0.1755  0.2875  0.0856
  972W        W 4491   2.749   4.231   2.292  0.4447 -0.0399  0.0790
  973W        W 4492   1.891   0.466   0.113  0.4151 -0.0346 -0.0531
  974W        W 4493   4.304   8.307   0.797 -0.1846 -0.1529  0.2207
  975W        W 4494   6.264   9.492   2.984  0.2569 -0.0278 -0.2455
  976W        W 4495   6.901   5.165   0.319 -0.0925  0.1278 -0.3579
  977W        W 4496   3.832   2.838   1.978  0.0313 -0.1755  0.0802
  978W        W 4497   2.442   2.085   3.117 -0.0356 -0.1282  0.1407
  979W        W 4498   3.203   0.999   3.869  0.0065  0.0587  0.0193
  980W        W 4499   8.493   0.708   2.221  0.2388 -0.1250 -0.4288
  981W        W 4500   9.168   7.996   0.737 -0.0092 -0.1697 -0.1281
  982W        W 4501   1.659   0.396   9.718 -0.0350 -0.1239  0.0013
  983W        W 4502   7.112   9.361  10.434  0.3208 -0.3193 -0.0984
  984W        W 4503   5.769   5.083  12.341  0.0001 -0.0506  0.0553
  985W        W 4504   5.131   1.750   8.692  0.4014  0.2100  0.0069
  986W        W 4505   3.134   6.540   9.561 -0.1686  0.0253  0.0194
  987W        W 4506   6.813   4.412   0.011 -0.0537  0.1896  0.0558
  988W        W 4507   2.401   7.295   8.566 -0.1592  0.2676  0.1156
  989W        W 4508   1.113   0.351   0.872  0.2278 -0.2455  0.1815
  990W        W 4509   3.940   2.104  11.071  0.1927  0.0674  0.0440
  991W        W 4510   7.903   0.150   0.610  0.1879 -0.2249  0.0588
  992W        W 4511   5.644   1.450   3.911  0.2498 -0.0704 -0.0652
  993W        W 4512   4.522   8.431  12.417  0.0188 -0.0221 -0.1036
  994W        W 4513   6.384   3.634   9.127 -0.1436  0.0692  0.0255
  995W        W 4514   0.619   6.633  12.214  0.3372  0.1869 -0.0954
  996W        W 4515   4.255   4.023   2.157  0.3062  0.2564 -0.2903
  997W        W 4516   7.951   2.394   1.007 -0.0632  0.2396 -0.3799
  998W        W 4517   3.941   7.779   1.829  0.0953 -0.2412 -0.0579
  999W        W 4518   1.223   8.871   2.684  0.2053 -0.0758 -0.1426
 1000W        W 4519   6.905   8.969   8.338 -0.0304  0.1186 -0.0084
 1001W        W 4520   4.761   7.940   9.720  0.1326 -0.0472 -0.0643
 1002W        W 4521   0.401   3.799   4.148  0.0282  0.0695 -0.1181
 1003W        W 4522   5.535   4.869   1.044  0.0025 -0.0600  0.3666
 1004W        W 4523   2.952   6.701  11.284 -0.0583  0.2480  0.0570
 1005W        W 4524   2.581   4.845  11.028 -0.0833 -0.0173  0.2732
 1006W        W 4525   6.996   7.397  11.049 -0.3888 -0.1468 -0.1774
 1007W        W 4526   4.980   2.411  12.048  0.0747  0.0236  0.2463
 1008W        W 4527   2.410   3.671   8.806  0.1842 -0.2849 -0.1274
 1009W        W 4528   4.028   4.767   3.344 -0.0125 -0.1079  0.2514
 1010W        W 4529   6.424   0.921  11.313 -0.1936 -0.0467  0.0837
 1011W        W 4530   4.232   2.272  12.487  0.0130  0.0558  0.1305
 1012W        W 4531   9.305   2.860   1.123 -0.1460  0.1580  0.0512
 1013W        W 4532   4.035   7.148  10.321 -0.2687  0.1565  0.2050
 1014W        W 4533   6.348   5.178   1.342 -0.0955 -0.1046 -0.4103
 1015W        W 4534   6.778   5.805  12.230 -0.0081  0.0629 -0.1274
 1016W        W 4535   4.729   7.208   7.988  0.2209  0.1062 -0.1870
 1017W        W 4536   1.889   4.891   1.449 -0.3090 -0.4092 -0.2717
 1018W        W 4537   1.479   5.347   2.442 -0.1472  0.0079  0.0107
 1019W        W 4538   5.950   6.070   9.169 -0.0830 -0.2598  0.1139
 1020W        W 4539   3.309   2.624  11.182 -0.0705 -0.0194  0.2258
 1021W        W 4540   0.529   5.228   1.090 -0.0695  0.1805  0.1759
 1022W        W 4541   6.085   3.996   8.969 -0.3614  0.0265 -0.0493
 1023W        W 4542   4.345   3.682   4.248 -0.0346  0.2707  0.2998
 1024W        W 4543   7.500   2.918  10.766 -0.1410 -0.3398 -0.3188
 1025W        W 4544   3.805   9.111   1.984  0.1986 -0.1006 -0.0928
 1026W        W 4545   2.665   9.089  12.070 -0.0779  0.0231 -0.2465
 1027W        W 4546   1.554   3.876   0.243  0.0009  0.0617 -0.1420
 1028W        W 4547   2.521   2.008   1.892 -0.0891 -0.2898 -0.2701
 1029W        W 4548   0.397   1.037  12.445 -0.0361  0.1728  0.1527
 1030W        W 4549   1.542   2.829   0.545 -0.1841 -0.0413  0.0923
 1031W        W 4550   5.925   8.302  10.588 -0.0421  0.1896 -0.1437
 1032W        W 4551   8.009   5.746   3.623 -0.1606  0.0670  0.1446
 1033W        W 4552   4.699   6.927   9.114 -0.1549  0.0445  0.1282
 1034W        W 4553   6.415   8.932  10.412  0.3956  0.0215  0.2024
 1035W        W 4554   1.564   7.561  11.894 -0.1270 -0.2689 -0.0835
 1036W        W 4555   6.087   1.533   4.027 -0.3183 -0.2174 -0.1996
 1037W        W 4556   7.144   0.405   3.489 -0.0258 -0.0214 -0.3240
 1038W        W 4557   4.403   1.771   3.026  0.2608  0.2436  0.2880
 1039W        W 4558   0.369   4.942   0.229  0.4949  0.0506  0.1058
 1040W        W 4559   3.289   5.204   1.765 -0.2134 -0.0045  0.0073
 1041W        W 4560   5.746   6.070  12.326  0.0307 -0.0722  0.0757
 1042W        W 4561   5.104   0.994   8.089  0.0517 -0.1215 -0.0567
 1043W        W 4562   3.226   0.620   4.714  0.0293 -0.1873  0.2378
 1044W        W 4563   3.643   5.054   3.569 -0.2484  0.1340  0.1798
 1045W        W 4564   4.228   8.858   2.014  0.0561  0.1057  0.3402
 1046W        W 4565   1.936   1.941  10.224  0.4129 -0.1556  0.1233
 1047W        W 4566   5.195   7.764   9.958  0.4590  0.4528  0.3089
 1048W        W 4567   7.931   3.186  10.956  0.0464  0.0965  0.0899
 1049W        W 4568   3.781   1.860  10.217  0.1270  0.2674  0.3645
 1050W        W 4569   4.112   0.664   0.327 -0.1783  0.2630  0.2858
 1051W        W 4570   3.999   3.063   2.584  0.0846  0.1553  0.1519
 1052W        W 4571   2.063   1.709   9.828  0.1557 -0.1905 -0.0940
 1053W        W 4572   2.215   5.577  11.278 -0.3964  0.2887  0.1520
 1054W        W 4573   1.170   5.184   0.299 -0.2954 -0.1987  0.0974
 1055W        W 4574   8.154   6.015   9.343 -0.0380 -0.0606 -0.0694
 1056W        W 4575   0.641   7.140   2.293  0.0302  0.0596  0.0691
 1057W        W 4576   5.468   8.232   3.139  0.4493  0.0731  0.1796
 1058W        W 4577   9.106   4.049   0.702  0.0287 -0.2565  0.2068
 1059W        W 4578   8.369   7.096   9.693  0.0112  0.1107 -0.2536
 1060W        W 4579   7.112   9.420   9.751 -0.2042  0.0264  0.0234
 1061W        W 4580   4.318   8.462   2.406 -0.1096  0.2881 -0.0853
 1062W        W 4581   0.932   0.681  11.764  0.1779  0.2076 -0.0622
 1063W        W 4582   4.367   1.712  12.497 -0.0602  0.2329  0.3391
 1064W        W 4583   4.982   4.779   9.961  0.1063 -0.1859  0.1398
 1065W        W 4584   1.707   9.605  12.187 -0.0065  0.2370 -0.1034
 1066W        W 4585   2.071   6.220  10.514 -0.0630  0.2237 -0.2173
 1067W        W 4586   1.305   2.879   9.274  0.1839 -0.2503  0.0723
 1068W        W 4587   5.848   7.392   3.906 -0.0353  0.0733  0.0895
 1069W        W 4588   2.610   1.997  11.089 -0.1483  0.1530 -0.0638
 1070W        W 4589   1.238   4.391   3.326 -0.0602  0.1607 -0.0296
 1071W        W 4590   5.462   7.707   2.462 -0.3934 -0.0509 -0.2337
 1072W        W 4591   0.150   4.565   0.587 -0.0622 -0.1594 -0.0476
 1073W        W 4592   1.202   5.156  12.269 -0.0149  0.0811 -0.0557
 1074W        W 4593   0.165   3.831   1.364  0.2822  0.1026 -0.3449
 1075W        W 4594   6.759   7.238  11.527 -0.0889 -0.0994 -0.0061
 1076W        W 4595   6.992   5.870  11.451 -0.0627  0.0219 -0.2080
 1077W        W 4596   7.398   1.471   0.645  0.0539  0.0006  0.1452
 1078W        W 4597   1.068   2.116   3.975 -0.2333 -0.0084 -0.0405
 1079W        W 4598   0.728   5.108   4.799 -0.1372  0.0594 -0.5430
 1080W        W 4599   0.033   0.297   2.665  0.0646 -0.1493 -0.0231
 1081W        W 4600   7.042   8.966   1.432 -0.0600  0.0525  0.0083
 1082W        W 4601   0.661   7.261  10.987  0.0990 -0.1417 -0.0465
 1083W        W 4602   7.133   6.926   0.490 -0.3320 -0.1977 -0.0882
 1084W        W 4603   3.609   7.255   2.276 -0.0166  0.2346  0.0270
 1085W        W 4604   0.708   4.440  12.174 -0.0248  0.3015 -0.4077
 1086W        W 4605   5.224   2.660   0.717 -0.1607 -0.3550 -0.0023
 1087W        W 4606   0.158   0.794   0.900  0.1186 -0.0380 -0.2281
 1088W        W 4607   3.199   1.897   3.934 -0.0957  0.0095  0.2703
 1089W        W 4608   6.358   8.480   1.941  0.1265  0.1151 -0.0734
 1090W        W 4609   5.620   5.654   2.544  0.3334  0.0721 -0.3263
 1091W        W 4610   3.657   5.119  11.206 -0.0072 -0.1548  0.4438
 1092W        W 4611   4.788   4.273   2.550 -0.2871 -0.2360  0.2067
 1093W        W 4612   3.074   7.468  11.440 -0.1381 -0.0832  0.0339
 1094W        W 4613   9.550   4.657   9.639  0.2132 -0.1002 -0.0386
 1095W        W 4614   5.414   1.662   2.904  0.0293 -0.2390  0.0732
 1096W        W 4615   3.275   0.122   0.736  0.1840  0.0021 -0.1518
 1097W        W 4616   1.933   0.439   3.590  0.0251 -0.0722  0.0181
 1098W        W 4617   8.700   7.686  12.360  0.0259  0.1295 -0.0909
 1099W        W 4618   2.961   2.828   1.748 -0.0140 -0.1714 -0.0665
 1100W        W 4619   7.015   0.858  10.920  0.1430 -0.0790  0.0744
 1101W        W 4620   0.161   4.250   0.980  0.0732  0.1591 -0.1065
 1102W        W 4621   0.500   6.627   0.190  0.1091  0.0090  0.1013
 1103W        W 4622   7.656   7.229  10.221 -0.3166 -0.0147 -0.0568
 1104W        W 4623   2.084   7.216  10.863  0.3276  0.2298  0.2390
 1105W        W 4624   1.464   3.440  10.028 -0.3517  0.1070  0.0793
 1106W        W 4625   2.289   1.959   0.042 -0.0734  0.2170 -0.2113
 1107W        W 4626   4.613   4.817   2.793 -0.1364  0.0366  0.2055
 1108W        W 4627   5.357   7.465  11.442  0.0480 -0.1140  0.2468
 1109W        W 4628   5.903   5.683   8.309 -0.0789 -0.2124  0.1350
 1110W        W 4629   7.995   8.580   3.472 -0.0861  0.0156 -0.2182
 1111W        W 4630   3.292   1.138   3.381  0.0326 -0.2793 -0.2731
 1112W        W 4631   6.011   7.113   0.013  0.2987 -0.3406 -0.0242
 1113W        W 4632   4.867   1.434   1.706  0.1211  0.3182 -0.2793
 1114W        W 4633   2.287   9.293   9.995  0.0358  0.0625 -0.0815
 1115W        W 4634   5.868   0.224  11.686  0.0411  0.1945  0.1452
 1116W        W 4635   8.862   6.679   2.780  0.4421 -0.2243 -0.1475
 1117W        W 4636   6.667   7.804   3.172  0.1116  0.1136  0.1409
 1118W        W 4637   5.695   9.616   4.495  0.1230  0.1142 -0.3719
 1119W        W 4638   4.808   6.161   2.353  0.1202  0.3865 -0.4226
 1120W        W 4639   3.576   3.376   1.263  0.2486 -0.1482 -0.1041
 1121W        W 4640   0.806   1.768  10.488  0.0302 -0.0967  0.1159
 1122W        W 4641   6.641   5.192  10.499  0.0268  0.2573  0.1488
 1123W        W 4642   0.727   4.007   3.224  0.0216  0.0342  0.0559
 1124W        W 4643   9.659   7.165  12.412 -0.0765  0.0910 -0.0132
 1125W        W 4644   1.831   7.006   1.594  0.0062  0.0354  0.0654
 1126W        W 4645   2.004   0.145   1.331 -0.1843 -0.2411 -0.0718
 1127W        W 4646   9.238   6.220   1.188  0.0370 -0.0838  0.0041
 1128W        W 4647   6.673   4.766  10.251 -0.2904 -0.1593 -0.0152
 1129W        W 4648   1.178   0.530   1.728 -0.0998  0.1476  0.0618
 1130W        W 4649   7.668   0.480  11.881 -0.0673  0.0023 -0.0778
 1131W        W 4650   0.650   6.258   3.876  0.1018  0.1130  0.3329
 1132W        W 4651   0.476   2.587   1.931  0.0641  0.3907  0.0663
 1133W        W 4652   7.052   1.932   1.306  0.1859 -0.0083  0.0627
 1134W        W 4653   2.516   6.391   0.284 -0.0575 -0.2220  0.3369
 1135W        W 4654   8.761   3.656   0.666 -0.2825  0.0582 -0.1287
 1136W        W 4655   9.532   6.219   0.832 -0.1189 -0.1242 -0.0946
 1137W        W 4656   4.017   7.714   2.900 -0.5117 -0.3881  0.3993
 1138W        W 4657   2.183   0.047   4.285 -0.3255 -0.1231  0.0083
 1139W        W 4658   0.783   3.319  12.376  0.2308 -0.1627 -0.0972
 1140W        W 4659   2.474   2.314   4.411 -0.0549 -0.0645 -0.2563
 1141W        W 4660   4.326   4.156   4.017 -0.1656 -0.0398  0.2625
 1142W        W 4661   0.886   5.366   8.273 -0.2691 -0.1113  0.1974
 1143W        W 4662   3.529   1.635   2.762  0.2173 -0.2788 -0.2018
 1144W        W 4663   8.420   6.530   0.090  0.1578 -0.2200  0.0449
 1145W        W 4664   2.233   5.278  11.813  0.0518 -0.1222 -0.1893
 1146W        W 4665   0.037   3.553   0.745 -0.3644 -0.0285  0.0820
 1147W        W 4666   4.530   7.458  11.669 -0.0923 -0.2204  0.1252
 1148W        W 4667   4.097   2.223   3.858  0.4346 -0.0755 -0.1297
 1149W        W 4668   3.617   5.975  10.189  0.0362  0.1147  0.2059
 1150W        W 4669   8.055   6.096   1.983  0.0041  0.1888  0.2392
 1151W        W 4670   4.232   0.451   2.033 -0.0679 -0.1672 -0.0751
 1152W        W 4671   5.370   1.858  12.245  0.1095  0.3243 -0.3204
 1153W        W 4672   0.439   9.107   0.121 -0.1118  0.1299 -0.1013
 1154W        W 4673   8.462   8.708   2.631 -0.0316 -0.1770  0.1508
 1155W        W 4674   7.928   9.228   1.376  0.1039 -0.0878 -0.3912
 1156W        W 4675   7.448   7.664  11.124  0.1060 -0.0329  0.0925
 1157W        W 4676   4.882   0.385   2.787  0.1240 -0.3429 -0.0827
 1158W        W 4677   2.111   8.782   9.106  0.0046 -0.2193 -0.0301
 1159W        W 4678   0.641   3.754   9.018  0.0448  0.3803  0.0039
 1160W        W 4679   3.455   0.177   2.641  0.1893  0.0515  0.0178
 1161W        W 4680   8.807   1.020  10.182  0.1733 -0.0158  0.0688
 1162W        W 4681   8.912   2.738  11.849  0.2615 -0.1096  0.1890
 1163W        W 4682   9.291   0.907   3.273 -0.1343 -0.2936 -0.0702
 1164W        W 4683   2.035   0.721   9.792  0.1002 -0.0046 -0.1690
 1165W        W 4684   2.578   8.510   1.885 -0.1566 -0.2097  0.1845
 1166W        W 4685   4.117   3.216   4.028 -0.1083  0.0472  0.2890
 1167W        W 4686   4.548   2.212   1.232 -0.0753 -0.0776  0.0575
 1168W        W 4687   5.487   3.589   1.792  0.1484 -0.0235  0.0585
 1169W        W 4688   6.612   1.066   9.546 -0.1210  0.2883  0.0750
 1170W        W 4689   1.085   5.578   3.873  0.4287  0.0041  0.4095
 1171W        W 4690   1.501   9.562   3.970 -0.1925  0.2467  0.2364
 1172W        W 4691   9.036   9.533   0.501  0.3448  0.2710  0.3089
 1173W        W 4692   9.143   2.743   3.224  0.0243  0.0354  0.1326
 1174W        W 4693   3.434   3.851  12.350  0.0111 -0.0461 -0.5966
 1175W        W 4694   2.828   3.327   1.722 -0.2634  0.0401  0.0231
 1176W        W 4695   7.781   4.872   4.043 -0.0756 -0.0590 -0.3612
 1177W        W 4696   0.341   3.393   2.450 -0.0673 -0.1114  0.1357
 1178W        W 4697   0.907   3.591  10.541  0.0561  0.1501 -0.0704
 1179W        W 4698   9.662   8.719   8.538 -0.1728 -0.0626  0.0877
 1180W        W 4699   7.538   9.444   0.526  0.2525  0.1143  0.1524
 1181W        W 4700   1.065   3.858   2.406 -0.0262  0.1664  0.1529
 1182W        W 4701   9.280   7.070   1.165 -0.0449  0.0546  0.0647
 1183W        W 4702   5.503   4.941   4.238 -0.1509 -0.2154 -0.0330
 1184W        W 4703   0.895   7.601  10.064  0.1131 -0.1781 -0.0235
 1185W        W 4704   9.431   4.225  12.201 -0.2083 -0.0979  0.1294
 1186W        W 4705   3.201   8.545   2.431  0.1471  0.6754  0.0076
 1187W        W 4706   2.091   6.327  11.853  0.1263  0.2875 -0.1035
 1188W        W 4707   3.680   6.142  11.209 -0.1495 -0.2735  0.1894
 1189W        W 4708   4.010   0.420   2.472 -0.3914  0.4176  0.1584
 1190W        W 4709   7.743   1.739   1.755 -0.0638 -0.1648  0.1558
 1191W        W 4710   2.292   7.773  10.366  0.0948 -0.0453  0.0863
 1192W        W 4711   6.243   0.601   1.464 -0.0253 -0.2676  0.0268
 1193W        W 4712   5.037   6.773  12.280 -0.0163  0.1264 -0.0598
 1194W        W 4713   8.747   1.643  10.765  0.0015  0.1739 -0.1018
 1195W        W 4714   7.485   5.482   9.337 -0.0299  0.0197  0.2021
 1196W        W 4715   7.645   7.891   4.301  0.1222  0.0301 -0.0369
 1197W        W 4716   6.509   7.024   4.704 -0.1753  0.0495  0.1039
 1198W        W 4717   6.015   3.457   2.040  0.2324  0.2066  0.0184
 1199W        W 4718   8.860   4.027   2.363 -0.2123  0.0161  0.1525
 1200W        W 4719   2.668   1.647   0.369  0.0831  0.1933  0.0454
 1201W        W 4720   7.031   3.445   3.699  0.2114  0.2072  0.0880
 1202W        W 4721   1.799   7.788   9.127  0.1050  0.3887  0.1108
 1203W        W 4722   8.190   2.958   9.626  0.1352 -0.0176 -0.1838
 1204W        W 4723   6.320   2.311  10.472 -0.3015  0.1833 -0.1475
 1205W        W 4724   9.217   8.274   9.690 -0.0455 -0.0966  0.1066
 1206W        W 4725   4.034   0.857   2.277  0.1855 -0.0042  0.3308
 1207W        W 4726   2.015   5.058   8.091  0.0136  0.1265  0.1077
 1208W        W 4727   8.161   0.025  10.470 -0.0503  0.1729 -0.2382
 1209W        W 4728   5.068   0.293  11.703  0.0352 -0.1642  0.2908
 1210W        W 4729   0.660   6.332  10.612  0.1940 -0.2217 -0.3527
 1211W        W 4730   3.578   8.045   9.319 -0.0012  0.2495  0.3126
 1212W        W 4731   3.133   5.590   2.010 -0.1318 -0.4640 -0.0595
 1213W        W 4732   8.090   5.325   1.559 -0.2231  0.2948  0.0844
 1214W        W 4733   4.592   6.820   1.115  0.0744  0.1119  0.0644
 1215W        W 4734   1.149   4.652   2.881 -0.0444  0.0767 -0.0583
 1216W        W 4735   6.116   6.744  11.046 -0.1738 -0.0737 -0.2160
 1217W        W 4736   2.961   0.020   8.839 -0.1900  0.0127  0.1473
 1218W        W 4737   5.856   5.557  12.222  0.1160  0.3202  0.0129
 1219W        W 4738   4.093   5.969   8.935  0.0407  0.1434 -0.6077
 1220W        W 4739   1.122   7.577   0.320 -0.2581 -0.1038  0.0638
 1221W        W 4740   1.549   3.631   2.374  0.1331 -0.0982  0.4000
 1222W        W 4741   3.849   1.617   3.312  0.0619 -0.0742 -0.0177
 1223W        W 4742   7.772   6.380  11.364 -0.1860 -0.2394 -0.2601
 1224W        W 4743   6.939   6.190  11.854 -0.2271  0.0576  0.2696
 1225W        W 4744   4.478   6.370   1.662  0.0864 -0.0700  0.0128
 1226W        W 4745   4.870   0.407  10.206  0.1777 -0.0242  0.0395
 1227W        W 4746   4.470   4.703   4.267  0.1579 -0.0273  0.4006
 1228W        W 4747   6.725   2.320  10.066  0.3252 -0.4025 -0.1671
 1229W        W 4748   2.793   0.433   3.782 -0.1009 -0.1016 -0.0650
 1230W        W 4749   0.076   6.939  11.523  0.0594 -0.0860  0.0756
 1231W        W 4750   3.913   7.097   0.082  0.0535 -0.2500 -0.0098
 1232W        W 4751   4.807   4.153  12.046  0.2715 -0.0919  0.1139
 1233W        W 4752   4.741   2.606   4.006 -0.6214  0.1985 -0.1386
 1234W        W 4753   2.245   2.678  11.011  0.1150  0.1805  0.2709
 1235W        W 4754   0.230   3.692   9.896  0.1229  0.0482  0.1038
 1236W        W 4755   7.697   6.166   2.846  0.1542  0.0282  0.0590
 1237W        W 4756   5.873   3.516   2.547 -0.0719  0.1826 -0.0660
 1238W        W 4757   9.359   7.955   2.985 -0.2940  0.0580 -0.1130
 1239W        W 4758   0.440   1.106  11.234  0.1072 -0.0603  0.3730
 1240W        W 4759   9.172   1.357   0.913 -0.0202 -0.2002  0.4191
 1241W        W 4760   4.349   2.509   0.386 -0.0863  0.0033 -0.2181
 1242W        W 4761   4.569   3.619   0.566  0.1842 -0.4081  0.0417
 1243W        W 4762   3.912   8.587   1.659  0.0305  0.1244  0.1264
 1244W        W 4763   2.354   7.493   1.080 -0.0572 -0.1733  0.0677
 1245W        W 4764   5.089   9.159  11.777 -0.1140  0.0697 -0.1359
 1246W        W 4765   4.514   0.672   1.628  0.0571  0.0968 -0.1928
 1247W        W 4766   3.882   6.694  12.322  0.3504 -0.1573 -0.0699
 1248W        W 4767   8.377   0.867  12.385 -0.4417  0.1097 -0.0723
 1249W        W 4768   7.595   0.917   1.779 -0.2910  0.2049 -0.2465
 1250W        W 4769   8.630   2.251  10.035  0.1098 -0.1286 -0.1848
 1251W        W 4770   8.223   5.181   0.037 -0.0646  0.0057  0.1337
 1252W        W 4771   3.729   6.407  10.471 -0.1765  0.2900  0.1005
 1253W        W 4772   6.952   8.554   0.686 -0.0271  0.2636  0.0108
 1254W        W 4773   0.444   9.559   0.712 -0.0318 -0.2370 -0.0762
 1255W        W 4774   3.533   9.548  11.726  0.1497 -0.0637 -0.0124
 1256W        W 4775   3.576   3.354  12.230  0.2289  0.0750 -0.2399
 1257W        W 4776   5.013   0.556  10.680 -0.0258 -0.0495  0.1595
 1258W        W 4777   1.598   8.197   8.874 -0.4519  0.1518 -0.0744
 1259W        W 4778   2.529   1.217   8.600  0.0811  0.0935  0.1160
 1260W        W 4779   3.338   7.046   9.393 -0.4371 -0.2312 -0.0984
 1261W        W 4780   2.694   8.834   3.329 -0.0038  0.3111 -0.0070
 1262W        W 4781   6.700   2.579  10.631  0.0695  0.1087 -0.4121
 1263W        W 4782   6.496   8.365   0.677  0.1028 -0.0161  0.0235
 1264W        W 4783   8.468   1.353  10.437  0.0271  0.1931  0.0516
 1265W        W 4784   8.862   7.246   9.761 -0.1558 -0.0058  0.0654
 1266W        W 4785   9.087   2.527   8.766 -0.0531 -0.0997  0.3226
 1267W        W 4786   1.070   6.004  11.073 -0.2482  0.1593  0.2971
 1268W        W 4787   2.065   1.218   9.955 -0.0834 -0.0249 -0.1061
 1269W        W 4788   5.932   1.065   4.032  0.1312 -0.0161  0.1307
 1270W        W 4789   3.933   7.940   0.817 -0.0287  0.1109  0.1255
 1271W        W 4790   1.673   2.517   2.830 -0.1260  0.1737 -0.0640
 1272W        W 4791   3.603   4.036   0.297  0.0606 -0.1061  0.4491
 1273W        W 4792   6.870   1.922   9.767  0.0047  0.1677 -0.2645
 1274W        W 4793   4.621   0.667   9.321  0.1180  0.1480 -0.0715
 1275W        W 4794   8.519   8.145   0.018  0.1302 -0.0490 -0.0756
 1276W        W 4795   8.220   0.364   0.264  0.0052  0.1659 -0.1767
 1277W        W 4796   2.612   6.312   1.589  0.1656 -0.1881 -0.1231
 1278W        W 4797   8.634   7.625   1.231  0.1659 -0.1132 -0.0462
 1279W        W 4798   1.365   9.205  10.801  0.2994  0.3158 -0.0842
 1280W        W 4799   2.643   6.115  11.545  0.1060 -0.2876  0.0345
 1281W        W 4800   3.600   9.332   1.226 -0.0869  0.1700  0.1100
 1282W        W 4801   0.271   3.383   1.226  0.0108  0.1901  0.1166
 1283W        W 4802   4.505   5.720   9.063 -0.0839 -0.1197 -0.1153
 1284W        W 4803   8.094   5.463   9.884 -0.2218 -0.3675 -0.3037
 1285W        W 4804   7.308   8.017   0.528 -0.0979  0.1705  0.0441
 1286W        W 4805   6.786   1.468   2.775  0.0746 -0.1263 -0.0219
 1287W        W 4806   3.315   4.867   9.766 -0.1012  0.1686 -0.0030
 1288W        W 4807   8.932   7.050  10.587 -0.1988 -0.0025 -0.2344
 1289W        W 4808   1.333   6.040   3.855  0.0811  0.0369 -0.1373
 1290W        W 4809   8.658   8.562  11.747  0.0699  0.3166 -0.0487
 1291W        W 4810   5.176   7.190   9.194  0.0493  0.1810 -0.3477
 1292W        W 4811   1.570   6.114   2.940  0.0027 -0.0469  0.0315
 1293W        W 4812   9.017   1.475  12.200  0.1093  0.2131  0.0828
 1294W        W 4813   0.320   0.345   0.834 -0.2051  0.1995 -0.0136
 1295W        W 4814   8.849   1.067  11.428 -0.1410  0.2019 -0.0515
 1296W        W 4815   1.693   1.710   1.618 -0.0762  0.2518  0.2324
 1297W        W 4816   0.391   1.610  12.374 -0.1959 -0.0367  0.0246
 1298W        W 4817   9.664   0.387  11.914  0.0587  0.0541 -0.1767
 1299W        W 4818   7.113   7.243  10.154  0.1076 -0.2203 -0.2323
 1300W        W 4819   2.058   0.386  10.114  0.1612  0.1049 -0.0003
 1301W        W 4820   1.007   5.069   1.340  0.3318  0.1868  0.0707
 1302W        W 4821   3.138   1.798   0.279 -0.1763 -0.2943  0.1610
 1303W        W 4822   7.959   2.554  10.365  0.0580 -0.2280 -0.0960
 1304W        W 4823   4.662   8.175   8.785  0.0507 -0.0018  0.0273
 1305W        W 4824   3.688   2.474   1.091  0.0970 -0.4536  0.1608
 1306W        W 4825   7.807   7.071   2.624  0.0251  0.2093  0.0876
 1307W        W 4826   6.620   6.369   1.983  0.0194 -0.2913 -0.1759
 1308W        W 4827   1.802   5.695   1.310 -0.0573  0.1809 -0.3217
 1309W        W 4828   6.873   7.497   9.239 -0.0203 -0.2030  0.3185
 1310W        W 4829   6.688   8.655  10.720  0.0928 -0.0154  0.1291
 1311W        W 4830   4.840   6.545   2.001 -0.1166 -0.1242  0.1522
 1312W        W 4831   2.286   4.481  10.684 -0.0298 -0.0873 -0.0264
 1313W        W 4832   9.672   3.318   1.647  0.1407  0.2372 -0.1119
 1314W        W 4833   1.489   0.933   1.643 -0.2709 -0.1703 -0.2199
 1315W        W 4834   7.960   6.834   2.110 -0.0816  0.1238  0.1246
 1316W        W 4835   1.701   5.310  11.854  0.1064 -0.1976 -0.1834
 1317W        W 4836   6.092   6.881   8.702  0.2241 -0.0480  0.3414
 1318W        W 4837   9.237   4.182   3.204 -0.1110 -0.2700  0.1201
 1319W        W 4838   1.403   7.237   1.582  0.3159  0.3120 -0.1525
 1320W        W 4839   8.637   0.448   1.081 -0.2589 -0.1819  0.2939
 1321W        W 4840   7.505   5.768   4.387 -0.2083 -0.2205 -0.0030
 1322W        W 4841   2.037   4.539   3.736  0.1887  0.2300 -0.0438
 1323W        W 4842   6.418   5.114   2.588 -0.1767  0.1598  0.0419
 1324W        W 4843   7.263   9.361   0.127  0.0930  0.1946  0.0997
 1325W        W 4844   4.562   9.447  10.979 -0.3457 -0.0867  0.2388
 1326W        W 4845   8.205   9.676   0.967  0.0894  0.0754  0.2272
 1327W        W 4846   7.248   7.867   2.774 -0.2481 -0.0982 -0.1953
 1328W        W 4847   9.461   5.079   2.165  0.0699  0.1975  0.0472
 1329W        W 4848   2.790   9.420  10.185 -0.3250  0.1136  0.0451
 1330W        W 4849   5.536   2.609  10.513 -0.2231 -0.1581  0.0473
 1331W        W 4850   1.309   1.857  10.368  0.0747 -0.0812 -0.0852
 1332W        W 4851   2.489   0.823   0.716  0.2583 -0.2094 -0.1769
 1333W        W 4852   6.091   6.508   2.957 -0.1406 -0.0973  0.2796
 1334W        W 4853   3.710   2.947   0.163  0.0522  0.2860 -0.3795
 1335W        W 4854   1.025   2.246  11.359 -0.0103 -0.1683  0.0728
 1336W        W 4855   2.396   0.611   3.501 -0.0363  0.0235 -0.1397
 1337W        W 4856   4.932   7.529   9.493 -0.2567 -0.0057 -0.0024
 1338W        W 4857   2.610   3.848   3.705  0.0961  0.2899  0.1029
 1339W        W 4858   8.326   4.208   3.528  0.1344  0.0599 -0.0146
 1340W        W 4859   6.410   0.647  12.360 -0.0900  0.2632 -0.4132
 1341W        W 4860   5.228   3.305  12.364  0.2510  0.0420 -0.1535
 1342W        W 4861   4.486   0.383  11.644 -0.0732  0.3075 -0.1648
 1343W        W 4862   2.819   1.919  12.465 -0.1394 -0.0603  0.1209
 1344W        W 4863   2.627   5.470  11.534  0.2319  0.3353  0.0964
 1345W        W 4864   4.449   1.563   9.565 -0.2233 -0.2335 -0.0880
 1346W        W 4865   8.612   3.920   8.714 -0.3935  0.1185 -0.0634
 1347W        W 4866   7.984   3.534  11.815  0.0962 -0.4670 -0.1454
 1348W        W 4867   8.573   1.231  10.981 -0.0846  0.0319  0.0659
 1349W        W 4868   1.855   0.957   9.333  0.3126 -0.3978  0.0976
 1350W        W 4869   4.150   0.749  11.505 -0.2912  0.2283 -0.1243
 1351W        W 4870   0.960   5.639   0.368 -0.0356 -0.3526 -0.0239
 1352W        W 4871   3.873   2.274   8.832 -0.0066 -0.0344  0.0809
 1353W        W 4872   6.819   1.173  10.532  0.2433 -0.3097  0.1892
 1354W        W 4873   3.902   5.873   2.658  0.0379 -0.0518  0.1748
 1355W        W 4874   8.877   5.028  11.985  0.1035  0.0834 -0.1522
 1356W        W 4875   9.544   3.252   0.400  0.3215  0.1538  0.0017
 1357W        W 4876   3.729   2.080   3.058 -0.2297  0.0533  0.2077
 1358W        W 4877   4.042   7.286   3.214 -0.2401  0.1759 -0.2267
 1359W        W 4878   3.099   9.129  10.439 -0.1709 -0.2188  0.0375
 1360W        W 4879   0.415   2.217  10.535  0.0660 -0.0094 -0.0265
 1361W        W 4880   9.088   1.258   2.806 -0.1025  0.2520 -0.0502
 1362W        W 4881   2.366   3.041   5.069  0.0391 -0.3141  0.2416
 1363W        W 4882   2.484   4.641   2.546  0.2115  0.3635  0.1667
 1364W        W 4883   1.998   0.958   3.625 -0.1619 -0.0274 -0.1255
 1365W        W 4884   7.153   8.419  12.391 -0.0097 -0.2643 -0.1066
 1366W        W 4885   3.695   1.924   4.052 -0.1241  0.1753 -0.0067
 1367W        W 4886   1.436   2.855  10.128 -0.0217  0.3807 -0.2029
 1368W        W 4887   0.859   7.976   9.553  0.1651 -0.0215  0.1747
 1369W        W 4888   4.962   5.443   3.377 -0.0682 -0.0743 -0.1652
 1370W        W 4889   0.266   6.284   8.568 -0.1336 -0.0499 -0.1251
 1371W        W 4890   2.279   5.796  11.773 -0.1588  0.1750  0.1105
 1372W        W 4891   1.569   1.025  10.510  0.0738 -0.0887  0.1956
 1373W        W 4892   3.418   1.685   8.668 -0.0412 -0.1441  0.2183
 1374W        W 4893   8.620   3.323   9.722  0.1271  0.1557  0.0440
 1375W        W 4894   3.778   7.320   9.038  0.0529 -0.1178  0.0036
 1376W        W 4895   8.278   6.624   9.451 -0.0959  0.0983  0.0059
 1377W        W 4896   1.959   5.318  10.099  0.1050  0.0526  0.1475
 1378W        W 4897   3.402   5.769   2.469  0.1534  0.0268  0.0473
 1379W        W 4898   6.272   7.576   1.687  0.2535  0.2673 -0.3404
 1380W        W 4899   4.606   8.404   3.290  0.0156  0.2144 -0.0145
 1381W        W 4900   2.269   1.023   2.625  0.1323 -0.0893  0.1675
 1382W        W 4901   1.964   6.658   4.222  0.1585  0.3475 -0.0840
 1383W        W 4902   7.112   9.204  12.193  0.1654  0.1814  0.0837
 1384W        W 4903   5.722   7.873   3.912  0.0405 -0.0169  0.0897
 1385W        W 4904   1.562   0.898   3.377  0.0381 -0.5103  0.1615
 1386W        W 4905   1.940   8.600   8.660  0.0855 -0.1319 -0.2178
 1387W        W 4906   0.527   7.672   2.181 -0.0256  0.1081  0.0636
 1388W        W 4907   6.014   9.240  11.508 -0.3957 -0.0381 -0.2938
 1389W        W 4908   5.733   0.992   8.724  0.2476  0.3284 -0.0605
 1390W        W 4909   9.708   8.347   9.830 -0.0681  0.0768  0.5383
 1391W        W 4910   5.348   3.678   4.488 -0.0079  0.1377  0.0936
 1392W        W 4911   5.899   7.349   3.052 -0.0560  0.0017  0.1575
 1393W        W 4912   1.715   1.693  10.639 -0.2925 -0.2488  0.0781
 1394W        W 4913   4.216   7.109   4.254 -0.1936  0.1974  0.2593
 1395W        W 4914   1.191   6.336   8.111 -0.0415 -0.1671  0.1547
 1396W        W 4915   7.279   1.456   9.921  0.5422 -0.0388  0.0261
 1397W        W 4916   8.847   0.122   0.166  0.1393 -0.0614 -0.0502
 1398W        W 4917   8.483   7.222  11.855  0.0867 -0.0334  0.1176
 1399W        W 4918   7.509   4.855   3.643 -0.0533 -0.0190 -0.1204
 1400W        W 4919   1.137   2.511   9.954  0.0700  0.1408  0.3192
 1401W        W 4920   8.186   3.672   9.990  0.1148  0.0117 -0.1858
 1402W        W 4921   3.344   0.791   9.631 -0.1087  0.1857  0.1205
 1403W        W 4922   6.934   7.156   3.542 -0.0584 -0.1014 -0.2224
 1404W        W 4923   6.206   4.783   1.682 -0.2517  0.1433  0.3210
 1405W        W 4924   6.420   1.086   0.099  0.1114 -0.2921  0.0911
 1406W        W 4925   7.985   1.205   0.018 -0.1509 -0.1328 -0.1349
 1407W        W 4926   6.940   8.045   0.158 -0.0937  0.0697 -0.0356
 1408W        W 4927   8.913   0.253   9.662  0.1453 -0.0902 -0.3432
 1409W        W 4928   5.442   6.151  11.942 -0.1233  0.1875 -0.1352
 1410W        W 4929   8.641   9.139   2.854 -0.0057 -0.0258 -0.0524
 1411W        W 4930   0.618   5.321   9.118  0.2833  0.1991  0.0017
 1412W        W 4931   2.490   2.336   3.536 -0.2288  0.4354 -0.1145
 1413W        W 4932   2.276   2.039  11.735  0.0587  0.0110  0.3844
 1414W        W 4933   8.680   9.122  11.253 -0.1147 -0.0277  0.2139
 1415W        W 4934   9.187   5.888   9.079  0.1240 -0.0751 -0.0008
 1416W        W 4935   0.042   8.991  10.780  0.2360 -0.0412 -0.1252
 1417W        W 4936   9.583   1.457   3.048 -0.1015  0.0086 -0.1138
 1418W        W 4937   6.448   6.488  11.769  0.0382 -0.0030  0.1645
 1419W        W 4938   8.037   1.057   2.547 -0.0630  0.0664 -0.2769
 1420W        W 4939   7.839   7.948  10.878 -0.0828 -0.2194  0.2165
 1421W        W 4940   5.277   4.335  11.297 -0.4935 -0.1253  0.1359
 1422W        W 4941   2.430   9.448   9.508 -0.2625 -0.0263 -0.2651
 1423W        W 4942   0.841   5.789   9.800 -0.1562 -0.0882  0.2246
 1424W        W 4943   4.892   5.658   8.696 -0.1652  0.2066 -0.1465
 1425W        W 4944   0.239   8.619   2.875  0.2627  0.0673 -0.2097
 1426W        W 4945   0.659   4.832   9.745  0.0455  0.0884  0.1255
 1427W        W 4946   3.236   5.354   9.717  0.0904 -0.0417  0.0238
 1428W        W 4947   8.449   8.359  10.169 -0.2316  0.1543 -0.0901
 1429W        W 4948   1.042   3.288  11.637  0.1811 -0.2200 -0.1425
 1430W        W 4949   0.452   5.849   3.175  0.1665  0.5507  0.1622
 1431W        W 4950   6.344   1.213   2.712  0.0276  0.0760 -0.1078
 1432W        W 4951   8.861   0.198  12.129 -0.2095  0.1766  0.0727
 1433W        W 4952   5.455   6.234   9.046 -0.2575 -0.0231  0.2369
 1434W        W 4953   7.030   7.857   8.492  0.1341  0.1627  0.1652
 1435W        W 4954   6.181   6.840   0.575 -0.2044 -0.1647  0.0565
 1436W        W 4955   9.491   0.254  10.104  0.0353  0.1812  0.0044
 1437W        W 4956   9.707   9.244  12.448 -0.3250  0.0013 -0.0714
 1438W        W 4957   6.735   2.648  11.201  0.3064 -0.1999 -0.1351
 1439W        W 4958   4.597   2.809  10.856 -0.1264 -0.2471  0.0160
 1440W        W 4959   5.975   1.738   9.979 -0.2608 -0.2726 -0.3104
 1441W        W 4960   5.462   5.147   2.394 -0.0058 -0.0212 -0.1123
 1442W        W 4961   4.225   1.253  12.370 -0.0309 -0.0768 -0.0270
 1443W        W 4962   7.236   2.617   3.232 -0.1120 -0.0227  0.0448
 1444W        W 4963   9.191   9.007   1.891  0.1358  0.0848 -0.2795
 1445W        W 4964   1.149   2.595   3.858 -0.0422 -0.0667  0.2533
 1446W        W 4965   9.259   5.506  12.467  0.0582 -0.3642 -0.4207
 1447W        W 4966   6.346   5.666   0.427 -0.1762  0.1442 -0.0314
 1448W        W 4967   3.321   6.639   2.855  0.1329 -0.0121  0.0863
 1449W        W 4968   0.383   2.931  11.196 -0.1793 -0.1778 -0.0603
 1450W        W 4969   2.755   6.915   9.705  0.1216 -0.1262  0.4171
 1451W        W 4970   6.751   5.675  10.641 -0.2623  0.0027 -0.1504
 1452W        W 4971   0.892   9.653   9.569  0.1350 -0.2325 -0.0581
 1453W        W 4972   9.710   5.829  10.930  0.2043 -0.3112 -0.2259
 1454W        W 4973   3.746   8.930   9.029  0.0472 -0.3564  0.3572
 1455W        W 4974   9.498   5.011  12.447 -0.4456  0.0950  0.1972
 1456W        W 4975   4.702   0.934  11.586  0.0455 -0.1284  0.0717
 1457W        W 4976   5.067   6.809   2.342  0.0182  0.1191  0.2373
 1458W        W 4977   9.423   8.838   9.563 -0.1090 -0.1173 -0.1923
 1459W        W 4978   3.888   7.211   9.519  0.0218  0.0614 -0.0189
 1460W        W 4979   9.154   9.161   9.001 -0.1668  0.2066  0.2407
 1461W        W 4980   7.502   0.291   2.499 -0.0104  0.1212 -0.0615
 1462W        W 4981   9.587   2.123   9.797  0.1588 -0.0314  0.1194
 1463W        W 4982   3.824   0.616   4.186 -0.1239  0.0654 -0.2580
 1464W        W 4983   0.480   5.552   4.049 -0.1628  0.0943 -0.0946
 1465W        W 4984   4.237   4.564   0.894  0.2449  0.1431 -0.3056
 1466W        W 4985   1.967   9.289   9.584  0.0450  0.4659  0.0267
 1467W        W 4986   3.233   0.868  10.576 -0.0372  0.2064 -0.0173
 1468W        W 4987   2.819   8.772   0.423 -0.0595  0.0685 -0.1732
 1469W        W 4988   3.178   3.082   3.307 -0.0772 -0.0608 -0.1063
 1470W        W 4989   9.642   5.681  11.954 -0.1534 -0.2687 -0.1773
 1471W        W 4990   7.413   0.498   8.711  0.1863  0.0354  0.2494
 1472W        W 4991   2.592   9.405   1.129 -0.0636  0.0304  0.1420
 1473W        W 4992   7.718   9.359   9.033  0.0319  0.2091  0.1699
 1474W        W 4993   8.689   7.616  10.104 -0.0038 -0.0811 -0.0504
 1475W        W 4994   9.511   9.252   3.191 -0.0384 -0.1786 -0.1702
 1476W        W 4995   6.351   2.785  10.152 -0.1223 -0.0014 -0.0602
 1477W        W 4996   7.049   2.862   2.344 -0.0626  0.0183  0.1268
 1478W        W 4997   5.807   0.469   0.455  0.0260  0.1353 -0.1167
 1479W        W 4998   2.185   0.449   0.520  0.2248  0.2705 -0.2260
 1480W        W 4999   3.077   2.212  11.446  0.1145  0.2228  0.0206
 1481W        W 5000   6.823   1.828   8.815  0.0328 -0.0268  0.1440
 1482W        W 5001   2.626   1.562   1.257  0.1688  0.0255  0.0729
 1483W        W 5002   4.763   2.622   3.122  0.2294 -0.3083 -0.2713
 1484W        W 5003   8.503   6.289   3.129  0.2310 -0.0395  0.0436
 1485W        W 5004   6.533   8.070   1.129 -0.1474  0.0517  0.2786
 1486W        W 5005   5.496   7.006   0.973  0.2627  0.4332 -0.0936
 1487W        W 5006   1.157   6.582  10.402  0.1280 -0.0060 -0.0026
 1488W        W 5007   2.420   8.536   9.901 -0.1159 -0.0838 -0.0531
 1489W        W 5008   3.366   8.225   3.056 -0.0810  0.2985 -0.2146
 1490W        W 5009   0.416   4.129  10.227  0.0554  0.0145 -0.1502
 1491W        W 5010   9.467   3.574   9.142  0.0839 -0.2310 -0.4620
 1492W        W 5011   1.838   5.681   4.379  0.1358 -0.1967 -0.3088
 1493W        W 5012   3.734   3.110   8.907 -0.0380  0.0728 -0.1162
 1494W        W 5013   4.117   0.638   3.508  0.1907  0.1588 -0.1464
 1495W        W 5014   8.122   5.464  11.117  0.0087 -0.0071  0.3809
 1496W        W 5015   6.144   3.919  11.623 -0.1133 -0.0294 -0.0139
 1497W        W 5016   2.703   9.072   1.468 -0.1270  0.1074  0.0345
 1498W        W 5017   4.389   0.424  12.464  0.1853 -0.0255 -0.3043
 1499W        W 5018   7.626   8.811  11.831  0.0946  0.3048  0.0792
 1500W        W 5019   8.065   4.974   9.925  0.1476  0.0078  0.1619
 1501W        W 5020   2.276   1.386   2.984  0.2159  0.3066 -0.1175
 1502W        W 5021   8.430   2.989   1.498  0.1235  0.2760 -0.1595
 1503W        W 5022   4.978   2.970   4.447 -0.1125  0.3342  0.0027
 1504W        W 5023   6.412   7.458  10.580 -0.0564  0.0885  0.0094
 1505W        W 5024   1.435   7.643   1.084  0.2568 -0.1324 -0.0097
 1506W        W 5025   2.442   1.689   3.357 -0.0496 -0.0525 -0.0204
 1507W        W 5026   1.932   1.660   2.712 -0.3497  0.0933  0.0799
 1508W        W 5027   7.460   7.298   9.649  0.1115 -0.3009 -0.2658
 1509W        W 5028   1.124   6.628   0.223  0.5281  0.1675 -0.1423
 1510W        W 5029   0.941   0.597   9.520 -0.0164 -0.3366  0.1385
 1511W        W 5030   4.818   0.075  10.634  0.1384 -0.1212  0.1806
 1512W        W 5031   6.702   9.668   2.083 -0.1808 -0.0209 -0.0633
 1513W        W 5032   7.456   2.599   1.699  0.0466 -0.1184  0.5463
 1514W        W 5033   9.450   0.030   1.452  0.1079 -0.1493 -0.0597
 1515W        W 5034   5.332   0.954   1.504 -0.0165  0.2943 -0.1255
 1516W        W 5035   4.737   4.017   1.965  0.1464 -0.0193  0.0410
 1517W        W 5036   4.455   8.262  11.005 -0.1470 -0.3572  0.4223
 1518W        W 5037   4.503   7.898  12.229 -0.0482  0.1345 -0.1417
 1519W        W 5038   2.473   5.509  10.731 -0.1116  0.1971 -0.2328
 1520W        W 5039   1.846   2.807  10.484  0.1146  0.2534  0.0492
 1521W        W 5040   2.790   8.693   9.551  0.2746 -0.0019 -0.1000
 1522W        W 5041   3.605   9.515   8.173  0.1317 -0.0096 -0.0748
 1523W        W 5042   8.215   1.569  10.831  0.2927 -0.3596  0.2387
 1524W        W 5043   0.812   7.078   9.261  0.0266 -0.0557 -0.0992
 1525W        W 5044   8.276   0.304  11.508  0.2568 -0.0743 -0.1850
 1526W        W 5045   3.018   0.645   4.243 -0.0416  0.2010  0.1459
 1527W        W 5046   8.506   5.562   2.284 -0.1418  0.2353  0.1361
 1528W        W 5047   0.672   4.585   0.501  0.3109  0.2453  0.2093
 1529W        W 5048   7.864   0.871   9.620  0.1401  0.3050  0.0065
 1530W        W 5049   4.375   2.689   1.262  0.3121  0.1752 -0.2203
 1531W        W 5050   4.739   5.735   4.770 -0.0712  0.0048 -0.1294
 1532W        W 5051   5.345   7.278   3.577  0.1818  0.1375 -0.1340
 1533W        W 5052   0.482   5.337   9.593  0.1030 -0.1438  0.1056
 1534W        W 5053   4.630   4.113   9.880 -0.1978 -0.1074 -0.0052
 1535W        W 5054   8.990   3.233   2.857  0.0993  0.0299  0.4299
 1536W        W 5055   6.560   4.153  12.138  0.3067  0.0206 -0.1070
 1537W        W 5056   1.041   4.473  10.908  0.2372 -0.2457 -0.1657
 1538W        W 5057   1.163   4.792   0.758  0.1210  0.2222  0.0737
 1539W        W 5058   2.114   7.647  11.962 -0.0158 -0.3328  0.1118
 1540W        W 5059   7.683   7.587   2.538 -0.0057  0.1892 -0.0692
 1541W        W 5060   6.793   1.625   3.862 -0.3157 -0.0266 -0.2517
 1542W        W 5061   0.756   7.542   9.145  0.1896  0.0593  0.1037
 1543W        W 5062   8.966   4.871  10.169 -0.1693  0.0450  0.1874
 1544W        W 5063   4.502   1.572  12.008 -0.0560  0.1595  0.0814
 1545W        W 5064   6.630   5.826   1.238 -0.0817 -0.2564  0.1254
 1546W        W 5065   1.909   6.669   3.684 -0.0159 -0.1698  0.0448
 1547W        W 5066   0.215   2.955   0.430  0.0398 -0.1329 -0.4616
 1548W        W 5067   8.862   6.829   2.296  0.1323 -0.1274  0.2302
 1549W        W 5068   6.480   1.895  10.064 -0.0576  0.3327 -0.2008
 1550W        W 5069   6.974   4.180  11.754  0.1812 -0.1843 -0.0605
 1551W        W 5070   6.470   2.608   4.681 -0.1629 -0.0574 -0.2632
 1552W        W 5071   8.698   6.882   1.345  0.2378 -0.0935  0.0913
 1553W        W 5072   0.802   7.441   8.288  0.1217  0.0746  0.3708
 1554W        W 5073   0.924   1.537   2.500  0.1754 -0.1427  0.3059
 1555W        W 5074   5.518   3.896   0.885 -0.0010 -0.0433 -0.1947
 1556W        W 5075   8.444   2.926   2.127 -0.0483 -0.1406 -0.0771
 1557W        W 5076   8.262   6.451   1.190 -0.1545 -0.0343 -0.0295
 1558W        W 5077   7.950   2.625  12.117 -0.0289  0.0329  0.0312
 1559W        W 5078   0.799   4.200   2.097  0.0709  0.0812 -0.0545
 1560W        W 5079   2.952   5.655   9.372 -0.1320 -0.1491  0.2675
 1561W        W 5080   8.671   7.390   0.282  0.1765 -0.4508 -0.3017
 1562W        W 5081   8.251   6.512   0.568 -0.1559  0.3510  0.1389
 1563W        W 5082   0.814   7.394  12.421 -0.1532  0.0382 -0.3783
 1564W        W 5083   7.960   5.190   3.666 -0.2291 -0.1486  0.1178
 1565W        W 5084   9.484   2.371   9.240 -0.0459 -0.1776 -0.1761
 1566W        W 5085   6.394   7.793   0.602 -0.1090  0.1781  0.0383
 1567W        W 5086   4.391   3.628   1.662  0.1265  0.1634  0.2926
 1568W        W 5087   5.865   6.816  10.639 -0.0822 -0.1189  0.1142
 1569W        W 5088   1.453   0.268  12.345 -0.0087  0.0079 -0.2456
 1570W        W 5089   0.565   1.956   1.472 -0.2809 -0.1196  0.2974
 1571W        W 5090   0.551   3.788   4.669 -0.1229  0.1672  0.0715
 1572W        W 5091   0.154   8.058  10.268 -0.1359 -0.1065 -0.2366
 1573W        W 5092   1.204   7.025   9.633  0.3049 -0.1694 -0.1551
 1574W        W 5093   3.058   6.649   3.858  0.0687  0.3831  0.1021
 1575W        W 5094   1.394   4.976   9.515 -0.0166 -0.0677  0.1416
 1576W        W 5095   9.486   3.565  10.183 -0.3055  0.2935 -0.2819
 1577W        W 5096   2.329   8.706   0.655 -0.0386  0.3024  0.0940
 1578W        W 5097   1.942   3.911  12.142  0.1892  0.3055 -0.2189
 1579W        W 5098   2.020   6.161   2.717  0.0517  0.2514 -0.1024
 1580W        W 5099   9.079   1.339   1.405 -0.1651 -0.1883  0.0928
 1581W        W 5100   0.532   0.234  10.686  0.1715  0.2101 -0.2264
 1582W        W 5101   7.971   8.040  12.030 -0.0555 -0.1337 -0.2074
 1583W        W 5102   7.887   8.890   2.362  0.0953  0.0263  0.0881
 1584W        W 5103   7.931   4.434   3.725  0.2816 -0.2025  0.3849
 1585W        W 5104   6.635   2.693   1.754  0.0972 -0.0483 -0.3922
 1586W        W 5105   7.681   2.321   3.323  0.0585  0.4454  0.1431
 1587W        W 5106   0.892   5.019  11.869  0.0127 -0.2130  0.0914
 1588W        W 5107   0.244   2.155   1.761  0.0816  0.4439 -0.2496
 1589W        W 5108   4.779   7.435   8.919 -0.0315 -0.0612 -0.1278
 1590W        W 5109   4.355   4.402   2.444 -0.3237  0.1460  0.0134
 1591W        W 5110   4.034   0.172   9.690  0.0390  0.1165  0.1238
 1592W        W 5111   8.583   6.058   4.536 -0.1244  0.3461 -0.0701
 1593W        W 5112   1.207   6.870   9.023  0.2468  0.4588 -0.0020
 1594W        W 5113   1.636   3.900   9.746  0.1238  0.1665  0.0496
 1595W        W 5114   8.774   0.343   2.541  0.2989 -0.6258 -0.1135
 1596W        W 5115   5.047   1.108  12.486  0.0855  0.0782 -0.2365
 1597W        W 5116   6.304   7.277   9.666  0.3590 -0.0178  0.3445
 1598W        W 5117   0.453   2.559  12.062 -0.1419  0.0613 -0.1233
 1599W        W 5118   6.494   9.035   1.338 -0.0492 -0.0319 -0.0593
 1600W        W 5119   4.510   7.535   3.853 -0.0756 -0.0560  0.2749
 1601W        W 5120   5.748   4.895  10.517  0.1538  0.1599  0.2468
 1602W        W 5121   8.587   2.441   2.219 -0.2889 -0.0063  0.1801
 1603W        W 5122   7.885   6.535   2.500 -0.3654 -0.1948 -0.0989
 1604W        W 5123   5.697   6.038   8.641  0.3336  0.0249  0.2295
 1605W        W 5124   2.803   5.521   8.408 -0.1049 -0.2590 -0.1812
 1606W        W 5125   1.132   7.429  10.963 -0.0811  0.0269  0.2703
 1607W        W 5126   1.205   4.382   1.948 -0.1731 -0.1701 -0.1230
 1608W        W 5127   3.737   3.748   2.053  0.1074 -0.0681  0.0570
 1609W        W 5128   7.810   3.343   9.986 -0.0792 -0.1411  0.0129
 1610W        W 5129   5.915   6.271   3.930 -0.1209  0.1813  0.0518
 1611W        W 5130   8.385   5.887   8.845  0.0255  0.0405 -0.2022
 1612W        W 5131   5.388   0.777   3.239 -0.1424 -0.0117  0.0110
 1613W        W 5132   8.912   3.500   3.900  0.3542 -0.3863  0.0163
 1614W        W 5133   4.366   6.824  12.494 -0.3128  0.0029  0.1044
 1615W        W 5134   5.415   5.426   1.397 -0.1106 -0.0719  0.0788
 1616W        W 5135   7.431   5.541  11.480  0.0250  0.0987  0.1820
 1617W        W 5136   3.665   2.682   2.473  0.2404  0.0552  0.1061
 1618W        W 5137   1.118   4.024   9.641 -0.0431 -0.1966 -0.1510
 1619W        W 5138   2.312   9.031   2.364  0.0413  0.2168 -0.2165
 1620W        W 5139   9.701   9.547   9.864  0.0754  0.3277 -0.0216
 1621W        W 5140   8.611   4.969   0.918 -0.2567  0.0924 -0.2571
 1622W        W 5141   4.093   3.585   2.414 -0.1428  0.0902  0.1693
 1623W        W 5142   7.586   4.645   9.786 -0.1667 -0.2361  0.0593
 1624W        W 5143   3.385   0.778  10.103 -0.0541  0.3291 -0.0235
 1625W        W 5144   3.196   5.929  11.200 -0.0501  0.2453 -0.0299
 1626W        W 5145   4.884   2.321   1.776  0.2777  0.0321  0.0499
 1627W        W 5146   5.219   9.661   1.052 -0.0257 -0.0906 -0.0595
 1628W        W 5147   0.495   6.236  11.947  0.0693  0.2774  0.1354
 1629W        W 5148   1.491   4.848  10.370  0.3591  0.0476 -0.0029
 1630W        W 5149   9.305   8.684  10.025 -0.0007 -0.0975 -0.0727
 1631W        W 5150   1.185   9.674   4.366 -0.0918 -0.1604  0.2027
 1632W        W 5151   1.339   8.733   2.197  0.3992 -0.0762 -0.0668
 1633W        W 5152   8.388   5.294   4.187  0.3850 -0.2965 -0.0257
 1634W        W 5153   2.848   5.012   1.230  0.2525 -0.0159  0.1497
 1635W        W 5154   7.696   6.715  12.256 -0.1954 -0.0049 -0.0457
 1636W        W 5155   6.996   1.883   0.774  0.1249  0.1595  0.1897
 1637W        W 5156   4.911   4.554  11.748 -0.0767  0.0503  0.0679
 1638W        W 5157   3.318   1.336   2.398 -0.0063 -0.1421 -0.0926
 1639W        W 5158   3.389   4.439   2.185  0.2590  0.0407 -0.0298
 1640W        W 5159   8.492   2.067  10.861  0.3016  0.2229 -0.2868
 1641W        W 5160   2.838   9.650   0.746  0.0004 -0.1478  0.0099
 1642W        W 5161   4.604   5.179  11.733  0.2897  0.2184  0.1231
 1643W        W 5162   1.602   5.926  10.713 -0.1776 -0.0523  0.0806
 1644W        W 5163   4.273   4.151  10.917 -0.0945 -0.0309 -0.0015
 1645W        W 5164   3.946   4.750  10.469 -0.2002 -0.1111 -0.2151
 1646W        W 5165   9.526   7.176   1.770 -0.1182  0.3411  0.1079
 1647W        W 5166   9.430   6.008   9.542 -0.0368 -0.0224  0.0791
 1648W        W 5167   8.651   3.838   9.794  0.2138 -0.0520  0.0760
 1649W        W 5168   9.179   6.549  10.741  0.1846 -0.0176  0.0847
 1650W        W 5169   1.216   7.758   8.970 -0.3445 -0.1336 -0.1671
 1651W        W 5170   2.404   3.806   0.947  0.0852  0.2047  0.2274
 1652W        W 5171   1.568   0.034   1.165 -0.1617  0.0459 -0.3528
 1653W        W 5172   8.860   5.284   4.263 -0.2756  0.2562 -0.1470
 1654W        W 5173   8.190   4.334   9.118  0.0380 -0.0079  0.0182
 1655W        W 5174   3.764   7.112   2.770  0.2540  0.2257 -0.2435
 1656W        W 5175   5.617   3.885  11.257 -0.4045 -0.1319  0.0446
 1657W        W 5176   8.197   9.136   0.945  0.0502  0.1252 -0.0042
 1658W        W 5177   2.091   4.966   2.103  0.1905  0.2855 -0.1304
 1659W        W 5178   1.473   2.211  10.108 -0.4847  0.6911  0.2045
 1660W        W 5179   4.941   5.917   1.382  0.1103 -0.0295  0.1199
 1661W        W 5180   2.729   5.713   2.209  0.0381 -0.1541 -0.0959
 1662W        W 5181   0.693   3.750   0.164 -0.4739 -0.0894  0.1020
 1663W        W 5182   0.725   5.109   3.665 -0.0042  0.0848  0.1258
 1664W        W 5183   8.887   3.692   0.048  0.1784  0.0885  0.1943
 1665W        W 5184   0.668   0.269  11.614 -0.1102  0.1159 -0.0591
 1666W        W 5185   1.555   5.584   3.695  0.0386  0.0023 -0.2439
 1667W        W 5186   7.707   5.568   0.554 -0.1083 -0.0199 -0.1789
 1668W        W 5187   4.310   8.560   9.108  0.0067  0.4341  0.2274
 1669W        W 5188   5.550   4.759  11.099  0.0073 -0.0380  0.4690
 1670W        W 5189   4.734   2.654  11.344  0.2682 -0.0001  0.2614
 1671W        W 5190   1.034   7.916  12.504  0.0376  0.0137 -0.3182
 1672W        W 5191   1.721   6.502   1.585  0.1041  0.1442  0.2421
 1673W        W 5192   1.655   6.863   0.589  0.3338  0.0333  0.2631
 1674W        W 5193   5.154   0.190   4.127  0.0924  0.2130  0.0805
 1675W        W 5194   4.420   1.829  11.604  0.1010 -0.1680  0.0047
 1676W        W 5195   8.266   0.266  11.004 -0.1785  0.0329  0.1688
 1677W        W 5196   9.089   2.330   3.512  0.1473 -0.3248 -0.0971
 1678W        W 5197   1.176   1.205   0.065  0.1067  0.0106  0.0001
 1679W        W 5198   2.479   3.011   0.267 -0.0559  0.1574 -0.3703
 1680W        W 5199   3.137   9.503  10.836  0.0543 -0.0341  0.1279
 1681W        W 5200   5.097   7.321  10.971  0.0223  0.3830  0.1135
 1682W        W 5201   0.520   4.199  11.644 -0.2245  0.1023  0.3048
 1683W        W 5202   7.423   6.801  10.053 -0.4273 -0.1940 -0.1052
 1684W        W 5203   3.833   4.985   9.206 -0.1279 -0.1068  0.2078
 1685W        W 5204   4.145   3.771   3.283 -0.2383 -0.1207 -0.1048
 1686W        W 5205   7.015   5.474   9.197 -0.1348 -0.2678  0.2005
 1687W        W 5206   5.432   8.134  10.678  0.2838  0.1007  0.4728
 1688W        W 5207   3.330   4.518  11.677  0.0437  0.0013 -0.1789
 1689W        W 5208   1.796   4.315  11.895  0.0718  0.3234  0.0695
 1690W        W 5209   3.108   8.332   1.831 -0.0443  0.2006 -0.3007
 1691W        W 5210   2.899   3.840  12.309  0.2203 -0.0028 -0.1508
 1692W        W 5211   4.863   5.978   8.305 -0.3338 -0.0710  0.0708
 1693W        W 5212   1.841   7.914   3.283 -0.2727  0.0224 -0.3582
 1694W        W 5213   9.466   3.752  12.433  0.0246  0.0385  0.3337
 1695W        W 5214   8.364   2.126   0.921  0.1611 -0.0578 -0.0493
 1696W        W 5215   0.679   4.796   2.653 -0.3368  0.2481 -0.0541
 1697W        W 5216   1.378   9.330   2.473 -0.1463 -0.0781  0.1013
 1698W        W 5217   1.165   3.279   2.434 -0.3184  0.1441  0.2373
 1699W        W 5218   2.115   0.083   9.709 -0.0112 -0.3694  0.1613
 1700W        W 5219   3.264   2.046   2.938 -0.1829  0.1175 -0.3643
 1701W        W 5220   5.272   6.593   0.721  0.0694 -0.0628 -0.0820
 1702W        W 5221   0.525   9.565   9.200  0.1839 -0.3252 -0.2027
 1703W        W 5222   3.642   0.326   0.424  0.2043 -0.1195 -0.0920
 1704W        W 5223   8.884   3.059  10.704 -0.0165 -0.0647 -0.2096
 1705W        W 5224   3.361   1.355   9.807 -0.3826  0.1696  0.2845
 1706W        W 5225   2.083   5.858  10.890 -0.1172  0.1941 -0.1378
 1707W        W 5226   6.010   9.156   9.481 -0.1764 -0.0019  0.0748
 1708W        W 5227   2.886   2.091   2.167  0.3407 -0.3294 -0.0491
 1709W        W 5228   4.254   8.586   8.629  0.0202 -0.0023 -0.2145
 1710W        W 5229   8.581   2.951  11.534 -0.3101 -0.2328 -0.0227
 1711W        W 5230   3.157   9.286   3.467 -0.2186  0.1734 -0.5843
 1712W        W 5231   9.097   7.518   0.631  0.0493 -0.0099 -0.0222
 1713W        W 5232   8.393   9.098   2.284 -0.3335 -0.1798  0.0017
 1714W        W 5233   9.107   0.105   3.260 -0.2126  0.1291 -0.1685
 1715W        W 5234   5.117   5.128   8.813 -0.0115 -0.2807  0.0349
 1716W        W 5235   3.536   4.951   2.197  0.2528  0.1598  0.3675
 1717W        W 5236   2.320   2.554  10.323 -0.0905 -0.0251 -0.4471
 1718W        W 5237   2.144   6.689   1.326  0.0357  0.0069 -0.4967
 1719W        W 5238   4.319   7.571  10.392  0.0530 -0.0792 -0.1110
 1720W        W 5239   1.363   8.894   0.141  0.0774 -0.1634  0.0843
 1721W        W 5240   4.137   6.714   0.391 -0.0956 -0.1990  0.2113
 1722W        W 5241   0.856   1.022   9.850 -0.1127  0.0872 -0.2126
 1723W        W 5242   6.352   8.612   3.447  0.4226  0.1159  0.0832
 1724W        W 5243   4.805   0.963   4.513  0.0562 -0.2568 -0.1218
 1725W        W 5244   3.165   8.762   3.328  0.0861 -0.0704  0.0239
 1726W        W 5245   6.340   8.248   9.034  0.0412 -0.0184 -0.0313
 1727W        W 5246   5.389   0.037   1.536 -0.1989  0.1766  0.0523
 1728W        W 5247   0.319   1.146   9.322 -0.0885 -0.1566  0.3136
 1729W        W 5248   4.329   8.654  11.283  0.0913 -0.4548 -0.0932
 1730W        W 5249   8.127   6.374  12.266  0.1802 -0.3260 -0.2519
 1731W        W 5250   4.465   0.593  10.546  0.1290 -0.1290  0.0112
 1732W        W 5251   1.823   3.418  11.975  0.0880 -0.2116  0.1536
 1733W        W 5252   7.777   1.817  11.821 -0.0537 -0.2087  0.0325
 1734W        W 5253   2.714   4.914   8.921  0.0796  0.0288 -0.1367
 1735W        W 5254   0.029   6.907   2.244  0.0167 -0.0198 -0.3300
 1736W        W 5255   3.408   7.912  11.465  0.3850  0.1466  0.2733
 1737W        W 5256   9.204   1.750  10.562 -0.1771 -0.3152 -0.0510
 1738W        W 5257   8.403   1.491   3.144 -0.0076  0.1985  0.3825
 1739W        W 5258   7.231   4.079  12.455 -0.0895  0.0697 -0.1613
 1740W        W 5259   0.198   7.806  10.825 -0.0654  0.4256  0.0412
 1741W        W 5260   5.445   4.441   1.881 -0.0741  0.1085  0.2428
 1742W        W 5261   9.206   4.124   0.151  0.3275 -0.4774  0.1167
 1743W        W 5262   2.139   4.263   4.561  0.1631 -0.1973  0.0307
 1744W        W 5263   9.265   7.518  10.921  0.1331  0.2290 -0.0403
 1745W        W 5264   3.978   8.720  12.201  0.0210  0.0567 -0.1934
 1746W        W 5265   2.070   9.625  11.803 -0.0020  0.0043  0.1748
 1747W        W 5266   4.359   2.126   9.475 -0.1913 -0.1781 -0.1928
 1748W        W 5267   5.448   0.422  11.256  0.1310 -0.1819 -0.1603
 1749W        W 5268   0.534   3.803  11.269 -0.1718 -0.3318  0.1302
 1750W        W 5269   7.829   5.073   1.213 -0.3794 -0.3358  0.0678
 1751W        W 5270   7.775   5.115  11.925  0.0386  0.1021 -0.1296
 1752W        W 5271   0.529   4.290   4.154  0.2616 -0.1880  0.0171
 1753W        W 5272   8.653   4.561  11.173  0.0457 -0.0385 -0.0187
 1754W        W 5273   6.223   8.425  11.663  0.1189 -0.1849 -0.2628
 1755W        W 5274   0.823   1.564   3.926  0.0100  0.0573 -0.1274
 1756W        W 5275   1.945   3.837  11.467  0.0171 -0.3951 -0.2605
 1757W        W 5276   4.654   5.179   3.663  0.1219  0.2464 -0.1549
 1758W        W 5277   0.678   4.503   1.706  0.1384 -0.0774 -0.1251
 1759W        W 5278   5.939   4.029   3.200 -0.0486  0.1605 -0.0186
 1760W        W 5279   3.534   3.750   0.715  0.3551  0.1003  0.0711
 1761W        W 5280   2.459   3.393   2.885 -0.1006  0.1009 -0.0451
 1762W        W 5281   8.691   4.229  10.554  0.1633 -0.1110  0.2867
 1763W        W 5282   7.460   3.704  10.075 -0.2892  0.3371  0.0872
 1764W        W 5283   2.949   0.219  11.785  0.1440  0.0319  0.1994
 1765W        W 5284   1.835   0.902   0.901 -0.2066 -0.1192 -0.1356
 1766W        W 5285   9.136   1.173   9.291 -0.1699  0.3275 -0.0101
 1767W        W 5286   9.228   8.967  10.963 -0.0749  0.2716 -0.0799
 1768W        W 5287   6.276   1.678  12.227 -0.3519  0.0229  0.0456
 1769W        W 5288   5.315   9.486   9.395  0.0111 -0.0621  0.1066
 1770W        W 5289   6.890   4.209   3.098 -0.0982  0.1642 -0.5040
 1771W        W 5290   7.306   5.174   1.252 -0.0200 -0.0994  0.2807
 1772W        W 5291   1.691   2.826   1.408  0.1289  0.1151 -0.0975
 1773W        W 5292   8.673   1.733   9.259  0.3301  0.2796 -0.1313
 1774W        W 5293   5.422   6.820   3.336 -0.1076  0.0210  0.0630
 1775W        W 5294   0.752   9.533   1.469  0.2469  0.0180  0.1020
 1776W        W 5295   2.072   9.106   8.555 -0.2427  0.1393 -0.0224
 1777W        W 5296   1.612   9.710   0.241 -0.2020  0.1019  0.3090
 1778W        W 5297   1.865   9.017   2.736  0.0568  0.1836  0.0089
 1779W        W 5298   0.183   0.691  10.878 -0.0496  0.3018  0.1393
 1780W        W 5299   6.828   5.346   1.156  0.1222 -0.2986  0.0388
 1781W        W 5300   6.752   5.645   2.655  0.0285  0.1273 -0.4106
 1782W        W 5301   2.515   9.404   8.928 -0.0307  0.1857  0.0395
 1783W        W 5302   0.653   2.898   8.500  0.0769 -0.2345 -0.4016
 1784W        W 5303   7.045   6.559   2.129 -0.0011  0.2575 -0.0971
 1785W        W 5304   3.038   3.221   4.226  0.1558  0.2400 -0.5656
 1786W        W 5305   4.048   4.680  12.323 -0.2301 -0.0375  0.1371
 1787W        W 5306   0.918   9.191  11.242  0.2176  0.2105 -0.0938
 1788W        W 5307   2.292   2.407   2.124 -0.0034 -0.0193 -0.0288
 1789W        W 5308   2.965   8.256   2.784 -0.1558 -0.1173  0.2240
 1790W        W 5309   9.264   9.099   0.175  0.0145  0.1281  0.0447
 1791W        W 5310   2.113   1.573   3.689  0.0128 -0.4372 -0.1561
 1792W        W 5311   8.152   2.561  10.930 -0.0137  0.2524  0.1403
 1793W        W 5312   3.886   7.283   0.578 -0.1329 -0.0874  0.1568
 1794W        W 5313   3.429   5.192   0.885 -0.5347  0.2504 -0.2266
 1795W        W 5314   9.290   3.260   1.987 -0.1278  0.0137 -0.1226
 1796W        W 5315   3.268   1.322  11.263 -0.3717  0.0491 -0.1361
 1797W        W 5316   1.610   5.979   8.132 -0.2160 -0.0843 -0.1177
 1798W        W 5317   3.032   7.607  10.660  0.3707 -0.0093 -0.0124
 1799W        W 5318   6.822   7.248   9.650  0.0321  0.0033  0.2802
 1800W        W 5319   1.670   5.562   9.391 -0.0338 -0.2713  0.3195
 1801W        W 5320   6.148   6.149  10.013  0.1892 -0.3415 -0.1114
 1802W        W 5321   9.142   5.897   8.299 -0.1199  0.1069 -0.1636
 1803W        W 5322   4.055   0.196   8.802  0.0642 -0.1303 -0.0638
 1804W        W 5323   7.024   3.852  11.317  0.2983  0.1195 -0.0325
 1805W        W 5324   2.964   1.468   8.651  0.2041  0.2439 -0.0907
 1806W        W 5325   5.045   8.238  11.564  0.1043  0.0245 -0.1018
 1807W        W 5326   8.764   1.380   0.640  0.0101  0.1261 -0.0314
 1808W        W 5327   1.424   8.658  10.923  0.1169  0.2345  0.0498
 1809W        W 5328   6.934   6.678  11.676  0.1206  0.0576  0.2326
 1810W        W 5329   2.075   5.688  10.403  0.1918  0.0764  0.1319
 1811W        W 5330   7.920   4.745  11.594 -0.0547 -0.2258  0.1000
 1812W        W 5331   2.411   0.048  10.222 -0.0715 -0.2265  0.0332
 1813W        W 5332   4.565   7.942   3.490 -0.0217  0.4512 -0.0725
 1814W        W 5333   1.026   8.865   8.963  0.0718 -0.1297  0.1234
 1815W        W 5334   3.539   5.508  10.569 -0.2905  0.3049 -0.0275
 1816W        W 5335   6.536   7.184  10.976 -0.1614 -0.2809 -0.0954
 1817W        W 5336   5.109   1.992   3.192  0.0691 -0.2085  0.0746
 1818W        W 5337   1.053   4.121   0.043  0.3460  0.1646 -0.3006
 1819W        W 5338   3.205   4.885   5.052 -0.0655  0.0827  0.1394
 1820W        W 5339   4.685   7.357  11.228 -0.0672  0.1496  0.0542
 1821W        W 5340   1.579   5.922  11.244  0.1975  0.1160  0.4041
 1822W        W 5341   7.238   2.416  11.515 -0.0663  0.1692  0.2079
 1823W        W 5342   2.156   2.689   2.606  0.1140  0.1650  0.4115
 1824W        W 5343   1.290   4.320   4.688 -0.0695  0.2448 -0.0431
 1825W        W 5344   6.999   1.041  10.079  0.3410 -0.2404  0.3073
 1826W        W 5345   7.397   8.448  10.520 -0.1356 -0.1031  0.1091
 1827W        W 5346   4.401   6.056   0.448  0.0643  0.4615  0.0350
 1828W        W 5347   6.780   3.067   8.382 -0.0083 -0.2522 -0.1018
 1829W        W 5348   8.510   1.404  12.268 -0.0649  0.0701 -0.0891
 1830W        W 5349   4.101   1.118  11.180 -0.2967  0.2036  0.0164
 1831W        W 5350   4.622   5.896   3.057 -0.1150 -0.4076 -0.1729
 1832W        W 5351   1.764   3.069   2.379  0.0544  0.0742  0.0738
 1833W        W 5352   9.366   0.125   0.274 -0.3129  0.1442  0.3138
 1834W        W 5353   0.480   5.841   8.374 -0.0779 -0.4293 -0.0298
 1835W        W 5354   0.156   2.030   2.249 -0.0983 -0.0512 -0.0870
 1836W        W 5355   6.921   4.064   1.882  0.0145  0.0800  0.3367
 1837W        W 5356   5.429   6.166   1.852 -0.2282  0.0182  0.0398
 1838W        W 5357   7.545   3.102   1.450  0.0572 -0.2811 -0.3107
 1839W        W 5358   3.020   0.921  11.147 -0.2317 -0.1687  0.2509
 1840W        W 5359   6.563   6.876   1.056 -0.2267 -0.2594  0.0837
 1841W        W 5360   0.849   5.611   8.715 -0.0283  0.0152 -0.2968
 1842W        W 5361   0.159   2.344  10.953 -0.0743 -0.0535  0.2523
 1843W        W 5362   2.174   6.470  11.030  0.2163  0.3437 -0.3605
 1844W        W 5363   1.992   7.639   2.835 -0.1026 -0.1620  0.0994
 1845W        W 5364   9.288   6.067   2.476 -0.1285 -0.0140 -0.0669
 1846W        W 5365   3.119   0.078   2.104 -0.3078 -0.1622 -0.2188
 1847W        W 5366   0.144   3.719   8.193  0.0083  0.2029 -0.0895
 1848W        W 5367   2.789   4.798   9.687  0.2180  0.0222 -0.0564
 1849W        W 5368   8.803   5.322   9.248  0.0688  0.1462  0.0918
 1850W        W 5369   2.344   8.104   2.587 -0.1396 -0.0349 -0.0439
 1851W        W 5370   7.506   4.139  12.042 -0.2267 -0.0433 -0.3325
 1852W        W 5371   5.376   5.179   9.260  0.2213 -0.0340  0.2251
 1853W        W 5372   6.910   5.035   2.512  0.0687 -0.0379  0.0162
 1854W        W 5373   2.616   9.675   1.830 -0.1372 -0.1402 -0.0251
 1855W        W 5374   2.475   1.091  10.375  0.1242  0.0075  0.0025
 1856W        W 5375   7.397   3.465   2.215  0.0087 -0.4181  0.1197
 1857W        W 5376   4.634   7.035   8.477  0.2972  0.2095 -0.2074
 1858W        W 5377   6.335   7.140   4.228  0.3327 -0.0891 -0.0564
 1859W        W 5378   4.264   3.956   9.397 -0.0978 -0.0667 -0.3095
 1860W        W 5379   0.223   3.981   3.291  0.2804 -0.0742 -0.2488
 1861W        W 5380   6.388   2.278  11.478  0.1091  0.1125  0.1762
 1862W        W 5381   7.190   6.449  11.329  0.2810 -0.1320 -0.0015
 1863W        W 5382   8.762   6.604   0.538  0.0086 -0.2054 -0.1822
 1864W        W 5383   1.478   2.584   1.023  0.0015  0.0460 -0.3202
 1865W        W 5384   0.520   9.094  10.089  0.0469  0.3180 -0.3935
 1866W        W 5385   7.325   7.284   2.774  0.1716 -0.2338  0.1878
 1867W        W 5386   8.483   6.864   0.885 -0.0660 -0.0849 -0.1193
 1868W        W 5387   7.195   2.643   9.206  0.1198  0.1513  0.2134
 1869W        W 5388   6.355   8.795   2.906 -0.0993 -0.1265 -0.1954
 1870W        W 5389   5.544   0.484  12.480  0.1959 -0.1180  0.0409
 1871W        W 5390   7.816   8.678  11.398 -0.0788  0.1616  0.0491
 1872W        W 5391   6.518   7.302   3.179  0.1593  0.1829 -0.2640
 1873W        W 5392   5.677   1.334  10.996 -0.1876  0.1888  0.2322
 1874W        W 5393   8.409   2.300  10.430 -0.3920 -0.0119 -0.3064
 1875W        W 5394   8.219   0.603  12.011  0.0781 -0.1617  0.1943
 1876W        W 5395   4.932   0.955   1.930  0.1434 -0.2233 -0.0684
 1877W        W 5396   5.248   8.703  11.529 -0.0128 -0.2651  0.5204
 1878W        W 5397   4.540   0.032   0.978  0.2191 -0.2251  0.0754
 1879W        W 5398   4.252   9.663   4.780 -0.2213 -0.2593 -0.0645
 1880W        W 5399   5.131   4.696   8.598  0.0565 -0.1948 -0.3110
 1881W        W 5400   2.022   6.327   0.430 -0.0446 -0.0585  0.0448
 1882W        W 5401   3.850   8.575   0.577 -0.0932  0.4184  0.0975
 1883W        W 5402   4.587   6.239   1.156  0.1549 -0.0654 -0.1103
 1884W        W 5403   3.061   2.328   1.747 -0.0975 -0.6685 -0.1511
 1885W        W 5404   7.745   2.350  12.470 -0.0248  0.1569  0.0389
 1886W        W 5405   5.468   3.228   3.650  0.2388 -0.0218 -0.1701
 1887W        W 5406   9.044   4.563  11.467  0.0793  0.2430 -0.1258
 1888W        W 5407   2.118   7.285   2.390  0.0109  0.2038 -0.1878
 1889W        W 5408   3.915   7.471   9.986  0.0196  0.0857  0.0273
 1890W        W 5409   7.953   2.332   1.502  0.0920  0.0957 -0.0044
 1891W        W 5410   6.483   3.730   1.901 -0.1450  0.1812 -0.0376
 1892W        W 5411   7.574   8.028   2.424 -0.2052  0.1556  0.0406
 1893W        W 5412   5.543   5.752   2.112  0.1654  0.0832 -0.1935
 1894W        W 5413   2.539   1.389   9.958  0.1142  0.2073  0.1193
 1895W        W 5414   0.898   5.959  11.981 -0.1489  0.2703 -0.1362
 1896W        W 5415   5.889   5.815   0.651  0.0677  0.3030 -0.1643
 1897W        W 5416   5.959   3.687  10.114  0.0380 -0.1064 -0.0371
 1898W        W 5417   1.509   3.776   8.813 -0.0167  0.1790  0.4588
 1899W        W 5418   8.432   6.446   2.630 -0.1812 -0.0310  0.0361
 1900W        W 5419   4.540   7.594   2.264 -0.0751 -0.2785  0.2712
 1901W        W 5420   1.532   7.415  10.032  0.1616 -0.0107  0.1896
 1902W        W 5421   4.361   4.816   9.317  0.0924  0.0835  0.0291
 1903W        W 5422   0.490   0.226   2.833  0.0387  0.0396 -0.0902
 1904W        W 5423   4.154   8.251   3.582  0.1767  0.0727 -0.0361
 1905W        W 5424   3.058   4.568   8.776  0.0222  0.2292 -0.0539
 1906W        W 5425   1.371   4.510  11.708 -0.2018 -0.3074 -0.1695
 1907W        W 5426   5.312   5.750   0.596 -0.1108 -0.3103 -0.1739
 1908W        W 5427   9.300   8.709   8.860  0.0679 -0.1426 -0.2796
 1909W        W 5428   0.272   4.803   3.373  0.0905  0.0543  0.1842
 1910W        W 5429   6.370   5.127   0.466  0.2788 -0.4637 -0.0259
 1911W        W 5430   3.011   7.816   2.601 -0.1185 -0.0298  0.1758
 1912W        W 5431   2.987   3.359  10.010 -0.0498  0.1204  0.0554
 1913W        W 5432   6.672   8.078   2.740 -0.0557  0.0941 -0.0729
 1914W        W 5433   7.940   9.153  11.116  0.2094  0.0889 -0.0742
 1915W        W 5434   3.154   7.030  10.495  0.0886 -0.2227  0.2788
 1916W        W 5435   3.649   9.516  12.424  0.3551 -0.0758  0.1668
 1917W        W 5436   0.234   1.755   9.827  0.1480  0.0407 -0.0431
 1918W        W 5437   1.459   4.439   9.629 -0.0870 -0.3057  0.0693
 1919W        W 5438   6.540   4.962   8.800  0.0677 -0.0638 -0.0137
 1920W        W 5439   7.163   2.554  10.876  0.0830 -0.2549  0.0647
 1921W        W 5440   1.647   2.528   4.137 -0.0328  0.1059  0.1170
 1922W        W 5441   6.421   1.526   8.846 -0.4892  0.0729 -0.1683
 1923W        W 5442   1.525   2.412  11.361  0.2530  0.2905 -0.3767
 1924W        W 5443   6.618   2.479   2.690 -0.1168  0.4556  0.6379
 1925W        W 5444   3.977   7.657   9.321 -0.4760 -0.1013 -0.1229
 1926W        W 5445   6.826   9.377   1.195 -0.2259 -0.1483 -0.2717
 1927W        W 5446   3.090   2.479   9.426  0.1304 -0.1122  0.1048
 1928W        W 5447   6.175   4.524   9.035  0.1100  0.1890  0.1384
 1929W        W 5448   1.802   1.611  11.162 -0.1486 -0.1951 -0.1372
 1930W        W 5449   7.436   1.101   8.667  0.1914  0.2194 -0.1263
 1931W        W 5450   6.197   3.739   8.570  0.0569  0.0454  0.0174
 1932W        W 5451   0.696   0.707   2.003 -0.0354 -0.0775  0.2645
 1933W        W 5452   2.583   0.215  11.143 -0.2428 -0.0889 -0.0039
 1934W        W 5453   5.329   4.896   1.563 -0.2736 -0.4615 -0.2468
 1935W        W 5454   6.787   5.052   9.245  0.0959  0.1149 -0.0194
 1936W        W 5455   3.119   8.818   0.035 -0.1077 -0.0264 -0.0395
 1937W        W 5456   1.781   9.175  11.920  0.0980 -0.0275 -0.3872
 1938W        W 5457   8.450   2.248   2.782 -0.0231  0.2437  0.1455
 1939W        W 5458   2.277   6.929   9.543 -0.2933  0.2255  0.2201
 1940W        W 5459   6.413   9.659   3.405 -0.0280 -0.0298 -0.2057
 1941W        W 5460   4.960   7.759  11.676  0.0043 -0.1791  0.0916
 1942W        W 5461   8.614   5.286   0.435  0.0725 -0.4862  0.4332
 1943W        W 5462   2.353   5.168   0.071  0.2237 -0.0062  0.1954
 1944W        W 5463   6.130   0.961   1.009 -0.1327 -0.1170  0.4190
 1945W        W 5464   6.664   3.676  10.827  0.3540  0.1028  0.0728
 1946W        W 5465   5.848   9.431   9.142  0.2338  0.0041 -0.1117
 1947W        W 5466   8.483   0.760  11.295 -0.1531 -0.2856  0.0261
 1948W        W 5467   6.675   8.395   3.078 -0.1856 -0.0658 -0.1413
 1949W        W 5468   8.692   3.253   9.182  0.2630  0.0844 -0.2521
 1950W        W 5469   5.074   5.584   1.008  0.1004 -0.1102  0.1250
 1951W        W 5470   3.003   8.930   1.931  0.2356 -0.0387  0.1167
 1952W        W 5471   1.117   1.618   0.383 -0.2329 -0.3473  0.0373
 1953W        W 5472   1.020   6.955  11.097 -0.4655 -0.1124  0.1531
 1954W        W 5473   7.808   4.390  10.722  0.1045  0.2748 -0.0131
 1955W        W 5474   8.638   5.847   8.409  0.0846 -0.0907  0.1436
 1956W        W 5475   7.428   2.662   0.282 -0.3876  0.1655  0.0068
 1957W        W 5476   2.627   1.965   3.883 -0.5199  0.0183  0.3289
 1958W        W 5477   2.209   3.940   1.854  0.3605 -0.2890  0.2399
 1959W        W 5478   4.360   2.572   1.757  0.4950  0.1933  0.0680
 1960W        W 5479   1.493   1.766   1.099  0.3078  0.0033  0.3847
 1961W        W 5480   7.881   3.219   2.953 -0.0509 -0.1850  0.0461
 1962W        W 5481   7.578   6.374   1.269 -0.0019  0.0921 -0.0676
 1963W        W 5482   1.256   7.122  11.899 -0.1410  0.1440  0.5053
 1964W        W 5483   6.049   9.614   9.687  0.1977 -0.2235 -0.0662
 1965W        W 5484   5.642   0.629   4.000  0.0761 -0.1703 -0.0118
 1966W        W 5485   4.868   4.824   0.642  0.1427  0.3493  0.0643
 1967W        W 5486   5.920   3.062  11.096  0.0632 -0.0573  0.1441
 1968W        W 5487   4.959   4.640  10.590  0.4626  0.1390  0.2782
 1969W        W 5488   8.417   1.080  11.807  0.0628 -0.2081  0.2120
 1970W        W 5489   0.489   4.604   9.349  0.0109  0.1499  0.2312
 1971W        W 5490   1.177   1.937   2.850  0.0245 -0.1030  0.1488
 1972W        W 5491   1.934   2.075  12.116 -0.3460  0.1570  0.1353
 1973W        W 5492   2.229   0.919  11.606 -0.1426 -0.3900  0.0380
 1974W        W 5493   2.343   7.182   1.495  0.2086 -0.1322  0.1153
 1975W        W 5494   4.159   8.609  10.783  0.0342 -0.0397  0.0489
 1976W        W 5495   5.155   3.515   4.016  0.0019 -0.1591 -0.1651
 1977W        W 5496   8.896   2.278   1.213 -0.0567 -0.1332  0.0467
 1978W        W 5497   0.424   6.821  11.054 -0.4138  0.0490  0.1579
 1979W        W 5498   0.874   8.113   1.697  0.0490  0.0401 -0.1738
 1980W        W 5499   7.991   3.330   0.225 -0.1609  0.0376  0.0057
 1981W        W 5500   0.120   7.371   2.375  0.0246  0.3404 -0.0553
 1982W        W 5501   4.794   1.162  12.069  0.0864  0.1526 -0.4757
 1983W        W 5502   2.629   1.077   1.171  0.1086 -0.2079  0.1280
 1984W        W 5503   1.083   1.791   4.847  0.2432 -0.2109 -0.1124
 1985W        W 5504   0.964   1.695  12.377 -0.0039  0.2861  0.1063
 1986W        W 5505   3.488   6.172   2.768  0.0429 -0.4259  0.2224
 1987W        W 5506   3.805   5.242   0.594 -0.0346  0.2323  0.0935
 1988W        W 5507   2.683   7.878   0.830  0.0144 -0.2873  0.1658
 1989W        W 5508   0.089   6.994   4.308  0.1318 -0.1270 -0.0168
 1990W        W 5509   7.782   1.429   0.996  0.0104 -0.3209 -0.0514
 1991W        W 5510   7.085   8.746   9.167 -0.0750  0.1674  0.3927
 1992W        W 5511   7.192   8.348   9.563  0.1136  0.0111  0.1835
 1993W        W 5512   5.348   5.870  11.363 -0.1447  0.0804 -0.1362
 1994W        W 5513   5.937   0.827   0.074  0.1466  0.2853 -0.0690
 1995W        W 5514   0.693   0.970   2.418 -0.0299  0.2713 -0.0985
 1996W        W 5515   6.048   2.868   1.256  0.0714  0.2660 -0.0326
 1997W        W 5516   2.216   8.214   2.094  0.4475 -0.0799  0.1246
 1998W        W 5517   4.221   8.991   8.835  0.1657 -0.1914 -0.1090
 1999W        W 5518   3.203   7.936   2.150  0.0013  0.0950 -0.3198
 2000W        W 5519   9.436   3.006  10.442 -0.1011  0.2774 -0.1631
 2001W        W 5520   5.478   3.964   4.042  0.1457  0.1825  0.1786
 2002W        W 5521   3.092   0.346   1.609  0.0381 -0.1920 -0.3181
 2003W        W 5522   1.630   4.430   2.848 -0.0908 -0.1349 -0.2439
 2004W        W 5523   5.097   5.715   4.396  0.0749  0.1468  0.1515
 2005W        W 5524   0.433   4.787  11.816 -0.0154 -0.1427  0.1167
 2006W        W 5525   2.376   3.178  11.102  0.1167 -0.1717  0.2258
 2007W        W 5526   4.007   6.324   2.452 -0.1111  0.3335 -0.3315
 2008W        W 5527   0.701   9.577   0.271 -0.0957 -0.0765  0.1019
 2009W        W 5528   9.425   0.544  10.946 -0.0041  0.0378  0.1848
 2010W        W 5529   7.431   7.880   3.574 -0.0237 -0.2990  0.0680
 2011W        W 5530   3.109   6.127   9.227 -0.1168  0.1830  0.1786
 2012W        W 5531   1.455   6.369   0.534  0.0857  0.0679  0.4095
 2013W        W 5532   9.544   4.984   3.159  0.0592 -0.1061 -0.1034
 2014W        W 5533   8.081   3.530   3.707 -0.3612  0.0636 -0.0617
 2015W        W 5534   9.039   1.980  10.054  0.0216 -0.0342  0.1364
 2016W        W 5535   4.963   0.473   1.723 -0.2381 -0.2993  0.3465
 2017W        W 5536   1.710   1.433  10.231  0.0198  0.0098  0.0403
 2018W        W 5537   8.132   6.904   8.522 -0.1240 -0.1595  0.2496
 2019W        W 5538   6.424   3.754   3.233 -0.1266 -0.2366  0.0695
 2020W        W 5539   8.149   4.227   0.341  0.0851  0.1159 -0.0763
 2021W        W 5540   2.942   2.766   0.320  0.2059  0.1907 -0.2284
 2022W        W 5541   2.275   1.682  11.326 -0.1319 -0.2325 -0.4503
 2023W        W 5542   1.797   9.098  11.002 -0.0304 -0.4021 -0.1154
 2024W        W 5543   4.317   6.751   4.729 -0.1091 -0.1224  0.0067
 2025W        W 5544   4.216   3.492   9.240 -0.0085 -0.3167 -0.1700
 2026W        W 5545   0.374   0.671   0.381 -0.0830  0.0713 -0.3669
 2027W        W 5546   2.997   9.504   1.684 -0.1539  0.1819  0.0598
 2028W        W 5547   0.459   6.488   1.146 -0.1273  0.2396  0.0699
 2029W        W 5548   0.147   7.565   2.830 -0.4191  0.0335 -0.0018
 2030W        W 5549   6.810   2.009  11.571 -0.3822 -0.0782  0.2957
 2031W        W 5550   0.223   3.762  12.279  0.0400 -0.0960 -0.1650
 2032W        W 5551   4.147   7.916   2.336  0.2161  0.0001 -0.2688
 2033W        W 5552   8.074   4.640   2.738 -0.2414  0.1990 -0.2442
 2034W        W 5553   4.314   8.838   1.325  0.1186 -0.2140 -0.2393
 2035W        W 5554   5.456   2.728   3.579  0.0345  0.3355  0.0446
 2036W        W 5555   6.307   1.609   0.217  0.0669  0.0104  0.1570
 2037W        W 5556   4.978   0.988   2.532  0.2482  0.0169  0.1710
 2038W        W 5557   1.351   3.870   0.707 -0.2578  0.2968 -0.0198
 2039W        W 5558   6.272   1.523   2.283 -0.1644 -0.0307 -0.0485
 2040W        W 5559   0.147   7.538   4.136  0.2736  0.0991  0.2095
 2041W        W 5560   5.543   7.086   8.347 -0.0705 -0.0405 -0.2676
 2042W        W 5561   2.351   3.391   1.812 -0.0697  0.2558 -0.2198
 2043W        W 5562   6.356   7.937  11.933 -0.0056  0.1777  0.0796
 2044W        W 5563   2.499   0.066   3.358 -0.0296  0.0214  0.0213
 2045W        W 5564   8.560   5.422   1.250  0.0112 -0.1132  0.0217
 2046W        W 5565   6.298   8.682   1.001 -0.0222  0.3767 -0.1458
 2047W        W 5566   4.937   6.199   2.819 -0.1126 -0.0485  0.1908
 2048W        W 5567   3.527   0.128   9.821 -0.1940 -0.0549 -0.0097
 2049W        W 5568   4.728   3.526   9.256  0.2045  0.1682 -0.1780
 2050W        W 5569   6.665   4.799   9.653  0.1203  0.0855  0.3796
 2051W        W 5570   7.859   7.138  10.685 -0.1618 -0.0227 -0.0151
 2052W        W 5571   6.653   7.477   0.945  0.1647  0.0381  0.2988
 2053W        W 5572   7.755   8.590   0.167 -0.2552  0.6254 -0.1385
 2054W        W 5573   1.898   5.147   3.661 -0.2024  0.0662 -0.0648
 2055W        W 5574   7.111   2.984  11.363 -0.0603  0.0627 -0.0297
 2056W        W 5575   7.463   0.345  10.910 -0.3656  0.1130 -0.1258
 2057W        W 5576   4.322   7.716   9.744  0.0162 -0.1847  0.0174
 2058W        W 5577   1.168   6.497  10.886 -0.0948 -0.1507  0.1603
 2059W        W 5578   0.902   4.391   0.850  0.2046  0.2724  0.0784
 2060W        W 5579   3.053   0.303  10.891  0.0981  0.0200  0.2275
 2061W        W 5580   1.737   5.497  10.967 -0.4948 -0.1936  0.3246
 2062W        W 5581   7.536   9.710   9.403 -0.3033 -0.2271 -0.1686
 2063W        W 5582   6.617   0.938   2.344 -0.1205  0.1969  0.1973
 2064W        W 5583   5.827   5.242   0.883 -0.2277  0.1951  0.0106
 2065W        W 5584   5.230   6.888   1.877 -0.1257 -0.0553 -0.1112
 2066W        W 5585   2.427   1.912   9.278 -0.0007 -0.3003 -0.0795
 2067W        W 5586   0.946   7.937   2.133 -0.0819  0.1774 -0.3701
 2068W        W 5587   0.972   2.708  10.410  0.0023 -0.0903 -0.1382
 2069W        W 5588   5.845   5.682   1.174 -0.2526 -0.1462 -0.0659
 2070W        W 5589   2.177   1.081   8.951  0.0230  0.1499 -0.1296
 2071W        W 5590   3.282   6.651  12.275 -0.0032  0.0303  0.1263
 2072W        W 5591   2.904   4.193   3.359  0.0693 -0.1080 -0.2636
 2073W        W 5592   6.482   8.063   1.677 -0.0663 -0.0224 -0.1033
 2074W        W 5593   0.131   7.597  11.533 -0.1457  0.2011  0.0526
 2075W        W 5594   8.549   3.127   0.581 -0.1299 -0.1368 -0.2658
 2076W        W 5595   0.881   7.990   0.435 -0.2446  0.1662  0.1498
 2077W        W 5596   1.932   4.131  10.712  0.1573  0.0403  0.1587
 2078W        W 5597   1.859   8.673  10.606 -0.0240 -0.3161 -0.1058
 2079W        W 5598   4.074   3.749  11.088  0.1391  0.2861 -0.0669
 2080W        W 5599   0.801   7.297  10.489 -0.1679 -0.0883 -0.1387
 2081W        W 5600   3.443   9.414   0.327  0.0250  0.3284 -0.0799
 2082W        W 5601   4.260   7.205  12.188 -0.0416 -0.1478 -0.1245
 2083W        W 5602   3.017   2.632   1.296 -0.1751  0.1553 -0.2882
 2084W        W 5603   2.427   6.109   3.022 -0.0857 -0.0827 -0.0645
 2085W        W 5604   6.809   2.965   3.533  0.1822  0.1215  0.1740
 2086W        W 5605   9.182   7.013  11.065  0.0176 -0.0761 -0.0022
 2087W        W 5606   2.889   6.110   2.449 -0.0759  0.2758 -0.1901
 2088W        W 5607   9.515   4.540   0.178  0.3962  0.1106  0.1336
 2089W        W 5608   7.063   6.560   2.905 -0.0862  0.2008 -0.2138
 2090W        W 5609   3.468   6.006  10.717  0.0803 -0.1124  0.2427
 2091W        W 5610   6.195   8.401   0.166  0.2138  0.1523  0.3394
 2092W        W 5611   6.706   0.211   9.042  0.0643  0.1011 -0.1259
 2093W        W 5612   4.862   1.055  10.802 -0.1921  0.2459 -0.2492
 2094W        W 5613   4.777   9.350   0.879  0.0541  0.0022  0.2470
 2095W        W 5614   8.465   0.362  10.340 -0.1516  0.2559 -0.2329
 2096W        W 5615   2.945   3.629   4.005 -0.2928  0.1170  0.1180
 2097W        W 5616   8.589   5.456  10.718  0.2274  0.0446  0.2965
 2098W        W 5617   5.680   7.698   9.968  0.0192  0.0628 -0.1954
 2099W        W 5618   7.312   3.839   1.712 -0.0458 -0.2039  0.0102
 2100W        W 5619   6.527   7.041  11.887  0.2103 -0.0154  0.0437
 2101W        W 5620   5.228   5.085   8.097  0.1059 -0.0704  0.0340
 2102W        W 5621   5.163   0.373   2.289 -0.1214  0.0367 -0.1070
 2103W        W 5622   6.448   3.061   3.182 -0.2986 -0.2191  0.2333
 2104W        W 5623   5.902   0.138   1.327 -0.0196 -0.2301 -0.1996
 2105W        W 5624   6.533   6.777   5.155  0.0454  0.0385 -0.2268
 2106W        W 5625   0.239   6.137  10.442  0.0300  0.0989 -0.0367
 2107W        W 5626   5.259   3.515  10.158  0.0849  0.0358 -0.0042
 2108W        W 5627   6.890   0.201   9.592 -0.1023 -0.0604 -0.3236
 2109W        W 5628   5.738   6.206   0.871 -0.2056 -0.0934  0.3476
 2110W        W 5629   2.130   0.544  11.227 -0.1883  0.2105 -0.0969
 2111W        W 5630   0.398   5.639  11.747 -0.0801 -0.0658 -0.0917
 2112W        W 5631   4.621   4.064   3.460  0.0424 -0.0044  0.0356
 2113W        W 5632   8.815   0.868   0.733  0.3390  0.1562  0.1941
 2114W        W 5633   1.662   3.537  12.441 -0.1979  0.1820 -0.2446
 2115W        W 5634   7.473   1.617   1.355 -0.1120  0.1419 -0.0378
 2116W        W 5635   4.398   6.008  11.753 -0.2695  0.2168 -0.0113
 2117W        W 5636   6.524   8.195  10.853  0.2901  0.2540  0.0280
 2118W        W 5637   3.788   8.125   0.345 -0.0822 -0.1916  0.2930
 2119W        W 5638   3.856   4.239  12.086 -0.1499 -0.2873  0.1755
 2120W        W 5639   5.375   1.655  10.782  0.1915 -0.0644 -0.0670
 2121W        W 5640   6.535   7.722   9.693  0.0000  0.1407 -0.1626
 2122W        W 5641   7.946   6.737   3.414 -0.3843 -0.0526 -0.1131
 2123W        W 5642   5.942   9.320   4.045 -0.0389  0.1052 -0.4161
 2124W        W 5643   2.646   9.123  10.587  0.2154  0.1196 -0.1118
 2125W        W 5644   6.123   5.538  10.998 -0.0153  0.1966  0.1642
 2126W        W 5645   2.186   9.175   8.094  0.2397  0.0425  0.2980
 2127W        W 5646   4.876   2.757   8.741 -0.2931  0.2890 -0.0101
 2128W        W 5647   8.277   5.016  11.388  0.1263  0.0665  0.1985
 2129W        W 5648   7.595   3.102   0.014 -0.1242  0.0866 -0.1504
 2130W        W 5649   6.066   5.617  10.154  0.1804  0.2564 -0.2976
 2131W        W 5650   4.969   3.263  11.794  0.0240  0.1421 -0.0924
 2132W        W 5651   7.948   2.776   8.869  0.4182  0.2624  0.1560
 2133W        W 5652   1.921   1.440  11.667 -0.2489 -0.1189  0.2868
 2134W        W 5653   0.542   9.278  12.189 -0.1007  0.2199  0.1893
 2135W        W 5654   6.999   7.209   2.284  0.0293  0.0602 -0.0079
 2136W        W 5655   6.137   7.661   3.360  0.2483 -0.0364  0.2548
 2137W        W 5656   5.633   3.819   0.008 -0.2270  0.0706 -0.1166
 2138W        W 5657   6.714   0.669  10.400  0.0152  0.1817 -0.2446
 2139W        W 5658   8.399   3.014  11.027 -0.1185 -0.0148  0.0079
 2140W        W 5659   1.179   3.583   1.547  0.0791  0.3512 -0.0999
 2141W        W 5660   2.969   4.790  12.159 -0.0015 -0.2494  0.1882
 2142W        W 5661   5.513   9.567  11.676 -0.0905 -0.2323 -0.1606
 2143W        W 5662   3.097   0.892   2.618  0.0454 -0.0718 -0.0691
 2144W        W 5663   4.111   8.655   9.560  0.0273  0.1849 -0.0548
 2145W        W 5664   4.677   6.631   2.708  0.3354  0.0657 -0.0129
 2146W        W 5665   7.504   2.724  11.230 -0.3287  0.1716  0.2014
 2147W        W 5666   6.679   9.149   2.666  0.0747 -0.1626 -0.2174
 2148W        W 5667   8.194   5.568   0.461  0.0930 -0.3197  0.0311
 2149W        W 5668   3.427   7.736   0.732 -0.4564  0.3437 -0.0291
 2150W        W 5669   5.844   8.143   3.469 -0.2140  0.2681  0.1532
 2151W        W 5670   4.080   5.929   8.018  0.1216  0.3101  0.2017
 2152W        W 5671   6.833   3.422   3.189  0.5092  0.1885 -0.1406
 2153W        W 5672   6.003   9.213  10.501  0.1545 -0.1270  0.1607
 2154W        W 5673   2.681   7.336   3.223 -0.1912 -0.0239 -0.1767
 2155W        W 5674   5.745   2.557   1.764  0.0434 -0.0288  0.0477
 2156W        W 5675   5.919   9.116   3.139 -0.0857 -0.0565  0.0729
 2157W        W 5676   8.667   0.029  10.677  0.2193  0.2629  0.0196
 2158W        W 5677   5.418   8.120  11.979  0.0921 -0.0520 -0.1014
 2159W        W 5678   1.808   6.502  11.437 -0.3411  0.3525 -0.0327
 2160W        W 5679   2.424   4.934  12.102 -0.2376  0.1603  0.1646
 2161W        W 5680   5.530   1.900  11.766 -0.2618 -0.2286 -0.2615
 2162W        W 5681   5.157   2.471  10.956 -0.1109 -0.3088 -0.1688
 2163W        W 5682   2.260   1.208   0.437  0.0576  0.0209 -0.2307
 2164W        W 5683   1.118   0.061   9.965  0.1058  0.0026  0.1141
 2165W        W 5684   6.549   4.461   1.000  0.0473  0.3641 -0.1739
 2166W        W 5685   2.035   6.469   3.214 -0.1978  0.1127 -0.2584
 2167W        W 5686   3.572   6.357   9.235  0.0705  0.1904  0.2379
 2168W        W 5687   5.041   2.103   0.055 -0.0764 -0.1165  0.0069
 2169W        W 5688   1.759   2.576  10.944  0.0130 -0.0703 -0.2263
 2170W        W 5689   3.604   6.083   1.760  0.0774  0.2315 -0.3545
 2171W        W 5690   7.850   5.518   0.093  0.1215 -0.3671  0.0312
 2172W        W 5691   7.743   8.961   0.804 -0.0090  0.0512 -0.4430
 2173W        W 5692   1.566   8.438   9.942  0.1322 -0.2308 -0.1773
 2174W        W 5693   7.283   7.263   9.094 -0.1658 -0.2912  0.1643
 2175W        W 5694   8.331   2.897   3.001  0.1141  0.1113  0.3795
 2176W        W 5695   7.364   6.464   9.114 -0.2302  0.1203 -0.0028
 2177W        W 5696   6.105   1.942   0.547 -0.2317  0.0085 -0.0571
 2178W        W 5697   3.036   4.414   1.826 -0.0519  0.0962  0.0907
 2179W        W 5698   6.520   4.318   2.793  0.1628 -0.0655 -0.1797
 2180W        W 5699   7.685   4.997  12.413  0.1606  0.2784  0.1364
 2181W        W 5700   5.716   2.128   2.040 -0.1606  0.0063 -0.0254
 2182W        W 5701   0.648   3.683   9.574 -0.4871  0.0791 -0.1866
 2183W        W 5702   4.166   8.906  10.110  0.0736  0.1308  0.0244
 2184W        W 5703   4.616   6.111  10.856  0.2875 -0.0857 -0.2002
 2185W        W 5704   1.858   4.234   8.080  0.0097 -0.0693 -0.3861
 2186W        W 5705   8.403   9.370   1.358 -0.0210 -0.1164  0.0595
 2187W        W 5706   7.900   6.803  11.809 -0.1033  0.2808  0.1418
 2188W        W 5707   2.361   5.052   3.414 -0.0171 -0.1426 -0.2432
 2189W        W 5708   6.517   4.346  11.645  0.1845  0.1723 -0.0610
 2190W        W 5709   7.278   1.405  10.571 -0.3302 -0.3690  0.1295
 2191W        W 5710   4.419   0.995   2.015  0.2715 -0.1817  0.2161
 2192W        W 5711   9.048   7.326  12.312 -0.0754 -0.2783 -0.0309
 2193W        W 5712   0.021   3.476   4.136  0.1195 -0.0704 -0.0673
 2194W        W 5713   7.473   6.723  11.530 -0.0675  0.0246  0.1480
 2195W        W 5714   8.383   5.561  10.240 -0.0278 -0.3262 -0.1057
 2196W        W 5715   7.927   6.986   0.551 -0.0483 -0.1404  0.2251
 2197W        W 5716   6.693   3.805   2.810 -0.0215  0.1361 -0.0051
 2198W        W 5717   5.227   2.780   2.329 -0.0040  0.0954 -0.3083
 2199W        W 5718   4.743   2.412  10.376  0.0954  0.3653  0.0623
 2200W        W 5719   2.718   0.187   1.359  0.1535 -0.2683 -0.4238
 2201W        W 5720   9.352   9.691   2.744 -0.1057 -0.0830 -0.2371
 2202W        W 5721   7.881   1.288   2.139 -0.1373 -0.0966 -0.1452
 2203W        W 5722   6.084   1.449  11.743  0.3837  0.1579 -0.1917
 2204W        W 5723   2.378   7.007   1.000  0.1072  0.2113  0.1076
 2205W        W 5724   3.689   5.636  11.290 -0.0552 -0.0146 -0.1424
 2206W        W 5725   5.881   9.602   2.285 -0.0242 -0.0967  0.1352
 2207W        W 5726   1.693   6.064   0.087 -0.0584  0.0690  0.4211
 2208W        W 5727   7.352   7.755   9.403  0.0781 -0.0799 -0.0807
 2209W        W 5728   8.033   7.338   0.131 -0.1452 -0.1565 -0.1691
 2210W        W 5729   8.611   1.835   9.738  0.0785  0.1096 -0.2927
 2211W        W 5730   4.175   8.783  11.745  0.2456  0.1994 -0.1496
 2212W        W 5731   5.147   9.620  11.305  0.0209 -0.2780  0.3301
 2213W        W 5732   0.803   5.970   3.543 -0.2216  0.0276  0.0436
 2214W        W 5733   4.210   8.291   9.850 -0.1257 -0.1087 -0.2132
 2215W        W 5734   0.827   6.163  12.407  0.2275  0.4887  0.3379
 2216W        W 5735   2.561   5.835   3.980 -0.0794 -0.0137  0.1297
 2217W        W 5736   4.699   1.464   3.828  0.0427  0.2735 -0.1372
 2218W        W 5737   4.408   0.227   3.533 -0.1598  0.0317 -0.0792
 2219W        W 5738   9.276   6.984   9.825 -0.1432  0.0535 -0.0152
 2220W        W 5739   8.776   4.564   3.729  0.4554 -0.2593  0.1819
 2221W        W 5740   8.339   2.302   4.173 -0.2261  0.1553  0.4526
 2222W        W 5741   8.142   5.922   8.315  0.5457  0.2850 -0.1071
 2223W        W 5742   4.143   3.135  11.198  0.1530 -0.0060  0.2806
 2224W        W 5743   0.325   2.490   2.476 -0.1692  0.0757 -0.1081
 2225W        W 5744   4.707   7.081   1.929 -0.1679  0.3404 -0.0738
 2226W        W 5745   2.471   0.918   1.642  0.0786  0.1253  0.2084
 2227W        W 5746   5.793   4.806   2.045  0.2510  0.2000  0.0410
 2228W        W 5747   3.800   8.177   3.240 -0.3073 -0.0181 -0.3561
 2229W        W 5748   9.474   5.601   2.429 -0.0750  0.0156  0.0016
 2230W        W 5749   5.246   8.342  12.419  0.0040 -0.1717 -0.1811
 2231W        W 5750   8.211   0.263   2.853  0.0688  0.1732  0.0666
 2232W        W 5751   1.696   0.832   3.988 -0.2646  0.4029  0.0878
 2233W        W 5752   5.901   1.971   8.661  0.2514 -0.1534  0.1008
 2234W        W 5753   8.642   5.995   3.628  0.1544  0.0625 -0.0744
 2235W        W 5754   5.272   7.787   3.036 -0.2963  0.5152  0.1806
 2236W        W 5755   9.282   8.228   0.039 -0.1560  0.1339  0.0224
 2237W        W 5756   8.539   5.241   1.850 -0.0451  0.1806 -0.0206
 2238W        W 5757   0.788   9.708  12.266  0.0175  0.0136 -0.1727
 2239W        W 5758   8.289   1.872   0.475 -0.0980 -0.2070  0.2427
 2240W        W 5759   3.952   4.050   9.002 -0.0105 -0.0665 -0.2053
 2241W        W 5760   9.126   3.931  10.184 -0.0515 -0.2925  0.2549
 2242W        W 5761   3.152   8.822   9.159 -0.0445  0.0223  0.0735
 2243W        W 5762   0.106   5.252  11.420 -0.1050  0.0759  0.1502
 2244W        W 5763   1.910   2.117   1.896  0.2095 -0.1550 -0.0948
 2245W        W 5764   1.398   1.951   9.390  0.0067  0.1839  0.1309
 2246W        W 5765   8.856   7.282   2.029  0.0932  0.3336  0.2297
 2247W        W 5766   2.389   4.896   0.572  0.0550 -0.0988  0.2455
 2248W        W 5767   4.380   9.306   1.784  0.3187 -0.2603  0.1106
 2249W        W 5768   1.797   0.669   2.678  0.0551 -0.0469  0.2005
 2250W        W 5769   1.439   5.588   0.128 -0.0177  0.0202  0.2515
 2251W        W 5770   2.047   0.211   2.629 -0.3262  0.1392 -0.0482
 2252W        W 5771   5.991   6.784   9.704  0.0928 -0.0046  0.4831
 2253W        W 5772   2.780   3.875   5.114 -0.0329  0.1678  0.1925
 2254W        W 5773   8.149   6.949  10.239 -0.0359 -0.0523  0.1030
 2255W        W 5774   8.543   4.878  12.321  0.1169 -0.2784 -0.1525
 2256W        W 5775   3.471   9.698   1.685  0.0508 -0.1468  0.0140
 2257W        W 5776   9.480   6.732   0.845  0.0440  0.3918  0.1106
 2258W        W 5777   5.095   5.989   5.007 -0.0259  0.3330 -0.0816
 2259W        W 5778   5.421   5.758   8.922  0.2359  0.1091  0.0886
 2260W        W 5779   1.938   6.556   9.746 -0.0580  0.1295  0.0452
 2261W        W 5780   2.643   5.036  10.517  0.1667 -0.0656  0.0339
 2262W        W 5781   3.535   4.171   9.987 -0.1249  0.0427  0.0786
 2263W        W 5782   0.352   8.058   9.516 -0.4976 -0.0878 -0.3116
 2264W        W 5783   3.656   0.391   8.949  0.0475  0.0015 -0.1359
 2265W        W 5784   0.071   3.014   2.718 -0.3833 -0.1399 -0.1738
 2266W        W 5785   6.711   3.544   9.580  0.0119 -0.2236  0.1340
 2267W        W 5786   7.633   4.667  11.168  0.3077  0.2027 -0.2133
 2268W        W 5787   5.437   3.580   8.049  0.3041  0.1270  0.0904
 2269W        W 5788   1.569   7.736   2.126  0.1900 -0.3607 -0.1255
 2270W        W 5789   1.217   0.132  11.888 -0.1046  0.1248  0.0656
 2271W        W 5790   5.342   5.229   0.733  0.0982  0.0943  0.0486
 2272W        W 5791   8.624   2.821   9.517  0.0726  0.1325  0.1670
 2273W        W 5792   2.127   6.469   1.798 -0.3117 -0.0372  0.4755
 2274W        W 5793   2.438   2.585   3.060  0.1026 -0.1343  0.2276
 2275W        W 5794   5.001   9.580   2.845  0.2105  0.4596  0.0812
 2276W        W 5795   8.732   8.069   9.918 -0.0562  0.2940  0.3345
 2277W        W 5796   4.016   0.665  10.923 -0.1962  0.4271 -0.0560
 2278W        W 5797   2.341   8.570   0.149 -0.0607 -0.1038 -0.1472
 2279W        W 5798   7.709   6.821   8.807 -0.0992  0.3259 -0.0387
 2280W        W 5799   2.732   0.117   9.261 -0.0004  0.3236 -0.0092
 2281W        W 5800   0.228   4.524   9.859  0.0515 -0.1555  0.0249
 2282W        W 5801   8.697   4.033   0.999  0.4855  0.0024 -0.0191
 2283W        W 5802   7.627   7.617   3.101 -0.1325  0.4185 -0.1279
 2284W        W 5803   4.517   4.813  12.089  0.1399 -0.0079 -0.3083
 2285W        W 5804   2.864   7.095   1.577  0.0248 -0.1520  0.0870
 2286W        W 5805   0.858   2.984  11.245 -0.1442 -0.1727  0.3407
 2287W        W 5806   6.253   3.650  12.074 -0.1212 -0.1423  0.0442
 2288W        W 5807   4.145   9.616  10.598 -0.2486 -0.3431  0.1179
 2289W        W 5808   5.029   6.782   0.346  0.1842 -0.3003  0.2258
 2290W        W 5809   5.385   4.674   3.241  0.1961  0.0511  0.2698
 2291W        W 5810   3.312   0.785   9.073 -0.2095  0.0778 -0.0100
 2292W        W 5811   3.809   0.957   9.879 -0.2519 -0.1239 -0.5856
 2293W        W 5812   4.863   3.934   0.805 -0.0953 -0.0927  0.2731
 2294W        W 5813   7.471   0.187   0.206 -0.1767  0.2703  0.1363
 2295W        W 5814   4.291   2.381   3.075  0.2045  0.1083  0.1986
 2296W        W 5815   6.033   5.036   8.828 -0.1189  0.1654 -0.0734
 2297W        W 5816   2.945   9.237   0.363  0.1498  0.0342 -0.2763
 2298W        W 5817   2.492   2.502   1.234  0.1608 -0.3804 -0.2117
 2299W        W 5818   2.262   0.576   9.381 -0.3428 -0.1541  0.2155
 2300W        W 5819   4.100   5.180   0.143 -0.0574 -0.0258  0.3347
 2301W        W 5820   8.795   3.192  12.125 -0.0097 -0.4085 -0.0045
 2302W        W 5821   6.800   9.133  10.048 -0.2720 -0.1226 -0.1344
 2303W        W 5822   7.161   9.340   1.837 -0.3207 -0.2089 -0.0238
 2304W        W 5823   7.693   3.921   2.185 -0.1570 -0.3575 -0.2489
 2305W        W 5824   6.474   4.693   3.866  0.0095 -0.0841  0.2775
 2306W        W 5825   3.428   2.470   0.607 -0.1219  0.1143 -0.0910
 2307W        W 5826   7.281   8.470  11.909 -0.1162 -0.2098 -0.0124
 2308W        W 5827   7.488   4.510   0.003 -0.1209 -0.1230  0.1077
 2309W        W 5828   2.019   2.486  11.654 -0.0081  0.2310  0.0861
 2310W        W 5829   2.535   0.295   8.808  0.1824  0.0728  0.1681
 2311W        W 5830   3.099   2.777   2.911 -0.1162 -0.1538 -0.2441
 2312W        W 5831   1.174   8.517   9.550  0.0782  0.1411  0.2549
 2313W        W 5832   7.298   6.309   2.555 -0.0758 -0.1880  0.1181
 2314W        W 5833   1.722   2.989   2.924  0.1289  0.0196  0.1839
 2315W        W 5834   8.742   2.317  12.463 -0.3819  0.2582 -0.0063
 2316W        W 5835   7.040   5.536  11.865  0.1067 -0.0806 -0.0033
 2317W        W 5836   8.269   2.577   9.250  0.2029 -0.1049 -0.0559
 2318W        W 5837   7.463   7.094  11.914  0.2365 -0.0425  0.2129
 2319W        W 5838   2.982   1.960   8.469  0.1711 -0.3068 -0.0793
 2320W        W 5839   8.324   0.124   9.772 -0.2781  0.4654  0.4060
 2321W        W 5840   6.618   0.863   1.859 -0.0679  0.1816  0.2590
 2322W        W 5841   6.355   4.342   3.234 -0.1770 -0.0685  0.1879
 2323W        W 5842   3.316   5.075   8.817  0.4940 -0.1387 -0.0126
 2324W        W 5843   8.179   8.790   0.527 -0.2091 -0.0845  0.2177
 2325W        W 5844   5.155   0.568   3.766 -0.0294 -0.0821 -0.0352
 2326W        W 5845   3.113   0.153   4.164 -0.3464  0.2082 -0.0131
 2327W        W 5846   3.949   8.520   1.083  0.0274  0.1633  0.3756
 2328W        W 5847   3.610   9.493  10.671  0.0727 -0.3488  0.2082
 2329W        W 5848   4.423   4.377  11.862 -0.2796  0.0802  0.2457
 2330W        W 5849   1.830   6.129   3.594 -0.0301  0.0424 -0.1257
 2331W        W 5850   4.822   0.298  11.231  0.1279  0.2460  0.0227
 2332W        W 5851   2.558   2.460   1.726 -0.0509  0.1023 -0.0229
 2333W        W 5852   0.243   5.385   4.849 -0.1464  0.1397  0.2612
 2334W        W 5853   2.627   2.646   4.775 -0.0773 -0.0882 -0.0783
 2335W        W 5854   8.646   7.135  10.195  0.1226 -0.2033 -0.0757
 2336W        W 5855   3.835   0.143  10.915 -0.2563 -0.2344 -0.1267
 2337W        W 5856   0.788   9.208   2.684 -0.1946  0.0053 -0.2455
 2338W        W 5857   8.305   7.768   0.331 -0.0948 -0.0803  0.1358
 2339W        W 5858   5.627   7.431  12.283 -0.0267  0.0105 -0.2894
 2340W        W 5859   6.325   1.737   2.895  0.0363  0.3395 -0.2404
 2341W        W 5860   7.890   4.793   1.694 -0.2372 -0.0305  0.2182
 2342W        W 5861   0.848   8.127   3.423 -0.0327  0.2938  0.1234
 2343W        W 5862   3.386   2.084   9.315  0.1457 -0.1249 -0.0533
 2344W        W 5863   5.936   5.274  11.852  0.1248 -0.2537  0.2098
 2345W        W 5864   0.156   1.765  11.901 -0.0231 -0.1955 -0.0397
 2346W        W 5865   7.664   9.441   1.737 -0.2927 -0.0610 -0.2773
 2347W        W 5866   7.438   6.796   3.506 -0.3121  0.1251 -0.0925
 2348W        W 5867   4.816   4.010   9.411 -0.0374  0.2145 -0.2311
 2349W        W 5868   6.459   7.269   8.833 -0.1283 -0.0169  0.2332
 2350W        W 5869   5.895   8.790  10.259 -0.2834 -0.0864  0.1979
 2351W        W 5870   7.414   1.644   2.171  0.2739 -0.0618 -0.0440
 2352W        W 5871   2.312   4.465   4.136  0.1194  0.1173 -0.1400
 2353W        W 5872   9.174   1.293   8.700 -0.0936  0.1801 -0.2372
 2354W        W 5873   6.879   2.191   7.995 -0.1578 -0.1567 -0.0099
 2355W        W 5874   2.670   5.702   3.166 -0.1030  0.0129  0.0576
 2356W        W 5875   6.418   1.425  10.435  0.0993 -0.2613  0.2273
 2357W        W 5876   2.443   8.938   2.875 -0.0814  0.1665 -0.0736
 2358W        W 5877   4.939   9.305   4.043  0.1770  0.0201  0.0706
 2359W        W 5878   6.908   6.234  12.353 -0.2122 -0.4398  0.0076
 2360W        W 5879   3.402   0.208  11.241 -0.0030  0.4104  0.1442
 2361W        W 5880   8.176   1.528   2.665 -0.5014  0.1037 -0.0894
 2362W        W 5881   0.160   7.563   9.313  0.3835 -0.2051 -0.0325
 2363W        W 5882   6.374   8.826   0.450 -0.1628  0.1844 -0.1377
 2364W        W 5883   5.133   3.260   1.922  0.1819 -0.0139 -0.0524
 2365W        W 5884   2.184   9.284   4.559  0.0242  0.2765 -0.0573
 2366W        W 5885   5.191   4.763  12.202  0.0954  0.1383  0.1902
 2367W        W 5886   8.646   5.840  11.775 -0.4623  0.1181  0.0098
 2368W        W 5887   2.833   1.526   2.089 -0.1729  0.1104  0.1554
 2369W        W 5888   1.675   1.355   8.527  0.2301  0.0647 -0.2121
 2370W        W 5889   3.504   7.401  10.355 -0.1828  0.1710  0.0742
 2371W        W 5890   1.552   1.259   0.360  0.0792 -0.0387 -0.2606
 2372W        W 5891   4.606   9.333  10.505  0.1561  0.0606  0.0493
 2373W        W 5892   0.624   6.080   0.841 -0.1372 -0.1290 -0.0621
 2374W        W 5893   0.977   7.399  11.519  0.0345  0.0140 -0.2811
 2375W        W 5894   1.128   0.561   9.963  0.0275 -0.1819 -0.0930
 2376W        W 5895   6.047   7.254  10.837 -0.0371  0.1249  0.5057
 2377W        W 5896   8.655   6.274  10.153  0.1408  0.0421 -0.0702
 2378W        W 5897   9.347   9.316   2.365  0.0358 -0.0995  0.0707
 2379W        W 5898   0.625   5.295   2.499  0.0702 -0.1231 -0.1080
 2380W        W 5899   7.478   8.032  12.071  0.0621  0.0895  0.0088
 2381W        W 5900   3.908   0.020   1.185  0.0134 -0.3156 -0.1085
 2382W        W 5901   4.706   4.028   1.413 -0.0016  0.1657 -0.2203
 2383W        W 5902   5.731   9.153  10.933  0.3151  0.0085 -0.1590
 2384W        W 5903   0.770   2.490   4.140  0.2746 -0.1375  0.0027
 2385W        W 5904   1.265   2.580  11.016 -0.0169 -0.1623  0.2274
 2386W        W 5905   5.988   0.313   4.665 -0.3679  0.0843 -0.0263
 2387W        W 5906   6.645   2.046   0.442 -0.0386  0.2769 -0.1557
 2388W        W 5907   4.481   3.698   1.049  0.1495 -0.0890  0.0461
 2389W        W 5908   2.427   1.616   2.514  0.0611 -0.0367  0.3660
 2390W        W 5909   6.290   1.925   1.462 -0.0394 -0.2203  0.1919
 2391W        W 5910   6.223   4.946  12.139  0.3421 -0.1759 -0.0263
 2392W        W 5911   9.653   7.684   2.022  0.0440 -0.2077  0.2997
 2393W        W 5912   9.051   3.445  10.480  0.0631 -0.0726 -0.2004
 2394W        W 5913   8.568   5.529   4.579  0.2237 -0.0487 -0.1923
 2395W        W 5914   0.760   7.086   1.669  0.2227  0.2235 -0.1329
 2396W        W 5915   7.938   8.991  12.223 -0.0523 -0.2823 -0.1001
 2397W        W 5916   1.003   4.920   1.827  0.0382  0.3342 -0.1108
 2398W        W 5917   0.840   8.521   1.273 -0.0542  0.3020 -0.1087
 2399W        W 5918   9.517   6.421   0.062 -0.0744  0.0978 -0.2355
 2400W        W 5919   6.817   5.288   4.311 -0.0595  0.0967  0.1027
 2401W        W 5920   1.452   5.918   3.385  0.1582 -0.2123  0.4344
 2402W        W 5921   7.062   4.435   1.493  0.0875  0.2573  0.3341
 2403W        W 5922   6.170   4.653  10.057 -0.0742  0.0443  0.0748
 2404W        W 5923   1.697   6.867   9.344  0.0005 -0.0427 -0.2204
 2405W        W 5924   5.281   2.347  10.176  0.0520  0.0451  0.1606
 2406W        W 5925   9.513   5.853   3.443 -0.1109 -0.2029  0.0675
 2407W        W 5926   6.707   4.492   8.162 -0.1687  0.1246  0.0936
 2408W        W 5927   0.456   9.053   3.981  0.1133 -0.2626 -0.0953
 2409W        W 5928   5.239   0.497   1.251 -0.0593  0.1368 -0.1485
 2410W        W 5929   5.798   6.872   3.015  0.0619  0.2134  0.0436
 2411W        W 5930   6.496   6.236   1.494 -0.2280 -0.1034 -0.0631
 2412W        W 5931   6.337   6.429   9.573  0.0753 -0.1340  0.2227
 2413W        W 5932   1.078   2.050   9.698  0.0771  0.4026  0.0468
 2414W        W 5933   2.023   5.914   1.728 -0.0162 -0.2440 -0.1312
 2415W        W 5934   8.161   3.985  11.987  0.2919 -0.2252 -0.1824
 2416W        W 5935   0.509   7.067   8.358 -0.1769  0.0259  0.0166
 2417W        W 5936   0.636   1.139   1.132  0.2758  0.2938  0.0801
 2418W        W 5937   4.760   7.157  12.489 -0.2313 -0.1922 -0.1972
 2419W        W 5938   8.056   6.475  10.441 -0.2501 -0.2585 -0.4125
 2420W        W 5939   3.181   9.072   2.461 -0.0029 -0.2766  0.1634
 2421W        W 5940   4.044   0.787  12.332 -0.3549 -0.3321  0.3701
 2422W        W 5941   6.073   3.859   1.685 -0.1515  0.4294 -0.0043
 2423W        W 5942   6.953   8.284  11.553 -0.1707 -0.0089  0.2499
 2424W        W 5943   0.681   1.756   0.640 -0.0799 -0.0558  0.0023
 2425W        W 5944   8.334   9.513   3.008  0.0390 -0.0750 -0.1465
 2426W        W 5945   8.288   1.972   3.219 -0.2401  0.2105  0.1030
 2427W        W 5946   8.241   9.484   1.892  0.2094  0.1546 -0.4083
 2428W        W 5947   2.409   7.524   9.514  0.3252 -0.1542 -0.1622
 2429W        W 5948   3.880   5.770   0.079  0.2615 -0.0547  0.2312
 2430W        W 5949   2.814   8.825  10.948  0.1512  0.1633  0.3197
 2431W        W 5950   6.641   4.611   2.409  0.2641 -0.2128  0.2028
 2432W        W 5951   2.905   1.954  10.691  0.2122  0.0741  0.0913
 2433W        W 5952   4.492   7.520   3.244  0.1039  0.3410 -0.2917
 2434W        W 5953   6.110   0.984   9.657 -0.1617 -0.3159 -0.1779
 2435W        W 5954   3.906   1.142   3.458 -0.1340 -0.1853  0.3572
 2436W        W 5955   3.992   6.477   1.894 -0.1172  0.3119 -0.2842
 2437W        W 5956   5.065   6.269   0.370  0.1575 -0.0585  0.2280
 2438W        W 5957   6.890   0.037   1.604  0.0769  0.0071 -0.0515
 2439W        W 5958   4.651   3.539   2.065  0.0364  0.0165  0.0768
 2440W        W 5959   3.026   3.652   1.219  0.1020 -0.2554  0.0276
 2441W        W 5960   8.270   2.614   0.685 -0.0712 -0.4132 -0.1653
 2442W        W 5961   1.076   3.748  11.393  0.2419 -0.2470 -0.2518
 2443W        W 5962   2.225   4.758   4.708  0.1954 -0.0204  0.0523
 2444W        W 5963   4.553   0.900  12.410 -0.1926  0.1419  0.0778
 2445W        W 5964   6.532   1.172   3.214  0.0763 -0.0461  0.0778
 2446W        W 5965   6.962   1.376   1.534 -0.0216 -0.1195 -0.2441
 2447W        W 5966   4.415   3.642   0.086 -0.0258  0.0156  0.0033
 2448W        W 5967   3.784   3.684  11.905 -0.4350 -0.1970 -0.0452
 2449W        W 5968   7.183   0.626  10.461  0.1063  0.3138 -0.0976
 2450W        W 5969   5.110   2.140   0.559 -0.0132 -0.4427  0.0625
 2451W        W 5970   3.351   3.111   1.882 -0.2523  0.2054  0.0854
 2452W        W 5971   8.506   6.782   4.083  0.1348 -0.3740  0.3783
 2453W        W 5972   4.003   5.611   1.689 -0.1866  0.0182 -0.1155
 2454W        W 5973   5.431   6.964   0.068  0.2372 -0.0254 -0.1754
 2455W        W 5974   4.451   2.957  10.380 -0.0582 -0.1983  0.1208
 2456W        W 5975   0.697   2.010   8.871  0.2674 -0.0785  0.0076
 2457W        W 5976   4.818   1.317   0.778 -0.1867  0.1064 -0.2828
 2458W        W 5977   1.525   4.283   3.730  0.1218  0.2057 -0.0510
 2459W        W 5978   5.636   5.396  10.552 -0.2034  0.0760  0.0884
 2460W        W 5979   8.382   1.446   0.226  0.0720 -0.2207 -0.1249
 2461W        W 5980   4.016   3.607   9.694  0.0489  0.2189  0.0244
 2462W        W 5981   3.334   1.666   3.365 -0.1538 -0.0029 -0.3027
 2463W        W 5982   7.755   2.740   2.952  0.1184  0.0118  0.2153
 2464W        W 5983   0.049   1.896   3.298 -0.1371  0.3198 -0.0119
 2465W        W 5984   5.301   1.347   2.002 -0.1189 -0.0597 -0.2939
 2466W        W 5985   8.665   1.724   2.790  0.2039  0.0059  0.0350
 2467W        W 5986   5.277   2.771   1.822  0.3204 -0.3394  0.2578
 2468W        W 5987   4.699   7.969   1.209  0.0364 -0.0046 -0.2036
 2469W        W 5988   5.177   4.872   5.024 -0.1195  0.0973 -0.1664
 2470W        W 5989   0.626   8.603   9.131  0.0155 -0.0304  0.2388
 2471W        W 5990   1.237   5.307   9.038 -0.1608 -0.1303  0.0337
 2472W        W 5991   9.416   3.054  11.056  0.0238 -0.0307 -0.4707
 2473W        W 5992   9.603   3.218   9.579 -0.0972 -0.0303 -0.2487
 2474W        W 5993   0.379   4.163   8.166 -0.1311 -0.0216 -0.0089
 2475W        W 5994   2.357   1.337   4.443  0.1003  0.0590  0.1159
 2476W        W 5995   5.800   1.885   1.013  0.0167 -0.1019 -0.0198
 2477W        W 5996   1.739   5.135   9.147  0.2302  0.0822 -0.1827
 2478W        W 5997   2.459   5.170   2.500 -0.0771 -0.1726 -0.1050
 2479W        W 5998   1.420   2.445   9.539  0.2801  0.0078  0.2087
 2480W        W 5999   6.560   2.724   8.641  0.1327 -0.0735  0.0129
 2481W        W 6000   8.319   3.198   2.593  0.1310 -0.0024 -0.0222
 2482W        W 6001   3.387   7.910  12.237 -0.3412 -0.2747 -0.2341
 2483W        W 6002   7.586   6.371  10.537 -0.0134 -0.1227  0.0504
 2484W        W 6003   0.523   1.561  11.006 -0.0998  0.0129 -0.4503
 2485W        W 6004   4.464   0.105  12.044 -0.1899 -0.1869 -0.0552
 2486W        W 6005   4.147   9.547  11.192  0.1725 -0.0677  0.0621
 2487W        W 6006   1.156   2.671   4.878 -0.2710  0.2534 -0.0738
 2488W        W 6007   5.412   2.460   7.869 -0.0497  0.0295  0.0154
 2489W        W 6008   0.952   5.189  10.263  0.0438  0.0019 -0.4727
 2490W        W 6009   7.346   4.708   4.178  0.0115 -0.1274  0.0131
 2491W        W 6010   6.001   5.291   4.172 -0.2387 -0.1491 -0.1246
 2492W        W 6011   3.544   4.186   1.762 -0.0829  0.0256 -0.1836
 2493W        W 6012   8.444   9.043   1.726 -0.2159  0.2376  0.0539
 2494W        W 6013   0.839   2.858   9.110  0.1515  0.3875  0.1055
 2495W        W 6014   4.369   7.262   4.697 -0.0009  0.0411 -0.1267
 2496W        W 6015   7.787   2.822   3.431  0.1989  0.0749  0.1654
 2497W        W 6016   2.955   6.431  11.881 -0.0585  0.4076 -0.1114
 2498W        W 6017   7.861   0.854   1.352  0.0963  0.1310 -0.3481
 2499W        W 6018   3.833   2.891   4.386  0.0267  0.0278  0.1076
 2500W        W 6019   4.634   6.947  12.048  0.1330  0.1193  0.4332
 2501W        W 6020   0.514   7.715  11.242 -0.0031 -0.1581  0.1173
 2502W        W 6021   2.119   0.854   3.124  0.3649 -0.2050  0.3649
 2503W        W 6022   8.476   4.688   1.762  0.0411 -0.0922 -0.1347
 2504W        W 6023   6.099   7.125   9.215  0.5771  0.1822  0.0522
 2505W        W 6024   0.217   0.706   3.997 -0.0615  0.1264  0.0693
 2506W        W 6025   0.389   1.527   2.187  0.2153 -0.2023  0.0217
 2507W        W 6026   9.394   0.909  12.384 -0.1875  0.3179 -0.0809
 2508W        W 6027   9.128   7.883  10.165 -0.0088 -0.1018 -0.1208
 2509W        W 6028   1.019   2.623   2.089  0.3407 -0.0332 -0.0200
 2510W        W 6029   7.882   6.962   8.134  0.2401 -0.1628  0.1329
 2511W        W 6030   0.789   6.027   1.526 -0.0230 -0.0190  0.1273
 2512W        W 6031   9.203   4.671   8.773 -0.1204 -0.0054  0.1011
 2513W        W 6032   6.017   3.113   2.900  0.1262  0.0591 -0.1825
 2514W        W 6033   4.505   0.777  11.046  0.0416 -0.4142  0.0350
 2515W        W 6034   3.531   0.594  10.885  0.0927 -0.1080 -0.0633
 2516W        W 6035   8.009   4.593  12.498  0.2035 -0.1911 -0.1567
 2517W        W 6036   6.100   2.588  12.400  0.3036 -0.1621 -0.2619
 2518W        W 6037   0.787   5.755  10.521  0.0292 -0.3149 -0.0422
 2519W        W 6038   8.226   3.734   1.759 -0.1493 -0.0139 -0.2824
 2520W        W 6039   0.710   6.240   2.141 -0.2853  0.1896 -0.0131
 2521W        W 6040   2.716   1.569  10.432 -0.1155 -0.2168  0.0617
 2522W        W 6041   5.595   1.900  11.210 -0.0194  0.1707 -0.1239
 2523W        W 6042   0.999   3.997   8.182 -0.2221  0.1514 -0.0224
 2524W        W 6043   6.099   2.197   2.794  0.3532 -0.0128 -0.1203
 2525W        W 6044   6.777   3.190   0.749  0.0921 -0.1459  0.0697
 2526W        W 6045   2.114   0.280   3.167 -0.0539 -0.2355 -0.0630
 2527W        W 6046   7.327   2.749   9.673  0.0521  0.1333  0.1302
 2528W        W 6047   3.361   4.744   2.579  0.0718 -0.0702 -0.2645
 2529W        W 6048   7.901   8.207   2.003  0.2343 -0.0625 -0.1720
 2530W        W 6049   3.767   0.997  11.799 -0.5448  0.0677 -0.1001
 2531W        W 6050   8.570   6.212   0.899 -0.1585 -0.0967 -0.0619
 2532W        W 6051   7.404   6.495   8.498  0.0356  0.0375 -0.0070
 2533W        W 6052   8.512   4.983  10.932  0.0861 -0.3996 -0.2767
 2534W        W 6053   1.016   0.846   2.876 -0.2369  0.1099 -0.0690
 2535W        W 6054   0.008   2.581  10.466  0.0834  0.2336 -0.2079
 2536W        W 6055   5.905   6.254  10.868  0.0767 -0.0547 -0.1400
 2537W        W 6056   7.194   5.193   3.443 -0.0905  0.2092 -0.1722
 2538W        W 6057   5.599   1.860   3.651 -0.1649  0.1621 -0.1563
 2539W        W 6058   5.373   5.126   3.408  0.0739  0.0518 -0.1373
 2540W        W 6059   5.625   7.067   9.399 -0.2294 -0.1299  0.0527
 2541W        W 6060   6.668   3.275   4.102  0.3411  0.1304 -0.1084
 2542W        W 6061   5.446   8.367   3.652 -0.1569  0.1646 -0.2698
 2543W        W 6062   9.205   8.587   3.617 -0.0221 -0.3988  0.1995
 2544W        W 6063   8.531   4.444   1.346  0.0255 -0.0170  0.1493
 2545W        W 6064   5.337   8.765   1.429 -0.1140  0.1104  0.1338
 2546W        W 6065   0.389   1.575   1.144 -0.2886 -0.1160  0.1083
 2547W        W 6066   5.474   3.210   8.984 -0.1636  0.1197  0.0986
 2548W        W 6067   2.476   2.923   1.757 -0.3316  0.0976  0.0784
 2549W        W 6068   5.781   7.318  10.379 -0.0106  0.2228  0.0898
 2550W        W 6069   6.684   2.229   1.118  0.0135  0.0564 -0.1293
 2551W        W 6070   3.414   8.120   2.586 -0.0955  0.0886  0.0311
 2552W        W 6071   0.496   3.360   0.753  0.2830  0.3591 -0.3766
 2553W        W 6072   6.870   3.313   2.601  0.1703  0.2403  0.1206
 2554W        W 6073   4.714   1.716  10.019  0.4635 -0.0933 -0.0141
 2555W        W 6074   2.863   3.298  10.523 -0.0362  0.0419 -0.1603
 2556W        W 6075   6.105   4.733   0.169 -0.0668 -0.2725  0.2698
 2557W        W 6076   8.301   4.956   1.335  0.1330  0.0616 -0.0564
 2558W        W 6077   8.365   6.243   1.637 -0.1327 -0.1692 -0.2588
 2559W        W 6078   6.736   6.132  10.437  0.0430  0.0863 -0.0558
 2560W        W 6079   8.519   7.561   2.108  0.0108  0.1869 -0.3572
 2561W        W 6080   7.890   8.381   2.602 -0.0536 -0.2998  0.1826
 2562W        W 6081   9.401   2.384   1.261  0.2366  0.1426 -0.1238
 2563W        W 6082   2.117   8.755   2.005  0.2816 -0.3220  0.0195
 2564W        W 6083   6.241   0.965  10.513 -0.4236 -0.4159  0.3969
 2565W        W 6084   1.684   4.256  12.402 -0.0092  0.2436  0.2902
 2566W        W 6085   1.211   2.773   4.337 -0.2233 -0.0977  0.1211
 2567W        W 6086   7.938   6.837   9.685 -0.0184  0.4004  0.0574
 2568W        W 6087   5.863   4.490   2.907  0.1377 -0.0441  0.0042
 2569W        W 6088   6.822   0.268  11.817 -0.0299 -0.0780 -0.2185
 2570W        W 6089   4.547   3.217  11.572  0.0682  0.0551  0.0090
 2571W        W 6090   4.158   9.643   2.053 -0.0810  0.0622  0.1570
 2572W        W 6091   0.624   6.703   2.940 -0.1199  0.0824  0.1749
 2573W        W 6092   2.098   2.199   0.489  0.2967  0.0050  0.2297
 2574W        W 6093   9.167   7.418  10.099 -0.0847 -0.1612  0.1549
 2575W        W 6094   2.563   4.211   1.724 -0.0970  0.0548  0.2291
 2576W        W 6095   4.907   4.789   4.009 -0.1805 -0.1964  0.0861
 2577W        W 6096   0.504   7.673   3.193  0.0481  0.2355 -0.0012
 2578W        W 6097   3.991   9.035  11.031 -0.0258  0.3230  0.2016
 2579W        W 6098   3.363   9.314   2.088 -0.1846 -0.0875 -0.2509
 2580W        W 6099   4.541   7.091  10.391  0.3372  0.3592 -0.1591
 2581W        W 6100   2.573   2.581   0.046  0.4635 -0.0244  0.0200
 2582W        W 6101   0.606   4.763  10.201  0.0677  0.2592  0.1109
 2583W        W 6102   7.318   6.500  12.023 -0.1655 -0.0647 -0.0834
 2584W        W 6103   2.087   7.154   4.169  0.2065 -0.1365  0.0991
 2585W        W 6104   5.028   8.529   8.526  0.3208  0.0829  0.1248
 2586W        W 6105   3.769   6.936   1.252 -0.2159 -0.1663  0.1628
 2587W        W 6106   9.057   2.582   0.277 -0.1972  0.1805  0.0046
 2588W        W 6107   1.335   4.743   9.112 -0.0280  0.0049 -0.0253
 2589W        W 6108   2.726   5.348   3.930  0.4068 -0.4421  0.1170
 2590W        W 6109   6.439   3.610   1.429  0.0873  0.0521  0.0046
 2591W        W 6110   9.668   3.593   2.068  0.1183 -0.2054  0.4448
 2592W        W 6111   6.621   3.849  11.753 -0.0419  0.0014  0.0968
 2593W        W 6112   4.727   9.148  10.007 -0.2572 -0.2098  0.2381
 2594W        W 6113   1.845   6.050   9.169 -0.3953  0.1536  0.1035
 2595W        W 6114   3.109   4.246   9.454 -0.0738 -0.0610 -0.0908
 2596W        W 6115   1.240   9.368   1.444 -0.1325  0.1001  0.1139
 2597W        W 6116   6.120   5.230   1.868 -0.2075  0.3597  0.1625
 2598W        W 6117   4.768   3.716  10.700  0.1243 -0.0131 -0.0365
 2599W        W 6118   5.933   7.261   2.574 -0.1975 -0.0383 -0.2381
 2600W        W 6119   2.887   6.925  12.127 -0.3120  0.0212  0.2264
 2601W        W 6120   6.524   6.486   0.682  0.2701 -0.1085  0.1796
 2602W        W 6121   8.489   6.039   0.434 -0.1359  0.0036 -0.0424
 2603W        W 6122   7.773   0.586   0.475  0.2160  0.2008 -0.0170
 2604W        W 6123   2.991   8.615  11.793  0.4102  0.1551 -0.0463
 2605W        W 6124   0.168   7.317  11.088 -0.1754  0.3176 -0.0365
 2606W        W 6125   3.661   5.756   3.091  0.1344  0.1673  0.0768
 2607W        W 6126   2.462   5.445   9.414 -0.1728  0.0684 -0.0765
 2608W        W 6127   0.178   9.601  11.155  0.1818 -0.2519  0.1853
 2609W        W 6128   1.356   2.321   2.246 -0.0269 -0.0709  0.0883
 2610W        W 6129   8.075   7.240  11.568  0.0283 -0.0690  0.1040
 2611W        W 6130   5.876   5.203   1.436  0.2214  0.1462  0.2244
 2612W        W 6131   5.734   4.630   1.465 -0.1064 -0.3417 -0.1264
 2613W        W 6132   9.356   3.845  10.674  0.0564 -0.1118  0.0040
 2614W        W 6133   0.350   8.542  11.533  0.3113  0.2995 -0.2068
 2615W        W 6134   5.251   9.322  10.879 -0.0683 -0.2357 -0.0646
 2616W        W 6135   6.554   2.955   2.698 -0.3159  0.1806  0.1586
 2617W        W 6136   4.593   1.320  11.176  0.1886 -0.2258  0.2667
 2618W        W 6137   7.162   9.663  10.946 -0.0304  0.0221  0.1006
 2619W        W 6138   7.165   4.877  10.402  0.0743  0.0705 -0.1689
 2620W        W 6139   5.376   4.759  11.585  0.1835  0.4441 -0.2590
 2621W        W 6140   6.997   9.444  11.814 -0.0893  0.2821 -0.0469
 2622W        W 6141   1.495   5.020   3.052  0.0470 -0.0713  0.0495
 2623W        W 6142   7.362   3.778   2.588 -0.0382 -0.0170  0.1406
 2624W        W 6143   8.371   2.862  10.504 -0.1376 -0.1018 -0.2059
 2625W        W 6144   5.607   5.525  10.025  0.0725  0.4070 -0.0285
 2626W        W 6145   9.661   2.503   0.872  0.3381 -0.0418  0.1692
 2627W        W 6146   8.866   2.131   9.012 -0.0714 -0.0373 -0.1204
 2628W        W 6147   8.243   3.139  12.312  0.1239  0.2781 -0.1340
 2629W        W 6148   7.046   3.502  11.712 -0.0590  0.2606 -0.1600
 2630W        W 6149   6.240   5.263  11.407  0.2590  0.1845  0.0775
 2631W        W 6150   1.982   3.555   9.956 -0.0850  0.2663  0.2873
 2632W        W 6151   7.222   7.047   3.184 -0.1937  0.0102  0.1302
 2633W        W 6152   1.469   0.758  12.519 -0.1153 -0.2391  0.0982
 2634W        W 6153   6.265   7.320   0.344 -0.0783 -0.0128 -0.1669
 2635W        W 6154   5.845   1.289   2.428 -0.0785  0.3477 -0.1986
 2636W        W 6155   5.543   0.948  11.289  0.0895  0.1995 -0.0205
 2637W        W 6156   0.914   7.631   0.878  0.0411  0.1425 -0.2461
 2638W        W 6157   7.955   0.325   9.509 -0.1842 -0.1554  0.0438
 2639W        W 6158   0.223   3.672   8.710  0.1246 -0.0947  0.0872
 2640W        W 6159   4.467   3.988   2.957 -0.2675  0.1468 -0.1622
 2641W        W 6160   1.959   3.827   8.378 -0.0867 -0.3570  0.0785
 2642W        W 6161   4.527   8.466   1.806  0.2730  0.2024  0.2735
 2643W        W 6162   5.343   8.504   9.380  0.0515 -0.0489  0.2910
 2644W        W 6163   9.260   5.367   3.320 -0.3221  0.0035 -0.1449
 2645W        W 6164   4.255   1.949  10.017  0.0052 -0.0078 -0.1092
 2646W        W 6165   8.335   6.022  10.518  0.2752 -0.3432  0.1238
 2647W        W 6166   5.845   6.593  10.221  0.1420 -0.0779  0.2530
 2648W        W 6167   8.539   7.364   3.238  0.0337 -0.0479  0.1402
 2649W        W 6168   7.489   3.911  11.612  0.3125 -0.0273 -0.0173
 2650W        W 6169   5.656   0.136  12.133  0.0327 -0.1090  0.2782
 2651W        W 6170   9.129   9.263   2.878  0.0447 -0.1080 -0.2995
 2652W        W 6171   5.038   1.043   3.483 -0.1900 -0.1545 -0.0180
 2653W        W 6172   9.437   1.290   2.273  0.1642 -0.1629 -0.1320
 2654W        W 6173   7.549   5.058   0.824  0.0696  0.3384  0.2736
 2655W        W 6174   9.413   3.699   8.618 -0.3062  0.2610 -0.2884
 2656W        W 6175   6.060   3.179  10.028 -0.2434 -0.0837 -0.1683
 2657W        W 6176   9.020   3.273   1.527 -0.0639 -0.3189  0.0157
 2658W        W 6177   4.661   8.624  10.004  0.0405 -0.0147  0.0122
 2659W        W 6178   4.849   6.600   4.163  0.2011  0.0162 -0.0305
 2660W        W 6179   6.922   6.803   9.935 -0.1552 -0.0577 -0.3895
 2661W        W 6180   2.852   2.968   9.636 -0.1835 -0.0709  0.1334
 2662W        W 6181   7.983   1.231  10.523  0.2390 -0.1396 -0.2187
 2663W        W 6182   8.646   3.346   1.922 -0.0060 -0.0032  0.1874
 2664W        W 6183   8.346   5.353   9.015  0.0950 -0.4056  0.2215
 2665W        W 6184   1.154   0.505   3.285  0.0320 -0.3003 -0.1430
 2666W        W 6185   9.031   3.103   9.569  0.1817  0.0082  0.2147
 2667W        W 6186   7.281   8.682   8.715  0.0412 -0.1132 -0.0993
 2668W        W 6187   7.775   9.442   0.927 -0.1226 -0.1790  0.0890
 2669W        W 6188   3.904   5.843  10.806 -0.1850  0.4031 -0.3564
 2670W        W 6189   1.648   1.310   1.340 -0.0545  0.6699  0.0128
 2671W        W 6190   2.744   8.780   4.149  0.1336  0.5067  0.1204
 2672W        W 6191   0.263   5.029   3.819  0.2854 -0.0911 -0.2712
 2673W        W 6192   6.786   8.585   1.154 -0.1949  0.0790 -0.0460
 2674W        W 6193   4.812   6.846  11.365  0.2336  0.2167 -0.1883
 2675W        W 6194   3.623   1.978   0.289  0.3762  0.0670  0.0103
 2676W        W 6195   5.700   7.217  11.717 -0.0816  0.2041 -0.2178
 2677W        W 6196   8.374   6.834   3.164 -0.2928 -0.0392 -0.4069
 2678W        W 6197   0.642   6.015  11.492  0.3669  0.0722 -0.1789
 2679W        W 6198   0.930   5.011   9.306  0.0197  0.1361  0.1215
 2680W        W 6199   8.119   5.647  10.658  0.2996  0.1299  0.1237
 2681W        W 6200   6.309   5.931   3.590  0.1929 -0.2668 -0.0321
 2682W        W 6201   2.653   0.855   3.012 -0.1433  0.0876 -0.2791
 2683W        W 6202   6.463   4.435   1.929 -0.1805  0.0486 -0.1527
 2684W        W 6203   6.112   7.947  11.472  0.6301  0.1739  0.1940
 2685W        W 6204   8.497   6.090   9.680  0.1631  0.1619  0.1060
 2686W        W 6205   8.678   1.743   8.768  0.0740  0.0002  0.1766
 2687W        W 6206   5.626   4.138   1.570  0.0692  0.0194 -0.1010
 2688W        W 6207   0.095   1.982  12.506 -0.0467 -0.0675  0.0916
 2689W        W 6208   4.843   8.091   0.086  0.0648  0.0272 -0.1832
 2690W        W 6209   6.169   4.300  11.319 -0.2529  0.0147  0.3742
 2691W        W 6210   7.549   9.273   2.574  0.1819  0.0163 -0.0103
 2692W        W 6211   9.393   3.705   9.705 -0.4726  0.0545 -0.1242
 2693W        W 6212   9.472   6.995   3.460 -0.1785 -0.1008 -0.1357
 2694W        W 6213   0.739   6.571   1.614 -0.0254  0.0985  0.1690
 2695W        W 6214   3.274   9.335   0.813 -0.0623 -0.1910 -0.0044
 2696W        W 6215   4.896   3.350   8.276 -0.2177  0.2385 -0.0494
 2697W        W 6216   3.009   0.502   1.033  0.0816 -0.0115 -0.0090
 2698W        W 6217   9.461   8.173   8.821 -0.0900  0.2124  0.0889
 2699W        W 6218   4.816   8.830   1.268  0.0118 -0.2754  0.0827
 2700W        W 6219   0.118   6.508  11.803  0.1906 -0.3872  0.0106
 2701W        W 6220   1.029   4.608  10.402  0.0137 -0.0834  0.1048
 2702W        W 6221   2.863   0.750   1.446  0.4716 -0.0989  0.0481
 2703W        W 6222   8.618   3.756   3.465 -0.0528 -0.0559 -0.4272
 2704W        W 6223   3.987   8.075  12.365 -0.1677  0.0367 -0.1117
 2705W        W 6224   3.460   5.093  11.704 -0.0248 -0.3209  0.0186
 2706W        W 6225   2.739   3.748  11.616 -0.0762  0.0572  0.1798
 2707W        W 6226   9.323   1.828   1.052 -0.0771  0.1234  0.0291
 2708W        W 6227   9.283   5.690  10.599 -0.0249 -0.1238 -0.0444
 2709W        W 6228   3.611   8.203   1.882  0.4608  0.0085  0.2302
 2710W        W 6229   9.129   4.876   0.231  0.0758  0.2751  0.0153
 2711W        W 6230   3.979   0.399  10.480 -0.3268 -0.2012 -0.3632
 2712W        W 6231   9.561   7.024   2.762 -0.0206  0.0654  0.1028
 2713W        W 6232   3.262   5.097   0.386  0.0419  0.1395 -0.0489
 2714W        W 6233   0.655   2.793   0.566  0.4615 -0.0205  0.2307
 2715W        W 6234   5.012   0.366   0.733 -0.1439 -0.0175  0.2367
 2716W        W 6235   4.074   6.933   2.254  0.0045  0.1637 -0.0316
 2717W        W 6236   3.048   6.496   0.246 -0.1756  0.0020  0.2573
 2718W        W 6237   8.326   8.073   0.985  0.0097 -0.0280 -0.1008
 2719W        W 6238   6.433   1.689  11.251  0.0348 -0.2240 -0.1121
 2720W        W 6239   1.143   2.969   8.752  0.2227 -0.0604  0.3007
 2721W        W 6240   0.478   1.032   3.704  0.0956  0.0833 -0.1846
 2722W        W 6241   8.935   7.874   0.297  0.1221  0.0685  0.0232
 2723W        W 6242   1.792   6.051   0.798 -0.2686  0.0470 -0.2001
 2724W        W 6243   6.512   0.620   9.674 -0.2894  0.5248  0.1240
 2725W        W 6244   4.829   1.578   3.292  0.2632 -0.1104  0.0609
 2726W        W 6245   5.151   8.322   0.382  0.0069  0.1903 -0.1053
 2727W        W 6246   2.353   4.529  11.880  0.1589  0.0689  0.0169
 2728W        W 6247   9.617   7.460  11.984  0.1442  0.0820 -0.1296
 2729W        W 6248   1.763   4.104   0.871  0.1022 -0.1045  0.1126
 2730W        W 6249   1.708   4.576  10.729  0.0598 -0.0782  0.2799
 2731W        W 6250   2.311   3.228  10.285 -0.1879  0.1205  0.0990
 2732W        W 6251   5.188   3.919  10.438  0.1577  0.0751 -0.2281
 2733W        W 6252   1.697   3.001  12.416  0.5125  0.0285 -0.0054
 2734W        W 6253   7.967   5.197   2.032  0.2141 -0.1120  0.0805
 2735W        W 6254   7.442   2.227   9.430 -0.0281  0.0581 -0.2195
 2736W        W 6255   5.891   5.657   0.208 -0.1846 -0.0063  0.0501
 2737W        W 6256   1.162   6.306   1.758  0.1206  0.0976 -0.0842
 2738W        W 6257   0.490   5.087   3.061  0.0145 -0.1137 -0.0144
 2739W        W 6258   3.595   5.963   1.217  0.3529 -0.0685 -0.1491
 2740W        W 6259   0.407   8.431   4.188 -0.0990 -0.1470 -0.2624
 2741W        W 6260   0.708   3.803   3.716 -0.2864 -0.0478 -0.0437
 2742W        W 6261   3.188   1.439   0.652 -0.1883  0.4028 -0.0153
 2743W        W 6262   6.804   6.751  10.389 -0.1119  0.0661 -0.1439
 2744W        W 6263   1.035   5.225   2.760 -0.2957 -0.0011 -0.2216
 2745W        W 6264   3.550   6.215  12.500 -0.2569  0.2508  0.1752
 2746W        W 6265   5.746   0.902   3.589  0.2001 -0.2754  0.2106
 2747W        W 6266   8.831   8.624   9.758 -0.1601  0.0340 -0.3072
 2748W        W 6267   2.928   5.072  10.099  0.2392 -0.2951 -0.0285
 2749W        W 6268   1.973   8.370  11.111 -0.0025  0.1552  0.2040
 2750W        W 6269   4.576   3.091   9.497 -0.2129 -0.1767 -0.0690
 2751W        W 6270   0.034   4.093   4.040 -0.0864  0.1626 -0.0138
 2752W        W 6271   9.560   1.437  10.538 -0.0922 -0.1818 -0.1248
 2753W        W 6272   1.663   5.236   4.130  0.0002 -0.0231  0.1502
 2754W        W 6273   6.536   0.658   0.887  0.1196 -0.1042  0.0929
 2755W        W 6274   2.212   3.004   3.094  0.1796  0.2218 -0.2666
 2756W        W 6275   4.941   7.824   2.582 -0.0795  0.0371  0.4306
 2757W        W 6276   7.023   7.379   8.183 -0.1398 -0.0299 -0.0948
 2758W        W 6277   9.029   2.845  12.355  0.0830  0.1243 -0.1910
 2759W        W 6278   5.866   7.531   2.079  0.0876 -0.2592  0.1824
 2760W        W 6279   9.550   1.869   9.362 -0.1548 -0.0471  0.2557
 2761W        W 6280   1.412   4.157  10.671 -0.0284 -0.1522  0.0688
 2762W        W 6281   6.532   7.316   2.424  0.1710  0.0296  0.1704
 2763W        W 6282   9.019   1.471  11.120  0.2156  0.3193 -0.3820
 2764W        W 6283   5.122   4.565   8.101 -0.1996 -0.1411  0.0390
 2765W        W 6284   9.403   0.816   9.565 -0.0121 -0.0016 -0.1305
 2766W        W 6285   3.407   6.924  11.191 -0.1128 -0.0165  0.3149
 2767W        W 6286   2.156   9.429   2.714  0.0439  0.1119  0.3666
 2768W        W 6287   8.078   5.571   2.770  0.0232  0.1257 -0.0096
 2769W        W 6288   9.167   6.070   3.858 -0.2695 -0.1454  0.0506
 2770W        W 6289   2.927   1.901   3.333 -0.2376 -0.2563 -0.0690
 2771W        W 6290   8.004   3.040   1.783 -0.0578  0.1551  0.2031
 2772W        W 6291   0.750   2.483   0.164  0.2039 -0.3738 -0.2319
 2773W        W 6292   8.019   2.266   0.483  0.2246 -0.2662 -0.0124
 2774W        W 6293   0.523   0.462  12.075  0.2057  0.0000  0.0310
 2775W        W 6294   9.444   6.903  12.022 -0.3254 -0.0123 -0.1419
 2776W        W 6295   0.480   9.581   2.488 -0.0915  0.0578  0.0485
 2777W        W 6296   3.868   4.192   0.735  0.0905  0.0789  0.1672
 2778W        W 6297   5.806   5.801   9.702 -0.0535  0.0357  0.1181
 2779W        W 6298   4.589   7.924   9.273  0.0627 -0.0148 -0.0209
 2780W        W 6299   1.909   4.157   4.087 -0.1213 -0.1904  0.0123
 2781W        W 6300   7.570   6.061   1.679  0.1833 -0.3295 -0.2267
 2782W        W 6301   7.445   4.780   1.864  0.0223  0.3847 -0.1821
 2783W        W 6302   3.711   3.438   9.303 -0.0046  0.1986  0.1013
 2784W        W 6303   6.280   0.583  10.161  0.0818 -0.0560  0.0422
 2785W        W 6304   9.680   0.830  11.261 -0.0298  0.1791 -0.1628
 2786W        W 6305   2.652   1.386   9.060 -0.0890 -0.0909 -0.0262
 2787W        W 6306   9.105   2.055   0.357 -0.2022  0.2672 -0.0365
 2788W        W 6307   3.016   2.265   0.216  0.1084 -0.0490  0.1236
 2789W        W 6308   5.395   1.404   0.134  0.4427  0.0551  0.2043
 2790W        W 6309   2.570   6.476   9.200 -0.3427  0.0748  0.0574
 2791W        W 6310   5.018   6.969   8.748 -0.3919 -0.0946 -0.0391
 2792W        W 6311   6.486   1.658   3.404  0.1334 -0.2482  0.3071
 2793W        W 6312   2.079   4.670  11.080  0.1534  0.0465  0.0870
 2794W        W 6313   6.221   4.473  12.299  0.2041  0.1266  0.1070
 2795W        W 6314   2.810   4.655  11.739 -0.1398  0.2578 -0.1694
 2796W        W 6315   4.724   4.032   0.303  0.0620 -0.0783 -0.1791
 2797W        W 6316   8.981   2.770  11.173  0.0871 -0.1335  0.0605
 2798W        W 6317   8.483   2.538   1.160  0.2950  0.2522  0.2529
 2799W        W 6318   8.928   5.811   1.202 -0.2383  0.0963 -0.0935
 2800W        W 6319   5.928   6.510   3.419  0.1602 -0.0113 -0.0999
 2801W        W 6320   3.698   2.320  10.189 -0.1556 -0.2899 -0.0500
 2802W        W 6321   5.046   6.522   9.959 -0.1179 -0.0256 -0.0969
 2803W        W 6322   4.532   6.266   9.291  0.2877 -0.1849 -0.0192
 2804W        W 6323   7.585   5.994   2.405 -0.3231  0.0720 -0.0048
 2805W        W 6324   6.177   7.672  10.973 -0.0769  0.1466 -0.1238
 2806W        W 6325   8.922   8.443   0.385  0.2240  0.0583 -0.1041
 2807W        W 6326   0.435   3.980   1.720 -0.2472 -0.0495  0.2392
 2808W        W 6327   5.490   6.564   2.203 -0.2775  0.4041 -0.2104
 2809W        W 6328   0.385   7.734   1.675  0.1239  0.1085 -0.0276
 2810W        W 6329   9.590   5.594   3.017  0.1031  0.1267  0.0189
 2811W        W 6330   1.622   8.976   1.670 -0.1647  0.1830 -0.0029
 2812W        W 6331   8.737   3.102  10.192  0.0655  0.2385  0.1695
 2813W        W 6332   4.594   5.094   9.972  0.1191  0.3167  0.0981
 2814W        W 6333   1.466   7.971  10.695  0.2725  0.1177  0.5003
 2815W        W 6334   6.674   1.500  12.491 -0.0929 -0.2343 -0.0060
 2816W        W 6335   7.079   8.361  10.991 -0.1981 -0.1854 -0.1062
 2817W        W 6336   7.634   6.953   9.288 -0.1683  0.2476 -0.0768
 2818W        W 6337   4.970   4.707   3.514  0.0667 -0.1963 -0.2257
 2819W        W 6338   2.758   4.790   3.277  0.1233  0.1702  0.0408
 2820W        W 6339   9.032   4.086  10.973  0.0724  0.1663 -0.1518
 2821W        W 6340   0.337   1.536  10.326  0.1034 -0.3393  0.3072
 2822W        W 6341   8.036   8.515   0.884  0.1975 -0.2399  0.0356
 2823W        W 6342   3.121   7.281   8.353  0.0573 -0.0843  0.0256
 2824W        W 6343   6.874   0.393  10.955  0.2210 -0.1015 -0.0068
 2825W        W 6344   3.969   8.194   2.694  0.0634  0.3738  0.1386
 2826W        W 6345   2.294   0.574   2.785  0.0843  0.3529  0.2090
 2827W        W 6346   5.466   1.875   0.371 -0.2334  0.0969  0.0057
 2828W        W 6347   9.643   8.717   0.936 -0.2962 -0.1979  0.1170
 2829W        W 6348   5.240   6.192   9.508 -0.0943  0.0531  0.3066
 2830W        W 6349   1.965   9.264   1.925  0.0740 -0.2495 -0.0218
 2831W        W 6350   8.124   2.401  11.718  0.0749  0.0988  0.2428
 2832W        W 6351   6.427   2.135   3.176 -0.2239  0.3804  0.0350
 2833W        W 6352   2.647   8.845   8.995  0.0629  0.0497  0.0662
 2834W        W 6353   2.659   4.614   0.969 -0.3600 -0.2199  0.0582
 2835W        W 6354   5.301   3.451   0.715  0.0089  0.2181  0.2654
 2836W        W 6355   4.391   2.578   8.552  0.2263 -0.2995  0.0106
 2837W        W 6356   9.276   7.658   2.584  0.0975 -0.1448 -0.0268
 2838W        W 6357   7.018   2.257  12.012 -0.1663 -0.2046 -0.0394
 2839W        W 6358   5.760   9.273  10.031  0.0738 -0.0158 -0.1236
 2840W        W 6359   2.617   3.785   1.397 -0.1239  0.0424 -0.1907
 2841W        W 6360   8.887   6.342   2.378 -0.2059 -0.2623 -0.2344
 2842W        W 6361   4.049   4.230   3.431 -0.3023  0.2190  0.3021
 2843W        W 6362   9.401   0.248   9.586  0.1187 -0.3613 -0.1568
 2844W        W 6363   4.042   3.736   0.487 -0.0087 -0.0541 -0.1991
 2845W        W 6364   3.567   1.629   1.378 -0.0655 -0.3874 -0.1307
 2846W        W 6365   5.835   7.826   4.515  0.1554  0.0479  0.0725
 2847W        W 6366   6.215   1.526   9.579 -0.3761 -0.0093 -0.0275
 2848W        W 6367   8.587   0.114   1.578  0.1847  0.0029 -0.0604
 2849W        W 6368   5.256   1.981   9.077 -0.0133 -0.0651 -0.0615
 2850W        W 6369   3.793   9.058   0.852  0.1521 -0.0602 -0.1771
 2851W        W 6370   8.060   4.724   0.774  0.0290 -0.2819  0.0027
 2852W        W 6371   5.977   0.675   1.895 -0.4348  0.1305  0.0320
 2853W        W 6372   0.720   2.555  10.871  0.0179  0.0355 -0.1581
 2854W        W 6373   3.000   5.687  10.701  0.2219  0.1313  0.3176
 2855W        W 6374   0.971   8.281  10.013  0.0635  0.0910 -0.0538
 2856W        W 6375   3.381   6.444   0.759 -0.0148  0.0960 -0.0123
 2857W        W 6376   3.153   4.593   3.646  0.1266  0.0018 -0.2336
 2858W        W 6377   2.281   0.799  10.778 -0.2502 -0.2390 -0.2315
 2859W        W 6378   9.238   0.602  11.452 -0.1613  0.1154 -0.0514
 2860W        W 6379   6.026   2.941   0.238  0.0773  0.0868  0.0522
 2861W        W 6380   1.668   9.466   2.950  0.1566  0.1706  0.1335
 2862W        W 6381   8.245   5.206   0.845  0.2670 -0.0447  0.2041
 2863W        W 6382   4.042   5.225  10.728 -0.0527 -0.0165 -0.0580
 2864W        W 6383   8.797   2.701   0.781 -0.1079 -0.0719  0.1453
 2865W        W 6384   7.133   4.400   9.007  0.0898 -0.0971 -0.0864
 2866W        W 6385   7.053   2.194   2.448 -0.0640 -0.4008 -0.1050
 2867W        W 6386   0.251   9.341   2.019  0.0760 -0.2847  0.0458
 2868W        W 6387   5.414   7.020   1.451 -0.1179 -0.0727 -0.1550
 2869W        W 6388   1.462   0.041   0.700 -0.1789  0.0323 -0.2179
 2870W        W 6389   9.645   6.412   2.702 -0.0472 -0.0724 -0.0903
 2871W        W 6390   1.153   7.379   1.996 -0.2712 -0.1296 -0.2031
 2872W        W 6391   5.345   7.424   1.693 -0.0311  0.1507  0.0803
 2873W        W 6392   3.225   9.227   2.970 -0.2714 -0.2279  0.1619
 2874W        W 6393   6.380   7.510  11.701  0.0630  0.0936 -0.1653
 2875W        W 6394   1.570   0.856  10.016  0.3973  0.1717 -0.0253
 2876W        W 6395   9.462   3.232   2.476 -0.0383 -0.1274 -0.1701
 2877W        W 6396   9.151   8.271  11.578 -0.1776 -0.0512 -0.0143
 2878W        W 6397   1.889   3.580   0.413  0.0894 -0.3718 -0.0299
 2879W        W 6398   6.498   1.533   1.743  0.0425 -0.2236  0.1419
 2880W        W 6399   4.890   4.853   9.326 -0.2526 -0.0406 -0.0502
 2881W        W 6400   5.751   5.976  10.466 -0.0116  0.1346  0.1179
 2882W        W 6401   6.072   2.015   3.619  0.0407 -0.2286  0.0878
 2883W        W 6402   5.841   0.574   3.012  0.0782  0.0244  0.0567
 2884W        W 6403   3.712   3.238   9.833 -0.1724  0.1270 -0.2572
 2885W        W 6404   4.898   6.904  10.176 -0.0613  0.0429  0.3898
 2886W        W 6405   2.899   4.509  10.745 -0.1579 -0.1063 -0.2435
 2887W        W 6406   0.609   2.896  11.755  0.1963  0.2255  0.0913
 2888W        W 6407   7.733   0.942   0.802 -0.2511 -0.1665  0.0450
 2889W        W 6408   1.942   1.595   0.260  0.1081 -0.0974 -0.0355
 2890W        W 6409   4.150   1.966   0.362 -0.0842 -0.1089 -0.2300
 2891W        W 6410   4.644   8.063   2.235  0.1435 -0.0588 -0.0625
 2892W        W 6411   3.131   3.946   2.151  0.1443 -0.1260 -0.1852
 2893W        W 6412   5.863   2.048  12.132  0.0439 -0.0349 -0.0594
 2894W        W 6413   4.793   2.398   2.274  0.1065 -0.0451  0.0245
 2895W        W 6414   9.295   2.805   0.634  0.0530  0.0636  0.1963
 2896W        W 6415   3.201   0.113   3.624  0.1404  0.1586  0.1685
 2897W        W 6416   5.169   3.111   0.347  0.0095 -0.1074  0.1962
 2898W        W 6417   2.876   0.755  10.212  0.1998 -0.2206  0.0906
 2899W        W 6418   2.020   3.936   1.383 -0.1585  0.0583 -0.0308
 2900W        W 6419   6.441   5.120  10.925  0.2101 -0.1217 -0.3093
 2901W        W 6420   6.937   7.556   0.598 -0.0022  0.0742  0.2975
 2902W        W 6421   0.352   6.425   2.412  0.0334 -0.2414 -0.0857
 2903W        W 6422   0.065   2.904   3.855  0.1525 -0.0307 -0.4055
 2904W        W 6423   3.824   6.037   5.106  0.1328 -0.0014  0.0119
 2905W        W 6424   1.761   7.201  11.635 -0.0053 -0.0609  0.3903
 2906W        W 6425   1.725   3.671   1.794 -0.1319  0.2571  0.0836
 2907W        W 6426   5.317   6.662   9.234  0.0579  0.0001 -0.0272
 2908W        W 6427   4.341   9.373   0.662  0.2921  0.0357 -0.1695
 2909W        W 6428   6.706   6.789   2.410  0.1435  0.0597  0.0601
 2910W        W 6429   6.577   5.000   0.923 -0.0744 -0.1080  0.2232
 2911W        W 6430   3.213   3.990   3.040 -0.0397 -0.3197 -0.0751
 2912W        W 6431   7.775   6.828   1.207 -0.0903 -0.0171  0.1701
 2913W        W 6432   3.133   4.272   2.639  0.1026 -0.0123  0.3404
 2914W        W 6433   5.164   3.912   9.828 -0.3239  0.2257  0.1056
 2915W        W 6434   1.528   2.660   8.891 -0.2349  0.2822 -0.2407
 2916W        W 6435   4.972   4.460   3.029 -0.1233 -0.1625 -0.1229
 2917W        W 6436   9.602   6.883   9.353  0.0101  0.2955  0.2099
 2918W        W 6437   1.937   7.256   1.208  0.0979  0.0422  0.1296
 2919W        W 6438   7.114   0.961   1.968  0.3803  0.1212  0.0414
 2920W        W 6439   7.294   6.839   2.516 -0.2755  0.0469 -0.1044
 2921W        W 6440   1.334   4.189   9.162 -0.3202 -0.0708 -0.1326
 2922W        W 6441   8.178   0.830   0.351 -0.0107  0.0096 -0.0353
 2923W        W 6442   4.902   8.547  11.179 -0.1103 -0.1659  0.0798
 2924W        W 6443   9.588   0.042   0.736  0.0385 -0.0035 -0.0505
 2925W        W 6444   6.216   7.750   8.733  0.0246  0.1209 -0.1845
 2926W        W 6445   7.074   4.290   1.031  0.2875  0.2754  0.2394
 2927W        W 6446   3.712   4.706   2.951  0.3313  0.1312  0.0063
 2928W        W 6447   1.905   8.760   3.928  0.1159 -0.0135 -0.0064
 2929W        W 6448   8.762   1.710   1.510 -0.0079 -0.0269  0.0036
 2930W        W 6449   8.967   6.294   9.390  0.1921  0.0363 -0.0124
 2931W        W 6450   6.748   1.457   9.894  0.1942 -0.1321  0.4225
 2932W        W 6451   0.968   4.199   3.780 -0.0521 -0.1147 -0.4325
 2933W        W 6452   7.800   3.109   1.017  0.1515 -0.1686 -0.1658
 2934W        W 6453   6.150   9.669  11.370 -0.0281  0.0009 -0.0705
 2935W        W 6454   4.794   4.350   3.833 -0.0662 -0.4323 -0.1269
 2936W        W 6455   4.411   0.117   1.555  0.1588 -0.1913  0.3628
 2937W        W 6456   3.770   7.806  11.058 -0.2746 -0.1681 -0.2079
 2938W        W 6457   3.146   1.420   2.886 -0.0344  0.3010 -0.0897
 2939W        W 6458   2.041   3.270   9.520 -0.2320 -0.1425  0.0909
 2940W        W 6459   8.668   4.815  11.617  0.1217 -0.2465  0.0288
 2941W        W 6460   5.940   3.361   1.554  0.0560  0.0212  0.2382
 2942W        W 6461   8.805   4.937   2.173  0.0923  0.0178  0.0150
 2943W        W 6462   6.003   3.915   2.185  0.0887 -0.1201 -0.1025
 2944W        W 6463   3.581   5.918   8.836 -0.0913 -0.1095  0.0590
 2945W        W 6464   8.787   8.356   2.454  0.2504  0.0533  0.2494
 2946W        W 6465   5.591   2.182   2.849  0.1163 -0.0538  0.2963
 2947W        W 6466   7.683   6.175   8.918 -0.0489 -0.0136  0.0510
 2948W        W 6467   6.520   8.086  12.433 -0.3045  0.0863 -0.2207
 2949W        W 6468   4.623   9.609  11.568  0.1837 -0.2994 -0.1926
 2950W        W 6469   9.672   4.437   3.264  0.0646  0.1254  0.1526
 2951W        W 6470   3.595   4.593  11.206 -0.2285 -0.0620 -0.2174
 2952W        W 6471   5.019   6.757   3.649 -0.2925 -0.0507  0.1352
 2953W        W 6472   2.842   2.361  10.393 -0.3570  0.1170 -0.1232
 2954W        W 6473   9.061   2.155  11.042  0.0298  0.0768 -0.0327
 2955W        W 6474   1.331   8.881   0.653 -0.2354  0.2577  0.1003
 2956W        W 6475   8.432   0.707   2.755 -0.0076  0.0475  0.5119
 2957W        W 6476   1.632   6.375   2.504  0.2246 -0.2456  0.3555
 2958W        W 6477   3.855   2.403   0.281  0.0036  0.1759 -0.3415
 2959W        W 6478   4.871   1.573  10.756 -0.0215  0.0109  0.4018
 2960W        W 6479   8.310   8.187  10.674 -0.0137 -0.1122  0.5063
 2961W        W 6480   4.823   8.289  12.012 -0.1300  0.1502 -0.4662
 2962W        W 6481   9.121   9.074  12.153 -0.0995 -0.2384 -0.0606
 2963W        W 6482   3.619   7.898   4.905  0.4423 -0.0010  0.1475
 2964W        W 6483   3.484   1.238   1.033  0.0883 -0.2752  0.0948
 2965W        W 6484   3.422   1.595  12.360  0.0074  0.2234  0.1146
 2966W        W 6485   1.355   8.132   1.922  0.2005  0.3491  0.0129
 2967W        W 6486   5.991   4.798   2.504  0.1997 -0.3386  0.1035
 2968W        W 6487   5.284   0.787   8.577  0.2326 -0.1906  0.2357
 2969W        W 6488   4.050   5.435   4.341  0.0605  0.0951 -0.2119
 2970W        W 6489   1.456   5.197   8.110 -0.3129 -0.2715  0.1065
 2971W        W 6490   7.203   5.026  12.047  0.0157 -0.2641  0.1246
 2972W        W 6491   5.207   2.767  11.499  0.2712 -0.1695  0.1567
 2973W        W 6492   5.558   6.482   1.261  0.0868  0.1465  0.0038
 2974W        W 6493   9.222   3.701   2.245  0.3135 -0.1490  0.0252
 2975W        W 6494   4.876   0.016   1.420  0.1331 -0.0602 -0.1149
 2976W        W 6495   2.004   0.850  10.380 -0.3749 -0.2365  0.3214
 2977W        W 6496   4.665   2.275   9.875 -0.0598  0.1180 -0.0891
 2978W        W 6497   0.869   2.858  12.197 -0.0682  0.3007  0.0754
 2979W        W 6498   7.361   4.338   3.425 -0.1843  0.0637  0.0249
 2980W        W 6499   1.723   6.399  12.183  0.1556 -0.1018  0.2927
 2981W        W 6500   2.494   8.382   3.537 -0.0249  0.2852  0.1848
 2982W        W 6501   4.319   9.516   9.611  0.0072 -0.0433  0.1920
 2983W        W 6502   5.811   0.622   1.133 -0.0430 -0.3057  0.0715
 2984W        W 6503   4.945   5.181   2.556 -0.2811  0.3852 -0.1773
 2985W        W 6504   7.268   5.009   9.174 -0.1680  0.2495 -0.0800
 2986W        W 6505   2.241   0.377   1.676 -0.0168  0.0061 -0.0301
 2987W        W 6506   2.780   7.428   3.775  0.0416 -0.0070  0.0983
 2988W        W 6507   5.750   7.838   8.705 -0.0574 -0.1553  0.0807
 2989W        W 6508   0.031   5.102   1.350  0.1461  0.1557  0.1268
 2990W        W 6509   2.551   5.954  10.604  0.0018 -0.2877  0.1495
 2991W        W 6510   0.883   3.673   1.968 -0.2324 -0.2303 -0.0278
 2992W        W 6511   3.625   1.728  11.181  0.1629 -0.1489 -0.1193
 2993W        W 6512   2.503   2.689  11.927 -0.0756  0.0737 -0.1015
 2994W        W 6513   0.546   2.441   1.369 -0.0808  0.1428  0.1034
 2995W        W 6514   3.338   2.084  12.394  0.1419 -0.4085 -0.3319
 2996W        W 6515   0.941   1.738   1.123  0.2430 -0.1812 -0.2004
 2997W        W 6516   4.922   9.068  11.290  0.1367 -0.1590  0.2756
 2998W        W 6517   1.386   2.413   1.703 -0.1060 -0.0321 -0.2279
 2999W        W 6518   4.296   6.969  11.306 -0.1058 -0.2697  0.0212
 3000W        W 6519   7.359   7.242   1.226  0.1568  0.4552  0.1645
 3001W        W 6520   5.216   3.694  11.655  0.1113 -0.3667 -0.1669
 3002W        W 6521   9.537   9.070  11.298 -0.2282 -0.1472 -0.1053
 3003W        W 6522   6.338   3.001   3.781  0.1311  0.1487 -0.0071
 3004W        W 6523   5.938   1.957   9.475 -0.3152 -0.3856  0.2076
 3005W        W 6524   9.227   6.010  12.482  0.0938  0.0471  0.0383
 3006W        W 6525   1.614   5.645   1.959  0.3709 -0.0057 -0.0800
 3007W        W 6526   6.968   6.266   8.798  0.1046  0.1084  0.0081
 3008W        W 6527   9.317   0.896   0.778  0.2334  0.2063 -0.1014
 3009W        W 6528   5.194   7.724   9.063  0.3889  0.0294 -0.6009
 3010W        W 6529   9.242   1.897   1.569 -0.0608  0.0405 -0.0088
 3011W        W 6530   1.053   6.955  12.378  0.1336 -0.1931  0.3839
 3012W        W 6531   5.871   7.564  11.423  0.0241  0.0245  0.4220
 3013W        W 6532   7.792   4.108  12.422  0.0604  0.0357 -0.0397
 3014W        W 6533   5.688   9.668  10.683  0.2971  0.2758 -0.0820
 3015W        W 6534   1.822   2.377   9.224 -0.0389 -0.2980 -0.1931
 3016W        W 6535   3.147   7.752   8.696 -0.0191  0.0416 -0.0983
 3017W        W 6536   9.124   2.435   2.249 -0.0022  0.1501  0.1341
 3018W        W 6537   2.897   5.783   1.264 -0.0380  0.0252  0.2330
 3019W        W 6538   4.583   9.283   8.596  0.0770 -0.2104  0.2039
 3020W        W 6539   2.432   7.247   9.968 -0.0771 -0.2643  0.1092
 3021W        W 6540   5.724   1.258   9.155 -0.1004 -0.0628  0.4537
 3022W        W 6541   2.734   1.387   3.118 -0.1729 -0.0894 -0.1528
 3023W        W 6542   2.430   0.536  10.417  0.3126 -0.1573  0.1168
 3024W        W 6543   1.415   7.621  11.355  0.2343 -0.1193  0.0313
 3025W        W 6544   0.441   9.100  11.104 -0.1390 -0.1695 -0.2629
 3026W        W 6545   7.886   1.325   1.608 -0.1615  0.1550  0.1884
 3027W        W 6546   3.605   0.404   1.291  0.2295  0.2360 -0.2509
 3028W        W 6547   3.824   7.052   1.822 -0.0365  0.0018 -0.0994
 3029W        W 6548   0.803   2.515   9.555  0.0009 -0.0663  0.1277
 3030W        W 6549   6.732   0.433   3.126 -0.1277 -0.1206  0.0445
 3031W        W 6550   9.385   7.441   3.121 -0.3106  0.1284  0.1873
 3032W        W 6551   2.830   5.760   3.605 -0.1385 -0.0320  0.3327
 3033W        W 6552   0.182   6.569   9.951 -0.2293 -0.0523 -0.2932
 3034W        W 6553   5.924   8.529   3.117 -0.0061 -0.0771 -0.0155
 3035W        W 6554   3.594   4.757  12.063 -0.0278  0.1621 -0.2968
 3036W        W 6555   4.002   1.484  11.980  0.2364  0.2251  0.1897
 3037W        W 6556   8.734   7.263   2.486  0.5410 -0.1836 -0.1946
 3038W        W 6557   3.598   4.517   3.423  0.0266  0.0459  0.1229
 3039W        W 6558   5.648   5.721  10.970  0.1817 -0.1236  0.1697
 3040W        W 6559   1.725   9.642   9.215  0.2311  0.0331 -0.0876
 3041W        W 6560   1.351   4.371   1.041  0.1706 -0.2407  0.0837
 3042W        W 6561   7.078   0.783   8.980 -0.0430  0.2347  0.0338
 3043W        W 6562   1.743   7.741   3.762  0.2985  0.0355  0.2809
 3044W        W 6563   6.208   8.372   2.674  0.1347 -0.1385  0.0322
 3045W        W 6564   4.441   5.457  10.459 -0.1849  0.1695 -0.0954
 3046W        W 6565   1.831   4.684   8.963 -0.0998  0.1028  0.1028
 3047W        W 6566   7.235   6.066   3.975  0.2250 -0.1867 -0.3092
 3048W        W 6567   7.507   9.334  11.789  0.3579  0.1782  0.0736
 3049W        W 6568   8.610   5.327   2.729  0.1679 -0.0788 -0.1790
 3050W        W 6569   2.915   0.778  12.443  0.0099 -0.0053 -0.0311
 3051W        W 6570   7.481   5.161  11.138  0.0581 -0.1824  0.0206
 3052W        W 6571   7.484   7.868   1.329 -0.0322  0.5084  0.0197
 3053W        W 6572   3.909   2.313   2.035  0.0079 -0.0555 -0.0817
 3054W        W 6573   3.731   3.944   9.482  0.2928 -0.0661 -0.1881
 3055W        W 6574   2.998   8.665   1.497 -0.1348 -0.3620  0.0142
 3056W        W 6575   5.659   7.970   1.052  0.0788  0.1197 -0.0617
 3057W        W 6576   8.111   1.759  10.380 -0.2028 -0.0485  0.1971
 3058W        W 6577   7.142   3.313   0.397 -0.0528  0.1187  0.1354
 3059W        W 6578   4.256   1.030  10.715 -0.2561  0.3401  0.2565
 3060W        W 6579   1.654   4.745   3.960 -0.0115  0.2022 -0.3968
 3061W        W 6580   7.836   5.287  11.477  0.1153 -0.0314 -0.5636
 3062W        W 6581   6.278   0.912  11.806 -0.0503 -0.1723  0.3069
 3063W        W 6582   2.725   2.807  11.273 -0.0234 -0.0097 -0.2236
 3064W        W 6583   8.174   7.455   2.933  0.3810  0.3619  0.0484
 3065W        W 6584   1.004   6.139   2.566  0.0969 -0.2245  0.2064
 3066W        W 6585   4.115   6.902   0.876  0.0973 -0.3297  0.0031
 3067W        W 6586   3.490   7.906  10.553  0.0951 -0.0077 -0.1993
 3068W        W 6587   8.894   6.871   3.251 -0.1130  0.0736  0.0302
 3069W        W 6588   4.668   8.662  11.641 -0.1571 -0.1098  0.0021
 3070W        W 6589   6.568   8.134   3.472 -0.1197  0.0045  0.1703
 3071W        W 6590   7.367   4.107   3.009 -0.1928  0.2235 -0.1016
 3072W        W 6591   4.425   6.834   9.514  0.4477  0.0585  0.2493
 3073W        W 6592   4.932   5.326  10.211 -0.3986 -0.0408 -0.3737
 3074W        W 6593   8.978   3.742   1.819 -0.2893  0.3141  0.0663
 3075W        W 6594   4.528   3.842  11.307 -0.2875  0.0982  0.3074
 3076W        W 6595   3.092   3.407   2.191  0.1755 -0.0993  0.0088
 3077W        W 6596   4.176   9.060  10.569 -0.1611 -0.0098  0.1414
 3078W        W 6597   1.919   7.142   2.925  0.1408 -0.0506  0.3524
 3079W        W 6598   0.703   2.754   9.945 -0.1490  0.3005 -0.1404
 3080W        W 6599   1.686   9.632  10.016  0.0621  0.3116  0.0897
 3081W        W 6600   8.684   5.310   3.225  0.1746 -0.0972 -0.1294
 3082W        W 6601   7.561   8.723   9.594  0.0657 -0.1767  0.1905
 3083W        W 6602   4.264   4.087   1.186 -0.0249  0.4168  0.2261
 3084W        W 6603   8.851   5.234   0.006  0.1329  0.5053 -0.2335
 3085W        W 6604   1.214   5.650  10.246 -0.0529 -0.0731 -0.1425
 3086W        W 6605   4.819   4.004   8.892 -0.2119 -0.0511 -0.4352
 3087W        W 6606   2.118   3.318   4.756 -0.0581  0.0645  0.0444
 3088W        W 6607   4.925   1.729   2.807 -0.0412  0.1951 -0.1286
 3089W        W 6608   1.284   5.610   9.722  0.3328  0.0631 -0.1300
 3090W        W 6609   6.065   6.707   3.907  0.2012 -0.1339  0.3038
 3091W        W 6610   5.685   3.916  10.619 -0.2168  0.3469  0.0240
 3092W        W 6611   8.880   6.717   9.710  0.2305 -0.2261  0.1321
 3093W        W 6612   1.820   2.108   9.702  0.0717  0.1307  0.0290
 3094W        W 6613   6.914   3.780   9.131  0.0905 -0.2975  0.0922
 3095W        W 6614   5.650   6.667   1.715  0.2964 -0.0613 -0.0498
 3096W        W 6615   6.932   3.775   2.274  0.1348  0.1214  0.2617
 3097W        W 6616   0.818   6.013   9.052 -0.0141  0.3650 -0.0435
 3098W        W 6617   3.803   5.485  11.741 -0.1503  0.2276  0.2153
 3099W        W 6618   0.383   4.670   8.759 -0.2328 -0.2113  0.0270
 3100W        W 6619   8.349   4.259  10.092  0.0930  0.1663 -0.1200
 3101W        W 6620   1.374   2.059  12.290  0.0961  0.0881  0.0243
 3102W        W 6621   4.181   9.421  10.099 -0.0738  0.1295  0.1302
 3103W        W 6622   2.614   7.289  10.679  0.2413 -0.1231 -0.1126
 3104W        W 6623   1.971   8.381   0.505  0.0786 -0.2129  0.0117
 3105W        W 6624   6.884   0.941  12.424 -0.1174 -0.1473  0.0181
 3106W        W 6625   0.045   1.370  11.071 -0.0049  0.1439  0.0116
 3107W        W 6626   6.152   5.435   3.569 -0.0304 -0.1773  0.3108
 3108W        W 6627   2.776   5.684  11.940 -0.2313 -0.2942 -0.2006
 3109W        W 6628   3.499   8.506   9.342 -0.0919  0.0990 -0.2810
 3110W        W 6629   3.820   2.793   0.664 -0.0587  0.0200 -0.2580
 3111W        W 6630   1.330   7.274   0.717  0.2121  0.0690 -0.0206
 3112W        W 6631   4.313   1.560   8.726  0.1578  0.0299  0.2783
 3113W        W 6632   8.751   8.453  10.738  0.1082 -0.2372  0.1827
 3114W        W 6633   1.193   7.578  10.439 -0.1082  0.0585 -0.1015
 3115W        W 6634   0.111   6.653   8.977 -0.0418  0.2237  0.0567
 3116W        W 6635   8.214   4.001   9.551 -0.2848 -0.0959  0.0204
 3117W        W 6636   9.259   4.316   2.511  0.1137 -0.2166  0.0936
 3118W        W 6637   4.619   3.241  12.125 -0.1304 -0.1285 -0.1363
 3119W        W 6638   4.120   5.741  12.100 -0.3079 -0.0817 -0.0583
 3120W        W 6639   2.083   3.200   4.236 -0.1921 -0.3879  0.0441
 3121W        W 6640   3.606   9.253   2.650 -0.0448  0.0129 -0.2577
 3122W        W 6641   8.475   9.220  10.447  0.1119  0.1109  0.1793
 3123W        W 6642   6.439   4.333  10.350  0.1386 -0.0660  0.1026
 3124W        W 6643   5.252   1.806   1.870 -0.0147 -0.1259  0.1620
 3125W        W 6644   8.624   4.115   1.754 -0.1393 -0.0421 -0.4182
 3126W        W 6645   8.731   5.922  12.303  0.0159  0.1888 -0.0388
 3127W        W 6646   6.082   5.830   2.066 -0.1424 -0.1901 -0.0178
 3128W        W 6647   5.319   1.187   0.648  0.0263  0.1126 -0.0687
 3129W        W 6648   7.750   6.250  11.908 -0.1270  0.3016 -0.1061
 3130W        W 6649   1.333   7.450  12.434  0.0076 -0.0054 -0.0976
 3131W        W 6650   2.466   3.539  10.722  0.0158  0.1756 -0.0158
 3132W        W 6651   3.149   3.746   3.486  0.0491  0.0051 -0.0240
 3133W        W 6652   5.393   4.131   9.397 -0.0822  0.1645 -0.0475
 3134W        W 6653   2.683   8.226  11.822  0.1885 -0.3835  0.2158
 3135W        W 6654   8.163   4.568  11.192 -0.1157 -0.0076 -0.0492
 3136W        W 6655   1.068   8.218   4.270  0.0844 -0.2480 -0.0907
 3137W        W 6656   9.379   3.880  11.257 -0.0618 -0.2935 -0.3627
 3138W        W 6657   0.198   0.312   9.806  0.0361 -0.0476  0.0842
 3139W        W 6658   8.315   1.608   0.932 -0.0352  0.1756  0.0350
 3140W        W 6659   7.395   0.451  12.344 -0.2332 -0.0765  0.3925
 3141W        W 6660   8.060   9.151  11.704 -0.3275  0.2989 -0.2954
 3142W        W 6661   5.277   2.335   2.117  0.1193  0.0770 -0.1147
 3143W        W 6662   8.520   1.629   1.957 -0.0046  0.0192  0.1210
 3144W        W 6663   3.607   5.442   2.150 -0.0914  0.0725 -0.0401
 3145W        W 6664   2.003   8.811  11.482  0.0642  0.5940  0.2654
 3146W        W 6665   3.261   8.677   4.165  0.1872  0.2035  0.1475
 3147W        W 6666   5.208   9.591  12.502 -0.1159  0.2520 -0.2200
 3148W        W 6667   6.973   0.136  11.384 -0.0372 -0.0450 -0.0139
 3149W        W 6668   6.358   8.410  10.409 -0.0216 -0.0150  0.1432
 3150W        W 6669   1.926   2.580   0.185  0.0476  0.0490 -0.0202
 3151W        W 6670   1.394   1.902  11.418  0.0890  0.1194 -0.0389
 3152W        W 6671   5.486   9.145  10.461  0.2431 -0.1672 -0.0779
 3153W        W 6672   3.185   4.702   0.094 -0.0794  0.1187 -0.0049
 3154W        W 6673   3.457   2.532   4.693  0.1413  0.2470 -0.3918
 3155W        W 6674   1.843   8.083   2.479 -0.3639 -0.3296 -0.2978
 3156W        W 6675   1.281   0.645   2.533 -0.0839  0.0487 -0.1700
 3157W        W 6676   3.302   5.462  11.046  0.1426  0.0610  0.0863
 3158W        W 6677   2.486   2.603   0.604 -0.2111  0.2960 -0.0854
 3159W        W 6678   9.209   0.169  10.616 -0.1536  0.4013  0.3228
 3160W        W 6679   7.313   4.699   2.448 -0.0708  0.0875  0.0798
 3161W        W 6680   6.122   4.727  11.624 -0.1941  0.1790  0.0439
 3162W        W 6681   0.572   5.929  10.952  0.1618  0.1407  0.1335
 3163W        W 6682   6.098   9.612   0.507  0.2261  0.0506  0.1547
 3164W        W 6683   1.184   6.683   0.812  0.0469 -0.2649 -0.1605
 3165W        W 6684   0.076   8.929   0.444 -0.1209 -0.0347  0.2996
 3166W        W 6685   8.047   9.697   1.506  0.0596  0.0593 -0.1569
 3167W        W 6686   5.182   3.437  10.817  0.0246  0.1101 -0.0039
 3168W        W 6687   9.520   0.933   2.792 -0.0251 -0.2058 -0.3196
 3169W        W 6688   0.402   8.390   3.319 -0.3297  0.2499  0.4401
 3170W        W 6689   5.363   7.376   8.695  0.2734 -0.0501 -0.0657
 3171W        W 6690   3.485   8.088   7.921 -0.2588  0.3754  0.0287
 3172W        W 6691   2.553   6.174  12.034  0.3982  0.0687 -0.4604
 3173W        W 6692   7.498   7.194   2.169 -0.1057 -0.2276 -0.3491
 3174W        W 6693   5.477   8.744   3.081  0.0875 -0.1247 -0.2042
 3175W        W 6694   0.423   3.885   2.800 -0.2644 -0.0602 -0.4345
 3176W        W 6695   1.294   4.441   4.131 -0.1292  0.0811 -0.1265
 3177W        W 6696   9.104   5.097   1.765  0.0525  0.1994  0.1560
 3178W        W 6697   7.258   2.820   0.703 -0.2049  0.0410 -0.1006
 3179W        W 6698   3.265   2.993   9.131 -0.0772  0.4331 -0.0067
 3180W        W 6699   7.876   0.177   1.960  0.0970 -0.0377 -0.2040
 3181W        W 6700   4.912   6.514   8.940 -0.1583  0.0964 -0.0443
 3182W        W 6701   2.998   0.516   8.824 -0.2200 -0.0438  0.4053
 3183W        W 6702   9.604   8.669  11.706 -0.1676  0.1779 -0.0994
 3184W        W 6703   3.319   0.302   3.153 -0.4927  0.2184 -0.0837
 3185W        W 6704   8.186   4.050  10.526  0.0305  0.0100 -0.2592
 3186W        W 6705   4.711   0.561  12.079  0.0393 -0.0095  0.1905
 3187W        W 6706   9.479   3.862   0.992 -0.2240 -0.0734 -0.0650
 3188W        W 6707   9.522   8.808  12.239 -0.1200 -0.2525  0.0132
 3189W        W 6708   2.720   2.428   9.875 -0.0977  0.2105  0.1780
 3190W        W 6709   8.297   3.997  12.428  0.4468  0.0811  0.0130
 3191W        W 6710   4.536   3.134   1.172 -0.0455  0.0378  0.1356
 3192W        W 6711   1.917   2.909   5.203 -0.0335 -0.0172  0.2429
 3193W        W 6712   0.490   5.754   7.844 -0.2578  0.1094 -0.0999
 3194W        W 6713   2.553   0.019   2.882 -0.2076  0.1365 -0.0721
 3195W        W 6714   8.387   2.674  10.047  0.0572  0.1253  0.1531
 3196W        W 6715   3.582   8.843   1.265 -0.0830 -0.0032  0.4052
 3197W        W 6716   9.006   4.570  12.433 -0.2777  0.3243  0.0450
 3198W        W 6717   6.198   9.486   0.029 -0.1209 -0.0339 -0.3388
 3199W        W 6718   4.926   2.872  12.414 -0.1306  0.0918 -0.0838
 3200W        W 6719   9.646   4.079   2.219 -0.2317 -0.2827 -0.1795
 3201W        W 6720   3.382   6.932   1.533 -0.3341 -0.1128 -0.0100
 3202W        W 6721   7.955   2.790   1.332  0.0916 -0.3136  0.2348
 3203W        W 6722   4.952   7.197  11.723 -0.1392 -0.6792  0.3993
 3204W        W 6723   1.286   0.162  10.732 -0.1359  0.2796  0.1303
 3205W        W 6724   1.620   1.826   2.163 -0.1839  0.1048  0.2297
 3206W        W 6725   7.520   0.868  10.810 -0.2040 -0.0737  0.1566
 3207W        W 6726   7.442   8.908  12.389 -0.3325 -0.0528 -0.1990
 3208W        W 6727   3.636   6.690   2.464  0.0367  0.0389 -0.0931
 3209W        W 6728   7.642   8.019  10.371 -0.2994  0.0969 -0.1226
 3210W        W 6729   6.902   1.313   3.502 -0.0284  0.0236  0.2094
 3211W        W 6730   5.035   1.968   3.664  0.0663 -0.3174 -0.0964
 3212W        W 6731   4.229   5.560   0.545 -0.1485  0.0279 -0.1771
 3213W        W 6732   0.417   2.694   0.960  0.1907 -0.1929 -0.2390
 3214W        W 6733   8.260   8.699   9.641  0.1472  0.1825  0.0777
 3215W        W 6734   5.276   3.558   3.258 -0.0736  0.1483 -0.0745
 3216W        W 6735   2.479   8.657   1.415 -0.0285  0.0266  0.1906
 3217W        W 6736   4.899   5.370  10.706  0.1151  0.1750 -0.0988
 3218W        W 6737   9.333   1.013  10.317  0.2373 -0.0090  0.1444
 3219W        W 6738   7.615   5.229   1.643 -0.1572 -0.0906 -0.0519
 3220W        W 6739   0.485   2.177  11.771 -0.2009  0.0379  0.2911
 3221W        W 6740   9.500   3.635   3.127  0.2132 -0.4466  0.1473
 3222W        W 6741   0.921   1.542   3.007  0.4009  0.1650 -0.1990
 3223W        W 6742   4.087   7.678  11.952 -0.1925  0.2287  0.0265
 3224W        W 6743   2.434   4.232   1.203 -0.1425 -0.0532  0.1129
 3225W        W 6744   3.877   7.560  10.668  0.0843  0.4065 -0.0983
 3226W        W 6745   4.403   1.966   1.717 -0.0582 -0.2984 -0.1582
 3227W        W 6746   7.768   4.461   2.053 -0.3350 -0.1362 -0.0049
 3228W        W 6747   7.649   1.625  10.801 -0.1136  0.1321  0.2911
 3229W        W 6748   0.565   4.902  12.269  0.0433 -0.2398 -0.0135
 3230W        W 6749   0.837   6.691   2.358 -0.1847 -0.2098  0.0569
 3231W        W 6750   3.815   2.815   3.800  0.6222 -0.3276 -0.0035
 3232W        W 6751   6.999   7.049  12.108 -0.1636  0.0365 -0.0823
 3233W        W 6752   9.476   5.020   3.694  0.1251 -0.2294 -0.0091
 3234W        W 6753   9.419   2.228  10.689  0.1658  0.0867 -0.1893
 3235W        W 6754   3.374   8.484   0.396 -0.2472  0.3285 -0.2565
 3236W        W 6755   5.679   3.782   9.651 -0.3391  0.0844  0.0745
 3237W        W 6756   0.664   1.094  11.716 -0.2983  0.2886  0.1650
 3238W        W 6757   2.731   1.772  11.546  0.1877  0.0518 -0.2430
 3239W        W 6758   8.458   4.803   0.388 -0.3304 -0.1345  0.1120
 3240W        W 6759   5.124   2.158   9.743 -0.4448 -0.1799  0.0005
 3241W        W 6760   3.162   4.812   0.880  0.0300  0.0485  0.0346
 3242W        W 6761   4.560   6.170   9.907 -0.1697 -0.1774 -0.0622
 3243W        W 6762   4.585   3.207   0.194  0.0737 -0.2082  0.3414
 3244W        W 6763   3.409   7.449  10.934 -0.1463  0.2318  0.4596
 3245W        W 6764   2.550   5.357   1.065 -0.2471 -0.1460 -0.1817
 3246W        W 6765   6.578   6.568   2.868 -0.2698  0.0381  0.0615
 3247W        W 6766   3.158   6.081  12.202  0.1007  0.0077 -0.1196
 3248W        W 6767   1.694   0.904  10.992  0.1264 -0.1458  0.0269
 3249W        W 6768   1.809   1.338   3.298  0.1992 -0.0808  0.0437
 3250W        W 6769   1.430   5.891   2.419  0.1067 -0.3015  0.2278
 3251W        W 6770   4.556   6.578  10.560  0.0979 -0.2311  0.2362
 3252W        W 6771   0.884   4.761   0.055 -0.2949 -0.1282 -0.1155
 3253W        W 6772   4.360   1.052   9.459  0.0348 -0.0321  0.1980
 3254W        W 6773   6.307   0.428  11.720 -0.2223 -0.0775  0.0303
 3255W        W 6774   0.689   1.687  11.936 -0.0531  0.3018 -0.0467
 3256W        W 6775   8.456   4.107  10.999  0.0292  0.0426  0.0259
 3257W        W 6776   3.736   1.224  12.305 -0.0739 -0.2996  0.0166
 3258W        W 6777   7.714   2.374   9.856 -0.0064  0.2416  0.2580
 3259W        W 6778   2.609   9.015   0.058 -0.1470  0.0583  0.1446
 3260W        W 6779   8.105   1.709   9.816 -0.1543 -0.0134  0.2256
 3261W        W 6780   8.688   7.776   0.666  0.1457 -0.0056  0.1414
 3262W        W 6781   0.867   9.050   1.490 -0.2502  0.0858 -0.0176
 3263W        W 6782   1.755   2.850  11.398 -0.0428 -0.1240  0.1029
 3264W        W 6783   2.250   2.091   1.454 -0.0296  0.2469 -0.2899
 3265W        W 6784   8.735   3.034   3.280 -0.0884 -0.1239  0.1469
 3266W        W 6785   9.630   0.503   0.580  0.2725 -0.1204  0.1906
 3267W        W 6786   5.442   4.106   3.117 -0.1121  0.1835  0.0009
 3268W        W 6787   1.135   8.791   9.971  0.1314  0.2268 -0.1801
 3269W        W 6788   0.123   2.565  11.567 -0.0133  0.0333  0.2071
 3270W        W 6789   7.182   4.734   3.262  0.1220  0.1139  0.0662
 3271W        W 6790   5.120   9.070   2.587 -0.2882 -0.1601 -0.0522
 3272W        W 6791   4.431   2.174   8.061 -0.0235 -0.1393 -0.0072
 3273W        W 6792   4.027   4.608   0.404  0.0956 -0.1002  0.0603
 3274W        W 6793   1.735   2.801   9.557 -0.1951 -0.1981 -0.1877
 3275W        W 6794   3.131   4.207   0.170 -0.0567 -0.2506  0.0253
 3276W        W 6795   4.079   0.836   2.888  0.0021 -0.0862 -0.3556
 3277W        W 6796   7.890   4.256  11.658  0.1757 -0.0191  0.1445
 3278W        W 6797   5.051   0.005   3.699 -0.0966  0.1402 -0.0341
 3279W        W 6798   7.339   3.114   3.320  0.3377 -0.0080 -0.3415
 3280W        W 6799   1.003   7.109   0.329 -0.1087 -0.1569  0.2578
 3281W        W 6800   5.970   8.613   0.596 -0.0878  0.1381  0.1952
 3282W        W 6801   3.700   5.462   8.966 -0.2491  0.0250  0.0797
 3283W        W 6802   8.036   6.064   0.822  0.1369 -0.0827 -0.0182
 3284W        W 6803   3.114   3.098  11.386  0.1488 -0.0702  0.1900
 3285W        W 6804   0.702   5.279  10.805 -0.2925  0.3573  0.0426
 3286W        W 6805   7.205   1.437   9.061  0.0725  0.0838  0.1364
 3287W        W 6806   8.904   7.541   9.075  0.2668 -0.1144 -0.1159
 3288W        W 6807   8.921   8.447  10.228 -0.4269 -0.0049  0.2559
 3289W        W 6808   3.519   6.392  11.872 -0.2326 -0.1731 -0.3424
 3290W        W 6809   0.919   1.361  11.342  0.3349  0.2833 -0.3269
 3291W        W 6810   4.522   3.200   2.444 -0.2083 -0.1665 -0.0557
 3292W        W 6811   8.204   5.443   3.256 -0.3206 -0.0777 -0.0630
 3293W        W 6812   2.054   9.291   9.052 -0.0871 -0.2315 -0.0814
 3294W        W 6813   7.923   1.866   1.281 -0.0272  0.1795 -0.2450
 3295W        W 6814   9.215   6.612   1.506 -0.1793 -0.4135 -0.3479
 3296W        W 6815   5.607   9.104   2.299 -0.1004 -0.4646 -0.0483
 3297W        W 6816   6.569   6.189   0.211 -0.2001 -0.0180 -0.1766
 3298W        W 6817   4.497   5.615   4.360 -0.2685  0.3189  0.1648
 3299W        W 6818   5.696   2.695   0.945  0.0786  0.0250  0.0027
 3300W        W 6819   8.261   4.244   2.099 -0.1423 -0.1880 -0.4409
 3301W        W 6820   5.674   4.790   4.927  0.0116  0.1367 -0.1684
 3302W        W 6821   3.170   8.166   1.165 -0.1576 -0.3535  0.4008
 3303W        W 6822   0.969   5.235   9.751 -0.2384  0.1213 -0.0262
 3304W        W 6823   2.034   7.519  11.324  0.2063 -0.3862 -0.0622
 3305W        W 6824   1.752   9.158   3.571 -0.1257  0.2473  0.3078
 3306W        W 6825   4.489   7.596   4.349 -0.2067 -0.3395  0.1744
 3307W        W 6826   8.552   5.045   3.718 -0.3334 -0.2024 -0.1000
 3308W        W 6827   6.290   0.746   3.911  0.0044 -0.0524 -0.3188
 3309W        W 6828   4.724   3.638  10.217  0.5283  0.4017 -0.3175
 3310W        W 6829   8.307   7.920  11.151 -0.2323 -0.4080 -0.1377
 3311W        W 6830   2.506   1.013   9.476  0.1898  0.1531 -0.0072
 3312W        W 6831   9.665   8.963   1.784  0.2072 -0.1337 -0.0334
 3313W        W 6832   5.788   4.362   0.980 -0.2036 -0.0227 -0.3437
 3314W        W 6833   9.572   7.453   3.593  0.0810  0.1621  0.0037
 3315W        W 6834   2.635   4.469   8.529  0.2048 -0.0296  0.1026
 3316W        W 6835   5.495   8.062   9.644 -0.1722 -0.0383  0.0814
 3317W        W 6836   8.319   1.696   3.601 -0.3123  0.0852 -0.5431
 3318W        W 6837   7.167   6.969  11.272 -0.0083  0.0143 -0.2834
 3319W        W 6838   4.138   1.574   1.485 -0.1929  0.2189 -0.0701
 3320W        W 6839   8.723   9.401  12.209 -0.1251  0.2670  0.0737
 3321W        W 6840   3.661   1.768   4.842 -0.0814  0.1435  0.3075
 3322W        W 6841   4.587   4.790  10.917  0.0885 -0.2325 -0.0186
 3323W        W 6842   7.755   7.730   0.354 -0.0740  0.4417  0.1294
 3324W        W 6843   4.978   3.535   0.260 -0.3492 -0.3723 -0.0593
 3325W        W 6844   7.495   3.090   1.999 -0.1016 -0.2785  0.0936
 3326W        W 6845   6.081   8.082   0.806  0.1836 -0.1628  0.0677
 3327W        W 6846   8.914   8.934  10.231  0.4417 -0.0093  0.5729
 3328W        W 6847   5.055   3.146   1.465  0.0335 -0.2414  0.0825
 3329W        W 6848   0.020   9.281   1.398  0.0567 -0.0898  0.0864
 3330W        W 6849   7.582   8.989   3.350  0.0100 -0.2608 -0.0204
 3331W        W 6850   2.252   5.723   9.856  0.2456 -0.0959  0.0696
 3332W        W 6851   4.165   6.302   0.073  0.1937  0.3104 -0.0016
 3333W        W 6852   9.407   6.492   9.716 -0.1312  0.0708  0.2480
 3334W        W 6853   8.442   6.822  11.546  0.4979  0.1232  0.1968
 3335W        W 6854   9.192   7.986  10.718  0.1779 -0.3778 -0.1489
 3336W        W 6855   4.324   3.473   2.868 -0.0908  0.0101 -0.1123
 3337W        W 6856   2.694   9.298   3.151  0.4447 -0.0439  0.1858
 3338W        W 6857   2.426   9.152   0.484  0.0932  0.0754  0.0765
 3339W        W 6858   3.077   2.289   3.657 -0.3215 -0.1153  0.0141
 3340W        W 6859   2.965   6.646   1.728  0.2324  0.0843 -0.0242
 3341W        W 6860   3.765   4.152   3.980  0.2119 -0.0762 -0.0309
 3342W        W 6861   3.248   8.185   4.740 -0.1322 -0.3548 -0.1450
 3343W        W 6862   5.732   2.576   8.284 -0.0079 -0.0699 -0.0686
 3344W        W 6863   7.620   5.977   9.386  0.0595  0.3415 -0.1615
 3345W        W 6864   9.633   2.557   2.221 -0.0980  0.0842 -0.1336
 3346W        W 6865   3.458   4.982   1.342 -0.2612  0.2506  0.2855
 3347W        W 6866   7.975   9.026   1.824 -0.1162  0.3387 -0.1265
 3348W        W 6867   9.038   0.542   2.038  0.3496 -0.2149 -0.0070
 3349W        W 6868   1.887   8.339   2.972 -0.0140  0.0542 -0.1683
 3350W        W 6869   2.388   6.129  10.132  0.1278  0.0497  0.1757
 3351W        W 6870   9.627   3.122   4.505  0.0498  0.2261 -0.2652
 3352W        W 6871   2.915   8.065  11.381 -0.1987  0.0374 -0.2136
 3353W        W 6872   3.684   0.702   3.253  0.0757 -0.0221 -0.0384
 3354W        W 6873   4.809   4.209  10.872 -0.3539  0.0645  0.0131
 3355W        W 6874   2.781   6.667   2.618  0.0345 -0.4782  0.0305
 3356W        W 6875   2.353   8.993   1.050 -0.1032  0.1076 -0.3305
 3357W        W 6876   5.370   2.322   3.854 -0.1395  0.2245  0.1249
 3358W        W 6877   0.096   6.691  12.277  0.0853  0.0937  0.0984
 3359W        W 6878   9.708   4.960   8.655  0.0250 -0.3416 -0.1193
 3360W        W 6879   0.534   3.538   3.320  0.1515  0.0661 -0.2830
 3361W        W 6880   2.649   6.458  10.430  0.4026  0.1213  0.1865
 3362W        W 6881   6.318   7.136   1.521  0.0666  0.1839  0.1665
 3363W        W 6882   7.993   4.142   2.570 -0.2459  0.2097 -0.1338
 3364W        W 6883   4.247   0.777  10.155  0.1604 -0.2009  0.0030
 3365W        W 6884   1.099   6.797   1.930 -0.0759  0.0622 -0.2026
 3366W        W 6885   5.079   6.384   1.627 -0.1200  0.1959 -0.0508
 3367W        W 6886   2.694   3.016   3.050 -0.0264  0.0792  0.1027
 3368W        W 6887   2.811   3.370   3.550 -0.6319 -0.1206 -0.2315
 3369W        W 6888   6.942   5.135  10.911 -0.1003 -0.2356 -0.1517
 3370W        W 6889   5.760   3.856   0.440  0.0961  0.0757  0.0905
 3371W        W 6890   2.859   0.567   9.402 -0.2204 -0.0807  0.0580
 3372W        W 6891   6.905   0.862   1.142 -0.3007  0.1846  0.1438
 3373W        W 6892   2.265   4.054  11.806  0.1155  0.2329  0.0137
 3374W        W 6893   8.937   5.368  10.266  0.0132  0.0210 -0.0604
 3375W        W 6894   3.676   5.748   4.647  0.4496  0.0297 -0.0835
 3376W        W 6895   6.674   4.710   3.377  0.0558 -0.2651 -0.3786
 3377W        W 6896   7.356   8.562  11.433 -0.1023  0.1013 -0.0655
 3378W        W 6897   4.825   3.188  10.572  0.0122  0.0036  0.2130
 3379W        W 6898   5.619   8.877   1.849  0.0103  0.0932 -0.0490
 3380W        W 6899   6.694   8.854  12.175  0.1796 -0.3608  0.0271
 3381W        W 6900   5.372   8.859  12.374  0.0042  0.1133  0.1906
 3382W        W 6901   5.869   8.598   1.569  0.2310  0.0311 -0.2275
 3383W        W 6902   7.524   2.180   1.369 -0.0356  0.0662  0.1642
 3384W        W 6903   3.027   7.818   3.713 -0.1870 -0.1094  0.0059
 3385W        W 6904   0.266   4.504   1.996 -0.0062 -0.0152  0.5219
 3386W        W 6905   5.745   4.399   9.704  0.1467  0.2830  0.0372
 3387W        W 6906   0.827   6.178  10.149 -0.0670 -0.0630  0.2545
 3388W        W 6907   4.042   4.715  10.995  0.1280  0.1383  0.0186
 3389W        W 6908   6.225   5.787   2.593 -0.0172  0.3009  0.1232
 3390W        W 6909   7.008   0.158  10.388 -0.1537  0.1178  0.0636
 3391W        W 6910   2.174   1.195  11.185  0.1064  0.3301 -0.0000
 3392W        W 6911   7.729   8.475  12.231  0.3340  0.1725  0.1457
 3393W        W 6912   3.881   7.170  11.084  0.0837 -0.1794  0.0098
 3394W        W 6913   5.201   0.699   9.891 -0.0445  0.1364 -0.0827
 3395W        W 6914   2.988   3.348   5.069 -0.1273  0.1644  0.0322
 3396W        W 6915   7.517   8.991   1.576  0.0209 -0.2620 -0.1111
 3397W        W 6916   8.775   9.241   0.159 -0.1702  0.1000  0.2290
 3398W        W 6917   9.533   8.382   9.319  0.1840  0.1271  0.1895
 3399W        W 6918   8.504   0.765  10.667  0.0078  0.0369 -0.1974
 3400W        W 6919   2.705   8.619  12.248 -0.3385 -0.2589  0.0248
 3401W        W 6920   4.657   1.340   0.162 -0.2710  0.3253  0.1042
 3402W        W 6921   0.617   3.306   8.780  0.0621  0.1189 -0.3422
 3403W        W 6922   9.579   8.273   0.719 -0.1680  0.0535  0.1195
 3404W        W 6923   8.967   6.560   8.912 -0.2517 -0.2800 -0.2038
 3405W        W 6924   6.571   4.042  11.263  0.1108  0.3643  0.2844
 3406W        W 6925   8.709   1.297   9.475  0.0226 -0.2191 -0.1567
 3407W        W 6926   4.165   6.845  11.764  0.2164  0.0521 -0.5388
 3408W        W 6927   4.493   2.342  10.775  0.1666 -0.1041  0.0042
 3409W        W 6928   9.340   0.499   3.020  0.0792 -0.1251 -0.0099
 3410W        W 6929   6.629   5.520  11.630 -0.1387  0.1494  0.1153
 3411W        W 6930   5.494   1.461   1.533  0.0025 -0.0789 -0.0095
 3412W        W 6931   6.586   9.589  11.574  0.3068 -0.2097  0.0472
 3413W        W 6932   8.913   0.761   2.762  0.2796  0.3296  0.1490
 3414W        W 6933   5.603   0.110   9.794 -0.0009 -0.3415  0.1007
 3415W        W 6934   9.675   5.542   3.860  0.0627 -0.0040 -0.3195
 3416W        W 6935   2.840   7.130   1.028 -0.0141  0.2019  0.0814
 3417W        W 6936   0.502   3.498  10.814 -0.0156  0.1031  0.1220
 3418W        W 6937   4.291   8.168   0.273 -0.1850  0.2984 -0.1301
 3419W        W 6938   7.237   5.908  10.604  0.2276  0.1980 -0.0819
 3420W        W 6939   6.528   6.265   8.529  0.0302  0.1875  0.1638
 3421W        W 6940   4.363   5.331   1.540  0.0038  0.0295  0.3748
 3422W        W 6941   1.997   4.874   4.290 -0.0456  0.4163 -0.3350
 3423W        W 6942   5.596   3.852   8.573 -0.1240  0.0184  0.1482
 3424W        W 6943   4.133   9.625   0.062  0.0971  0.0155  0.1585
 3425W        W 6944   8.415   9.550   0.209 -0.2374  0.2124  0.0196
 3426W        W 6945   6.967   3.801   9.904 -0.0122 -0.0783  0.1109
 3427W        W 6946   0.441   3.227   9.772  0.0783 -0.0639  0.0287
 3428W        W 6947   1.275   0.231   9.415  0.2842 -0.2267  0.0584
 3429W        W 6948   2.745   4.368  12.404 -0.4746  0.1286 -0.2151
 3430W        W 6949   9.505   0.431   3.582 -0.1087  0.3338  0.3100
 3431W        W 6950   7.083   9.403   2.705  0.1772 -0.1570 -0.0814
 3432W        W 6951   1.800   3.255   3.541 -0.0597 -0.1270  0.0371
 3433W        W 6952   1.626   7.502   3.201 -0.1876 -0.0752  0.1815
 3434W        W 6953   0.635   4.783   2.175 -0.1828  0.0242  0.1861
 3435W        W 6954   9.337   7.782  11.776 -0.2795 -0.1951 -0.2336
 3436W        W 6955   4.568   9.040   0.260  0.3151  0.1161 -0.0772
 3437W        W 6956   2.136   6.778   4.692 -0.1113 -0.1232  0.2250
 3438W        W 6957   8.315   7.113   3.629  0.1029  0.1202  0.2230
 3439W        W 6958   3.671   9.551   3.017  0.4151  0.2847  0.0800
 3440W        W 6959   2.729   8.761   2.398 -0.2149  0.0685 -0.4183
 3441W        W 6960   7.246   0.701   1.529 -0.1725  0.1969  0.1777
 3442W        W 6961   8.825   1.868   0.914 -0.0309  0.0776  0.2872
 3443W        W 6962   4.963   4.437   0.379 -0.0966  0.2659  0.1863
 3444W        W 6963   3.409   5.728   9.295 -0.1180  0.1174 -0.0107
 3445W        W 6964   7.859   0.038  11.752 -0.5231 -0.1653  0.0597
 3446W        W 6965   1.609   6.621   0.132  0.0079 -0.0292  0.2276
 3447W        W 6966   5.299   7.015   9.752  0.2586  0.2029 -0.1901
 3448W        W 6967   4.040   6.135   3.084  0.2176  0.1485 -0.0512
 3449W        W 6968   7.207   1.772  11.838 -0.2871  0.0177 -0.0945
 3450W        W 6969   5.589   5.221  11.475  0.0705 -0.1603  0.0476
 3451W        W 6970   3.878   6.798   4.429 -0.2166 -0.0322  0.0660
 3452W        W 6971   5.878   7.805  11.949 -0.2211 -0.4138  0.0970
 3453W        W 6972   7.096   8.378   2.300 -0.1790  0.0662  0.0934
 3454W        W 6973   7.564   4.206   8.768  0.2097 -0.0125 -0.1170
 3455W        W 6974   0.743   9.313   2.068  0.0120 -0.3619 -0.0682
 3456W        W 6975   4.197   2.426  10.251  0.1081  0.2681 -0.0110
 3457W        W 6976   6.470   2.121   9.528 -0.3480  0.0968 -0.0118
 3458W        W 6977   6.542   2.801   7.955 -0.1272  0.3016  0.1186
 3459W        W 6978   1.139   2.576   0.486  0.2632 -0.4232 -0.0137
 3460W        W 6979   6.752   7.755  10.776 -0.4280 -0.2289 -0.0653
 3461W        W 6980   4.613   8.487   9.539 -0.1631 -0.1518  0.1554
 3462W        W 6981   9.555   7.820   0.503  0.2066 -0.4083  0.1990
 3463W        W 6982   4.339   4.723   3.777 -0.1448  0.0804  0.0544
 3464W        W 6983   5.044   6.942   2.828  0.0254  0.0454  0.1707
 3465W        W 6984   5.204   9.171   1.039 -0.1069  0.0711 -0.2748
 3466W        W 6985   0.348   2.419   3.357 -0.0204 -0.2609 -0.0021
 3467W        W 6986   0.034   5.504   9.937 -0.0240 -0.0675  0.1074
 3468W        W 6987   2.676   3.774   1.978  0.2414 -0.3998  0.2302
 3469W        W 6988   5.524   2.741  11.122  0.2267  0.0994 -0.3917
 3470W        W 6989   5.033   5.689  12.295  0.3523 -0.1239 -0.1509
 3471W        W 6990   9.528   9.620  11.623 -0.2742 -0.1022  0.0103
 3472W        W 6991   9.145   8.638   0.820 -0.0230  0.1516 -0.1080
 3473W        W 6992   7.839   6.368   9.820  0.2775 -0.0436  0.1517
 3474W        W 6993   3.997   1.510  10.704 -0.2434 -0.0429 -0.2465
 3475W        W 6994   9.146   5.821  11.986  0.0344  0.0975  0.2728
 3476W        W 6995   3.662   8.233   4.408 -0.0956  0.0026 -0.0676
 3477W        W 6996   7.572   1.811   9.810  0.0030 -0.4477 -0.2254
 3478W        W 6997   4.053   4.342   4.415  0.0309 -0.0155  0.5037
 3479W        W 6998   6.225   5.517   9.688 -0.3587  0.1467 -0.0718
 3480W        W 6999   1.141   3.210  10.357 -0.2561 -0.1430 -0.1056
 3481W        W 7000   0.805   2.723   2.556 -0.2601 -0.1601  0.2561
 3482W        W 7001   2.414   3.302   3.810 -0.0157 -0.0942 -0.3163
 3483W        W 7002   0.046   8.628  10.363  0.1488  0.1071 -0.3741
 3484W        W 7003   1.418   2.241   3.661  0.1220 -0.0761 -0.1810
 3485W        W 7004   5.535   7.877   1.881  0.2366  0.0835  0.1230
 3486W        W 7005   7.503   2.116   3.740 -0.1801  0.2262 -0.0622
 3487W        W 7006   2.721   0.798  11.711  0.1808 -0.2313 -0.0640
 3488W        W 7007   0.417   4.187   8.822 -0.0155 -0.1058  0.1280
 3489W        W 7008   7.381   0.952   9.815 -0.0937 -0.0047  0.1355
 3490W        W 7009   0.404   1.161   0.591 -0.0328  0.2461  0.0978
 3491W        W 7010   7.997   9.232  10.628  0.2735 -0.0483  0.0081
 3492W        W 7011   7.768   5.895  12.243  0.1235 -0.0319 -0.3172
 3493W        W 7012   1.072   6.840   8.477 -0.2229 -0.1485  0.3325
 3494W        W 7013   8.966   5.943  11.379 -0.0222  0.3867  0.0161
 3495W        W 7014   4.446   1.213   9.910  0.0259 -0.3447 -0.3624
 3496W        W 7015   3.264   5.123  12.404  0.1154  0.0607 -0.0635
 3497W        W 7016   3.183   5.887   3.203 -0.0222 -0.0599  0.3170
 3498W        W 7017   0.329   7.240   1.861 -0.0968 -0.1624 -0.0190
 3499W        W 7018   4.338   2.808   2.797 -0.1714 -0.2359  0.1632
 3500W        W 7019   6.750   1.965   1.682 -0.2616  0.1954  0.0428
 3501W        W 7020   0.401   1.196  10.725 -0.0211 -0.0405  0.2763
 3502W        W 7021   1.750   8.320   3.800  0.3922 -0.1213 -0.0885
 3503W        W 7022   9.258   3.322  12.388  0.1280  0.0678  0.0504
 3504W        W 7023   7.738   2.284  11.408 -0.1382  0.1032 -0.0643
 3505W        W 7024   1.190   1.440   2.072 -0.1723  0.1100 -0.1359
 3506W        W 7025   4.098   1.325   2.960  0.1982  0.0971 -0.2730
 3507W        W 7026   6.709   8.485   9.555 -0.1993  0.1475  0.0256
 3508W        W 7027   6.836   0.905   2.791 -0.1047  0.5905 -0.1508
 3509W        W 7028   0.989   9.308   9.870 -0.3699  0.1248 -0.0940
 3510W        W 7029   2.931   5.709   0.523  0.1221 -0.0907  0.0041
 3511W        W 7030   9.247   5.176   8.808 -0.1783  0.0894  0.3245
 3512W        W 7031   3.052   4.069   3.820  0.2635  0.0337 -0.0641
 3513W        W 7032   2.564   4.751   0.111  0.0402  0.0684  0.0080
 3514W        W 7033   5.081   9.142   3.107  0.2478  0.2366  0.0586
 3515W        W 7034   7.513   6.999   0.830 -0.0653 -0.4294  0.0196
 3516W        W 7035   0.104   1.990   4.734  0.1154  0.1106  0.1778
 3517W        W 7036   9.211   7.960   1.573  0.0715  0.1135 -0.0349
 3518W        W 7037   1.937   5.939   2.252  0.3207 -0.1367 -0.2895
 3519W        W 7038   2.401   3.752  12.265 -0.4002 -0.1767 -0.0346
 3520W        W 7039   2.268   5.204   8.920  0.0361 -0.0779  0.2087
 3521W        W 7040   2.012   1.816   3.144 -0.3870  0.1961 -0.0599
 3522W        W 7041   1.713   7.982  10.247  0.1356 -0.0868 -0.0321
 3523W        W 7042   1.454   0.764   9.481 -0.0995 -0.0765 -0.4469
 3524W        W 7043   6.007   2.471  11.825  0.1184 -0.2385  0.2965
 3525W        W 7044   1.059   3.546   9.759 -0.1786 -0.0184 -0.4767
 3526W        W 7045   7.231   8.884  10.867  0.2706  0.0897  0.0882
 3527W        W 7046   2.571   0.794  11.211  0.4557  0.1598  0.2821
 3528W        W 7047   5.365   8.260  11.162 -0.0588 -0.1568 -0.2244
 3529W        W 7048   1.484   5.257   9.943  0.1206 -0.2469  0.0781
 3530W        W 7049   4.570   3.970   4.612  0.1896 -0.0852  0.1651
 3531W        W 7050   4.399   8.776   2.827 -0.0312 -0.0004 -0.1160
 3532W        W 7051   0.641   7.952  12.121  0.1121  0.1838  0.0371
 3533W        W 7052   8.742   7.795   1.738 -0.0648  0.0130 -0.4067
 3534W        W 7053   5.879   8.674   3.579 -0.2706 -0.2082 -0.1349
 3535W        W 7054   6.782   2.490   3.165  0.0523 -0.1427 -0.0528
 3536W        W 7055   4.239   3.770  10.100 -0.0485 -0.1137  0.1947
 3537W        W 7056   3.362   6.342  10.000  0.1659  0.2302 -0.2623
 3538W        W 7057   2.118   0.620   8.797 -0.0952  0.0485  0.0130
 3539W        W 7058   9.000   7.700   9.630 -0.0210  0.0737  0.1135
 3540W        W 7059   0.236   6.484   0.667 -0.1271  0.0011  0.1699
 3541W        W 7060   8.246   8.528  12.397  0.1569  0.1418 -0.1270
 3542W        W 7061   5.660   9.061   0.802 -0.0471 -0.0549 -0.0458
 3543W        W 7062   3.898   3.309  10.367  0.2492 -0.1729  0.2305
 3544W        W 7063   5.723   2.323   1.304 -0.2600  0.1311  0.0842
 3545W        W 7064   0.709   5.242   0.110 -0.0719  0.1556 -0.0579
 3546W        W 7065   1.945   2.813   3.804  0.0902 -0.3243  0.0974
 3547W        W 7066   1.369   7.860   3.449  0.0907 -0.0373  0.0570
 3548W        W 7067   2.062   8.572   2.495 -0.0695  0.0441 -0.0672
 3549W        W 7068   3.648   9.241   5.221  0.2315  0.1257  0.0613
 3550W        W 7069   6.292   6.858   3.301  0.0527 -0.2866 -0.4756
 3551W        W 7070   8.149   2.431   3.164 -0.0626  0.3357 -0.0278
 3552W        W 7071   1.522   2.784   2.003  0.0812 -0.0649 -0.2613
 3553W        W 7072   1.847   6.540   0.932  0.0996  0.0451  0.2145
 3554W        W 7073   6.789   7.824   2.307 -0.0378  0.1742 -0.2288
 3555W        W 7074   5.316   0.012   8.943  0.3416 -0.1668 -0.1320
 3556W        W 7075   2.797   9.105  11.595  0.3220 -0.1004  0.0150
 3557W        W 7076   9.199   1.459  11.770 -0.3151 -0.0290 -0.3514
 3558W        W 7077   0.346   9.701  12.475  0.0333  0.4066 -0.0675
 3559W        W 7078   5.849   7.779  10.585 -0.1011  0.2471  0.2548
 3560W        W 7079   7.844   3.701   0.989 -0.3449  0.1410  0.0998
 3561W        W 7080   0.759   7.173   0.790  0.0330  0.0957 -0.0512
 3562W        W 7081   8.246   5.185   2.471 -0.1094 -0.0766 -0.0225
 3563W        W 7082   2.385   1.221   8.107 -0.1221  0.1984  0.2907
 3564W        W 7083   1.464   9.445   2.027 -0.3756 -0.2174  0.3718
 3565W        W 7084   7.216   5.751   3.354  0.0895  0.2835 -0.0927
 3566W        W 7085   6.711   2.491   0.693 -0.1551  0.0368  0.2206
 3567W        W 7086   1.981   3.416   2.816  0.0009  0.0112 -0.3058
 3568W        W 7087   0.874   8.612  10.354 -0.1934 -0.0866  0.2287
 3569W        W 7088   6.144   1.863  10.485  0.1461  0.0926  0.0016
 3570W        W 7089   2.431   6.660  11.465  0.1216 -0.2030  0.0590
 3571W        W 7090   4.661   5.190  11.171  0.3186 -0.1985 -0.2831
 3572W        W 7091   1.701   0.505  10.592 -0.0365  0.2077  0.3177
 3573W        W 7092   7.332   3.492   2.986  0.0908 -0.1822  0.0167
 3574W        W 7093   3.605   4.039  11.450  0.0994 -0.2626  0.1033
 3575W        W 7094   5.512   5.632  11.780 -0.3667  0.2034  0.0413
 3576W        W 7095   4.533   3.640   9.708  0.0432 -0.0351  0.1549
 3577W        W 7096   3.529   5.291   4.351  0.3204  0.1091  0.2223
 3578W        W 7097   0.715   6.700   0.637  0.1938 -0.1500  0.1960
 3579W        W 7098   2.301   2.575   5.176  0.5213 -0.4690 -0.0909
 3580W        W 7099   1.617   9.619  11.622  0.0107 -0.0111 -0.0580
 3581W        W 7100   7.001   2.371   1.508  0.0604  0.1302 -0.0682
 3582W        W 7101   6.319   1.986   4.044  0.2078  0.3778  0.1034
 3583W        W 7102   3.189   4.195  11.036 -0.1654 -0.1013  0.2149
 3584W        W 7103   0.167   4.745   2.848 -0.3899  0.1081 -0.0543
 3585W        W 7104   1.018   9.106  10.412 -0.2490  0.1305  0.0808
 3586W        W 7105   2.246   7.524   3.247 -0.1584  0.1879  0.2824
 3587W        W 7106   6.367   9.263   9.097 -0.1728 -0.0619  0.1682
 3588W        W 7107   1.645   2.045  11.024  0.0513  0.1053  0.0460
 3589W        W 7108   8.980   5.611   2.816 -0.2134 -0.0083  0.1162
 3590W        W 7109   1.417   8.511  12.299 -0.1912  0.1564  0.0234
 3591W        W 7110   0.426   7.072   0.401 -0.2821 -0.0364  0.3314
 3592W        W 7111   1.416   3.376   0.896  0.1976 -0.3776  0.0913
 3593W        W 7112   8.039   7.838   2.308 -0.2444  0.0317  0.0519
 3594W        W 7113   1.745   9.693  10.536 -0.1050 -0.1372  0.1175
 3595W        W 7114   8.324   8.167   1.495  0.2300 -0.2193 -0.0199
 3596W        W 7115   4.643   0.757   9.851 -0.0149  0.0411 -0.0050
 3597W        W 7116   7.525   0.209  10.456  0.0480  0.1141 -0.0792
 3598W        W 7117   4.639   9.289   1.337  0.1191 -0.0851  0.1925
 3599W        W 7118   7.227   4.709   7.925  0.1303 -0.0488 -0.0154
 3600W        W 7119   1.175   7.258   3.341  0.1453 -0.2742 -0.2470
 3601W        W 7120   5.045   4.301  10.163 -0.0140  0.1532 -0.2148
 3602W        W 7121   5.345   8.631   2.358  0.1940  0.0504  0.0789
 3603W        W 7122   8.186   1.014   1.862  0.0281  0.0947  0.1535
 3604W        W 7123   9.666   6.629   1.272 -0.0421 -0.2911  0.3251
 3605W        W 7124   4.262   2.267  11.424  0.0583  0.0084 -0.1241
 3606W        W 7125   2.210   5.338   4.131 -0.1220 -0.0680 -0.2933
 3607W        W 7126   4.416   2.741   9.787 -0.1939 -0.2030  0.0901
 3608W        W 7127   1.474   3.670  10.623  0.0920 -0.0354  0.1083
 3609W        W 7128   3.174   6.141   2.012 -0.1023 -0.0015  0.0496
 3610W        W 7129   6.347   2.153  11.009 -0.2210  0.0144  0.3937
 3611W        W 7130   6.587   2.486   0.072  0.3632 -0.0548  0.1407
 3612W        W 7131   4.913   3.529  11.324 -0.1681 -0.0495 -0.2771
 3613W        W 7132   7.505   4.256   2.572 -0.1452  0.0205 -0.1035
 3614W        W 7133   4.534   3.817   2.538  0.4352 -0.0620  0.0761
 3615W        W 7134   3.955   5.705   8.507 -0.1217  0.3020  0.0199
 3616W        W 7135   3.607   1.123   2.935 -0.1162  0.2583  0.0836
 3617W        W 7136   3.676   9.232   8.636 -0.2918  0.2545 -0.0998
 3618W        W 7137   8.666   2.247   0.473  0.0067  0.2535  0.1061
 3619W        W 7138   7.773   7.587  11.817  0.2189 -0.4148  0.0466
 3620W        W 7139   7.281   5.851   8.841  0.0160  0.2696  0.3363
 3621W        W 7140   2.013   5.451   2.303  0.2335  0.0852 -0.2839
 3622W        W 7141   9.411   8.312   1.187  0.1464 -0.3344  0.2717
 3623W        W 7142   6.645   4.622  12.106  0.2897  0.0370  0.1857
 3624W        W 7143   9.392   7.110   3.956 -0.0987  0.3299  0.0907
 3625W        W 7144   9.425   8.281  10.302 -0.0236 -0.0992 -0.0425
 3626W        W 7145   6.676   5.732   3.317 -0.0031  0.0124 -0.0259
 3627W        W 7146   4.264   3.211   9.919  0.1086 -0.2927  0.0122
 3628W        W 7147   5.361   3.010   9.445  0.0542  0.0900 -0.0528
 3629W        W 7148   1.742   6.266  10.115 -0.0391 -0.1417 -0.1169
 3630W        W 7149   2.425   1.136   2.120  0.1749  0.3408 -0.0645
 3631W        W 7150   3.936   3.852  12.446 -0.4184  0.3185  0.5106
 3632W        W 7151   3.701   1.602   8.156  0.3024 -0.0500 -0.0640
 3633W        W 7152   4.268   1.908   0.913  0.0310  0.2488  0.0243
 3634W        W 7153   0.928   0.961   1.628 -0.0010 -0.2514 -0.2499
 3635W        W 7154   8.109   8.690   9.170  0.1800 -0.1808  0.5118
 3636W        W 7155   7.445   1.999  12.324  0.0057 -0.0653 -0.0597
 3637W        W 7156   5.311   4.656   9.649  0.1008 -0.1306 -0.0352
 3638W        W 7157   7.208   7.401  11.578  0.0073  0.1860 -0.0747
 3639W        W 7158   0.964   8.879   3.656 -0.2314  0.2092  0.1646
 3640W        W 7159   9.486   9.420  10.824 -0.0588  0.2387 -0.3260
 3641W        W 7160   7.866   6.477   1.682  0.1739  0.0680 -0.3646
 3642W        W 7161   7.356   0.608   2.903  0.0269 -0.2492  0.0067
 3643W        W 7162   5.573   9.020   9.616  0.1365  0.0598 -0.0139
 3644W        W 7163   3.529   4.501  10.712 -0.1907 -0.3522  0.0319
 3645W        W 7164   7.428   4.142  11.103 -0.1212  0.1035 -0.0732
 3646W        W 7165   8.232   3.231   3.330  0.0429  0.2282  0.0359
 3647W        W 7166   4.752   7.839  11.200 -0.0837 -0.0532 -0.0718
 3648W        W 7167   1.571   8.706  11.707  0.0837  0.2213 -0.0846
 3649W        W 7168   2.877   5.185   9.320 -0.1655 -0.0224  0.2353
 3650W        W 7169   6.016   3.334   3.480 -0.0688  0.0111  0.1759
 3651W        W 7170   7.585   5.611   4.853 -0.2680 -0.1374 -0.1632
 3652W        W 7171   6.638   1.635   1.250  0.2459 -0.0387  0.3102
 3653W        W 7172   7.103   8.927  11.770  0.1716  0.4891 -0.3721
 3654W        W 7173   9.552   7.357   9.041  0.2486  0.1397  0.0478
 3655W        W 7174   4.600   3.741  11.797 -0.0912  0.1978  0.1417
 3656W        W 7175   7.377   5.125   2.914 -0.5121  0.0535 -0.2119
 3657W        W 7176   5.718   4.292  11.539  0.1972 -0.1106 -0.1011
 3658W        W 7177   6.284   5.525   1.003  0.0322 -0.1277  0.2112
 3659W        W 7178   0.758   8.307  11.254 -0.1769 -0.0485 -0.0319
 3660W        W 7179   9.239   4.147   1.935  0.0701  0.0340 -0.0308
 3661W        W 7180   3.585   0.613  12.209  0.2027 -0.0238  0.2252
 3662W        W 7181   5.300   4.247  11.859 -0.0576 -0.1240  0.3229
 3663W        W 7182   7.510   8.147  11.227  0.2597  0.0096  0.0601
 3664W        W 7183   0.710   0.341   1.620  0.3698  0.2493 -0.2723
 3665W        W 7184   6.665   3.964   7.840  0.0008  0.1452 -0.1836
 3666W        W 7185   4.887   3.602   1.648 -0.0538 -0.1204 -0.2298
 3667W        W 7186   1.810   8.014   1.729 -0.1662 -0.0630  0.1508
 3668W        W 7187   8.588   0.240   0.628  0.0087  0.0138 -0.2236
 3669W        W 7188   3.834   7.432   1.509  0.2154  0.1816 -0.0513
 3670W        W 7189   5.858   3.493  11.492 -0.5153  0.1836  0.1805
 3671W        W 7190   5.100   0.100   9.784 -0.1414  0.2832 -0.2688
 3672W        W 7191   9.006   4.655   9.715  0.3362 -0.4646 -0.1159
 3673W        W 7192   2.318   6.039  12.431 -0.2265 -0.1186  0.0376
 3674W        W 7193   1.170   3.110   1.331 -0.0986  0.1313 -0.1071
 3675W        W 7194   0.631   7.179   3.306 -0.2539  0.0079  0.2021
 3676W        W 7195   4.955   4.883   0.097  0.0255 -0.3606 -0.1943
 3677W        W 7196   2.050   2.541   3.371 -0.0783  0.1347 -0.3056
 3678W        W 7197   2.204   2.862  12.379  0.2005  0.0569  0.0316
 3679W        W 7198   6.736   1.679  11.993  0.3659  0.0326 -0.1124
 3680W        W 7199   4.755   7.439   9.951 -0.2145  0.0316  0.0155
 3681W        W 7200   2.935   6.725  10.777 -0.1104 -0.0465 -0.0307
 3682W        W 7201   6.352   6.198  12.128  0.2248  0.1018 -0.2322
 3683W        W 7202   3.088   7.650   1.118  0.0003  0.1003  0.2301
 3684W        W 7203   0.872   3.595   4.119  0.1476 -0.0322 -0.4044
 3685W        W 7204   5.345   8.756   0.508 -0.3410  0.1773 -0.2536
 3686W        W 7205   3.404   0.398  10.463  0.2161 -0.1777 -0.0616
 3687W        W 7206   8.076   8.618  11.927 -0.1584 -0.0829  0.1200
 3688W        W 7207   1.910   5.068   8.615  0.1861 -0.1091 -0.0124
 3689W        W 7208   3.432   7.225  12.378 -0.1837  0.0078 -0.2068
 3690W        W 7209   9.429   0.955   1.293 -0.2588  0.1124 -0.0573
 3691W        W 7210   2.848   0.402   3.281  0.0142  0.1601  0.0500
 3692W        W 7211   6.510   9.056   8.695 -0.3130 -0.0449 -0.2193
 3693W        W 7212   2.232   6.302   8.830  0.1419 -0.2483 -0.0005
 3694W        W 7213   8.622   0.023   3.438 -0.3865  0.0201  0.1500
 3695W        W 7214   8.273   9.208   9.632  0.0408  0.1389  0.2293
 3696W        W 7215   9.267   1.792  12.509 -0.0841 -0.2831 -0.0194
 3697W        W 7216   0.712   0.334   9.909  0.1693 -0.0546  0.0176
 3698W        W 7217   7.692   5.047   9.492 -0.3773  0.0444 -0.1857
 3699W        W 7218   5.153   7.003   4.043 -0.0688 -0.0810 -0.1996
 3700W        W 7219   6.239   9.456   1.423  0.2441 -0.0166 -0.2005
 3701W        W 7220   5.830   0.061   2.770  0.0908 -0.2317 -0.1110
 3702W        W 7221   4.258   4.136   1.684 -0.2579 -0.4757  0.2066
 3703W        W 7222   8.641   2.059  11.615 -0.1709 -0.1098 -0.0601
 3704W        W 7223   6.255   1.273   0.564  0.0468 -0.2676  0.0827
 3705W        W 7224   3.751   9.615   2.329  0.0343 -0.5754 -0.1430
 3706W        W 7225   7.367   3.244   9.721 -0.1473 -0.0024  0.0086
 3707W        W 7226   3.657   2.827  12.054 -0.2678 -0.1115 -0.1076
 3708W        W 7227   4.077   5.926   4.377  0.0230 -0.0147 -0.1028
 3709W        W 7228   6.848   5.049   2.988  0.1658  0.4769  0.0565
 3710W        W 7229   4.440   5.230   2.534  0.0121 -0.2052  0.1974
 3711W        W 7230   1.412   5.396  11.468  0.1810  0.0648  0.2213
 3712W        W 7231   8.523   9.430  11.690 -0.2259  0.2181  0.1414
 3713W        W 7232   6.060   6.737   5.161 -0.1294  0.0161  0.0762
 3714W        W 7233   5.290   5.048  10.722  0.0607 -0.2155 -0.0339
 3715W        W 7234   5.597   1.496  11.487  0.0956  0.0030  0.0528
 3716W        W 7235   2.240   0.514   2.258 -0.2101  0.2380 -0.0913
 3717W        W 7236   6.092   0.527   8.801  0.0167  0.1669 -0.1596
 3718W        W 7237   4.062   3.050   9.322 -0.0668 -0.1180 -0.0755
 3719W        W 7238   5.823   5.913   4.314 -0.0761 -0.2075  0.0431
 3720W        W 7239   0.929   2.729   1.586  0.1975 -0.0287  0.0813
 3721W        W 7240   7.436   4.946  11.618  0.2457 -0.1855  0.0871
 3722W        W 7241   8.537   4.697  10.324 -0.1628  0.2829 -0.1186
 3723W        W 7242   0.201   3.421   2.971  0.2329  0.3288  0.2731
 3724W        W 7243   0.180   5.032   9.977 -0.3337  0.1163 -0.0684
 3725W        W 7244   1.367   3.886   1.982  0.1513  0.2257 -0.2869
 3726W        W 7245   5.114   1.298   2.998 -0.0737  0.1446  0.0009
 3727W        W 7246   6.731   5.590   0.700 -0.0421  0.1629 -0.3237
 3728W        W 7247   5.815   7.746   1.547 -0.0834  0.2842  0.2753
 3729W        W 7248   0.295   2.418  10.075  0.1183 -0.1469  0.2448
 3730W        W 7249   3.968   3.183   3.079  0.1418 -0.3491 -0.2729
 3731W        W 7250   1.488   3.532  11.601 -0.4511  0.0052  0.0487
 3732W        W 7251   0.188   3.678  10.401  0.0174 -0.2260 -0.0300
 3733W        W 7252   4.055   6.331   9.932  0.4451  0.0903  0.1570
 3734W        W 7253   5.301   0.592   2.711 -0.0814 -0.3065  0.1071
 3735W        W 7254   8.428   7.251  12.340 -0.1701  0.0988 -0.1038
 3736W        W 7255   8.619   6.759   8.572  0.1309  0.0562  0.0220
 3737W        W 7256   0.111   1.255   9.990  0.0407 -0.0450  0.0266
 3738W        W 7257   2.135   6.737   2.769 -0.1486 -0.0928 -0.1690
 3739W        W 7258   2.662   2.487   3.954 -0.1416 -0.1978  0.0597
 3740W        W 7259   9.275   3.208   4.066 -0.0285  0.1665  0.2669
 3741W        W 7260   6.227   8.994   1.760 -0.1905 -0.0417 -0.4039
 3742W        W 7261   8.752   3.774  10.745  0.1938  0.1374  0.1492
 3743W        W 7262   0.174   7.460   0.239  0.5101 -0.4633 -0.2551
 3744W        W 7263   7.613   6.878   4.081 -0.2521  0.0634 -0.1617
 3745W        W 7264   2.886   2.464  10.925 -0.0367 -0.0138  0.1970
 3746W        W 7265   8.387   6.465  11.183 -0.0599  0.1950  0.1164
 3747W        W 7266   8.186   7.710   1.742  0.0676  0.0403 -0.2009
 3748W        W 7267   6.159   4.729   1.212 -0.3060 -0.0962  0.0579
 3749W        W 7268   7.409   6.325   3.220 -0.2299  0.1291 -0.4023
 3750W        W 7269   2.668   5.410   1.559 -0.0173  0.0226  0.0048
 3751W        W 7270   7.544   1.846  11.241  0.0962 -0.0977  0.1807
 3752W        W 7271   5.777   5.725   3.809 -0.0977 -0.0461 -0.4380
 3753W        W 7272   4.821   9.361   1.909 -0.0344  0.1044 -0.1883
 3754W        W 7273   3.000   8.253   0.642 -0.0249  0.2012  0.0026
 3755W        W 7274   7.076   0.037  12.269 -0.2963  0.1384  0.2683
 3756W        W 7275   9.558   9.647   3.649  0.2467 -0.0645  0.1824
 3757W        W 7276   1.891   8.764   0.069  0.1999 -0.1929  0.0249
 3758W        W 7277   8.803   3.182   1.004  0.2677  0.2283  0.1159
 3759W        W 7278   1.446   9.305   0.862 -0.0044 -0.1641 -0.0392
 3760W        W 7279   2.286   9.539   2.212  0.0736 -0.1810  0.1034
 3761W        W 7280   2.031   7.129   0.655  0.0849 -0.0164 -0.0159
 3762W        W 7281   1.222   6.042   0.221 -0.3321  0.1402  0.1101
 3763W        W 7282   1.098   6.168   0.738  0.2052  0.1472 -0.0886
 3764W        W 7283   0.618   0.263   3.955 -0.1084 -0.0044  0.0001
 3765W        W 7284   9.397   1.791  11.016  0.0742  0.0064 -0.0561
 3766W        W 7285   3.027   4.761   2.244  0.2120  0.0497 -0.1360
 3767W        W 7286   5.601   0.239   0.913 -0.1054 -0.2856  0.1180
 3768W        W 7287   1.154   1.212   8.689 -0.2360 -0.0215  0.1645
 3769W        W 7288   4.479   7.242   0.795  0.0844 -0.2896 -0.2837
 3770W        W 7289   4.846   0.955   1.417 -0.1915 -0.0561  0.0768
 3771W        W 7290   1.131   7.934  11.105 -0.0970  0.2619 -0.2905
 3772W        W 7291   9.362   5.909   2.028 -0.2143 -0.1992 -0.1461
 3773W        W 7292   2.034   2.559   1.687  0.0689  0.0118  0.0879
 3774W        W 7293   5.684   0.425   3.473  0.0237 -0.0788  0.0674
 3775W        W 7294   0.108   4.541  10.340  0.0143 -0.1273  0.1671
 3776W        W 7295   7.261   7.631   0.111 -0.0194 -0.2793 -0.1012
 3777W        W 7296   4.845   8.998   3.621 -0.0936  0.0019  0.1905
 3778W        W 7297   2.375   3.461   0.526  0.0657 -0.2319  0.2438
 3779W        W 7298   7.381   8.970   0.450  0.0565  0.3767 -0.2810
 3780W        W 7299   0.129   4.766  11.398  0.3233  0.1138 -0.1904
 3781W        W 7300   2.757   7.646  11.119  0.1759 -0.0196  0.0559
 3782W        W 7301   7.831   8.149   1.523 -0.0719  0.2572  0.1671
 3783W        W 7302   1.626   1.522   9.509  0.0768 -0.0289 -0.3237
 3784W        W 7303   4.276   7.329  10.824 -0.0064 -0.1265 -0.0912
 3785W        W 7304   9.645   6.873   0.312  0.0381 -0.0448 -0.0897
 3786W        W 7305   8.564   2.486  11.327  0.0345 -0.0196  0.1390
 3787W        W 7306   3.213   3.179   0.055  0.2673  0.0026  0.0643
 3788W        W 7307   1.470   6.421   9.592  0.1920  0.0064  0.0287
 3789W        W 7308   6.855   3.421  11.172  0.2066  0.2368 -0.1782
 3790W        W 7309   1.925   5.323   1.757 -0.0067 -0.4882  0.2031
 3791W        W 7310   3.620   6.871   0.768 -0.3418  0.1505 -0.1775
 3792W        W 7311   1.114   7.742   4.502 -0.3132 -0.0809 -0.1862
 3793W        W 7312   8.231   3.642  10.956 -0.2373  0.0979 -0.0733
 3794W        W 7313   3.029   1.365  11.733 -0.0975 -0.2731 -0.1303
 3795W        W 7314   9.602   0.560  10.462 -0.1913  0.1037 -0.0550
 3796W        W 7315   5.900   5.523   8.807  0.2178  0.2602 -0.0956
 3797W        W 7316   6.524   3.432   3.654  0.1694 -0.0174  0.3826
 3798W        W 7317   8.646   3.441  11.168  0.2242  0.1701 -0.0967
 3799W        W 7318   6.279   0.713   2.833 -0.2264 -0.0152  0.7643
 3800W        W 7319   9.521   1.654   4.252 -0.0026 -0.0243 -0.1162
 3801W        W 7320   5.531   4.948   8.784 -0.1007  0.2627  0.1033
 3802W        W 7321   0.441   6.656   2.015 -0.1690  0.2215 -0.2773
 3803W        W 7322   0.122   0.433  12.418  0.0262 -0.0789  0.0065
 3804W        W 7323   5.816   0.214   1.918 -0.1195  0.0414  0.0741
 3805W        W 7324   3.873   4.432  11.617 -0.3023 -0.0543 -0.2667
 3806W        W 7325   5.763   5.595   3.267  0.0437  0.1616 -0.2917
 3807W        W 7326   2.316   3.534   3.374  0.0253  0.0662 -0.0614
 3808W        W 7327   5.450   2.290   3.374  0.2138  0.0460 -0.1621
 3809W        W 7328   6.633   2.077   3.631  0.4685 -0.0663 -0.2282
 3810W        W 7329   3.827   2.523  10.636 -0.1050  0.1618 -0.3252
 3811W        W 7330   0.430   9.183   1.619  0.0122  0.1745 -0.2283
 3812W        W 7331   2.143   3.688   3.945  0.1402  0.0309  0.0234
 3813W        W 7332   0.108   5.565   0.430 -0.0739  0.0927 -0.1012
 3814W        W 7333   0.557   7.131  11.451 -0.1778 -0.0896  0.0501
 3815W        W 7334   0.684   9.608  11.178  0.2206  0.0584 -0.0761
 3816W        W 7335   7.342   0.494  11.410 -0.1227  0.1997 -0.3323
 3817W        W 7336   2.947   8.552   8.645 -0.0847  0.0918 -0.1698
 3818W        W 7337   7.012   4.795   1.021  0.2457  0.2090  0.3976
 3819W        W 7338   0.084   8.656   1.435  0.0257 -0.0254  0.1286
 3820W        W 7339   5.467   6.227   9.957 -0.0407 -0.1935  0.2191
 3821W        W 7340   4.403   1.012   3.746 -0.1971  0.0915 -0.0930
 3822W        W 7341   7.472   5.511  12.110 -0.1075 -0.0490  0.3721
 3823W        W 7342   6.971   2.836   1.170 -0.3007 -0.0010  0.0947
 3824W        W 7343   5.131   8.019   0.916  0.2436  0.1203  0.1792
 3825W        W 7344   1.455   5.202   0.672  0.1548  0.1059 -0.2270
 3826W        W 7345   4.411   7.764   0.911  0.3362 -0.0888 -0.1705
 3827W        W 7346   6.765   9.095   9.386  0.4368  0.0867 -0.1009
 3828W        W 7347   5.191   5.818   9.906  0.0129  0.3650  0.0410
 3829W        W 7348   8.110   9.579   9.304 -0.3502  0.3610 -0.1003
 3830W        W 7349   4.535   7.007   2.411 -0.3059 -0.0786 -0.1530
 3831W        W 7350   2.907   3.807   9.801 -0.2383  0.1665 -0.1248
 3832W        W 7351   3.899   4.531   8.934 -0.0860 -0.1637  0.2213
 3833W        W 7352   2.885   2.038   9.499 -0.1050  0.1510  0.1270
 3834W        W 7353   0.371   1.055   3.166  0.1842 -0.3457  0.0770
 3835W        W 7354   2.965   3.639   4.621  0.0532 -0.0566 -0.1536
 3836W        W 7355   4.148   6.569   7.877 -0.2155 -0.1995  0.2395
 3837W        W 7356   5.636   8.791   8.505  0.5901 -0.1792 -0.2741
 3838W        W 7357   4.971   8.364   1.426  0.0605  0.3201  0.2416
 3839W        W 7358   0.470   8.574   2.408  0.0023  0.3971  0.1965
 3840W        W 7359   0.419   6.733   9.509 -0.1633  0.1875 -0.1734
 3841W        W 7360   9.052   8.267  11.124  0.2037 -0.2245  0.0057
 3842W        W 7361   4.761   8.426   0.945  0.3761  0.1518  0.1687
 3843W        W 7362   7.186   0.608  11.916 -0.3857 -0.1033 -0.2025
 3844W        W 7363   8.671   5.506   3.765  0.2232  0.2783  0.0760
 3845W        W 7364   5.328   1.634   0.846 -0.0897 -0.1205 -0.1321
 3846W        W 7365   6.101   2.343   4.395  0.2078  0.1130 -0.1422
 3847W        W 7366   9.022   8.229   3.260 -0.3476 -0.1211  0.0857
 3848W        W 7367   7.970   7.473  11.097  0.2379  0.0584 -0.0731
 3849W        W 7368   5.980   4.792   3.922 -0.1289  0.0101  0.0936
 3850W        W 7369   0.549   6.119   2.763  0.2712 -0.1167  0.0185
 3851W        W 7370   5.091   6.642   1.194  0.0577  0.1927  0.1875
 3852W        W 7371   0.160   6.261   3.152 -0.3630 -0.2091  0.0950
 3853W        W 7372   7.543   4.134   1.142  0.1547 -0.0661 -0.0180
 3854W        W 7373   9.382   2.848  11.492 -0.2147 -0.1981  0.0426
 3855W        W 7374   8.471   4.407   0.723 -0.0865  0.2369 -0.3325
 3856W        W 7375   2.883   0.835   3.509 -0.1233  0.0209 -0.2218
 3857W        W 7376   8.763   1.058   0.067 -0.0210  0.2899  0.3509
 3858W        W 7377   8.202   2.098  11.349  0.0906  0.0368  0.3498
 3859W        W 7378   2.684   4.409   3.752  0.0624 -0.0903 -0.0571
 3860W        W 7379   0.689   7.055   9.774 -0.3346 -0.1322 -0.1216
 3861W        W 7380   9.673   4.247   1.718 -0.0936  0.2060 -0.0110
 3862W        W 7381   1.581   6.661   2.032 -0.0891 -0.0201  0.0186
 3863W        W 7382   7.019   0.120   2.466 -0.1739  0.1444 -0.1323
 3864W        W 7383   8.479   2.557   1.689  0.2953 -0.1148 -0.1749
 3865W        W 7384   9.362   2.571  11.942  0.1504  0.1006  0.0339
 3866W        W 7385   7.115   5.281   0.743 -0.0909  0.1093  0.1104
 3867W        W 7386   4.818   3.428   2.817  0.1802 -0.4217 -0.0672
 3868W        W 7387   6.051   4.749  11.013 -0.1010 -0.1866  0.0303
 3869W        W 7388   2.897   3.238   0.445 -0.2086 -0.0567 -0.1302
 3870W        W 7389   3.287   3.775   9.163 -0.0493 -0.4820 -0.2457
 3871W        W 7390   7.018   4.531   3.762 -0.1189  0.1067 -0.0853
 3872W        W 7391   2.900   1.847   0.912  0.2752  0.2408  0.0952
 3873W        W 7392   4.788   1.417  11.661  0.1063 -0.2265  0.1354
 3874W        W 7393   9.615   4.821   4.152  0.1883 -0.1029 -0.1791
 3875W        W 7394   3.644   0.199   3.508  0.2051  0.2768 -0.0880
 3876W        W 7395   1.034   3.609  12.056  0.1740  0.0461 -0.0975
 3877W        W 7396   2.286   6.055   9.452 -0.1462  0.0533 -0.0390
 3878W        W 7397   9.444   8.301  12.073  0.0910  0.0046 -0.1218
 3879W        W 7398   6.267   4.389  10.797 -0.4020  0.0531 -0.3222
 3880W        W 7399   0.651   3.964  12.215 -0.0551 -0.0225  0.1378
 3881W        W 7400   6.406   9.607   2.490  0.0474  0.1811  0.0513
 3882W        W 7401   0.370   9.056   2.433  0.0500  0.2181 -0.3917
 3883W        W 7402   7.732   4.872   2.366  0.0039 -0.2130 -0.1898
 3884W        W 7403   6.429   3.096   9.392  0.4513  0.0509 -0.2683
 3885W        W 7404   8.662   8.349   2.946 -0.1224 -0.2679  0.2249
 3886W        W 7405   5.435   5.954   1.389  0.1324 -0.1631  0.3213
 3887W        W 7406   9.592   1.412  12.086  0.1533  0.2481  0.0269
 3888W        W 7407   3.406   0.732   8.508 -0.1409  0.0250 -0.0060
 3889W        W 7408   6.870   8.159  10.454  0.0603  0.0688  0.3017
 3890W        W 7409   2.196   8.007   3.617  0.1638 -0.4098 -0.0083
 3891W        W 7410   5.557   3.101   3.217  0.3599  0.1294  0.0881
 3892W        W 7411   5.280   5.744  10.367  0.1858  0.2783  0.1807
 3893W        W 7412   1.283   1.191   9.157 -0.1561  0.2059 -0.2121
 3894W        W 7413   1.060   8.465   0.146 -0.0088 -0.1009  0.0051
 3895W        W 7414   5.249   4.036   0.457 -0.0035  0.1160  0.0514
 3896W        W 7415   3.737   6.005   9.678  0.2256  0.0700 -0.0065
 3897W        W 7416   2.523   1.687  12.088  0.0738  0.0634 -0.1941
 3898W        W 7417   4.557   8.711  10.467 -0.1198  0.0145 -0.3394
 3899W        W 7418   3.838   9.220  12.068 -0.0425  0.2834 -0.1670
 3900W        W 7419   8.084   7.150   9.143  0.0779  0.4539  0.1237
 3901W        W 7420   7.616   5.614  10.873 -0.1701  0.2074  0.0217
 3902W        W 7421   4.331   1.497   3.432 -0.1527  0.1659 -0.3132
 3903W        W 7422   8.266   8.783  11.018  0.0213  0.0915  0.0456
 3904W        W 7423   7.596   1.118   0.356  0.0381 -0.1427  0.3723
 3905W        W 7424   6.297   2.640  10.894 -0.0313 -0.0253 -0.3690
 3906W        W 7425   3.500   7.646   2.651 -0.3935  0.0701  0.2095
 3907W        W 7426   0.960   9.530   0.792  0.1926  0.3439  0.1189
 3908W        W 7427   1.140   6.629   2.768 -0.1470  0.0919  0.3899
 3909W        W 7428   3.466   8.698   4.685 -0.3306  0.2073  0.0228
 3910W        W 7429   4.200   2.853   3.412  0.2901 -0.3585 -0.3069
 3911W        W 7430   5.561   3.783   3.577  0.2546  0.0629  0.1579
 3912W        W 7431   6.601   8.079   8.508  0.3051  0.0310 -0.1059
 3913W        W 7432   2.919   3.755  10.697  0.1373 -0.1978  0.0019
 3914W        W 7433   3.393   2.195   8.758 -0.1538 -0.2512 -0.1547
 3915W        W 7434   4.016   4.989  11.832 -0.0122  0.2340 -0.1248
 3916W        W 7435   4.167   1.977  12.015  0.1594 -0.1111 -0.1844
 3917W        W 7436   5.386   2.690   8.791 -0.1291  0.1661  0.0565
 3918W        W 7437   6.526   6.221   8.001  0.0174  0.3710  0.1067
 3919W        W 7438   5.763   3.328   1.001  0.0487 -0.0067  0.0913
 3920W        W 7439   2.721   8.144   1.396 -0.2406 -0.2349  0.0956
 3921W        W 7440   0.440   2.989   3.330 -0.0585  0.3585  0.1651
 3922W        W 7441   8.660   6.364  10.739  0.0583  0.0324  0.2258
 3923W        W 7442   9.628   2.908   9.219  0.1441 -0.0913  0.0226
 3924W        W 7443   2.647   0.723   2.380  0.0055 -0.1294 -0.2186
 3925W        W 7444   2.509   2.404  11.494 -0.2474 -0.2126 -0.0580
 3926W        W 7445   8.341   9.336  10.953 -0.3717 -0.1331 -0.2586
 3927W        W 7446   4.447   2.553  12.087 -0.0089 -0.0441 -0.0060
 3928W        W 7447   8.980   0.868  11.002  0.2563  0.0629 -0.2477
 3929W        W 7448   4.356   3.328   3.565 -0.1369  0.1402 -0.1564
 3930W        W 7449   1.392   9.155  11.475  0.2050 -0.1507 -0.2321
 3931W        W 7450   0.345   6.888   1.435 -0.1000 -0.1929  0.1030
 3932W        W 7451   8.652   2.584  10.790  0.1717 -0.0207 -0.0263
 3933W        W 7452   1.624   9.658  11.108  0.1455  0.1725 -0.0292
 3934W        W 7453   8.755   4.810   3.235  0.0291  0.2104 -0.2149
 3935W        W 7454   7.517   0.952  11.786 -0.3434 -0.3828 -0.0227
 3936W        W 7455   8.018   7.788   1.272 -0.0518  0.1838  0.0310
 3937W        W 7456   8.055   2.644   4.591 -0.0027 -0.2938  0.0247
 3938W        W 7457   9.013   6.707  10.182  0.2805  0.4010 -0.2695
 3939W        W 7458   0.574   5.576   0.649 -0.1535  0.0587 -0.3155
 3940W        W 7459   3.934   2.402  11.786  0.2123 -0.0278  0.0688
 3941W        W 7460   4.262   7.680  11.211  0.2747 -0.1964 -0.1302
 3942W        W 7461   6.144   3.432   4.010 -0.1298 -0.2989  0.1142
 3943W        W 7462   4.445   7.991   1.791  0.0420  0.3738 -0.1342
 3944W        W 7463   8.869   4.439   2.874  0.1635 -0.2976 -0.1657
 3945W        W 7464   8.332   5.421  11.709 -0.1853 -0.0743  0.4904
 3946W        W 7465   6.544   0.715   9.178  0.1345 -0.3411  0.1643
 3947W        W 7466   0.057   9.682   9.382 -0.0752 -0.1827 -0.0799
 3948W        W 7467   3.373   8.934   0.517  0.0612 -0.4965  0.0486
 3949W        W 7468   4.892   4.467   1.630  0.3317  0.4068  0.0669
 3950W        W 7469   3.235   6.284   4.200 -0.0782 -0.0940  0.0106
 3951W        W 7470   6.342   8.336   8.119 -0.0212  0.0656 -0.2138
 3952W        W 7471   3.814   0.019  10.218 -0.0021  0.0336 -0.1410
 3953W        W 7472   6.996   8.123   9.964  0.0924  0.1400  0.4511
 3954W        W 7473   8.925   1.467  10.047  0.3278 -0.1533  0.0510
 3955W        W 7474   3.025   1.765  12.028 -0.0524  0.0503 -0.4245
 3956W        W 7475   1.384   2.596   0.008  0.1361 -0.1133 -0.2286
 3957W        W 7476   2.476   9.677  12.068  0.1040 -0.0955  0.2537
 3958W        W 7477   6.695   7.827   8.919 -0.0998  0.1655 -0.2480
 3959W        W 7478   2.770   4.177  11.979 -0.1277  0.0806  0.4732
 3960W        W 7479   5.059   1.297   7.663 -0.4131 -0.4703 -0.2287
 3961W        W 7480   5.194   9.061   2.080 -0.3240  0.4135 -0.0320
 3962W        W 7481   8.308   3.520   9.393 -0.1098  0.0678 -0.1272
 3963W        W 7482   9.690   6.717   1.774  0.2874 -0.2940  0.1058
 3964W        W 7483   6.395   3.486  11.488  0.2759  0.2205 -0.1810
 3965W        W 7484   1.243   3.357   3.784  0.0155  0.2199  0.2247
 3966W        W 7485   2.869   3.640   3.065 -0.0389 -0.3993  0.0413
 3967W        W 7486   3.922   4.413   2.050  0.1024  0.0788 -0.1187
 3968W        W 7487   1.281   6.920   3.669  0.2107  0.2937  0.1323
 3969W        W 7488   4.216   8.420   4.084  0.0126 -0.1528 -0.0669
 3970W        W 7489   5.619   8.214   2.587  0.4922 -0.2618 -0.1666
 3971W        W 7490   2.811   6.478  12.339 -0.0956  0.0246  0.3363
 3972W        W 7491   4.149   6.316  10.770  0.0651  0.2447  0.1578
 3973W        W 7492   4.536   4.881  10.468 -0.2295 -0.1628 -0.2462
 3974W        W 7493   0.469   6.010   4.239  0.1085 -0.2177 -0.0622
 3975W        W 7494   5.973   4.337   2.004 -0.0778 -0.4128 -0.0381
 3976W        W 7495   2.331   4.391   0.307  0.1897  0.0896  0.1802
 3977W        W 7496   6.724   6.870   8.616 -0.0306  0.2105 -0.1360
 3978W        W 7497   9.331   7.413   0.213 -0.2838 -0.0577 -0.0492
 3979W        W 7498   1.257   1.133   2.541 -0.0763  0.0680  0.0774
 3980W        W 7499   1.625   4.694   3.471 -0.1156 -0.3039 -0.2804
 3981W        W 7500   6.435   2.570   3.478  0.0954 -0.1079 -0.0726
 3982W        W 7501   0.408   5.805   8.888  0.0294  0.3812 -0.1036
 3983W        W 7502   7.698   6.006   0.387 -0.0829 -0.0558 -0.0552
 3984W        W 7503   1.131   6.065   9.481 -0.0182 -0.1536  0.3238
 3985W        W 7504   4.493   1.689   2.511  0.1321  0.1126  0.2652
 3986W        W 7505   6.985   8.798  11.284 -0.1430 -0.0901 -0.1170
 3987W        W 7506   1.383   0.859   0.789 -0.0637  0.1374 -0.0887
 3988W        W 7507   6.526   8.121  11.339 -0.2806 -0.1956 -0.2265
 3989W        W 7508   5.795   1.772   0.033  0.0874 -0.1583 -0.0463
 3990W        W 7509   1.907   3.182   1.778 -0.1482 -0.1808 -0.0133
 3991W        W 7510   7.622   3.394   0.599  0.0244  0.0343  0.0454
 3992W        W 7511   6.733   6.641  12.184  0.0759 -0.0362  0.1048
 3993W        W 7512   1.328   4.976  11.701  0.0117 -0.2570  0.0717
 3994W        W 7513   7.727   8.690   1.187  0.2124 -0.2874 -0.2049
 3995W        W 7514   1.118   8.590   1.738  0.0740 -0.4773  0.1013
 3996W        W 7515   6.401   1.620   4.440 -0.0460 -0.1131  0.1198
 3997W        W 7516   7.462   9.046  11.344 -0.0942  0.2946 -0.0334
 3998W        W 7517   2.217   3.771   4.445  0.2032  0.2686  0.2311
 3999W        W 7518   8.915   8.841   2.559  0.0566  0.3118  0.1782
 4000W        W 7519   7.813   7.170   3.751  0.0674  0.0487  0.3109
 4001W        W 7520   4.199   6.622   1.339 -0.0870  0.2879  0.0352
 4002W        W 7521   0.524   3.857   0.962  0.2664 -0.0372 -0.0407
 4003W        W 7522   6.045   3.804   3.639  0.2448 -0.2347  0.1372
 4004W        W 7523   4.964   3.494   1.077  0.1053  0.0869 -0.0297
 4005W        W 7524   2.483   1.413  10.807  0.1296  0.2245 -0.1205
 4006W        W 7525   7.469   3.127   3.767  0.0972  0.1077 -0.0114
 4007W        W 7526   9.084   1.862  11.539  0.0542  0.0066  0.0527
 4008W        W 7527   2.916   2.903   0.877  0.1217  0.2050 -0.0295
 4009W        W 7528   8.190   7.704  12.359  0.2241  0.0307 -0.1448
 4010W        W 7529   9.299   2.303  12.438  0.1517  0.2253  0.1899
 4011W        W 7530   9.161   6.470  12.144 -0.4408 -0.1597  0.1552
 4012W        W 7531   7.381   8.774   2.443  0.0416 -0.0592 -0.1425
 4013W        W 7532   2.300   5.458   0.601 -0.2379 -0.1652 -0.1119
 4014W        W 7533   0.179   3.364  11.182  0.5559  0.2939 -0.0227
 4015W        W 7534   5.002   7.091   3.286 -0.0845 -0.1246  0.1905
 4016W        W 7535   5.955   7.884   2.445  0.0901  0.2126 -0.0836
 4017W        W 7536   1.058   3.516   8.833  0.0862  0.1179  0.0961
 4018W        W 7537   4.342   8.721   3.625  0.2842 -0.1065  0.0896
 4019W        W 7538   3.790   1.350  11.464  0.2626 -0.0344  0.1779
 4020W        W 7539   2.474   6.818   1.817 -0.2137 -0.1944 -0.0255
 4021W        W 7540   5.737   1.524  12.127  0.1087  0.0145  0.1700
 4022W        W 7541   5.158   8.262   4.085  0.1757  0.0256  0.2193
 4023W        W 7542   3.581   2.969  10.646  0.1215  0.0595 -0.0980
 4024W        W 7543   2.830   7.976  12.306 -0.4372 -0.0987  0.1054
 4025W        W 7544   1.177   9.069   1.902  0.2532 -0.1454 -0.0967
 4026W        W 7545   9.417   1.647   9.956 -0.1543 -0.1512  0.0274
 4027W        W 7546   0.966   1.077   3.841  0.0659 -0.1467  0.3124
 4028W        W 7547   4.193   6.753   2.709  0.0282  0.1691  0.0845
 4029W        W 7548   3.244   1.086   0.219  0.0213 -0.1568 -0.0825
 4030W        W 7549   3.994   9.058   3.529 -0.0183 -0.2193  0.2490
 4031W        W 7550   7.861   1.792   9.316 -0.1618  0.2718  0.1462
 4032W        W 7551   6.944   4.580   2.004 -0.2802  0.1178  0.2309
 4033W        W 7552   5.890   6.318   2.089 -0.0035  0.1355  0.2552
 4034W        W 7553   3.232   4.501   3.038  0.1342  0.1149 -0.1618
 4035W        W 7554   4.815   9.398   9.513  0.1708  0.1649 -0.0291
 4036W        W 7555   6.018   0.107  10.260  0.3220  0.0841 -0.0576
 4037W        W 7556   3.005   3.951   1.644 -0.2627  0.2172  0.0577
 4038W        W 7557   0.489   5.495  11.218 -0.0375  0.0442  0.0674
 4039W        W 7558   3.381   7.660   8.162 -0.1718 -0.0687  0.0759
 4040W        W 7559   7.547   2.585   2.278 -0.1381  0.2960  0.0569
 4041W        W 7560   7.762   8.932   8.643 -0.0577  0.0280  0.0620
 4042W        W 7561   4.027   1.407   0.300 -0.0896  0.1579  0.2345
 4043W        W 7562   9.020   7.837   8.689 -0.0853  0.2335 -0.0973
 4044W        W 7563   8.923   7.325   1.539 -0.1490  0.3327  0.2601
 4045W        W 7564   2.374   0.424  11.741  0.1624 -0.1342  0.3381
 4046W        W 7565   4.397   9.144  11.361 -0.1267 -0.1125  0.1262
 4047W        W 7566   2.009   6.186   1.304 -0.0171 -0.1418  0.2919
 4048W        W 7567   2.032   8.540   3.465  0.1185  0.0510 -0.0244
 4049W        W 7568   1.193   2.369   3.219 -0.3888  0.0210  0.3125
 4050W        W 7569   8.114   6.231   3.588  0.0133 -0.1071 -0.1074
 4051W        W 7570   1.336   3.211   3.330 -0.3442  0.0159 -0.0455
 4052W        W 7571   8.671   9.419   9.932 -0.1933  0.0431  0.1889
 4053W        W 7572   5.776   4.312   3.865 -0.0500 -0.1922  0.1687
 4054W        W 7573   7.214   0.707   0.203  0.0204 -0.0174  0.0972
 4055W        W 7574   5.767   6.616   0.565 -0.0525  0.0765  0.3271
 4056W        W 7575   5.959   0.650  12.131  0.0585  0.1971  0.1853
 4057W        W 7576   4.422   8.873   0.782  0.1263 -0.3209 -0.0751
 4058W        W 7577   2.442   8.981  11.289 -0.1531 -0.0149 -0.0760
 4059W        W 7578   6.072   7.303  12.040 -0.0427 -0.1276  0.0296
 4060W        W 7579   1.312   1.695   9.007  0.3178  0.1982 -0.3909
 4061W        W 7580   1.484   3.280   2.010  0.1764 -0.1420  0.1247
 4062W        W 7581   6.419   5.439   2.981 -0.1152 -0.4878 -0.0908
 4063W        W 7582   9.319   9.440   1.083 -0.3512 -0.1259 -0.0579
 4064W        W 7583   5.038   5.714   2.215 -0.0701  0.1797  0.2575
 4065W        W 7584   7.308   3.426   9.092  0.1034 -0.0996 -0.2831
 4066W        W 7585   2.246   3.541  11.767  0.3740  0.0914 -0.4021
 4067W        W 7586   6.831   7.048   9.126  0.3623  0.0723  0.3806
 4068W        W 7587   7.947   9.010  10.109 -0.0726  0.1698  0.1015
 4069W        W 7588   5.984   7.890   9.177 -0.3458  0.1094  0.2870
 4070W        W 7589   2.266   4.645   9.717  0.1163  0.1798 -0.0213
 4071W        W 7590   0.521   3.338   0.277  0.0254  0.1893 -0.0840
 4072W        W 7591   8.156   4.472  12.063  0.0412  0.0382 -0.0670
 4073W        W 7592   1.927   7.082   9.874 -0.1536  0.0679  0.0693
 4074W        W 7593   7.068   2.290   0.065 -0.1841  0.1857  0.2071
 4075W        W 7594   5.342   7.594  10.506 -0.0111 -0.4358  0.1292
 4076W        W 7595   0.636   3.831   8.476 -0.0766  0.1592  0.0263
 4077W        W 7596   5.897   8.498   2.246  0.2572 -0.2737  0.2263
 4078W        W 7597   6.581   3.989   9.429  0.0131 -0.2438 -0.0511
 4079W        W 7598   5.863   1.907   3.126 -0.0679  0.0416 -0.1228
 4080W        W 7599   7.675   5.400   2.492  0.1951  0.2560 -0.1166
 4081W        W 7600   2.091   6.525   9.270 -0.1834 -0.4631  0.0465
 4082W        W 7601   0.436   3.330   3.900  0.4040  0.2449 -0.1245
 4083W        W 7602   5.788   3.552   3.081  0.1175 -0.1755  0.0277
 4084W        W 7603   0.547   8.079   2.478  0.0210 -0.0765 -0.0293
 4085W        W 7604   1.306   6.048   9.994 -0.3318  0.0374 -0.0953
 4086W        W 7605   8.574   8.424  11.156  0.0707  0.0391 -0.1626
 4087W        W 7606   5.921   1.439   2.881  0.0776  0.5027 -0.2820
 4088W        W 7607   9.241   5.371   0.453 -0.0684  0.0254  0.0039
 4089W        W 7608   1.028   5.065   2.304  0.3464 -0.1086 -0.0085
 4090W        W 7609   2.940   1.002   2.065 -0.1325  0.1167 -0.1506
 4091W        W 7610   1.692   2.220   3.213 -0.1363  0.4435 -0.3140
 4092W        W 7611   1.042   4.084  11.854  0.2293 -0.0983 -0.1394
 4093W        W 7612   1.288   9.362  11.888 -0.0236  0.0070  0.3408
 4094W        W 7613   9.587   2.299   3.592  0.2203 -0.1196 -0.2380
 4095W        W 7614   0.948   8.591   0.734 -0.0560 -0.3993 -0.1345
 4096W        W 7615   8.844   6.012   1.687  0.1455  0.0535 -0.3896
 4097W        W 7616   0.703   8.712  12.218 -0.1036 -0.1784 -0.0679
 4098W        W 7617   2.648   1.259  11.391 -0.0006 -0.0883 -0.2040
 4099W        W 7618   5.194   3.104   2.821  0.0672  0.1819 -0.0485
 4100W        W 7619   4.367   4.073   0.707  0.1486 -0.0211 -0.1248
 4101W        W 7620   6.191   3.529   9.639  0.0729 -0.2902 -0.1209
 4102W        W 7621   5.062   2.758  10.567 -0.0341  0.4093  0.1979
 4103W        W 7622   5.515   6.433  10.584 -0.0278 -0.3028  0.3519
 4104W        W 7623   1.351   5.638   2.888 -0.0078  0.4755 -0.0196
 4105W        W 7624   2.124   5.315   1.335 -0.2176  0.0441  0.3173
 4106W        W 7625   5.292   1.309   8.574  0.0780  0.2977 -0.0351
 4107W        W 7626   5.544   9.032   3.597  0.1992 -0.3490  0.0136
 4108W        W 7627   7.285   7.934  10.732 -0.1410  0.0693  0.1665
 4109W        W 7628   4.529   4.118  10.429  0.3595  0.0815 -0.1385
 4110W        W 7629   3.928   7.554   4.182  0.1269  0.1599 -0.0130
 4111W        W 7630   2.235   2.226   9.928 -0.1164  0.1054 -0.1099
 4112W        W 7631   6.065   4.941   9.658 -0.0724 -0.0269 -0.3811
 4113W        W 7632   3.164   6.889   0.595  0.1155  0.1644 -0.4949
 4114W        W 7633   4.898   8.733   2.833 -0.0164  0.0585  0.1761
 4115W        W 7634   7.142   3.522  12.463 -0.3686 -0.2624  0.2148
 4116W        W 7635   0.598   7.502   9.608  0.1239  0.0647  0.0327
 4117W        W 7636   6.172   1.479   1.013  0.0604 -0.0084  0.0986
 4118W        W 7637   4.345   1.177   2.468  0.1268  0.1552  0.1222
 4119W        W 7638   3.036   7.787   3.089  0.0507  0.0616  0.0034
 4120W        W 7639   1.636   2.156   1.330 -0.3795 -0.2570  0.2765
 4121W        W 7640   0.545   8.902  10.555  0.0380 -0.0672  0.0263
 4122W        W 7641   4.733   2.798   0.383 -0.2599 -0.0561 -0.1809
 4123W        W 7642   8.404   0.109  11.930  0.0738  0.2515  0.0108
 4124W        W 7643   9.119   6.374   1.902 -0.0214  0.0762 -0.2466
 4125W        W 7644   7.591   1.531   0.141  0.3176  0.1551 -0.2250
 4126W        W 7645   3.147   3.725  11.397 -0.0833  0.1348  0.0275
 4127W        W 7646   4.176   6.826  10.785  0.2626 -0.2635 -0.1191
 4128W        W 7647   7.484   6.152  11.023  0.0430  0.0719  0.0664
 4129W        W 7648   9.485   8.877   2.812  0.0459  0.0146 -0.1471
 4130W        W 7649   6.151   5.263   0.058  0.0014  0.2147 -0.0572
 4131W        W 7650   8.791   6.416   1.347 -0.0100  0.1486 -0.0561
 4132W        W 7651   5.270   4.498   0.865  0.0478 -0.0314 -0.1845
 4133W        W 7652   3.586   6.425   1.449 -0.2657 -0.0735  0.2222
 4134W        W 7653   3.244   7.970   0.219 -0.1669  0.2065 -0.0017
 4135W        W 7654   4.396   6.560   3.137 -0.0191  0.2555 -0.0474
 4136W        W 7655   0.315   0.787   2.695 -0.2480  0.2845  0.2272
 4137W        W 7656   7.592   6.402   2.121 -0.2560  0.1498  0.0031
 4138W        W 7657   7.202   5.378  10.518 -0.2323  0.0983  0.2144
 4139W        W 7658   5.382   0.678   0.708 -0.3450  0.0439 -0.1885
 4140W        W 7659   3.434   2.592   0.007 -0.4467  0.0374  0.1589
 4141W        W 7660   8.947   8.281  12.153  0.0478  0.0608 -0.1009
 4142W        W 7661   5.248   1.488   3.603 -0.2182  0.3026  0.0676
 4143W        W 7662   9.279   1.793   2.294 -0.1695 -0.2211  0.0037
 4144W        W 7663   5.341   0.239   8.531 -0.1646  0.1455 -0.1838
 4145W        W 7664   0.945   4.076   4.409 -0.0581 -0.0165 -0.0116
 4146W        W 7665   9.174   0.935   1.754  0.0095 -0.2988 -0.4177
 4147W        W 7666   8.207   6.399  11.721  0.0194  0.0873  0.3425
 4148W        W 7667   8.779   5.728   9.987 -0.0757 -0.1929 -0.0246
 4149W        W 7668   1.194   1.888   3.363  0.3495 -0.1612  0.0978
 4150W        W 7669   5.625   0.523   1.539  0.1269 -0.1013 -0.0396
 4151W        W 7670   4.451   7.971  11.598 -0.1635 -0.1843  0.2713
 4152W        W 7671   1.752   1.399   9.010  0.1435 -0.1874 -0.0716
 4153W        W 7672   6.290   6.288   2.528  0.0781  0.2265  0.0115
 4154W        W 7673   3.388   7.054   3.173 -0.1881  0.0403  0.1296
 4155W        W 7674   7.658   7.392   4.198  0.2266 -0.2494 -0.3574
 4156W        W 7675   6.026   0.811   2.417  0.2812 -0.1467  0.0064
 4157W        W 7676   9.015   5.667   9.566  0.0238 -0.3127 -0.1154
 4158W        W 7677   0.189   4.589  10.851 -0.0089 -0.0540 -0.2364
 4159W        W 7678   4.617   6.988   3.936 -0.0093  0.1113  0.2429
 4160W        W 7679   5.355   5.047  10.216 -0.0488 -0.3884 -0.2196
 4161W        W 7680   4.560   6.508  11.622 -0.0114  0.1414  0.1068
 4162W        W 7681   4.233   3.604  12.078 -0.2528 -0.0341  0.0984
 4163W        W 7682   7.700   7.666  12.346 -0.3034 -0.0381 -0.1210
 4164W        W 7683   5.854   7.512   8.071  0.3781  0.3806  0.3681
 4165W        W 7684   4.094   2.326   2.621  0.1557 -0.0236 -0.2950
 4166W        W 7685   4.913   5.399   1.424 -0.3134  0.1879  0.2414
 4167W        W 7686   9.440   5.150   9.625 -0.0495 -0.0485  0.2576
 4168W        W 7687   4.259   5.602   2.919 -0.2760 -0.1190  0.2681
 4169W        W 7688   4.914   8.208  10.788 -0.2798 -0.4581 -0.1038
 4170W        W 7689   3.644   8.459  12.452  0.0760  0.0194 -0.0202
 4171W        W 7690   4.675   1.066  10.321  0.2356  0.2703 -0.0221
 4172W        W 7691   2.426   2.122   0.903  0.0121  0.0714  0.0377
 4173W        W 7692   3.038   7.774  11.861  0.1058 -0.1582 -0.0956
 4174W        W 7693   4.798   7.814  10.310 -0.1896  0.1733 -0.2087
 4175W        W 7694   8.122   6.053   2.545  0.0682 -0.0387 -0.0701
 4176W        W 7695   8.924   8.955   0.520 -0.3322 -0.2466  0.4487
 4177W        W 7696   3.373   3.273  10.296 -0.3911 -0.0052 -0.1264
 4178W        W 7697   8.831   9.071   1.018 -0.1597 -0.2707  0.0161
 4179W        W 7698   2.053   8.111  10.627  0.1898 -0.0462  0.1575
 4180W        W 7699   4.940   7.264   2.453  0.1868  0.2371  0.0610
 4181W        W 7700   5.872   3.008   3.992  0.2303  0.4921 -0.3303
 4182W        W 7701   0.828   7.533   4.158  0.1019 -0.2167  0.0402
 4183W        W 7702   5.332   6.545   4.070 -0.2913  0.1519 -0.2096
 4184W        W 7703   0.321   2.794   9.527 -0.0625  0.0934 -0.0726
 4185W        W 7704   4.225   0.627   9.670  0.0236 -0.1685 -0.2301
 4186W        W 7705   9.457   1.018  10.782  0.1037  0.0484  0.0553
 4187W        W 7706   3.836   4.476   2.528  0.1882  0.2831  0.0953
 4188W        W 7707   8.679   0.174   2.063  0.0249  0.4552 -0.1897
 4189W        W 7708   6.524   6.769  11.301  0.1976 -0.1489  0.1446
 4190W        W 7709   3.822   1.991   1.157  0.2477 -0.0237  0.0144
 4191W        W 7710   7.522   8.104   3.097  0.1337  0.1124  0.0382
 4192W        W 7711   0.774   0.631   3.642  0.0051 -0.6015  0.1517
 4193W        W 7712   2.182   3.387  12.513  0.2444 -0.0417 -0.2651
 4194W        W 7713   0.621   6.325   3.260 -0.3504 -0.0210  0.0189
 4195W        W 7714   7.619   2.699  11.724 -0.1090  0.1005 -0.0985
 4196W        W 7715   7.033   8.816  10.391 -0.2736 -0.0236  0.1960
 4197W        W 7716   1.483   6.473   3.973 -0.3210  0.1872  0.1627
 4198W        W 7717   7.109   4.816   0.019 -0.0935 -0.0544  0.0156
 4199W        W 7718   0.384   3.872   2.281  0.0245  0.0812  0.0566
 4200W        W 7719   8.324   2.063   9.096  0.0046  0.1113 -0.1349
 4201W        W 7720   7.581   4.530   9.150 -0.1192 -0.0276 -0.1064
 4202W        W 7721   0.759   7.839  10.827 -0.0707 -0.2572  0.4311
 4203W        W 7722   7.046   5.454   3.018  0.1475 -0.1735 -0.2042
 4204W        W 7723   9.318   1.150  11.339  0.0900 -0.4728  0.0375
 4205W        W 7724   7.683   8.289  11.699  0.0165  0.4051  0.1464
 4206W        W 7725   6.401   1.847   8.495 -0.1563 -0.0410 -0.2547
 4207W        W 7726   0.686   8.168   0.900  0.2183  0.0837 -0.0431
 4208W        W 7727   8.450   2.101   1.438  0.0654 -0.2082 -0.0161
 4209W        W 7728   8.617   1.830  10.325 -0.1740  0.1025 -0.0704
 4210W        W 7729   2.195   8.171   0.944 -0.0639  0.0132 -0.1755
 4211W        W 7730   9.300   0.074  11.168  0.0886 -0.0798  0.0127
 4212W        W 7731   2.974   6.198  10.733  0.0232 -0.1432 -0.0009
 4213W        W 7732   5.386   7.639  11.921 -0.1453 -0.1218 -0.0450
 4214W        W 7733   8.024   1.569  12.153 -0.0044 -0.0047 -0.0930
 4215W        W 7734   3.758   5.252  12.208  0.1940  0.2999  0.1948
 4216W        W 7735   4.650   5.639  11.958 -0.2827 -0.1268 -0.3458
 4217W        W 7736   2.568   4.017   4.213  0.1341  0.0151 -0.1120
 4218W        W 7737   3.198   7.944  10.989  0.0548 -0.1176  0.0074
 4219W        W 7738   3.314   4.406   4.041  0.1544 -0.0312 -0.1857
 4220W        W 7739   6.494   0.394   2.074  0.1544 -0.1865 -0.0718
 4221W        W 7740   3.414   2.124   4.427 -0.1691 -0.0341  0.0712
 4222W        W 7741   7.364   3.497  12.031 -0.3151  0.2484 -0.0671
 4223W        W 7742   5.303   6.060   2.442 -0.0638 -0.2138 -0.1508
 4224W        W 7743   9.646   4.166   9.609 -0.1551 -0.0887  0.0984
 4225W        W 7744   0.756   2.274   2.320 -0.1175  0.1741  0.1245
 4226W        W 7745   2.078   2.218   2.826 -0.1599 -0.2971  0.1686
 4227W        W 7746   8.235   4.793   2.154  0.0960  0.2961  0.2177
 4228W        W 7747   4.158   5.914  11.283  0.0905 -0.0554  0.1346
 4229W        W 7748   1.536   8.362   1.544  0.0130 -0.1424  0.2704
 4230W        W 7749   5.868   7.189   1.653  0.0915  0.0170  0.4412
 4231W        W 7750   2.618   2.421   9.096  0.1125 -0.2330  0.1664
 4232W        W 7751   9.034   1.005   2.371  0.3270  0.0551 -0.0575
 4233W        W 7752   7.460   7.577   0.764  0.1712 -0.2907  0.0585
 4234W        W 7753   9.656   0.937   0.293 -0.0628 -0.0023 -0.3746
 4235W        W 7754   0.878   7.222   8.778  0.3076 -0.0605 -0.1385
 4236W        W 7755   3.002   0.503  11.378 -0.0426 -0.0165  0.0582
 4237W        W 7756   9.354   5.708   0.892  0.0828  0.3063 -0.0309
 4238W        W 7757   1.331   1.174   9.728 -0.0515  0.1349 -0.2305
 4239W        W 7758   9.421   7.327  11.380  0.1626 -0.1464  0.1976
 4240W        W 7759   4.674   8.954   1.746 -0.1159  0.2184 -0.0841
 4241W        W 7760   3.512   8.701  11.978 -0.1454 -0.1072 -0.3790
 4242W        W 7761   9.634   8.910   2.359  0.0706 -0.1660 -0.1215
 4243W        W 7762   1.642   6.069   8.712  0.4158 -0.0908  0.3333
 4244W        W 7763   9.218   0.661   0.327 -0.1218 -0.1470  0.1625
 4245W        W 7764   3.441   0.139  12.098 -0.2548 -0.4496 -0.2029
 4246W        W 7765   6.974   1.758   3.239 -0.3157  0.2079 -0.0462
 4247W        W 7766   0.710   6.129   0.367 -0.0710 -0.0879  0.0612
 4248W        W 7767   5.624   7.480  10.986  0.0192 -0.3010 -0.1631
 4249W        W 7768   1.893   7.489   1.719  0.2693 -0.0503  0.2246
 4250W        W 7769   0.825   7.713   8.703 -0.1833 -0.2326  0.1027
 4251W        W 7770   6.406   6.027   0.826 -0.1454  0.1097  0.1027
 4252W        W 7771   7.860   1.243  11.014  0.2250  0.2381 -0.1573
 4253W        W 7772   4.088   0.498   1.315  0.0745  0.2320 -0.0779
 4254W        W 7773   6.498   6.678   8.986 -0.0376 -0.2641  0.0139
 4255W        W 7774   7.704   3.735  10.862  0.1446 -0.1467 -0.0211
 4256W        W 7775   0.975   2.335  12.261  0.1543  0.0536 -0.1392
 4257W        W 7776   0.554   7.546  11.757  0.0356  0.1889 -0.3828
 4258W        W 7777   1.020   1.582   9.927 -0.0742  0.0267  0.1367
 4259W        W 7778   4.167   1.851   9.090  0.1356  0.0627 -0.1208
 4260W        W 7779   7.536   8.079   9.810 -0.1117 -0.1737  0.0211
 4261W        W 7780   3.243   8.631   0.914  0.1007  0.1145  0.0356
 4262W        W 7781   5.291   4.444   1.353  0.0239  0.3107  0.0971
 4263W        W 7782   9.643   6.166  10.003  0.0203 -0.0901 -0.1994
 4264W        W 7783   1.465   3.299   0.370 -0.1973  0.0165  0.0403
 4265W        W 7784   4.523   3.811   8.405  0.1232 -0.1870  0.0943
 4266W        W 7785   1.668   3.017   4.428  0.1199  0.2344  0.0747
 4267W        W 7786   7.639   1.036   2.956  0.0030  0.0182 -0.2133
 4268W        W 7787   2.823   6.219   0.595 -0.2699  0.4450  0.0077
 4269W        W 7788   5.805   1.633   2.051  0.1476 -0.3595  0.0386
 4270W        W 7789   7.662   4.639  12.037  0.3290  0.2917  0.1103
 4271W        W 7790   6.224   1.030   8.900  0.0320  0.5181  0.0538
 4272W        W 7791   2.916   6.913   3.030  0.3469 -0.0006 -0.3263
 4273W        W 7792   8.662   5.505  11.268  0.1518  0.0648 -0.2828
 4274W        W 7793   9.267   6.193  10.385  0.0049 -0.0030 -0.3173
 4275W        W 7794   9.548   7.904   9.858  0.3510  0.0427  0.0189
 4276W        W 7795   2.113   6.762  10.661 -0.1166 -0.0642 -0.2440
 4277W        W 7796   6.163   2.423   1.987 -0.1175 -0.1754 -0.0928
 4278W        W 7797   6.776   9.121  10.889  0.4160  0.0708  0.0402
 4279W        W 7798   2.159   2.094   8.926 -0.2475 -0.2530  0.3750
 4280W        W 7799   9.564   5.320  10.367  0.1454  0.1908 -0.0164
 4281W        W 7800   0.219   3.009  10.701  0.0586 -0.3621  0.1004
 4282W        W 7801   6.834   7.153   1.394 -0.1131 -0.3438  0.1220
 4283W        W 7802   1.334   8.543   1.098  0.0585 -0.0013  0.0992
 4284W        W 7803   8.479   8.110  11.999 -0.1670  0.1047 -0.4928
 4285W        W 7804   5.884   2.350  10.869  0.0122  0.1639 -0.3993
 4286W        W 7805   4.252   5.650   3.884 -0.4521  0.1877 -0.0531
 4287W        W 7806   1.841   3.535   7.958  0.2348 -0.1927  0.2500
 4288W        W 7807   5.835   9.383   1.839  0.1588 -0.0414  0.0820
 4289W        W 7808   6.903   1.862   2.166  0.2056  0.0856 -0.2654
 4290W        W 7809   7.867   3.551   2.491 -0.1369  0.2074  0.0227
 4291W        W 7810   6.179   8.915  11.896 -0.1393 -0.3614 -0.1213
 4292W        W 7811   7.168   6.121   1.454  0.1378 -0.0838  0.2682
 4293W        W 7812   0.052   5.404   8.912  0.0137 -0.1144  0.1090
 4294W        W 7813   0.639   8.287  12.430 -0.3557 -0.1331 -0.3679
 4295W        W 7814   0.058   8.763   9.023 -0.3384  0.1102 -0.1354
 4296W        W 7815   8.425   1.876  12.473 -0.0391  0.3344 -0.0791
 4297W        W 7816   8.517   5.585   0.075 -0.0056  0.0993 -0.2844
 4298W        W 7817   5.623   4.343   0.468  0.1664 -0.0481  0.0525
 4299W        W 7818   9.633   7.630   1.471 -0.2834  0.1060 -0.1994
 4300W        W 7819   0.260   8.182  11.178  0.0777 -0.0990 -0.0724
 4301W        W 7820   8.768   7.159  11.445  0.0987 -0.5019  0.0466
 4302W        W 7821   2.780   5.607   9.820  0.1549  0.3647  0.0702
 4303W        W 7822   7.260   0.187   1.286  0.0603  0.0793 -0.1698
 4304W        W 7823   5.378   6.359   3.568  0.0103 -0.1139 -0.2284
 4305W        W 7824   1.252   9.368   0.381 -0.2438  0.3906 -0.1031
 4306W        W 7825   3.020   3.335   2.706  0.1775  0.2621 -0.0862
 4307W        W 7826   9.588   9.686  12.190  0.0701  0.2299  0.0956
 4308W        W 7827   2.288   2.380  12.224  0.0845 -0.1092  0.2458
 4309W        W 7828   3.073   7.541  12.511 -0.1803  0.0613 -0.0307
 4310W        W 7829   2.273   7.810   1.671 -0.0673 -0.0404  0.0120
 4311W        W 7830   8.063   6.852   0.006  0.4424  0.1063  0.0548
 4312W        W 7831   0.101   6.054  11.642 -0.0761 -0.3672 -0.1674
 4313W        W 7832   0.060   5.922   2.663  0.2539 -0.0118  0.2479
 4314W        W 7833   7.868   1.850   0.721  0.0278  0.3233 -0.2259
 4315W        W 7834   5.543   2.935  12.510  0.3114 -0.3336  0.2386
 4316W        W 7835   2.783   9.617   3.870  0.0308  0.0730  0.1506
 4317W        W 7836   5.369   1.862   1.298 -0.3285  0.0572  0.2113
 4318W        W 7837   1.687   3.545   4.122 -0.1804  0.2146  0.0693
 4319W        W 7838   5.668   2.876  11.613 -0.1512 -0.1425 -0.0063
 4320W        W 7839   5.991   0.702  11.457  0.0506  0.1770  0.2896
 4321W        W 7840   0.218   8.701  12.479  0.1699  0.0224 -0.0603
 4322W        W 7841   2.243   8.845  12.111  0.2811 -0.1316 -0.0081
 4323W        W 7842   2.078   0.069  11.336  0.2361  0.1359 -0.0649
 4324W        W 7843   3.032   7.516   0.519  0.0025 -0.3657  0.2196
 4325W        W 7844   8.374   3.335  10.601  0.1977 -0.2554 -0.1427
 4326W        W 7845   6.599   5.655  10.162 -0.2155 -0.1405 -0.0636
 4327W        W 7846   5.881   8.343   9.230 -0.1225 -0.4235 -0.2900
 4328W        W 7847   0.848   5.728   2.911 -0.2042  0.4166  0.1629
 4329W        W 7848   1.386   8.786  10.486 -0.1283  0.1916  0.1201
 4330W        W 7849   6.458   0.610  10.837  0.0297  0.1195 -0.1344
 4331W        W 7850   7.037   1.196  12.000 -0.0760 -0.2274 -0.0910
 4332W        W 7851   6.601   4.184   8.833 -0.1238  0.2861 -0.1720
 4333W        W 7852   0.030   2.912  12.145 -0.3588 -0.0815  0.1643
 4334W        W 7853   0.801   1.840  11.474 -0.1260 -0.2556  0.3767
 4335W        W 7854   2.218   6.273   3.923 -0.1240  0.0214  0.0600
 4336W        W 7855   8.848   9.312   2.415  0.1693 -0.1633 -0.2172
 4337W        W 7856   2.165   3.821   9.327  0.2835  0.2765  0.0937
 4338W        W 7857   3.137   5.247  10.532  0.2123 -0.0719  0.0568
 4339W        W 7858   4.131   3.374   1.344 -0.0742  0.1737 -0.5187
 4340W        W 7859   4.995   3.837   4.840 -0.0583 -0.4013 -0.0966
 4341W        W 7860   1.360   7.076   2.917 -0.2881 -0.2270 -0.2218
 4342W        W 7861   2.945   5.296   0.803  0.2700 -0.0419 -0.1308
 4343W        W 7862   8.689   1.359   1.159  0.2765 -0.1303 -0.0086
 4344W        W 7863   4.277   8.347  11.962  0.1405 -0.0306  0.1201
 4345W        W 7864   8.957   6.342   3.416  0.0031  0.1540  0.4373
 4346W        W 7865   7.013   2.921  10.439  0.0852 -0.1097  0.1525
 4347W        W 7866   8.099   7.933  10.193 -0.2216 -0.3847  0.1235
 4348W        W 7867   8.909   4.476   0.442 -0.2719  0.2375  0.1084
 4349W        W 7868   9.158   9.604   9.855 -0.1859 -0.1600  0.3190
 4350W        W 7869   2.622   4.213   0.660 -0.2080  0.1859 -0.1003
 4351W        W 7870   6.608   3.745   3.985  0.1134  0.0144  0.0098
 4352W        W 7871   8.364   4.377  11.633  0.2041 -0.0786 -0.1873
 4353W        W 7872   0.412   8.020  11.596 -0.1255  0.1848 -0.1307
 4354W        W 7873   5.504   7.880  12.447  0.1916 -0.2695 -0.0386
 4355W        W 7874   9.070   0.320   0.670  0.1148 -0.2582  0.1913
 4356W        W 7875   2.520   0.402   9.911 -0.0251  0.2237 -0.1102
 4357W        W 7876   8.643   6.357  12.152  0.1185  0.1754  0.2628
 4358W        W 7877   0.127   4.532   8.327 -0.0260  0.0529 -0.0223
 4359W        W 7878   5.726   6.366   9.555 -0.0044 -0.2505 -0.0671
 4360W        W 7879   9.395   2.465  10.118  0.1605 -0.0513 -0.0861
 4361W        W 7880   4.894   2.667   9.643  0.0638  0.1666 -0.0636
 4362W        W 7881   3.680   1.744   9.143  0.3346 -0.1871 -0.0950
 4363W        W 7882   8.363   4.485   3.088 -0.2429 -0.0793 -0.1255
 4364W        W 7883   4.647   2.101   3.307  0.0178 -0.0136 -0.0222
 4365W        W 7884   3.164   1.566   8.222  0.0340  0.0012  0.2937
 4366W        W 7885   5.601   2.013   9.941  0.2197 -0.5979 -0.0437
 4367W        W 7886   9.176   7.585   1.102  0.1439  0.0462 -0.1410
 4368W        W 7887   7.682   3.965   3.459  0.0426 -0.1301 -0.1803
 4369W        W 7888   8.145   0.448   1.238  0.0850  0.0100 -0.1062
 4370W        W 7889   4.992   2.484   3.591  0.2461  0.4905 -0.2973
 4371W        W 7890   8.080   0.803  10.952  0.0652 -0.1907 -0.2737
 4372W        W 7891   6.521   0.238   0.621  0.0762  0.1546 -0.0215
 4373W        W 7892   3.678   2.934   3.347  0.1519 -0.4137  0.0876
 4374W        W 7893   3.287   2.062  10.996  0.3778 -0.2828 -0.1723
 4375W        W 7894   3.318   8.335   3.639 -0.0117 -0.0289 -0.0413
 4376W        W 7895   1.651   2.061   2.636 -0.0819 -0.2353 -0.2571
 4377W        W 7896   8.399   5.899   1.241 -0.1782 -0.0234  0.2228
 4378W        W 7897   9.696   2.223  12.077 -0.0756 -0.1366 -0.2241
 4379W        W 7898   8.048   2.819  11.383  0.1460  0.2360 -0.2276
 4380W        W 7899   8.603   8.506   1.720  0.1691  0.2716 -0.1926
 4381W        W 7900   2.611   0.780   8.998 -0.0800 -0.0859 -0.0209
 4382W        W 7901   1.540   8.312   3.366  0.0521 -0.0956 -0.1210
 4383W        W 7902   1.824   3.303  10.423 -0.1670 -0.0275 -0.2842
 4384W        W 7903   3.060   4.379   8.323 -0.1802 -0.0930  0.0303
 4385W        W 7904   4.944   7.291  10.512  0.6241 -0.0640 -0.2642
 4386W        W 7905   1.191   9.366   3.627 -0.2613 -0.0387 -0.1010
 4387W        W 7906   8.691   9.617  11.216 -0.0495  0.2053  0.0261
 4388W        W 7907   9.429   2.146   1.970  0.0024  0.6454  0.0860
 4389W        W 7908   0.531   6.645  11.554  0.2880 -0.0482 -0.0173
 4390W        W 7909   3.113   9.262  12.349  0.0207 -0.0097 -0.2468
 4391W        W 7910   5.511   7.928   8.312  0.2104  0.1489 -0.2425
 4392W        W 7911   4.689   7.644  10.784  0.0067  0.0883  0.0751
 4393W        W 7912   9.247   8.155   2.454 -0.1004 -0.0357 -0.0241
 4394W        W 7913   9.215   1.860   2.857 -0.1800  0.0295  0.0352
 4395W        W 7914   9.336   9.019  10.470 -0.0561  0.0080 -0.1496
 4396W        W 7915   7.329   0.102  11.779  0.1830  0.3329 -0.2812
 4397W        W 7916   2.715   2.141  11.986  0.3429  0.0962 -0.1070
 4398W        W 7917   4.920   1.605  12.353 -0.0501  0.1612 -0.2502
 4399W        W 7918   7.378   9.035   9.990 -0.1467  0.0128 -0.1031
 4400W        W 7919   6.086   3.612   0.111 -0.1776 -0.1630  0.2395
 4401W        W 7920   2.775   5.146   0.340 -0.2637  0.0001 -0.2211
 4402W        W 7921   4.927   1.170   9.904  0.0226 -0.0936 -0.0354
 4403W        W 7922   5.998   9.124   8.697 -0.1103  0.0251  0.3626
 4404W        W 7923   7.987   7.996   3.337  0.2315  0.3226  0.2197
 4405W        W 7924   0.149   3.765   3.716  0.2207 -0.1661  0.0675
 4406W        W 7925   1.032   0.315   2.859 -0.0246 -0.3086  0.0691
 4407W        W 7926   2.926   4.102   8.987 -0.1354  0.1441 -0.0172
 4408W        W 7927   5.383   0.601   1.942 -0.0488  0.3857  0.2171
 4409W        W 7928   0.305   9.540   3.073 -0.4033  0.1150 -0.0118
 4410W        W 7929   4.599   1.963  10.428 -0.0787  0.2962  0.2513
 4411W        W 7930   7.011   4.167   2.574  0.2693  0.0430  0.1319
 4412W        W 7931   9.168   1.169   0.382  0.0505 -0.1012  0.0717
 4413W        W 7932   2.201   1.247   0.997  0.0413 -0.0338 -0.5190
 4414W        W 7933   5.437   0.931   2.292  0.2288 -0.1398  0.2116
 4415W        W 7934   3.719   7.820   8.914 -0.2807  0.0173 -0.1253
 4416W        W 7935   2.361   7.942   9.861  0.1761 -0.3217 -0.1191
 4417W        W 7936   7.134   2.456  10.361  0.0232  0.0839  0.2276
 4418W        W 7937   3.171   4.169   0.683  0.1927 -0.0853  0.2624
 4419W        W 7938   4.495   9.387  12.313  0.0720  0.0303  0.0411
 4420W        W 7939   5.662   3.063   2.030 -0.0375 -0.1379 -0.0758
 4421W        W 7940   5.234   0.130  10.850  0.2745  0.0831 -0.1610
 4422W        W 7941   5.209   6.193   8.645 -0.0514  0.2950 -0.2520
 4423W        W 7942   7.549   5.014  10.107  0.3043 -0.1224 -0.0585
 4424W        W 7943   2.083   8.909   1.461  0.0452 -0.3478 -0.3222
 4425W        W 7944   3.960   2.915   1.155  0.3423  0.2990 -0.0837
 4426W        W 7945   5.017   8.554   1.902 -0.1065  0.1195 -0.0758
 4427W        W 7946   8.706   2.792   2.772 -0.2566 -0.0210 -0.0938
 4428W        W 7947   0.787   4.294   9.936  0.0958 -0.3060  0.0120
 4429W        W 7948   7.669   2.282   2.784  0.1590  0.1588 -0.1779
 4430W        W 7949   5.707   5.168   0.323  0.2736  0.2226 -0.1191
 4431W        W 7950   6.226   3.915  10.560 -0.3706  0.1366 -0.0984
 4432W        W 7951   2.880   8.602  10.411  0.0895  0.0719 -0.0428
 4433W        W 7952   9.001   5.371   0.923  0.0227 -0.2493 -0.3041
 4434W        W 7953   9.282   4.600   4.460 -0.2384 -0.0904 -0.0920
 4435W        W 7954   3.897   3.776   4.285 -0.2304  0.1858 -0.2526
 4436W        W 7955   0.708   8.917  11.667 -0.0374 -0.1329 -0.0628
 4437W        W 7956   7.079   1.679  10.946 -0.1961  0.2136 -0.1239
 4438W        W 7957   5.223   4.423   4.072  0.0292  0.1346 -0.3044
 4439W        W 7958   3.492   5.165  10.182 -0.1508 -0.1599 -0.0020
 4440W        W 7959   0.583   7.850   1.266  0.2433 -0.2311  0.2425
 4441W        W 7960   8.521   3.478  11.725 -0.1821  0.2399 -0.0919
 4442W        W 7961   7.309   8.345   2.705 -0.1403  0.0106  0.0999
 4443W        W 7962   0.384   8.011   0.513 -0.2452  0.4240  0.0286
 4444W        W 7963   6.505   5.893   9.595 -0.2533 -0.1406 -0.2251
 4445W        W 7964   8.982   2.354   2.772  0.2504 -0.0394  0.1658
 4446W        W 7965   1.189   2.778  11.550 -0.0591  0.1836  0.2463
 4447W        W 7966   2.429   8.376   9.452  0.1662  0.1068 -0.2254
 4448W        W 7967   2.021   5.829   3.202  0.0952 -0.1590  0.0389
 4449W        W 7968   9.356   8.490   1.648  0.0261 -0.1664  0.0234
 4450W        W 7969   4.263   7.325   1.789 -0.4350 -0.0439  0.0156
 4451W        W 7970   7.863   5.693   1.737 -0.0335 -0.2412  0.4350
 4452W        W 7971   0.150   3.704   0.275 -0.0053  0.0110  0.2540
 4453W        W 7972   2.774   1.793   2.836 -0.1397  0.0121  0.0285
 4454W        W 7973   4.115   9.488  11.726 -0.0195  0.1936  0.0349
 4455W        W 7974   8.527   1.732  11.275 -0.1336  0.3987 -0.0467
 4456W        W 7975   7.177   2.328   1.978 -0.0834  0.0186  0.1576
 4457W        W 7976   8.768   6.905  12.515 -0.3192 -0.3142 -0.2316
 4458W        W 7977   0.112   0.814   3.517  0.2149 -0.1341 -0.2597
 4459W        W 7978   2.027   1.657   1.230  0.0135  0.1775 -0.1257
 4460W        W 7979   6.638   0.466   2.585  0.2132 -0.0704  0.2512
 4461W        W 7980   6.393   6.324   3.907 -0.1118 -0.3974  0.1941
 4462W        W 7981   7.107   5.438  12.396  0.1887  0.3210  0.4198
 4463W        W 7982   1.112   7.314   1.223 -0.0928  0.0854 -0.2309
 4464W        W 7983   8.110   2.177   9.565 -0.3435 -0.1692  0.0889
 4465W        W 7984   5.686   2.235   9.109  0.3422 -0.1987 -0.1162
 4466W        W 7985   6.948   6.639   0.833  0.0018 -0.1152 -0.4556
 4467W        W 7986   7.060   2.797   8.778 -0.0087  0.0368  0.1242
 4468W        W 7987   7.049   9.409   0.625  0.0558  0.2453 -0.0794
 4469W        W 7988   6.379   7.558   9.238 -0.0258  0.0165  0.2696
 4470W        W 7989   7.516   9.328  10.896 -0.0393  0.1341  0.1587
 4471W        W 7990   6.096   4.170   0.614  0.2185  0.0807  0.1617
 4472W        W 7991   5.598   4.293  12.288  0.4358 -0.3199  0.0563
 4473W        W 7992   5.588   9.262   1.417  0.1085  0.1639  0.3026
 4474W        W 7993   8.836   6.092   8.777 -0.3019 -0.1299 -0.2064
 4475W        W 7994   7.936   3.855   4.454 -0.0138 -0.0174  0.3655
 4476W        W 7995   8.993   8.137   9.162 -0.4647 -0.2322 -0.0996
 4477W        W 7996   7.334   7.942  11.615 -0.1439  0.1810 -0.1877
 4478W        W 7997   6.970   2.318   8.801 -0.0188 -0.1385 -0.3479
 4479W        W 7998   2.493   4.043  10.705 -0.0219  0.2573 -0.1835
 4480W        W 7999   6.172   8.677  10.819 -0.0989  0.3498 -0.4790
 4481W        W 8000   4.559   6.837   0.559 -0.1526 -0.3169 -0.5033
 4482W        W 8001   3.099   6.221   1.476 -0.2585  0.1408 -0.0616
 4483W        W 8002   3.598   0.029   4.039 -0.1664  0.2267  0.0541
 4484W        W 8003   9.636   4.783   0.963 -0.0512 -0.0645  0.3476
 4485W        W 8004   7.995   7.968   8.600  0.1787 -0.4145  0.1322
 4486W        W 8005   1.005   5.237  11.186  0.0471  0.2358  0.0021
 4487W        W 8006   1.508   6.218   1.111  0.0293  0.3702  0.1144
 4488W        W 8007   8.228   8.264  11.601  0.0010 -0.0066 -0.0763
 4489W        W 8008   3.755   8.484   3.884  0.3920 -0.2522  0.0700
 4490W        W 8009   6.970   0.327   8.607 -0.1693 -0.0143 -0.0652
 4491W        W 8010   6.698   6.315  11.342 -0.2153 -0.1575 -0.0913
 4492W        W 8011   9.627   5.367  10.871  0.1619  0.2331 -0.0932
 4493W        W 8012   3.475   1.872   9.749 -0.0663 -0.1067 -0.1465
 4494W        W 8013   7.268   6.299   0.948 -0.0626  0.0232 -0.0320
 4495W        W 8014   8.264   8.574   2.177 -0.2624  0.2595  0.1651
 4496W        W 8015   6.395   6.642   4.282  0.0237 -0.2951 -0.1267
 4497W        W 8016   0.176   4.560   3.799 -0.1513 -0.1222  0.3401
 4498W        W 8017   4.901   9.603   2.384  0.2643 -0.0126  0.0366
 4499W        W 8018   5.959   2.870  10.506 -0.0486 -0.0044  0.0279
 4500W        W 8019   5.947   0.386  11.096 -0.1578 -0.1760  0.0259
 4501W        W 8020   9.541   8.510  11.218  0.0859 -0.0429  0.1812
 4502W        W 8021   8.822   4.156   4.026 -0.2134  0.0905 -0.1064
 4503W        W 8022   2.285   3.925   2.423 -0.2565 -0.3661 -0.2037
 4504W        W 8023   9.700   4.177   2.826  0.2198 -0.2351  0.1626
 4505W        W 8024   3.811   3.357   1.750 -0.0838  0.0396 -0.1298
 4506W        W 8025   4.633   8.902  10.949 -0.0191  0.1356 -0.1336
 4507W        W 8026   0.621   2.113   9.910 -0.1856 -0.3717  0.1105
 4508W        W 8027   4.329   2.294   8.977  0.3702  0.1164  0.0617
 4509W        W 8028   8.209   0.880  10.296  0.1080  0.0531  0.2558
 4510W        W 8029   8.166   3.355  11.362 -0.1310 -0.0904 -0.1967
 4511W        W 8030   0.073   8.540   2.046 -0.0338  0.2160  0.0918
 4512W        W 8031   6.580   5.699   4.542  0.0869 -0.6945 -0.1029
 4513W        W 8032   0.438   8.830   1.164  0.0703 -0.2458  0.1225
 4514W        W 8033   5.810   1.982   4.096 -0.0973 -0.3043 -0.1636
 4515W        W 8034   4.817   2.212   9.372 -0.1050 -0.2755 -0.0313
 4516W        W 8035   7.274   5.806   0.564 -0.2447 -0.1299 -0.1544
 4517W        W 8036   7.021   8.113   3.750  0.1151  0.3000  0.0908
 4518W        W 8037   6.680   4.686  10.791 -0.2011 -0.1476  0.0798
 4519W        W 8038   9.163   3.196   4.842  0.0139 -0.0333 -0.2016
 4520W        W 8039   3.485   0.427  11.706 -0.1210  0.0012  0.1660
 4521W        W 8040   0.669   0.698  10.734  0.1503  0.4487  0.1426
 4522W        W 8041   6.851   4.643   0.551  0.3021 -0.1210 -0.0587
 4523W        W 8042   6.234   7.660   1.187 -0.0090  0.1333  0.0468
 4524W        W 8043   4.348   6.519  12.120  0.0255 -0.1268 -0.0652
 4525W        W 8044   3.496   1.442  11.876 -0.3397  0.1291  0.3417
 4526W        W 8045   3.324   0.352   0.054  0.1301 -0.0917  0.1264
 4527W        W 8046   0.420   1.517  11.538 -0.0390  0.1994  0.0701
 4528W        W 8047   8.281   1.881   8.450  0.3541 -0.0864  0.0656
 4529W        W 8048   2.703   3.455   0.006  0.0199  0.0230 -0.2639
 4530W        W 8049   3.135   4.733   9.282 -0.1160  0.0445  0.1869
 4531W        W 8050   1.957   9.590   4.849 -0.1464  0.0712 -0.0978
 4532W        W 8051   4.414   6.552   2.240 -0.1027 -0.2382  0.0768
 4533W        W 8052   3.605   8.941  12.447  0.0644  0.2767 -0.2178
 4534W        W 8053   3.580   7.318  11.435  0.2200  0.2539 -0.3304
 4535W        W 8054   9.589   1.697   1.926 -0.0300  0.1684  0.1027
 4536W        W 8055   7.120   7.590   1.582 -0.4767  0.1070 -0.1184
 4537W        W 8056   6.942   5.519   2.047 -0.1262 -0.0140  0.1412
 4538W        W 8057   5.764   4.003   4.512 -0.0764  0.0446 -0.0973
 4539W        W 8058   1.921   8.371   4.323  0.4163 -0.4836 -0.0929
 4540W        W 8059   5.989   4.213  11.973 -0.2752  0.1231  0.2817
 4541W        W 8060   5.795   8.545  12.002 -0.1994  0.2478  0.3341
 4542W        W 8061   6.876   7.021   2.836 -0.1051 -0.0188 -0.1595
 4543W        W 8062   8.975   5.464  11.663 -0.2308 -0.0231  0.0636
 4544W        W 8063   6.623   8.683  11.745 -0.1541  0.1235 -0.2126
 4545W        W 8064   6.438   5.966  11.677 -0.0125 -0.0984  0.0894
 4546W        W 8065   7.691   2.645   8.431 -0.1615  0.0676  0.1403
 4547W        W 8066   4.486   9.173   4.902 -0.0833 -0.0594 -0.1980
 4548W        W 8067   5.897   9.496   1.021  0.2267  0.2178  0.0975
 4549W        W 8068   2.062   6.948   2.012  0.2535 -0.4414  0.2536
 4550W        W 8069   1.654   1.240  12.084 -0.5203 -0.0667  0.2213
 4551W        W 8070   3.037   7.375  10.038 -0.0785 -0.3291 -0.0445
 4552W        W 8071   4.703   1.916   8.894  0.1875 -0.1089  0.0168
 4553W        W 8072   6.578   0.127  12.513 -0.0124  0.1368 -0.0522
 4554W        W 8073   2.232   3.416   1.271  0.0559 -0.0736  0.0289
 4555W        W 8074   6.092   1.212  12.229 -0.2841  0.4732 -0.0662
 4556W        W 8075   0.250   6.682  10.542 -0.1435  0.0418  0.3526
 4557W        W 8076   6.198   6.323  11.314 -0.0910  0.1039 -0.1272
 4558W        W 8077   9.113   7.152   9.267 -0.0486  0.1054  0.3221
 4559W        W 8078   7.671   3.107  12.059  0.1341  0.3046  0.0587
 4560W        W 8079   6.671   9.582  11.037  0.0247  0.0526  0.3222
 4561W        W 8080   4.548   1.934   3.765 -0.0370 -0.0198 -0.4715
 4562W        W 8081   9.361   1.905  12.033 -0.1146 -0.0502  0.1586
 4563W        W 8082   1.494   2.172   8.943 -0.1157 -0.0492 -0.0472
 4564W        W 8083   4.114   7.270   3.745  0.0834 -0.2016 -0.1780
 4565W        W 8084   6.603   5.901   2.204  0.0037 -0.1122  0.2564
 4566W        W 8085   7.495   7.258   0.392 -0.2952  0.2310  0.0878
 4567W        W 8086   5.364   6.507   2.648 -0.0750  0.1131 -0.1864
 4568W        W 8087   4.300   8.067   3.103  0.1219  0.1185  0.1927
 4569W        W 8088   6.656   8.901   2.105 -0.0482 -0.3667 -0.1608
 4570W        W 8089   8.289   8.306   0.419 -0.2248  0.2210  0.2131
 4571W        W 8090   2.673   5.764  11.111 -0.0419  0.1969 -0.1659
 4572W        W 8091   4.316   7.223   0.320 -0.2058  0.1562 -0.1427
 4573W        W 8092   0.133   8.399   0.356 -0.1013  0.1466 -0.0157
 4574W        W 8093   8.461   1.309   9.894 -0.1074 -0.2394 -0.1360
 4575W        W 8094   3.673   0.791   0.165  0.0810 -0.2323 -0.3526
 4576W        W 8095   0.462   8.467  10.151  0.1166 -0.4885  0.0104
 4577W        W 8096   0.319   1.665   9.323 -0.2836  0.1717  0.0784
 4578W        W 8097   3.567   6.210   2.311 -0.1562  0.1546 -0.1392
 4579W        W 8098   1.070   8.187  12.094 -0.2485  0.0684 -0.0968
 4580W        W 8099   1.458   7.577   9.521  0.2689  0.0927  0.0170
 4581W        W 8100   0.904   3.520   0.934  0.1441  0.1899  0.0165
 4582W        W 8101   3.231   1.104  12.162  0.2510  0.1281 -0.0281
 4583W        W 8102   5.183   5.682   1.744 -0.0919  0.0787  0.0396
 4584W        W 8103   5.939   8.767  11.315  0.3854 -0.1234 -0.0007
 4585W        W 8104   4.001   0.820   1.693  0.1291  0.0052 -0.0913
 4586W        W 8105   9.486   6.381   3.502  0.0924 -0.2869  0.1060
 4587W        W 8106   8.275   3.857  11.488 -0.0732 -0.1709 -0.1642
 4588W        W 8107   5.362   6.968  11.489  0.0752  0.3145 -0.0952
 4589W        W 8108   9.703   4.162  10.624 -0.0740  0.1530 -0.0144
 4590W        W 8109   5.300   9.597   2.046 -0.0800 -0.0618  0.1585
 4591W        W 8110   1.446   5.195   1.588 -0.1064  0.0831  0.1785
 4592W        W 8111   3.303   3.462  10.894 -0.1317 -0.0368 -0.0871
 4593W        W 8112   6.962   4.323  11.261  0.4182  0.2859 -0.0498
 4594W        W 8113   1.608   5.357  10.456 -0.1818  0.2091  0.1629
 4595W        W 8114   5.454   5.179  11.962  0.2148  0.2863 -0.1083
 4596W        W 8115   5.408   8.865  10.059  0.1233  0.0116 -0.0649
 4597W        W 8116   3.125   1.983   7.912  0.0377  0.1725  0.1140
 4598W        W 8117   8.745   9.649   1.086  0.0245 -0.1418 -0.2265
 4599W        W 8118   7.834   8.343   9.382  0.0849  0.0134  0.1472
 4600W        W 8119   3.338   5.384   2.925  0.1048  0.1419 -0.0672
 4601W        W 8120   8.292   3.072   8.674 -0.0821 -0.0949 -0.0038
 4602W        W 8121   1.111   0.154   0.239 -0.0789 -0.1197 -0.1191
 4603W        W 8122   8.954   4.704  10.695 -0.0327 -0.0516 -0.4366
 4604W        W 8123   3.623   9.450  11.178  0.0147 -0.3676 -0.3338
 4605W        W 8124   1.506   6.707  10.036  0.2306 -0.0468  0.0757
 4606W        W 8125   7.330   8.999   2.907 -0.1373 -0.0236  0.3058
 4607W        W 8126   6.419   0.193   9.906  0.3261 -0.1609 -0.0769
 4608W        W 8127   7.299   5.974  12.099  0.0299 -0.1043  0.4235
 4609W        W 8128   2.317   0.559   3.977 -0.1028 -0.0924  0.1293
 4610W        W 8129   0.431   5.314   8.613  0.4658 -0.2022 -0.0500
 4611W        W 8130   9.296   4.363   3.990 -0.1387 -0.0661  0.1456
 4612W        W 8131   9.511   6.255   1.665 -0.1509  0.0928  0.0441
 4613W        W 8132   5.512   8.084   9.085 -0.2841  0.2174  0.1634
 4614W        W 8133   4.967   7.623   3.394 -0.1066 -0.0900 -0.0218
 4615W        W 8134   9.629   6.703  11.048  0.1378 -0.0433 -0.4906
 4616W        W 8135   1.985   7.590   9.972  0.0314  0.1157 -0.2342
 4617W        W 8136   2.251   4.253  10.237  0.2398 -0.2833 -0.0089
 4618W        W 8137   5.208   1.359  11.189 -0.2551  0.0262 -0.0042
 4619W        W 8138   4.811   9.529   3.316 -0.0564 -0.0190  0.1388
 4620W        W 8139   1.949   4.241   9.835 -0.0128  0.0275  0.1780
 4621W        W 8140   6.824   5.462   8.288  0.0002 -0.0666  0.1357
 4622W        W 8141   4.604   8.907   3.242  0.1053 -0.1725  0.1204
 4623W        W 8142   5.835   5.304   9.408  0.1575 -0.1073  0.2748
 4624W        W 8143   5.003   3.274   9.797 -0.0194 -0.0672 -0.0944
 4625W        W 8144   1.049   3.973   1.112 -0.0920  0.1201 -0.0123
 4626W        W 8145   3.360   9.093  11.681  0.0253 -0.1319 -0.0574
 4627W        W 8146   8.986   3.566   9.435  0.4070 -0.1908 -0.0877
 4628W        W 8147   2.411   7.966   9.194  0.0495 -0.1338 -0.1404
 4629W        W 8148   5.728   8.391   8.206 -0.2828 -0.2156 -0.1993
 4630W        W 8149   5.919   4.504   3.425  0.0297 -0.3693 -0.0045
 4631W        W 8150   8.805   4.982   1.375  0.2002 -0.4708 -0.1883
 4632W        W 8151   7.903   7.836   9.551 -0.0116  0.0335  0.0455
 4633W        W 8152   8.472   8.788   3.155 -0.1140 -0.1656 -0.2003
 4634W        W 8153   1.726   1.202   2.785 -0.0391  0.2978 -0.2894
 4635W        W 8154   1.464   1.630  12.515  0.0039 -0.0011 -0.4509
 4636W        W 8155   6.958   7.935  12.207 -0.0636 -0.0004 -0.0370
 4637W        W 8156   5.516   5.097   9.767 -0.0165  0.0470 -0.0756
 4638W        W 8157   2.119   2.748   4.714  0.0942 -0.0983 -0.0450
 4639W        W 8158   1.953   2.660   0.707  0.2209 -0.0650 -0.0936
 4640W        W 8159   7.222   5.731   1.062  0.0228 -0.2012  0.0251
 4641W        W 8160   3.643   0.676  11.323 -0.0806 -0.0414 -0.3351
 4642W        W 8161   7.995   1.368   0.485  0.2078  0.3156 -0.3633
 4643W        W 8162   3.122   2.416   2.565  0.1384  0.0807 -0.2168
 4644W        W 8163   0.704   0.145   1.093  0.0241  0.0215  0.0053
 4645W        W 8164   1.035   3.626   3.137 -0.0017  0.3673  0.0173
 4646W        W 8165   2.822   6.948   2.207  0.1806  0.0892 -0.1816
 4647W        W 8166   7.417   0.797   3.794 -0.0902  0.1600  0.2345
 4648W        W 8167   3.820   2.422   4.238 -0.2287  0.0557 -0.1682
 4649W        W 8168   3.000   1.192   1.621  0.1519 -0.1020 -0.3303
 4650W        W 8169   8.922   0.237  10.216 -0.1224  0.1274  0.1895
 4651W        W 8170   7.199   1.343   3.092 -0.0989 -0.0776 -0.2174
 4652W        W 8171   5.310   7.135   0.521 -0.0494 -0.0779  0.3592
 4653W        W 8172   7.009   9.323  11.283 -0.1648  0.1889  0.0176
 4654W        W 8173   5.585   8.235   0.621  0.1534 -0.2437 -0.2950
 4655W        W 8174   4.509   8.867  12.178  0.1077 -0.0520 -0.1861
 4656W        W 8175   1.184   5.900  11.553  0.3041  0.1035 -0.6688
 4657W        W 8176   3.152   6.526   2.320  0.0248 -0.0374 -0.0190
 4658W        W 8177   0.599   3.340  11.444 -0.0434  0.2180 -0.0498
 4659W        W 8178   4.592   4.510  10.170 -0.0504 -0.0006  0.1894
 4660W        W 8179   7.958   4.070  11.136  0.0253  0.3231  0.0246
 4661W        W 8180   0.121   5.175  11.963 -0.1036  0.0218  0.1571
 4662W        W 8181   3.464   1.811   0.865 -0.1653 -0.1372 -0.0009
 4663W        W 8182   2.357   7.752  12.465  0.0529  0.1237  0.0082
 4664W        W 8183   8.366   5.718   1.795 -0.2249 -0.1898 -0.0076
 4665W        W 8184   4.417   5.393   5.069 -0.5273  0.3366  0.1139
 4666W        W 8185   5.088   2.235   1.115 -0.1875 -0.2321 -0.0759
 4667W        W 8186   0.781   5.464   1.545  0.2475  0.0674 -0.1237
 4668W        W 8187   6.644   5.558  11.126  0.0135 -0.0879 -0.0649
 4669W        W 8188   5.204   7.352   1.157 -0.1561  0.0342  0.1774
 4670W        W 8189   1.646   7.404   2.547 -0.0519 -0.0181 -0.2171
 4671W        W 8190   8.809   7.223   0.975  0.0929  0.1395  0.0169
 4672W        W 8191   4.332   0.285  10.135 -0.1331 -0.1343 -0.2363
 4673W        W 8192   7.838   3.140  10.463  0.0589  0.1012  0.3512
 4674W        W 8193   6.866   5.006   3.792 -0.1335 -0.1954 -0.0691
 4675W        W 8194   4.436   1.486  10.435  0.1588  0.0413  0.1873
 4676W        W 8195   5.996   1.156  11.360  0.0499  0.0064 -0.2186
 4677W        W 8196   4.290   5.273  12.226 -0.1045 -0.0004 -0.1828
 4678W        W 8197   2.542   3.446   4.284  0.2174 -0.0037  0.2747
 4679W        W 8198   5.045   4.925   1.111  0.1017 -0.0208 -0.0538
 4680W        W 8199   8.988   3.171  11.516  0.0138 -0.1357  0.2715
 4681W        W 8200   1.636   0.423  11.122 -0.2568  0.1406 -0.0035
 4682W        W 8201   7.519   2.033   0.364 -0.0832  0.0059  0.0554
 4683W        W 8202   3.189   2.891   2.404 -0.0306 -0.2453 -0.1279
 4684W        W 8203   6.604   7.582  12.169 -0.0251 -0.0148  0.1825
 4685W        W 8204   7.192   5.711   2.485  0.0579  0.0702 -0.0283
 4686W        W 8205   1.061   9.675   1.803  0.0284  0.1377  0.1886
 4687W        W 8206   0.743   8.381  11.826  0.0533 -0.0716  0.2415
 4688W        W 8207   1.114   1.893   2.245 -0.2491  0.0786 -0.1275
 4689W        W 8208   7.035   8.405   4.244 -0.1286  0.0942 -0.1067
 4690W        W 8209   8.961   3.587   1.138 -0.1741 -0.2361 -0.0169
 4691W        W 8210   3.665   6.835  10.728  0.5100  0.2035  0.0423
 4692W        W 8211   0.780   6.385  11.201  0.0051  0.0418  0.1845
 4693W        W 8212   6.828   8.073   0.716 -0.2500 -0.1919 -0.0877
 4694W        W 8213   8.437   3.531   1.059  0.0172 -0.1317 -0.2091
 4695W        W 8214   2.580   2.128   0.400 -0.0654  0.2346 -0.2279
 4696W        W 8215   8.853   2.782   3.812 -0.2800  0.2159 -0.0880
 4697W        W 8216   4.018   6.350   9.427  0.0595  0.1880  0.1186
 4698W        W 8217   9.368   4.617   2.918 -0.0184  0.2918  0.0708
 4699W        W 8218   1.089   9.206   3.135 -0.5014 -0.0091 -0.0771
 4700W        W 8219   9.567   3.385  10.754  0.0197  0.0045 -0.0422
 4701W        W 8220   2.306   4.652   8.866  0.0261  0.2220 -0.1243
 4702W        W 8221   6.680   3.667   0.922  0.4036 -0.1287  0.4512
 4703W        W 8222   2.381   3.853   9.828 -0.1441 -0.2999 -0.0050
 4704W        W 8223   3.489   1.560  10.748  0.0493 -0.0575  0.1535
 4705W        W 8224   9.586   7.766  12.472  0.0690  0.3629  0.0951
 4706W        W 8225   1.082   7.606  11.997 -0.1542 -0.1551  0.0945
 4707W        W 8226   4.041   4.850   2.255  0.1443  0.2090 -0.1093
 4708W        W 8227   3.917   5.229   3.074 -0.1938 -0.1486  0.3093
 4709W        W 8228   5.490   5.256   1.933  0.0263 -0.0009 -0.3214
 4710W        W 8229   7.155   0.875   3.259  0.0451  0.0638  0.0239
 4711W        W 8230   6.990   2.165  11.099  0.0427 -0.0711 -0.3829
 4712W        W 8231   0.089   2.888   9.996  0.3684 -0.1385 -0.1346
 4713W        W 8232   6.584   7.183  10.125 -0.0431 -0.1351 -0.3057
 4714W        W 8233   6.878   7.942   9.438  0.0671  0.1152 -0.1241
 4715W        W 8234   4.631   9.214   2.838 -0.1497  0.1674 -0.4472
 4716W        W 8235   1.945   8.226  12.494 -0.1581 -0.1038 -0.1920
 4717W        W 8236   7.000   5.231  11.453 -0.0793  0.0781 -0.0284
 4718W        W 8237   5.049   4.367   2.155  0.3672 -0.1948  0.0004
 4719W        W 8238   4.777   1.854   2.046 -0.2047  0.0757 -0.1685
 4720W        W 8239   2.544   8.481   2.877 -0.0283 -0.0315  0.0358
 4721W        W 8240   0.233   6.265  11.130 -0.4545  0.0447 -0.2029
 4722W        W 8241   8.946   4.995  11.170 -0.0230 -0.3618 -0.4307
 4723W        W 8242   3.315   3.653   2.533  0.2632 -0.0325  0.1346
 4724W        W 8243   6.097   6.338   8.739  0.2589  0.0587 -0.3811
 4725W        W 8244   8.778   9.024  11.752 -0.1101 -0.0376  0.0250
 4726W        W 8245   6.388   3.263   8.629 -0.1477  0.0000 -0.0733
 4727W        W 8246   1.788   5.513   8.298 -0.0574 -0.1703 -0.0000
 4728W        W 8247   0.901   2.222  10.263 -0.0659  0.2343 -0.2688
 4729W        W 8248   3.391   2.604   2.004  0.4479 -0.0863 -0.2191
 4730W        W 8249   0.241   5.295  12.441 -0.0119 -0.0476 -0.0980
 4731W        W 8250   2.237   9.370  10.465 -0.1691 -0.2910 -0.2468
 4732W        W 8251   4.120   4.846   2.770  0.0526 -0.0535  0.0515
 4733W        W 8252   9.707   9.655   2.308 -0.3561 -0.1353 -0.4317
 4734W        W 8253   1.178   8.742  11.368 -0.1319 -0.1017  0.1903
 4735W        W 8254   4.670   6.084  11.364 -0.0445 -0.0826  0.0477
 4736W        W 8255   2.740   3.112   2.162  0.0788 -0.2002  0.0055
 4737W        W 8256   0.423   1.909   3.587 -0.0579  0.0218  0.2642
 4738W        W 8257   3.838   2.141   0.701  0.1159 -0.0709  0.2604
 4739W        W 8258   5.591   1.693   8.918  0.1566 -0.0027  0.2685
 4740W        W 8259   3.550   8.096   8.509  0.2859  0.1554  0.1300
 4741W        W 8260   4.586   3.754   3.833 -0.1178 -0.1949 -0.0091
 4742W        W 8261   1.136   2.869   2.999  0.0498  0.0717 -0.2608
 4743W        W 8262   0.699   2.517   3.029 -0.2049 -0.2075  0.3213
 4744W        W 8263   0.028   7.848   0.991  0.2583  0.2393  0.0158
 4745W        W 8264   9.705   7.949   2.414  0.1999  0.2957 -0.1052
 4746W        W 8265   9.403   7.419   4.383  0.0012 -0.0851  0.1528
 4747W        W 8266   1.132   8.634  11.908  0.0915 -0.0836  0.1060
 4748W        W 8267   3.658   3.537  11.338 -0.0818  0.2933 -0.1745
 4749W        W 8268   3.268   6.450   8.855 -0.1175 -0.2771 -0.1327
 4750W        W 8269   6.135   2.973   1.900  0.2469 -0.3282 -0.0194
 4751W        W 8270   1.909   2.927   9.081  0.3371  0.0316  0.2616
 4752W        W 8271   6.003   1.868   4.547  0.2306  0.0697 -0.3601
 4753W        W 8272   4.832   4.518   8.926  0.0648  0.0474  0.3223
 4754W        W 8273   1.310   8.081   2.441  0.2064 -0.0216  0.1557
 4755W        W 8274   0.543   4.227   0.084  0.4157 -0.2005 -0.2220
 4756W        W 8275   3.099   9.057   4.471  0.1713 -0.0224 -0.1530
 4757W        W 8276   3.630   2.140   2.584 -0.2079  0.1313  0.2485
 4758W        W 8277   6.806   6.602   4.693  0.0687  0.1921 -0.2919
 4759W        W 8278   3.772   7.158  11.994 -0.1696 -0.0202  0.4502
 4760W        W 8279   9.467   2.906   0.058 -0.0454 -0.1266 -0.2798
 4761W        W 8280   9.658   4.713  12.061  0.0824 -0.1037 -0.0370
 4762W        W 8281   6.277   8.499  12.212  0.0628 -0.2266 -0.1518
 4763W        W 8282   7.690   7.682   9.975 -0.0395  0.3476 -0.1307
 4764W        W 8283   5.416   7.013  10.748 -0.0790  0.1726 -0.1821
 4765W        W 8284   8.050   5.122   8.021  0.0993  0.1644 -0.3147
 4766W        W 8285   0.548   2.433   9.136  0.1028  0.2231 -0.2031
 4767W        W 8286   2.905   4.852   2.742  0.0228 -0.1580  0.1450
 4768W        W 8287   9.057   6.079   0.732  0.0103 -0.1402 -0.0323
 4769W        W 8288   7.278   8.922   0.982  0.2805 -0.0709 -0.0388
 4770W        W 8289   9.340   6.668   3.070 -0.1507  0.1566 -0.0319
 4771W        W 8290   6.404   3.703   0.458 -0.0646  0.3871 -0.0341
 4772W        W 8291   1.895   3.628   0.894 -0.0102 -0.1662 -0.1685
 4773W        W 8292   1.816   9.520   2.398  0.1197  0.0013 -0.2354
 4774W        W 8293   3.373   9.559   4.436 -0.1178  0.4842  0.1714
 4775W        W 8294   2.900   5.297   3.395  0.1479 -0.1376  0.2818
 4776W        W 8295   3.721   3.311   0.753 -0.1429 -0.2571  0.3577
 4777W        W 8296   8.952   8.335   8.687 -0.0398  0.2109  0.1953
 4778W        W 8297   3.056   8.116  10.508 -0.1026  0.1704  0.0506
 4779W        W 8298   7.220   6.875   9.532  0.0739 -0.1683 -0.0583
 4780W        W 8299   5.684   9.013  11.804  0.0564  0.1328  0.0982
 4781W        W 8300   4.061   2.455   4.671  0.2613  0.0526  0.0900
 4782W        W 8301   0.260   7.048  11.941 -0.2262 -0.3920 -0.0432
 4783W        W 8302   9.143   2.642  10.710  0.1431  0.3686 -0.1066
 4784W        W 8303   2.544   1.622   4.817 -0.1726  0.2378  0.0183
 4785W        W 8304   3.159   9.154  11.233  0.1659 -0.0651 -0.1572
 4786W        W 8305   4.485   4.478   1.986 -0.2206 -0.2546 -0.1023
 4787W        W 8306   9.373   4.488   0.638  0.0749  0.1600 -0.3013
 4788W        W 8307   6.274   0.152   1.735 -0.0645 -0.0832 -0.0091
 4789W        W 8308   5.309   5.305  12.485  0.1256 -0.3530  0.0991
 4790W        W 8309   8.567   5.434  12.125 -0.0390  0.0549  0.1516
 4791W        W 8310   4.613   7.649   0.237  0.0626  0.1268 -0.0993
 4792W        W 8311   6.932   3.885   0.340 -0.1883  0.0418 -0.0776
 4793W        W 8312   0.252   6.550   3.747  0.2262  0.3353 -0.2069
 4794W        W 8313   2.306   5.529   3.532  0.0540  0.1410  0.0894
 4795W        W 8314   7.710   6.444   0.679  0.1388 -0.0185  0.4179
 4796W        W 8315   2.792   2.571   2.153  0.0836  0.5229 -0.2006
 4797W        W 8316   3.068   8.379   7.910  0.0645 -0.0982 -0.1122
 4798W        W 8317   6.590   5.391   0.034  0.0255 -0.1430 -0.1463
 4799W        W 8318   9.329   5.296  11.956  0.1334  0.0524  0.0256
 4800W        W 8319   3.768   4.169  10.959 -0.0847 -0.2638 -0.2567
 4801W        W 8320   5.341   9.540   3.367 -0.1428 -0.0858  0.1734
 4802W        W 8321   9.542   1.502   1.402  0.0887  0.0147 -0.2945
 4803W        W 8322   8.905   5.588   8.800 -0.2424  0.0492 -0.1648
 4804W        W 8323   3.672   4.202   2.916  0.0739  0.0126 -0.0341
 4805W        W 8324   5.927   4.949   4.512  0.0817  0.1717 -0.0227
 4806W        W 8325   3.702   8.413   9.802 -0.1151  0.1158  0.0037
 4807W        W 8326   7.839   3.945   3.922 -0.0458 -0.0289  0.2189
 4808W        W 8327   1.888   8.529  12.102 -0.1617  0.2804  0.3049
 4809W        W 8328   2.875   8.288   0.138  0.0522  0.0161  0.0325
 4810W        W 8329   5.648   1.206   1.108  0.0896  0.2602  0.1011
 4811W        W 8330   8.539   2.745  12.234  0.0823 -0.1066 -0.0499
 4812W        W 8331   8.208   5.961   0.045  0.2097  0.2336  0.1474
 4813W        W 8332   6.141   2.355   1.043  0.3479  0.1129 -0.0966
 4814W        W 8333   3.118   2.952  10.770 -0.0508  0.1288 -0.2985
 4815W        W 8334   8.760   7.924  10.943  0.2379 -0.3037 -0.2793
 4816W        W 8335   6.420   5.191   3.908  0.2357  0.0357 -0.2506
 4817W        W 8336   3.992   0.329   3.108 -0.2231  0.0020  0.1095
 4818W        W 8337   4.977   1.854  11.862  0.0580 -0.0693  0.2473
 4819W        W 8338   7.840   4.115  10.074 -0.3019 -0.1972 -0.2611
 4820W        W 8339   1.853   0.378   9.287  0.1661  0.1805 -0.0477
 4821W        W 8340   3.028   3.418  12.092  0.2455 -0.1425  0.3000
 4822W        W 8341   0.015   9.342   2.715 -0.0570 -0.1733 -0.0762
 4823W        W 8342   9.633   1.154   1.826  0.1775  0.1202  0.1704
 4824W        W 8343   1.250   1.423   1.573  0.1426 -0.3393  0.2031
 4825W        W 8344   4.392   8.376   1.324  0.1310 -0.0459  0.3743
 4826W        W 8345   2.686   5.965   9.047  0.0024  0.2211  0.2079
 4827W        W 8346   3.032   1.136   9.313 -0.0905  0.0637 -0.0303
 4828W        W 8347   9.436   3.442  11.486 -0.3453  0.0889 -0.1184
 4829W        W 8348   6.924   8.981   0.228  0.1762  0.2321 -0.2442
 4830W        W 8349   2.965   4.178  11.524 -0.2165  0.0242  0.0553
 4831W        W 8350   1.295   9.510  10.362 -0.1321  0.1689 -0.2211
 4832W        W 8351   1.973   4.680   2.535  0.1972 -0.1060 -0.1767
 4833W        W 8352   3.426   5.627   0.644 -0.0417 -0.1684  0.1019
 4834W        W 8353   5.881   3.476   4.507 -0.1364  0.0740  0.0359
 4835W        W 8354   9.438   3.738   1.607 -0.0351 -0.1065 -0.2307
 4836W        W 8355   5.723   7.432   1.175  0.0364 -0.1608  0.0303
 4837W        W 8356   1.653   1.785   3.549  0.0291  0.4483 -0.2006
 4838W        W 8357   8.188   9.457  10.069 -0.1534 -0.3536  0.1291
 4839W        W 8358   9.586   7.790   8.635  0.0283  0.1317 -0.0733
 4840W        W 8359   1.130   0.160   1.328 -0.3679  0.2779 -0.1037
 4841W        W 8360   7.885   3.733   9.164 -0.1157 -0.1916 -0.2571
 4842W        W 8361   6.639   4.067   3.556  0.3096  0.0545  0.0590
 4843W        W 8362   2.153   3.955   0.545  0.0275 -0.1346 -0.3598
 4844W        W 8363   6.458   3.474  10.367  0.0945  0.0592  0.1564
 4845W        W 8364   9.164   8.483   2.866  0.0893 -0.0144 -0.0664
 4846W        W 8365   0.710   4.677   3.922 -0.0291 -0.0176 -0.1284
 4847W        W 8366   0.019   5.761  12.467 -0.1190 -0.2982  0.3824
 4848W        W 8367   2.162   1.062   4.060 -0.2808  0.2363  0.0400
 4849W        W 8368   0.085   3.335  12.473 -0.0370 -0.0348 -0.1664
 4850W        W 8369   7.582   5.597   1.287 -0.1549  0.3406 -0.1224
 4851W        W 8370   9.241   3.238   0.766  0.0911  0.1736 -0.1699
 4852W        W 8371   1.276   5.814   1.598  0.0617 -0.2196  0.0037
 4853W        W 8372   7.912   5.481   4.112  0.1368  0.1336 -0.2396
 4854W        W 8373   4.908   0.064   8.049 -0.5551 -0.1701  0.0003
 4855W        W 8374   7.731   8.111   0.958 -0.1617  0.5030  0.0701
 4856W        W 8375   7.448   0.535   2.080 -0.1279  0.2138  0.2080
 4857W        W 8376   9.624   6.596   7.880  0.1246 -0.0284  0.0039
 4858W        W 8377   2.137   4.814  10.152  0.1950 -0.1761 -0.0315
 4859W        W 8378   8.678   2.749   8.979 -0.1576  0.1678 -0.0088
 4860W        W 8379   3.152   3.152   1.402 -0.0370  0.0751 -0.0561
 4861W        W 8380   0.392   4.410   2.488  0.0992  0.3371  0.1136
 4862W        W 8381   4.214   4.714   9.858  0.0215  0.1984 -0.0408
 4863W        W 8382   8.963   8.724  11.375  0.1678  0.0968 -0.2272
 4864W        W 8383   1.006   2.366   7.880 -0.2419 -0.0002 -0.5434
 4865W        W 8384   6.576   1.333  11.575  0.0652 -0.1184 -0.1751
 4866W        W 8385   1.710   4.552   2.146 -0.0294 -0.2089  0.1329
 4867W        W 8386   2.998   0.048  12.314  0.0047  0.0414  0.2261
 4868W        W 8387   4.926   6.399  11.131 -0.0044  0.0631  0.1966
 4869W        W 8388   1.555   1.226   3.739  0.1011 -0.2550 -0.0155
 4870W        W 8389   5.184   7.802  10.955 -0.1140 -0.2420  0.0579
 4871W        W 8390   0.382   7.116   2.745 -0.0178  0.3826  0.3761
 4872W        W 8391   2.503   7.294   2.054  0.2044  0.0328 -0.2919
 4873W        W 8392   3.599   5.024  10.725  0.0117 -0.2694 -0.1008
 4874W        W 8393   7.840   2.841   0.592 -0.1804 -0.0244  0.0012
 4875W        W 8394   3.647   9.080   3.182  0.1391  0.2528  0.2147
 4876W        W 8395   6.625   6.481  10.773  0.0920 -0.2568 -0.0769
 4877W        W 8396   6.614   3.214   2.113  0.0727  0.2183  0.2311
 4878W        W 8397   3.156   1.828   2.495  0.1537  0.1366  0.2123
 4879W        W 8398   8.761   6.681   1.803  0.2030  0.0263 -0.1604
 4880W        W 8399   6.977   1.575  11.419 -0.0891  0.0856 -0.1167
 4881W        W 8400   6.553   4.889   0.030  0.5282  0.3554 -0.0320
 4882W        W 8401   8.680   5.837   9.238  0.0178 -0.0385  0.1185
 4883W        W 8402   3.907   8.828   2.705 -0.1255 -0.2682  0.0086
 4884W        W 8403   0.683   1.060   8.870 -0.1711  0.1692 -0.2930
 4885W        W 8404   5.937   2.490   3.871 -0.0396 -0.0565  0.0234
 4886W        W 8405   9.578   2.160  11.586 -0.2315  0.0255  0.2664
 4887W        W 8406   5.944   4.368  10.427  0.3143  0.4344 -0.4021
 4888W        W 8407   3.370   3.504   3.171 -0.1527 -0.1024  0.1126
 4889W        W 8408   1.604   0.353   3.115  0.1800 -0.1395 -0.0580
 4890W        W 8409   5.798   2.595  10.077 -0.0270  0.1270  0.1224
 4891W        W 8410   9.176   7.831  12.206 -0.0572  0.2096  0.2224
 4892W        W 8411   3.443   6.604   1.900  0.2598  0.2875 -0.1236
 4893W        W 8412   8.462   3.812   2.172  0.1252 -0.1307  0.3003
 4894W        W 8413   7.702   8.628   1.958 -0.0710  0.1898 -0.0151
 4895W        W 8414   0.162   0.620   1.776  0.0946  0.0757 -0.1299
 4896W        W 8415   8.284   3.157  10.120  0.2126 -0.0003  0.1974
 4897W        W 8416   6.289   8.840   2.430  0.0897 -0.1560  0.1519
 4898W        W 8417   7.859   0.642  12.484 -0.1954  0.1817  0.1423
 4899W        W 8418   4.140   4.389   2.965  0.0017 -0.1355  0.3501
 4900W        W 8419   2.179   5.361   3.035  0.0595  0.0693 -0.1551
 4901W        W 8420   7.251   1.872   1.752 -0.0752 -0.0427  0.2000
 4902W        W 8421   2.364   8.940   9.525  0.1211 -0.1529  0.1808
 4903W        W 8422   3.297   1.949  10.318 -0.2017  0.1179 -0.2443
 4904W        W 8423   1.356   5.607   4.246 -0.2989 -0.0735 -0.3386
 4905W        W 8424   4.011   0.510  11.932  0.3123 -0.0448  0.2903
 4906W        W 8425   0.199   4.204  11.216  0.0909  0.0402 -0.0740
 4907W        W 8426   4.974   0.837   0.916  0.3735 -0.2352 -0.3201
 4908W        W 8427   5.445   1.915   2.388  0.2092 -0.0047  0.1473
 4909W        W 8428   2.723   3.274   8.608  0.1158  0.0451 -0.0287
 4910W        W 8429   7.902   8.145   3.842  0.0354 -0.2294 -0.1123
 4911W        W 8430   3.681   1.776   2.281 -0.1220 -0.1393 -0.1200
 4912W        W 8431   6.130   0.326   2.434 -0.0862 -0.2531  0.0015
 4913W        W 8432   5.827   7.873   2.933 -0.1827 -0.2890 -0.2613
 4914W        W 8433   4.291   1.319  11.594 -0.0395  0.0564  0.0575
 4915W        W 8434   5.444   4.750   3.751  0.0214  0.1960 -0.1333
 4916W        W 8435   2.225   6.635  10.132 -0.3903 -0.0470 -0.2257
 4917W        W 8436   8.117   7.703   9.129 -0.0001 -0.0479 -0.1222
 4918W        W 8437   7.403   4.077   9.231 -0.0816  0.0559 -0.3148
 4919W        W 8438   0.345   9.676  11.917 -0.2208 -0.1203  0.0583
 4920W        W 8439   6.378   6.746   0.136  0.0229  0.0140 -0.1295
 4921W        W 8440   1.411   9.069   3.966  0.0126 -0.1657  0.0294
 4922W        W 8441   9.519   7.619  10.464 -0.1904  0.3058  0.0059
 4923W        W 8442   6.768   9.606  10.045  0.3299 -0.0493  0.0102
 4924W        W 8443   0.470   4.091  10.721 -0.3216 -0.0011 -0.2503
 4925W        W 8444   3.895   7.877  11.522 -0.0387 -0.3344  0.1171
 4926W        W 8445   3.517   7.402   8.602 -0.2156  0.2358 -0.2934
 4927W        W 8446   6.822   2.665  12.191 -0.4650 -0.0121  0.0090
 4928W        W 8447   3.555   1.385   3.757 -0.2529 -0.1791 -0.0039
 4929W        W 8448   1.814   1.375   4.113 -0.0572 -0.3597 -0.1084
 4930W        W 8449   9.195   4.635   2.041 -0.0827 -0.0427 -0.0499
 4931W        W 8450   6.056   1.037   3.209 -0.3404 -0.0875  0.2964
 4932W        W 8451   8.380   7.686  10.661  0.2277  0.3318  0.0428
 4933W        W 8452   5.132   0.773   9.401 -0.0437  0.2183  0.0316
 4934W        W 8453   4.091   9.182   9.361  0.2325  0.2236  0.1036
 4935W        W 8454   1.909   7.325   9.426  0.3311 -0.1943 -0.1448
 4936W        W 8455   0.993   5.670  12.404 -0.1101  0.1068 -0.1048
 4937W        W 8456   5.746   6.900  12.217  0.1388  0.2410  0.2243
 4938W        W 8457   9.369   9.469   1.906  0.0715 -0.0890  0.2211
 4939W        W 8458   9.209   9.501  12.425  0.2520  0.0114  0.2943
 4940W        W 8459   8.700   6.303  11.566  0.2233  0.0307 -0.2369
 4941W        W 8460   8.655   6.891   9.249 -0.1414  0.3191  0.1265
 4942W        W 8461   2.252   8.048   3.098 -0.2977 -0.0106  0.0343
 4943W        W 8462   0.636   9.284   1.078 -0.3203  0.2559  0.1714
 4944W        W 8463   8.264   1.274  11.348 -0.0400  0.1131  0.0566
 4945W        W 8464   6.733   6.254   9.886  0.0292  0.0730 -0.1235
 4946W        W 8465   7.945   4.527   8.732 -0.1757 -0.0282 -0.1391
 4947W        W 8466   8.205   3.108   9.147 -0.0367 -0.0355 -0.1701
 4948W        W 8467   7.820   5.877  11.291 -0.3530 -0.2949  0.2578
 4949W        W 8468   9.327   2.725   2.716 -0.3552 -0.2204  0.0788
 4950W        W 8469   5.417   5.936   3.031 -0.0631  0.1260  0.0326
 4951W        W 8470   9.013   3.634  12.015  0.0260 -0.1350  0.0381
 4952W        W 8471   8.362   6.534   2.073  0.1531  0.1712 -0.2180
 4953W        W 8472   8.577   8.688   0.234 -0.0084  0.4017  0.0622
 4954W        W 8473   6.804   3.312   9.015 -0.1091 -0.1472  0.0695
 4955W        W 8474   2.990   7.179  11.035 -0.0122 -0.1324  0.2393
 4956W        W 8475   4.335   0.245  10.962  0.1946  0.2483 -0.0219
 4957W        W 8476   5.377   3.489   1.327 -0.1555 -0.0851 -0.4747
 4958W        W 8477   2.375   2.997   8.249  0.3796  0.2527  0.0656
 4959W        W 8478   2.349   0.166   0.918  0.1185  0.2439 -0.2547
 4960W        W 8479   5.788   4.288  11.004  0.0006 -0.0723 -0.1835
 4961W        W 8480   6.387   8.518   1.476 -0.1861  0.0713  0.1937
 4962W        W 8481   4.237   5.911   9.460  0.1990  0.0988 -0.3062
 4963W        W 8482   5.474   3.949   2.186 -0.0366  0.1739 -0.1105
 4964W        W 8483   4.622   6.969  10.892 -0.2171  0.2455 -0.1267
 4965W        W 8484   6.535   4.107   2.320 -0.2181  0.2038  0.0177
 4966W        W 8485   5.589   3.304   9.809  0.0054  0.0618  0.1362
 4967W        W 8486   0.903   7.630   3.608 -0.0350  0.2862 -0.1444
 4968W        W 8487   0.868   8.911   2.310 -0.1636  0.1781 -0.4945
 4969W        W 8488   4.682   2.223   2.803 -0.0304  0.4629  0.0243
 4970W        W 8489   2.551   5.619   0.221 -0.0469 -0.1579 -0.1306
 4971W        W 8490   5.053   0.808  11.187  0.5141 -0.0722 -0.0308
 4972W        W 8491   0.478   4.219   3.618 -0.2709  0.3102 -0.1631
 4973W        W 8492   3.904   1.724  12.383  0.1372 -0.1187 -0.1182
 4974W        W 8493   9.459   4.940  11.033 -0.1130  0.0004  0.1236
 4975W        W 8494   2.745   6.093   9.617  0.2521  0.2135  0.0892
 4976W        W 8495   2.718   8.011   1.844 -0.0415 -0.1332 -0.1175
 4977W        W 8496   6.759   1.498   0.582 -0.2445 -0.1028  0.0278
 4978W        W 8497   1.186   3.612   0.087 -0.1530 -0.0025 -0.0016
 4979W        W 8498   9.587   6.188  12.107  0.3611  0.0140  0.0281
 4980W        W 8499   9.053   7.150   2.895 -0.4694 -0.2261 -0.0823
 4981W        W 8500   8.818   4.331  10.057 -0.0032  0.2428  0.0067
 4982W        W 8501   6.157   9.093   0.811 -0.1092 -0.1336  0.0350
 4983W        W 8502   6.032   8.162   1.413  0.1769  0.1175 -0.3050
 4984W        W 8503   7.845   8.796   2.926 -0.0853 -0.2603 -0.0662
 4985W        W 8504   6.983   0.123   0.409 -0.2017 -0.1332  0.3010
 4986W        W 8505   6.265   8.136   9.557 -0.1016 -0.1039 -0.3211
 4987W        W 8506   9.073   9.511  11.873  0.1377  0.1690  0.1613
 4988W        W 8507   6.726   7.675  10.249  0.0509  0.2930 -0.0329
 4989W        W 8508   5.535   1.037   2.778 -0.0033  0.1307 -0.0636
 4990W        W 8509   5.063   3.005   3.336 -0.2119 -0.0562  0.2133
 4991W        W 8510   1.089   2.330   9.175 -0.0420  0.0190 -0.2577
 4992W        W 8511   8.485   7.278   1.725 -0.1950  0.0875  0.0723
 4993W        W 8512   7.826   7.296   1.455  0.0625 -0.1158  0.0780
 4994W        W 8513   9.570   3.941  11.799  0.0394  0.0727  0.0218
 4995W        W 8514   9.315   5.008  11.542 -0.2211 -0.1961  0.1499
 4996W        W 8515   2.676   3.006   1.298 -0.0854 -0.0026  0.3688
 4997W        W 8516   6.584   1.785  10.708  0.0603 -0.3266 -0.4206
 4998W        W 8517   7.611   5.941   9.871  0.4433  0.2130 -0.1279
 4999W        W 8518   8.892   6.427   0.099  0.0392 -0.1802  0.0107
 5000W        W 8519   6.323   2.435   1.476 -0.1591 -0.0525 -0.1885
 5001W        W 8520   2.146   9.423   0.155 -0.1188 -0.0171  0.2649
 5002W        W 8521   5.791   8.657   0.056  0.0324  0.0523 -0.2205
 5003W        W 8522   0.474   3.250  10.331  0.0294  0.1835 -0.0138
 5004W        W 8523   7.449   3.347  11.111 -0.0166  0.1994  0.1135
 5005W        W 8524   6.288   8.962  12.503 -0.1547  0.0473 -0.2080
 5006W        W 8525   6.942   5.174  10.070  0.3010  0.0552 -0.0637
 5007W        W 8526   5.785   1.529   0.593  0.0149 -0.1649 -0.1268
 5008W        W 8527   4.778   2.786  11.813  0.2385  0.2625 -0.1090
 5009W        W 8528   8.929   7.549  10.558 -0.4361  0.0922  0.3113
 5010W        W 8529   3.487   7.222   9.900 -0.0703  0.0145 -0.1822
 5011W        W 8530   3.863   1.401   1.961  0.0607 -0.2517  0.0772
 5012W        W 8531   4.632   2.040  12.208  0.3020 -0.2638 -0.0249
 5013W        W 8532   3.366   5.158   9.317  0.2018  0.0076 -0.2424
 5014W        W 8533   8.871   2.649  10.295  0.0883 -0.0889 -0.2253
 5015W        W 8534   0.087   8.134   1.599 -0.0994 -0.2011 -0.1295
 5016W        W 8535   5.546   9.707   3.820 -0.0759  0.0136 -0.0889
 5017W        W 8536   3.206   3.765  10.252 -0.1983 -0.2638  0.3337
 5018W        W 8537   1.636   0.314   3.963  0.1503 -0.2077  0.0993
 5019W        W 8538   4.353   4.837  11.465  0.0988 -0.1803 -0.3253
 5020W        W 8539   7.661   9.384   9.770 -0.1526 -0.1311 -0.2061
 5021W        W 8540   3.433   3.683   4.354  0.2767  0.0319 -0.2047
 5022W        W 8541   2.764   8.257   2.256  0.0718 -0.1125 -0.1301
 5023W        W 8542   1.733   3.373   1.368  0.0639 -0.3820  0.1589
 5024W        W 8543   7.595   0.606  10.077 -0.1344 -0.4898 -0.0968
 5025W        W 8544   0.764   2.255   0.667  0.2287  0.1814 -0.0674
 5026W        W 8545   2.206   8.933  10.865 -0.2427  0.1089 -0.0132
 5027W        W 8546   2.761   6.725   0.795 -0.0972  0.0778  0.3145
 5028W        W 8547   2.288   7.048   3.702  0.4449 -0.0041 -0.3183
 5029W        W 8548   4.707   1.807   8.295  0.0114  0.3267 -0.2603
 5030W        W 8549   0.539   5.804   1.905 -0.0498 -0.0434 -0.0800
 5031W        W 8550   3.825   3.650   2.792 -0.0281  0.1653 -0.3062
 5032W        W 8551   2.209   7.503   9.045 -0.2903 -0.2698  0.1519
 5033W        W 8552   1.526   8.470   2.653 -0.0254  0.3102 -0.1298
 5034W        W 8553   6.521   5.701   3.940  0.3094 -0.0021  0.1480
 5035W        W 8554   0.234   7.567   9.897  0.0150 -0.0719 -0.1949
 5036W        W 8555   0.974   6.880  11.583 -0.0190  0.0340  0.1600
 5037W        W 8556   5.833   3.327  12.355  0.0490  0.0899  0.0357
 5038W        W 8557   6.919   4.136   8.436 -0.1049 -0.0685  0.0380
 5039W        W 8558   6.617   4.542   9.201 -0.3112  0.1700 -0.1447
 5040W        W 8559   0.982   3.444  11.003 -0.0090 -0.1032 -0.0304
 5041W        W 8560   2.182   9.460  10.974  0.2784 -0.0696  0.1550
 5042W        W 8561   4.650   3.639   3.224  0.2298  0.2588  0.1693
 5043W        W 8562   4.885   6.548   3.188 -0.2644  0.0204  0.0343
 5044W        W 8563   5.286   1.235   9.502 -0.3080  0.0719  0.2584
 5045W        W 8564   6.486   7.158  12.403 -0.0301 -0.3969  0.2870
 5046W        W 8565   8.287   1.569   1.478 -0.2431 -0.0874 -0.0151
 5047W        W 8566   4.640   5.198   8.968  0.0807  0.2219  0.0731
 5048W        W 8567   0.391   7.519   3.663  0.0634 -0.0853 -0.1427
 5049W        W 8568   1.616   6.649   2.908 -0.1038  0.2090 -0.0226
 5050W        W 8569   6.683   1.670   9.380  0.1384 -0.0246 -0.2170
 5051W        W 8570   1.281   5.543  11.933  0.1358  0.0542  0.1764
 5052W        W 8571   2.027   3.551   2.251  0.0720 -0.1301  0.0501
 5053W        W 8572   3.548   4.529   0.513 -0.2302 -0.0027 -0.1171
 5054W        W 8573   9.595   1.426   0.113 -0.0322 -0.2322  0.2304
 5055W        W 8574   1.121   1.550   9.477 -0.3853 -0.1024 -0.1054
 5056W        W 8575   3.876   2.199   9.289  0.3172  0.1008 -0.1404
 5057W        W 8576   3.796   2.301  12.299 -0.1159 -0.4296 -0.0945
 5058W        W 8577   4.655   2.923   3.627  0.1421  0.2660  0.0559
 5059W        W 8578   8.273   3.108   8.179 -0.0310 -0.3318 -0.3070
 5060W        W 8579   3.894   0.273   1.685  0.3321 -0.2764 -0.0387
 5061W        W 8580   3.667   7.166   4.002 -0.0476 -0.0321 -0.0012
 5062W        W 8581   5.982   2.907   9.559 -0.1089  0.1017  0.1788
 5063W        W 8582   4.113   5.240   1.020  0.2760 -0.0070  0.0900
 5064W        W 8583   2.787   2.970  12.377 -0.2001 -0.0608 -0.4321
 5065W        W 8584   7.934   1.913   0.126 -0.1002 -0.4810 -0.1019
 5066W        W 8585   1.696   3.707   9.266  0.2344  0.1951 -0.0373
 5067W        W 8586   4.459   1.581   0.542  0.3228 -0.1019  0.0501
 5068W        W 8587   9.196   3.986   9.253 -0.0719  0.1227 -0.0338
 5069W        W 8588   9.290   5.815   1.522 -0.1362  0.1955 -0.1350
 5070W        W 8589   6.202   9.439   8.329  0.4586 -0.1019 -0.0942
 5071W        W 8590   8.116   2.182  10.067  0.1661  0.1977 -0.0814
 5072W        W 8591   1.795   6.023   9.700  0.3274  0.2034  0.1620
 5073W        W 8592   1.762   1.962   4.002 -0.0958 -0.1589  0.1528
 5074W        W 8593   1.726   7.559   0.706 -0.2459 -0.2111 -0.2588
 5075W        W 8594   2.406   4.981   1.614  0.1839 -0.0289 -0.0740
 5076W        W 8595   2.760   8.093   8.710  0.1688 -0.0837 -0.3532
 5077W        W 8596   6.709   3.171  12.147 -0.0427  0.2616 -0.2441
 5078W        W 8597   0.197   1.798  10.717  0.2741  0.3040  0.1208
 5079W        W 8598   8.074   2.218   2.479  0.1613 -0.2061 -0.0044
 5080W        W 8599   1.688   4.175  11.123 -0.1131 -0.1937 -0.0163
 5081W        W 8600   2.593   3.605  10.230 -0.0402  0.0460  0.2084
 5082W        W 8601   5.900   1.433   8.625  0.0925 -0.0173 -0.0707
 5083W        W 8602   6.226   7.215  11.358 -0.0420  0.0371 -0.0578
 5084W        W 8603   5.498   1.691   9.434  0.1251 -0.1870 -0.0399
 5085W        W 8604   0.369   9.453  10.743  0.0244 -0.3565 -0.1404
 5086W        W 8605   5.736   4.309   9.065 -0.1813 -0.0940 -0.1449
 5087W        W 8606   6.186   6.339   1.111  0.1893  0.0864 -0.0849
 5088W        W 8607   4.481   6.248   8.065 -0.2698  0.1689 -0.2433
 5089W        W 8608   2.564   6.894   0.310 -0.3942 -0.0480 -0.0755
 5090W        W 8609   6.540   2.729   2.282 -0.1361 -0.0328  0.2972
 5091W        W 8610   1.491   0.102   1.682 -0.0762 -0.1636  0.1194
 5092W        W 8611   1.057   9.016   1.040 -0.2395 -0.1352  0.2463
 5093W        W 8612   0.775   7.186  11.981  0.2846  0.2663 -0.0829
 5094W        W 8613   5.486   9.149  11.362  0.2758  0.2202 -0.3689
 5095W        W 8614   1.087   0.764   8.928 -0.1787 -0.2718 -0.0245
 5096W        W 8615   3.251   9.591   9.497  0.1040  0.0413 -0.1527
 5097W        W 8616   5.483   8.610  10.498  0.2169 -0.0663  0.0790
 5098W        W 8617   6.480   5.640   9.113 -0.0903  0.0297 -0.0841
 5099W        W 8618   3.001   5.365   4.444  0.2540 -0.1452 -0.2577
 5100W        W 8619   4.601   0.241   9.716 -0.0017  0.3521  0.2096
 5101W        W 8620   7.415   4.710   1.324 -0.1975  0.0347  0.0515
 5102W        W 8621   1.440   4.865   2.549 -0.0485  0.1026 -0.1592
 5103W        W 8622   4.497   6.054   3.582  0.2426 -0.4439  0.1519
 5104W        W 8623   7.161   2.361   1.040 -0.0498 -0.4293 -0.0301
 5105W        W 8624   5.598   1.057  12.315 -0.3149 -0.0054 -0.1160
 5106W        W 8625   0.757   3.074  10.758 -0.3245 -0.2130  0.0076
 5107W        W 8626   9.186   7.397   8.661 -0.3580 -0.2713  0.0358
 5108W        W 8627   8.300   5.771   4.045  0.0161  0.1252  0.0085
 5109W        W 8628   0.589   6.581  10.195 -0.3156 -0.1325  0.0692
 5110W        W 8629   2.822   9.330   2.184 -0.2954 -0.0618  0.1545
 5111W        W 8630   5.402   7.253   3.001  0.0902  0.0350  0.1345
 5112W        W 8631   7.597   6.698   2.964  0.0334  0.0784  0.2392
 5113W        W 8632   7.547   9.083   2.113  0.2477 -0.4333  0.0516
 5114W        W 8633   6.298   5.094   9.239  0.1198 -0.0137 -0.2251
 5115W        W 8634   6.233   6.746  12.181  0.1969  0.2226  0.2818
 5116W        W 8635   5.106   9.170   1.545 -0.0245 -0.2830  0.1169
 5117W        W 8636   0.143   3.078  11.598 -0.0422 -0.0662  0.0361
 5118W        W 8637   5.269   2.916  12.003 -0.0191  0.1481  0.1041
 5119W        W 8638   4.466   0.570   0.798 -0.1820  0.0752  0.1726
 5120W        W 8639   3.316   6.481  10.946  0.0671  0.1178 -0.0039
 5121W        W 8640   0.203   0.165   8.949  0.4438  0.0788  0.1725
 5122W        W 8641   6.904   6.664   4.176  0.1312  0.4892 -0.0609
 5123W        W 8642   3.342   3.568   1.702  0.0956  0.0344 -0.1588
 5124W        W 8643   9.613   4.064   0.496 -0.1209  0.3422  0.2199
 5125W        W 8644   8.924   6.196   2.925  0.0868  0.2139  0.0367
 5126W        W 8645   8.638   2.300   9.505 -0.0190 -0.0480 -0.0173
 5127W        W 8646   7.203   8.790   1.931  0.0332  0.1783 -0.0586
 5128W        W 8647   7.030   0.655   9.429  0.0883  0.0177  0.0973
 5129W        W 8648   9.147   7.269  11.836 -0.2049  0.3256  0.3491
 5130W        W 8649   9.371   4.379   1.236  0.1564 -0.3138  0.1158
 5131W        W 8650   8.991   3.642  11.523  0.0576 -0.3844  0.1432
 5132W        W 8651   7.896   1.293  10.011 -0.0219 -0.3955  0.1047
 5133W        W 8652   4.958   7.589   0.799 -0.3190  0.2366 -0.1139
 5134W        W 8653   2.267   0.062   3.750 -0.0519 -0.1827  0.1009
 5135W        W 8654   7.615   5.405   9.810 -0.1299 -0.1940  0.1043
 5136W        W 8655   9.515   7.233   0.640  0.2846 -0.4107 -0.0853
 5137W        W 8656   7.929   7.934   2.818  0.1330 -0.0157 -0.4853
 5138W        W 8657   9.058   7.796  11.273 -0.1848  0.0443  0.2015
 5139W        W 8658   8.317   6.565   9.946 -0.0646 -0.1257  0.0056
 5140W        W 8659   8.645   2.491   3.187  0.1811 -0.2611  0.2393
 5141W        W 8660   8.722   5.035   8.798  0.2271 -0.0309 -0.1666
 5142W        W 8661   7.751   0.667   3.264  0.2077 -0.4295  0.2794
 5143W        W 8662   1.542   3.825   1.221 -0.1566  0.2480 -0.4105
 5144W        W 8663   8.041   2.568   2.095 -0.5106 -0.1437  0.0696
 5145W        W 8664   3.321   2.804   3.698 -0.0178 -0.2381  0.5758
 5146W        W 8665   5.026   1.653   0.403 -0.0289  0.1076  0.1229
 5147W        W 8666   1.211   4.449  12.190 -0.1311 -0.2841  0.0350
 5148W        W 8667   9.028   9.127   9.736  0.1079 -0.0152  0.2654
 5149W        W 8668   2.595   9.594  11.554 -0.2711 -0.1025 -0.5501
 5150W        W 8669   3.609   1.913  11.965  0.2558  0.1618 -0.3088
 5151W        W 8670   3.320   3.408   8.855 -0.0825 -0.2524 -0.0500
 5152W        W 8671   0.669   5.076   4.207  0.3580 -0.1063  0.0869
 5153W        W 8672   5.747   7.065  11.219 -0.1884 -0.3105  0.0166
 5154W        W 8673   7.807   5.769  11.774 -0.0012  0.1893 -0.1121
 5155W        W 8674   6.437   3.082   1.486 -0.0447 -0.0111  0.0233
 5156W        W 8675   1.257   4.306   0.498 -0.0041 -0.2227  0.0229
 5157W        W 8676   8.973   5.158   9.716  0.2828  0.1207 -0.0569
 5158W        W 8677   1.995   4.466  11.486  0.0476 -0.1683 -0.0813
 5159W        W 8678   7.332   8.475  10.028 -0.2945 -0.0302  0.1328
 5160W        W 8679   6.214   0.341   0.210  0.1583 -0.0801 -0.2809
 5161W        W 8680   0.897   7.160   2.829 -0.0006 -0.1101  0.0835
 5162W        W 8681   7.343   6.525   1.724 -0.3469  0.2825 -0.1546
 5163W        W 8682   5.196   1.869   4.526 -0.2285  0.2460  0.3114
 5164W        W 8683   2.439   4.984  11.486  0.1535 -0.1716 -0.0131
 5165W        W 8684   9.136   4.160   9.700  0.2153 -0.1514 -0.0823
 5166W        W 8685   2.207   8.303  11.686 -0.1880  0.0966  0.0894
 5167W        W 8686   7.395   4.415  11.616  0.0096  0.2045 -0.1510
 5168W        W 8687   5.825   6.973   2.104  0.3703 -0.3255 -0.5044
 5169W        W 8688   4.073   9.558   3.307  0.1721  0.0713 -0.0310
 5170W        W 8689   8.442   3.574  12.256 -0.0660 -0.3937  0.1250
 5171W        W 8690   3.078   4.416   9.925 -0.0642 -0.3934 -0.1692
 5172W        W 8691   1.114   7.021  10.145 -0.1237 -0.0199 -0.0673
 5173W        W 8692   6.370   4.572   0.553  0.0058  0.3328 -0.0084
 5174W        W 8693   2.058   6.944  11.354 -0.0688  0.0896 -0.0484
 5175W        W 8694   4.411   3.774   8.879  0.1094  0.1449  0.0790
 5176W        W 8695   2.743   7.840   0.283  0.0102  0.0549  0.0172
 5177W        W 8696   7.571   0.941  11.286 -0.1649 -0.1089  0.0942
 5178W        W 8697   6.939   5.219   8.792  0.0504 -0.2469  0.1054
 5179W        W 8698   4.432   4.854   0.068 -0.3792 -0.1261  0.0691
 5180W        W 8699   6.302   4.039   1.158  0.3171  0.1472  0.0708
 5181W        W 8700   5.030   6.068   3.321  0.0972 -0.0119 -0.1250
 5182W        W 8701   1.065   6.234   3.067 -0.0720  0.0199 -0.1012
 5183W        W 8702   5.623   3.021   2.531 -0.2447  0.1023  0.0088
 5184W        W 8703   0.426   1.015   1.697  0.1060  0.1267 -0.1200
 5185W        W 8704   4.845   5.828   0.277 -0.3137 -0.2681  0.3530
 5186W        W 8705   0.227   4.226  12.052 -0.0395 -0.0077  0.1470
 5187W        W 8706   1.711   0.915  11.560  0.0893 -0.2739 -0.3244
 5188W        W 8707   4.305   4.146  12.254  0.0546 -0.0867 -0.0488
 5189W        W 8708   0.190   5.487   2.108 -0.0554 -0.0051  0.2945
 5190W        W 8709   6.191   1.932   1.969  0.2124  0.1193  0.2547
 5191W        W 8710   3.548   1.269  10.379  0.2121 -0.2618 -0.0682
 5192W        W 8711   6.558   1.181   0.934 -0.0441  0.0463  0.1665
 5193W        W 8712   2.092   3.910   0.077  0.0615 -0.0773  0.3716
 5194W        W 8713   6.047   1.933  11.607 -0.1890 -0.2534 -0.1417
 5195W        W 8714   4.134   2.031  10.572  0.4045 -0.0407 -0.0997
 5196W        W 8715   1.321   5.456   8.552 -0.0615 -0.2134 -0.0789
 5197W        W 8716   6.243   6.592   4.731 -0.1072  0.2389 -0.0774
 5198W        W 8717   6.657   5.242   3.397  0.3115 -0.2327 -0.1380
 5199W        W 8718   0.549   4.985   1.547 -0.1512 -0.3335  0.2726
 5200W        W 8719   8.518   4.456   0.074  0.1129 -0.0705 -0.5000
 5201W        W 8720   7.466   0.994   9.297 -0.3991 -0.0803 -0.1321
 5202W        W 8721   7.591   2.253  11.924 -0.0106  0.1211  0.0150
 5203W        W 8722   1.240   7.851   3.970 -0.1758  0.0026  0.3197
 5204W        W 8723   8.120   9.565  11.341  0.2731  0.1843 -0.2481
 5205W        W 8724   4.848   1.154   9.414 -0.2151  0.0546  0.3372
 5206W        W 8725   5.464   0.898   0.255 -0.0169 -0.0846 -0.0670
 5207W        W 8726   6.850   2.138  10.604 -0.2351  0.2219  0.0896
 5208W        W 8727   9.192   2.269   0.793  0.0416  0.1695 -0.2520
 5209W        W 8728   2.699   0.327   0.105  0.0833 -0.1935 -0.1805
 5210W        W 8729   0.018   3.266   3.476 -0.1580  0.1922  0.0338
 5211W        W 8730   3.667   3.910   3.367  0.0748  0.2273  0.1004
 5212W        W 8731   9.504   4.134   3.599  0.0527  0.0035  0.0781
 5213W        W 8732   8.764   4.100  12.385  0.0183 -0.4873 -0.0086
 5214W        W 8733   0.618   4.214   1.264  0.2028 -0.0671 -0.2427
 5215W        W 8734   6.402   2.059   2.402  0.2797 -0.0995 -0.1518
 5216W        W 8735   5.506   6.513  12.386  0.3503  0.3457  0.2892
 5217W        W 8736   5.748   6.039   3.438  0.0178  0.1770  0.2861
 5218W        W 8737   6.448   5.433   2.215 -0.0879 -0.4645 -0.0377
 5219W        W 8738   3.533   2.387   9.660  0.0914 -0.2814 -0.0396
 5220W        W 8739   5.589   1.689  10.347 -0.2833  0.0076  0.0180
 5221W        W 8740   8.939   8.280   1.955  0.1113  0.1304  0.0709
 5222W        W 8741   1.293   0.251   2.130  0.1379  0.2263 -0.0471
 5223W        W 8742   5.277   6.115  10.901  0.2632  0.0545  0.0936
 5224W        W 8743   1.995   3.105   0.387 -0.1338  0.3356  0.3518
 5225W        W 8744   7.949   7.216  12.117 -0.0987  0.5208 -0.0123
 5226W        W 8745   6.397   9.149   4.238 -0.3605 -0.0536  0.1861
 5227W        W 8746   5.890   4.719   0.635 -0.1215 -0.0083 -0.0401
 5228W        W 8747   2.664   0.942   3.957  0.1431  0.2348 -0.1104
 5229W        W 8748   4.764   9.648  10.100  0.1940 -0.0643  0.2634
 5230W        W 8749   0.956   0.414  10.409 -0.2608 -0.0264 -0.0993
 5231W        W 8750   9.451   5.925   0.425  0.2384  0.1063  0.1069
 5232W        W 8751   2.231   0.164  12.487 -0.0954 -0.1417 -0.2299
 5233W        W 8752   1.828   0.391  11.634  0.2911 -0.1254 -0.0037
 5234W        W 8753   8.557   9.376   0.665  0.1780 -0.1690 -0.2575
 5235W        W 8754   1.065   2.690   8.333  0.1334 -0.2955 -0.1886
 5236W        W 8755   3.030   0.439   2.769 -0.2083  0.2727 -0.0239
 5237W        W 8756   7.212   6.924   8.725 -0.1427  0.1042  0.1291
 5238W        W 8757   3.216   4.503   1.350  0.0129 -0.0858  0.2251
 5239W        W 8758   7.379   0.390   9.688 -0.1741  0.2044  0.0141
 5240W        W 8759   3.495   4.416   0.980  0.0941  0.4831  0.0446
 5241W        W 8760   0.276   0.008   1.629 -0.0698  0.1126 -0.0222
 5242W        W 8761   2.052   1.274   1.595 -0.3118 -0.3188  0.2732
 5243W        W 8762   0.172   8.126   2.926 -0.2194 -0.3328  0.2098
 5244W        W 8763   5.514   1.730   8.404  0.1393 -0.1124 -0.0525
 5245W        W 8764   9.086   4.818   2.535 -0.0080  0.0122  0.1407
 5246W        W 8765   6.111   0.272   3.709 -0.0730  0.0165 -0.1777
 5247W        W 8766   2.647   6.349   8.343  0.2332 -0.0556  0.1042
 5248W        W 8767   1.064   6.594   9.825 -0.0731 -0.1888 -0.4168
 5249W        W 8768   3.587   6.680   9.728  0.1513  0.2365 -0.0341
 5250W        W 8769   1.317   1.214   3.041 -0.0936 -0.5022 -0.0340
 5251W        W 8770   6.797   5.807   8.729  0.1329  0.0282  0.1250
 5252W        W 8771   0.273   8.439  12.012 -0.0922  0.2527  0.0007
 5253W        W 8772   1.460   7.741   1.580  0.0467 -0.1055 -0.0541
 5254W        W 8773   4.770   0.088  12.493 -0.1036 -0.1808 -0.1869
 5255W        W 8774   4.033   6.813   9.830 -0.1169 -0.2140 -0.1813
 5256W        W 8775   6.455   3.008  10.568  0.1019 -0.2923 -0.2012
 5257W        W 8776   4.478   8.149  10.295  0.0103 -0.1150  0.0594
 5258W        W 8777   7.040   5.687   4.308  0.1565  0.0410 -0.1213
 5259W        W 8778   7.664   0.561   9.171 -0.0233 -0.0358 -0.0830
 5260W        W 8779   5.101   8.282   2.740 -0.1060 -0.2759 -0.1761
 5261W        W 8780   5.418   1.117  10.049 -0.0439 -0.0392  0.1687
 5262W        W 8781   2.417   6.954  12.358 -0.0879 -0.3692 -0.2113
 5263W        W 8782   3.774   0.832   1.092  0.4079  0.2344  0.2561
 5264W        W 8783   3.212   5.316   3.880 -0.0429  0.2772  0.0930
 5265W        W 8784   3.377   2.351  11.922 -0.4311 -0.1662 -0.2116
 5266W        W 8785   8.048   2.807   0.109 -0.1741 -0.1217 -0.1439
 5267W        W 8786   4.729   5.364   2.983 -0.1311  0.1363 -0.3298
 5268W        W 8787   7.280   3.271   0.991 -0.0923 -0.0575 -0.1736
 5269W        W 8788   7.837   5.051   8.973  0.2531  0.2418  0.2062
 5270W        W 8789   2.538   4.483  11.401  0.0202 -0.1984 -0.2817
 5271W        W 8790   1.337   3.190  11.221  0.2354 -0.1022  0.3821
 5272W        W 8791   7.490   0.938   2.411 -0.1297  0.0619  0.0104
 5273W        W 8792   4.107   5.282  11.337  0.2466 -0.2028  0.0131
 5274W        W 8793   7.818   5.369  10.313 -0.2088 -0.2929 -0.1636
 5275W        W 8794   5.052   5.544  11.605  0.1233 -0.1254 -0.0891
 5276W        W 8795   6.495   2.682   1.121 -0.0183 -0.1912 -0.2883
 5277W        W 8796   4.697   8.004   0.610 -0.0974  0.0503 -0.1804
 5278W        W 8797   3.947   6.949   4.998  0.3749 -0.1325 -0.2367
 5279W        W 8798   7.835   0.143  10.054 -0.1104 -0.1798  0.4204
 5280W        W 8799   1.007   4.995   3.195 -0.0024  0.1082 -0.3179
 5281W        W 8800   9.652   8.171  11.591 -0.3642 -0.1113  0.1972
 5282W        W 8801   0.532   5.769   2.429  0.0423 -0.0621  0.3471
 5283W        W 8802   5.535   7.928  11.518  0.0366 -0.3550 -0.0891
 5284W        W 8803   1.557   2.569   4.637  0.2022 -0.1888 -0.1564
 5285W        W 8804   3.410   0.486   3.990 -0.1511  0.1759  0.1359
 5286W        W 8805   3.582   2.269  11.431  0.1555  0.0417 -0.1353
 5287W        W 8806   7.414   8.173   1.885 -0.4913  0.2150  0.1003
 5288W        W 8807   3.623   8.650   3.388 -0.0317  0.0964 -0.1050
 5289W        W 8808   9.629   4.667   2.398  0.1511 -0.2380 -0.2444
 5290W        W 8809   5.608   0.844   9.577  0.1158 -0.0621  0.1622
 5291W        W 8810   8.986   6.668   0.964  0.1959  0.1905 -0.3010
 5292W        W 8811   2.266   2.383   9.464  0.0691  0.0812 -0.0142
 5293W        W 8812   2.847   9.074   3.798  0.0453  0.1411  0.2192
 5294W        W 8813   2.678   7.834   3.423  0.1741  0.3994  0.2591
 5295W        W 8814   7.939   1.805   2.226 -0.1816  0.0259 -0.0282
 5296W        W 8815   7.761   8.183   0.470  0.1090 -0.3209  0.0277
 5297W        W 8816   7.006   7.209   0.076  0.0456  0.0911  0.0553
 5298W        W 8817   3.728   3.707  10.086  0.0983  0.0040 -0.3033
 5299W        W 8818   6.713   8.598  10.043 -0.0262  0.0470 -0.0733
 5300W        W 8819   4.024   9.450   3.954  0.2065 -0.3350 -0.3635
 5301W        W 8820   6.458   3.828   9.995  0.0086 -0.1620  0.5185
 5302W        W 8821   1.657   0.898   8.773  0.2435  0.2392  0.2536
 5303W        W 8822   5.579   3.022   1.462  0.2667  0.0949 -0.0654
 5304W        W 8823   6.078   1.277  10.112  0.2184  0.2578 -0.1311
 5305W        W 8824   7.017   4.169   9.570  0.1087 -0.0091  0.0054
 5306W        W 8825   2.528   6.858  10.999 -0.1385 -0.3159 -0.1554
 5307W        W 8826   0.390   8.609   0.726 -0.0054  0.0857  0.1712
 5308W        W 8827   7.100   5.992   2.917 -0.1029  0.1612  0.1477
 5309W        W 8828   6.291   9.367  10.142 -0.2839 -0.3190  0.1836
 5310W        W 8829   2.376   3.679  11.260  0.2209 -0.2604  0.2332
 5311W        W 8830   1.816   2.115   0.093 -0.0784  0.1520  0.2319
 5312W        W 8831   6.729   0.797  11.963  0.0953 -0.0525  0.0856
 5313W        W 8832   3.533   0.908   2.249 -0.2238  0.2859  0.2258
 5314W        W 8833   4.848   7.432  12.102  0.0549 -0.0978 -0.2266
 5315W        W 8834   7.177   6.387  10.136  0.0965 -0.1107 -0.0943
 5316W        W 8835   1.624   7.006   4.007 -0.0398  0.2627  0.0760
 5317W        W 8836   4.865   0.972   3.939  0.3694  0.0778 -0.2603
 5318W        W 8837   4.522   8.342   8.295  0.0360 -0.0484  0.2495
 5319W        W 8838   1.364   2.788   2.489  0.3075 -0.1618  0.2326
 5320W        W 8839   4.283   7.705   1.428 -0.3995  0.1984  0.0311
 5321W        W 8840   4.505   1.004   1.045 -0.0974  0.2085 -0.0373
 5322W        W 8841   2.980   7.691   4.328  0.4177 -0.1030  0.3284
 5323W        W 8842   7.382   5.797   0.100  0.1467  0.1706 -0.1071
 5324W        W 8843   2.442   1.386  12.498  0.0308 -0.1011 -0.0722
 5325W        W 8844   7.297   4.257   2.120 -0.1944  0.1646  0.1546
 5326W        W 8845   3.905   5.273   8.218 -0.0124 -0.1605  0.2335
 5327W        W 8846   2.601   2.256   2.571  0.1468 -0.1289  0.2217
 5328W        W 8847   3.306   7.387   1.492 -0.2039 -0.2733 -0.0859
 5329W        W 8848   1.762   2.575  12.218 -0.1700 -0.0503 -0.0370
 5330W        W 8849   8.001   4.674   9.517 -0.0405  0.0666  0.0737
 5331W        W 8850   2.202   6.927   3.243 -0.0965  0.0626 -0.1320
 5332W        W 8851   6.682   9.325   1.713 -0.0264  0.2511 -0.0754
 5333W        W 8852   4.812   0.128   9.272  0.0422  0.1676  0.0974
 5334W        W 8853   2.118   5.873   8.073 -0.0400 -0.0001  0.2528
 5335W        W 8854   4.831   2.743   1.513  0.1395  0.2634  0.0377
 5336W        W 8855   6.819   1.335   2.033  0.1521  0.0068 -0.1734
 5337W        W 8856   7.566   6.698  10.995  0.0644 -0.2119 -0.0233
 5338W        W 8857   4.704   2.237  11.713  0.0747 -0.2141  0.0166
 5339W        W 8858   4.021   1.311   9.122 -0.0117  0.1083  0.1834
 5340W        W 8859   2.441   6.453   9.684 -0.0526 -0.0459 -0.0643
 5341W        W 8860   8.554   5.088   9.954 -0.2293  0.1846  0.0516
 5342W        W 8861   2.400   4.914   9.301  0.3792 -0.0856  0.0079
 5343W        W 8862   2.472   9.181   1.856 -0.0305 -0.2309 -0.0095
 5344W        W 8863   8.890   5.546   1.829 -0.1257  0.1368 -0.1657
 5345W        W 8864   5.201   1.089  11.647 -0.1380  0.0465  0.1153
 5346W        W 8865   5.635   6.672   4.776  0.1362  0.0337  0.4468
 5347W        W 8866   1.485   8.045  12.424  0.0283 -0.1570 -0.0228
 5348W        W 8867   5.914   6.734   8.229  0.0708 -0.1935  0.2866
 5349W        W 8868   6.035   6.885  11.725 -0.0713  0.0309  0.0704
 5350W        W 8869   3.677   4.890   0.098 -0.1799 -0.1075 -0.2722
 5351W        W 8870   2.369   5.722   2.718 -0.1351  0.2896 -0.0295
 5352W        W 8871   5.004   5.029  11.522  0.1264 -0.0257 -0.1334
 5353W        W 8872   9.242   6.826  11.520 -0.1905  0.0723  0.0182
 5354W        W 8873   9.314   5.768  10.042  0.1568 -0.2409  0.1566
 5355W        W 8874   4.056   8.716   3.178 -0.1455 -0.0627 -0.1456
 5356W        W 8875   4.543   5.015   1.152  0.1384  0.1809  0.2403
 5357W        W 8876   3.500   6.789   0.216 -0.0668 -0.1336 -0.0883
 5358W        W 8877   9.164   4.263  10.545 -0.0493 -0.3773  0.2396
 5359W        W 8878   0.332   2.886   4.265  0.2720 -0.1184 -0.0656
 5360W        W 8879   2.226   7.534   3.771  0.3173  0.3750  0.2924
 5361W        W 8880   2.043   0.836   1.940 -0.2545  0.1074 -0.1199
 5362W        W 8881   8.040   6.675   3.890  0.0469 -0.1065  0.1514
 5363W        W 8882   1.061   4.756  11.311 -0.1049  0.3380 -0.0137
 5364W        W 8883   7.430   0.193   0.750 -0.1818  0.1521  0.0032
 5365W        W 8884   7.884   5.130   2.872  0.2672 -0.0290 -0.5836
 5366W        W 8885   1.162   0.908  10.286 -0.2285 -0.1462  0.1759
 5367W        W 8886   7.967   1.651  11.287 -0.2714 -0.1140  0.0378
 5368W        W 8887   0.751   8.441   8.575 -0.3649 -0.0668  0.0730
 5369W        W 8888   3.172   6.599   3.365  0.1296 -0.2006 -0.2334
 5370W        W 8889   6.217   4.953   3.515 -0.1375  0.1508 -0.0841
 5371W        W 8890   8.760   9.267   3.344  0.1351  0.2147  0.2624
 5372W        W 8891   2.672   0.222   2.372  0.3660  0.1985 -0.4406
 5373W        W 8892   0.714   8.610   9.696 -0.0121 -0.0423 -0.4768
 5374W        W 8893   1.170   2.064  10.818 -0.0003 -0.2824  0.2773
 5375W        W 8894   1.123   3.737   9.263 -0.0526 -0.0346  0.2099
 5376W        W 8895   9.328   2.652   3.818  0.2513  0.0611 -0.1954
 5377W        W 8896   7.404   7.389   3.526 -0.1597 -0.1763  0.0311
 5378W        W 8897   0.635   7.569   2.674 -0.0344 -0.4014  0.0458
 5379W        W 8898   0.806   3.190   3.595  0.1280 -0.0097 -0.2512
 5380W        W 8899   1.304   6.358  11.458 -0.0111  0.2570  0.0937
 5381W        W 8900   1.789   3.053   0.968  0.3273 -0.0987  0.2616
 5382W        W 8901   4.418   9.346   3.656  0.3806 -0.1406  0.1801
 5383W        W 8902   1.753   8.410   2.118 -0.1848  0.0349  0.1660
 5384W        W 8903   7.054   5.061   1.615 -0.0284 -0.0514 -0.0794
 5385W        W 8904   6.435   2.755   4.198 -0.0051 -0.1433  0.1699
 5386W        W 8905   0.134   0.853  12.006  0.0522  0.1242 -0.0811
 5387W        W 8906   5.922   4.239   0.113  0.4345 -0.1708  0.2648
 5388W        W 8907   0.875   2.260   1.795  0.2365  0.0104  0.0745
 5389W        W 8908   6.231   8.123   3.099 -0.0736  0.3451  0.0710
 5390W        W 8909   3.428   0.732   1.822  0.0147 -0.1254  0.2436
 5391W        W 8910   4.013   1.748   2.669  0.0088  0.1386 -0.0485
 5392W        W 8911   8.413   6.980   0.364 -0.0805 -0.0121 -0.0606
 5393W        W 8912   0.693   3.084   1.124 -0.1752 -0.0770  0.2096
 5394W        W 8913   0.206   7.963   9.065  0.0838  0.1520 -0.1841
 5395W        W 8914   0.520   3.054   1.609  0.4039  0.0843  0.1956
 5396W        W 8915   8.652   7.679   3.656 -0.0827  0.2720  0.5857
 5397W        W 8916   3.356   8.813   8.706 -0.1157  0.2051  0.2286
 5398W        W 8917   3.768   8.127  11.930 -0.0996 -0.2723 -0.2404
 5399W        W 8918   8.999   5.071   3.583 -0.1274  0.0693  0.3632
 5400W        W 8919   4.692   2.658   9.199  0.2206  0.0512  0.1806
 5401W        W 8920   6.286   0.238   2.912 -0.0807  0.1807 -0.0619
 5402W        W 8921   0.140   5.290   3.358 -0.0461  0.1489  0.0126
 5403W        W 8922   9.330   0.552   2.505  0.0065  0.2519 -0.2556
 5404W        W 8923   8.500   2.336   8.693 -0.0808  0.2912 -0.1912
 5405W        W 8924   2.007   4.711   0.039 -0.4817 -0.1788  0.1376
 5406W        W 8925   7.838   6.122   7.982  0.0895 -0.0282 -0.0721
 5407W        W 8926   2.638   9.504  12.519  0.3171 -0.6104 -0.0171
 5408W        W 8927   3.922   1.355   9.634 -0.1541  0.0631 -0.2899
 5409W        W 8928   9.451   6.148  11.218  0.0438 -0.3704 -0.1567
 5410W        W 8929   9.243   2.946   9.992  0.0245  0.1494  0.0014
 5411W        W 8930   3.370   0.882   1.340 -0.0414  0.0524  0.0616
 5412W        W 8931   7.346   1.944   9.016 -0.3436 -0.1780  0.1262
 5413W        W 8932   1.167   7.068   2.435 -0.1671  0.4057  0.0421
 5414W        W 8933   2.691   8.439   8.203  0.1849 -0.0209  0.1796
 5415W        W 8934   1.572   6.957  12.262  0.1629  0.1437  0.0433
 5416W        W 8935   7.278   5.188   2.122 -0.0233  0.2185  0.3218
 5417W        W 8936   4.066   3.920   8.541  0.2179 -0.2647 -0.2177
 5418W        W 8937   6.453   8.972   9.731 -0.2601 -0.1826  0.0161
 5419W        W 8938   3.796   4.826   0.907  0.2609  0.0287  0.5980
 5420W        W 8939   3.357   6.038   0.383 -0.1478 -0.1302 -0.1200
 5421W        W 8940   6.214   2.911   8.344 -0.1607  0.0473 -0.2001
 5422W        W 8941   7.457   8.368   9.069  0.1665 -0.1533 -0.1526
 5423W        W 8942   3.228   5.600  10.142  0.0002  0.3336 -0.1695
 5424W        W 8943   3.250   7.306  11.907 -0.2371  0.2722  0.2382
 5425W        W 8944   4.803   4.360   4.323  0.2087 -0.0779  0.1211
 5426W        W 8945   8.297   7.567   8.679  0.2018  0.3560  0.0316
 5427W        W 8946   5.742   7.951  11.075 -0.1663 -0.0531 -0.4381
 5428W        W 8947   5.195   0.838  12.092 -0.0071  0.0926  0.1672
 5429W        W 8948   7.906   0.689   2.126 -0.1827  0.0718 -0.1226
 5430W        W 8949   9.555   5.360   1.728  0.0174 -0.1972  0.2950
 5431W        W 8950   6.800   7.830  11.663 -0.1148  0.1408  0.0712
 5432W        W 8951   3.902   3.813   1.574  0.2969 -0.0457  0.0414
 5433W        W 8952   2.794   8.053   9.576  0.1450  0.1509 -0.0043
 5434W        W 8953   6.107   9.313   3.586 -0.0011 -0.0719 -0.2294
 5435W        W 8954   0.756   0.454   2.478  0.2514  0.0007 -0.0557
 5436W        W 8955   7.924   6.361   0.179 -0.0366 -0.1616  0.2165
 5437W        W 8956   3.794   5.189   1.643  0.0429  0.1682  0.1600
 5438W        W 8957   0.402   9.563   3.757  0.2481  0.0246 -0.1087
 5439W        W 8958   4.855   5.705  11.069 -0.0108 -0.0844 -0.1316
 5440W        W 8959   9.461   9.525  10.374 -0.1822 -0.2078  0.1348
 5441W        W 8960   9.033   2.586   9.267 -0.2930  0.2973 -0.3120
 5442W        W 8961   3.763   3.402   3.601  0.0790  0.4909  0.1714
 5443W        W 8962   8.820   1.678   0.197 -0.1393 -0.1431 -0.0724
 5444W        W 8963   8.300   6.916   2.651 -0.3238 -0.2045 -0.0576
 5445W        W 8964   4.223   4.110   0.226  0.1348  0.1929  0.0626
 5446W        W 8965   1.564   6.309   4.636 -0.1439 -0.2131  0.1561
 5447W        W 8966   4.416   9.024   9.636  0.0952  0.0184  0.2377
 5448W        W 8967   5.055   8.871   9.699 -0.0295  0.0808  0.0582
 5449W        W 8968   7.150   4.510  12.124 -0.1634 -0.1668  0.1921
 5450W        W 8969   1.746   9.256   0.505  0.5708 -0.1648 -0.0323
 5451W        W 8970   7.034   2.983   3.949 -0.0658 -0.0148  0.0107
 5452W        W 8971   5.265   1.453  11.964  0.3337 -0.1012  0.2925
 5453W        W 8972   3.967   2.872  10.207  0.2518 -0.0916  0.1053
 5454W        W 8973   2.289   6.261   0.891 -0.0992  0.0841 -0.0153
 5455W        W 8974   9.679   3.996   9.069  0.0642  0.1226  0.0274
 5456W        W 8975   9.668   5.658   1.272 -0.1611  0.0981  0.0533
 5457W        W 8976   6.263   8.664   9.423  0.2398 -0.1200  0.0885
 5458W        W 8977   5.895   6.639   9.168  0.2859 -0.1401 -0.0302
 5459W        W 8978   4.968   8.742  12.016 -0.1853  0.0166  0.0316
 5460W        W 8979   0.373   1.567   3.006  0.1698 -0.1197  0.0401
 5461W        W 8980   2.457   8.415   8.870  0.1596  0.4519  0.1148
 5462W        W 8981   1.816   5.657   2.726  0.3145  0.0095 -0.0448
 5463W        W 8982   0.882   3.285   9.280  0.0971  0.0317 -0.0611
 5464W        W 8983   1.169   8.063   8.559 -0.0919 -0.0669 -0.0646
 5465W        W 8984   0.160   6.275   9.545 -0.1076 -0.2087  0.0961
 5466W        W 8985   7.771   1.701   8.818  0.0418  0.1486  0.2835
 5467W        W 8986   4.165   5.826   9.946 -0.0983 -0.1529 -0.0353
 5468W        W 8987   6.301   3.182  12.438  0.0217  0.3344  0.2018
 5469W        W 8988   5.906   6.165   1.608  0.0953 -0.3215  0.1886
 5470W        W 8989   8.747   8.928  10.779  0.4373  0.0237  0.0142
 5471W        W 8990   4.331   7.234   9.827 -0.0405  0.0046 -0.0123
 5472W        W 8991   5.193   8.811   3.908  0.0425  0.0311 -0.1157
 5473W        W 8992   5.120   4.165  12.447 -0.1456 -0.3424 -0.3255
 5474W        W 8993   0.774   3.573   2.733  0.0972 -0.1222 -0.2792
 5475W        W 8994   1.844   0.223   8.720  0.1544  0.2086 -0.2655
 5476W        W 8995   7.661   7.721   1.801  0.2589 -0.0103 -0.3705
 5477W        W 8996   8.545   4.773   2.618 -0.3022 -0.0904  0.0590
 5478W        W 8997   4.744   7.053   4.381 -0.4111  0.4371 -0.2172
 5479W        W 8998   4.147   2.959   1.605  0.2571 -0.0974 -0.2998
 5480W        W 8999   2.270   2.864  11.451  0.1503 -0.1983 -0.1277
 5481W        W 9000   9.119   6.956   0.570 -0.1696 -0.1972  0.2711
 5482W        W 9001   0.329   1.308  12.014 -0.3707  0.2998 -0.1658
 5483W        W 9002   1.799   7.871  11.033 -0.2357  0.3583 -0.0192
 5484W        W 9003   1.497   3.735  11.106 -0.1542 -0.1100  0.1967
 5485W        W 9004   6.036   5.666  11.483 -0.0260 -0.1984 -0.0667
 5486W        W 9005   2.620   0.277   4.240  0.3867  0.1140  0.2713
 5487W        W 9006   3.479   3.044   2.804 -0.0466 -0.1041 -0.3326
 5488W        W 9007   3.363   7.012   3.664 -0.2846 -0.1241 -0.4258
 5489W        W 9008   1.727   4.457  10.252 -0.4039  0.2685  0.0997
 5490W        W 9009   5.819   1.035   0.634  0.0251  0.2461 -0.2795
 5491W        W 9010   0.704   6.784   3.616 -0.2634 -0.1904 -0.0322
 5492W        W 9011   7.391   1.329   1.764  0.2426 -0.0885 -0.0318
 5493W        W 9012   8.892   5.764   0.293 -0.0047  0.1053 -0.4284
 5494W        W 9013   2.902   7.262   8.799  0.1745 -0.0944  0.0427
 5495W        W 9014   7.934   4.200   0.875 -0.1871 -0.2741  0.2437
 5496W        W 9015   2.548   5.536   4.459  0.1025  0.1918 -0.0685
 5497W        W 9016   3.194   4.988   3.236 -0.3767 -0.0608 -0.2998
 5498W        W 9017   5.277   1.570   9.896  0.1616 -0.1119 -0.3624
 5499W        W 9018   6.711   5.029   4.806 -0.1160  0.1776  0.0834
 5500W        W 9019   4.939   6.096  11.936  0.2810  0.2066 -0.0480
 5501W        W 9020   6.218   2.126   0.035 -0.4374  0.0525  0.0239
 5502W        W 9021   7.575   8.554   0.703  0.2293 -0.0435 -0.1527
 5503W        W 9022   6.695   3.315   0.190  0.0952 -0.1585  0.0208
 5504W        W 9023   1.097   4.988  10.734 -0.0506  0.4220  0.0493
 5505W        W 9024   5.833   0.191   9.277 -0.0507  0.3580  0.0287
 5506W        W 9025   3.464   2.758  10.176  0.1626  0.0985 -0.1207
 5507W        W 9026   6.106   7.039  10.177  0.2108  0.0509  0.0793
 5508W        W 9027   2.555   7.366   0.185 -0.3518 -0.0125  0.3251
 5509W        W 9028   5.310   7.107  12.054  0.0836  0.0380  0.2229
 5510W        W 9029   2.870   8.314  10.915  0.0594 -0.0118 -0.1213
 5511W        W 9030   3.325   5.716   1.591 -0.1316  0.0488 -0.0593
 5512W        W 9031   3.003   1.669   9.879 -0.1290 -0.2259 -0.0778
 5513W        W 9032   2.378   8.423  10.823  0.1578 -0.0359  0.0869
 5514W        W 9033   5.446   2.447  12.316  0.2480 -0.2369  0.1392
 5515W        W 9034   0.848   8.461   2.102 -0.0875  0.2232  0.0387
 5516W        W 9035   0.156   9.225   0.888  0.0368  0.0456 -0.1088
 5517W        W 9036   5.633   7.504   0.246 -0.1447 -0.2883  0.2652
 5518W        W 9037   7.904   9.389   2.259 -0.2248  0.0658  0.2260
 5519W        W 9038   9.024   4.571   1.590  0.0473 -0.0527 -0.1235
 5520W        W 9039   4.485   4.498   0.449  0.3004 -0.0318 -0.0926
 5521W        W 9040   6.409   4.141   0.202  0.0849 -0.0748 -0.0934
 5522W        W 9041   3.364   2.079   2.062  0.1744  0.3630  0.0270
 5523W        W 9042   3.416   7.885   3.450 -0.0057 -0.2058  0.0429
 5524W        W 9043   9.520   5.245   0.895  0.0654  0.2249  0.1970
 5525W        W 9044   2.844   5.843   1.725  0.2736 -0.1105  0.1715
 5526W        W 9045   1.978   5.740   3.877 -0.1683  0.0543 -0.2720
 5527W        W 9046   1.450   1.574   2.585  0.1220  0.0677 -0.0841
 5528W        W 9047   3.276   7.454   9.071 -0.1386 -0.4176  0.1468
 5529W        W 9048   2.891   1.096   8.194 -0.1091 -0.2858  0.1593
 5530W        W 9049   5.241   7.805   1.372 -0.1984  0.0112 -0.0114
 5531W        W 9050   3.513   7.752   4.410  0.0274  0.2882  0.2130
 5532W        W 9051   9.548   4.413  11.568 -0.2454  0.4866  0.1766
 5533W        W 9052   9.129   4.128  11.733  0.1752 -0.0283  0.0376
 5534W        W 9053   9.679   4.039  10.096 -0.1174  0.1865  0.1158
 5535W        W 9054   0.442   7.121  12.449  0.1954 -0.0312 -0.2902
 5536W        W 9055   4.072   4.439   9.415 -0.1220  0.3739  0.1376
 5537W        W 9056   6.018   8.152  10.068 -0.1121  0.0880 -0.0356
 5538W        W 9057   2.794   8.274   5.014  0.0718  0.0984 -0.0702
 5539W        W 9058   6.149   2.690   2.536 -0.2414  0.0285  0.0959
 5540W        W 9059   0.437   9.070   2.988  0.2079 -0.3537  0.1354
 5541W        W 9060   3.920   9.213   0.405  0.3802  0.1651 -0.0909
 5542W        W 9061   8.112   5.963   3.094  0.2212 -0.0286 -0.1838
 5543W        W 9062   2.834   6.440   9.976  0.0328 -0.0870 -0.1878
 5544W        W 9063   1.579   2.308   0.526 -0.0565  0.3112  0.2040
 5545W        W 9064   7.942   1.044  12.072 -0.3226 -0.1932 -0.1109
 5546W        W 9065   7.591   4.671   2.881 -0.1486  0.1408  0.1630
 5547W        W 9066   3.727   0.289   8.432 -0.0562 -0.3641 -0.1401
 5548W        W 9067   6.672   7.577   0.152 -0.1095  0.1307 -0.0193
 5549W        W 9068   7.255   7.559  12.023  0.0959  0.0503 -0.2413
 5550W        W 9069   2.665   9.278   2.637 -0.6238  0.0713 -0.0641
 5551W        W 9070   3.208   6.835  10.022 -0.0977  0.1641 -0.0562
 5552W        W 9071   7.461   5.625   2.023  0.0386 -0.3239 -0.2531
 5553W        W 9072   1.451   8.178  11.741 -0.1335 -0.0922  0.2777
 5554W        W 9073   6.489   0.291  11.260  0.0490 -0.0191  0.0528
 5555W        W 9074   9.037   0.131   1.744 -0.0751 -0.0670  0.3347
 5556W        W 9075   7.516   2.069   2.361 -0.2132  0.1353 -0.1786
 5557W        W 9076   3.871   1.005   0.648  0.1595  0.2622 -0.1716
 5558W        W 9077   0.591   1.905   2.564  0.3685  0.0983  0.0241
 5559W        W 9078   2.999   7.080   4.138 -0.0742  0.0144 -0.1148
 5560W        W 9079   4.556   5.504   9.514  0.0680 -0.1995  0.1768
 5561W        W 9080   0.196   2.095   9.023 -0.0371  0.1628 -0.2675
 5562W        W 9081   6.772   2.549  11.693  0.0709  0.0640 -0.1309
 5563W        W 9082   1.502   1.751   9.886  0.0984 -0.1677 -0.1507
 5564W        W 9083   7.458   6.277  12.463 -0.0063  0.2182 -0.0697
 5565W        W 9084   8.884   8.309   1.365  0.1198 -0.1567 -0.1013
 5566W        W 9085   4.495   6.640   9.971 -0.0600  0.1391  0.1954
 5567W        W 9086   6.257   7.679   2.810  0.0137  0.0448 -0.1119
 5568W        W 9087   8.883   0.835   1.230  0.3005 -0.0591  0.1777
 5569W        W 9088   5.460   9.398   2.836 -0.0121  0.2880 -0.1469
 5570W        W 9089   6.277   5.824  12.496  0.1782 -0.4218  0.0063
 5571W        W 9090   6.224   7.188   2.030 -0.2483  0.0326  0.0790
 5572W        W 9091   6.564   5.015  11.708  0.4911  0.1948 -0.0918
 5573W        W 9092   4.415   3.058   8.963 -0.0528 -0.2750 -0.2116
 5574W        W 9093   1.148   2.431   2.715 -0.1328  0.0310 -0.3871
 5575W        W 9094   7.742   7.148   3.201  0.1259 -0.0818 -0.1406
 5576W        W 9095   5.896   5.168  10.100 -0.1171 -0.1333  0.0894
 5577W        W 9096   3.379   2.779   4.217  0.3028  0.2405  0.2859
 5578W        W 9097   5.238   3.789  12.157  0.0005 -0.1578 -0.0090
 5579W        W 9098   0.664   8.517   3.728  0.0183  0.3029 -0.1599
 5580W        W 9099   2.772   3.953  11.121  0.1478 -0.0155 -0.1913
 5581W        W 9100   3.172   0.783   3.112  0.1590  0.0889  0.0730
 5582W        W 9101   4.615   8.317   2.803 -0.1784  0.2160  0.2051
 5583W        W 9102   3.851   0.873  10.469  0.1161  0.1086 -0.1593
 5584W        W 9103   0.528   5.443  10.120  0.1704 -0.3670 -0.0208
 5585W        W 9104   7.062   6.080   9.268 -0.1372 -0.0129 -0.2918
 5586W        W 9105   4.868   9.098   4.512  0.3356  0.0916 -0.0972
 5587W        W 9106   2.348   1.752   5.223 -0.0133 -0.1475 -0.1038
 5588W        W 9107   1.785   1.446   0.820  0.1656  0.3108 -0.3030
 5589W        W 9108   5.678   8.280   4.219  0.2413 -0.1628 -0.2304
 5590W        W 9109   1.539   1.742  11.902 -0.2974  0.0620 -0.1646
 5591W        W 9110   6.901   2.148   9.260  0.2202  0.1884  0.0608
 5592W        W 9111   6.710   9.691   2.876  0.1833  0.0015  0.0373
 5593W        W 9112   7.236   4.490  10.817 -0.1678  0.1656 -0.0191
 5594W        W 9113   3.978   0.377   0.841  0.3275 -0.2716  0.0585
 5595W        W 9114   6.231   1.160   1.943  0.1397 -0.2248 -0.2701
 5596W        W 9115   0.249   7.460   0.801  0.0318  0.0085 -0.0563
 5597W        W 9116   4.977   3.962   4.079  0.1809 -0.3070 -0.1896
 5598W        W 9117   3.006   9.138   9.699 -0.2530 -0.0352  0.0685
 5599W        W 9118   0.607   2.495  11.364  0.0990 -0.1899 -0.2463
 5600W        W 9119   2.817   9.108   0.815  0.1603 -0.1233 -0.2918
 5601W        W 9120   9.068   2.365  11.490 -0.0859 -0.3346  0.1935
 5602W        W 9121   8.168   3.371   2.144  0.1269 -0.0330  0.3851
 5603W        W 9122   2.000   5.177  12.235  0.1390  0.0754 -0.0686
 5604W        W 9123   3.266   8.217  11.771 -0.1992  0.0292  0.1436
 5605W        W 9124   7.026   0.553   0.715  0.1715 -0.1516  0.0498
 5606W        W 9125   2.275   4.359  12.307 -0.0154 -0.0850 -0.1188
 5607W        W 9126   4.430   5.066   3.234  0.2228 -0.0498  0.0582
 5608W        W 9127   2.048   7.869   0.403 -0.2181  0.0974 -0.0787
 5609W        W 9128   6.378   6.326   3.276 -0.4129 -0.4045 -0.1376
 5610W        W 9129   3.753   8.422   2.342 -0.1843  0.0723 -0.3878
 5611W        W 9130   6.271   5.787   1.590 -0.0101 -0.2756 -0.3502
 5612W        W 9131   1.327   1.217   4.175  0.1288 -0.2526 -0.3675
 5613W        W 9132   5.724   1.162   1.902  0.0340  0.2885 -0.0891
 5614W        W 9133   8.308   7.148  11.178 -0.0655 -0.2357 -0.0273
 5615W        W 9134   5.637   6.395   3.025 -0.1027  0.0870  0.0644
 5616W        W 9135   5.560   1.015  10.572  0.0395 -0.1698  0.2565
 5617W        W 9136   6.844   3.343   1.299 -0.0664 -0.1433  0.1579
 5618W        W 9137   6.123   0.209   0.913 -0.0422 -0.4751  0.2009
 5619W        W 9138   5.660   2.863   0.511 -0.2553 -0.3604  0.1381
 5620W        W 9139   6.660   3.060  11.547  0.1653 -0.1818 -0.0884
 5621W        W 9140   2.201   4.201  11.134  0.2368  0.0252 -0.0644
 5622W        W 9141   7.132   3.843   3.348  0.2203 -0.0135  0.0740
 5623W        W 9142   7.687   2.470  10.779 -0.2474 -0.2488  0.0066
 5624W        W 9143   0.952   8.844  10.876  0.2529 -0.0937  0.0415
 5625W        W 9144   8.712   1.151   1.671  0.0104 -0.3035  0.0880
 5626W        W 9145   7.097   3.173   4.599  0.2439 -0.1930  0.0948
 5627W        W 9146   7.849   3.591  12.304  0.1043 -0.0108  0.0174
 5628W        W 9147   7.892   9.641   0.142  0.0947  0.0437  0.1020
 5629W        W 9148   7.610   1.614  10.274  0.2959  0.0559  0.0867
 5630W        W 9149   2.733   1.114   0.268 -0.1546  0.2536 -0.3508
 5631W        W 9150   0.279   8.731   9.481  0.4525 -0.1962  0.1254
 5632W        W 9151   5.097   8.639   3.371 -0.2698  0.2965 -0.0782
 5633W        W 9152   7.338   8.561   1.495 -0.0167 -0.3690  0.2567
 5634W        W 9153   4.407   1.160   1.522 -0.2614 -0.2278 -0.2395
 5635W        W 9154   8.241   2.687   2.540 -0.3038  0.0350  0.1348
 5636W        W 9155   0.064   5.537   9.389 -0.4107  0.0077  0.0349
 5637W        W 9156   2.604   9.027   4.633  0.0622  0.2654 -0.1729
 5638W        W 9157   0.966   5.570   9.365  0.0404 -0.2671 -0.0223
 5639W        W 9158   7.089   3.382   8.576  0.1219  0.0496  0.0741
 5640W        W 9159   1.980   6.911   0.173  0.1242 -0.1540  0.2339
 5641W        W 9160   6.333   4.447   7.815 -0.3212  0.4556  0.0584
 5642W        W 9161   4.266   2.692   3.957  0.0021  0.1561  0.1941
 5643W        W 9162   4.485   6.054   4.072  0.0296 -0.3223  0.2756
 5644W        W 9163   2.432   5.880   1.437  0.1199 -0.2126 -0.1532
 5645W        W 9164   3.230   8.668   9.821  0.2377 -0.0061  0.2687
 5646W        W 9165   4.528   0.754   2.672 -0.0559  0.1435 -0.0361
 5647W        W 9166   4.439   7.397   9.350 -0.0963 -0.0713  0.1791
 5648W        W 9167   2.724   5.282   2.918  0.4423  0.0192  0.2476
 5649W        W 9168   4.167   7.631  12.474  0.5138 -0.1210  0.1343
 5650W        W 9169   8.216   7.423  10.145  0.2160 -0.1608  0.1530
 5651W        W 9170   3.217   9.350   3.971 -0.1755  0.1116 -0.1985
 5652W        W 9171   6.550   4.105   1.560 -0.0620 -0.0818 -0.0394
 5653W        W 9172   4.478   0.151   2.500 -0.2977 -0.3566  0.2237
 5654W        W 9173   0.226   4.587  12.418 -0.0570  0.0640  0.0604
 5655W        W 9174   6.838   8.460   1.852  0.3861  0.0312 -0.0442
 5656W        W 9175   2.974   5.674   2.747 -0.1645 -0.1000 -0.1741
 5657W        W 9176   5.182   2.534   8.358  0.2009 -0.0164  0.1838
 5658W        W 9177   8.787   3.931   2.980 -0.2114  0.0378 -0.2225
 5659W        W 9178   8.074   6.490   2.944  0.1423 -0.1489 -0.1816
 5660W        W 9179   4.079   5.794   1.031 -0.0965 -0.0892  0.1385
 5661W        W 9180   2.853   8.340   9.179 -0.1513  0.1493 -0.3615
 5662W        W 9181   5.909   7.628   0.699 -0.0641  0.0598  0.0023
 5663W        W 9182   5.758   3.315  10.426 -0.2546  0.3089 -0.4679
 5664W        W 9183   8.504   6.716  10.425  0.2196 -0.1191  0.0747
 5665W        W 9184   4.922   4.435   4.904 -0.1605 -0.1180  0.0491
 5666W        W 9185   7.160   3.709  10.835 -0.0790  0.3291 -0.2017
 5667W        W 9186   5.964   9.468  11.934  0.0933 -0.0772 -0.1331
 5668W        W 9187   4.658   0.065   8.754 -0.0416  0.2312  0.2072
 5669W        W 9188   6.255   4.806  10.538  0.1363 -0.0270  0.1624
 5670W        W 9189   0.810   1.196  12.217 -0.3043 -0.0857 -0.1718
 5671W        W 9190   5.146   4.074   1.732 -0.0659 -0.2733  0.0908
 5672W        W 9191   2.667   3.549   2.435  0.1225  0.2109 -0.1688
 5673W        W 9192   5.437   2.699   4.179 -0.2531  0.1582  0.1107
 5674W        W 9193   3.173   7.428   3.397 -0.1866 -0.2278 -0.0075
 5675W        W 9194   4.332   6.829   1.759  0.2611  0.1390 -0.0533
 5676W        W 9195   8.872   1.521   2.381  0.2601  0.0329  0.0039
 5677W        W 9196   7.887   7.592  10.448  0.4473 -0.3317 -0.0492
 5678W        W 9197   1.292   0.663  10.866  0.2503 -0.1336  0.0060
 5679W        W 9198   8.533   4.660   9.817  0.0823 -0.1800 -0.0513
 5680W        W 9199   3.316   6.415  11.434  0.0175  0.0384  0.1766
 5681W        W 9200   6.220   6.397  10.489 -0.1649 -0.0630  0.1336
 5682W        W 9201   6.277   6.909   2.672 -0.2019  0.1124 -0.1513
 5683W        W 9202   8.557   5.772   3.140  0.3606  0.2533 -0.0117
 5684W        W 9203   0.221   9.313  11.592 -0.1397 -0.1064  0.0008
 5685W        W 9204   0.738   0.270   0.540  0.0667 -0.2031  0.0571
 5686W        W 9205   7.303   1.976  10.607 -0.2441 -0.2088  0.2125
 5687W        W 9206   8.484   2.255  12.031  0.3354 -0.1184  0.2508
 5688W        W 9207   5.868   9.079  12.323  0.3137  0.0216  0.2410
 5689W        W 9208   4.502   5.575  11.473  0.1007 -0.1864 -0.2946
 5690W        W 9209   8.039   3.381   1.419  0.1448 -0.0818 -0.2214
 5691W        W 9210   5.662   0.479   2.335  0.2856  0.1932  0.1370
 5692W        W 9211   0.179   7.083   3.742 -0.1302 -0.0974 -0.1332
 5693W        W 9212   1.023   3.991   8.784 -0.0962  0.0535  0.0584
 5694W        W 9213   4.922   9.580  11.961 -0.0814 -0.2685 -0.1967
 5695W        W 9214   5.443   7.303   2.161  0.1774 -0.2080  0.2960
 5696W        W 9215   5.024   4.999   3.076 -0.3095  0.2540  0.1216
 5697W        W 9216   7.039   8.126   3.268  0.1580 -0.0061 -0.0222
 5698W        W 9217   3.483   2.759   1.515 -0.1179  0.0090 -0.1050
 5699W        W 9218   1.579   6.145  11.804  0.0237  0.0754 -0.0635
 5700W        W 9219   0.837   7.982   8.220  0.1961 -0.1236  0.2379
 5701W        W 9220   5.243   4.849   2.097 -0.2478 -0.1990  0.2596
 5702W        W 9221   7.711   7.982   9.010  0.1042 -0.3158 -0.0288
 5703W        W 9222   3.532   3.876  10.627 -0.0255  0.1344 -0.0543
 5704W        W 9223   1.624   7.275   0.279 -0.2081  0.1931 -0.0758
 5705W        W 9224   2.270   3.097   8.760  0.2988 -0.1216 -0.0236
 5706W        W 9225   7.899   0.603   2.761  0.0410 -0.0456  0.0776
 5707W        W 9226   9.549   6.443   2.177  0.2589  0.3465  0.0844
 5708W        W 9227   0.083   2.495   8.211  0.0102 -0.1703  0.0849
 5709W        W 9228   1.536   1.697   3.078  0.0512 -0.0705  0.2051
 5710W        W 9229   4.168   3.008   0.390  0.3519 -0.0383 -0.1682
 5711W        W 9230   7.081   1.270   9.501  0.1769  0.0829 -0.0090
 5712W        W 9231   4.520   9.371   8.117 -0.0430  0.0256 -0.0008
 5713W        W 9232   3.815   2.726  11.328  0.2919 -0.2986  0.0554
 5714W        W 9233   0.178   1.921  11.181 -0.2422 -0.1165 -0.1900
 5715W        W 9234   4.680   0.578   2.176 -0.1555  0.0485 -0.0775
 5716W        W 9235   0.477   8.893   2.012 -0.0946  0.1484  0.3172
 5717W        W 9236   3.437   0.709   0.676  0.2446  0.0899  0.1666
 5718W        W 9237   3.709   6.755  11.556 -0.0211 -0.1648  0.3070
 5719W        W 9238   7.174   6.083   2.034  0.2359  0.0627 -0.1684
 5720W        W 9239   3.242   4.758  10.365  0.0524  0.1088 -0.5418
 5721W        W 9240   0.770   9.549  10.309 -0.0533 -0.3247 -0.0045
 5722W        W 9241   1.479   0.621   1.268 -0.3215  0.1078  0.0195
 5723W        W 9242   4.211   2.800  12.470  0.0911  0.1027  0.1990
 5724W        W 9243   0.965   5.532   3.323 -0.1309  0.1154  0.1408
 5725W        W 9244   2.727   4.464   9.256 -0.0595  0.1492 -0.0584
 5726W        W 9245   1.682   5.494   8.851 -0.2196  0.0493 -0.1183
 5727W        W 9246   3.302   7.806  10.100  0.2781  0.0297  0.0788
 5728W        W 9247   5.632   7.632   3.401  0.2003  0.1948 -0.2086
 5729W        W 9248   5.070   6.225  12.376  0.1299  0.4434 -0.0165
 5730W        W 9249   9.463   2.495  11.165 -0.2112  0.0733 -0.1530
 5731W        W 9250   4.227   3.281   2.028 -0.0369 -0.0724  0.0996
 5732W        W 9251   3.963   1.825   9.568  0.0623 -0.0872 -0.1612
 5733W        W 9252   2.633   5.146   2.021  0.1948 -0.0555 -0.5143
 5734W        W 9253   7.457   4.295   3.930  0.0535  0.1996 -0.3812
 5735W        W 9254   4.126   9.185   2.987 -0.1244 -0.4053  0.0201
 5736W        W 9255   4.639   0.068   3.990  0.0616 -0.0022  0.3640
 5737W        W 9256   8.172   8.619   1.551 -0.0101  0.0098  0.2662
 5738W        W 9257   4.145   4.864   1.789  0.0249  0.4399 -0.0832
 5739W        W 9258   8.961   5.775   2.297 -0.2223 -0.2393 -0.2161
 5740W        W 9259   3.427   4.855   3.938 -0.1268  0.0246  0.1241
 5741W        W 9260   8.681   4.430  12.046  0.1135 -0.0361  0.0614
 5742W        W 9261   3.016   1.224  10.207 -0.1933 -0.1294 -0.3513
 5743W        W 9262   7.973   5.071   0.430 -0.1477  0.0684 -0.1763
 5744W        W 9263   7.007   7.176   0.909 -0.2884  0.0443  0.1527
 5745W        W 9264   3.809   1.270   2.487 -0.1627  0.2158 -0.3504
 5746W        W 9265   2.027   6.485   2.269  0.0033  0.0804 -0.2033
 5747W        W 9266   6.134   2.813   0.755  0.1856 -0.2518 -0.0234
 5748W        W 9267   2.851   6.996   3.570 -0.0268  0.3598 -0.0280
 5749W        W 9268   0.648   9.040   0.625  0.0543 -0.1258 -0.1130
 5750W        W 9269   0.369   2.353   3.877  0.0845  0.0041 -0.0071
 5751W        W 9270   1.360   9.007  12.203  0.0263  0.0979 -0.1379
 5752W        W 9271   6.627   6.816   3.834  0.1948 -0.0788 -0.3561
 5753W        W 9272   8.972   0.221  11.570  0.4968  0.1250  0.1516
 5754W        W 9273   8.934   2.168  10.489  0.0631 -0.0655 -0.1861
 5755W        W 9274   2.189   0.091   9.100  0.0980  0.1163 -0.0699
 5756W        W 9275   0.515   8.022   9.973  0.1366  0.0014  0.0679
 5757W        W 9276   2.036   7.758   2.201 -0.0289  0.1401  0.1941
 5758W        W 9277   0.149   9.239  10.343  0.0370  0.0394 -0.2197
 5759W        W 9278   3.599   4.081   2.412 -0.1696  0.2157  0.2446
 5760W        W 9279   0.121   3.725   9.441  0.0633  0.1990 -0.1430
 5761W        W 9280   7.967   4.960  10.964 -0.0365 -0.0304 -0.0947
 5762W        W 9281   8.292   9.107   0.023  0.2253  0.3246  0.2126
 5763W        W 9282   8.654   0.549  11.742 -0.1546 -0.3158  0.1691
 5764W        W 9283   4.102   9.088  12.500  0.0230  0.0475  0.0041
 5765W        W 9284   1.838   3.075   9.977  0.3033 -0.4099  0.0574
 5766W        W 9285   0.633   4.749  10.701 -0.1038  0.1878  0.1173
 5767W        W 9286   3.657   6.872  10.232 -0.0028 -0.0919 -0.1662
 5768W        W 9287   4.550   7.031   3.039  0.1403 -0.1575  0.0067
 5769W        W 9288   3.175   7.442   2.283 -0.0146  0.2540 -0.3553
 5770W        W 9289   8.014   5.628   2.230 -0.0332 -0.0749 -0.0474
 5771W        W 9290   5.889   1.365  10.557 -0.1167 -0.1965  0.0240
 5772W        W 9291   3.973   5.635   3.423 -0.4976  0.4900  0.0152
 5773W        W 9292   7.477   2.950   8.940  0.0729 -0.2784  0.1673
 5774W        W 9293   3.171   6.056   0.972  0.1035 -0.1110  0.1404
 5775W        W 9294   3.813   6.398   1.047 -0.2048 -0.1366 -0.1959
 5776W        W 9295   6.588   7.623  11.244  0.1216  0.3108  0.0686
 5777W        W 9296   7.896   1.870   2.831 -0.0458 -0.2472  0.3478
 5778W        W 9297   6.624   9.426   0.401 -0.0784 -0.0772  0.2362
 5779W        W 9298   9.112   9.318  11.398 -0.1810 -0.0867  0.0337
 5780W        W 9299   2.180   1.446   9.407  0.1837  0.2340  0.0838
 5781W        W 9300   2.609   4.605   1.957  0.2040 -0.1188  0.4635
 5782W        W 9301   7.471   3.599   1.313  0.2078  0.2581 -0.2304
 5783W        W 9302   5.389   5.653   9.478  0.2659 -0.4991  0.0515
 5784W        W 9303   2.358   6.815   2.353 -0.0704  0.0237 -0.0058
 5785W        W 9304   7.849   6.461   9.276 -0.2869  0.0325 -0.2660
 5786W        W 9305   6.425   9.522   0.930  0.0370  0.1744  0.2936
 5787W        W 9306   3.663   2.041   3.575  0.1924  0.1601 -0.1409
 5788W        W 9307   9.269   6.482   0.482  0.0391  0.2033  0.0834
 5789W        W 9308   4.618   1.995   0.269 -0.2712 -0.3448  0.2018
 5790W        W 9309   0.756   5.072   0.577  0.3132 -0.2633  0.2404
 5791W        W 9310   3.106   5.595  12.454  0.0776  0.1201 -0.3274
 5792W        W 9311   2.883   3.586   9.000 -0.1830  0.2780 -0.0354
 5793W        W 9312   0.218   4.579   1.378 -0.4113 -0.0628 -0.4776
 5794W        W 9313   5.198   7.471  12.483  0.3539 -0.0593 -0.1131
 5795W        W 9314   4.980   1.706   9.524  0.1534  0.0320  0.2166
 5796W        W 9315   3.954   4.872   1.313 -0.0691 -0.2444 -0.0429
 5797W        W 9316   4.001   2.348   9.788  0.0049  0.0368  0.1689
 5798W        W 9317   2.532   7.355   0.644  0.2054  0.1667  0.1702
 5799W        W 9318   7.173   4.612   9.444  0.1550 -0.0808 -0.0637
 5800W        W 9319   3.114   0.520   2.276 -0.1627 -0.1199 -0.2376
 5801W        W 9320   8.411   4.394   8.616 -0.0459 -0.0798  0.0146
 5802W        W 9321   8.916   6.921  12.044 -0.0042  0.0882  0.1224
 5803W        W 9322   2.444   6.332   2.570 -0.1511 -0.1460 -0.1321
 5804W        W 9323   2.408   8.194   0.458  0.0382 -0.1895  0.0266
 5805W        W 9324   4.286   4.995   0.616  0.1875  0.1459  0.0447
 5806W        W 9325   8.397   9.541   2.519 -0.2922 -0.0992  0.2369
 5807W        W 9326   3.194   4.918   4.446  0.1276 -0.0382  0.3503
 5808W        W 9327   0.610   0.402   0.066 -0.3482  0.0686  0.0653
 5809W        W 9328   9.598   2.587   4.200 -0.1530 -0.2863 -0.0706
 5810W        W 9329   0.106   1.035  10.379 -0.2276  0.2342 -0.0277
 5811W        W 9330   7.004   8.102   1.373 -0.1925  0.1978  0.1618
 5812W        W 9331   4.414   1.486   2.007 -0.2473  0.0892  0.1894
 5813W        W 9332   3.685   7.867   2.249 -0.1961  0.0793  0.0212
 5814W        W 9333   4.186   1.899   2.190  0.3922 -0.0863  0.0412
 5815W        W 9334   4.850   8.499   2.394  0.0934  0.0652 -0.0513
 5816W        W 9335   2.990   2.451   4.393 -0.1813 -0.1772  0.4896
 5817W        W 9336   0.449   2.719  10.416 -0.0888  0.1001  0.3439
 5818W        W 9337   7.102   1.245   0.265  0.1649 -0.0760 -0.1921
 5819W        W 9338   2.511   1.452   1.713  0.0040  0.0973 -0.2078
 5820W        W 9339   0.297   0.037  10.276 -0.1201 -0.1339  0.2707
 5821W        W 9340   4.476   0.019   2.977  0.1942  0.2346 -0.5126
 5822W        W 9341   2.514   6.548   3.608  0.1895  0.0943 -0.2926
 5823W        W 9342   0.789   6.884   1.198 -0.0428 -0.1691 -0.2138
 5824W        W 9343   6.773   6.232   1.067 -0.1052 -0.1203  0.3277
 5825W        W 9344   5.159   8.145   2.283 -0.1377 -0.1926  0.2030
 5826W        W 9345   2.593   2.858  10.672  0.1697  0.2083  0.0681
 5827W        W 9346   9.536   0.225   1.933  0.2191  0.1417  0.1997
 5828W        W 9347   1.956   3.342  11.400  0.3227 -0.1901 -0.0040
 5829W        W 9348   7.562   5.700   2.894 -0.1096  0.2818 -0.1441
 5830W        W 9349   6.643   6.899   1.919 -0.0929  0.3597  0.2210
 5831W        W 9350   4.944   4.116  11.547 -0.0655  0.0849 -0.0844
 5832W        W 9351   5.841   9.638   3.333 -0.1855 -0.1834  0.0437
 5833W        W 9352   7.851   7.307   0.964  0.2613  0.0783 -0.0450
 5834W        W 9353   4.140   7.690   0.457  0.0227  0.1750  0.0216
 5835W        W 9354   7.839   3.687  10.388 -0.2660  0.2697 -0.0819
 5836W        W 9355   0.993   1.578  10.932 -0.2533 -0.0733 -0.0210
 5837W        W 9356   1.897   5.127   2.694  0.1672 -0.1914 -0.1669
 5838W        W 9357   6.623   3.745  12.399 -0.2061  0.0006  0.1917
 5839W        W 9358   0.225   5.016   1.905  0.3674 -0.0660  0.1089
 5840W        W 9359   5.461   0.628  11.709 -0.1993  0.0608  0.1318
 5841W        W 9360   4.409   1.334   4.661 -0.1920 -0.1033 -0.2756
 5842W        W 9361   1.762   6.806  11.002  0.1515  0.0814  0.3347
 5843W        W 9362   2.731   4.580   1.443  0.0406 -0.1529  0.1752
 5844W        W 9363   9.008   3.518   3.314  0.2051 -0.2847  0.2146
 5845W        W 9364   7.488   9.582  11.328 -0.1346  0.1991 -0.4084
 5846W        W 9365   1.767   6.118   4.143 -0.0667 -0.1580  0.1520
 5847W        W 9366   0.037   3.026   2.006 -0.0758  0.2918  0.0513
 5848W        W 9367   8.371   3.752   2.668  0.1452 -0.2046 -0.0238
 5849W        W 9368   6.921   3.102   9.509 -0.1450 -0.0315  0.1762
 5850W        W 9369   8.393   1.095   0.804  0.0765  0.1181  0.0833
 5851W        W 9370   2.809   3.449  11.112 -0.0118 -0.0391 -0.2134
 5852W        W 9371   5.932   5.957  11.869 -0.1558 -0.1411 -0.1654
 5853W        W 9372   8.965   6.461  11.148 -0.2305 -0.4722  0.0427
 5854W        W 9373   1.319   2.686  12.019 -0.0177 -0.0293 -0.2509
 5855W        W 9374   4.267   6.421   0.792  0.0405 -0.0488 -0.1027
 5856W        W 9375   1.300   5.179   3.600 -0.0148 -0.2203 -0.0274
 5857W        W 9376   8.471   1.223   2.192 -0.2185 -0.1337 -0.2038
 5858W        W 9377   9.651   4.453   8.862  0.1472 -0.0555 -0.0427
 5859W        W 9378   5.085   8.090   9.394 -0.2731  0.3154 -0.0369
 5860W        W 9379   0.986   6.378   1.199  0.0573  0.2882  0.0530
 5861W        W 9380   7.748   2.216   1.947  0.0458  0.0481  0.2750
 5862W        W 9381   7.177   4.266   0.530 -0.1961  0.0109  0.1624
 5863W        W 9382   4.624   5.682   9.983 -0.1673  0.2460  0.0278
 5864W        W 9383   0.529   8.272  10.652 -0.0342  0.1178 -0.0758
 5865W        W 9384   6.888   0.464  12.287  0.1471  0.1646  0.1193
 5866W        W 9385   1.991   0.347  12.102 -0.1454 -0.2314  0.3132
 5867W        W 9386   8.440   8.973  12.056  0.2559 -0.1523  0.2392
 5868W        W 9387   4.098   3.994  11.693  0.2382 -0.3249  0.0439
 5869W        W 9388   9.414   4.389  11.009 -0.2452  0.2806 -0.0447
 5870W        W 9389   7.653   5.925   3.329 -0.0691 -0.1114 -0.2866
 5871W        W 9390   3.063   0.979   0.866 -0.1315 -0.2874 -0.2283
 5872W        W 9391   3.564   5.864   3.666 -0.0813  0.1112  0.0930
 5873W        W 9392   4.779   2.896   2.117  0.0833 -0.1186 -0.1606
 5874W        W 9393   7.248   1.001   0.778  0.0454  0.0573  0.3750
 5875W        W 9394   8.461   7.414   9.280 -0.0476  0.1886 -0.1703
 5876W        W 9395   1.106   9.018   9.428  0.0435  0.0650  0.2431
 5877W        W 9396   1.138   1.368  10.431 -0.0808 -0.0854  0.3295
 5878W        W 9397   2.440   6.065   2.016  0.1519  0.0715  0.0034
 5879W        W 9398   0.091   8.826   9.934  0.1424  0.1387 -0.0707
 5880W        W 9399   0.675   3.622   1.422  0.0688 -0.1774  0.1895
 5881W        W 9400   3.570   4.090   4.562  0.1349 -0.1979 -0.1909
 5882W        W 9401   3.320   9.579  10.231  0.1895 -0.0535  0.0255
 5883W        W 9402   2.006   0.846   1.383 -0.1170 -0.2524  0.2692
 5884W        W 9403   7.058   1.794   0.278 -0.0601 -0.0809 -0.3651
 5885W        W 9404   3.352   5.478   3.417  0.0339 -0.2341  0.0519
 5886W        W 9405   1.758   4.258   3.295 -0.1862  0.0110 -0.0041
 5887W        W 9406   3.005   6.993   0.135  0.2103  0.3893 -0.3286
 5888W        W 9407   7.632   4.095   0.550  0.0934 -0.2001 -0.0067
 5889W        W 9408   1.626   7.176   2.049  0.0473 -0.1155  0.0749
 5890W        W 9409   3.953   3.718   1.037  0.1265  0.2477  0.0927
 5891W        W 9410   4.147   3.016  12.008  0.1806 -0.2958 -0.1706
 5892W        W 9411   4.446   2.833   0.789  0.2351 -0.1539 -0.0945
 5893W        W 9412   7.443   6.089  11.597  0.1761  0.0906  0.2204
 5894W        W 9413   9.637   8.197  10.781  0.0616  0.1016 -0.1036
 5895W        W 9414   2.200   2.596   8.889  0.0186  0.1429 -0.0367
 5896W        W 9415   1.194   6.484  12.281  0.1900  0.1303 -0.2220
 5897W        W 9416   9.037   5.824   3.288  0.0113 -0.0960  0.1704
 5898W        W 9417   1.835   2.026  11.535 -0.0235 -0.0309  0.1931
 5899W        W 9418   1.782   6.898   2.424 -0.0922 -0.3649  0.1807
 5900W        W 9419   0.765   4.184   9.328 -0.4771 -0.0449 -0.1509
 5901W        W 9420   4.960   8.734   0.099  0.1015 -0.0249 -0.1331
 5902W        W 9421   3.426   7.245   0.345  0.1819 -0.2769  0.2979
 5903W        W 9422   2.006   5.604   0.052  0.0813 -0.2295  0.1228
 5904W        W 9423   5.836   8.738   2.679  0.0631 -0.0478 -0.2234
 5905W        W 9424   4.759   1.640   4.943  0.2555 -0.1440 -0.0006
 5906W        W 9425   8.861   0.612  12.410 -0.4201 -0.5053 -0.0316
 5907W        W 9426   2.443   9.322   3.640 -0.1990 -0.3418 -0.1343
 5908W        W 9427   0.714   3.768  10.035  0.0299  0.1517  0.0743
 5909W        W 9428   1.979   5.005  10.564 -0.2242  0.1040  0.1573
 5910W        W 9429   0.441   3.357  12.015 -0.1326  0.2298 -0.2344
 5911W        W 9430   2.241   9.404   1.455 -0.0229  0.1380 -0.3272
 5912W        W 9431   2.961   2.520  11.795  0.0485  0.0095 -0.0254
 5913W        W 9432   6.353   7.753   4.382 -0.0323 -0.2021 -0.0995
 5914W        W 9433   9.252   3.682   0.410 -0.0325 -0.1714  0.5273
 5915W        W 9434   3.601   7.622  11.868 -0.0872 -0.0941 -0.1547
 5916W        W 9435   0.673   1.081  10.324  0.2277 -0.0616 -0.2626
 5917W        W 9436   4.017   8.446  10.282  0.0856  0.3726 -0.3109
 5918W        W 9437   2.376   7.170   2.787 -0.2075  0.1750 -0.0047
 5919W        W 9438   3.527   7.847   1.227  0.0628 -0.1680  0.4278
 5920W        W 9439   4.349   5.686   2.392  0.0113 -0.3006  0.1743
 5921W        W 9440   0.657   1.932   0.200 -0.1172 -0.0028 -0.0165
 5922W        W 9441   1.307   5.816   9.065 -0.2568 -0.3700 -0.0135
 5923W        W 9442   5.404   6.010   3.998 -0.0332  0.0224  0.0603
 5924W        W 9443   1.086   7.582   2.967 -0.3079 -0.0696  0.0305
 5925W        W 9444   9.634   8.458   2.543  0.0383 -0.3070  0.1861
 5926W        W 9445   5.924   2.854   3.419 -0.0665  0.1482 -0.0543
 5927W        W 9446   4.097   7.710   3.466  0.1501  0.2860 -0.0895
 5928W        W 9447   5.502   3.351  11.920  0.2120  0.1368  0.3677
 5929W        W 9448   1.177   1.971   0.757  0.0989 -0.1010  0.1234
 5930W        W 9449   1.286   7.040  10.671 -0.0255  0.1460  0.0385
 5931W        W 9450   6.331   5.546  12.045 -0.0558 -0.4247  0.1860
 5932W        W 9451   3.212   3.850  11.895 -0.3334 -0.0596  0.2517
 5933W        W 9452   5.135   3.981   1.215  0.0512  0.0239  0.0840
 5934W        W 9453   0.973   9.669   2.443 -0.0848  0.1320  0.1133
 5935W        W 9454   1.549   7.884   0.360  0.4664  0.2952  0.4541
 5936W        W 9455   1.799   7.962   9.609 -0.0066 -0.1732 -0.2599
 5937W        W 9456   1.064   6.758   3.250 -0.3738  0.2337  0.1008
 5938W        W 9457   3.066   0.027   0.307 -0.3117  0.0488  0.2463
 5939W        W 9458   1.216   3.829  10.237 -0.3103  0.0382  0.0719
 5940W        W 9459   3.571   5.855   4.184 -0.1153  0.0173 -0.0042
 5941W        W 9460   4.370   0.976  11.957  0.0882  0.3426 -0.0879
 5942W        W 9461   4.358   6.932   3.509  0.1969 -0.2797 -0.0200
 5943W        W 9462   8.794   3.458   2.391  0.2367 -0.1838 -0.1665
 5944W        W 9463   4.878   6.628   9.503  0.0530 -0.0603 -0.1254
 5945W        W 9464   4.660   4.372  12.485  0.1533 -0.1315 -0.0739
 5946W        W 9465   9.115   3.456  10.977 -0.0380 -0.4273  0.0157
 5947W        W 9466   5.246   5.351  11.179  0.0039 -0.2054 -0.1455
 5948W        W 9467   6.156   6.231   0.424  0.0412  0.2178  0.0181
 5949W        W 9468   3.253   4.281  10.374 -0.2104  0.0055 -0.2072
 5950W        W 9469   0.253   4.983  10.451 -0.0631 -0.1314  0.4846
 5951W        W 9470   3.540   1.434   0.329 -0.0815  0.1920  0.0665
 5952W        W 9471   3.139   2.912  12.019  0.0008 -0.2887  0.2962
 5953W        W 9472   4.823   6.054   1.858 -0.1406 -0.0418  0.2173
 5954W        W 9473   9.317   0.331  12.359  0.2255 -0.0112 -0.0696
 5955W        W 9474   0.227   0.990   2.173  0.0877 -0.2249 -0.0140
 5956W        W 9475   7.772   0.142   1.117  0.0882 -0.3118 -0.1802
 5957W        W 9476   4.512   4.515   3.289  0.1120  0.0674  0.2008
 5958W        W 9477   3.247   2.198   1.055 -0.1628 -0.0913  0.3969
 5959W        W 9478   5.135   5.225   3.839  0.0305 -0.1021 -0.0213
 5960W        W 9479   9.387   0.525   1.569  0.3458 -0.1542 -0.4398
 5961W        W 9480   3.514   3.060  11.126  0.3733 -0.0440 -0.2388
 5962W        W 9481   2.993   4.307   5.107  0.1936 -0.2647 -0.2775
 5963W        W 9482   7.960   7.335   9.732  0.0525 -0.1434 -0.2283
 5964W        W 9483   6.381   3.599   2.382 -0.2618  0.0054 -0.3032
 5965W        W 9484   0.943   1.100  10.832 -0.2080 -0.1138 -0.0311
 5966W        W 9485   4.282   2.752  11.600  0.2707  0.3153 -0.1145
 5967W        W 9486   1.101   6.092  10.579 -0.1161 -0.2054  0.4115
 5968W        W 9487   2.734   4.417   2.915 -0.3234  0.1957 -0.0797
 5969W        W 9488   2.939   5.999  10.188  0.1873  0.3244  0.2969
 5970W        W 9489   6.529   1.208  12.077  0.0774  0.0049 -0.0801
 5971W        W 9490   1.486   0.563  11.948  0.0521 -0.0713 -0.0688
 5972W        W 9491   4.439   5.863   1.523  0.2219  0.2175 -0.0274
 5973W        W 9492   3.763   6.367   0.414  0.2437 -0.0779 -0.2777
 5974W        W 9493   5.797   1.896   1.550  0.2019  0.0214  0.1877
 5975W        W 9494   3.800   5.014   9.790  0.3507  0.1194 -0.1128
 5976W        W 9495   2.786   0.007   9.776  0.0927 -0.2257 -0.3014
 5977W        W 9496   2.762   4.097  10.163 -0.1373  0.1411  0.1057
 5978W        W 9497   0.072   7.240   1.211  0.1738  0.2717  0.0560
 5979W        W 9498   8.047   5.450  12.114  0.0775  0.2430  0.2280
 5980W        W 9499   8.171   7.367   2.414  0.0240  0.2714  0.2163
 5981W        W 9500   7.613   8.841   9.094  0.1864 -0.1653 -0.1295
 5982W        W 9501   4.796   7.093   9.602  0.0974  0.1085  0.1149
 5983W        W 9502   1.149   1.494  11.888  0.3348 -0.0839 -0.1240
 5984W        W 9503   7.421   5.289   0.302 -0.5706 -0.0258 -0.0634
 5985W        W 9504   7.914   9.669   2.632 -0.0260  0.0511 -0.0423
 5986W        W 9505   1.253   3.242  12.293 -0.0909  0.2083  0.0198
 5987W        W 9506   1.460   3.352   9.531  0.0640 -0.0503  0.1579
 5988W        W 9507   2.647   2.877   4.270 -0.2688 -0.2485  0.0134
 5989W        W 9508   6.272   4.923   3.034 -0.3292  0.2158  0.0111
 5990W        W 9509   7.247   6.767   1.167  0.0153 -0.2204  0.1173
 5991W        W 9510   7.919   4.525   1.246 -0.1851  0.0158  0.1027
 5992W        W 9511   4.575   1.446   9.106  0.2799  0.0100 -0.1721
 5993W        W 9512   8.300   2.333   0.058 -0.1335 -0.2185  0.2381
 5994W        W 9513   1.858   3.910   2.694 -0.2614  0.0569  0.1459
 5995W        W 9514   2.311   5.943   0.478 -0.1647  0.0800  0.0137
 5996W        W 9515   2.917   8.575   3.736 -0.2755 -0.1945  0.0094
 5997W        W 9516   8.267   0.659   3.190  0.1118 -0.0985  0.0270
 5998W        W 9517   5.083   6.659  10.686  0.0564  0.0085 -0.1722
 5999W        W 9518   5.508   2.265   0.853  0.0035 -0.0833 -0.2170
 6000W        W 9519   4.596   8.894   8.266 -0.1528  0.3251 -0.1422
 6001W        W 9520   5.004   5.976   9.085 -0.0381 -0.1011 -0.1580
 6002W        W 9521   7.143   4.658   9.943  0.0747  0.1574  0.0086
 6003W        W 9522   5.052   4.696  11.158  0.0136  0.2330 -0.0440
 6004W        W 9523   7.797   1.283   9.123 -0.0878  0.2009  0.1723
 6005W        W 9524   9.374   4.415   8.379 -0.3098 -0.4271 -0.1599
 6006W        W 9525   2.125   5.248   4.632 -0.2479 -0.3431 -0.3572
 6007W        W 9526   4.862   1.835   0.880 -0.0223 -0.0126  0.0779
 6008W        W 9527   8.463   8.976  10.008  0.1549  0.0749 -0.0309
 6009W        W 9528   7.843   1.779   3.494 -0.2122  0.0218  0.1891
 6010W        W 9529   8.276   1.742  11.736 -0.0811 -0.0941  0.3440
 6011W        W 9530   8.115   3.970   8.740 -0.1428  0.0689  0.2391
 6012W        W 9531   6.175   9.690  10.812  0.1880 -0.0630  0.0062
 6013W        W 9532   3.708   7.665   0.126  0.4810  0.3184 -0.1094
 6014W        W 9533   8.705   1.474  11.693 -0.0315 -0.1133 -0.1925
 6015W        W 9534   3.706   5.469   1.224 -0.2557 -0.0754 -0.3421
 6016W        W 9535   3.626   4.690   1.706  0.1991  0.1040 -0.0206
 6017W        W 9536   2.969   4.899   1.718 -0.2092 -0.1582 -0.1423
 6018W        W 9537   7.884   1.311  11.649 -0.0863 -0.0309  0.0367
 6019W        W 9538   4.242   2.689   2.287  0.0448 -0.3517 -0.1647
 6020W        W 9539   2.140   4.338   2.836 -0.1579  0.2767 -0.0083
 6021W        W 9540   0.257   1.280   2.610  0.0588 -0.0599 -0.1669
 6022W        W 9541   2.058   2.101   3.585  0.1817 -0.0287  0.0614
 6023W        W 9542   7.694   3.481   3.395 -0.0836 -0.1306  0.3009
 6024W        W 9543   5.391   6.645  11.921 -0.2586 -0.1784  0.0815
 6025W        W 9544   3.762   5.473   3.875 -0.1643  0.0870  0.2159
 6026W        W 9545   0.312   8.099   2.048 -0.4701 -0.3842 -0.0251
 6027W        W 9546   8.371   8.722  10.500 -0.1825  0.4125 -0.0975
 6028W        W 9547   7.713   2.742   9.349  0.3384  0.0416  0.0056
 6029W        W 9548   8.319   2.762   3.571 -0.1242  0.0853 -0.1611
 6030W        W 9549   1.507   0.503   0.430 -0.0012  0.0073  0.1300
 6031W        W 9550   1.363   8.064   9.375  0.2931 -0.2101  0.1979
 6032W        W 9551   7.130   5.810   9.644  0.3178 -0.0672  0.1329
 6033W        W 9552   0.478   5.765   1.191  0.0152 -0.0539 -0.2304
 6034W        W 9553   4.988   8.971  10.561  0.0377 -0.1956 -0.0306
 6035W        W 9554   7.789   9.113   0.156  0.2421 -0.0745 -0.0604
 6036W        W 9555   3.176   5.388   1.235  0.0197 -0.0572  0.1571
 6037W        W 9556   5.043   7.879  12.218 -0.0973  0.0709 -0.0249
 6038W        W 9557   4.128   0.702   9.126 -0.2042 -0.1560  0.0645
 6039W        W 9558   3.240   8.559  10.709 -0.3382  0.2604 -0.1106
 6040W        W 9559   0.643   5.275   1.978  0.0041  0.2313 -0.0359
 6041W        W 9560   4.201   7.049   9.044  0.0342  0.2598 -0.0212
 6042W        W 9561   1.104   8.574   3.317 -0.0555  0.1388 -0.0913
 6043W        W 9562   3.162   6.496   8.320  0.0100  0.2845  0.0696
 6044W        W 9563   2.987   9.659   3.182  0.0929  0.0047  0.2248
 6045W        W 9564   7.315   6.351   9.562  0.0814 -0.0477  0.1645
 6046W        W 9565   1.284   9.030   4.442  0.0578  0.1781 -0.1855
 6047W        W 9566   7.983   5.572   9.420 -0.0270  0.2017 -0.0250
 6048W        W 9567   0.891   7.620   1.665 -0.1655  0.2110  0.0078
 6049W        W 9568   1.016   0.564  12.307 -0.0279 -0.0444  0.2183
 6050W        W 9569   9.193   3.665   2.766  0.1190  0.0394  0.1307
 6051W        W 9570   1.079   3.951  10.940 -0.2075  0.2882  0.0437
 6052W        W 9571   9.402   5.680   8.688  0.0113 -0.1785 -0.1144
 6053W        W 9572   1.986   1.148   0.006  0.1559 -0.0471 -0.2062
 6054W        W 9573   6.859   0.123   0.960 -0.0453 -0.0237  0.0868
 6055W        W 9574   6.141   4.198   9.969  0.1790  0.2254 -0.1662
 6056W        W 9575   5.331   2.246   1.637 -0.1868  0.0772  0.0133
 6057W        W 9576   2.226   5.149  11.036  0.3679 -0.2202  0.3069
 6058W        W 9577   1.589   8.971   1.161  0.0666  0.0542 -0.1815
 6059W        W 9578   4.123   5.167   3.693 -0.0064  0.3212  0.1597
 6060W        W 9579   4.365   5.531  10.952 -0.1864  0.1348 -0.0962
 6061W        W 9580   3.299   1.770  11.562  0.1345  0.0692 -0.3057
 6062W        W 9581   7.103   3.015  12.473  0.4549 -0.1392 -0.0215
 6063W        W 9582   4.146   9.284   1.140  0.2023 -0.3545 -0.1486
 6064W        W 9583   3.298   2.448  10.576  0.0041 -0.0683 -0.1216
 6065W        W 9584   3.499   3.750   3.834 -0.0777  0.4017  0.1418
 6066W        W 9585   0.334   2.124   2.898  0.0362 -0.1682  0.3297
 6067W        W 9586   0.235   8.297   1.129 -0.0610  0.0549  0.0195
 6068W        W 9587   3.769   6.861   7.917 -0.0604  0.0512 -0.0495
 6069W        W 9588   1.409   2.489  10.546 -0.0096  0.2181  0.2337
 6070W        W 9589   2.851   2.690   3.397  0.3047 -0.3071  0.4462
 6071W        W 9590   0.418   4.077   9.680  0.1890 -0.1212 -0.3192
 6072W        W 9591   3.556   8.808  11.271 -0.2874 -0.1298  0.1275
 6073W        W 9592   0.757   8.024   2.901  0.2846  0.3262  0.1457
 6074W        W 9593   9.099   8.679  11.895  0.1452  0.0501  0.1163
 6075W        W 9594   6.898   8.721   2.568 -0.2389 -0.1976 -0.4367
 6076W        W 9595   3.510   8.948   3.771  0.4732 -0.3794 -0.1983
 6077W        W 9596   6.646   8.700   9.079 -0.1669 -0.1209  0.3301
 6078W        W 9597   5.424   6.588  11.123 -0.0941  0.3693  0.0072
 6079W        W 9598   0.902   0.612   1.253 -0.0148 -0.0286 -0.1291
 6080W        W 9599   9.041   3.449   9.943  0.1475 -0.4027 -0.1058
 6081W        W 9600   2.539   5.970   8.601 -0.3724 -0.2911 -0.0227
 6082W        W 9601   8.329   3.500   8.846 -0.0395  0.1932 -0.0081
 6083W        W 9602   4.919   0.835   3.052 -0.2429 -0.1624 -0.1601
 6084W        W 9603   7.379   1.125   1.293 -0.2087  0.0507 -0.0481
 6085W        W 9604   9.610   1.315   9.533  0.1615  0.0134  0.3633
 6086W        W 9605   2.227   5.726   9.033  0.0805  0.3932 -0.1135
 6087W        W 9606   5.650   4.653  10.091  0.1940 -0.1248  0.4037
 6088W        W 9607   3.028   9.447  11.903 -0.0748 -0.1185  0.1883
 6089W        W 9608   3.813   4.781   8.097 -0.2220 -0.2290 -0.0252
 6090W        W 9609   7.144   7.093   1.782  0.0523  0.4018 -0.0600
 6091W        W 9610   2.031   1.614  12.284 -0.5329  0.2971 -0.0699
 6092W        W 9611   9.167   3.085   9.075 -0.1009  0.0622  0.2295
 6093W        W 9612   4.400   5.757   0.057 -0.1600  0.0025  0.1372
 6094W        W 9613   1.429   9.152  10.023  0.0811 -0.0198  0.2437
 6095W        W 9614   2.146   6.084  11.350  0.2944  0.1052 -0.1297
 6096W        W 9615   4.079   8.252   2.006 -0.1596  0.0120  0.0040
 6097W        W 9616   8.044   9.298   0.516 -0.2502  0.0217  0.0497
 6098W        W 9617   8.269   4.949  11.909 -0.0232  0.2751  0.1974
 6099W        W 9618   5.769   8.636   1.067  0.0157 -0.3606  0.0496
 6100W        W 9619   0.193   3.571  11.656  0.0438  0.0625 -0.3319
 6101W        W 9620   5.239   9.592  10.357  0.2606  0.1908 -0.0192
 6102W        W 9621   5.931   5.279   2.800  0.2077  0.1169  0.3324
 6103W        W 9622   5.009   3.823   3.596  0.0400 -0.0846 -0.2153
 6104W        W 9623   4.410   1.008   3.276  0.1726  0.2363  0.0720
 6105W        W 9624   5.640   4.676   0.109 -0.1124  0.0226 -0.0768
 6106W        W 9625   3.805   5.940   0.635  0.0534  0.1080 -0.1975
 6107W        W 9626   5.584   0.509   8.928  0.2351  0.0719  0.2028
 6108W        W 9627   5.961   9.127   0.348  0.4722 -0.0661  0.0542
 6109W        W 9628   1.435   8.719   3.668  0.1601 -0.2402 -0.1107
 6110W        W 9629   8.786   4.848   9.322  0.1647  0.0869 -0.0350
 6111W        W 9630   6.092   4.311   2.487 -0.4466  0.0545  0.0506
 6112W        W 9631   3.871   1.814   8.608  0.1443  0.1306 -0.0977
 6113W        W 9632   4.674   8.517   0.449  0.0368  0.0518 -0.0629
 6114W        W 9633   1.837   7.245   3.607 -0.4473 -0.0952 -0.1022
 6115W        W 9634   6.896   7.247  10.583  0.0383 -0.1196 -0.1081
 6116W        W 9635   8.267   2.119   1.885  0.2499 -0.2478  0.2454
 6117W        W 9636   5.893   6.427  12.031  0.0517 -0.1322 -0.0467
 6118W        W 9637   8.640   3.656  10.252  0.0139 -0.3819  0.1011
 6119W        W 9638   8.460   3.888   9.152 -0.0922 -0.2548 -0.3192
 6120W        W 9639   6.791   5.390   9.609  0.1167 -0.1063 -0.1795
 6121W        W 9640   0.076   5.656   4.400  0.1717 -0.0307 -0.3121
 6122W        W 9641   3.975   1.976   4.555 -0.0091  0.2456 -0.1266
 6123W        W 9642   3.938   5.848   2.111 -0.2340 -0.0678 -0.1149
 6124W        W 9643   9.085   7.292   3.514  0.1002 -0.1130  0.1446
 6125W        W 9644   9.404   2.292   3.104  0.0683 -0.2800 -0.0438
 6126W        W 9645   7.003   3.826  12.076 -0.0560  0.2320  0.0549
 6127W        W 9646   4.802   1.366   2.298 -0.1296  0.0153  0.2455
 6128W        W 9647   7.730   9.438  10.286  0.2261  0.2303  0.0391
 6129W        W 9648   7.197   0.261   9.197 -0.1705  0.1353  0.0623
 6130W        W 9649   7.444   1.432  11.513  0.0453  0.1420  0.1365
 6131W        W 9650   9.046   3.980   3.636 -0.1763 -0.1005  0.5729
 6132W        W 9651   2.279   4.903   1.148 -0.0331 -0.0133 -0.0660
 6133W        W 9652   6.562   6.006   2.891 -0.2116 -0.0970 -0.3476
 6134W        W 9653   6.696   9.263   3.309  0.1136 -0.0380 -0.1217
 6135W        W 9654   1.542   8.859   3.159  0.0171  0.0734  0.1312
 6136W        W 9655   1.877   8.568   1.158  0.1246 -0.0609  0.1717
 6137W        W 9656   3.163   7.591   4.765  0.0381 -0.0157  0.2127
 6138W        W 9657   7.362   0.105   1.750  0.3280 -0.1328 -0.2582
 6139W        W 9658   3.926   9.392   1.606 -0.3092  0.1300  0.3659
 6140W        W 9659   6.980   0.429   2.042 -0.0630  0.0549  0.2394
 6141W        W 9660   5.615   2.131   8.162  0.0924  0.4713  0.3696
 6142W        W 9661   0.905   2.745   3.424 -0.0924  0.1779  0.0019
 6143W        W 9662   1.030   4.535   1.381 -0.1289  0.1883 -0.4446
 6144W        W 9663   5.279   4.200   2.628  0.0055 -0.2816 -0.2103
 6145W        W 9664   0.103   7.932  12.018 -0.0436 -0.1757  0.3753
 6146W        W 9665   5.401   9.104   8.180  0.0774  0.0354 -0.0085
 6147W        W 9666   7.421   2.875  10.228  0.0607 -0.0717  0.2084
 6148W        W 9667   1.768   5.068  11.312  0.1032 -0.2397  0.1305
 6149W        W 9668   0.782   2.222   3.625  0.0192  0.0165 -0.2665
 6150W        W 9669   2.420   2.826   3.641  0.0280 -0.0398 -0.4111
 6151W        W 9670   6.777   5.890   1.741 -0.0368 -0.0335  0.1224
 6152W        W 9671   1.738   9.198  10.498  0.0525  0.3301 -0.1209
 6153W        W 9672   5.475   9.380  12.166 -0.2368  0.3229 -0.0663
 6154W        W 9673   6.697   4.793   1.415  0.4389 -0.1841  0.2501
 6155W        W 9674   5.012   5.690   2.742  0.3216 -0.0038  0.1502
 6156W        W 9675   2.179   7.226  10.382 -0.1603 -0.0147  0.2783
 6157W        W 9676   6.298   5.846  10.551  0.0639 -0.1277 -0.1393
 6158W        W 9677   0.585   1.951   4.125 -0.1394 -0.1303 -0.0979
 6159W        W 9678   4.463   2.454   3.563  0.3035 -0.0341  0.0073
 6160W        W 9679   2.852   0.251  10.357  0.0609  0.1038 -0.0329
 6161W        W 9680   5.145   9.051   9.263 -0.3211  0.2899 -0.0834
 6162W        W 9681   1.341   0.502  11.470 -0.0622  0.3439  0.0585
 6163W        W 9682   0.506   8.562   1.664 -0.2965 -0.0474 -0.3239
 6164W        W 9683   8.623   3.633   1.509  0.1119 -0.3325  0.2467
 6165W        W 9684   0.518   5.540   3.560  0.1805 -0.0419 -0.1446
 6166W        W 9685   6.679   2.042  12.370  0.0900 -0.0104 -0.1320
 6167W        W 9686   5.303   0.329   9.387  0.1622  0.2326 -0.0919
 6168W        W 9687   9.266   3.098  11.942 -0.3628 -0.0539  0.2602
 6169W        W 9688   9.645   1.258   0.832 -0.3267  0.2546 -0.1178
 6170W        W 9689   7.231   2.190   9.972 -0.1524  0.2465  0.1732
 6171W        W 9690   7.739   4.227   9.586  0.1651 -0.0872  0.2582
 6172W        W 9691   5.377   2.993  10.243  0.0534 -0.2876 -0.1467
 6173W        W 9692   5.770   4.729  12.013 -0.0577 -0.0801 -0.1670
 6174W        W 9693   8.646   3.963  11.944  0.1149 -0.1735  0.0535
 6175W        W 9694   4.035   7.287  11.572  0.3451  0.1518 -0.0109
 6176W        W 9695   7.245   8.531   0.333  0.0981  0.0232  0.1031
 6177W        W 9696   1.004   4.570   9.475  0.0248  0.1496 -0.2100
 6178W        W 9697   9.206   6.854   1.979 -0.1286 -0.0414  0.2901
 6179W        W 9698   2.780   0.708  10.758 -0.6596 -0.2369 -0.0807
 6180W        W 9699   9.243   1.193   9.877 -0.0488  0.0041  0.1338
 6181W        W 9700   5.434   0.015   2.498 -0.1015  0.3782 -0.0633
 6182W        W 9701   6.877   4.787   4.273 -0.0500  0.2193  0.1502
 6183W        W 9702   2.736   8.567   0.961 -0.2434  0.0064  0.3101
 6184W        W 9703   2.005   6.241   8.389  0.1804  0.2003  0.0433
 6185W        W 9704   7.965   3.782   0.461 -0.0840 -0.1724 -0.0064
 6186W        W 9705   6.508   8.112  10.011  0.1130 -0.0152 -0.0325
 6187W        W 9706   9.103   6.180   9.929  0.0631  0.1247  0.0367
 6188W        W 9707   2.515   3.259   9.786  0.2592 -0.1209  0.0568
 6189W        W 9708   0.676   8.063   9.046 -0.2291  0.1133 -0.0128
 6190W        W 9709   2.663   3.381   0.930 -0.4799 -0.0534 -0.1254
 6191W        W 9710   3.661   0.834   3.761  0.1208 -0.2092 -0.1236
 6192W        W 9711   9.620   3.428  12.005 -0.2353 -0.0784 -0.1645
 6193W        W 9712   4.904   8.898   0.715 -0.1769 -0.0807 -0.0725
 6194W        W 9713   3.429   8.703   2.011  0.1348 -0.0850  0.2730
 6195W        W 9714   2.612   4.298   9.746  0.1132 -0.2002  0.0453
 6196W        W 9715   5.705   9.624  11.167  0.0305  0.1446 -0.0915
 6197W        W 9716   4.558   0.771   8.163 -0.0401 -0.1147 -0.0349
 6198W        W 9717   5.783   2.985   8.558  0.2218  0.4497  0.1313
 6199W        W 9718   7.108   9.086   3.621 -0.3027  0.2254  0.1568
 6200W        W 9719   6.751   1.952   2.740  0.0335 -0.0919  0.0327
 6201W        W 9720   8.176   6.882   1.639 -0.1314 -0.1251  0.0132
 6202W        W 9721   8.141   5.940  10.035  0.0369 -0.1336  0.0109
 6203W        W 9722   8.001   0.819  11.590 -0.2098  0.2461 -0.0785
 6204W        W 9723   6.499   0.183   1.303 -0.0207 -0.0979  0.0459
 6205W        W 9724   1.389   2.163   4.925  0.0914  0.1241  0.1106
 6206W        W 9725   1.258   6.328   8.991  0.1609  0.1482 -0.4223
 6207W        W 9726   0.650   1.434   0.204  0.1351  0.0422  0.2132
 6208W        W 9727   7.839   9.677  10.855  0.1627  0.0518  0.1566
 6209W        W 9728   4.565   6.539   3.679 -0.1823  0.0898 -0.0597
 6210W        W 9729   5.993   6.458   0.016 -0.0616 -0.3152  0.1434
 6211W        W 9730   6.916   0.573   9.925 -0.2498 -0.0626  0.3318
 6212W        W 9731   4.041   2.264   1.545  0.1560 -0.0545  0.0054
 6213W        W 9732   7.103   0.684   2.470 -0.0525  0.0851 -0.0532
 6214W        W 9733   1.866   5.698   0.503 -0.1259 -0.3476 -0.3088
 6215W        W 9734   7.967   3.100   3.860  0.4992  0.0501  0.0598
 6216W        W 9735   1.818   4.812   0.936  0.1099  0.2490  0.4507
 6217W        W 9736   6.965   3.457   1.836 -0.2988 -0.2127  0.1799
 6218W        W 9737   1.454   9.400   9.601  0.1557 -0.0725  0.0012
 6219W        W 9738   3.909   1.640   0.699  0.5997  0.1494 -0.1897
 6220W        W 9739   2.964   1.489   3.640  0.2343  0.4618 -0.0340
 6221W        W 9740   6.971   3.068  10.900 -0.2480  0.1134 -0.2893
 6222W        W 9741   3.602   5.731  12.223  0.4134  0.0929 -0.2418
 6223W        W 9742   9.100   2.136   9.513 -0.0794  0.1110  0.3603
 6224W        W 9743   2.425   0.854   9.978  0.1473 -0.0094  0.1195
 6225W        W 9744   4.765   6.480   8.474  0.2603  0.2552  0.3092
 6226W        W 9745   0.379   3.523   1.842 -0.1332 -0.2875  0.1225
 6227W        W 9746   5.842   5.008   3.231 -0.1512 -0.3090  0.3487
 6228W        W 9747   5.332   3.086   1.026 -0.0174  0.3975  0.1824
 6229W        W 9748   6.488   2.264  12.002  0.2031  0.1972 -0.0906
 6230W        W 9749   4.854   7.272   0.426 -0.0815  0.2274 -0.0566
 6231W        W 9750   6.500   1.023  10.052  0.0585 -0.1152 -0.2357
 6232W        W 9751   3.005   6.360   4.906  0.0202 -0.1782  0.4980
 6233W        W 9752   2.849   2.968   3.829 -0.3913  0.0553 -0.0795
 6234W        W 9753   4.022   3.852  10.597  0.1090 -0.0688  0.2799
 6235W        W 9754   2.139   0.227  10.785 -0.0874  0.1952  0.1071
 6236W        W 9755   4.744   0.604   3.534  0.0662 -0.0299  0.0494
 6237W        W 9756   5.136   8.378   9.874 -0.2669  0.2569 -0.0567
 6238W        W 9757   9.392   9.084   0.699 -0.0605  0.1606  0.0509
 6239W        W 9758   0.105   7.079   9.772 -0.2767 -0.1488  0.3486
 6240W        W 9759   2.204   1.528  10.323 -0.0017 -0.2054  0.3413
 6241W        W 9760   3.750   1.184   1.463  0.0894 -0.0576  0.1678
 6242W        W 9761   7.272   3.679   9.505  0.1860  0.0644 -0.0803
 6243W        W 9762   1.765   0.309   2.220  0.0639  0.0658 -0.0534
 6244W        W 9763   0.668   4.752   1.038 -0.0368  0.0425  0.0972
 6245W        W 9764   0.280   2.211   0.452  0.0492 -0.1278  0.2570
 6246W        W 9765   3.890   4.753   5.223 -0.1083 -0.2591 -0.4195
 6247W        W 9766   7.845   3.931   1.483  0.2447  0.1136  0.0247
 6248W        W 9767   7.921   6.856  11.313  0.1137  0.0861 -0.2893
 6249W        W 9768   8.889   2.006   2.456 -0.0357  0.1578 -0.1469
 6250W        W 9769   5.971   0.499   9.785  0.2028 -0.1651 -0.0563
 6251W        W 9770   1.818   0.403   0.878  0.0759  0.3601 -0.2068
 6252W        W 9771   5.459   7.538   9.585 -0.1979  0.1783 -0.0092
 6253W        W 9772   6.855   5.789   0.181 -0.0198 -0.3169 -0.0008
 6254W        W 9773   6.438   3.114  11.117 -0.0818  0.0537 -0.0151
 6255W        W 9774   3.823   5.292   2.608 -0.2135  0.0628  0.2152
 6256W        W 9775   1.889   3.100  10.943 -0.0979 -0.0468 -0.1721
 6257W        W 9776   6.924   2.726   0.303 -0.0901  0.0014 -0.0585
 6258W        W 9777   0.466   4.355   2.997 -0.1455  0.2406 -0.2728
 6259W        W 9778   7.921   7.322   1.966  0.3764 -0.0905  0.0149
 6260W        W 9779   1.873   0.839   0.422 -0.1633  0.1994 -0.0005
 6261W        W 9780   2.687   5.489   8.945 -0.0931 -0.2687  0.1036
 6262W        W 9781   1.005   5.372   0.942  0.3687  0.3127  0.1372
 6263W        W 9782   6.764   0.934   0.533  0.0488 -0.3053 -0.1478
 6264W        W 9783   8.421   8.065   2.025  0.1549  0.0310  0.0536
 6265W        W 9784   1.853   7.723  12.410 -0.1041 -0.1188  0.1161
 6266W        W 9785   8.554   2.720   0.232  0.0876 -0.0313  0.0478
 6267W        W 9786   1.430   1.320  10.943  0.0359  0.0621 -0.0168
 6268W        W 9787   4.982   5.203  12.069  0.2709  0.3537  0.0580
 6269W        W 9788   9.222   4.634   3.422 -0.0177  0.4057 -0.0130
 6270W        W 9789   4.288   6.197  10.324 -0.2130  0.0620 -0.1381
 6271W        W 9790   8.290   7.210   1.242 -0.3392  0.0370 -0.1427
 6272W        W 9791   2.068   2.836   2.084  0.1649  0.3746  0.0414
 6273W        W 9792   9.213   4.837   1.194 -0.0309  0.0812  0.0685
 6274W        W 9793   9.516   6.638  10.255  0.3137  0.2711  0.1065
 6275W        W 9794   4.736   0.132   1.942  0.1293  0.1879 -0.1212
 6276W        W 9795   5.490   7.018   2.530  0.0801 -0.2453 -0.0744
 6277W        W 9796   3.650   4.671   4.396  0.1363 -0.0078 -0.1804
 6278W        W 9797   4.028   4.227   9.866  0.3771  0.0759 -0.0437
 6279W        W 9798   1.938   6.762  11.882  0.0970 -0.1813 -0.1156
 6280W        W 9799   1.592   7.309  10.993  0.3742  0.1139 -0.1633
 6281W        W 9800   0.437   5.818  12.196 -0.0866 -0.0034  0.3138
 6282W        W 9801   2.684   1.518   9.499 -0.0241  0.0065 -0.3757
 6283W        W 9802   7.680   6.916   1.756  0.1332  0.1605  0.0383
 6284W        W 9803   1.892   0.813  12.062  0.3537  0.0421  0.1434
 6285W        W 9804   1.701   7.070  10.391 -0.0252  0.2252  0.0982
 6286W        W 9805   7.629   9.573  12.248 -0.0823 -0.0314 -0.1295
 6287W        W 9806   1.642   5.079   0.039  0.3087  0.0948  0.1782
 6288W        W 9807   0.398   6.288   9.103  0.2519  0.1418 -0.2108
 6289W        W 9808   2.803   7.821  10.155  0.0310 -0.0015  0.3766
 6290W        W 9809   7.213   5.074   9.663  0.1949 -0.0905 -0.0195
 6291W        W 9810   9.216   2.073   3.963  0.2392 -0.5610 -0.0398
 6292W        W 9811   2.344   5.579   1.917  0.1006 -0.1526  0.4233
 6293W        W 9812   4.826   0.894   8.818  0.0719  0.1808 -0.0403
 6294W        W 9813   4.761   9.683   0.525 -0.1184 -0.1949 -0.0811
 6295W        W 9814   9.196   5.465   3.836  0.0283 -0.2264 -0.0681
 6296W        W 9815   9.429   8.607   0.351 -0.2570 -0.2964  0.1364
 6297W        W 9816   2.147   9.308  12.212 -0.0869 -0.0489 -0.1230
 6298W        W 9817   7.205   6.717  12.500  0.1344 -0.2504  0.3362
 6299W        W 9818   7.100   7.636   3.228  0.0803  0.1739  0.1166
 6300W        W 9819   5.462   8.283   1.419  0.0318  0.1207  0.0271
 6301W        W 9820   0.530   2.813   3.807 -0.1066  0.0460  0.0624
 6302W        W 9821   4.533   4.394  11.331 -0.2888  0.1127  0.0412
 6303W        W 9822   3.779   6.413   8.794  0.2711 -0.0961 -0.0036
 6304W        W 9823   3.883   4.313   1.394  0.2862 -0.0999  0.0950
 6305W        W 9824   1.789   4.844   9.871  0.1502 -0.0403 -0.0187
 6306W        W 9825   5.284   4.141   8.831 -0.3010 -0.1754 -0.1035
 6307W        W 9826   5.319   1.005   8.997 -0.0241  0.1963 -0.3283
 6308W        W 9827   2.583   8.462  11.304 -0.2941 -0.1308  0.2468
 6309W        W 9828   9.079   5.049   2.951  0.0218  0.1965 -0.5991
 6310W        W 9829   5.636   8.354   8.690  0.0657  0.0705  0.2494
 6311W        W 9830   2.469   2.294  10.707  0.2392 -0.2211 -0.0039
 6312W        W 9831   4.426   6.509  11.084  0.2112  0.1122 -0.0797
 6313W        W 9832   4.478   5.583   3.422 -0.0601  0.0141  0.0508
 6314W        W 9833   3.202   4.418   4.609  0.3317 -0.2155  0.0155
 6315W        W 9834   1.894   2.593   9.971  0.0299  0.1165 -0.0908
 6316W        W 9835   7.143   1.626  12.298  0.3048 -0.0014 -0.0394
 6317W        W 9836   9.228   7.790   3.487  0.0603 -0.0265  0.0705
 6318W        W 9837   6.242   9.205  11.089  0.0091  0.1989  0.1383
 6319W        W 9838   1.411   6.672  11.862  0.3353 -0.1310  0.2334
 6320W        W 9839   9.405   6.090   3.028  0.1218  0.1466  0.3467
 6321W        W 9840   5.261   2.659   1.289 -0.1710  0.1228  0.1852
 6322W        W 9841   3.614   9.425   3.627 -0.4064  0.1609  0.2458
 6323W        W 9842   5.903   7.102   3.502 -0.1456  0.2768  0.3277
 6324W        W 9843   3.270   3.302   3.747 -0.1407  0.0106  0.0295
 6325W        W 9844   5.038   2.975   3.960 -0.1743  0.1223  0.2667
 6326W        W 9845   0.322   5.039  10.972  0.1863  0.4122 -0.1842
 6327W        W 9846   7.979   0.248  12.257 -0.2354  0.0599  0.2117
 6328W        W 9847   4.034   0.262   3.843 -0.0323  0.1738 -0.3414
 6329W        W 9848   5.502   9.212   0.199  0.0130 -0.1527 -0.1713
 6330W        W 9849   5.239   8.553   1.005 -0.1426 -0.0224 -0.2209
 6331W        W 9850   2.685   6.468   2.128 -0.0552  0.1313 -0.1186
 6332W        W 9851   1.056   0.701   0.294 -0.2511  0.1217 -0.1149
 6333W        W 9852   4.138   5.118  10.230 -0.2167  0.1651 -0.1980
 6334W        W 9853   7.024   1.454   1.046  0.1286  0.0048  0.2859
 6335W        W 9854   6.183   3.132   2.368  0.1571 -0.1646  0.0678
 6336W        W 9855   3.924   5.008   8.678 -0.3299  0.0053 -0.1861
 6337W        W 9856   7.115   7.682   1.090  0.3492 -0.1269 -0.3109
 6338W        W 9857   6.860   6.514   9.374 -0.0634 -0.1728 -0.0477
 6339W        W 9858   3.330   2.955   0.507 -0.1567  0.1790  0.0042
 6340W        W 9859   0.630   7.544   0.450  0.2877 -0.2880 -0.0885
 6341W        W 9860   6.911   6.276   3.301  0.3669  0.0529  0.5423
 6342W        W 9861   3.274   8.162   9.699  0.0897  0.3259  0.0256
 6343W        W 9862   4.142   1.975   3.419 -0.0104 -0.0358 -0.1125
 6344W        W 9863   8.917   4.469   1.061  0.0445  0.2267  0.0023
 6345W        W 9864   6.571   9.448  10.565  0.1042 -0.2239 -0.0879
 6346W        W 9865   3.800   2.804   9.666  0.2459  0.2354  0.0312
 6347W        W 9866   1.299   1.700   3.909 -0.0093 -0.4516 -0.3035
 6348W        W 9867   4.270   7.517   8.897 -0.0377 -0.1418 -0.0455
 6349W        W 9868   1.847   4.063   2.205 -0.1168 -0.0950  0.1198
 6350W        W 9869   3.649   1.080  10.919  0.0478  0.0639  0.1327
 6351W        W 9870   4.464   7.820   2.661  0.1175  0.1361  0.2340
 6352W        W 9871   6.456   1.147   1.423 -0.3378 -0.1794  0.1414
 6353W        W 9872   1.980   0.002   0.564  0.4079 -0.1236 -0.1454
 6354W        W 9873   5.989   7.679   9.582  0.2850  0.0357  0.0733
 6355W        W 9874   8.150   0.577   9.912  0.1835  0.3593 -0.1435
 6356W        W 9875   8.626   7.900   9.325  0.2392  0.1940 -0.0595
 6357W        W 9876   7.031   7.667   9.825 -0.1657 -0.2976  0.0339
 6358W        W 9877   4.237   7.173   1.324 -0.0508 -0.2393  0.2345
 6359W        W 9878   7.213   7.737  10.285 -0.1123 -0.1578  0.1994
 6360W        W 9879   8.901   7.947   2.756 -0.1546 -0.0892 -0.1098
 6361W        W 9880   1.431   0.097   2.634 -0.1519 -0.2155 -0.2407
 6362W        W 9881   8.838   1.983   1.976  0.1809  0.0709  0.0916
 6363W        W 9882   6.728   7.508   1.927 -0.0153 -0.2201  0.3673
 6364W        W 9883   2.493   3.949   3.056 -0.2020  0.0933 -0.4109
 6365W        W 9884   5.730   1.345   9.671  0.1693 -0.0902  0.0086
 6366W        W 9885   1.751   0.554   1.695 -0.2677  0.2116  0.2067
 6367W        W 9886   6.179   7.615  10.065 -0.1715  0.1258 -0.3603
 6368W        W 9887   2.408   4.894   2.938 -0.1605  0.1701 -0.0440
 6369W        W 9888   6.015   1.474   3.469 -0.1701  0.0114  0.0638
 6370W        W 9889   4.328   3.464  10.515  0.1710 -0.0502  0.0404
 6371W        W 9890   3.182   5.955   9.749 -0.0755  0.1595 -0.4138
 6372W        W 9891   0.841   6.458   9.276 -0.0658 -0.1617  0.1913
 6373W        W 9892   1.178   9.412   9.171 -0.2101  0.0991 -0.0104
 6374W        W 9893   0.144   5.890   0.824 -0.1797 -0.1324  0.2060
 6375W        W 9894   8.737   0.622   1.667 -0.0822 -0.0357  0.3234
 6376W        W 9895   2.795   8.877  10.061  0.0777  0.0290  0.0969
 6377W        W 9896   1.830   8.804   0.718  0.1035  0.2638  0.4793
 6378W        W 9897   2.793   3.916   2.678 -0.2879  0.4122 -0.3480
 6379W        W 9898   7.142   5.025   8.373  0.1062 -0.0303 -0.1111
 6380W        W 9899   2.442   1.187   3.452  0.1096 -0.1161 -0.0805
 6381W        W 9900   3.836   7.936   9.739 -0.1106 -0.0216 -0.0648
 6382W        W 9901   7.135   2.272   0.520  0.0084 -0.2476 -0.0108
 6383W        W 9902   6.488   1.895   0.851  0.0047 -0.1855  0.0153
 6384W        W 9903   2.889   8.273  10.038 -0.2693 -0.1972  0.2256
 6385W        W 9904   5.817   7.262   9.811 -0.1203  0.2665 -0.1083
 6386W        W 9905   7.894   7.903  11.448  0.2835 -0.4516  0.0334
 6387W        W 9906   5.183   3.902  10.992 -0.0866 -0.1464  0.0122
 6388W        W 9907   8.621   5.665   0.784  0.2829  0.0202 -0.0214
 6389W        W 9908   5.034   3.230   2.424  0.3258  0.2997 -0.0147
 6390W        W 9909   4.972   6.211   4.414 -0.0502 -0.2402 -0.1171
 6391W        W 9910   9.691   5.965   9.073  0.0991 -0.4007 -0.0432
 6392W        W 9911   2.689   7.425  12.057  0.0808  0.0830 -0.2312
 6393W        W 9912   0.378   2.835   8.880  0.0203 -0.0491  0.0291
 6394W        W 9913   4.695   5.329   0.492 -0.0455 -0.0709 -0.1477
 6395W        W 9914   4.479   1.840  10.890 -0.1245 -0.1521 -0.0438
 6396W        W 9915   4.199   2.592  11.109 -0.2441 -0.0718 -0.1078
 6397W        W 9916   4.676   2.458  12.520 -0.0561 -0.4189 -0.1411
 6398W        W 9917   0.342   7.124   9.086  0.0890  0.2506 -0.1512
 6399W        W 9918   0.841   0.792  11.247 -0.0858 -0.2286  0.2254
 6400W        W 9919   4.705   5.908   0.799  0.0243  0.2404 -0.1513
 6401W        W 9920   4.619   4.451   9.525 -0.0147 -0.0106  0.4554
 6402W        W 9921   1.462   2.125   4.389 -0.1571  0.2798 -0.2061
 6403W        W 9922   3.116   3.521   8.361 -0.0031  0.1573  0.2065
 6404W        W 9923   5.906   1.303   0.142 -0.2082  0.1097 -0.0373
 6405W        W 9924   3.005   6.807   9.115 -0.0509  0.0683 -0.0477
 6406W        W 9925   7.942   6.181  10.873 -0.1099  0.0174  0.0479
 6407W        W 9926   0.890   7.998  10.408 -0.2295  0.2605  0.0846
 6408W        W 9927   6.832   0.621  11.405  0.0096  0.0735  0.0100
 6409W        W 9928   4.250   6.586   8.889  0.0668  0.0729  0.2290
 6410W        W 9929   2.603   1.803   8.825  0.0066  0.1791  0.2345
 6411W        W 9930   5.789   6.063  11.394  0.1223  0.1701 -0.0518
 6412W        W 9931   5.297   8.828  11.055 -0.2071  0.1460 -0.0307
 6413W        W 9932   3.516   8.216   0.849 -0.0303 -0.4559 -0.0561
 6414W        W 9933   0.855   2.496  11.786  0.0522 -0.2748  0.1195
 6415W        W 9934   2.778   6.129   4.460  0.5092 -0.3882  0.0987
 6416W        W 9935   1.988   8.572   9.650  0.1949 -0.3018 -0.0553
 6417W        W 9936   5.989   0.863  10.927 -0.2716 -0.2979 -0.3244
 6418W        W 9937   2.793   3.045   9.021 -0.1371  0.0529  0.1652
 6419W        W 9938   3.281   6.879  11.675 -0.4549 -0.0839  0.2005
 6420W        W 9939   8.773   4.285   3.321 -0.0630 -0.0683 -0.5065
 6421W        W 9940   3.566   8.747  10.391 -0.0921  0.0648 -0.0005
 6422W        W 9941   4.826   3.197   0.734 -0.0386  0.0687  0.2075
 6423W        W 9942   3.731   9.648   9.204 -0.1452 -0.0150 -0.2272
 6424W        W 9943   5.945   0.999   1.456 -0.1814  0.1034 -0.2517
 6425W        W 9944   8.972   9.409   1.471 -0.0908 -0.3312 -0.1031
 6426W        W 9945   3.206   4.353  12.154  0.2420 -0.0572 -0.1990
 6427W        W 9946   9.598   6.342  10.702 -0.1198 -0.0605 -0.1202
 6428W        W 9947   2.891   7.404   9.542 -0.2002 -0.1204 -0.0366
 6429W        W 9948   1.494   3.088  11.799 -0.2168  0.0989  0.0037
 6430W        W 9949   2.646   3.949   9.385 -0.1438  0.2976 -0.1432
 6431W        W 9950   3.140   1.491   1.188  0.0300  0.0254 -0.0757
 6432W        W 9951   1.284   5.837   4.683 -0.1898 -0.0670 -0.1975
 6433W        W 9952   7.697   5.886  10.345  0.0603 -0.0669  0.2075
 6434W        W 9953   5.782   5.202   3.734  0.0416  0.2089  0.3694
 6435W        W 9954   7.215   1.753   9.432  0.3884 -0.2130  0.3061
 6436W        W 9955   0.199   0.164   0.354  0.0734 -0.2169  0.1685
 6437W        W 9956   3.556   5.434   0.190 -0.0507 -0.2656 -0.0679
 6438W        W 9957   2.271   4.331   9.333 -0.0243  0.1551  0.2089
 6439W        W 9958   0.875   3.981   0.566  0.0467  0.4084 -0.0594
 6440W        W 9959   1.442   0.341  10.267  0.0201 -0.1366  0.2210
 6441W        W 9960   2.898   1.062   9.787  0.1232 -0.1663  0.0857
 6442W        W 9961   8.068   5.631   1.086 -0.1807 -0.1630 -0.1805
 6443W        W 9962   2.102   2.216  11.177 -0.1472 -0.0586 -0.1086
 6444W        W 9963   9.618   3.727   2.525 -0.4109  0.1199 -0.1468
 6445W        W 9964   1.256   4.442   8.624  0.0062  0.0084  0.4139
 6446W        W 9965   0.208   6.067   0.375  0.0918 -0.1552 -0.4316
 6447W        W 9966   3.517   9.034   9.503  0.0029  0.2441  0.0192
 6448W        W 9967   2.924   1.636  11.163 -0.3068 -0.1337 -0.1427
 6449W        W 9968   9.024   4.050   1.450 -0.4808 -0.1369  0.0286
 6450W        W 9969   2.994   4.594  11.285  0.3309  0.1424 -0.3417
 6451W        W 9970   7.623   6.743   0.254 -0.0706 -0.1949 -0.3581
 6452W        W 9971   0.048   3.003   0.906 -0.1298  0.0818  0.3687
 6453W        W 9972   4.037   3.744   3.771  0.0460 -0.2504 -0.1036
 6454W        W 9973   9.340   2.931   1.631  0.2087  0.0783  0.0380
 6455W        W 9974   7.381   9.557   2.201 -0.0860  0.1632 -0.1601
 6456W        W 9975   1.878   4.445   1.231 -0.1429  0.0805  0.3736
 6457W        W 9976   4.873   1.750  11.269  0.2722 -0.2627  0.1008
 6458W        W 9977   1.454   6.845  11.374  0.1168 -0.0219 -0.0776
 6459W        W 9978   3.410   7.255   1.012 -0.0562  0.2000 -0.0527
 6460W        W 9979   7.039   7.890  11.236 -0.0347 -0.1218 -0.0305
 6461W        W 9980   4.507   0.494   8.890  0.2368 -0.2764 -0.1798
 6462W        W 9981   4.723   5.319  12.486  0.3043  0.0260 -0.2188
 6463W        W 9982   8.461   0.274  12.374  0.4970 -0.1234 -0.1373
 6464W        W 9983   0.137   0.555   3.102 -0.1278 -0.3459 -0.0097
 6465W        W 9984   7.871   4.814   3.290 -0.0823  0.2854 -0.1517
 6466W        W 9985   7.093   6.439  10.649 -0.0091 -0.1539 -0.2965
 6467W        W 9986   8.815   2.006   3.157  0.0113  0.1173  0.0471
 6468W        W 9987   5.698   3.359   0.436  0.0384  0.0661  0.3529
 6469W        W 9988   9.134   4.459   9.258 -0.2902  0.2539 -0.0195
 6470W        W 9989   5.593   4.134  10.114 -0.0595 -0.1843  0.0570
 6471W        W 9990   7.548   2.386   0.727  0.1041 -0.0276  0.0387
 6472W        W 9991   8.951   2.951   2.383  0.0548 -0.2063  0.2397
 6473W        W 9992   8.316   8.767  11.496  0.1629  0.3257 -0.0345
 6474W        W 9993   5.504   5.431   4.180  0.3084  0.1915  0.4789
 6475W        W 9994   4.955   5.225   9.634  0.2418 -0.2274 -0.3561
 6476W        W 9995   2.709   7.346   2.489 -0.0670 -0.1474 -0.0433
 6477W        W 9996   3.841   0.472  10.017  0.0367  0.1916  0.0244
 6478W        W 9997   2.706   1.864   4.368 -0.2949 -0.1003  0.0236
 6479W        W 9998   5.954   2.360   3.313  0.3645 -0.2747  0.0363
 6480W        W 9999   1.186   9.678  11.363  0.1585 -0.0190  0.1837
 6481W        W10000   4.762   4.402   1.053  0.0244 -0.0226  0.0486
 6482W        W10001   2.371   6.057   3.514 -0.3534 -0.2093  0.0406
 6483W        W10002   6.987   4.410  10.366  0.4881 -0.0940  0.4108
 6484W        W10003   2.199   2.905   1.329  0.0066  0.1800 -0.0214
 6485W        W10004   3.062   0.639   0.358 -0.2815 -0.1257  0.0746
 6486W        W10005   0.863   1.587   8.615 -0.1370 -0.1010 -0.1949
 6487W        W10006   5.426   2.154  10.663 -0.1513  0.0906 -0.3564
 6488W        W10007   0.031   2.033  10.285 -0.0795 -0.1362  0.0470
 6489W        W10008   4.998   3.796   2.338  0.2070 -0.2410  0.1892
 6490W        W10009   7.354   9.273   9.353 -0.0399 -0.1161  0.0673
 6491W        W10010   6.185   2.448   9.270  0.0928 -0.1268  0.1518
 6492W        W10011   5.590   1.297   3.244 -0.0321 -0.1035  0.1435
 6493W        W10012   3.266   7.045   1.991  0.1136 -0.3482 -0.1351
 6494W        W10013   7.265   1.263  11.043 -0.2085  0.0767  0.0499
 6495W        W10014   6.559   3.239   9.942 -0.4325  0.1445 -0.2625
 6496W        W10015   6.606   8.584   8.579  0.1985 -0.1416 -0.1560
 6497W        W10016   3.951   0.278  11.500  0.2458 -0.0326  0.0590
 6498W        W10017   3.238   6.983   2.554  0.0107 -0.0219  0.0287
 6499W        W10018   1.960   7.237  12.182 -0.1910  0.1627 -0.1877
 6500W        W10019   1.226   6.371   2.215  0.0235 -0.3363  0.2332
 6501W        W10020   8.284   5.947  11.484 -0.1123  0.1609  0.1047
 6502W        W10021   5.694   6.560  11.526 -0.0544 -0.1384  0.2207
 6503W        W10022   3.847   1.332   8.599  0.2504  0.2343 -0.1007
 6504W        W10023   5.057   0.474   8.959  0.0822  0.0235  0.2782
 6505W        W10024   7.922   0.553  10.535  0.0853 -0.1375  0.4063
 6506W        W10025   4.444   9.466   9.052  0.0842 -0.0392 -0.1366
 6507W        W10026   1.668   1.342   1.930  0.0802 -0.0705  0.1629
 6508W        W10027   1.273   9.492  12.377  0.1267  0.0912  0.4520
 6509W        W10028   8.111   4.335   1.641  0.2604 -0.0965 -0.0181
 6510W        W10029   0.948   1.146   0.542  0.3238 -0.1869 -0.2339
 6511W        W10030   2.211   1.838  10.717 -0.0635 -0.1155  0.0936
 6512W        W10031   6.106   3.691   0.839  0.1613  0.0116  0.1016
 6513W        W10032   0.319   5.500   2.812  0.0760 -0.0341  0.0435
 6514W        W10033   0.748   1.291   2.017 -0.0619  0.3252 -0.0882
 6515W        W10034   5.680   3.821  11.863  0.2001 -0.2613  0.0068
 6516W        W10035   3.635   0.651   2.705 -0.3753 -0.2892  0.0564
 6517W        W10036   2.557   6.003   7.897 -0.4299 -0.0988 -0.0212
 6518W        W10037   0.126   8.659   3.742 -0.0494 -0.0638 -0.1354
 6519W        W10038   3.462   8.715   2.856 -0.0468  0.1099  0.1929
 6520W        W10039   0.267   7.294  10.598 -0.0213  0.2189 -0.0948
 6521W        W10040   6.095   5.293  10.576 -0.1451  0.3921  0.2435
 6522W        W10041   7.544   1.114  10.307  0.2983  0.1888  0.2804
 6523W        W10042   7.688   8.651  10.892  0.2389 -0.3486  0.2034
 6524W        W10043   7.546   4.528  10.283  0.0750 -0.2443  0.0089
 6525W        W10044   2.518   7.789   2.255 -0.1291  0.2064  0.3052
 6526W        W10045   2.312   3.109   2.352  0.1689  0.1161  0.2665
 6527W        W10046   2.609   4.614  10.290 -0.2523 -0.2566 -0.3295
 6528W        W10047   3.095   0.632  12.020 -0.0316  0.3947  0.1675
 6529W        W10048   5.547   6.920   4.357 -0.1471  0.1089 -0.0392
 6530W        W10049   6.668   2.737   9.226  0.2355 -0.0481  0.2067
 6531W        W10050   2.604   5.811   0.873  0.0596 -0.0221 -0.0372
 6532W        W10051   2.648   1.724   8.166  0.1569 -0.0416 -0.0816
 6533W        W10052   1.176   5.405   1.953  0.0335 -0.2338  0.1521
 6534W        W10053   7.413   5.375   8.869  0.2202 -0.0124  0.0095
 6535W        W10054   2.518   8.693  11.714 -0.0271 -0.2271  0.2615
 6536W        W10055   6.142   2.255   9.974  0.2284  0.0788  0.0153
 6537W        W10056   7.067   3.925   3.856 -0.1796  0.0417 -0.3627
 6538W        W10057   3.844   6.589  11.095  0.2134  0.5187 -0.1346
 6539W        W10058   5.432   0.178   3.008  0.5013 -0.0454 -0.3320
 6540W        W10059   4.203   5.278   9.743  0.2453 -0.2941 -0.0838
 6541W        W10060   1.565   5.337   4.632  0.1888  0.0910 -0.2225
 6542W        W10061   7.296   7.701   2.140 -0.2471  0.1844  0.1658
 6543W        W10062   8.401   3.662   0.236 -0.2840 -0.0079 -0.0713
 6544W        W10063   6.009   0.673   9.239  0.2653 -0.1812 -0.3129
 6545W        W10064   8.281   7.702  11.832  0.2268 -0.1234  0.1333
 6546W        W10065   3.142   9.113   1.219 -0.2196  0.1144  0.0608
 6547W        W10066   7.052   3.375  10.116 -0.0410  0.1171 -0.0991
 6548W        W10067   3.522   1.524   4.244  0.2040 -0.0404  0.2039
 6549W        W10068   8.980   9.417  10.342 -0.3161 -0.1602  0.0779
 6550W        W10069   8.496   5.594   9.599 -0.1625  0.1544  0.1648
 6551W        W10070   4.274   6.659   8.378  0.0413  0.1794  0.0860
 6552W        W10071   3.581   4.974   4.750 -0.1793 -0.1381  0.0743
 6553W        W10072   0.651   5.374  12.158  0.1448 -0.1322 -0.1076
 6554W        W10073   7.109   2.205   3.475  0.2259  0.0741  0.2236
 6555W        W10074   6.665   7.667   1.441  0.2208  0.0972 -0.0319
 6556W        W10075   4.184   9.145   2.432  0.1818  0.2441 -0.1018
 6557W        W10076   9.026   2.378   1.714  0.0046 -0.0456 -0.5111
 6558W        W10077   0.934   3.469   0.492 -0.0986  0.3147  0.3486
 6559W        W10078   4.235   5.292   9.168  0.3657 -0.4852  0.0713
 6560W        W10079   0.292   0.364   3.547  0.0255  0.0875 -0.1620
 6561W        W10080   6.478   4.719  11.241 -0.3202 -0.2399  0.0266
 6562W        W10081   6.145   7.237   0.905 -0.1152 -0.1715 -0.4794
 6563W        W10082   6.350   7.244   3.693  0.1741  0.1632 -0.0026
 6564W        W10083   8.720   4.097  11.438 -0.0672 -0.0695 -0.1634
 6565W        W10084   0.152   5.042   9.259  0.0159 -0.1397  0.4226
 6566W        W10085   5.539   6.956   8.915 -0.0383 -0.2056  0.1070
 6567W        W10086   5.584   6.147   0.407 -0.0427 -0.3259  0.0580
 6568W        W10087   6.419   3.414   2.809 -0.0322  0.1558  0.1898
 6569W        W10088   5.110   6.241  10.409  0.1380 -0.0647 -0.2369
 6570W        W10089   7.370   4.097  10.547  0.0220  0.2683  0.0728
 6571W        W10090   8.228   0.491   1.742 -0.0699  0.0871  0.0313
 6572W        W10091   1.392   7.389   3.808  0.1711 -0.0076 -0.0767
 6573W        W10092   2.951   8.772   2.861  0.2844 -0.3559  0.0653
 6574W        W10093   9.686   1.962   0.744 -0.4598 -0.2029  0.0063
 6575W        W10094   8.272   4.833   9.075  0.0733 -0.1098  0.0304
 6576W        W10095   5.807   5.637   1.707 -0.4027  0.1280 -0.3026
 6577W        W10096   4.678   0.496   0.370 -0.2261  0.1457 -0.0611
 6578W        W10097   6.106   8.291  11.126  0.3033  0.2197  0.3738
 6579W        W10098   5.903   5.394   2.282  0.1579  0.0015 -0.0897
 6580W        W10099   7.725   9.361   3.079 -0.0855  0.2449  0.4538
 6581W        W10100   5.041   7.664   2.117  0.1052  0.1122  0.2530
 6582W        W10101   2.223   4.384   2.126  0.0507  0.0066  0.0743
 6583W        W10102   3.000   3.411   9.491 -0.0284  0.3106  0.0957
 6584W        W10103   8.208   3.794   3.193  0.4065  0.1051 -0.0190
 6585W        W10104   0.602   3.022   2.177  0.1485  0.2668 -0.0033
 6586W        W10105   4.423   0.562   3.909 -0.1443  0.1141 -0.1615
 6587W        W10106   0.307   2.431   8.641  0.2476 -0.2014 -0.2591
 6588W        W10107   0.746   8.607   2.969 -0.2495 -0.0067 -0.0149
 6589W        W10108   3.967   2.354   8.232  0.1554 -0.2467  0.0105
 6590W        W10109   7.107   9.141   8.794 -0.1620  0.0867  0.4028
 6591W        W10110   3.545   6.479   3.777 -0.1419 -0.1637 -0.1318
 6592W        W10111   2.904   8.255   3.303 -0.1663 -0.2562  0.1301
 6593W        W10112   8.332   8.354   8.556 -0.0965  0.1129  0.1600
 6594W        W10113   2.323   1.654   0.761  0.0709 -0.2402  0.0525
 6595W        W10114   6.369   5.962  11.042 -0.4319 -0.1172 -0.1330
 6596W        W10115   0.021   1.946   1.356  0.4843 -0.1688  0.1703
 6597W        W10116   3.407   3.672   9.712 -0.1000 -0.0148  0.2642
 6598W        W10117   6.787   0.524   1.549 -0.2072 -0.2113  0.0328
 6599W        W10118   3.165   3.644   0.210 -0.0907 -0.2103 -0.3688
 6600W        W10119   6.454   9.345  11.963 -0.3205  0.0222 -0.1854
 6601W        W10120   7.968   8.129  12.512 -0.2311 -0.1097 -0.4401
 6602W        W10121   2.956   1.432  12.435 -0.0995 -0.1643 -0.2289
 6603W        W10122   7.385   6.914  10.572 -0.0350  0.0907  0.2350
 6604W        W10123   7.665   3.702   8.707 -0.0457 -0.1286  0.0557
 6605W        W10124   6.305   4.870   2.127  0.0268  0.0566  0.4605
 6606W        W10125   0.125   7.218   3.174 -0.0358 -0.1439  0.1182
 6607W        W10126   2.555   7.114   9.154 -0.1515 -0.0256  0.0432
 6608W        W10127   5.278   5.691   3.635 -0.0314 -0.3055 -0.2342
 6609W        W10128   7.528   7.187  11.074 -0.2004 -0.1341 -0.2900
 6610W        W10129   5.826   2.850  12.067 -0.0121 -0.1982 -0.2158
 6611W        W10130   4.647   7.441   1.251 -0.4132 -0.2738  0.0928
 6612W        W10131   1.538   2.259  11.867  0.1060  0.0301 -0.0816
 6613W        W10132   1.400   5.455   1.151 -0.1445  0.0310 -0.1802
 6614W        W10133   0.136   6.158   1.285  0.1458 -0.0529  0.2325
 6615W        W10134   6.958   2.943   2.959 -0.2321  0.2296 -0.1502
 6616W        W10135   0.577   5.012  11.411  0.0983  0.0514  0.0092
 6617W        W10136   2.235   7.148  11.817 -0.0200 -0.1307  0.3371
 6618W        W10137   7.040   9.129   2.280 -0.2994  0.0836 -0.0448
 6619W        W10138   3.298   0.591   3.517  0.0242  0.1586 -0.4110
 6620W        W10139   1.533   7.255   9.106 -0.0602  0.0583  0.2827
 6621W        W10140   9.022   1.234  10.623 -0.1727 -0.1133 -0.2685
 6622W        W10141   8.845   5.827   4.187 -0.0129  0.0012 -0.1896
 6623W        W10142   3.065   2.586   8.917  0.0803 -0.0106  0.3159
 6624W        W10143   0.769   1.517   9.123 -0.1419  0.2014  0.0669
 6625W        W10144   1.794   8.010  12.019 -0.0788 -0.0844  0.2845
 6626W        W10145   3.385   9.303   9.109 -0.3093 -0.0080  0.1690
 6627W        W10146   9.219   5.558  11.070 -0.0989  0.0483  0.1911
 6628W        W10147   1.896   9.279  11.438  0.0627 -0.0081 -0.0237
 6629W        W10148   4.356   1.080   8.806 -0.2259  0.1117  0.0514
 6630W        W10149   8.585   3.439   2.998 -0.0094 -0.3316 -0.1250
 6631W        W10150   2.146   1.695   1.920  0.0771  0.1526  0.0738
 6632W        W10151   6.059   0.498  10.630  0.1560  0.1472  0.0590
 6633W        W10152   8.227   5.056  10.502 -0.1221  0.1134 -0.2148
 6634W        W10153   7.461   1.045  12.401  0.1704 -0.2300  0.5078
 6635W        W10154   1.223   0.990  12.042  0.0935 -0.1239 -0.3193
 6636W        W10155   2.171   5.815   1.012 -0.2398 -0.0019  0.1660
 6637W        W10156   2.541   1.437   3.944  0.3935 -0.3699 -0.2325
 6638W        W10157   2.739   9.340  11.095  0.4741 -0.2159  0.0910
 6639W        W10158   8.323   0.933   1.320  0.1063 -0.0741 -0.0827
 6640W        W10159   1.501   4.681   1.669  0.0505 -0.0797  0.1263
 6641W        W10160   5.323   4.226   3.576 -0.3063 -0.2282 -0.1206
 6642W        W10161   8.553   1.198   2.714 -0.5525 -0.0534  0.3209
 6643W        W10162   1.122   2.959   9.701  0.0028  0.0094 -0.1039
 6644W        W10163   3.918   7.445   1.013  0.0460 -0.1958 -0.3472
 6645W        W10164   9.207   4.136   8.735 -0.0714  0.4395 -0.5365
 6646W        W10165   8.307   4.707   3.550  0.2308  0.0320  0.3243
 6647W        W10166   7.612   1.397   9.542 -0.1601 -0.1602 -0.1864
 6648W        W10167   6.190   3.955   2.796 -0.3682  0.1025  0.0827
 6649W        W10168   6.304   2.622   3.047 -0.3685 -0.0463  0.3570
 6650W        W10169   1.055   5.881   2.018  0.0975 -0.3138  0.0630
 6651W        W10170   6.360   7.918  10.446  0.2367  0.0284 -0.3920
 6652W        W10171   7.803   3.567   1.870  0.4447 -0.0076  0.2160
 6653W        W10172   7.518   4.298   1.656  0.0234  0.2572 -0.0973
 6654W        W10173   6.668   5.397   1.672 -0.0423 -0.0697  0.3152
 6655W        W10174   9.452   7.373   9.556  0.0665 -0.0820  0.4305
 6656W        W10175   1.558   8.578   9.169 -0.1478  0.1239  0.0728
 6657W        W10176   0.930   9.463  10.781 -0.0497  0.0155 -0.1252
 6658W        W10177   9.469   9.154  10.004  0.3972  0.0110  0.2098
 6659W        W10178   5.145   0.838  10.349  0.0443  0.0872 -0.0636
 6660W        W10179   0.643   1.491   3.444 -0.1930  0.0160  0.2685
 6661W        W10180   6.724   0.564   0.237 -0.4328 -0.1060  0.0147
 6662W        W10181   5.783   2.262   0.323 -0.0461 -0.1186  0.4384
 6663W        W10182   6.234   0.560   3.370 -0.0174 -0.0736  0.0647
 6664W        W10183   7.702   7.508   9.217  0.0821 -0.3720 -0.2185
 6665W        W10184   3.145   1.655   9.145 -0.0123 -0.0556  0.1861
 6666W        W10185   8.826   7.840   2.269 -0.0976 -0.2420  0.1443
 6667W        W10186   9.260   6.702   2.528 -0.1603 -0.3744  0.0460
 6668W        W10187   2.247   7.711  10.911  0.0050  0.0184 -0.0125
 6669W        W10188   5.885   1.787   2.566 -0.4213 -0.2613  0.0370
 6670W        W10189   9.438   4.725  10.586  0.0092 -0.0038 -0.1060
 6671W        W10190   8.330   5.007   3.064 -0.1223  0.0787 -0.1705
 6672W        W10191   1.981   1.344   2.326  0.2730  0.1447  0.0068
 6673W        W10192   3.664   3.486   0.244 -0.2675 -0.1352  0.1777
 6674W        W10193   2.996   2.850  10.200  0.1060  0.5044  0.0854
 6675W        W10194   9.509   2.650   9.636  0.3061  0.0650 -0.1707
 6676W        W10195   6.838   2.818  10.003 -0.1882 -0.1270 -0.2447
 6677W        W10196   6.809   4.153  10.759  0.2136 -0.0536 -0.2887
 6678W        W10197   5.008   0.909   0.395  0.1203  0.3695 -0.0681
 6679W        W10198   9.158   5.201  10.678  0.3376  0.1782 -0.1619
 6680W        W10199   0.188   9.690   1.155  0.0630  0.5325 -0.0806
 6681W        W10200   5.164   6.124   0.993  0.0964  0.1334  0.4234
 6682W        W10201   0.330   6.265   1.701 -0.2819  0.3356 -0.1649
 6683W        W10202   2.405   0.834  12.146  0.1730  0.0119  0.1679
 6684W        W10203   7.203   3.824   8.684 -0.0903  0.0217  0.1433
 6685W        W10204   6.312   0.113  12.093  0.1215 -0.1022 -0.3999
 6686W        W10205   5.528   0.318  10.261 -0.1882 -0.1090  0.0270
 6687W        W10206   7.036   2.958   1.644  0.0290  0.1042  0.3545
 6688W        W10207   2.796   8.298   4.148  0.3999 -0.0521 -0.1013
 6689W        W10208   0.786   9.560   8.817 -0.0442  0.1558  0.1918
 6690W        W10209   8.729   8.003  10.461  0.1966  0.4034 -0.1457
 6691W        W10210   5.392   2.445  11.764 -0.1062  0.0535  0.0318
 6692W        W10211   7.468   7.144  12.416  0.1055 -0.0403  0.3322
 6693W        W10212   3.622   3.288   2.295 -0.0546 -0.2573  0.0237
 6694W        W10213   1.518   5.042   2.053 -0.1187 -0.1565 -0.0030
 6695W        W10214   3.851   5.544   9.421  0.1374 -0.0270 -0.1885
 6696W        W10215   3.986   2.908   8.441 -0.0305  0.3472  0.0392
 6697W        W10216   4.559   3.378  11.012  0.0583  0.0884  0.0400
 6698W        W10217   8.803   4.354   8.903  0.2993 -0.1232  0.1074
 6699W        W10218   9.050   7.607   3.966 -0.1958  0.0072  0.0842
 6700W        W10219   9.050   8.676  12.464  0.0066  0.2601 -0.3585
 6701W        W10220   9.361   0.972  11.837  0.1745  0.2148  0.0541
 6702W        W10221   8.902   0.804   9.607 -0.0767  0.2015 -0.1074
 6703W        W10222   9.687   0.721   9.985 -0.0939 -0.1327 -0.0345
 6704W        W10223   3.314   2.870   9.739 -0.3767  0.1381  0.1685
 6705ION    NA+10224   3.619   8.948   8.200  0.1078 -0.2370  0.1165
 6706ION    NA+10225   8.345   4.793   4.089  0.1955  0.3140  0.2770
 6707ION    NA+10226   9.436   8.132   1.992 -0.0457 -0.4904  0.2856
 6708ION    NA+10227   8.500   7.568  11.424  0.0997 -0.1771  0.4878
 6709ION    NA+10228   2.994   0.639   8.242  0.3689 -0.0297  0.1998
 6710ION    NA+10229   5.190   4.759   2.599 -0.0964  0.0928  0.1357
 6711ION    NA+10230   4.330   6.490   4.304 -0.1551  0.0495  0.2315
 6712ION    NA+10231   2.753   6.259   1.097  0.2517  0.0526 -0.0241
 6713ION    NA+10232   0.204   1.655   0.429  0.3693  0.1858  0.2293
 6714ION    NA+10233   9.245   6.844  12.508 -0.1308 -0.1482 -0.0854
 6715ION    NA+10234   4.794   7.463   4.811  0.1186  0.1802  0.0664
 6716ION    NA+10235   1.515   6.433   3.428  0.0938 -0.1076  0.0737
 6717ION    NA+10236   7.946   6.071   1.352 -0.0892  0.2045 -0.0093
 6718ION    NA+10237   7.229   5.625  10.079 -0.1132 -0.3470  0.0598
 6719ION    NA+10238   4.028   4.457   8.433  0.3511 -0.1290  0.2083
 6720ION    NA+10239   3.809   6.893   3.410  0.2451 -0.0852  0.2603
 6721ION    NA+10240   5.791   6.121   2.585 -0.0679 -0.0357  0.2211
 6722ION    NA+10241   3.368   5.419   4.816 -0.1501  0.0917 -0.1296
 6723ION    NA+10242   1.268   1.441   0.804 -0.1774 -0.0107 -0.0127
 6724ION    NA+10243   3.870   0.336  12.510  0.1798 -0.0996  0.2215
 6725ION    NA+10244   1.982   4.752   3.152  0.0562 -0.0075  0.1247
 6726ION    NA+10245   2.518   7.101   4.421  0.1780  0.0388 -0.1856
 6727ION    NA+10246   4.071   9.509   8.494 -0.2903  0.0248  0.5419
 6728ION    NA+10247   4.982   3.136   9.145  0.0019 -0.0453 -0.0687
 6729ION    NA+10248   6.653   4.109   0.677 -0.0825  0.1559  0.1142
 6730ION    NA+10249   6.255   0.035   8.897  0.0707  0.0034  0.1290
 6731ION    NA+10250   4.823   3.558   4.385 -0.2193 -0.0100 -0.0339
 6732ION    NA+10251   2.118   3.751  10.386  0.1615 -0.1892 -0.1038
 6733ION    NA+10252   8.153   6.762  10.888  0.0672 -0.4159 -0.0134
 6734ION    NA+10253   2.817   3.737   0.578  0.0777 -0.3163 -0.2490
 6735ION    NA+10254   1.255   4.393   8.094 -0.2160  0.0110 -0.1028
 6736ION    NA+10255   1.332   2.294   8.510  0.2579  0.0923 -0.2440
 6737ION    NA+10256   8.816   0.361  11.001  0.1300  0.1320  0.1903
 6738ION    NA+10257   6.508   1.467   8.009 -0.1482 -0.0908  0.0243
 6739ION    NA+10258   7.484   8.086   8.522 -0.1849 -0.0484  0.2129
 6740ION    NA+10259   4.146   8.037  10.718  0.1580  0.0891  0.0204
 6741ION    NA+10260   0.164   1.440   3.460 -0.1110 -0.1189  0.1629
 6742ION    NA+10261   6.392   6.651  10.062  0.1603 -0.3860  0.1137
 6743ION    NA+10262   0.331   3.216   8.366 -0.1173 -0.1876  0.1905
 6744ION    NA+10263   3.870   8.721   4.431  0.1112  0.0481  0.3728
 6745ION    NA+10264   7.908   8.452  10.478 -0.2287 -0.3260  0.1683
 6746ION    NA+10265   4.905   7.047   1.449  0.3121  0.0644  0.0826
 6747ION    NA+10266   9.189   3.128   3.563 -0.0699 -0.1411  0.1235
 6748ION    NA+10267   1.681   3.651   3.253  0.0415 -0.1938  0.0080
 6749ION    NA+10268   4.641   1.294   2.857  0.0946  0.4681  0.1600
 6750ION    NA+10269   9.541   4.952   0.424 -0.2027 -0.1229 -0.1881
 6751ION    NA+10270   5.105   1.515   8.137 -0.3454  0.0829  0.0616
 6752ION    NA+10271   1.273   4.288  10.061  0.0683 -0.0481 -0.2793
 6753ION    NA+10272   0.731   1.464   1.511  0.0412  0.2019  0.1049
 6754ION    NA+10273   1.982   9.319   4.032  0.1002  0.3592  0.4176
 6755ION    NA+10274   2.438   3.185  12.068  0.0399 -0.0202  0.1247
 6756ION    NA+10275   8.862   4.259   8.368  0.1306 -0.0559 -0.3373
 6757ION    NA+10276   3.416   8.348  11.213  0.0530  0.0395 -0.0138
 6758ION    NA+10277   8.049   2.082  12.179 -0.1000  0.0279  0.2419
 6759ION    NA+10278   0.066   2.878   1.389 -0.0801 -0.4285 -0.0881
 6760ION    NA+10279   1.687   3.480   4.619  0.2394  0.0541 -0.1738
 6761ION    NA+10280   0.950   9.096   0.047  0.0415 -0.2705  0.1367
 6762ION    NA+10281   0.422   0.694  11.598  0.0636 -0.3259  0.1307
 6763ION    NA+10282   5.092   6.404   8.132 -0.0174  0.0921 -0.3600
 6764ION    NA+10283   6.428   2.645   9.644  0.0561 -0.2262 -0.2069
 6765ION    NA+10284   3.625   4.662  10.107  0.3679  0.1418 -0.1322
 6766ION    NA+10285   0.245   2.318   9.567  0.1683 -0.1097 -0.3683
 6767ION    NA+10286   4.610   1.572   1.253 -0.1976 -0.4129 -0.0632
 6768ION    NA+10287   4.517   5.036   2.079 -0.1935  0.2659 -0.2727
 6769ION    NA+10288   2.860   2.368   2.997  0.0270  0.1878  0.1298
 6770ION    NA+10289   4.594   5.571   1.961 -0.2089 -0.4425 -0.0249
 6771ION    NA+10290   6.725   5.198  12.122 -0.3299  0.1736  0.2091
 6772ION    NA+10291   3.084   2.495   8.440  0.0465  0.5449  0.0246
 6773ION    NA+10292   3.491   2.193   1.565 -0.1546 -0.2158  0.2013
 6774ION    NA+10293   3.481   6.255   4.710 -0.2735 -0.1349  0.1222
 6775ION    NA+10294   2.455   3.380   9.232 -0.0043  0.1213 -0.0882
 6776ION    CL-10295   7.541   1.484  12.043  0.0178  0.0116 -0.0228
 6777ION    CL-10296   4.396   4.777   8.799  0.2289  0.3666 -0.3459
 6778ION    CL-10297   5.237   2.488   9.236 -0.1313  0.2701 -0.0350
 6779ION    CL-10298   2.372   4.450   3.342 -0.0142  0.0169  0.0075
 6780ION    CL-10299   0.964   4.015   1.617 -0.0134 -0.1069  0.3662
 6781ION    CL-10300   4.442   5.170   4.139 -0.3439  0.0348 -0.1302
 6782ION    CL-10301   4.110   5.320   2.140 -0.1860 -0.0998  0.0401
 6783ION    CL-10302   8.883   8.821   1.457  0.0208 -0.2562 -0.1371
 6784ION    CL-10303   8.693   8.057  11.437 -0.1760 -0.0739 -0.0132
 6785ION    CL-10304   1.155   1.152   1.167  0.2528  0.1448  0.1085
 6786ION    CL-10305   1.779   4.229   9.332  0.0510 -0.0206 -0.0521
 6787ION    CL-10306   0.840   9.417  11.745 -0.0195 -0.1233  0.3758
 6788ION    CL-10307   2.875   9.309   9.257 -0.1785 -0.5792 -0.0265
 6789ION    CL-10308   2.345   0.775   0.186 -0.0242 -0.0262  0.0051
 6790ION    CL-10309   3.131   5.502  11.541 -0.1172 -0.0020  0.2612
 6791ION    CL-10310   1.713   3.806   3.707 -0.2877  0.0874  0.1607
 6792ION    CL-10311   1.987   3.405   9.022  0.0657 -0.1260  0.2267
 6793ION    CL-10312   4.364   6.088   2.103 -0.4620 -0.4219 -0.0079
 6794ION    CL-10313   4.977   6.181   3.898 -0.0379  0.1097  0.4934
 6795ION    CL-10314   0.233   5.130   0.683  0.1507  0.0258 -0.1121
 6796ION    CL-10315   9.355   1.652   0.515 -0.0315  0.0294  0.0395
 6797ION    CL-10316   6.370   6.905  10.623 -0.0071 -0.2300  0.0854
 6798ION    CL-10317   9.249   1.859   3.460 -0.2472 -0.1484  0.1706
 6799ION    CL-10318   8.956   9.387  10.885  0.1473  0.3128 -0.1628
 6800ION    CL-10319   3.565   4.458   9.611 -0.2515 -0.1315 -0.1488
 6801ION    CL-10320   1.058   3.015   0.244 -0.0500  0.0901 -0.2671
 6802ION    CL-10321   0.709   1.821   1.976  0.0136 -0.2631  0.0527
 6803ION    CL-10322   4.868   3.372   3.632 -0.1926 -0.0800  0.3669
 6804ION    CL-10323   2.700   3.210  11.625 -0.1096 -0.1130 -0.0613
 6805ION    CL-10324   8.369   7.167  10.645 -0.1621  0.2703  0.1505
 6806ION    CL-10325   3.446   6.997   8.874  0.0800  0.0289 -0.1852
 6807ION    CL-10326   6.746   6.735   3.318  0.0182 -0.0210  0.1479
 6808ION    CL-10327   7.522   0.588   1.037  0.0312 -0.0874  0.0276
 6809ION    CL-10328   4.960   7.069   0.849  0.1146  0.1683  0.1909
 6810ION    CL-10329   1.685   3.975  10.246 -0.0042 -0.1951  0.0221
 6811ION    CL-10330   3.981   6.806   3.918 -0.0367 -0.0625 -0.1556
 6812ION    CL-10331   1.191   4.731   3.758  0.2031  0.1023 -0.0437
 6813ION    CL-10332   9.588   2.504   1.692 -0.2786  0.0411 -0.0672
 6814ION    CL-10333   4.092   1.653   3.884 -0.2442  0.0320 -0.2292
 6815ION    CL-10334   0.942   1.001   3.313 -0.1387  0.1032  0.1719
 6816ION    CL-10335   3.770   5.522   9.945 -0.0882 -0.1825  0.0501
 6817ION    CL-10336   5.237   3.589   9.405  0.0489  0.0259 -0.1530
 6818ION    CL-10337   6.004   5.978   3.019 -0.1605  0.1827  0.0903
 6819ION    CL-10338   1.749   9.206  12.497 -0.0766  0.0644  0.1425
 6820ION    CL-10339   3.951   0.045  12.082 -0.0147  0.0191  0.0503
 6821ION    CL-10340   1.176   2.099   0.269 -0.3106 -0.0112  0.2989
 6822ION    CL-10341   3.996   1.330   1.058 -0.0191 -0.1374  0.1306
 6823ION    CL-10342   2.116   2.693   4.237  0.0208 -0.3751  0.0762
 6824ION    CL-10343   7.825   3.232   9.463 -0.1982  0.1315  0.0772
 6825ION    CL-10344   7.615   5.969   0.976  0.2581  0.0444  0.1537
 6826ION    CL-10345   9.380   3.598   3.646  0.1118  0.0304  0.1220
 6827ION    CL-10346   3.281   8.238   8.904  0.1370  0.2772  0.1499
 6828ION    CL-10347   1.688   0.009   3.523  0.1280  0.2383 -0.1078
 6829ION    CL-10348   4.191   2.565   9.397  0.1131 -0.3753  0.2773
 6830ION    CL-10349   4.885   8.560   9.139  0.0552 -0.0390  0.0276
 6831ION    CL-10350   6.169   3.815  11.112  0.0758  0.1828 -0.2664
 6832ION    CL-10351   3.112   1.829   1.552 -0.2534 -0.0310 -0.0736
 6833ION    CL-10352   3.178   6.657   1.209 -0.0702 -0.3478  0.1682
 6834ION    CL-10353   6.920   2.487   9.608 -0.1787 -0.1836  0.3981
 6835ION    CL-10354   4.026   8.879   4.006  0.2265 -0.0905 -0.1279
 6836ION    CL-10355   9.075   4.907   0.727  0.0151  0.3393 -0.1475
 6837ION    CL-10356   3.669   7.414   3.559  0.1711 -0.0716 -0.3751
 6838ION    CL-10357   5.753   8.484   9.723 -0.2593 -0.3023 -0.3654
 6839ION    CL-10358   3.947   8.324  11.196 -0.1247 -0.0943  0.3024
 6840ION    CL-10359   8.538   6.334   9.053 -0.1646  0.1101 -0.0163
 6841ION    CL-10360   7.851   8.475   9.972  0.2709  0.0947  0.3335
 6842ION    CL-10361   4.781   4.746   2.319  0.0672  0.3083 -0.2253
 6843ION    CL-10362   3.132   6.138   3.712  0.0800 -0.1407 -0.0106
 6844ION    CL-10363   7.735   3.779   2.972 -0.2993 -0.1992 -0.5959
 6845ION    CL-10364   1.350   7.937   9.895 -0.0436  0.0877 -0.0079
 6846ION    CL-10365   1.965   2.937  11.945  0.0626  0.1083  0.3549
   9.71019   9.71019  12.52012
