Protein in INSANE! Membrane UpperLeaflet>POPC=1.0 LowerLeaflet>POPC=1.0
12676
    1AU     AUC    1   5.754   5.848   6.007
    1AU     AUC    2   5.992   5.836   5.851
    1AU     AUC    3   6.002   5.836   6.154
    1AU     AUC    4   5.506   5.862   5.861
    1AU     AUC    5   5.515   5.864   6.164
    1AU     AUC    6   5.614   6.101   6.008
    1AU     AUC    7   5.913   6.085   6.000
    1AU     AUC    8   5.594   5.612   6.011
    1AU     AUC    9   5.897   5.598   6.004
    1AU     AUC   10   5.754   5.696   6.252
    1AU     AUC   11   5.766   6.001   6.250
    1AU     AUC   12   5.743   5.695   5.760
    1AU     AUC   13   5.756   6.001   5.758
    1AU     AUC   14   6.220   5.826   5.706
    1AU     AUC   15   6.236   5.814   6.010
    1AU     AUC   16   6.242   5.826   6.303
    1AU     AUC   17   5.275   5.865   5.729
    1AU     AUC   18   5.268   5.892   6.021
    1AU     AUC   19   5.276   5.882   6.316
    1AU     AUC   20   5.488   6.347   6.006
    1AU     AUC   21   5.781   6.332   5.997
    1AU     AUC   22   6.075   6.310   5.999
    1AU     AUC   23   5.428   5.383   6.015
    1AU     AUC   24   5.731   5.363   6.012
    1AU     AUC   25   6.026   5.337   5.995
    1AU     AUC   26   5.764   5.547   6.475
    1AU     AUC   27   5.769   5.844   6.504
    1AU     AUC   28   5.777   6.153   6.486
    1AU     AUC   29   5.732   5.551   5.522
    1AU     AUC   30   5.744   5.847   5.507
    1AU     AUC   31   5.752   6.134   5.509
    1AU     AUC   32   5.999   5.685   6.388
    1AU     AUC   33   6.000   5.986   6.407
    1AU     AUC   34   5.973   5.683   5.610
    1AU     AUC   35   5.991   5.989   5.610
    1AU     AUC   36   5.517   5.700   6.409
    1AU     AUC   37   5.529   6.008   6.401
    1AU     AUC   38   5.501   5.703   5.624
    1AU     AUC   39   5.507   6.001   5.614
    1AU     AUC   40   6.153   6.070   5.853
    1AU     AUC   41   6.157   6.071   6.150
    1AU     AUC   42   5.364   6.111   5.851
    1AU     AUC   43   5.370   6.109   6.163
    1AU     AUC   44   6.130   5.583   5.841
    1AU     AUC   45   6.142   5.585   6.151
    1AU     AUC   46   5.354   5.627   5.868
    1AU     AUC   47   5.358   5.628   6.159
    1AU     AUC   48   5.629   6.262   6.244
    1AU     AUC   49   5.935   6.234   6.241
    1AU     AUC   50   5.583   5.468   6.251
    1AU     AUC   51   5.896   5.435   6.237
    1AU     AUC   52   5.621   6.246   5.751
    1AU     AUC   53   5.925   6.243   5.745
    1AU     AUC   54   5.580   5.464   5.764
    1AU     AUC   55   5.871   5.440   5.755
    1AU    AUSL   56   6.227   5.848   6.565
    1AU    AUSL   57   5.992   5.360   6.494
    1AU     AUL   58   6.413   5.537   6.577
    1AU       S   59   6.121   4.995   6.698
    1AU     LIG   60   6.110   4.634   6.963
    1AU     LIG   61   6.384   4.384   7.249
    1AU     LIG   62   6.624   4.145   7.585
    1AU     LIG   63   6.616   3.828   7.948
    1AU     LIG   64   6.740   3.580   8.341
    1AU     LIG   65   7.103   3.480   8.622
    1AU       S   66   6.403   5.840   7.004
    1AU     LIG   67   6.519   5.694   7.432
    1AU     LIG   68   6.696   5.395   7.768
    1AU     LIG   69   7.017   5.280   8.120
    1AU     LIG   70   7.370   5.321   8.454
    1AU     LIG   71   7.602   5.553   8.807
    1AU     LIG   72   7.933   5.568   9.144
    1AU    AUSL   73   5.886   5.573   6.668
    1AU    AUSL   74   5.556   6.028   6.642
    1AU     AUL   75   5.796   5.868   6.798
    1AU       S   76   6.134   5.586   7.093
    1AU     LIG   77   6.288   5.224   7.363
    1AU     LIG   78   6.341   5.005   7.792
    1AU     LIG   79   6.298   4.857   8.261
    1AU     LIG   80   6.324   4.767   8.742
    1AU     LIG   81   6.436   4.679   9.196
    1AU     LIG   82   6.590   4.857   9.604
    1AU       S   83   5.349   6.067   7.101
    1AU     LIG   84   5.235   6.066   7.545
    1AU     LIG   85   5.109   5.822   7.931
    1AU     LIG   86   5.068   5.777   8.403
    1AU     LIG   87   5.079   6.007   8.834
    1AU     LIG   88   4.941   6.259   9.222
    1AU     LIG   89   4.674   6.436   9.580
    1AU    AUSL   90   5.977   6.049   6.660
    1AU    AUSL   91   6.280   6.092   6.434
    1AU     AUL   92   6.023   5.811   6.635
    1AU       S   93   6.169   6.059   7.104
    1AU     LIG   94   6.206   6.392   7.424
    1AU     LIG   95   6.412   6.543   7.816
    1AU     LIG   96   6.475   6.699   8.256
    1AU     LIG   97   6.524   6.804   8.725
    1AU     LIG   98   6.610   6.866   9.195
    1AU     LIG   99   6.571   6.814   9.665
    1AU       S  100   6.639   6.149   6.670
    1AU     LIG  101   7.037   6.165   6.872
    1AU     LIG  102   7.211   6.356   7.263
    1AU     LIG  103   7.457   6.659   7.550
    1AU     LIG  104   7.788   6.766   7.898
    1AU     LIG  105   8.205   6.845   8.160
    1AU     LIG  106   8.591   6.998   8.421
    1AU    AUSL  107   6.170   5.884   5.439
    1AU    AUSL  108   6.081   6.171   5.490
    1AU     AUL  109   5.867   6.237   5.270
    1AU       S  110   6.370   5.844   5.032
    1AU     LIG  111   6.621   5.566   4.778
    1AU     LIG  112   6.684   5.374   4.363
    1AU     LIG  113   6.847   5.388   3.900
    1AU     LIG  114   7.263   5.450   3.627
    1AU     LIG  115   7.631   5.604   3.332
    1AU     LIG  116   7.780   5.737   2.886
    1AU       S  117   6.400   6.347   5.188
    1AU     LIG  118   6.655   6.364   4.795
    1AU     LIG  119   6.877   6.615   4.460
    1AU     LIG  120   7.138   6.877   4.181
    1AU     LIG  121   7.273   7.147   3.831
    1AU     LIG  122   7.488   7.464   3.586
    1AU     LIG  123   7.430   7.910   3.478
    1AU    AUSL  124   5.979   5.682   5.366
    1AU    AUSL  125   6.199   5.579   5.554
    1AU     AUL  126   6.442   5.753   5.552
    1AU       S  127   6.395   5.309   5.156
    1AU     LIG  128   6.619   5.037   4.850
    1AU     LIG  129   6.833   4.632   4.725
    1AU     LIG  130   7.130   4.390   4.446
    1AU     LIG  131   7.496   4.455   4.138
    1AU     LIG  132   7.896   4.501   3.877
    1AU     LIG  133   8.220   4.267   3.605
    1AU       S  134   6.075   5.613   4.949
    1AU     LIG  135   6.207   5.279   4.651
    1AU     LIG  136   6.269   5.114   4.218
    1AU     LIG  137   6.396   5.114   3.758
    1AU     LIG  138   6.387   4.987   3.289
    1AU     LIG  139   6.451   4.985   2.810
    1AU     LIG  140   6.694   4.992   2.383
    1AU    AUSL  141   5.925   5.969   5.344
    1AU    AUSL  142   5.573   5.698   5.328
    1AU     AUL  143   5.743   5.969   5.227
    1AU       S  144   5.397   5.612   4.923
    1AU     LIG  145   5.361   5.385   4.488
    1AU     LIG  146   5.202   5.157   4.086
    1AU     LIG  147   5.050   4.857   3.732
    1AU     LIG  148   5.019   4.744   3.264
    1AU     LIG  149   4.795   4.908   2.874
    1AU     LIG  150   4.658   5.120   2.459
    1AU       S  151   6.130   5.846   4.927
    1AU     LIG  152   6.262   5.750   4.463
    1AU     LIG  153   6.365   5.588   4.015
    1AU     LIG  154   6.473   5.579   3.548
    1AU     LIG  155   6.534   5.816   3.141
    1AU     LIG  156   6.675   6.180   2.872
    1AU     LIG  157   6.728   6.402   2.463
    1AU    AUSL  158   5.360   5.836   6.595
    1AU    AUSL  159   5.538   6.302   6.505
    1AU     AUL  160   5.729   6.145   6.769
    1AU       S  161   5.139   5.882   6.989
    1AU     LIG  162   4.879   5.746   7.367
    1AU     LIG  163   4.746   5.489   7.765
    1AU     LIG  164   4.519   5.318   8.176
    1AU     LIG  165   4.184   5.300   8.553
    1AU     LIG  166   3.977   5.458   8.972
    1AU     LIG  167   3.617   5.729   9.163
    1AU       S  168   5.378   6.542   6.830
    1AU     LIG  169   5.324   6.568   7.295
    1AU     LIG  170   5.084   6.818   7.627
    1AU     LIG  171   4.875   6.928   8.057
    1AU     LIG  172   4.777   7.224   8.436
    1AU     LIG  173   4.576   7.585   8.701
    1AU     LIG  174   4.344   8.005   8.794
    1AU    AUSL  175   5.602   5.695   6.678
    1AU    AUSL  176   5.254   5.613   6.432
    1AU     AUL  177   5.324   5.465   6.717
    1AU       S  178   4.839   5.285   6.489
    1AU     LIG  179   4.425   5.048   6.470
    1AU     LIG  180   4.060   4.811   6.679
    1AU     LIG  181   3.879   4.563   7.055
    1AU     LIG  182   3.696   4.296   7.409
    1AU     LIG  183   3.386   4.185   7.757
    1AU     LIG  184   3.109   4.305   8.134
    1AU       S  185   5.407   5.763   7.141
    1AU     LIG  186   5.307   5.530   7.548
    1AU     LIG  187   5.186   5.297   7.955
    1AU     LIG  188   4.958   5.029   8.279
    1AU     LIG  189   4.855   4.758   8.660
    1AU     LIG  190   4.863   4.717   9.133
    1AU     LIG  191   4.733   4.920   9.537
    1AU    AUSL  192   5.330   5.776   5.454
    1AU    AUSL  193   5.429   5.492   5.507
    1AU     AUL  194   5.620   5.371   5.334
    1AU       S  195   5.109   5.684   5.055
    1AU     LIG  196   4.908   5.564   4.644
    1AU     LIG  197   4.767   5.404   4.207
    1AU     LIG  198   4.600   5.175   3.802
    1AU     LIG  199   4.244   5.090   3.463
    1AU     LIG  200   3.988   5.198   3.062
    1AU     LIG  201   3.839   5.526   2.739
    1AU       S  202   5.117   5.213   5.271
    1AU     LIG  203   4.801   4.863   5.160
    1AU     LIG  204   4.427   4.575   5.080
    1AU     LIG  205   4.222   4.265   4.767
    1AU     LIG  206   4.191   4.098   4.312
    1AU     LIG  207   4.294   3.827   3.917
    1AU     LIG  208   4.172   3.478   3.607
    1AU    AUSL  209   5.508   5.981   5.384
    1AU    AUSL  210   5.264   6.063   5.539
    1AU     AUL  211   5.578   6.191   5.280
    1AU       S  212   4.984   6.230   5.221
    1AU     LIG  213   4.644   6.450   4.960
    1AU     LIG  214   4.533   6.722   4.566
    1AU     LIG  215   4.466   6.865   4.091
    1AU     LIG  216   4.155   7.033   3.768
    1AU     LIG  217   3.696   7.156   3.713
    1AU     LIG  218   3.408   7.505   3.594
    1AU       S  219   5.307   5.881   4.955
    1AU     LIG  220   5.275   5.896   4.495
    1AU     LIG  221   5.177   5.700   4.078
    1AU     LIG  222   5.083   5.823   3.617
    1AU     LIG  223   5.123   6.081   3.203
    1AU     LIG  224   5.113   6.231   2.741
    1AU     LIG  225   4.927   6.356   2.310
    1AU    AUSL  226   6.351   6.209   5.971
    1AU    AUSL  227   6.319   6.059   5.621
    1AU     AUL  228   6.198   6.526   5.866
    1AU       S  229   6.635   6.197   5.339
    1AU     LIG  230   7.038   6.240   5.109
    1AU     LIG  231   7.232   6.324   4.688
    1AU     LIG  232   7.495   6.534   4.354
    1AU     LIG  233   7.919   6.555   4.129
    1AU     LIG  234   8.287   6.815   3.980
    1AU     LIG  235   8.414   7.073   3.587
    1AU       S  236   6.780   6.373   5.998
    1AU     LIG  237   7.246   6.469   6.117
    1AU     LIG  238   7.741   6.491   6.029
    1AU     LIG  239   8.223   6.640   5.992
    1AU     LIG  240   8.608   6.984   6.001
    1AU     LIG  241   8.970   7.350   6.006
    1AU     LIG  242   9.217   7.754   6.159
    1AU    AUSL  243   6.428   5.944   5.870
    1AU    AUSL  244   6.446   5.729   6.083
    1AU     AUL  245   6.654   5.700   5.739
    1AU       S  246   6.879   6.145   5.863
    1AU     LIG  247   7.374   6.088   5.806
    1AU     LIG  248   7.860   6.081   5.731
    1AU     LIG  249   8.337   6.094   5.652
    1AU     LIG  250   8.808   6.090   5.668
    1AU     LIG  251   9.242   6.306   5.660
    1AU     LIG  252   9.657   6.564   5.509
    1AU       S  253   6.863   5.453   6.172
    1AU     LIG  254   7.120   5.080   6.364
    1AU     LIG  255   7.551   4.831   6.317
    1AU     LIG  256   8.010   4.641   6.242
    1AU     LIG  257   8.456   4.432   6.263
    1AU     LIG  258   8.862   4.325   6.481
    1AU     LIG  259   9.189   4.412   6.828
    1AU    AUSL  260   6.408   6.017   6.171
    1AU    AUSL  261   6.213   6.281   6.244
    1AU     AUL  262   6.270   6.468   6.150
    1AU       S  263   6.612   6.354   6.540
    1AU     LIG  264   6.859   6.644   6.841
    1AU     LIG  265   7.155   6.860   7.162
    1AU     LIG  266   7.468   7.185   7.351
    1AU     LIG  267   7.681   7.646   7.368
    1AU     LIG  268   7.899   8.093   7.453
    1AU     LIG  269   8.091   8.498   7.626
    1AU       S  270   6.843   6.103   6.185
    1AU     LIG  271   7.264   5.986   6.308
    1AU     LIG  272   7.729   6.017   6.228
    1AU     LIG  273   8.193   6.133   6.145
    1AU     LIG  274   8.684   6.151   6.158
    1AU     LIG  275   9.157   6.283   6.189
    1AU     LIG  276   9.503   6.545   6.421
    1AU    AUSL  277   5.251   6.395   6.033
    1AU    AUSL  278   5.319   6.108   6.495
    1AU     AUL  279   5.111   6.130   6.298
    1AU       S  280   5.078   6.347   6.799
    1AU     LIG  281   4.885   6.315   7.243
    1AU     LIG  282   4.668   6.517   7.644
    1AU     LIG  283   4.391   6.744   7.990
    1AU     LIG  284   4.007   6.819   8.291
    1AU     LIG  285   3.581   7.051   8.391
    1AU     LIG  286   3.186   7.290   8.536
    1AU       S  287   4.753   6.499   6.029
    1AU     LIG  288   4.601   6.962   6.122
    1AU     LIG  289   4.341   7.390   6.115
    1AU     LIG  290   3.985   7.739   6.147
    1AU     LIG  291   3.535   7.930   6.060
    1AU     LIG  292   3.093   8.156   6.147
    1AU     LIG  293   2.672   8.152   6.424
    1AU    AUSL  294   5.071   6.001   5.796
    1AU    AUSL  295   5.375   6.381   5.763
    1AU     AUL  296   5.142   6.280   5.751
    1AU       S  297   4.639   6.189   5.746
    1AU     LIG  298   4.460   6.578   5.480
    1AU     LIG  299   4.074   6.835   5.305
    1AU     LIG  300   3.562   6.855   5.265
    1AU     LIG  301   3.065   6.913   5.187
    1AU     LIG  302   2.594   6.736   5.145
    1AU     LIG  303   2.135   6.910   5.129
    1AU       S  304   4.961   6.554   5.377
    1AU     LIG  305   4.773   6.910   5.135
    1AU     LIG  306   4.794   7.225   4.780
    1AU     LIG  307   4.584   7.655   4.785
    1AU     LIG  308   4.435   8.067   4.578
    1AU     LIG  309   4.223   8.458   4.412
    1AU     LIG  310   3.864   8.788   4.353
    1AU    AUSL  311   5.057   5.935   6.103
    1AU    AUSL  312   5.054   5.737   5.893
    1AU     AUL  313   5.133   6.147   6.011
    1AU       S  314   4.627   5.616   5.881
    1AU     LIG  315   4.218   5.481   6.232
    1AU     LIG  316   3.719   5.379   6.299
    1AU     LIG  317   3.252   5.205   6.288
    1AU     LIG  318   2.872   5.034   5.994
    1AU     LIG  319   2.391   5.079   5.873
    1AU     LIG  320   1.972   4.983   5.634
    1AU       S  321   4.610   6.098   6.117
    1AU     LIG  322   4.339   6.428   6.346
    1AU     LIG  323   3.940   6.573   6.592
    1AU     LIG  324   3.482   6.701   6.725
    1AU     LIG  325   3.037   6.880   6.817
    1AU     LIG  326   2.586   7.046   6.865
    1AU     LIG  327   2.173   6.814   6.806
    1AU    AUSL  328   6.313   5.402   5.980
    1AU    AUSL  329   6.148   5.585   6.491
    1AU     AUL  330   6.389   5.580   6.299
    1AU       S  331   6.636   5.130   6.104
    1AU     LIG  332   6.848   4.729   6.094
    1AU     LIG  333   7.256   4.523   6.028
    1AU     LIG  334   7.687   4.322   5.996
    1AU     LIG  335   8.133   4.142   5.995
    1AU     LIG  336   8.520   3.916   6.176
    1AU     LIG  337   8.883   3.809   6.519
    1AU       S  338   6.198   5.163   6.817
    1AU     LIG  339   6.542   4.886   7.053
    1AU     LIG  340   6.864   4.555   7.205
    1AU     LIG  341   7.129   4.245   7.458
    1AU     LIG  342   7.493   4.144   7.765
    1AU     LIG  343   7.871   4.144   8.081
    1AU     LIG  344   8.282   4.138   8.320
    1AU    AUSL  345   6.383   5.638   5.823
    1AU    AUSL  346   6.154   5.340   5.724
    1AU     AUL  347   6.517   5.472   5.620
    1AU       S  348   6.746   5.266   6.011
    1AU     LIG  349   7.179   5.048   5.863
    1AU     LIG  350   7.621   4.820   5.808
    1AU     LIG  351   8.044   4.594   5.731
    1AU     LIG  352   8.479   4.398   5.707
    1AU     LIG  353   8.887   4.408   5.481
    1AU     LIG  354   9.254   4.672   5.534
    1AU       S  355   6.371   5.050   5.357
    1AU     LIG  356   6.550   4.638   5.178
    1AU     LIG  357   6.718   4.209   5.023
    1AU     LIG  358   6.879   3.776   4.851
    1AU     LIG  359   7.098   3.319   4.862
    1AU     LIG  360   7.512   3.090   4.743
    1AU     LIG  361   7.948   3.098   4.521
    1AU    AUSL  362   5.170   5.490   5.946
    1AU    AUSL  363   5.210   5.593   5.666
    1AU     AUL  364   5.053   5.825   5.564
    1AU       S  365   4.899   5.336   5.427
    1AU     LIG  366   4.465   5.172   5.423
    1AU     LIG  367   4.119   4.984   5.158
    1AU     LIG  368   3.965   4.700   4.820
    1AU     LIG  369   3.786   4.416   4.500
    1AU     LIG  370   3.423   4.402   4.201
    1AU     LIG  371   3.155   4.464   3.808
    1AU       S  372   4.767   5.381   5.904
    1AU     LIG  373   4.431   5.087   5.950
    1AU     LIG  374   4.005   5.037   6.049
    1AU     LIG  375   3.641   4.855   6.287
    1AU     LIG  376   3.179   4.688   6.240
    1AU     LIG  377   2.752   4.492   6.083
    1AU     LIG  378   2.536   4.088   5.920
    1AU    AUSL  379   5.127   5.659   6.165
    1AU    AUSL  380   5.277   5.394   6.247
    1AU     AUL  381   5.014   5.767   6.332
    1AU       S  382   4.968   5.100   6.266
    1AU     LIG  383   4.719   4.743   6.174
    1AU     LIG  384   4.378   4.521   6.394
    1AU     LIG  385   4.092   4.266   6.695
    1AU     LIG  386   3.837   3.995   7.014
    1AU     LIG  387   3.646   3.632   7.297
    1AU     LIG  388   3.451   3.174   7.336
    1AU       S  389   4.662   5.543   6.026
    1AU     LIG  390   4.181   5.465   5.737
    1AU     LIG  391   3.705   5.389   5.782
    1AU     LIG  392   3.221   5.480   5.868
    1AU     LIG  393   2.830   5.490   6.183
    1AU     LIG  394   2.432   5.277   6.354
    1AU     LIG  395   1.999   5.121   6.502
    1AU    AUSL  396   5.794   6.434   6.391
    1AU    AUSL  397   5.338   6.312   6.293
    1AU     AUL  398   5.440   6.545   6.206
    1AU       S  399   5.190   6.593   6.641
    1AU     LIG  400   4.959   6.805   7.023
    1AU     LIG  401   4.850   7.178   7.313
    1AU     LIG  402   4.664   7.619   7.417
    1AU     LIG  403   4.614   8.107   7.449
    1AU     LIG  404   4.311   8.482   7.483
    1AU     LIG  405   3.863   8.561   7.639
    1AU       S  406   5.731   6.846   6.558
    1AU     LIG  407   5.929   7.119   6.861
    1AU     LIG  408   6.025   7.554   6.999
    1AU     LIG  409   6.109   7.879   7.340
    1AU     LIG  410   6.077   8.137   7.753
    1AU     LIG  411   5.931   8.457   8.085
    1AU     LIG  412   5.951   8.885   8.288
    1AU    AUSL  413   5.703   6.527   6.115
    1AU    AUSL  414   5.903   6.542   5.893
    1AU     AUL  415   5.411   6.619   5.926
    1AU       S  416   5.687   6.990   6.263
    1AU     LIG  417   5.619   7.375   6.532
    1AU     LIG  418   5.670   7.814   6.701
    1AU     LIG  419   5.500   8.253   6.801
    1AU     LIG  420   5.386   8.715   6.919
    1AU     LIG  421   5.345   9.182   7.099
    1AU     LIG  422   5.186   9.615   7.232
    1AU       S  423   5.998   6.997   5.753
    1AU     LIG  424   6.248   7.373   5.564
    1AU     LIG  425   6.412   7.766   5.317
    1AU     LIG  426   6.741   8.148   5.248
    1AU     LIG  427   6.847   8.626   5.221
    1AU     LIG  428   6.889   9.100   5.182
    1AU     LIG  429   6.888   9.572   5.119
    1AU    AUSL  430   5.981   6.499   6.168
    1AU    AUSL  431   6.046   6.269   6.487
    1AU     AUL  432   6.177   6.594   6.406
    1AU       S  433   6.422   6.325   6.773
    1AU     LIG  434   6.659   6.327   7.191
    1AU     LIG  435   6.858   6.620   7.531
    1AU     LIG  436   7.106   6.861   7.877
    1AU     LIG  437   7.239   7.110   8.281
    1AU     LIG  438   7.323   7.507   8.558
    1AU     LIG  439   7.449   7.879   8.839
    1AU       S  440   5.932   7.008   6.272
    1AU     LIG  441   6.131   7.421   6.491
    1AU     LIG  442   6.355   7.833   6.689
    1AU     LIG  443   6.667   8.242   6.733
    1AU     LIG  444   6.939   8.679   6.726
    1AU     LIG  445   6.941   9.143   6.884
    1AU     LIG  446   6.722   9.583   6.865
    1AU    AUSL  447   5.740   5.265   6.400
    1AU    AUSL  448   6.186   5.376   6.275
    1AU     AUL  449   6.076   5.123   6.183
    1AU       S  450   5.654   4.855   6.583
    1AU     LIG  451   5.380   4.540   6.776
    1AU     LIG  452   5.239   4.101   6.733
    1AU     LIG  453   5.298   3.644   6.862
    1AU     LIG  454   5.378   3.274   7.156
    1AU     LIG  455   5.413   3.041   7.589
    1AU     LIG  456   5.492   2.857   8.038
    1AU       S  457   6.402   5.023   6.565
    1AU     LIG  458   6.701   4.717   6.591
    1AU     LIG  459   6.637   4.330   6.794
    1AU     LIG  460   6.781   4.040   7.107
    1AU     LIG  461   7.032   3.737   7.342
    1AU     LIG  462   7.262   3.335   7.393
    1AU     LIG  463   7.616   3.206   7.630
    1AU    AUSL  464   5.539   5.205   6.203
    1AU    AUSL  465   5.468   5.410   6.451
    1AU     AUL  466   5.588   5.400   6.634
    1AU       S  467   5.436   4.818   6.351
    1AU     LIG  468   5.131   4.505   6.337
    1AU     LIG  469   5.090   4.048   6.246
    1AU     LIG  470   5.016   3.594   6.427
    1AU     LIG  471   4.779   3.181   6.598
    1AU     LIG  472   4.610   2.730   6.714
    1AU     LIG  473   4.681   2.264   6.639
    1AU       S  474   5.072   5.101   6.472
    1AU     LIG  475   4.824   4.759   6.675
    1AU     LIG  476   4.462   4.557   6.914
    1AU     LIG  477   4.248   4.242   7.211
    1AU     LIG  478   4.043   3.917   7.497
    1AU     LIG  479   4.015   3.613   7.862
    1AU     LIG  480   4.038   3.505   8.328
    1AU    AUSL  481   5.808   5.181   6.135
    1AU    AUSL  482   5.534   5.166   5.894
    1AU     AUL  483   5.940   5.012   5.954
    1AU       S  484   5.252   4.829   5.889
    1AU     LIG  485   4.997   4.426   5.864
    1AU     LIG  486   5.027   3.981   5.740
    1AU     LIG  487   5.018   3.555   5.527
    1AU     LIG  488   4.753   3.144   5.431
    1AU     LIG  489   4.640   2.697   5.260
    1AU     LIG  490   4.742   2.260   5.047
    1AU       S  491   5.651   4.765   6.306
    1AU     LIG  492   5.579   4.282   6.342
    1AU     LIG  493   5.518   3.798   6.409
    1AU     LIG  494   5.620   3.339   6.562
    1AU     LIG  495   5.914   2.925   6.568
    1AU     LIG  496   6.141   2.518   6.731
    1AU     LIG  497   6.344   2.121   6.894
    1AU    AUSL  498   5.725   6.413   5.554
    1AU    AUSL  499   6.211   6.286   5.730
    1AU     AUL  500   6.044   6.484   5.607
    1AU       S  501   5.819   6.902   5.428
    1AU     LIG  502   5.983   7.249   5.143
    1AU     LIG  503   6.119   7.619   4.884
    1AU     LIG  504   6.114   7.838   4.454
    1AU     LIG  505   6.021   8.151   4.099
    1AU     LIG  506   5.972   8.588   3.923
    1AU     LIG  507   6.008   8.917   3.583
    1AU       S  508   6.574   6.392   5.496
    1AU     LIG  509   6.795   6.685   5.186
    1AU     LIG  510   7.138   6.798   4.875
    1AU     LIG  511   7.438   7.132   4.693
    1AU     LIG  512   7.648   7.585   4.707
    1AU     LIG  513   7.808   8.045   4.632
    1AU     LIG  514   7.834   8.445   4.363
    1AU    AUSL  515   5.639   6.503   5.815
    1AU    AUSL  516   5.469   6.272   5.521
    1AU     AUL  517   5.400   6.652   5.624
    1AU       S  518   5.789   6.955   5.763
    1AU     LIG  519   5.737   7.414   5.565
    1AU     LIG  520   5.858   7.825   5.299
    1AU     LIG  521   5.776   8.311   5.132
    1AU     LIG  522   5.481   8.733   5.000
    1AU     LIG  523   5.410   9.229   4.852
    1AU     LIG  524   4.961   9.420   4.757
    1AU       S  525   5.165   6.476   5.166
    1AU     LIG  526   5.037   6.708   4.741
    1AU     LIG  527   4.925   6.949   4.323
    1AU     LIG  528   4.891   7.045   3.840
    1AU     LIG  529   4.897   7.430   3.541
    1AU     LIG  530   4.596   7.772   3.438
    1AU     LIG  531   4.380   8.063   3.137
    1AU    AUSL  532   5.595   5.279   5.633
    1AU    AUSL  533   5.343   5.349   5.749
    1AU     AUL  534   5.755   5.261   5.562
    1AU       S  535   5.014   5.117   5.552
    1AU     LIG  536   4.734   4.805   5.660
    1AU     LIG  537   4.279   4.710   5.587
    1AU     LIG  538   3.957   4.492   5.299
    1AU     LIG  539   3.736   4.190   4.984
    1AU     LIG  540   3.478   3.756   4.892
    1AU     LIG  541   3.253   3.359   4.687
    1AU       S  542   5.417   4.850   5.617
    1AU     LIG  543   5.184   4.528   5.407
    1AU     LIG  544   5.235   4.069   5.283
    1AU     LIG  545   5.366   3.630   5.138
    1AU     LIG  546   5.371   3.328   4.753
    1AU     LIG  547   5.367   3.155   4.295
    1AU     LIG  548   5.504   2.835   3.967
    1AU    AUSL  549   5.802   5.221   5.839
    1AU    AUSL  550   5.980   5.411   5.486
    1AU     AUL  551   5.940   5.055   5.653
    1AU       S  552   5.505   4.767   5.827
    1AU     LIG  553   5.473   4.277   5.802
    1AU     LIG  554   5.507   3.804   5.639
    1AU     LIG  555   5.707   3.375   5.489
    1AU     LIG  556   6.048   2.995   5.476
    1AU     LIG  557   6.293   2.607   5.303
    1AU     LIG  558   6.529   2.206   5.136
    1AU       S  559   6.153   5.171   5.165
    1AU     LIG  560   6.155   4.818   4.893
    1AU     LIG  561   6.354   4.446   4.722
    1AU     LIG  562   6.655   4.167   4.510
    1AU     LIG  563   6.728   3.881   4.158
    1AU     LIG  564   6.934   3.705   3.789
    1AU     LIG  565   7.237   3.575   3.473
    2POPC   NC3  566   1.371   2.468   7.860
    2POPC   PO4  567   1.152   3.028   8.149
    2POPC   GL1  568   1.172   2.971   7.712
    2POPC   GL2  569   0.836   2.831   7.648
    2POPC   C1A  570   1.288   2.757   7.309
    2POPC   D2A  571   1.508   2.735   6.961
    2POPC   C3A  572   1.331   2.749   6.562
    2POPC   C4A  573   1.585   2.980   6.301
    2POPC   C1B  574   0.880   3.049   7.266
    2POPC   C2B  575   0.981   3.050   6.836
    2POPC   C3B  576   0.825   2.850   6.434
    2POPC   C4B  577   1.055   2.791   6.024
    3POPC   NC3  578   2.791   1.916   8.143
    3POPC   PO4  579   3.283   2.166   7.798
    3POPC   GL1  580   2.968   1.916   7.653
    3POPC   GL2  581   2.593   1.980   7.667
    3POPC   C1A  582   2.854   1.788   7.256
    3POPC   D2A  583   3.083   1.774   6.916
    3POPC   C3A  584   3.010   1.932   6.530
    3POPC   C4A  585   3.077   1.938   6.120
    3POPC   C1B  586   2.428   2.080   7.247
    3POPC   C2B  587   2.553   1.888   6.837
    3POPC   C3B  588   2.526   2.049   6.429
    3POPC   C4B  589   2.641   2.182   6.018
    4POPC   NC3  590   8.768   5.225   8.234
    4POPC   PO4  591   9.200   5.554   8.169
    4POPC   GL1  592   9.017   5.324   7.777
    4POPC   GL2  593   9.049   4.950   7.684
    4POPC   C1A  594   9.003   5.301   7.290
    4POPC   D2A  595   9.222   5.189   6.869
    4POPC   C3A  596   9.051   5.244   6.418
    4POPC   C4A  597   8.764   5.253   6.042
    4POPC   C1B  598   9.041   4.795   7.202
    4POPC   C2B  599   8.883   4.822   6.743
    4POPC   C3B  600   8.826   4.799   6.295
    4POPC   C4B  601   8.899   4.493   5.984
    5POPC   NC3  602   1.425   0.552   8.058
    5POPC   PO4  603   0.876   0.843   7.977
    5POPC   GL1  604   0.977   0.434   7.733
    5POPC   GL2  605   1.270   0.185   7.737
    5POPC   C1A  606   0.895   0.303   7.307
    5POPC   D2A  607   0.838   0.503   6.901
    5POPC   C3A  608   0.840   0.200   6.589
    5POPC   C4A  609   0.869  11.498   6.219
    5POPC   C1B  610   1.405   0.412   7.353
    5POPC   C2B  611   1.367   0.511   6.893
    5POPC   C3B  612   1.237   0.516   6.462
    5POPC   C4B  613   1.277   0.270   6.106
    6POPC   NC3  614   7.629   2.622   7.958
    6POPC   PO4  615   7.077   3.022   8.067
    6POPC   GL1  616   7.244   2.847   7.647
    6POPC   GL2  617   6.971   2.848   7.429
    6POPC   C1A  618   7.502   2.907   7.223
    6POPC   D2A  619   7.364   2.897   6.759
    6POPC   C3A  620   7.571   2.790   6.343
    6POPC   C4A  621   7.616   2.922   5.886
    6POPC   C1B  622   7.197   2.521   7.193
    6POPC   C2B  623   7.190   2.411   6.798
    6POPC   C3B  624   7.087   2.554   6.416
    6POPC   C4B  625   7.262   2.491   6.031
    7POPC   NC3  626   2.152   5.670   8.141
    7POPC   PO4  627   1.690   6.122   8.049
    7POPC   GL1  628   1.713   5.966   7.655
    7POPC   GL2  629   2.072   5.926   7.648
    7POPC   C1A  630   1.686   6.143   7.228
    7POPC   D2A  631   1.760   5.928   6.847
    7POPC   C3A  632   1.719   6.040   6.428
    7POPC   C4A  633   1.847   5.829   6.020
    7POPC   C1B  634   1.885   5.663   7.291
    7POPC   C2B  635   1.985   5.482   6.872
    7POPC   C3B  636   2.054   5.628   6.430
    7POPC   C4B  637   2.307   5.607   5.984
    8POPC   NC3  638   0.442   5.492   8.167
    8POPC   PO4  639   0.109   4.927   8.266
    8POPC   GL1  640   0.262   5.069   7.887
    8POPC   GL2  641   0.603   5.094   7.887
    8POPC   C1A  642   0.166   4.930   7.445
    8POPC   D2A  643   0.190   4.720   7.020
    8POPC   C3A  644   0.018   4.769   6.606
    8POPC   C4A  645   0.195   4.860   6.250
    8POPC   C1B  646   0.604   5.192   7.475
    8POPC   C2B  647   0.460   5.172   7.064
    8POPC   C3B  648   0.445   5.159   6.588
    8POPC   C4B  649   0.635   5.121   6.174
    9POPC   NC3  650  11.227   5.251   8.193
    9POPC   PO4  651  10.902   4.663   8.300
    9POPC   GL1  652  11.211   4.838   7.876
    9POPC   GL2  653  11.302   5.178   7.714
    9POPC   C1A  654  11.166   4.866   7.364
    9POPC   D2A  655  11.033   5.120   6.980
    9POPC   C3A  656  11.011   4.934   6.591
    9POPC   C4A  657  11.101   4.809   6.190
    9POPC   C1B  658  11.383   5.333   7.290
    9POPC   C2B  659   0.011   5.204   6.852
    9POPC   C3B  660  11.399   5.278   6.390
    9POPC   C4B  661  11.189   5.259   5.958
   10POPC   NC3  662  11.228   8.230   7.951
   10POPC   PO4  663  10.577   8.165   8.005
   10POPC   GL1  664  10.820   8.268   7.639
   10POPC   GL2  665  11.055   8.030   7.493
   10POPC   C1A  666  10.755   8.361   7.219
   10POPC   D2A  667  10.874   8.509   6.817
   10POPC   C3A  668  11.040   8.150   6.630
   10POPC   C4A  669  11.032   8.023   6.217
   10POPC   C1B  670  11.315   7.969   7.144
   10POPC   C2B  671   0.030   8.111   6.814
   10POPC   C3B  672  11.486   7.961   6.434
   10POPC   C4B  673  11.441   8.311   6.160
   11POPC   NC3  674   3.577   2.430   8.026
   11POPC   PO4  675   4.282   2.400   7.922
   11POPC   GL1  676   3.896   2.487   7.613
   11POPC   GL2  677   3.586   2.669   7.579
   11POPC   C1A  678   3.777   2.433   7.156
   11POPC   D2A  679   3.581   2.670   6.839
   11POPC   C3A  680   3.778   2.707   6.434
   11POPC   C4A  681   4.064   2.641   6.040
   11POPC   C1B  682   3.264   2.650   7.261
   11POPC   C2B  683   3.060   2.773   6.873
   11POPC   C3B  684   3.242   2.775   6.461
   11POPC   C4B  685   3.394   3.148   6.274
   12POPC   NC3  686   4.937   7.973   8.060
   12POPC   PO4  687   5.163   7.520   7.862
   12POPC   GL1  688   5.080   7.892   7.559
   12POPC   GL2  689   5.073   8.266   7.667
   12POPC   C1A  690   4.967   7.901   7.097
   12POPC   D2A  691   5.135   7.888   6.658
   12POPC   C3A  692   4.803   7.951   6.333
   12POPC   C4A  693   4.411   8.070   6.095
   12POPC   C1B  694   5.187   8.330   7.230
   12POPC   C2B  695   5.000   8.371   6.809
   12POPC   C3B  696   5.179   8.315   6.372
   12POPC   C4B  697   5.257   7.952   6.080
   13POPC   NC3  698   8.556   0.995   7.953
   13POPC   PO4  699   7.855   1.006   8.121
   13POPC   GL1  700   8.082   1.148   7.753
   13POPC   GL2  701   7.844   1.377   7.569
   13POPC   C1A  702   8.188   0.946   7.352
   13POPC   D2A  703   8.001   1.050   6.934
   13POPC   C3A  704   8.273   0.980   6.577
   13POPC   C4A  705   8.297   1.100   6.152
   13POPC   C1B  706   8.173   1.444   7.261
   13POPC   C2B  707   8.242   1.480   6.802
   13POPC   C3B  708   7.959   1.365   6.448
   13POPC   C4B  709   7.815   1.653   6.112
   14POPC   NC3  710   1.059   9.552   8.098
   14POPC   PO4  711   0.809  10.177   8.139
   14POPC   GL1  712   0.995   9.933   7.766
   14POPC   GL2  713   1.372   9.868   7.789
   14POPC   C1A  714   0.848   9.926   7.341
   14POPC   D2A  715   1.118   9.961   6.981
   14POPC   C3A  716   1.085   9.730   6.604
   14POPC   C4A  717   1.167   9.879   6.219
   14POPC   C1B  718   1.299   9.659   7.399
   14POPC   C2B  719   1.422   9.556   6.975
   14POPC   C3B  720   1.599   9.659   6.570
   14POPC   C4B  721   1.500   9.515   6.173
   15POPC   NC3  722   1.231  10.530   8.217
   15POPC   PO4  723   0.710  10.683   7.843
   15POPC   GL1  724   0.954  10.425   7.657
   15POPC   GL2  725   1.313  10.385   7.715
   15POPC   C1A  726   1.078  10.387   7.253
   15POPC   D2A  727   1.310  10.481   6.909
   15POPC   C3A  728   1.142  10.277   6.561
   15POPC   C4A  729   0.913  10.312   6.185
   15POPC   C1B  730   1.551  10.217   7.322
   15POPC   C2B  731   1.617  10.063   6.879
   15POPC   C3B  732   1.623  10.136   6.411
   15POPC   C4B  733   1.399  10.348   6.108
   16POPC   NC3  734   3.777   9.433   8.084
   16POPC   PO4  735   3.115   9.432   7.933
   16POPC   GL1  736   3.472   9.617   7.696
   16POPC   GL2  737   3.549   9.968   7.690
   16POPC   C1A  738   3.519   9.614   7.253
   16POPC   D2A  739   3.335   9.738   6.865
   16POPC   C3A  740   3.286   9.512   6.463
   16POPC   C4A  741   3.220   9.548   6.020
   16POPC   C1B  742   3.787  10.041   7.275
   16POPC   C2B  743   3.868   9.848   6.842
   16POPC   C3B  744   3.778   9.671   6.401
   16POPC   C4B  745   3.715   9.716   5.918
   17POPC   NC3  746  10.484   1.317   8.299
   17POPC   PO4  747  10.388   1.883   7.915
   17POPC   GL1  748  10.333   1.586   7.625
   17POPC   GL2  749  10.478   1.250   7.715
   17POPC   C1A  750  10.562   1.582   7.239
   17POPC   D2A  751  10.640   1.384   6.853
   17POPC   C3A  752  10.582   1.633   6.509
   17POPC   C4A  753  10.379   1.543   6.147
   17POPC   C1B  754  10.237   1.189   7.328
   17POPC   C2B  755  10.242   1.044   6.920
   17POPC   C3B  756  10.236   1.209   6.513
   17POPC   C4B  757  10.230   1.046   6.086
   18POPC   NC3  758   3.522  11.249   8.411
   18POPC   PO4  759   3.225  11.479   7.837
   18POPC   GL1  760   3.568  11.322   7.592
   18POPC   GL2  761   3.594  10.991   7.675
   18POPC   C1A  762   3.679  11.187   7.164
   18POPC   D2A  763   3.685  11.140   6.722
   18POPC   C3A  764   3.618  11.482   6.478
   18POPC   C4A  765   3.844   0.099   6.134
   18POPC   C1B  766   3.260  10.930   7.329
   18POPC   C2B  767   3.217  10.971   6.875
   18POPC   C3B  768   3.251  11.118   6.440
   18POPC   C4B  769   3.542  10.946   6.146
   19POPC   NC3  770  11.387   6.265   8.219
   19POPC   PO4  771  11.297   6.947   8.347
   19POPC   GL1  772  11.227   6.827   7.843
   19POPC   GL2  773  11.163   6.463   7.782
   19POPC   C1A  774  11.155   6.879   7.321
   19POPC   D2A  775  11.097   7.057   6.854
   19POPC   C3A  776  11.176   6.835   6.391
   19POPC   C4A  777  10.879   6.953   6.006
   19POPC   C1B  778  11.129   6.364   7.335
   19POPC   C2B  779  11.055   6.542   6.921
   19POPC   C3B  780  10.991   6.368   6.510
   19POPC   C4B  781  11.363   6.328   6.266
   20POPC   NC3  782  10.504   0.328   8.449
   20POPC   PO4  783  10.992   0.059   8.101
   20POPC   GL1  784  10.732   0.230   7.708
   20POPC   GL2  785  10.361   0.284   7.731
   20POPC   C1A  786  10.565   0.235   7.260
   20POPC   D2A  787  10.447   0.012   6.890
   20POPC   C3A  788  10.553   0.266   6.522
   20POPC   C4A  789  10.691   0.197   6.096
   20POPC   C1B  790  10.225   0.588   7.371
   20POPC   C2B  791  10.302   0.533   6.917
   20POPC   C3B  792  10.192   0.686   6.502
   20POPC   C4B  793  10.248   0.446   6.142
   21POPC   NC3  794   6.939   0.992   7.996
   21POPC   PO4  795   6.268   1.019   8.019
   21POPC   GL1  796   6.529   0.816   7.702
   21POPC   GL2  797   6.360   0.617   7.450
   21POPC   C1A  798   6.787   0.892   7.322
   21POPC   D2A  799   6.723   1.130   6.954
   21POPC   C3A  800   6.482   0.987   6.628
   21POPC   C4A  801   6.576   1.242   6.324
   21POPC   C1B  802   6.259   0.944   7.125
   21POPC   C2B  803   6.219   1.365   6.918
   21POPC   C3B  804   6.323   1.625   6.542
   21POPC   C4B  805   6.191   1.505   6.126
   22POPC   NC3  806   9.057  11.022   8.101
   22POPC   PO4  807   9.287  10.497   7.893
   22POPC   GL1  808   9.069  10.819   7.625
   22POPC   GL2  809   8.960  11.202   7.645
   22POPC   C1A  810   8.943  10.900   7.211
   22POPC   D2A  811   8.695  10.791   6.851
   22POPC   C3A  812   8.729  10.999   6.475
   22POPC   C4A  813   9.036  10.902   6.198
   22POPC   C1B  814   8.668  11.304   7.308
   22POPC   C2B  815   8.812  11.321   6.882
   22POPC   C3B  816   8.705   0.024   6.491
   22POPC   C4B  817   8.724  11.449   6.038
   23POPC   NC3  818   0.508   1.056   7.788
   23POPC   PO4  819   0.750   1.617   7.975
   23POPC   GL1  820   0.671   1.509   7.584
   23POPC   GL2  821   0.287   1.470   7.604
   23POPC   C1A  822   0.592   1.576   7.168
   23POPC   D2A  823   0.517   1.333   6.813
   23POPC   C3A  824   0.522   1.613   6.475
   23POPC   C4A  825   0.327   1.582   6.079
   23POPC   C1B  826   0.156   1.249   7.229
   23POPC   C2B  827   0.034   1.077   6.841
   23POPC   C3B  828   0.150   1.235   6.455
   23POPC   C4B  829   0.536   1.060   6.305
   24POPC   NC3  830   4.365   8.603   8.125
   24POPC   PO4  831   4.162   9.194   8.108
   24POPC   GL1  832   4.149   8.956   7.775
   24POPC   GL2  833   4.458   8.987   7.671
   24POPC   C1A  834   4.058   8.922   7.323
   24POPC   D2A  835   4.172   8.622   6.989
   24POPC   C3A  836   4.114   8.720   6.532
   24POPC   C4A  837   4.058   8.454   6.171
   24POPC   C1B  838   4.557   8.882   7.236
   24POPC   C2B  839   4.457   9.005   6.799
   24POPC   C3B  840   4.537   8.945   6.351
   24POPC   C4B  841   4.571   9.118   5.975
   25POPC   NC3  842   3.535   1.361   7.979
   25POPC   PO4  843   3.165   0.851   7.761
   25POPC   GL1  844   3.466   1.125   7.509
   25POPC   GL2  845   3.801   1.121   7.586
   25POPC   C1A  846   3.512   1.154   7.050
   25POPC   D2A  847   3.176   1.056   6.779
   25POPC   C3A  848   3.147   1.069   6.352
   25POPC   C4A  849   3.183   1.436   6.099
   25POPC   C1B  850   3.903   1.420   7.259
   25POPC   C2B  851   4.094   1.556   6.853
   25POPC   C3B  852   3.918   1.479   6.459
   25POPC   C4B  853   3.624   1.175   6.361
   26POPC   NC3  854   5.349   9.851   7.865
   26POPC   PO4  855   5.911   9.933   8.105
   26POPC   GL1  856   5.809  10.051   7.693
   26POPC   GL2  857   5.752   9.676   7.616
   26POPC   C1A  858   5.977   9.972   7.279
   26POPC   D2A  859   6.124   9.779   6.889
   26POPC   C3A  860   5.893   9.833   6.485
   26POPC   C4A  861   6.066   9.902   6.073
   26POPC   C1B  862   5.703   9.553   7.171
   26POPC   C2B  863   5.468   9.619   6.778
   26POPC   C3B  864   5.452   9.515   6.330
   26POPC   C4B  865   5.765   9.477   5.997
   27POPC   NC3  866  11.079  10.465   8.043
   27POPC   PO4  867  10.736   9.948   7.774
   27POPC   GL1  868  11.144  10.135   7.618
   27POPC   GL2  869  11.401  10.416   7.658
   27POPC   C1A  870  11.247  10.041   7.216
   27POPC   D2A  871  10.959  10.096   6.895
   27POPC   C3A  872  11.108  10.311   6.544
   27POPC   C4A  873  11.223  10.208   6.167
   27POPC   C1B  874  11.224  10.577   7.278
   27POPC   C2B  875  10.984  10.635   6.929
   27POPC   C3B  876  10.943  10.811   6.527
   27POPC   C4B  877  11.285  10.730   6.250
   28POPC   NC3  878   4.834   0.164   7.865
   28POPC   PO4  879   4.987   0.578   8.296
   28POPC   GL1  880   5.106   0.590   7.758
   28POPC   GL2  881   4.824   0.500   7.495
   28POPC   C1A  882   5.270   0.531   7.306
   28POPC   D2A  883   4.982   0.375   6.952
   28POPC   C3A  884   5.171   0.331   6.553
   28POPC   C4A  885   5.237   0.659   6.283
   28POPC   C1B  886   4.576   0.647   7.174
   28POPC   C2B  887   4.397   0.623   6.785
   28POPC   C3B  888   4.758   0.683   6.557
   28POPC   C4B  889   4.809   0.991   6.256
   29POPC   NC3  890   8.620   2.590   8.091
   29POPC   PO4  891   8.074   2.969   8.016
   29POPC   GL1  892   8.477   2.922   7.704
   29POPC   GL2  893   8.695   2.602   7.570
   29POPC   C1A  894   8.817   3.072   7.395
   29POPC   D2A  895   8.959   3.332   7.007
   29POPC   C3A  896   8.958   3.212   6.549
   29POPC   C4A  897   8.652   3.037   6.242
   29POPC   C1B  898   9.016   2.622   7.210
   29POPC   C2B  899   9.015   2.709   6.769
   29POPC   C3B  900   9.037   2.710   6.327
   29POPC   C4B  901   9.072   2.546   5.910
   30POPC   NC3  902   7.367  10.605   8.197
   30POPC   PO4  903   7.737  10.787   7.661
   30POPC   GL1  904   7.361  10.573   7.629
   30POPC   GL2  905   7.389  10.239   7.775
   30POPC   C1A  906   7.234  10.407   7.236
   30POPC   D2A  907   6.982  10.436   6.877
   30POPC   C3A  908   7.128  10.616   6.490
   30POPC   C4A  909   7.489  10.681   6.242
   30POPC   C1B  910   7.672  10.147   7.432
   30POPC   C2B  911   7.592  10.055   6.999
   30POPC   C3B  912   7.517  10.264   6.614
   30POPC   C4B  913   7.479  10.144   6.186
   31POPC   NC3  914   9.814   4.723   8.193
   31POPC   PO4  915  10.077   4.139   8.080
   31POPC   GL1  916   9.906   4.249   7.637
   31POPC   GL2  917   9.572   4.388   7.627
   31POPC   C1A  918  10.050   4.336   7.177
   31POPC   D2A  919  10.212   4.635   6.817
   31POPC   C3A  920  10.096   4.566   6.362
   31POPC   C4A  921   9.795   4.237   6.206
   31POPC   C1B  922   9.544   4.114   7.233
   31POPC   C2B  923   9.385   3.922   6.820
   31POPC   C3B  924   9.331   4.120   6.419
   31POPC   C4B  925   9.304   4.583   6.346
   32POPC   NC3  926   0.307   2.055   8.005
   32POPC   PO4  927   0.930   2.368   7.829
   32POPC   GL1  928   0.750   2.043   7.565
   32POPC   GL2  929   0.413   1.952   7.536
   32POPC   C1A  930   0.669   2.099   7.137
   32POPC   D2A  931   0.425   1.995   6.807
   32POPC   C3A  932   0.742   2.121   6.533
   32POPC   C4A  933   0.853   1.944   6.161
   32POPC   C1B  934   0.140   1.796   7.242
   32POPC   C2B  935   0.080   1.605   6.841
   32POPC   C3B  936   0.013   1.775   6.448
   32POPC   C4B  937   0.322   2.060   6.260
   33POPC   NC3  938   9.639   5.706   8.136
   33POPC   PO4  939  10.033   5.114   8.099
   33POPC   GL1  940  10.047   5.521   7.777
   33POPC   GL2  941   9.881   5.857   7.690
   33POPC   C1A  942   9.911   5.551   7.294
   33POPC   D2A  943   9.824   5.753   6.889
   33POPC   C3A  944   9.783   5.562   6.485
   33POPC   C4A  945   9.896   5.653   6.072
   33POPC   C1B  946   9.906   6.098   7.269
   33POPC   C2B  947   9.845   6.256   6.807
   33POPC   C3B  948   9.708   6.057   6.395
   33POPC   C4B  949   9.459   5.895   6.045
   34POPC   NC3  950   4.911   1.030   8.215
   34POPC   PO4  951   5.631   0.822   8.101
   34POPC   GL1  952   5.388   1.010   7.743
   34POPC   GL2  953   5.059   1.191   7.744
   34POPC   C1A  954   5.313   1.052   7.293
   34POPC   D2A  955   5.028   0.902   6.974
   34POPC   C3A  956   5.194   1.074   6.592
   34POPC   C4A  957   5.265   1.176   6.150
   34POPC   C1B  958   4.918   1.371   7.335
   34POPC   C2B  959   4.923   1.409   6.881
   34POPC   C3B  960   4.902   1.466   6.430
   34POPC   C4B  961   4.966   1.569   5.988
   35POPC   NC3  962   7.655   9.181   8.066
   35POPC   PO4  963   8.401   9.235   8.052
   35POPC   GL1  964   8.258   9.046   7.677
   35POPC   GL2  965   7.932   9.016   7.665
   35POPC   C1A  966   8.178   8.843   7.252
   35POPC   D2A  967   8.030   8.723   6.812
   35POPC   C3A  968   8.306   8.639   6.439
   35POPC   C4A  969   8.305   8.775   6.012
   35POPC   C1B  970   7.777   9.146   7.255
   35POPC   C2B  971   7.931   9.220   6.813
   35POPC   C3B  972   8.064   9.090   6.366
   35POPC   C4B  973   7.869   9.038   5.925
   36POPC   NC3  974   8.885  10.363   8.105
   36POPC   PO4  975   8.587  11.052   8.116
   36POPC   GL1  976   8.575  10.679   7.727
   36POPC   GL2  977   8.827  10.362   7.621
   36POPC   C1A  978   8.551  10.532   7.257
   36POPC   D2A  979   8.590  10.284   6.868
   36POPC   C3A  980   8.415  10.530   6.492
   36POPC   C4A  981   8.588  10.672   6.082
   36POPC   C1B  982   9.079  10.400   7.242
   36POPC   C2B  983   9.179  10.626   6.852
   36POPC   C3B  984   8.946  10.498   6.488
   36POPC   C4B  985   8.975  10.145   6.231
   37POPC   NC3  986   7.046   8.780   7.979
   37POPC   PO4  987   7.712   8.638   8.216
   37POPC   GL1  988   7.625   8.627   7.797
   37POPC   GL2  989   7.454   8.866   7.689
   37POPC   C1A  990   7.676   8.596   7.330
   37POPC   D2A  991   7.571   8.495   6.911
   37POPC   C3A  992   7.421   8.633   6.524
   37POPC   C4A  993   7.748   8.706   6.280
   37POPC   C1B  994   7.289   8.936   7.291
   37POPC   C2B  995   7.439   9.004   6.881
   37POPC   C3B  996   7.282   9.144   6.490
   37POPC   C4B  997   7.384   9.056   6.093
   38POPC   NC3  998   0.576  10.999   8.132
   38POPC   PO4  999   1.144  10.929   8.487
   38POPC   GL1 1000   1.169  10.946   7.940
   38POPC   GL2 1001   0.923  11.168   7.751
   38POPC   C1A 1002   1.240  10.842   7.444
   38POPC   D2A 1003   1.238  11.028   6.986
   38POPC   C3A 1004   1.238  10.849   6.546
   38POPC   C4A 1005   0.969  10.883   6.175
   38POPC   C1B 1006   1.147  11.351   7.378
   38POPC   C2B 1007   1.408   0.012   7.020
   38POPC   C3B 1008   1.338   0.024   6.572
   38POPC   C4B 1009   1.321  11.277   6.190
   39POPC   NC3 1010   9.358   8.553   8.042
   39POPC   PO4 1011   9.221   7.888   8.021
   39POPC   GL1 1012   9.552   8.017   7.697
   39POPC   GL2 1013   9.780   8.302   7.706
   39POPC   C1A 1014   9.780   7.970   7.292
   39POPC   D2A 1015   9.812   7.779   6.882
   39POPC   C3A 1016   9.609   7.884   6.495
   39POPC   C4A 1017   9.737   7.804   6.066
   39POPC   C1B 1018   9.684   8.472   7.315
   39POPC   C2B 1019   9.534   8.426   6.885
   39POPC   C3B 1020   9.711   8.407   6.475
   39POPC   C4B 1021   9.491   8.232   6.131
   40POPC   NC3 1022   1.118   1.328   8.053
   40POPC   PO4 1023   1.729   0.897   8.125
   40POPC   GL1 1024   1.468   0.979   7.783
   40POPC   GL2 1025   1.497   1.289   7.717
   40POPC   C1A 1026   1.549   0.928   7.331
   40POPC   D2A 1027   1.718   0.878   6.901
   40POPC   C3A 1028   1.385   0.986   6.612
   40POPC   C4A 1029   1.068   0.965   6.269
   40POPC   C1B 1030   1.241   1.343   7.371
   40POPC   C2B 1031   1.271   1.382   6.922
   40POPC   C3B 1032   0.976   1.345   6.575
   40POPC   C4B 1033   0.867   1.431   6.147
   41POPC   NC3 1034   8.200   3.419   8.058
   41POPC   PO4 1035   8.547   3.827   7.839
   41POPC   GL1 1036   8.450   3.434   7.612
   41POPC   GL2 1037   8.079   3.418   7.564
   41POPC   C1A 1038   8.386   3.258   7.200
   41POPC   D2A 1039   8.231   3.481   6.852
   41POPC   C3A 1040   8.473   3.472   6.486
   41POPC   C4A 1041   8.328   3.392   6.074
   41POPC   C1B 1042   7.856   3.286   7.169
   41POPC   C2B 1043   7.846   3.141   6.713
   41POPC   C3B 1044   7.818   3.255   6.256
   41POPC   C4B 1045   7.473   3.405   5.973
   42POPC   NC3 1046  11.114   9.815   8.016
   42POPC   PO4 1047  10.808   9.215   7.876
   42POPC   GL1 1048  10.964   9.527   7.594
   42POPC   GL2 1049  11.318   9.640   7.580
   42POPC   C1A 1050  10.821   9.636   7.186
   42POPC   D2A 1051  10.659   9.470   6.793
   42POPC   C3A 1052  10.754   9.808   6.515
   42POPC   C4A 1053  10.949   9.789   6.092
   42POPC   C1B 1054  11.345   9.537   7.166
   42POPC   C2B 1055  11.156   9.608   6.790
   42POPC   C3B 1056  11.061   9.395   6.433
   42POPC   C4B 1057  11.342   9.469   6.131
   43POPC   NC3 1058  11.498   7.289   8.115
   43POPC   PO4 1059  11.079   7.712   7.887
   43POPC   GL1 1060  11.240   7.321   7.668
   43POPC   GL2 1061  10.911   7.204   7.622
   43POPC   C1A 1062  11.499   7.241   7.277
   43POPC   D2A 1063   0.069   6.926   6.971
   43POPC   C3A 1064   0.010   7.176   6.576
   43POPC   C4A 1065  11.382   7.482   6.264
   43POPC   C1B 1066  11.047   7.480   7.237
   43POPC   C2B 1067  11.137   7.641   6.828
   43POPC   C3B 1068  10.951   7.637   6.512
   43POPC   C4B 1069  10.901   7.258   6.402
   44POPC   NC3 1070   1.486   8.076   8.236
   44POPC   PO4 1071   0.786   8.206   8.193
   44POPC   GL1 1072   1.141   8.210   7.845
   44POPC   GL2 1073   1.152   8.554   7.688
   44POPC   C1A 1074   1.433   8.198   7.435
   44POPC   D2A 1075   1.581   8.325   6.993
   44POPC   C3A 1076   1.604   8.189   6.575
   44POPC   C4A 1077   1.345   8.100   6.206
   44POPC   C1B 1078   0.943   8.334   7.357
   44POPC   C2B 1079   1.089   8.109   7.032
   44POPC   C3B 1080   1.110   8.247   6.641
   44POPC   C4B 1081   0.888   8.318   6.280
   45POPC   NC3 1082   3.310   3.388   8.013
   45POPC   PO4 1083   2.654   3.218   8.059
   45POPC   GL1 1084   2.585   3.178   7.623
   45POPC   GL2 1085   2.469   3.517   7.559
   45POPC   C1A 1086   2.808   3.261   7.215
   45POPC   D2A 1087   2.650   3.435   6.823
   45POPC   C3A 1088   2.873   3.440   6.421
   45POPC   C4A 1089   2.936   3.852   6.171
   45POPC   C1B 1090   2.293   3.344   7.204
   45POPC   C2B 1091   2.128   3.539   6.866
   45POPC   C3B 1092   2.319   3.628   6.477
   45POPC   C4B 1093   2.393   3.233   6.424
   46POPC   NC3 1094  10.740   8.905   8.192
   46POPC   PO4 1095  11.268   9.410   8.198
   46POPC   GL1 1096  11.303   9.155   7.764
   46POPC   GL2 1097  11.171   8.816   7.860
   46POPC   C1A 1098  11.461   9.060   7.322
   46POPC   D2A 1099  11.272   9.079   6.879
   46POPC   C3A 1100  11.476   9.074   6.461
   46POPC   C4A 1101  11.190   8.971   6.136
   46POPC   C1B 1102  11.098   8.690   7.424
   46POPC   C2B 1103  11.338   8.560   7.044
   46POPC   C3B 1104  11.332   8.589   6.578
   46POPC   C4B 1105  10.978   8.530   6.273
   47POPC   NC3 1106   0.648   2.984   8.108
   47POPC   PO4 1107   0.184   2.479   8.149
   47POPC   GL1 1108   0.323   2.727   7.801
   47POPC   GL2 1109   0.440   2.447   7.664
   47POPC   C1A 1110   0.393   2.842   7.347
   47POPC   D2A 1111   0.483   2.995   6.939
   47POPC   C3A 1112   0.210   2.990   6.614
   47POPC   C4A 1113   0.365   2.962   6.196
   47POPC   C1B 1114   0.250   2.346   7.268
   47POPC   C2B 1115   0.337   2.495   6.870
   47POPC   C3B 1116   0.394   2.525   6.458
   47POPC   C4B 1117   0.676   2.441   6.137
   48POPC   NC3 1118   5.372   0.389   8.130
   48POPC   PO4 1119   6.013   0.075   8.061
   48POPC   GL1 1120   5.660   0.134   7.769
   48POPC   GL2 1121   5.630   0.504   7.686
   48POPC   C1A 1122   5.535   0.008   7.331
   48POPC   D2A 1123   5.548   0.278   6.973
   48POPC   C3A 1124   5.721   0.206   6.576
   48POPC   C4A 1125   5.525   0.125   6.183
   48POPC   C1B 1126   5.931   0.331   7.387
   48POPC   C2B 1127   6.086   0.462   7.023
   48POPC   C3B 1128   6.039   0.709   6.663
   48POPC   C4B 1129   5.914   0.527   6.234
   49POPC   NC3 1130  10.564   4.865   8.037
   49POPC   PO4 1131  10.822   5.515   8.078
   49POPC   GL1 1132  10.792   5.210   7.718
   49POPC   GL2 1133  10.449   5.230   7.665
   49POPC   C1A 1134  10.669   4.959   7.295
   49POPC   D2A 1135  10.539   5.057   6.855
   49POPC   C3A 1136  10.506   4.895   6.453
   49POPC   C4A 1137  10.689   5.079   6.133
   49POPC   C1B 1138  10.380   5.382   7.218
   49POPC   C2B 1139  10.239   5.454   6.750
   49POPC   C3B 1140  10.129   5.221   6.340
   49POPC   C4B 1141   9.863   5.169   5.940
   50POPC   NC3 1142   8.072  10.585   7.896
   50POPC   PO4 1143   8.497  10.141   7.959
   50POPC   GL1 1144   8.311  10.226   7.577
   50POPC   GL2 1145   8.071  10.487   7.404
   50POPC   C1A 1146   8.191  10.046   7.209
   50POPC   D2A 1147   8.054  10.241   6.832
   50POPC   C3A 1148   8.276  10.022   6.561
   50POPC   C4A 1149   8.459  10.107   6.195
   50POPC   C1B 1150   7.716  10.537   7.092
   50POPC   C2B 1151   7.541  10.770   6.788
   50POPC   C3B 1152   7.888  10.667   6.560
   50POPC   C4B 1153   7.966  10.325   6.298
   51POPC   NC3 1154   9.959   1.844   8.058
   51POPC   PO4 1155   9.376   1.598   8.326
   51POPC   GL1 1156   9.438   1.828   7.847
   51POPC   GL2 1157   9.631   2.163   7.783
   51POPC   C1A 1158   9.399   1.929   7.351
   51POPC   D2A 1159   9.683   1.929   6.946
   51POPC   C3A 1160   9.499   1.963   6.532
   51POPC   C4A 1161   9.310   1.782   6.167
   51POPC   C1B 1162   9.789   2.270   7.354
   51POPC   C2B 1163   9.482   2.405   7.006
   51POPC   C3B 1164   9.478   2.475   6.547
   51POPC   C4B 1165   9.846   2.296   6.313
   52POPC   NC3 1166  10.470   2.293   8.132
   52POPC   PO4 1167  10.739   1.758   8.309
   52POPC   GL1 1168  10.791   2.110   7.761
   52POPC   GL2 1169  10.390   2.166   7.526
   52POPC   C1A 1170  10.775   2.116   7.246
   52POPC   D2A 1171  10.479   1.959   6.919
   52POPC   C3A 1172  10.555   2.150   6.543
   52POPC   C4A 1173  10.547   2.033   6.143
   52POPC   C1B 1174  10.100   1.847   7.274
   52POPC   C2B 1175  10.108   1.596   6.873
   52POPC   C3B 1176  10.123   1.873   6.486
   52POPC   C4B 1177  10.046   1.922   6.015
   53POPC   NC3 1178   2.900   5.794   8.297
   53POPC   PO4 1179   3.286   6.138   8.023
   53POPC   GL1 1180   2.927   5.918   7.773
   53POPC   GL2 1181   2.590   5.707   7.706
   53POPC   C1A 1182   2.916   5.822   7.323
   53POPC   D2A 1183   3.016   6.060   6.945
   53POPC   C3A 1184   2.983   5.824   6.566
   53POPC   C4A 1185   3.109   5.910   6.137
   53POPC   C1B 1186   2.404   5.728   7.247
   53POPC   C2B 1187   2.488   5.573   6.788
   53POPC   C3B 1188   2.513   5.809   6.384
   53POPC   C4B 1189   2.635   5.967   5.951
   54POPC   NC3 1190   8.951   9.325   8.090
   54POPC   PO4 1191   9.055   9.964   8.256
   54POPC   GL1 1192   8.848   9.828   7.790
   54POPC   GL2 1193   8.725   9.507   7.668
   54POPC   C1A 1194   8.732   9.951   7.321
   54POPC   D2A 1195   8.951   9.892   6.883
   54POPC   C3A 1196   8.718   9.759   6.481
   54POPC   C4A 1197   8.683   9.654   5.997
   54POPC   C1B 1198   9.063   9.540   7.327
   54POPC   C2B 1199   9.206   9.304   6.962
   54POPC   C3B 1200   9.244   9.347   6.518
   54POPC   C4B 1201   9.129   9.634   6.197
   55POPC   NC3 1202   9.801   0.289   8.010
   55POPC   PO4 1203   9.329  11.389   8.076
   55POPC   GL1 1204   9.301   0.103   7.682
   55POPC   GL2 1205   9.425   0.442   7.656
   55POPC   C1A 1206   9.503   0.079   7.277
   55POPC   D2A 1207   9.402   0.330   6.926
   55POPC   C3A 1208   9.259   0.104   6.576
   55POPC   C4A 1209   9.296   0.309   6.188
   55POPC   C1B 1210   9.721   0.531   7.303
   55POPC   C2B 1211   9.806   0.662   6.860
   55POPC   C3B 1212   9.662   0.506   6.484
   55POPC   C4B 1213   9.763   0.478   6.039
   56POPC   NC3 1214   0.319   8.226   8.255
   56POPC   PO4 1215   0.073   8.128   7.677
   56POPC   GL1 1216   0.387   7.986   7.533
   56POPC   GL2 1217   0.640   8.134   7.707
   56POPC   C1A 1218   0.440   8.019   7.111
   56POPC   D2A 1219   0.634   8.214   6.813
   56POPC   C3A 1220   0.401   8.269   6.469
   56POPC   C4A 1221   0.381   8.042   6.128
   56POPC   C1B 1222   0.826   7.823   7.376
   56POPC   C2B 1223   0.788   7.683   6.905
   56POPC   C3B 1224   0.768   7.863   6.458
   56POPC   C4B 1225   0.800   7.842   5.964
   57POPC   NC3 1226   0.577   4.008   7.909
   57POPC   PO4 1227   0.385   3.373   8.080
   57POPC   GL1 1228   0.406   3.574   7.701
   57POPC   GL2 1229   0.592   3.291   7.599
   57POPC   C1A 1230   0.442   3.812   7.304
   57POPC   D2A 1231   0.674   3.905   6.916
   57POPC   C3A 1232   0.523   3.855   6.533
   57POPC   C4A 1233   0.631   3.717   6.129
   57POPC   C1B 1234   0.266   3.332   7.274
   57POPC   C2B 1235   0.363   3.490   6.879
   57POPC   C3B 1236   0.562   3.348   6.502
   57POPC   C4B 1237   0.193   3.458   6.220
   58POPC   NC3 1238   5.056  10.943   8.007
   58POPC   PO4 1239   4.499  11.370   8.018
   58POPC   GL1 1240   4.651  11.307   7.578
   58POPC   GL2 1241   4.900  11.096   7.566
   58POPC   C1A 1242   5.009  11.484   7.274
   58POPC   D2A 1243   5.223  11.381   6.899
   58POPC   C3A 1244   4.918  11.386   6.595
   58POPC   C4A 1245   4.985  11.469   6.163
   58POPC   C1B 1246   5.219  11.008   7.274
   58POPC   C2B 1247   5.207  10.851   6.857
   58POPC   C3B 1248   5.254  11.029   6.451
   58POPC   C4B 1249   5.206  10.964   6.032
   59POPC   NC3 1250   2.812   0.080   8.077
   59POPC   PO4 1251   2.539   0.680   8.029
   59POPC   GL1 1252   2.809   0.471   7.714
   59POPC   GL2 1253   2.562   0.229   7.628
   59POPC   C1A 1254   2.929   0.447   7.251
   59POPC   D2A 1255   2.627   0.342   6.899
   59POPC   C3A 1256   2.695   0.420   6.457
   59POPC   C4A 1257   2.941   0.147   6.175
   59POPC   C1B 1258   2.426   0.571   7.333
   59POPC   C2B 1259   2.247   0.786   6.952
   59POPC   C3B 1260   2.213   0.785   6.509
   59POPC   C4B 1261   2.495   0.746   6.118
   60POPC   NC3 1262   9.055   1.242   8.280
   60POPC   PO4 1263   8.417   1.393   8.134
   60POPC   GL1 1264   8.551   1.381   7.628
   60POPC   GL2 1265   8.837   1.161   7.561
   60POPC   C1A 1266   8.617   1.259   7.142
   60POPC   D2A 1267   8.886   1.274   6.792
   60POPC   C3A 1268   8.612   1.384   6.460
   60POPC   C4A 1269   8.671   1.366   5.967
   60POPC   C1B 1270   9.174   1.162   7.249
   60POPC   C2B 1271   9.333   0.869   6.960
   60POPC   C3B 1272   9.260   1.011   6.579
   60POPC   C4B 1273   9.075   1.325   6.294
   61POPC   NC3 1274   2.268  10.416   7.945
   61POPC   PO4 1275   1.668  10.687   8.128
   61POPC   GL1 1276   1.811  10.514   7.729
   61POPC   GL2 1277   1.850  10.136   7.743
   61POPC   C1A 1278   1.851  10.657   7.319
   61POPC   D2A 1279   1.694  10.814   6.942
   61POPC   C3A 1280   1.907  10.711   6.581
   61POPC   C4A 1281   1.839  10.599   6.204
   61POPC   C1B 1282   2.082  10.187   7.345
   61POPC   C2B 1283   2.025  10.366   6.926
   61POPC   C3B 1284   2.119  10.196   6.491
   61POPC   C4B 1285   2.034  10.188   6.028
   62POPC   NC3 1286   0.387   4.562   8.291
   62POPC   PO4 1287   0.117   4.040   7.982
   62POPC   GL1 1288   0.124   4.384   7.706
   62POPC   GL2 1289   0.413   4.586   7.783
   62POPC   C1A 1290   0.211   4.276   7.277
   62POPC   D2A 1291   0.176   4.028   6.922
   62POPC   C3A 1292   0.196   4.257   6.572
   62POPC   C4A 1293   0.210   4.025   6.185
   62POPC   C1B 1294   0.567   4.619   7.380
   62POPC   C2B 1295   0.630   4.466   6.960
   62POPC   C3B 1296   0.533   4.641   6.569
   62POPC   C4B 1297   0.533   4.429   6.186
   63POPC   NC3 1298   1.099   8.833   8.104
   63POPC   PO4 1299   1.497   9.452   8.099
   63POPC   GL1 1300   1.380   9.171   7.758
   63POPC   GL2 1301   1.035   9.115   7.690
   63POPC   C1A 1302   1.349   9.156   7.296
   63POPC   D2A 1303   1.090   9.156   6.946
   63POPC   C3A 1304   1.271   9.251   6.561
   63POPC   C4A 1305   1.379   9.043   6.202
   63POPC   C1B 1306   0.936   8.856   7.344
   63POPC   C2B 1307   1.179   8.648   7.005
   63POPC   C3B 1308   1.142   8.747   6.560
   63POPC   C4B 1309   0.853   8.819   6.216
   64POPC   NC3 1310   9.802  10.925   8.069
   64POPC   PO4 1311  10.204   0.094   8.172
   64POPC   GL1 1312  10.077  11.297   7.832
   64POPC   GL2 1313   9.721  11.323   7.725
   64POPC   C1A 1314  10.009  11.061   7.414
   64POPC   D2A 1315   9.795  11.196   7.046
   64POPC   C3A 1316   9.882  11.199   6.599
   64POPC   C4A 1317   9.897  10.912   6.239
   64POPC   C1B 1318   9.432  11.097   7.399
   64POPC   C2B 1319   9.304  11.150   6.919
   64POPC   C3B 1320   9.403  11.136   6.436
   64POPC   C4B 1321   9.221  11.338   6.030
   65POPC   NC3 1322   0.718   7.760   8.098
   65POPC   PO4 1323   1.349   7.642   8.138
   65POPC   GL1 1324   1.115   7.639   7.770
   65POPC   GL2 1325   0.885   7.343   7.829
   65POPC   C1A 1326   1.305   7.690   7.353
   65POPC   D2A 1327   1.489   7.810   6.967
   65POPC   C3A 1328   1.249   7.757   6.628
   65POPC   C4A 1329   1.172   7.618   6.246
   65POPC   C1B 1330   0.916   7.298   7.375
   65POPC   C2B 1331   0.943   7.121   6.949
   65POPC   C3B 1332   1.029   7.174   6.512
   65POPC   C4B 1333   1.481   7.243   6.386
   66POPC   NC3 1334   9.005   0.260   8.095
   66POPC   PO4 1335   9.277   0.856   8.122
   66POPC   GL1 1336   8.994   0.707   7.734
   66POPC   GL2 1337   8.849   0.367   7.633
   66POPC   C1A 1338   8.919   0.715   7.254
   66POPC   D2A 1339   8.688   0.823   6.848
   66POPC   C3A 1340   8.747   0.919   6.352
   66POPC   C4A 1341   8.617   0.821   5.879
   66POPC   C1B 1342   8.995   0.190   7.266
   66POPC   C2B 1343   8.869   0.334   6.891
   66POPC   C3B 1344   9.011   0.542   6.557
   66POPC   C4B 1345   8.786   0.445   6.193
   67POPC   NC3 1346   4.270   2.831   8.098
   67POPC   PO4 1347   3.642   3.078   7.995
   67POPC   GL1 1348   3.954   3.023   7.665
   67POPC   GL2 1349   4.271   2.822   7.577
   67POPC   C1A 1350   3.899   2.923   7.228
   67POPC   D2A 1351   4.098   2.751   6.864
   67POPC   C3A 1352   4.224   2.960   6.454
   67POPC   C4A 1353   4.533   3.095   6.149
   67POPC   C1B 1354   4.279   2.442   7.275
   67POPC   C2B 1355   4.232   2.259   6.881
   67POPC   C3B 1356   4.224   2.439   6.487
   67POPC   C4B 1357   4.551   2.578   6.221
   68POPC   NC3 1358   9.951   9.355   8.108
   68POPC   PO4 1359   9.802   8.702   8.034
   68POPC   GL1 1360   9.725   8.974   7.695
   68POPC   GL2 1361   9.350   9.042   7.673
   68POPC   C1A 1362   9.971   9.025   7.319
   68POPC   D2A 1363   9.913   8.755   6.941
   68POPC   C3A 1364   9.909   8.877   6.503
   68POPC   C4A 1365   9.921   9.110   6.120
   68POPC   C1B 1366   9.461   8.909   7.215
   68POPC   C2B 1367   9.466   8.924   6.739
   68POPC   C3B 1368   9.416   8.868   6.345
   68POPC   C4B 1369   9.181   8.489   6.429
   69POPC   NC3 1370  11.456   3.618   8.120
   69POPC   PO4 1371  10.724   3.591   7.962
   69POPC   GL1 1372  10.814   3.558   7.578
   69POPC   GL2 1373  11.124   3.395   7.645
   69POPC   C1A 1374  10.840   3.748   7.203
   69POPC   D2A 1375  10.913   3.614   6.801
   69POPC   C3A 1376  10.746   3.843   6.473
   69POPC   C4A 1377  11.034   3.652   6.157
   69POPC   C1B 1378  11.279   3.146   7.302
   69POPC   C2B 1379  11.346   3.258   6.866
   69POPC   C3B 1380  11.245   3.225   6.416
   69POPC   C4B 1381  10.958   2.919   6.220
   70POPC   NC3 1382   1.247   6.017   7.893
   70POPC   PO4 1383   0.906   5.501   8.076
   70POPC   GL1 1384   1.018   5.631   7.647
   70POPC   GL2 1385   1.377   5.568   7.675
   70POPC   C1A 1386   0.877   5.533   7.214
   70POPC   D2A 1387   0.739   5.525   6.790
   70POPC   C3A 1388   0.994   5.281   6.500
   70POPC   C4A 1389   1.103   5.397   6.064
   70POPC   C1B 1390   1.352   5.758   7.259
   70POPC   C2B 1391   1.273   5.581   6.857
   70POPC   C3B 1392   1.173   5.750   6.471
   70POPC   C4B 1393   1.353   5.886   6.092
   71POPC   NC3 1394  10.018   6.731   8.046
   71POPC   PO4 1395   9.977   6.044   8.147
   71POPC   GL1 1396  10.275   6.206   7.807
   71POPC   GL2 1397  10.511   6.509   7.878
   71POPC   C1A 1398  10.375   6.328   7.363
   71POPC   D2A 1399  10.583   6.347   6.952
   71POPC   C3A 1400  10.319   6.460   6.641
   71POPC   C4A 1401  10.021   6.449   6.326
   71POPC   C1B 1402  10.719   6.683   7.492
   71POPC   C2B 1403  10.661   6.854   7.048
   71POPC   C3B 1404  10.706   6.796   6.586
   71POPC   C4B 1405  10.467   6.703   6.200
   72POPC   NC3 1406   2.781   1.063   7.918
   72POPC   PO4 1407   3.154   1.580   8.136
   72POPC   GL1 1408   3.090   1.423   7.701
   72POPC   GL2 1409   2.734   1.463   7.608
   72POPC   C1A 1410   3.048   1.281   7.252
   72POPC   D2A 1411   2.776   1.375   6.952
   72POPC   C3A 1412   2.865   1.441   6.552
   72POPC   C4A 1413   2.687   1.622   6.220
   72POPC   C1B 1414   2.554   1.098   7.323
   72POPC   C2B 1415   2.751   0.858   6.998
   72POPC   C3B 1416   2.705   0.935   6.568
   72POPC   C4B 1417   2.437   1.203   6.337
   73POPC   NC3 1418   9.591   7.624   8.067
   73POPC   PO4 1419   9.632   6.977   8.041
   73POPC   GL1 1420   9.573   7.302   7.666
   73POPC   GL2 1421   9.820   7.576   7.622
   73POPC   C1A 1422   9.551   7.460   7.193
   73POPC   D2A 1423   9.479   7.427   6.703
   73POPC   C3A 1424   9.578   7.075   6.392
   73POPC   C4A 1425   9.563   6.862   5.956
   73POPC   C1B 1426   9.962   7.201   7.353
   73POPC   C2B 1427   9.966   7.281   6.897
   73POPC   C3B 1428   9.949   7.449   6.462
   73POPC   C4B 1429   9.971   7.175   6.070
   74POPC   NC3 1430  10.525   3.983   8.095
   74POPC   PO4 1431  10.806   4.554   7.802
   74POPC   GL1 1432  10.593   4.459   7.489
   74POPC   GL2 1433  10.403   4.244   7.675
   74POPC   C1A 1434  10.758   4.321   7.121
   74POPC   D2A 1435  10.714   4.567   6.797
   74POPC   C3A 1436  10.643   4.412   6.411
   74POPC   C4A 1437  10.660   4.579   6.005
   74POPC   C1B 1438  10.416   4.006   7.324
   74POPC   C2B 1439  10.471   3.958   6.910
   74POPC   C3B 1440  10.252   4.141   6.626
   74POPC   C4B 1441  10.307   4.089   6.228
   75POPC   NC3 1442   4.998  10.335   8.310
   75POPC   PO4 1443   4.944   9.695   8.012
   75POPC   GL1 1444   4.887  10.077   7.746
   75POPC   GL2 1445   5.037  10.419   7.773
   75POPC   C1A 1446   5.055  10.134   7.307
   75POPC   D2A 1447   5.115  10.316   6.879
   75POPC   C3A 1448   4.948  10.028   6.528
   75POPC   C4A 1449   5.073   9.812   6.115
   75POPC   C1B 1450   4.898  10.615   7.360
   75POPC   C2B 1451   4.713  10.654   6.918
   75POPC   C3B 1452   4.886  10.573   6.483
   75POPC   C4B 1453   5.063  10.325   6.129
   76POPC   NC3 1454   7.578   8.200   8.096
   76POPC   PO4 1455   6.990   8.327   7.969
   76POPC   GL1 1456   7.183   8.444   7.592
   76POPC   GL2 1457   7.419   8.206   7.601
   76POPC   C1A 1458   7.124   8.463   7.152
   76POPC   D2A 1459   7.177   8.195   6.775
   76POPC   C3A 1460   7.051   8.311   6.376
   76POPC   C4A 1461   7.080   8.632   6.063
   76POPC   C1B 1462   7.464   8.081   7.191
   76POPC   C2B 1463   7.647   7.998   6.786
   76POPC   C3B 1464   7.432   7.926   6.385
   76POPC   C4B 1465   7.515   7.815   5.935
   77POPC   NC3 1466   2.362  11.060   8.406
   77POPC   PO4 1467   3.046  11.257   8.302
   77POPC   GL1 1468   2.781  11.271   7.722
   77POPC   GL2 1469   2.495  11.112   7.730
   77POPC   C1A 1470   2.810  11.456   7.283
   77POPC   D2A 1471   2.893  11.351   6.857
   77POPC   C3A 1472   2.652  11.427   6.538
   77POPC   C4A 1473   2.436  11.426   6.169
   77POPC   C1B 1474   2.707  10.970   7.330
   77POPC   C2B 1475   2.703  10.869   6.922
   77POPC   C3B 1476   2.785  10.942   6.503
   77POPC   C4B 1477   2.599  10.927   6.099
   78POPC   NC3 1478   7.980   0.571   8.078
   78POPC   PO4 1479   8.633   0.550   8.072
   78POPC   GL1 1480   8.379   0.581   7.716
   78POPC   GL2 1481   8.193   0.285   7.722
   78POPC   C1A 1482   8.453   0.477   7.297
   78POPC   D2A 1483   8.245   0.600   6.941
   78POPC   C3A 1484   8.432   0.479   6.563
   78POPC   C4A 1485   8.226   0.579   6.199
   78POPC   C1B 1486   7.833   0.325   7.426
   78POPC   C2B 1487   7.874   0.259   6.989
   78POPC   C3B 1488   7.878   0.440   6.579
   78POPC   C4B 1489   7.729   0.157   6.280
   79POPC   NC3 1490   2.055   0.464   8.106
   79POPC   PO4 1491   2.377  11.419   8.124
   79POPC   GL1 1492   2.093   0.063   7.766
   79POPC   GL2 1493   1.831   0.342   7.660
   79POPC   C1A 1494   2.146   0.083   7.322
   79POPC   D2A 1495   2.378  11.392   6.985
   79POPC   C3A 1496   2.163   0.054   6.597
   79POPC   C4A 1497   2.178   0.352   6.255
   79POPC   C1B 1498   1.907   0.553   7.279
   79POPC   C2B 1499   1.884   0.396   6.855
   79POPC   C3B 1500   1.743   0.571   6.451
   79POPC   C4B 1501   1.711   0.489   6.001
   80POPC   NC3 1502  10.795   3.294   8.305
   80POPC   PO4 1503  10.117   3.371   8.285
   80POPC   GL1 1504  10.294   3.406   7.795
   80POPC   GL2 1505  10.295   3.725   7.701
   80POPC   C1A 1506  10.598   3.104   7.518
   80POPC   D2A 1507  10.808   3.228   7.141
   80POPC   C3A 1508  10.827   3.091   6.724
   80POPC   C4A 1509  10.729   3.340   6.392
   80POPC   C1B 1510  10.385   3.504   7.288
   80POPC   C2B 1511  10.413   3.462   6.826
   80POPC   C3B 1512  10.285   3.601   6.405
   80POPC   C4B 1513  10.517   3.636   6.012
   81POPC   NC3 1514  10.859   6.756   8.252
   81POPC   PO4 1515  10.341   7.064   8.077
   81POPC   GL1 1516  10.395   7.098   7.647
   81POPC   GL2 1517  10.294   7.434   7.666
   81POPC   C1A 1518  10.564   7.312   7.267
   81POPC   D2A 1519  10.689   7.362   6.868
   81POPC   C3A 1520  10.395   7.199   6.602
   81POPC   C4A 1521  10.453   7.218   6.183
   81POPC   C1B 1522  10.177   7.639   7.251
   81POPC   C2B 1523  10.297   7.679   6.832
   81POPC   C3B 1524  10.458   7.679   6.433
   81POPC   C4B 1525  10.215   7.678   6.096
   82POPC   NC3 1526   0.509   9.907   7.917
   82POPC   PO4 1527   0.736   9.212   8.090
   82POPC   GL1 1528   0.662   9.456   7.732
   82POPC   GL2 1529   0.283   9.469   7.745
   82POPC   C1A 1530   0.839   9.410   7.310
   82POPC   D2A 1531   0.696   9.639   6.927
   82POPC   C3A 1532   0.584   9.615   6.474
   82POPC   C4A 1533   0.881   9.449   6.180
   82POPC   C1B 1534   0.343   9.559   7.326
   82POPC   C2B 1535   0.237   9.862   7.029
   82POPC   C3B 1536  11.491   9.996   6.698
   82POPC   C4B 1537   0.106   9.888   6.277
   83POPC   NC3 1538   3.449   1.942   8.159
   83POPC   PO4 1539   3.972   1.452   7.923
   83POPC   GL1 1540   3.629   1.747   7.688
   83POPC   GL2 1541   3.618   2.068   7.481
   83POPC   C1A 1542   3.392   1.641   7.334
   83POPC   D2A 1543   3.576   1.647   6.939
   83POPC   C3A 1544   3.381   1.561   6.569
   83POPC   C4A 1545   3.541   1.785   6.231
   83POPC   C1B 1546   3.364   2.125   7.150
   83POPC   C2B 1547   3.227   2.296   6.813
   83POPC   C3B 1548   3.420   2.281   6.421
   83POPC   C4B 1549   3.825   2.232   6.240
   84POPC   NC3 1550   6.689  10.779   7.978
   84POPC   PO4 1551   7.044  10.254   8.147
   84POPC   GL1 1552   6.824  10.351   7.731
   84POPC   GL2 1553   6.419  10.394   7.758
   84POPC   C1A 1554   6.746  10.609   7.339
   84POPC   D2A 1555   6.490  10.611   6.955
   84POPC   C3A 1556   6.609  10.460   6.541
   84POPC   C4A 1557   6.691  10.697   6.198
   84POPC   C1B 1558   6.437  10.207   7.332
   84POPC   C2B 1559   6.567  10.092   6.908
   84POPC   C3B 1560   6.397   9.997   6.494
   84POPC   C4B 1561   6.581   9.902   6.092
   85POPC   NC3 1562   9.612   2.759   7.966
   85POPC   PO4 1563   9.027   2.450   7.936
   85POPC   GL1 1564   9.185   2.793   7.660
   85POPC   GL2 1565   9.430   2.589   7.513
   85POPC   C1A 1566   9.316   3.046   7.257
   85POPC   D2A 1567   9.472   2.903   6.841
   85POPC   C3A 1568   9.435   3.022   6.435
   85POPC   C4A 1569   9.503   2.759   6.086
   85POPC   C1B 1570   9.736   2.769   7.237
   85POPC   C2B 1571   9.958   2.645   6.875
   85POPC   C3B 1572   9.885   2.779   6.464
   85POPC   C4B 1573   9.978   2.965   6.092
   86POPC   NC3 1574   0.141   9.156   8.129
   86POPC   PO4 1575  11.466   8.544   8.217
   86POPC   GL1 1576   0.280   8.594   7.805
   86POPC   GL2 1577   0.649   8.742   7.801
   86POPC   C1A 1578   0.477   8.542   7.343
   86POPC   D2A 1579   0.679   8.697   6.932
   86POPC   C3A 1580   0.375   8.760   6.601
   86POPC   C4A 1581   0.286   8.680   6.163
   86POPC   C1B 1582   0.473   9.048   7.475
   86POPC   C2B 1583   0.495   9.160   7.022
   86POPC   C3B 1584   0.719   9.142   6.616
   86POPC   C4B 1585   0.472   9.154   6.261
   87POPC   NC3 1586   6.702   2.780   7.976
   87POPC   PO4 1587   7.250   2.369   7.837
   87POPC   GL1 1588   6.913   2.345   7.561
   87POPC   GL2 1589   6.587   2.450   7.590
   87POPC   C1A 1590   6.752   2.296   7.138
   87POPC   D2A 1591   6.673   2.510   6.760
   87POPC   C3A 1592   6.575   2.354   6.353
   87POPC   C4A 1593   6.761   2.640   6.027
   87POPC   C1B 1594   6.493   2.730   7.230
   87POPC   C2B 1595   6.408   2.945   6.822
   87POPC   C3B 1596   6.390   2.826   6.378
   87POPC   C4B 1597   6.157   2.919   5.991
   88POPC   NC3 1598   5.978  10.384   8.113
   88POPC   PO4 1599   5.342  10.601   8.160
   88POPC   GL1 1600   5.532  10.574   7.741
   88POPC   GL2 1601   5.855  10.700   7.722
   88POPC   C1A 1602   5.431  10.513   7.291
   88POPC   D2A 1603   5.634  10.561   6.873
   88POPC   C3A 1604   5.400  10.530   6.473
   88POPC   C4A 1605   5.481  10.540   5.997
   88POPC   C1B 1606   5.994  10.487   7.353
   88POPC   C2B 1607   6.090  10.319   6.939
   88POPC   C3B 1608   6.078  10.490   6.568
   88POPC   C4B 1609   5.829  10.326   6.290
   89POPC   NC3 1610   1.071   1.939   7.942
   89POPC   PO4 1611   1.611   2.243   8.187
   89POPC   GL1 1612   1.611   2.063   7.726
   89POPC   GL2 1613   1.391   1.791   7.595
   89POPC   C1A 1614   1.438   2.193   7.297
   89POPC   D2A 1615   1.220   2.225   6.923
   89POPC   C3A 1616   1.452   2.222   6.555
   89POPC   C4A 1617   1.160   2.366   6.267
   89POPC   C1B 1618   1.081   1.810   7.262
   89POPC   C2B 1619   0.944   1.779   6.848
   89POPC   C3B 1620   1.190   1.796   6.496
   89POPC   C4B 1621   1.390   1.494   6.233
   90POPC   NC3 1622   6.101   0.589   8.003
   90POPC   PO4 1623   6.846   0.514   8.050
   90POPC   GL1 1624   6.774   0.365   7.685
   90POPC   GL2 1625   6.886   0.071   7.661
   90POPC   C1A 1626   6.818   0.384   7.251
   90POPC   D2A 1627   6.613   0.585   6.928
   90POPC   C3A 1628   6.796   0.570   6.507
   90POPC   C4A 1629   6.724   0.814   6.110
   90POPC   C1B 1630   6.445   0.105   7.410
   90POPC   C2B 1631   6.429   0.074   6.979
   90POPC   C3B 1632   6.330   0.306   6.607
   90POPC   C4B 1633   6.347   0.271   6.202
   91POPC   NC3 1634   4.400   1.863   8.003
   91POPC   PO4 1635   3.873   2.126   8.199
   91POPC   GL1 1636   4.056   2.018   7.684
   91POPC   GL2 1637   4.180   1.734   7.549
   91POPC   C1A 1638   3.948   1.945   7.165
   91POPC   D2A 1639   3.799   2.046   6.731
   91POPC   C3A 1640   4.168   1.936   6.463
   91POPC   C4A 1641   4.302   2.163   6.065
   91POPC   C1B 1642   4.448   1.888   7.180
   91POPC   C2B 1643   4.562   1.755   6.733
   91POPC   C3B 1644   4.667   1.895   6.281
   91POPC   C4B 1645   4.521   1.759   5.840
   92POPC   NC3 1646   7.620  11.154   7.908
   92POPC   PO4 1647   6.905  11.211   8.018
   92POPC   GL1 1648   7.035  10.984   7.602
   92POPC   GL2 1649   7.322  11.157   7.489
   92POPC   C1A 1650   7.095  10.906   7.107
   92POPC   D2A 1651   7.199  11.153   6.725
   92POPC   C3A 1652   6.972  11.091   6.352
   92POPC   C4A 1653   7.073  10.888   5.936
   92POPC   C1B 1654   7.682  11.323   7.238
   92POPC   C2B 1655   7.835  11.238   6.833
   92POPC   C3B 1656   7.706  11.141   6.422
   92POPC   C4B 1657   7.401  11.249   6.137
   93POPC   NC3 1658   0.429  10.468   8.133
   93POPC   PO4 1659   0.055   9.932   7.924
   93POPC   GL1 1660   0.201  10.030   7.517
   93POPC   GL2 1661   0.422  10.320   7.610
   93POPC   C1A 1662   0.152  10.342   7.167
   93POPC   D2A 1663   0.290  10.614   6.831
   93POPC   C3A 1664   0.177  10.417   6.465
   93POPC   C4A 1665   0.521  10.127   6.453
   93POPC   C1B 1666   0.598  10.550   7.247
   93POPC   C2B 1667   0.827  10.725   6.929
   93POPC   C3B 1668   0.733  10.613   6.547
   93POPC   C4B 1669   0.533  10.623   6.166
   94POPC   NC3 1670   4.248   0.281   8.198
   94POPC   PO4 1671   4.654   0.720   7.915
   94POPC   GL1 1672   4.330   0.556   7.628
   94POPC   GL2 1673   4.354   0.224   7.664
   94POPC   C1A 1674   4.104   0.438   7.212
   94POPC   D2A 1675   3.904   0.293   6.807
   94POPC   C3A 1676   4.078   0.440   6.417
   94POPC   C4A 1677   4.381   0.725   6.211
   94POPC   C1B 1678   4.523   0.151   7.243
   94POPC   C2B 1679   4.521   0.133   6.821
   94POPC   C3B 1680   4.531   0.180   6.402
   94POPC   C4B 1681   4.464  11.363   6.092
   95POPC   NC3 1682   7.197   1.912   7.934
   95POPC   PO4 1683   7.739   2.068   8.292
   95POPC   GL1 1684   7.662   2.068   7.763
   95POPC   GL2 1685   7.488   1.784   7.543
   95POPC   C1A 1686   7.593   2.172   7.252
   95POPC   D2A 1687   7.436   1.972   6.826
   95POPC   C3A 1688   7.496   2.179   6.411
   95POPC   C4A 1689   7.486   2.032   5.984
   95POPC   C1B 1690   7.127   1.960   7.233
   95POPC   C2B 1691   6.919   1.986   6.764
   95POPC   C3B 1692   6.999   2.050   6.290
   95POPC   C4B 1693   6.746   2.147   5.909
   96POPC   NC3 1694  11.144   4.338   8.050
   96POPC   PO4 1695  11.058   3.701   8.355
   96POPC   GL1 1696  11.130   3.876   7.843
   96POPC   GL2 1697  10.900   4.065   7.636
   96POPC   C1A 1698  11.315   3.840   7.376
   96POPC   D2A 1699  11.171   4.044   6.940
   96POPC   C3A 1700  11.269   3.953   6.489
   96POPC   C4A 1701  10.975   4.147   6.142
   96POPC   C1B 1702  11.209   4.339   7.365
   96POPC   C2B 1703  11.201   4.562   6.961
   96POPC   C3B 1704  11.145   4.433   6.545
   96POPC   C4B 1705  11.415   4.425   6.185
   97POPC   NC3 1706   8.112   1.755   8.306
   97POPC   PO4 1707   8.602   2.178   8.279
   97POPC   GL1 1708   8.520   1.874   7.866
   97POPC   GL2 1709   8.184   1.709   7.792
   97POPC   C1A 1710   8.507   1.828   7.384
   97POPC   D2A 1711   8.270   1.963   6.994
   97POPC   C3A 1712   8.426   1.931   6.552
   97POPC   C4A 1713   8.298   1.685   6.234
   97POPC   C1B 1714   7.983   1.875   7.427
   97POPC   C2B 1715   7.814   1.717   7.035
   97POPC   C3B 1716   7.887   1.842   6.597
   97POPC   C4B 1717   8.020   2.112   6.256
   98POPC   NC3 1718  11.099   5.865   8.100
   98POPC   PO4 1719   0.126   6.069   7.860
   98POPC   GL1 1720  11.286   5.965   7.630
   98POPC   GL2 1721  11.125   5.646   7.653
   98POPC   C1A 1722  11.318   5.849   7.215
   98POPC   D2A 1723  11.234   5.605   6.848
   98POPC   C3A 1724  11.215   5.822   6.458
   98POPC   C4A 1725  11.001   5.995   6.101
   98POPC   C1B 1726  10.887   5.501   7.306
   98POPC   C2B 1727  10.729   5.556   6.902
   98POPC   C3B 1728  10.861   5.418   6.513
   98POPC   C4B 1729  10.806   5.554   6.116
   99POPC   NC3 1730   1.541   6.521   8.233
   99POPC   PO4 1731   0.939   6.381   7.952
   99POPC   GL1 1732   1.250   6.449   7.642
   99POPC   GL2 1733   1.349   6.790   7.683
   99POPC   C1A 1734   1.182   6.261   7.238
   99POPC   D2A 1735   1.280   6.094   6.834
   99POPC   C3A 1736   1.170   6.260   6.424
   99POPC   C4A 1737   1.495   6.389   6.139
   99POPC   C1B 1738   1.017   6.754   7.312
   99POPC   C2B 1739   1.130   6.622   6.871
   99POPC   C3B 1740   1.301   6.747   6.467
   99POPC   C4B 1741   1.092   6.686   6.072
  100POPC   NC3 1742   1.349   4.363   8.032
  100POPC   PO4 1743   0.799   4.686   8.126
  100POPC   GL1 1744   0.921   4.413   7.703
  100POPC   GL2 1745   1.265   4.174   7.576
  100POPC   C1A 1746   0.852   4.171   7.312
  100POPC   D2A 1747   1.123   4.119   6.934
  100POPC   C3A 1748   0.877   4.237   6.563
  100POPC   C4A 1749   0.992   4.145   6.152
  100POPC   C1B 1750   1.319   4.475   7.284
  100POPC   C2B 1751   1.374   4.552   6.855
  100POPC   C3B 1752   1.371   4.325   6.464
  100POPC   C4B 1753   1.390   4.506   6.059
  101POPC   NC3 1754   7.234   9.826   8.119
  101POPC   PO4 1755   7.202   9.215   7.932
  101POPC   GL1 1756   7.476   9.379   7.614
  101POPC   GL2 1757   7.478   9.725   7.664
  101POPC   C1A 1758   7.365   9.443   7.166
  101POPC   D2A 1759   7.514   9.527   6.763
  101POPC   C3A 1760   7.293   9.690   6.409
  101POPC   C4A 1761   7.080   9.469   6.093
  101POPC   C1B 1762   7.216   9.904   7.320
  101POPC   C2B 1763   7.115   9.941   6.840
  101POPC   C3B 1764   6.991  10.112   6.398
  101POPC   C4B 1765   7.064   9.957   5.943
  102POPC   NC3 1766   2.161   8.590   7.992
  102POPC   PO4 1767   1.472   8.536   8.109
  102POPC   GL1 1768   1.679   8.574   7.720
  102POPC   GL2 1769   1.822   8.893   7.750
  102POPC   C1A 1770   1.620   8.733   7.283
  102POPC   D2A 1771   1.586   8.950   6.856
  102POPC   C3A 1772   1.673   8.701   6.461
  102POPC   C4A 1773   1.777   8.393   6.130
  102POPC   C1B 1774   2.102   8.819   7.396
  102POPC   C2B 1775   2.080   8.943   7.001
  102POPC   C3B 1776   2.148   8.865   6.608
  102POPC   C4B 1777   2.199   8.720   6.222
  103POPC   NC3 1778   2.991   6.441   7.891
  103POPC   PO4 1779   2.491   5.986   8.121
  103POPC   GL1 1780   2.510   6.209   7.697
  103POPC   GL2 1781   2.485   6.555   7.710
  103POPC   C1A 1782   2.595   6.205   7.245
  103POPC   D2A 1783   2.534   6.062   6.812
  103POPC   C3A 1784   2.731   6.255   6.392
  103POPC   C4A 1785   2.522   6.463   6.005
  103POPC   C1B 1786   2.556   6.704   7.277
  103POPC   C2B 1787   2.628   6.548   6.853
  103POPC   C3B 1788   2.675   6.745   6.455
  103POPC   C4B 1789   2.944   6.754   6.098
  104POPC   NC3 1790   7.737   1.333   8.417
  104POPC   PO4 1791   7.146   1.439   8.013
  104POPC   GL1 1792   7.311   1.293   7.600
  104POPC   GL2 1793   7.524   0.982   7.698
  104POPC   C1A 1794   7.352   1.493   7.144
  104POPC   D2A 1795   7.507   1.461   6.691
  104POPC   C3A 1796   7.337   1.605   6.253
  104POPC   C4A 1797   7.475   1.507   5.768
  104POPC   C1B 1798   7.582   1.036   7.245
  104POPC   C2B 1799   7.224   1.031   6.951
  104POPC   C3B 1800   7.064   1.035   6.532
  104POPC   C4B 1801   7.463   1.099   6.319
  105POPC   NC3 1802   3.712  10.293   8.190
  105POPC   PO4 1803   3.033  10.257   7.999
  105POPC   GL1 1804   3.194  10.340   7.655
  105POPC   GL2 1805   3.443  10.530   7.814
  105POPC   C1A 1806   3.279  10.108   7.265
  105POPC   D2A 1807   3.469  10.229   6.899
  105POPC   C3A 1808   3.253  10.112   6.532
  105POPC   C4A 1809   3.488  10.076   6.196
  105POPC   C1B 1810   3.577  10.516   7.375
  105POPC   C2B 1811   3.645  10.699   6.981
  105POPC   C3B 1812   3.509  10.632   6.555
  105POPC   C4B 1813   3.806  10.494   6.233
  106POPC   NC3 1814   0.608   6.771   7.994
  106POPC   PO4 1815   0.326   6.266   8.358
  106POPC   GL1 1816   0.180   6.549   7.915
  106POPC   GL2 1817   0.460   6.416   7.669
  106POPC   C1A 1818   0.076   6.606   7.420
  106POPC   D2A 1819   0.056   6.392   6.995
  106POPC   C3A 1820   0.181   6.613   6.586
  106POPC   C4A 1821   0.281   6.616   6.143
  106POPC   C1B 1822   0.557   6.461   7.234
  106POPC   C2B 1823   0.610   6.717   6.878
  106POPC   C3B 1824   0.783   6.632   6.483
  106POPC   C4B 1825   0.711   6.342   6.159
  107POPC   NC3 1826   5.823  11.135   8.115
  107POPC   PO4 1827   5.219  11.396   7.928
  107POPC   GL1 1828   5.546  11.122   7.677
  107POPC   GL2 1829   5.943  11.212   7.654
  107POPC   C1A 1830   5.729  10.932   7.288
  107POPC   D2A 1831   6.012  10.907   6.954
  107POPC   C3A 1832   5.739  11.037   6.652
  107POPC   C4A 1833   5.726  10.875   6.273
  107POPC   C1B 1834   6.039  11.336   7.305
  107POPC   C2B 1835   5.933  11.441   6.955
  107POPC   C3B 1836   6.142  11.346   6.611
  107POPC   C4B 1837   5.989  11.363   6.232
  108POPC   NC3 1838   9.919   3.707   8.054
  108POPC   PO4 1839   9.851   3.119   7.840
  108POPC   GL1 1840   9.882   3.421   7.505
  108POPC   GL2 1841   9.811   3.762   7.510
  108POPC   C1A 1842   9.932   3.467   7.071
  108POPC   D2A 1843   9.905   3.167   6.796
  108POPC   C3A 1844   9.829   3.348   6.401
  108POPC   C4A 1845   9.628   3.344   5.999
  108POPC   C1B 1846   9.461   3.572   7.220
  108POPC   C2B 1847   9.420   3.410   6.776
  108POPC   C3B 1848   9.312   3.562   6.339
  108POPC   C4B 1849   9.506   3.848   6.015
  109POPC   NC3 1850   2.050   4.557   8.065
  109POPC   PO4 1851   2.032   3.954   8.102
  109POPC   GL1 1852   1.779   4.132   7.758
  109POPC   GL2 1853   2.097   4.169   7.608
  109POPC   C1A 1854   1.700   4.131   7.279
  109POPC   D2A 1855   1.745   4.195   6.807
  109POPC   C3A 1856   1.802   4.589   6.534
  109POPC   C4A 1857   1.893   4.792   6.129
  109POPC   C1B 1858   2.180   3.904   7.233
  109POPC   C2B 1859   2.245   4.028   6.790
  109POPC   C3B 1860   2.265   4.198   6.365
  109POPC   C4B 1861   1.906   4.280   6.113
  110POPC   NC3 1862  10.156   8.380   8.039
  110POPC   PO4 1863  10.323   9.105   8.214
  110POPC   GL1 1864  10.245   8.884   7.802
  110POPC   GL2 1865  10.525   8.659   7.787
  110POPC   C1A 1866  10.177   8.581   7.407
  110POPC   D2A 1867  10.394   8.610   6.974
  110POPC   C3A 1868  10.272   8.536   6.544
  110POPC   C4A 1869  10.230   8.715   6.122
  110POPC   C1B 1870  10.595   8.858   7.381
  110POPC   C2B 1871  10.767   9.000   7.000
  110POPC   C3B 1872  10.816   8.960   6.553
  110POPC   C4B 1873  10.684   8.934   6.122
  111POPC   NC3 1874   0.569   0.496   8.058
  111POPC   PO4 1875   0.334  11.388   8.120
  111POPC   GL1 1876   0.534   0.069   7.712
  111POPC   GL2 1877   0.467   0.406   7.565
  111POPC   C1A 1878   0.446   0.019   7.244
  111POPC   D2A 1879   0.380   0.246   6.846
  111POPC   C3A 1880   0.371   0.011   6.433
  111POPC   C4A 1881   0.462   0.137   5.959
  111POPC   C1B 1882   0.391   0.689   7.203
  111POPC   C2B 1883   0.415   0.771   6.752
  111POPC   C3B 1884   0.476   0.529   6.407
  111POPC   C4B 1885   0.828   0.526   6.157
  112POPC   NC3 1886  10.653   9.597   8.070
  112POPC   PO4 1887   9.969   9.832   8.199
  112POPC   GL1 1888  10.228   9.801   7.808
  112POPC   GL2 1889  10.382   9.459   7.679
  112POPC   C1A 1890  10.247   9.832   7.339
  112POPC   D2A 1891  10.061   9.641   6.973
  112POPC   C3A 1892  10.235   9.637   6.567
  112POPC   C4A 1893  10.118   9.613   6.127
  112POPC   C1B 1894  10.391   9.328   7.241
  112POPC   C2B 1895  10.252   9.128   6.856
  112POPC   C3B 1896  10.332   9.150   6.430
  112POPC   C4B 1897  10.593   9.432   6.230
  113POPC   NC3 1898   9.562  10.073   8.341
  113POPC   PO4 1899   9.327   9.584   7.943
  113POPC   GL1 1900   9.696   9.705   7.753
  113POPC   GL2 1901   9.884   9.462   7.614
  113POPC   C1A 1902   9.716   9.854   7.314
  113POPC   D2A 1903   9.538   9.725   6.904
  113POPC   C3A 1904   9.736   9.867   6.525
  113POPC   C4A 1905   9.468   9.990   6.193
  113POPC   C1B 1906   9.586   9.376   7.327
  113POPC   C2B 1907   9.745   9.262   6.943
  113POPC   C3B 1908   9.802   9.364   6.550
  113POPC   C4B 1909   9.613   9.492   6.178
  114POPC   NC3 1910  10.177  10.329   8.095
  114POPC   PO4 1911  10.842  10.134   8.269
  114POPC   GL1 1912  10.626  10.430   7.850
  114POPC   GL2 1913  10.356  10.285   7.629
  114POPC   C1A 1914  10.752  10.451   7.378
  114POPC   D2A 1915  10.493  10.298   7.036
  114POPC   C3A 1916  10.599  10.400   6.610
  114POPC   C4A 1917  10.674  10.207   6.227
  114POPC   C1B 1918  10.287  10.652   7.355
  114POPC   C2B 1919  10.020  10.717   6.995
  114POPC   C3B 1920  10.103  10.597   6.583
  114POPC   C4B 1921  10.308  10.548   6.181
  115POPC   NC3 1922  10.587   7.684   7.996
  115POPC   PO4 1923   9.943   7.937   8.038
  115POPC   GL1 1924  10.222   7.979   7.652
  115POPC   GL2 1925  10.570   7.837   7.524
  115POPC   C1A 1926  10.279   8.129   7.221
  115POPC   D2A 1927  10.021   8.244   6.891
  115POPC   C3A 1928  10.091   8.036   6.495
  115POPC   C4A 1929  10.089   8.211   6.087
  115POPC   C1B 1930  10.707   7.849   7.098
  115POPC   C2B 1931  10.541   8.119   6.770
  115POPC   C3B 1932  10.567   8.177   6.338
  115POPC   C4B 1933  10.615   7.960   5.938
  116POPC   NC3 1934   0.041   7.702   7.793
  116POPC   PO4 1935   0.445   7.219   8.082
  116POPC   GL1 1936   0.367   7.323   7.683
  116POPC   GL2 1937   0.194   7.015   7.678
  116POPC   C1A 1938   0.419   7.527   7.268
  116POPC   D2A 1939   0.149   7.615   6.885
  116POPC   C3A 1940   0.347   7.572   6.466
  116POPC   C4A 1941   0.694   7.422   6.211
  116POPC   C1B 1942   0.476   7.006   7.292
  116POPC   C2B 1943   0.465   7.217   6.861
  116POPC   C3B 1944   0.481   7.038   6.466
  116POPC   C4B 1945   0.675   6.946   6.079
  117POPC   NC3 1946   8.371   9.707   8.045
  117POPC   PO4 1947   7.656   9.634   8.141
  117POPC   GL1 1948   7.964   9.509   7.795
  117POPC   GL2 1949   8.001   9.831   7.689
  117POPC   C1A 1950   8.279   9.487   7.396
  117POPC   D2A 1951   8.465   9.644   6.970
  117POPC   C3A 1952   8.275   9.515   6.560
  117POPC   C4A 1953   8.192   9.673   6.182
  117POPC   C1B 1954   7.820   9.671   7.290
  117POPC   C2B 1955   7.959   9.738   6.878
  117POPC   C3B 1956   7.802   9.830   6.467
  117POPC   C4B 1957   7.716   9.429   6.262
  118POPC   NC3 1958   3.349   0.422   7.784
  118POPC   PO4 1959   3.962   0.650   8.039
  118POPC   GL1 1960   3.825   0.611   7.648
  118POPC   GL2 1961   3.845   0.267   7.637
  118POPC   C1A 1962   3.661   0.711   7.268
  118POPC   D2A 1963   3.384   0.587   6.946
  118POPC   C3A 1964   3.576   0.697   6.561
  118POPC   C4A 1965   3.735   0.731   6.124
  118POPC   C1B 1966   3.652   0.192   7.241
  118POPC   C2B 1967   3.357   0.034   6.955
  118POPC   C3B 1968   3.178   0.236   6.607
  118POPC   C4B 1969   3.398   0.368   6.209
  119POPC   NC3 1970  11.256   2.408   8.276
  119POPC   PO4 1971  10.709   2.774   8.223
  119POPC   GL1 1972  10.930   2.580   7.919
  119POPC   GL2 1973  11.265   2.741   7.890
  119POPC   C1A 1974  10.927   2.559   7.504
  119POPC   D2A 1975  10.909   2.705   7.087
  119POPC   C3A 1976  10.962   2.361   6.789
  119POPC   C4A 1977  10.948   2.421   6.329
  119POPC   C1B 1978  11.427   2.679   7.493
  119POPC   C2B 1979  11.426   2.718   7.052
  119POPC   C3B 1980  11.233   2.773   6.673
  119POPC   C4B 1981  11.412   2.713   6.310
  120POPC   NC3 1982   8.168  11.315   8.197
  120POPC   PO4 1983   7.790  10.810   8.188
  120POPC   GL1 1984   8.139  11.049   7.784
  120POPC   GL2 1985   7.999  11.325   7.641
  120POPC   C1A 1986   8.259  10.975   7.309
  120POPC   D2A 1987   8.332  11.126   6.864
  120POPC   C3A 1988   8.218  11.035   6.414
  120POPC   C4A 1989   7.994  10.804   6.078
  120POPC   C1B 1990   8.199  11.494   7.294
  120POPC   C2B 1991   8.390   0.115   6.935
  120POPC   C3B 1992   8.176   0.030   6.575
  120POPC   C4B 1993   8.241   0.052   6.172
  121POPC   NC3 1994   5.889   1.229   8.152
  121POPC   PO4 1995   5.678   1.821   8.115
  121POPC   GL1 1996   5.701   1.445   7.729
  121POPC   GL2 1997   5.885   1.057   7.663
  121POPC   C1A 1998   5.778   1.361   7.267
  121POPC   D2A 1999   5.650   1.242   6.867
  121POPC   C3A 2000   5.891   1.355   6.521
  121POPC   C4A 2001   5.738   1.305   6.109
  121POPC   C1B 2002   5.761   0.812   7.263
  121POPC   C2B 2003   5.530   0.757   6.843
  121POPC   C3B 2004   5.656   0.919   6.424
  121POPC   C4B 2005   6.119   0.990   6.223
  122POPC   NC3 2006  10.771   1.632   7.871
  122POPC   PO4 2007  11.329   1.963   8.157
  122POPC   GL1 2008  11.334   2.223   7.768
  122POPC   GL2 2009  11.319   1.889   7.635
  122POPC   C1A 2010  11.259   2.249   7.282
  122POPC   D2A 2011  11.411   2.089   6.912
  122POPC   C3A 2012  11.442   2.288   6.572
  122POPC   C4A 2013  11.368   2.223   6.157
  122POPC   C1B 2014  11.116   1.743   7.257
  122POPC   C2B 2015  10.967   1.839   6.827
  122POPC   C3B 2016  11.010   1.916   6.380
  122POPC   C4B 2017  10.883   1.654   6.024
  123POPC   NC3 2018   1.297   3.440   7.992
  123POPC   PO4 2019   1.040   4.008   7.985
  123POPC   GL1 2020   0.946   3.715   7.647
  123POPC   GL2 2021   1.295   3.637   7.509
  123POPC   C1A 2022   0.874   3.553   7.227
  123POPC   D2A 2023   1.131   3.575   6.868
  123POPC   C3A 2024   1.035   3.743   6.485
  123POPC   C4A 2025   1.118   3.660   6.057
  123POPC   C1B 2026   1.360   3.268   7.220
  123POPC   C2B 2027   1.468   3.209   6.764
  123POPC   C3B 2028   1.159   3.229   6.390
  123POPC   C4B 2029   1.315   3.214   5.926
  124POPC   NC3 2030   9.294  10.043   7.855
  124POPC   PO4 2031   9.733  10.485   8.215
  124POPC   GL1 2032   9.818  10.528   7.749
  124POPC   GL2 2033   9.846  10.185   7.709
  124POPC   C1A 2034   9.607  10.599   7.318
  124POPC   D2A 2035   9.531  10.241   7.017
  124POPC   C3A 2036   9.447  10.289   6.589
  124POPC   C4A 2037   9.440  10.603   6.281
  124POPC   C1B 2038   9.987  10.268   7.275
  124POPC   C2B 2039  10.043  10.139   6.852
  124POPC   C3B 2040  10.184  10.114   6.427
  124POPC   C4B 2041   9.867  10.302   6.203
  125POPC   NC3 2042  11.095   0.691   7.968
  125POPC   PO4 2043   0.214   0.720   7.876
  125POPC   GL1 2044  11.458   0.492   7.625
  125POPC   GL2 2045  11.248   0.216   7.675
  125POPC   C1A 2046   0.030   0.315   7.245
  125POPC   D2A 2047  11.460   0.567   6.929
  125POPC   C3A 2048  11.491   0.482   6.558
  125POPC   C4A 2049   0.034   0.284   6.195
  125POPC   C1B 2050  11.042   0.426   7.307
  125POPC   C2B 2051  10.951   0.265   6.887
  125POPC   C3B 2052  11.066   0.223   6.458
  125POPC   C4B 2053  11.082   0.537   6.175
  126POPC   NC3 2054   0.560   6.067   8.026
  126POPC   PO4 2055  11.495   5.625   8.173
  126POPC   GL1 2056   0.156   5.560   7.729
  126POPC   GL2 2057   0.516   5.662   7.710
  126POPC   C1A 2058   0.302   5.613   7.278
  126POPC   D2A 2059   0.292   5.899   6.965
  126POPC   C3A 2060   0.212   5.654   6.618
  126POPC   C4A 2061   0.418   5.585   6.254
  126POPC   C1B 2062   0.681   5.971   7.393
  126POPC   C2B 2063   0.797   6.022   6.963
  126POPC   C3B 2064   0.697   5.969   6.521
  126POPC   C4B 2065   0.842   5.858   6.100
  127POPC   NC3 2066  10.401   5.813   8.145
  127POPC   PO4 2067  10.893   6.286   8.191
  127POPC   GL1 2068  10.779   6.069   7.757
  127POPC   GL2 2069  10.611   5.736   7.691
  127POPC   C1A 2070  10.783   6.000   7.297
  127POPC   D2A 2071  10.970   6.027   6.898
  127POPC   C3A 2072  10.712   5.939   6.558
  127POPC   C4A 2073  10.528   6.193   6.246
  127POPC   C1B 2074  10.318   5.831   7.431
  127POPC   C2B 2075  10.317   5.913   6.998
  127POPC   C3B 2076  10.189   5.958   6.576
  127POPC   C4B 2077  10.345   5.704   6.297
  128POPC   NC3 2078   2.113   6.328   8.003
  128POPC   PO4 2079   1.793   6.881   8.094
  128POPC   GL1 2080   1.893   6.746   7.656
  128POPC   GL2 2081   1.765   6.457   7.655
  128POPC   C1A 2082   1.744   6.659   7.185
  128POPC   D2A 2083   1.634   6.453   6.774
  128POPC   C3A 2084   1.829   6.648   6.422
  128POPC   C4A 2085   2.219   6.819   6.264
  128POPC   C1B 2086   2.124   6.367   7.367
  128POPC   C2B 2087   2.115   6.318   6.944
  128POPC   C3B 2088   2.249   6.379   6.533
  128POPC   C4B 2089   2.183   6.149   6.205
  129POPC   NC3 2090  10.271   3.005   8.061
  129POPC   PO4 2091  10.001   2.397   8.089
  129POPC   GL1 2092  10.272   2.592   7.777
  129POPC   GL2 2093  10.024   2.704   7.620
  129POPC   C1A 2094  10.453   2.637   7.351
  129POPC   D2A 2095  10.472   2.461   6.958
  129POPC   C3A 2096  10.572   2.662   6.568
  129POPC   C4A 2097  10.296   2.576   6.215
  129POPC   C1B 2098  10.153   3.034   7.282
  129POPC   C2B 2099  10.372   2.973   6.929
  129POPC   C3B 2100  10.304   3.080   6.483
  129POPC   C4B 2101  10.482   3.059   6.060
  130POPC   NC3 2102   4.319  10.268   7.985
  130POPC   PO4 2103   3.845  10.734   8.192
  130POPC   GL1 2104   3.966  10.634   7.780
  130POPC   GL2 2105   3.909  10.317   7.698
  130POPC   C1A 2106   3.971  10.833   7.368
  130POPC   D2A 2107   4.182  10.795   6.978
  130POPC   C3A 2108   4.033  10.794   6.594
  130POPC   C4A 2109   4.318  10.720   6.285
  130POPC   C1B 2110   4.173  10.375   7.327
  130POPC   C2B 2111   4.177  10.274   6.882
  130POPC   C3B 2112   4.462  10.296   6.536
  130POPC   C4B 2113   4.598  10.128   6.141
  131POPC   NC3 2114   1.057   5.067   8.143
  131POPC   PO4 2115   1.633   4.741   8.041
  131POPC   GL1 2116   1.252   4.807   7.702
  131POPC   GL2 2117   1.079   5.134   7.656
  131POPC   C1A 2118   0.990   4.847   7.266
  131POPC   D2A 2119   0.843   4.932   6.861
  131POPC   C3A 2120   1.035   4.739   6.524
  131POPC   C4A 2121   1.084   4.897   6.153
  131POPC   C1B 2122   1.305   5.243   7.277
  131POPC   C2B 2123   1.334   5.059   6.861
  131POPC   C3B 2124   1.481   5.047   6.446
  131POPC   C4B 2125   1.568   5.468   6.316
  132POPC   NC3 2126   5.874   2.227   8.102
  132POPC   PO4 2127   6.285   2.600   7.960
  132POPC   GL1 2128   6.066   2.299   7.607
  132POPC   GL2 2129   5.883   1.954   7.659
  132POPC   C1A 2130   5.902   2.099   7.176
  132POPC   D2A 2131   5.897   1.818   6.789
  132POPC   C3A 2132   6.101   2.077   6.455
  132POPC   C4A 2133   6.058   2.455   6.218
  132POPC   C1B 2134   5.525   1.798   7.381
  132POPC   C2B 2135   5.375   1.661   6.952
  132POPC   C3B 2136   5.433   1.572   6.490
  132POPC   C4B 2137   5.760   1.792   6.215
  133POPC   NC3 2138  11.470  11.274   7.837
  133POPC   PO4 2139   0.163  10.847   8.311
  133POPC   GL1 2140   0.218  10.811   7.790
  133POPC   GL2 2141   0.411  11.075   7.662
  133POPC   C1A 2142   0.157  10.856   7.282
  133POPC   D2A 2143  11.429  10.957   6.826
  133POPC   C3A 2144   0.208  10.939   6.416
  133POPC   C4A 2145   0.162  10.817   5.915
  133POPC   C1B 2146   0.657  11.062   7.297
  133POPC   C2B 2147   0.462  11.114   6.892
  133POPC   C3B 2148   0.683  11.120   6.516
  133POPC   C4B 2149   0.538  11.140   6.076
  134POPC   NC3 2150   2.287   3.571   8.039
  134POPC   PO4 2151   1.668   3.198   7.895
  134POPC   GL1 2152   1.929   3.292   7.564
  134POPC   GL2 2153   1.962   3.650   7.627
  134POPC   C1A 2154   1.849   3.102   7.141
  134POPC   D2A 2155   2.046   3.018   6.757
  134POPC   C3A 2156   1.892   3.334   6.473
  134POPC   C4A 2157   1.535   3.529   6.314
  134POPC   C1B 2158   1.742   3.616   7.219
  134POPC   C2B 2159   1.644   3.696   6.790
  134POPC   C3B 2160   1.874   3.871   6.428
  134POPC   C4B 2161   2.121   3.815   6.038
  135POPC   NC3 2162   1.634   2.823   8.156
  135POPC   PO4 2163   2.267   2.430   8.062
  135POPC   GL1 2164   1.918   2.487   7.809
  135POPC   GL2 2165   2.006   2.825   7.783
  135POPC   C1A 2166   1.812   2.540   7.355
  135POPC   D2A 2167   1.785   2.320   6.941
  135POPC   C3A 2168   1.820   2.580   6.583
  135POPC   C4A 2169   1.669   2.498   6.173
  135POPC   C1B 2170   2.218   2.856   7.395
  135POPC   C2B 2171   2.234   2.576   7.023
  135POPC   C3B 2172   2.335   2.590   6.569
  135POPC   C4B 2173   2.099   2.847   6.253
  136POPC   NC3 2174   2.788   9.105   8.017
  136POPC   PO4 2175   2.576   8.507   7.830
  136POPC   GL1 2176   2.520   8.933   7.624
  136POPC   GL2 2177   2.815   9.025   7.470
  136POPC   C1A 2178   2.391   9.254   7.273
  136POPC   D2A 2179   2.392   9.301   6.798
  136POPC   C3A 2180   2.627   9.062   6.471
  136POPC   C4A 2181   2.633   8.886   6.024
  136POPC   C1B 2182   2.556   8.787   7.122
  136POPC   C2B 2183   2.558   8.585   6.695
  136POPC   C3B 2184   2.896   8.628   6.377
  136POPC   C4B 2185   3.116   9.035   6.232
  137POPC   NC3 2186   2.053   2.019   8.064
  137POPC   PO4 2187   1.470   1.639   8.088
  137POPC   GL1 2188   1.849   1.635   7.750
  137POPC   GL2 2189   2.101   1.836   7.613
  137POPC   C1A 2190   1.732   1.556   7.322
  137POPC   D2A 2191   1.535   1.812   6.968
  137POPC   C3A 2192   1.697   1.755   6.542
  137POPC   C4A 2193   1.800   1.976   6.155
  137POPC   C1B 2194   1.925   2.014   7.312
  137POPC   C2B 2195   2.043   1.867   6.914
  137POPC   C3B 2196   2.057   2.129   6.556
  137POPC   C4B 2197   2.165   2.339   6.157
  138POPC   NC3 2198   1.673  11.085   8.392
  138POPC   PO4 2199   1.673   0.186   8.103
  138POPC   GL1 2200   1.641  11.303   7.803
  138POPC   GL2 2201   1.944  11.058   7.796
  138POPC   C1A 2202   1.652  11.168   7.349
  138POPC   D2A 2203   1.882  11.287   6.968
  138POPC   C3A 2204   1.744  11.205   6.554
  138POPC   C4A 2205   1.762   0.035   6.247
  138POPC   C1B 2206   2.162  11.059   7.371
  138POPC   C2B 2207   2.205  10.879   6.974
  138POPC   C3B 2208   2.291  11.060   6.598
  138POPC   C4B 2209   2.116  11.037   6.221
  139POPC   NC3 2210   4.203  11.051   8.250
  139POPC   PO4 2211   4.662  10.579   8.102
  139POPC   GL1 2212   4.459  10.860   7.800
  139POPC   GL2 2213   4.161  11.107   7.748
  139POPC   C1A 2214   4.473  10.897   7.367
  139POPC   D2A 2215   4.647  11.169   7.054
  139POPC   C3A 2216   4.509  11.065   6.642
  139POPC   C4A 2217   4.754  11.009   6.282
  139POPC   C1B 2218   4.134  11.342   7.380
  139POPC   C2B 2219   4.138  11.317   6.946
  139POPC   C3B 2220   4.124  11.381   6.514
  139POPC   C4B 2221   4.007  11.114   6.174
  140POPC   NC3 2222   9.520   1.248   8.045
  140POPC   PO4 2223  10.110   1.404   8.056
  140POPC   GL1 2224   9.835   1.343   7.644
  140POPC   GL2 2225   9.541   1.042   7.592
  140POPC   C1A 2226   9.661   1.505   7.239
  140POPC   D2A 2227   9.344   1.514   6.895
  140POPC   C3A 2228   9.506   1.460   6.502
  140POPC   C4A 2229   9.871   1.494   6.284
  140POPC   C1B 2230   9.769   1.022   7.215
  140POPC   C2B 2231   9.772   1.174   6.803
  140POPC   C3B 2232   9.757   1.000   6.380
  140POPC   C4B 2233   9.399   0.809   6.157
  141POPC   NC3 2234   2.736  10.108   8.306
  141POPC   PO4 2235   2.587  10.748   8.079
  141POPC   GL1 2236   2.694  10.607   7.689
  141POPC   GL2 2237   2.679  10.252   7.613
  141POPC   C1A 2238   2.418  10.564   7.310
  141POPC   D2A 2239   2.523  10.365   6.939
  141POPC   C3A 2240   2.441  10.574   6.575
  141POPC   C4A 2241   2.498  10.424   6.176
  141POPC   C1B 2242   2.926  10.483   7.243
  141POPC   C2B 2243   3.028  10.503   6.787
  141POPC   C3B 2244   3.015  10.530   6.333
  141POPC   C4B 2245   2.960  10.180   6.087
  142POPC   NC3 2246   7.102   0.139   8.119
  142POPC   PO4 2247   7.791   0.102   8.062
  142POPC   GL1 2248   7.446   0.114   7.712
  142POPC   GL2 2249   7.284   0.442   7.736
  142POPC   C1A 2250   7.285   0.141   7.253
  142POPC   D2A 2251   7.443   0.102   6.781
  142POPC   C3A 2252   7.214   0.164   6.377
  142POPC   C4A 2253   7.362   0.228   5.926
  142POPC   C1B 2254   7.246   0.651   7.347
  142POPC   C2B 2255   7.167   0.532   6.912
  142POPC   C3B 2256   7.385   0.614   6.552
  142POPC   C4B 2257   7.205   0.668   6.174
  143POPC   NC3 2258   2.979   9.852   7.775
  143POPC   PO4 2259   2.356   9.963   8.076
  143POPC   GL1 2260   2.434   9.782   7.659
  143POPC   GL2 2261   2.634   9.473   7.672
  143POPC   C1A 2262   2.547   9.919   7.231
  143POPC   D2A 2263   2.894  10.016   6.933
  143POPC   C3A 2264   2.711  10.100   6.526
  143POPC   C4A 2265   2.449   9.912   6.176
  143POPC   C1B 2266   2.858   9.499   7.251
  143POPC   C2B 2267   2.865   9.514   6.806
  143POPC   C3B 2268   2.776   9.591   6.393
  143POPC   C4B 2269   2.745   9.356   6.051
  144POPC   NC3 2270   1.667   7.327   8.050
  144POPC   PO4 2271   1.990   7.859   8.319
  144POPC   GL1 2272   1.821   7.873   7.878
  144POPC   GL2 2273   2.019   8.145   7.764
  144POPC   C1A 2274   1.810   7.845   7.379
  144POPC   D2A 2275   1.961   7.955   6.911
  144POPC   C3A 2276   1.774   7.725   6.511
  144POPC   C4A 2277   1.757   7.854   6.059
  144POPC   C1B 2278   1.956   8.333   7.353
  144POPC   C2B 2279   2.087   8.452   6.937
  144POPC   C3B 2280   2.120   8.309   6.513
  144POPC   C4B 2281   2.213   8.122   6.092
  145POPC   NC3 2282   2.628   2.740   8.093
  145POPC   PO4 2283   3.110   2.283   8.289
  145POPC   GL1 2284   2.854   2.395   7.809
  145POPC   GL2 2285   2.530   2.502   7.628
  145POPC   C1A 2286   2.890   2.299   7.307
  145POPC   D2A 2287   2.697   2.392   6.896
  145POPC   C3A 2288   2.864   2.418   6.478
  145POPC   C4A 2289   3.068   2.443   6.094
  145POPC   C1B 2290   2.701   2.766   7.279
  145POPC   C2B 2291   2.575   2.933   6.863
  145POPC   C3B 2292   2.744   2.899   6.414
  145POPC   C4B 2293   2.548   3.020   5.982
  146POPC   NC3 2294  11.154   1.597   8.387
  146POPC   PO4 2295  10.844   1.046   8.150
  146POPC   GL1 2296  11.017   1.165   7.736
  146POPC   GL2 2297  11.392   1.092   7.692
  146POPC   C1A 2298  10.923   1.223   7.292
  146POPC   D2A 2299  11.151   1.365   6.936
  146POPC   C3A 2300  11.052   1.420   6.517
  146POPC   C4A 2301  10.730   1.166   6.317
  146POPC   C1B 2302  11.305   0.875   7.304
  146POPC   C2B 2303  11.044   0.855   6.917
  146POPC   C3B 2304  11.183   0.927   6.488
  146POPC   C4B 2305   0.005   0.826   6.193
  147POPC   NC3 2306   1.851   1.349   8.150
  147POPC   PO4 2307   2.385   1.665   8.027
  147POPC   GL1 2308   2.257   1.358   7.673
  147POPC   GL2 2309   1.982   1.111   7.700
  147POPC   C1A 2310   2.325   1.548   7.233
  147POPC   D2A 2311   2.308   1.340   6.815
  147POPC   C3A 2312   2.180   1.613   6.468
  147POPC   C4A 2313   1.915   1.491   6.092
  147POPC   C1B 2314   2.013   1.143   7.243
  147POPC   C2B 2315   1.817   1.368   6.868
  147POPC   C3B 2316   1.855   1.175   6.479
  147POPC   C4B 2317   1.584   1.003   6.148
  148POPC   NC3 2318  11.474  11.268   8.399
  148POPC   PO4 2319  11.230  10.877   7.892
  148POPC   GL1 2320  11.193  11.035   7.494
  148POPC   GL2 2321  10.967  11.268   7.666
  148POPC   C1A 2322  11.437  11.312   7.190
  148POPC   D2A 2323  11.415   0.032   6.806
  148POPC   C3A 2324  11.357  11.307   6.426
  148POPC   C4A 2325   0.063  11.292   6.028
  148POPC   C1B 2326  10.950  11.421   7.281
  148POPC   C2B 2327  10.979  11.229   6.897
  148POPC   C3B 2328  10.790  11.308   6.536
  148POPC   C4B 2329  10.925  11.209   6.174
  149POPC   NC3 2330   5.292   8.887   8.124
  149POPC   PO4 2331   4.793   8.418   8.097
  149POPC   GL1 2332   4.907   8.761   7.784
  149POPC   GL2 2333   4.897   9.146   7.897
  149POPC   C1A 2334   5.055   8.806   7.338
  149POPC   D2A 2335   4.943   8.965   6.906
  149POPC   C3A 2336   4.989   8.783   6.515
  149POPC   C4A 2337   4.685   8.455   6.373
  149POPC   C1B 2338   4.848   9.266   7.440
  149POPC   C2B 2339   4.752   9.420   7.009
  149POPC   C3B 2340   4.706   9.403   6.554
  149POPC   C4B 2341   4.986   9.277   6.220
  150POPC   NC3 2342   4.509   9.504   8.045
  150POPC   PO4 2343   3.974   9.926   8.068
  150POPC   GL1 2344   4.058   9.808   7.657
  150POPC   GL2 2345   4.119   9.467   7.677
  150POPC   C1A 2346   4.274   9.862   7.236
  150POPC   D2A 2347   4.566   9.889   6.870
  150POPC   C3A 2348   4.352   9.799   6.474
  150POPC   C4A 2349   4.065  10.047   6.224
  150POPC   C1B 2350   4.338   9.354   7.306
  150POPC   C2B 2351   4.253   9.468   6.868
  150POPC   C3B 2352   4.187   9.307   6.444
  150POPC   C4B 2353   4.138   9.480   6.046
  151POPC   NC3 2354   8.972   1.999   8.081
  151POPC   PO4 2355   9.129   1.421   7.866
  151POPC   GL1 2356   8.964   1.713   7.616
  151POPC   GL2 2357   8.965   2.080   7.584
  151POPC   C1A 2358   8.964   1.641   7.215
  151POPC   D2A 2359   8.719   1.727   6.904
  151POPC   C3A 2360   8.976   1.740   6.570
  151POPC   C4A 2361   8.804   1.787   6.194
  151POPC   C1B 2362   8.869   2.142   7.164
  151POPC   C2B 2363   9.093   2.181   6.782
  151POPC   C3B 2364   9.072   2.207   6.337
  151POPC   C4B 2365   8.678   2.308   6.141
  152POPC   NC3 2366  10.583  11.333   8.007
  152POPC   PO4 2367  10.239  10.788   7.993
  152POPC   GL1 2368  10.534  10.961   7.671
  152POPC   GL2 2369  10.464  11.306   7.506
  152POPC   C1A 2370  10.730  10.949   7.267
  152POPC   D2A 2371  10.516  10.809   6.908
  152POPC   C3A 2372  10.361  11.051   6.604
  152POPC   C4A 2373  10.472  11.007   6.195
  152POPC   C1B 2374  10.078   0.064   7.365
  152POPC   C2B 2375   9.922   0.181   6.966
  152POPC   C3B 2376  10.049   0.184   6.550
  152POPC   C4B 2377  10.235  11.440   6.224
  153POPC   NC3 2378   1.942   9.537   8.167
  153POPC   PO4 2379   2.338   9.010   8.097
  153POPC   GL1 2380   2.142   9.288   7.727
  153POPC   GL2 2381   1.928   9.616   7.678
  153POPC   C1A 2382   1.851   9.252   7.337
  153POPC   D2A 2383   1.887   9.394   6.894
  153POPC   C3A 2384   1.838   9.227   6.462
  153POPC   C4A 2385   2.219   9.244   6.219
  153POPC   C1B 2386   1.812   9.764   7.271
  153POPC   C2B 2387   2.104   9.858   6.931
  153POPC   C3B 2388   2.170   9.677   6.540
  153POPC   C4B 2389   1.970   9.702   6.170
  154POPC   NC3 2390   6.483  11.449   8.032
  154POPC   PO4 2391   6.218  10.810   8.054
  154POPC   GL1 2392   6.341  10.883   7.594
  154POPC   GL2 2393   6.564  11.163   7.621
  154POPC   C1A 2394   6.444  11.065   7.163
  154POPC   D2A 2395   6.650  11.117   6.783
  154POPC   C3A 2396   6.365  10.904   6.541
  154POPC   C4A 2397   6.207  10.853   6.140
  154POPC   C1B 2398   6.855  11.337   7.236
  154POPC   C2B 2399   6.926   0.078   6.850
  154POPC   C3B 2400   6.734   0.040   6.467
  154POPC   C4B 2401   6.501  11.272   6.228
  155POPC   NC3 2402   8.390   8.780   8.156
  155POPC   PO4 2403   9.011   8.855   8.161
  155POPC   GL1 2404   8.767   8.957   7.795
  155POPC   GL2 2405   8.611   8.661   7.684
  155POPC   C1A 2406   8.668   9.083   7.365
  155POPC   D2A 2407   8.604   8.829   6.993
  155POPC   C3A 2408   8.467   9.066   6.678
  155POPC   C4A 2409   8.675   9.262   6.330
  155POPC   C1B 2410   9.008   8.694   7.417
  155POPC   C2B 2411   9.086   8.686   6.962
  155POPC   C3B 2412   8.958   8.917   6.595
  155POPC   C4B 2413   8.783   8.753   6.206
  156POPC   NC3 2414   4.264   0.984   7.924
  156POPC   PO4 2415   4.701   1.499   8.034
  156POPC   GL1 2416   4.497   1.352   7.665
  156POPC   GL2 2417   4.594   1.019   7.518
  156POPC   C1A 2418   4.416   1.388   7.226
  156POPC   D2A 2419   4.522   1.095   6.935
  156POPC   C3A 2420   4.454   1.224   6.550
  156POPC   C4A 2421   4.384   1.487   6.233
  156POPC   C1B 2422   4.175   0.942   7.298
  156POPC   C2B 2423   3.970   0.924   6.921
  156POPC   C3B 2424   4.039   0.941   6.513
  156POPC   C4B 2425   4.075   1.116   6.101
  157POPC   NC3 2426   0.895   8.126   3.981
  157POPC   PO4 2427   1.425   7.734   3.947
  157POPC   GL1 2428   1.396   7.958   4.309
  157POPC   GL2 2429   1.271   8.286   4.295
  157POPC   C1A 2430   1.273   7.882   4.720
  157POPC   D2A 2431   1.190   7.597   5.044
  157POPC   C3A 2432   1.260   7.870   5.377
  157POPC   C4A 2433   1.290   7.764   5.790
  157POPC   C1B 2434   0.950   8.275   4.634
  157POPC   C2B 2435   0.877   8.061   5.020
  157POPC   C3B 2436   0.835   8.153   5.452
  157POPC   C4B 2437   1.069   8.212   5.792
  158POPC   NC3 2438   3.616   1.767   4.102
  158POPC   PO4 2439   4.045   2.239   3.863
  158POPC   GL1 2440   3.802   2.192   4.334
  158POPC   GL2 2441   3.476   2.020   4.519
  158POPC   C1A 2442   3.847   2.202   4.773
  158POPC   D2A 2443   3.473   2.033   5.030
  158POPC   C3A 2444   3.494   2.169   5.462
  158POPC   C4A 2445   3.473   2.185   5.897
  158POPC   C1B 2446   3.506   1.597   4.722
  158POPC   C2B 2447   3.610   1.395   5.118
  158POPC   C3B 2448   3.702   1.617   5.471
  158POPC   C4B 2449   3.339   1.734   5.715
  159POPC   NC3 2450   0.763   5.691   3.871
  159POPC   PO4 2451   0.840   6.289   3.922
  159POPC   GL1 2452   0.573   6.124   4.261
  159POPC   GL2 2453   0.483   5.768   4.282
  159POPC   C1A 2454   0.649   5.992   4.701
  159POPC   D2A 2455   0.749   5.736   5.074
  159POPC   C3A 2456   0.562   5.744   5.471
  159POPC   C4A 2457   0.648   5.495   5.815
  159POPC   C1B 2458   0.370   5.563   4.687
  159POPC   C2B 2459   0.195   5.707   5.104
  159POPC   C3B 2460   0.059   5.600   5.557
  159POPC   C4B 2461  11.452   5.695   6.014
  160POPC   NC3 2462   1.960   4.699   4.180
  160POPC   PO4 2463   1.607   4.267   3.879
  160POPC   GL1 2464   1.530   4.106   4.273
  160POPC   GL2 2465   1.859   3.984   4.365
  160POPC   C1A 2466   1.445   4.245   4.670
  160POPC   D2A 2467   1.675   4.463   4.956
  160POPC   C3A 2468   1.632   4.321   5.365
  160POPC   C4A 2469   1.743   4.530   5.709
  160POPC   C1B 2470   2.155   3.935   4.736
  160POPC   C2B 2471   2.197   3.883   5.219
  160POPC   C3B 2472   2.101   4.138   5.623
  160POPC   C4B 2473   2.256   4.542   5.845
  161POPC   NC3 2474   0.447   1.468   4.234
  161POPC   PO4 2475   0.469   1.027   3.741
  161POPC   GL1 2476   0.434   0.950   4.261
  161POPC   GL2 2477   0.599   1.100   4.568
  161POPC   C1A 2478   0.136   0.930   4.671
  161POPC   D2A 2479   0.230   1.168   5.060
  161POPC   C3A 2480   0.388   1.043   5.464
  161POPC   C4A 2481   0.245   1.125   5.877
  161POPC   C1B 2482   0.594   1.480   4.862
  161POPC   C2B 2483   0.567   1.506   5.296
  161POPC   C3B 2484   0.621   1.427   5.701
  161POPC   C4B 2485   0.762   1.007   5.848
  162POPC   NC3 2486   2.207   1.417   4.184
  162POPC   PO4 2487   2.539   0.819   3.908
  162POPC   GL1 2488   2.374   0.942   4.321
  162POPC   GL2 2489   1.997   0.977   4.345
  162POPC   C1A 2490   2.310   0.842   4.774
  162POPC   D2A 2491   2.074   0.888   5.185
  162POPC   C3A 2492   2.254   0.994   5.581
  162POPC   C4A 2493   2.080   1.008   6.031
  162POPC   C1B 2494   1.886   1.155   4.753
  162POPC   C2B 2495   1.787   1.312   5.159
  162POPC   C3B 2496   1.855   1.359   5.584
  162POPC   C4B 2497   1.554   1.622   5.757
  163POPC   NC3 2498   1.131   3.257   3.995
  163POPC   PO4 2499   0.848   3.860   3.746
  163POPC   GL1 2500   0.824   3.578   4.282
  163POPC   GL2 2501   1.154   3.409   4.466
  163POPC   C1A 2502   0.820   3.458   4.803
  163POPC   D2A 2503   0.932   3.580   5.230
  163POPC   C3A 2504   0.816   3.481   5.688
  163POPC   C4A 2505   0.788   3.224   6.048
  163POPC   C1B 2506   1.498   3.219   4.651
  163POPC   C2B 2507   1.637   3.406   5.039
  163POPC   C3B 2508   1.593   3.299   5.447
  163POPC   C4B 2509   1.293   3.598   5.593
  164POPC   NC3 2510   9.580   7.525   3.837
  164POPC   PO4 2511   9.773   6.991   3.943
  164POPC   GL1 2512   9.672   7.265   4.294
  164POPC   GL2 2513   9.934   7.446   4.381
  164POPC   C1A 2514   9.500   7.296   4.737
  164POPC   D2A 2515   9.316   7.509   5.126
  164POPC   C3A 2516   9.459   7.309   5.524
  164POPC   C4A 2517   9.499   7.371   5.967
  164POPC   C1B 2518  10.093   7.337   4.773
  164POPC   C2B 2519  10.073   7.048   5.126
  164POPC   C3B 2520   9.937   7.087   5.552
  164POPC   C4B 2521   9.927   7.507   5.694
  165POPC   NC3 2522   0.108   2.824   4.083
  165POPC   PO4 2523  10.942   2.480   3.981
  165POPC   GL1 2524  11.175   2.541   4.330
  165POPC   GL2 2525  11.155   2.891   4.315
  165POPC   C1A 2526  11.205   2.504   4.767
  165POPC   D2A 2527  10.922   2.548   5.098
  165POPC   C3A 2528  11.139   2.442   5.454
  165POPC   C4A 2529  11.202   2.609   5.857
  165POPC   C1B 2530  11.372   2.987   4.707
  165POPC   C2B 2531  11.357   2.852   5.147
  165POPC   C3B 2532  11.279   3.068   5.529
  165POPC   C4B 2533  11.422   3.054   5.951
  166POPC   NC3 2534  11.038   8.711   3.736
  166POPC   PO4 2535  10.956   9.112   4.360
  166POPC   GL1 2536  11.034   8.731   4.490
  166POPC   GL2 2537  11.258   8.692   4.229
  166POPC   C1A 2538  11.156   8.656   4.910
  166POPC   D2A 2539  11.325   8.995   5.123
  166POPC   C3A 2540  11.009   9.092   5.392
  166POPC   C4A 2541  10.956   8.789   5.717
  166POPC   C1B 2542  11.389   8.363   4.552
  166POPC   C2B 2543  11.468   8.275   5.013
  166POPC   C3B 2544   0.016   8.559   5.355
  166POPC   C4B 2545  11.430   8.667   5.778
  167POPC   NC3 2546   8.825   5.498   3.877
  167POPC   PO4 2547   8.529   6.030   3.942
  167POPC   GL1 2548   8.683   5.764   4.307
  167POPC   GL2 2549   9.032   5.668   4.326
  167POPC   C1A 2550   8.752   5.704   4.767
  167POPC   D2A 2551   8.724   5.443   5.144
  167POPC   C3A 2552   8.732   5.570   5.584
  167POPC   C4A 2553   8.486   5.708   5.961
  167POPC   C1B 2554   9.253   5.843   4.712
  167POPC   C2B 2555   9.095   5.848   5.161
  167POPC   C3B 2556   9.201   5.783   5.605
  167POPC   C4B 2557   8.997   5.710   6.016
  168POPC   NC3 2558   8.276   3.515   4.002
  168POPC   PO4 2559   7.895   3.891   4.128
  168POPC   GL1 2560   8.091   3.603   4.486
  168POPC   GL2 2561   8.445   3.491   4.482
  168POPC   C1A 2562   8.231   3.521   4.941
  168POPC   D2A 2563   8.534   3.597   5.287
  168POPC   C3A 2564   8.335   3.731   5.694
  168POPC   C4A 2565   7.927   3.675   5.934
  168POPC   C1B 2566   8.425   3.090   4.741
  168POPC   C2B 2567   8.465   3.075   5.211
  168POPC   C3B 2568   8.285   3.108   5.648
  168POPC   C4B 2569   8.135   2.890   6.043
  169POPC   NC3 2570   8.988   9.049   4.001
  169POPC   PO4 2571   8.428   9.116   3.668
  169POPC   GL1 2572   8.558   8.875   4.155
  169POPC   GL2 2573   8.812   8.653   4.283
  169POPC   C1A 2574   8.627   8.969   4.630
  169POPC   D2A 2575   8.640   8.691   4.952
  169POPC   C3A 2576   8.646   8.719   5.405
  169POPC   C4A 2577   8.701   8.969   5.753
  169POPC   C1B 2578   9.062   8.673   4.686
  169POPC   C2B 2579   9.077   8.529   5.153
  169POPC   C3B 2580   9.132   8.786   5.530
  169POPC   C4B 2581   9.220   8.671   5.934
  170POPC   NC3 2582  10.484   1.332   3.949
  170POPC   PO4 2583   9.805   1.017   4.027
  170POPC   GL1 2584  10.032   1.301   4.257
  170POPC   GL2 2585  10.270   1.062   4.315
  170POPC   C1A 2586  10.120   1.511   4.628
  170POPC   D2A 2587  10.142   1.388   5.052
  170POPC   C3A 2588  10.016   1.576   5.420
  170POPC   C4A 2589  10.013   1.426   5.813
  170POPC   C1B 2590  10.509   1.173   4.671
  170POPC   C2B 2591  10.535   1.109   5.118
  170POPC   C3B 2592  10.400   1.240   5.506
  170POPC   C4B 2593  10.660   1.247   5.825
  171POPC   NC3 2594   8.198   8.758   3.839
  171POPC   PO4 2595   8.550   9.371   4.108
  171POPC   GL1 2596   8.231   9.177   4.395
  171POPC   GL2 2597   8.073   8.897   4.301
  171POPC   C1A 2598   8.173   9.118   4.828
  171POPC   D2A 2599   8.403   9.101   5.175
  171POPC   C3A 2600   8.230   9.039   5.562
  171POPC   C4A 2601   8.338   9.264   5.952
  171POPC   C1B 2602   8.184   8.636   4.688
  171POPC   C2B 2603   8.200   8.614   5.158
  171POPC   C3B 2604   8.230   8.484   5.573
  171POPC   C4B 2605   7.940   8.457   5.889
  172POPC   NC3 2606   6.473   0.596   3.802
  172POPC   PO4 2607   7.122   0.626   3.914
  172POPC   GL1 2608   6.963   0.304   4.229
  172POPC   GL2 2609   6.594   0.330   4.241
  172POPC   C1A 2610   6.848   0.262   4.705
  172POPC   D2A 2611   6.806   0.452   5.145
  172POPC   C3A 2612   6.769   0.350   5.579
  172POPC   C4A 2613   6.836   0.335   6.036
  172POPC   C1B 2614   6.336   0.435   4.592
  172POPC   C2B 2615   6.318   0.596   5.023
  172POPC   C3B 2616   6.281   0.420   5.450
  172POPC   C4B 2617   6.291   0.640   5.854
  173POPC   NC3 2618   3.442   8.225   3.523
  173POPC   PO4 2619   2.959   8.062   3.913
  173POPC   GL1 2620   3.024   8.282   4.363
  173POPC   GL2 2621   3.389   8.257   4.406
  173POPC   C1A 2622   3.149   8.355   4.844
  173POPC   D2A 2623   3.367   8.139   5.232
  173POPC   C3A 2624   3.426   8.271   5.684
  173POPC   C4A 2625   3.538   8.453   6.098
  173POPC   C1B 2626   3.439   7.926   4.740
  173POPC   C2B 2627   3.639   7.717   5.117
  173POPC   C3B 2628   3.716   7.816   5.565
  173POPC   C4B 2629   3.963   8.118   5.796
  174POPC   NC3 2630   9.550   9.807   4.013
  174POPC   PO4 2631  10.043   9.355   4.033
  174POPC   GL1 2632   9.835   9.539   4.361
  174POPC   GL2 2633   9.567   9.336   4.431
  174POPC   C1A 2634   9.766   9.845   4.685
  174POPC   D2A 2635   9.828  10.052   5.089
  174POPC   C3A 2636   9.606   9.998   5.463
  174POPC   C4A 2637   9.806   9.904   5.847
  174POPC   C1B 2638   9.622   9.379   4.884
  174POPC   C2B 2639   9.948   9.360   5.209
  174POPC   C3B 2640   9.888   9.428   5.656
  174POPC   C4B 2641   9.437   9.564   5.722
  175POPC   NC3 2642   9.062   0.063   3.948
  175POPC   PO4 2643   8.734   0.657   3.740
  175POPC   GL1 2644   8.935   0.494   4.185
  175POPC   GL2 2645   8.753   0.180   4.324
  175POPC   C1A 2646   8.938   0.573   4.679
  175POPC   D2A 2647   8.702   0.751   5.069
  175POPC   C3A 2648   8.905   0.646   5.463
  175POPC   C4A 2649   9.348   0.700   5.669
  175POPC   C1B 2650   8.823   0.049   4.745
  175POPC   C2B 2651   8.870   0.243   5.122
  175POPC   C3B 2652   8.632   0.183   5.475
  175POPC   C4B 2653   8.460   0.338   5.821
  176POPC   NC3 2654   8.135   9.434   3.837
  176POPC   PO4 2655   7.734   8.898   3.854
  176POPC   GL1 2656   7.777   9.317   4.179
  176POPC   GL2 2657   8.082   9.634   4.282
  176POPC   C1A 2658   7.810   9.406   4.623
  176POPC   D2A 2659   7.766   9.344   5.040
  176POPC   C3A 2660   7.770   9.641   5.367
  176POPC   C4A 2661   7.946   9.517   5.754
  176POPC   C1B 2662   8.283   9.630   4.686
  176POPC   C2B 2663   8.217   9.570   5.114
  176POPC   C3B 2664   8.401   9.528   5.509
  176POPC   C4B 2665   8.344   9.891   5.731
  177POPC   NC3 2666   2.887   0.301   3.911
  177POPC   PO4 2667   2.329   0.016   3.818
  177POPC   GL1 2668   2.509   0.199   4.237
  177POPC   GL2 2669   2.695   0.536   4.315
  177POPC   C1A 2670   2.457   0.306   4.694
  177POPC   D2A 2671   2.229   0.418   5.061
  177POPC   C3A 2672   2.487   0.497   5.413
  177POPC   C4A 2673   2.614   0.335   5.832
  177POPC   C1B 2674   2.823   0.698   4.745
  177POPC   C2B 2675   2.952   0.626   5.189
  177POPC   C3B 2676   2.908   0.739   5.643
  177POPC   C4B 2677   2.991   0.656   6.094
  178POPC   NC3 2678   1.999  11.197   3.985
  178POPC   PO4 2679   1.469  10.945   3.682
  178POPC   GL1 2680   1.529  11.137   4.201
  178POPC   GL2 2681   1.866  11.032   4.445
  178POPC   C1A 2682   1.558  11.347   4.642
  178POPC   D2A 2683   1.882  11.149   4.961
  178POPC   C3A 2684   1.777  11.226   5.408
  178POPC   C4A 2685   1.827  11.088   5.830
  178POPC   C1B 2686   2.281  11.260   4.549
  178POPC   C2B 2687   2.408  11.357   4.946
  178POPC   C3B 2688   2.386  11.083   5.270
  178POPC   C4B 2689   2.333  11.132   5.711
  179POPC   NC3 2690  10.677   8.820   4.135
  179POPC   PO4 2691  10.210   8.409   4.016
  179POPC   GL1 2692  10.150   8.862   4.241
  179POPC   GL2 2693  10.375   8.840   4.526
  179POPC   C1A 2694   9.979   9.102   4.636
  179POPC   D2A 2695  10.161   8.934   5.016
  179POPC   C3A 2696  10.013   8.925   5.465
  179POPC   C4A 2697  10.104   8.510   5.655
  179POPC   C1B 2698  10.649   8.751   4.856
  179POPC   C2B 2699  10.688   8.718   5.274
  179POPC   C3B 2700  10.479   8.874   5.627
  179POPC   C4B 2701  10.332   9.206   5.864
  180POPC   NC3 2702   2.359  10.265   3.938
  180POPC   PO4 2703   3.025   9.935   3.911
  180POPC   GL1 2704   2.839  10.132   4.301
  180POPC   GL2 2705   2.637  10.396   4.326
  180POPC   C1A 2706   2.699  10.012   4.712
  180POPC   D2A 2707   2.974  10.104   5.060
  180POPC   C3A 2708   2.830  10.154   5.470
  180POPC   C4A 2709   2.453  10.160   5.729
  180POPC   C1B 2710   2.820  10.490   4.697
  180POPC   C2B 2711   2.545  10.414   5.049
  180POPC   C3B 2712   2.498  10.586   5.445
  180POPC   C4B 2713   2.808  10.563   5.793
  181POPC   NC3 2714  11.325   4.343   4.014
  181POPC   PO4 2715  11.266   5.004   3.791
  181POPC   GL1 2716  11.281   4.796   4.274
  181POPC   GL2 2717  11.040   4.506   4.385
  181POPC   C1A 2718  11.425   4.615   4.688
  181POPC   D2A 2719  11.162   4.422   5.034
  181POPC   C3A 2720  11.340   4.495   5.444
  181POPC   C4A 2721  11.100   4.468   5.787
  181POPC   C1B 2722  11.202   4.145   4.615
  181POPC   C2B 2723  11.343   3.913   4.987
  181POPC   C3B 2724  11.261   3.995   5.399
  181POPC   C4B 2725  11.342   4.021   5.828
  182POPC   NC3 2726   2.672  10.994   3.535
  182POPC   PO4 2727   2.966  10.448   3.921
  182POPC   GL1 2728   2.833  10.850   4.233
  182POPC   GL2 2729   2.666  11.186   4.172
  182POPC   C1A 2730   2.702  10.989   4.673
  182POPC   D2A 2731   2.829  10.824   5.095
  182POPC   C3A 2732   2.839  10.980   5.508
  182POPC   C4A 2733   3.081  10.971   5.942
  182POPC   C1B 2734   2.818  11.466   4.546
  182POPC   C2B 2735   2.857   0.129   4.986
  182POPC   C3B 2736   2.696   0.002   5.401
  182POPC   C4B 2737   2.777  11.357   5.816
  183POPC   NC3 2738   9.035   8.242   4.021
  183POPC   PO4 2739   8.446   8.383   3.995
  183POPC   GL1 2740   8.684   8.171   4.383
  183POPC   GL2 2741   9.000   7.930   4.412
  183POPC   C1A 2742   8.826   8.229   4.813
  183POPC   D2A 2743   8.584   8.245   5.197
  183POPC   C3A 2744   8.720   8.249   5.612
  183POPC   C4A 2745   8.506   8.314   6.023
  183POPC   C1B 2746   9.231   7.919   4.812
  183POPC   C2B 2747   9.060   7.968   5.241
  183POPC   C3B 2748   9.043   7.799   5.671
  183POPC   C4B 2749   8.707   7.807   5.994
  184POPC   NC3 2750   1.334  10.287   3.975
  184POPC   PO4 2751   1.783  10.718   4.071
  184POPC   GL1 2752   1.595  10.494   4.368
  184POPC   GL2 2753   1.283  10.644   4.298
  184POPC   C1A 2754   1.633  10.187   4.705
  184POPC   D2A 2755   1.632  10.309   5.147
  184POPC   C3A 2756   1.539  10.037   5.483
  184POPC   C4A 2757   1.579   9.929   5.907
  184POPC   C1B 2758   1.166  10.405   4.653
  184POPC   C2B 2759   1.133  10.560   5.046
  184POPC   C3B 2760   1.223  10.457   5.431
  184POPC   C4B 2761   1.075  10.594   5.785
  185POPC   NC3 2762   4.564   8.979   3.917
  185POPC   PO4 2763   4.061   9.222   3.748
  185POPC   GL1 2764   4.173   9.225   4.228
  185POPC   GL2 2765   4.336   8.968   4.403
  185POPC   C1A 2766   4.066   9.269   4.716
  185POPC   D2A 2767   4.178   9.376   5.189
  185POPC   C3A 2768   4.016   9.228   5.619
  185POPC   C4A 2769   4.088   8.964   6.032
  185POPC   C1B 2770   4.545   9.108   4.798
  185POPC   C2B 2771   4.563   8.966   5.211
  185POPC   C3B 2772   4.381   8.867   5.586
  185POPC   C4B 2773   4.479   8.599   5.930
  186POPC   NC3 2774  11.172   9.406   4.083
  186POPC   PO4 2775  10.777  10.034   4.017
  186POPC   GL1 2776  10.967  10.009   4.447
  186POPC   GL2 2777  11.167   9.705   4.486
  186POPC   C1A 2778  10.905   9.840   4.882
  186POPC   D2A 2779  10.864   9.587   5.233
  186POPC   C3A 2780  11.015   9.773   5.577
  186POPC   C4A 2781  11.396   9.887   5.796
  186POPC   C1B 2782  11.250   9.455   4.873
  186POPC   C2B 2783  11.455   9.503   5.272
  186POPC   C3B 2784  11.322   9.383   5.644
  186POPC   C4B 2785  10.905   9.318   5.845
  187POPC   NC3 2786   2.480   5.967   3.683
  187POPC   PO4 2787   3.131   6.173   3.905
  187POPC   GL1 2788   2.789   6.135   4.237
  187POPC   GL2 2789   2.519   5.877   4.188
  187POPC   C1A 2790   2.891   6.014   4.667
  187POPC   D2A 2791   3.121   5.954   5.080
  187POPC   C3A 2792   2.957   5.953   5.525
  187POPC   C4A 2793   2.993   6.302   5.835
  187POPC   C1B 2794   2.403   5.846   4.644
  187POPC   C2B 2795   2.253   5.872   5.102
  187POPC   C3B 2796   2.458   5.758   5.488
  187POPC   C4B 2797   2.730   5.472   5.693
  188POPC   NC3 2798  11.411   8.028   3.975
  188POPC   PO4 2799  10.766   8.309   3.795
  188POPC   GL1 2800  10.982   8.273   4.198
  188POPC   GL2 2801  11.073   7.943   4.346
  188POPC   C1A 2802  10.885   8.281   4.652
  188POPC   D2A 2803  10.759   8.236   5.052
  188POPC   C3A 2804  11.045   8.370   5.361
  188POPC   C4A 2805  11.079   8.286   5.793
  188POPC   C1B 2806  11.340   7.890   4.707
  188POPC   C2B 2807  11.165   7.872   5.104
  188POPC   C3B 2808  11.348   7.976   5.478
  188POPC   C4B 2809  11.396   7.861   5.905
  189POPC   NC3 2810   1.775   9.652   3.971
  189POPC   PO4 2811   1.180   9.891   3.812
  189POPC   GL1 2812   1.310   9.837   4.220
  189POPC   GL2 2813   1.324   9.504   4.165
  189POPC   C1A 2814   1.177   9.875   4.649
  189POPC   D2A 2815   1.197  10.043   5.062
  189POPC   C3A 2816   0.909   9.953   5.399
  189POPC   C4A 2817   1.098  10.086   5.767
  189POPC   C1B 2818   1.531   9.501   4.580
  189POPC   C2B 2819   1.433   9.416   5.012
  189POPC   C3B 2820   1.473   9.532   5.446
  189POPC   C4B 2821   1.181   9.592   5.776
  190POPC   NC3 2822   1.247   7.293   3.901
  190POPC   PO4 2823   1.555   6.789   3.758
  190POPC   GL1 2824   1.464   6.939   4.192
  190POPC   GL2 2825   1.134   6.851   4.303
  190POPC   C1A 2826   1.484   7.008   4.668
  190POPC   D2A 2827   1.654   7.151   5.084
  190POPC   C3A 2828   1.433   7.341   5.464
  190POPC   C4A 2829   1.597   7.387   5.898
  190POPC   C1B 2830   0.979   6.965   4.744
  190POPC   C2B 2831   0.855   7.072   5.191
  190POPC   C3B 2832   0.948   6.970   5.635
  190POPC   C4B 2833   1.132   7.187   5.986
  191POPC   NC3 2834   9.849   5.537   3.887
  191POPC   PO4 2835   9.252   5.335   3.953
  191POPC   GL1 2836   9.517   5.497   4.359
  191POPC   GL2 2837   9.827   5.732   4.379
  191POPC   C1A 2838   9.650   5.513   4.826
  191POPC   D2A 2839   9.590   5.716   5.242
  191POPC   C3A 2840   9.614   5.511   5.660
  191POPC   C4A 2841   9.432   5.393   6.094
  191POPC   C1B 2842   9.885   5.983   4.798
  191POPC   C2B 2843   9.903   6.112   5.242
  191POPC   C3B 2844   9.689   6.061   5.628
  191POPC   C4B 2845   9.646   6.354   5.976
  192POPC   NC3 2846   2.743   2.217   3.914
  192POPC   PO4 2847   3.381   2.167   4.056
  192POPC   GL1 2848   3.096   1.834   4.215
  192POPC   GL2 2849   2.785   2.005   4.350
  192POPC   C1A 2850   3.042   1.750   4.669
  192POPC   D2A 2851   2.915   2.068   4.943
  192POPC   C3A 2852   3.025   1.957   5.327
  192POPC   C4A 2853   3.014   2.166   5.673
  192POPC   C1B 2854   2.545   1.804   4.686
  192POPC   C2B 2855   2.519   1.802   5.116
  192POPC   C3B 2856   2.534   1.955   5.538
  192POPC   C4B 2857   2.816   1.684   5.747
  193POPC   NC3 2858   2.041   2.100   3.909
  193POPC   PO4 2859   1.761   1.528   4.182
  193POPC   GL1 2860   1.815   1.978   4.353
  193POPC   GL2 2861   2.197   2.013   4.383
  193POPC   C1A 2862   1.946   2.266   4.721
  193POPC   D2A 2863   2.247   2.206   5.040
  193POPC   C3A 2864   2.156   2.311   5.435
  193POPC   C4A 2865   1.837   2.300   5.739
  193POPC   C1B 2866   2.054   1.760   4.777
  193POPC   C2B 2867   1.984   1.804   5.232
  193POPC   C3B 2868   2.028   1.836   5.677
  193POPC   C4B 2869   2.273   1.857   6.023
  194POPC   NC3 2870   8.194   1.894   3.872
  194POPC   PO4 2871   7.675   2.340   3.819
  194POPC   GL1 2872   7.919   2.213   4.209
  194POPC   GL2 2873   8.030   1.877   4.333
  194POPC   C1A 2874   8.031   2.261   4.670
  194POPC   D2A 2875   7.990   2.100   5.110
  194POPC   C3A 2876   8.079   2.389   5.462
  194POPC   C4A 2877   8.253   2.399   5.878
  194POPC   C1B 2878   8.170   1.764   4.755
  194POPC   C2B 2879   8.131   1.549   5.145
  194POPC   C3B 2880   7.879   1.674   5.468
  194POPC   C4B 2881   7.939   1.997   5.757
  195POPC   NC3 2882   0.938   1.100   3.702
  195POPC   PO4 2883   0.839   1.674   4.093
  195POPC   GL1 2884   0.966   1.308   4.280
  195POPC   GL2 2885   1.328   1.196   4.263
  195POPC   C1A 2886   1.049   1.275   4.712
  195POPC   D2A 2887   1.062   1.533   5.090
  195POPC   C3A 2888   1.045   1.294   5.456
  195POPC   C4A 2889   1.230   1.223   5.841
  195POPC   C1B 2890   1.426   0.934   4.624
  195POPC   C2B 2891   1.344   1.034   5.053
  195POPC   C3B 2892   1.463   1.001   5.444
  195POPC   C4B 2893   1.744   0.879   5.684
  196POPC   NC3 2894  11.084  10.363   4.088
  196POPC   PO4 2895  10.881  10.882   3.805
  196POPC   GL1 2896  10.960  10.816   4.253
  196POPC   GL2 2897  11.369  10.733   4.288
  196POPC   C1A 2898  10.808  10.654   4.662
  196POPC   D2A 2899  10.848  10.795   5.087
  196POPC   C3A 2900  10.898  10.673   5.517
  196POPC   C4A 2901  10.844  10.660   6.020
  196POPC   C1B 2902  11.311  10.481   4.674
  196POPC   C2B 2903  11.062  10.327   5.017
  196POPC   C3B 2904  11.235  10.247   5.419
  196POPC   C4B 2905  11.289  10.501   5.778
  197POPC   NC3 2906   7.351   0.991   4.072
  197POPC   PO4 2907   7.822   1.505   3.944
  197POPC   GL1 2908   7.715   1.248   4.281
  197POPC   GL2 2909   7.423   1.392   4.403
  197POPC   C1A 2910   7.574   0.992   4.677
  197POPC   D2A 2911   7.251   0.899   4.993
  197POPC   C3A 2912   7.303   1.042   5.411
  197POPC   C4A 2913   7.389   1.021   5.832
  197POPC   C1B 2914   7.297   1.427   4.843
  197POPC   C2B 2915   7.180   1.518   5.279
  197POPC   C3B 2916   6.922   1.356   5.615
  197POPC   C4B 2917   7.003   1.259   6.050
  198POPC   NC3 2918   9.712   9.049   3.978
  198POPC   PO4 2919   9.240   8.653   4.022
  198POPC   GL1 2920   9.386   8.858   4.320
  198POPC   GL2 2921   9.692   8.640   4.305
  198POPC   C1A 2922   9.520   8.904   4.716
  198POPC   D2A 2923   9.374   8.925   5.085
  198POPC   C3A 2924   9.520   9.143   5.402
  198POPC   C4A 2925   9.525   9.071   5.824
  198POPC   C1B 2926   9.925   8.597   4.683
  198POPC   C2B 2927   9.786   8.619   5.124
  198POPC   C3B 2928   9.608   8.635   5.547
  198POPC   C4B 2929   9.742   8.640   5.998
  199POPC   NC3 2930   8.767  10.751   4.053
  199POPC   PO4 2931   9.098  10.103   4.070
  199POPC   GL1 2932   9.166  10.491   4.280
  199POPC   GL2 2933   8.835  10.433   4.426
  199POPC   C1A 2934   9.165  10.616   4.729
  199POPC   D2A 2935   8.941  10.261   4.973
  199POPC   C3A 2936   9.046  10.314   5.420
  199POPC   C4A 2937   9.085  10.580   5.808
  199POPC   C1B 2938   8.538  10.210   4.620
  199POPC   C2B 2939   8.488  10.005   5.012
  199POPC   C3B 2940   8.507  10.239   5.394
  199POPC   C4B 2941   8.715  10.244   5.794
  200POPC   NC3 2942   1.556   8.802   3.761
  200POPC   PO4 2943   0.910   8.591   3.955
  200POPC   GL1 2944   1.090   8.746   4.373
  200POPC   GL2 2945   1.206   9.056   4.368
  200POPC   C1A 2946   1.305   8.597   4.795
  200POPC   D2A 2947   1.268   8.398   5.228
  200POPC   C3A 2948   1.104   8.654   5.579
  200POPC   C4A 2949   1.298   8.598   6.011
  200POPC   C1B 2950   1.111   9.071   4.812
  200POPC   C2B 2951   1.345   8.949   5.208
  200POPC   C3B 2952   1.386   9.073   5.651
  200POPC   C4B 2953   1.031   9.113   5.842
  201POPC   NC3 2954   9.698   4.121   3.902
  201POPC   PO4 2955   9.650   3.457   3.982
  201POPC   GL1 2956   9.797   3.683   4.322
  201POPC   GL2 2957   9.452   3.760   4.390
  201POPC   C1A 2958   9.760   3.773   4.792
  201POPC   D2A 2959   9.524   3.824   5.174
  201POPC   C3A 2960   9.788   3.918   5.550
  201POPC   C4A 2961  10.001   3.814   5.954
  201POPC   C1B 2962   9.421   3.359   4.677
  201POPC   C2B 2963   9.475   3.209   5.109
  201POPC   C3B 2964   9.499   3.427   5.503
  201POPC   C4B 2965   9.188   3.570   5.760
  202POPC   NC3 2966   5.828   0.994   3.921
  202POPC   PO4 2967   5.405   1.513   3.904
  202POPC   GL1 2968   5.480   1.507   4.313
  202POPC   GL2 2969   5.556   1.171   4.309
  202POPC   C1A 2970   5.660   1.404   4.731
  202POPC   D2A 2971   5.472   1.421   5.115
  202POPC   C3A 2972   5.786   1.464   5.397
  202POPC   C4A 2973   5.940   1.672   5.734
  202POPC   C1B 2974   5.442   0.941   4.704
  202POPC   C2B 2975   5.554   0.862   5.126
  202POPC   C3B 2976   5.501   1.058   5.521
  202POPC   C4B 2977   5.949   1.090   5.720
  203POPC   NC3 2978   9.584   2.522   3.890
  203POPC   PO4 2979  10.220   2.636   3.764
  203POPC   GL1 2980  10.025   2.498   4.197
  203POPC   GL2 2981   9.689   2.663   4.352
  203POPC   C1A 2982  10.010   2.470   4.666
  203POPC   D2A 2983   9.895   2.277   5.055
  203POPC   C3A 2984   9.905   2.555   5.400
  203POPC   C4A 2985   9.876   2.516   5.847
  203POPC   C1B 2986   9.584   2.761   4.797
  203POPC   C2B 2987   9.385   2.563   5.148
  203POPC   C3B 2988   9.433   2.664   5.570
  203POPC   C4B 2989   9.726   2.984   5.655
  204POPC   NC3 2990  11.394   5.273   4.136
  204POPC   PO4 2991  10.795   4.915   4.202
  204POPC   GL1 2992  10.832   4.954   4.542
  204POPC   GL2 2993  10.962   5.304   4.492
  204POPC   C1A 2994  10.744   4.750   4.925
  204POPC   D2A 2995  10.995   4.826   5.284
  204POPC   C3A 2996  10.901   4.923   5.674
  204POPC   C4A 2997  10.747   5.295   5.683
  204POPC   C1B 2998  11.217   5.068   4.820
  204POPC   C2B 2999  11.493   4.907   5.130
  204POPC   C3B 3000  11.409   5.056   5.517
  204POPC   C4B 3001  11.450   4.817   5.828
  205POPC   NC3 3002  10.304   3.759   3.838
  205POPC   PO4 3003  10.925   4.081   3.961
  205POPC   GL1 3004  10.613   3.774   4.272
  205POPC   GL2 3005  10.309   3.519   4.271
  205POPC   C1A 3006  10.578   3.444   4.681
  205POPC   D2A 3007  10.536   3.540   5.137
  205POPC   C3A 3008  10.576   3.288   5.534
  205POPC   C4A 3009  10.902   3.261   5.846
  205POPC   C1B 3010  10.242   3.835   4.628
  205POPC   C2B 3011  10.174   3.900   5.103
  205POPC   C3B 3012  10.295   3.742   5.542
  205POPC   C4B 3013  10.135   3.351   5.796
  206POPC   NC3 3014   3.608   0.975   3.743
  206POPC   PO4 3015   3.664   1.578   3.678
  206POPC   GL1 3016   3.403   1.327   4.219
  206POPC   GL2 3017   3.512   0.977   4.229
  206POPC   C1A 3018   3.665   1.128   4.685
  206POPC   D2A 3019   3.834   0.913   5.101
  206POPC   C3A 3020   3.753   1.086   5.545
  206POPC   C4A 3021   3.671   1.376   5.908
  206POPC   C1B 3022   3.304   0.802   4.574
  206POPC   C2B 3023   3.312   0.961   5.024
  206POPC   C3B 3024   3.253   1.141   5.450
  206POPC   C4B 3025   3.335   0.978   5.876
  207POPC   NC3 3026   5.770   9.768   3.916
  207POPC   PO4 3027   5.649   9.186   4.088
  207POPC   GL1 3028   5.642   9.482   4.441
  207POPC   GL2 3029   5.602   9.822   4.400
  207POPC   C1A 3030   5.779   9.601   4.882
  207POPC   D2A 3031   5.744   9.516   5.348
  207POPC   C3A 3032   6.118   9.602   5.651
  207POPC   C4A 3033   6.305   9.452   6.074
  207POPC   C1B 3034   5.316   9.777   4.759
  207POPC   C2B 3035   5.233   9.590   5.218
  207POPC   C3B 3036   5.379   9.666   5.691
  207POPC   C4B 3037   5.563   9.946   6.065
  208POPC   NC3 3038   0.399  11.456   3.973
  208POPC   PO4 3039   0.677  10.868   3.836
  208POPC   GL1 3040   0.619  11.092   4.233
  208POPC   GL2 3041   0.256  11.098   4.321
  208POPC   C1A 3042   0.649  11.136   4.688
  208POPC   D2A 3043   0.785  11.236   5.109
  208POPC   C3A 3044   0.911  10.913   5.373
  208POPC   C4A 3045   0.629  10.813   5.695
  208POPC   C1B 3046   0.229  10.845   4.721
  208POPC   C2B 3047   0.391  10.870   5.193
  208POPC   C3B 3048   0.340  11.199   5.551
  208POPC   C4B 3049   0.095   0.091   5.601
  209POPC   NC3 3050   3.318  10.240   3.657
  209POPC   PO4 3051   3.679   9.883   4.086
  209POPC   GL1 3052   3.569   9.753   4.416
  209POPC   GL2 3053   3.726   9.433   4.365
  209POPC   C1A 3054   3.251   9.811   4.710
  209POPC   D2A 3055   3.256   9.660   5.092
  209POPC   C3A 3056   3.492   9.785   5.452
  209POPC   C4A 3057   3.276   9.987   5.749
  209POPC   C1B 3058   3.524   9.354   4.767
  209POPC   C2B 3059   3.653   9.358   5.212
  209POPC   C3B 3060   3.504   9.313   5.657
  209POPC   C4B 3061   3.642   9.244   6.111
  210POPC   NC3 3062   0.203   8.015   3.384
  210POPC   PO4 3063   0.304   7.802   4.048
  210POPC   GL1 3064   0.235   7.975   4.393
  210POPC   GL2 3065   0.555   8.111   4.373
  210POPC   C1A 3066   0.402   7.841   4.788
  210POPC   D2A 3067   0.195   7.780   5.138
  210POPC   C3A 3068   0.367   7.934   5.517
  210POPC   C4A 3069   0.195   8.255   5.723
  210POPC   C1B 3070   0.395   8.339   4.721
  210POPC   C2B 3071   0.452   8.320   5.141
  210POPC   C3B 3072   0.526   8.560   5.477
  210POPC   C4B 3073   0.638   8.448   5.875
  211POPC   NC3 3074   7.838  10.388   3.873
  211POPC   PO4 3075   8.399  10.758   3.783
  211POPC   GL1 3076   8.214  10.540   4.210
  211POPC   GL2 3077   8.128  10.176   4.242
  211POPC   C1A 3078   8.147  10.646   4.693
  211POPC   D2A 3079   7.888  10.755   5.103
  211POPC   C3A 3080   8.115  10.636   5.489
  211POPC   C4A 3081   8.235  10.396   5.841
  211POPC   C1B 3082   8.051  10.108   4.667
  211POPC   C2B 3083   8.082  10.283   5.080
  211POPC   C3B 3084   7.960  10.130   5.482
  211POPC   C4B 3085   7.899   9.988   5.930
  212POPC   NC3 3086   1.666   5.460   3.970
  212POPC   PO4 3087   1.801   6.056   3.774
  212POPC   GL1 3088   1.802   5.912   4.199
  212POPC   GL2 3089   2.027   5.684   4.331
  212POPC   C1A 3090   1.636   5.929   4.597
  212POPC   D2A 3091   1.574   6.152   4.968
  212POPC   C3A 3092   1.826   6.103   5.325
  212POPC   C4A 3093   1.664   6.184   5.720
  212POPC   C1B 3094   1.955   5.585   4.767
  212POPC   C2B 3095   1.796   5.618   5.186
  212POPC   C3B 3096   1.981   5.554   5.600
  212POPC   C4B 3097   1.932   5.299   6.021
  213POPC   NC3 3098   5.638  11.301   3.566
  213POPC   PO4 3099   6.189   0.211   3.852
  213POPC   GL1 3100   6.120   0.034   4.259
  213POPC   GL2 3101   5.882  11.263   4.242
  213POPC   C1A 3102   6.004   0.035   4.711
  213POPC   D2A 3103   6.027  11.244   5.046
  213POPC   C3A 3104   6.042  11.421   5.412
  213POPC   C4A 3105   6.109  11.200   5.769
  213POPC   C1B 3106   5.737  11.101   4.632
  213POPC   C2B 3107   5.556  10.968   5.051
  213POPC   C3B 3108   5.626  11.103   5.480
  213POPC   C4B 3109   5.629  11.215   5.908
  214POPC   NC3 3110   0.244   4.970   3.749
  214POPC   PO4 3111   0.836   4.573   3.895
  214POPC   GL1 3112   0.672   4.826   4.260
  214POPC   GL2 3113   0.368   5.042   4.279
  214POPC   C1A 3114   0.746   5.000   4.668
  214POPC   D2A 3115   0.798   4.833   5.101
  214POPC   C3A 3116   0.452   4.686   5.379
  214POPC   C4A 3117   0.459   4.798   5.819
  214POPC   C1B 3118   0.236   5.052   4.696
  214POPC   C2B 3119   0.444   5.217   5.068
  214POPC   C3B 3120   0.399   5.196   5.500
  214POPC   C4B 3121   0.204   5.253   5.918
  215POPC   NC3 3122   5.614   0.117   3.982
  215POPC   PO4 3123   5.398   0.816   3.942
  215POPC   GL1 3124   5.653   0.655   4.313
  215POPC   GL2 3125   5.691   0.307   4.418
  215POPC   C1A 3126   5.843   0.613   4.766
  215POPC   D2A 3127   5.860   0.371   5.151
  215POPC   C3A 3128   5.797   0.616   5.551
  215POPC   C4A 3129   5.584   0.779   5.931
  215POPC   C1B 3130   5.482   0.040   4.694
  215POPC   C2B 3131   5.557  11.466   5.134
  215POPC   C3B 3132   5.610   0.139   5.554
  215POPC   C4B 3133   5.962   0.203   5.841
  216POPC   NC3 3134   2.913   7.597   4.053
  216POPC   PO4 3135   2.318   7.942   4.043
  216POPC   GL1 3136   2.640   7.951   4.326
  216POPC   GL2 3137   2.421   7.993   4.563
  216POPC   C1A 3138   2.904   7.919   4.734
  216POPC   D2A 3139   2.860   8.111   5.188
  216POPC   C3A 3140   2.974   8.029   5.636
  216POPC   C4A 3141   2.686   7.877   5.980
  216POPC   C1B 3142   2.591   8.324   4.796
  216POPC   C2B 3143   2.411   8.345   5.215
  216POPC   C3B 3144   2.500   8.210   5.614
  216POPC   C4B 3145   2.626   8.392   5.988
  217POPC   NC3 3146   1.864   6.497   3.941
  217POPC   PO4 3147   2.461   6.357   3.900
  217POPC   GL1 3148   2.178   6.245   4.281
  217POPC   GL2 3149   2.026   6.555   4.423
  217POPC   C1A 3150   2.040   6.177   4.749
  217POPC   D2A 3151   2.201   6.396   5.125
  217POPC   C3A 3152   2.179   6.606   5.543
  217POPC   C4A 3153   1.954   6.555   5.921
  217POPC   C1B 3154   1.802   6.619   4.832
  217POPC   C2B 3155   1.737   6.602   5.269
  217POPC   C3B 3156   1.781   6.947   5.554
  217POPC   C4B 3157   2.016   7.100   5.893
  218POPC   NC3 3158   0.541   3.403   3.887
  218POPC   PO4 3159   0.066   3.942   3.996
  218POPC   GL1 3160   0.353   3.827   4.312
  218POPC   GL2 3161   0.350   3.512   4.385
  218POPC   C1A 3162   0.588   3.876   4.670
  218POPC   D2A 3163   0.336   3.766   5.023
  218POPC   C3A 3164   0.467   3.692   5.416
  218POPC   C4A 3165   0.282   3.764   5.773
  218POPC   C1B 3166   0.355   3.284   4.768
  218POPC   C2B 3167   0.483   3.275   5.140
  218POPC   C3B 3168   0.291   3.119   5.427
  218POPC   C4B 3169   0.354   3.265   5.784
  219POPC   NC3 3170  10.206   7.138   4.020
  219POPC   PO4 3171  10.879   7.424   3.990
  219POPC   GL1 3172  10.795   7.156   4.327
  219POPC   GL2 3173  10.465   7.250   4.418
  219POPC   C1A 3174  10.779   7.062   4.755
  219POPC   D2A 3175  10.613   6.959   5.149
  219POPC   C3A 3176  10.784   7.117   5.507
  219POPC   C4A 3177  10.439   6.966   5.747
  219POPC   C1B 3178  10.571   7.567   4.689
  219POPC   C2B 3179  10.366   7.656   5.092
  219POPC   C3B 3180  10.341   7.387   5.406
  219POPC   C4B 3181  10.525   7.479   5.759
  220POPC   NC3 3182  10.599   4.583   3.968
  220POPC   PO4 3183  10.127   4.190   4.039
  220POPC   GL1 3184  10.253   4.399   4.378
  220POPC   GL2 3185  10.549   4.526   4.469
  220POPC   C1A 3186  10.215   4.319   4.793
  220POPC   D2A 3187  10.461   4.344   5.115
  220POPC   C3A 3188  10.212   4.259   5.467
  220POPC   C4A 3189  10.136   4.402   5.867
  220POPC   C1B 3190  10.684   4.137   4.656
  220POPC   C2B 3191  10.838   3.999   5.062
  220POPC   C3B 3192  10.809   4.229   5.455
  220POPC   C4B 3193  10.567   4.127   5.811
  221POPC   NC3 3194   5.001   8.186   3.868
  221POPC   PO4 3195   4.776   7.659   4.128
  221POPC   GL1 3196   4.937   7.930   4.464
  221POPC   GL2 3197   4.897   8.253   4.363
  221POPC   C1A 3198   4.831   8.105   4.893
  221POPC   D2A 3199   4.578   8.271   5.242
  221POPC   C3A 3200   4.569   8.018   5.613
  221POPC   C4A 3201   4.718   7.685   5.888
  221POPC   C1B 3202   5.182   8.412   4.673
  221POPC   C2B 3203   5.284   8.221   5.090
  221POPC   C3B 3204   5.052   8.188   5.494
  221POPC   C4B 3205   4.883   8.274   5.925
  222POPC   NC3 3206   1.144   4.218   3.857
  222POPC   PO4 3207   1.251   3.695   4.090
  222POPC   GL1 3208   1.035   4.030   4.384
  222POPC   GL2 3209   1.092   4.408   4.315
  222POPC   C1A 3210   1.033   4.007   4.862
  222POPC   D2A 3211   1.283   3.963   5.238
  222POPC   C3A 3212   1.250   4.122   5.681
  222POPC   C4A 3213   1.495   3.995   6.066
  222POPC   C1B 3214   0.995   4.522   4.710
  222POPC   C2B 3215   1.169   4.450   5.105
  222POPC   C3B 3216   0.962   4.518   5.467
  222POPC   C4B 3217   0.906   4.543   5.858
  223POPC   NC3 3218   2.546   8.326   3.955
  223POPC   PO4 3219   2.721   9.032   3.961
  223POPC   GL1 3220   2.776   8.740   4.289
  223POPC   GL2 3221   2.484   8.620   4.401
  223POPC   C1A 3222   2.868   8.778   4.742
  223POPC   D2A 3223   2.815   8.639   5.148
  223POPC   C3A 3224   2.746   8.680   5.570
  223POPC   C4A 3225   3.076   8.611   5.894
  223POPC   C1B 3226   2.491   9.065   4.597
  223POPC   C2B 3227   2.559   9.162   5.050
  223POPC   C3B 3228   2.645   9.203   5.508
  223POPC   C4B 3229   3.037   9.094   5.728
  224POPC   NC3 3230   9.942   0.539   3.966
  224POPC   PO4 3231  10.536   0.205   4.069
  224POPC   GL1 3232  10.337   0.228   4.465
  224POPC   GL2 3233  10.271   0.556   4.382
  224POPC   C1A 3234  10.261   0.114   4.920
  224POPC   D2A 3235  10.345   0.429   5.235
  224POPC   C3A 3236  10.442   0.257   5.615
  224POPC   C4A 3237  10.048   0.139   5.779
  224POPC   C1B 3238  10.441   0.686   4.783
  224POPC   C2B 3239  10.785   0.685   5.111
  224POPC   C3B 3240  10.633   0.790   5.531
  224POPC   C4B 3241  10.631   0.741   6.004
  225POPC   NC3 3242   2.238   3.068   4.058
  225POPC   PO4 3243   1.558   3.084   3.919
  225POPC   GL1 3244   1.793   2.881   4.271
  225POPC   GL2 3245   1.936   2.518   4.232
  225POPC   C1A 3246   1.676   2.722   4.676
  225POPC   D2A 3247   1.617   2.882   5.081
  225POPC   C3A 3248   1.810   2.742   5.449
  225POPC   C4A 3249   1.744   2.910   5.840
  225POPC   C1B 3250   2.182   2.696   4.600
  225POPC   C2B 3251   2.106   2.687   5.028
  225POPC   C3B 3252   2.366   2.788   5.385
  225POPC   C4B 3253   2.212   2.686   5.787
  226POPC   NC3 3254   6.887   7.917   3.962
  226POPC   PO4 3255   7.007   8.448   3.832
  226POPC   GL1 3256   7.051   8.382   4.299
  226POPC   GL2 3257   7.365   8.248   4.409
  226POPC   C1A 3258   7.033   8.388   4.787
  226POPC   D2A 3259   7.257   8.315   5.192
  226POPC   C3A 3260   7.096   8.372   5.608
  226POPC   C4A 3261   7.055   8.056   5.938
  226POPC   C1B 3262   7.545   8.459   4.791
  226POPC   C2B 3263   7.761   8.346   5.190
  226POPC   C3B 3264   7.589   8.222   5.607
  226POPC   C4B 3265   7.482   8.314   6.070
  227POPC   NC3 3266   1.264   0.264   4.094
  227POPC   PO4 3267   1.016   0.853   4.064
  227POPC   GL1 3268   0.974   0.730   4.444
  227POPC   GL2 3269   0.930   0.378   4.474
  227POPC   C1A 3270   0.959   0.760   4.855
  227POPC   D2A 3271   0.794   0.979   5.156
  227POPC   C3A 3272   1.003   0.745   5.486
  227POPC   C4A 3273   1.248   0.716   5.868
  227POPC   C1B 3274   1.320   0.413   4.746
  227POPC   C2B 3275   1.218   0.352   5.175
  227POPC   C3B 3276   1.404   0.352   5.558
  227POPC   C4B 3277   1.559   0.012   5.774
  228POPC   NC3 3278  10.859   7.866   3.898
  228POPC   PO4 3279  11.451   7.685   3.656
  228POPC   GL1 3280  11.348   7.555   4.177
  228POPC   GL2 3281  11.332   7.216   4.266
  228POPC   C1A 3282  11.073   7.484   4.629
  228POPC   D2A 3283  10.858   7.433   5.092
  228POPC   C3A 3284  11.025   7.570   5.520
  228POPC   C4A 3285  10.952   7.580   5.993
  228POPC   C1B 3286  11.274   7.024   4.680
  228POPC   C2B 3287  11.143   6.875   5.086
  228POPC   C3B 3288  11.316   7.028   5.464
  228POPC   C4B 3289  11.257   7.223   5.840
  229POPC   NC3 3290   4.360   2.570   3.894
  229POPC   PO4 3291   3.928   2.932   3.972
  229POPC   GL1 3292   4.006   2.676   4.354
  229POPC   GL2 3293   4.254   2.415   4.384
  229POPC   C1A 3294   3.834   2.700   4.757
  229POPC   D2A 3295   3.775   2.533   5.175
  229POPC   C3A 3296   4.083   2.778   5.403
  229POPC   C4A 3297   4.256   3.024   5.730
  229POPC   C1B 3298   4.293   2.487   4.846
  229POPC   C2B 3299   4.289   2.328   5.262
  229POPC   C3B 3300   4.387   2.460   5.664
  229POPC   C4B 3301   4.701   2.760   5.779
  230POPC   NC3 3302   4.823   9.936   4.048
  230POPC   PO4 3303   5.467  10.110   4.005
  230POPC   GL1 3304   5.396  10.317   4.371
  230POPC   GL2 3305   5.297  10.689   4.345
  230POPC   C1A 3306   5.259  10.342   4.770
  230POPC   D2A 3307   5.130  10.588   5.113
  230POPC   C3A 3308   5.127  10.239   5.355
  230POPC   C4A 3309   5.311  10.168   5.704
  230POPC   C1B 3310   4.910  10.723   4.628
  230POPC   C2B 3311   4.758  10.937   5.026
  230POPC   C3B 3312   4.714  10.761   5.430
  230POPC   C4B 3313   5.096  10.649   5.653
  231POPC   NC3 3314  10.632   2.815   3.868
  231POPC   PO4 3315  10.703   3.447   3.899
  231POPC   GL1 3316  10.655   3.122   4.274
  231POPC   GL2 3317  10.318   2.956   4.247
  231POPC   C1A 3318  10.829   2.955   4.707
  231POPC   D2A 3319  10.894   3.076   5.158
  231POPC   C3A 3320  10.816   2.830   5.543
  231POPC   C4A 3321  10.697   2.600   5.903
  231POPC   C1B 3322  10.488   2.600   4.514
  231POPC   C2B 3323  10.432   2.406   4.947
  231POPC   C3B 3324  10.427   2.536   5.359
  231POPC   C4B 3325  10.264   2.823   5.676
  232POPC   NC3 3326   7.288  10.811   4.008
  232POPC   PO4 3327   7.009  11.403   3.857
  232POPC   GL1 3328   7.127  11.279   4.284
  232POPC   GL2 3329   7.435  11.104   4.412
  232POPC   C1A 3330   7.004  11.262   4.720
  232POPC   D2A 3331   6.961  11.455   5.115
  232POPC   C3A 3332   6.951  11.196   5.497
  232POPC   C4A 3333   6.953  11.372   5.916
  232POPC   C1B 3334   7.424  10.915   4.831
  232POPC   C2B 3335   7.383  11.169   5.196
  232POPC   C3B 3336   7.450  11.297   5.612
  232POPC   C4B 3337   7.559  10.908   5.797
  233POPC   NC3 3338   1.651   3.790   3.899
  233POPC   PO4 3339   2.237   3.528   4.118
  233POPC   GL1 3340   1.788   3.472   4.293
  233POPC   GL2 3341   1.962   3.491   4.577
  233POPC   C1A 3342   1.530   3.730   4.658
  233POPC   D2A 3343   1.724   3.944   5.005
  233POPC   C3A 3344   1.742   3.798   5.447
  233POPC   C4A 3345   1.723   3.573   5.851
  233POPC   C1B 3346   1.973   3.128   4.790
  233POPC   C2B 3347   2.036   3.154   5.220
  233POPC   C3B 3348   2.115   3.176   5.623
  233POPC   C4B 3349   2.105   3.298   6.019
  234POPC   NC3 3350   9.009   1.814   3.869
  234POPC   PO4 3351   8.430   2.297   3.997
  234POPC   GL1 3352   8.835   2.186   4.229
  234POPC   GL2 3353   8.710   1.882   4.283
  234POPC   C1A 3354   9.031   2.118   4.672
  234POPC   D2A 3355   8.962   2.256   5.098
  234POPC   C3A 3356   9.061   1.985   5.420
  234POPC   C4A 3357   9.009   2.054   5.829
  234POPC   C1B 3358   8.538   2.079   4.655
  234POPC   C2B 3359   8.564   1.880   5.063
  234POPC   C3B 3360   8.347   1.939   5.438
  234POPC   C4B 3361   8.482   1.940   5.837
  235POPC   NC3 3362   9.528   0.080   3.424
  235POPC   PO4 3363   9.449   0.359   4.019
  235POPC   GL1 3364   9.624   0.321   4.373
  235POPC   GL2 3365   9.765   0.640   4.423
  235POPC   C1A 3366   9.403   0.355   4.761
  235POPC   D2A 3367   9.268   0.613   5.088
  235POPC   C3A 3368   9.324   0.317   5.365
  235POPC   C4A 3369   9.503   0.181   5.730
  235POPC   C1B 3370   9.933   0.462   4.771
  235POPC   C2B 3371   9.805   0.257   5.150
  235POPC   C3B 3372   9.820   0.523   5.503
  235POPC   C4B 3373  10.179   0.680   5.707
  236POPC   NC3 3374   8.926   1.050   3.911
  236POPC   PO4 3375   8.529   1.586   3.798
  236POPC   GL1 3376   8.627   1.388   4.187
  236POPC   GL2 3377   8.958   1.424   4.287
  236POPC   C1A 3378   8.607   1.483   4.663
  236POPC   D2A 3379   8.603   1.333   5.112
  236POPC   C3A 3380   8.717   1.600   5.493
  236POPC   C4A 3381   9.105   1.561   5.751
  236POPC   C1B 3382   9.050   1.136   4.638
  236POPC   C2B 3383   9.104   1.116   5.094
  236POPC   C3B 3384   8.915   1.140   5.496
  236POPC   C4B 3385   9.058   1.048   5.884
  237POPC   NC3 3386   0.215   7.350   3.889
  237POPC   PO4 3387   0.858   7.005   3.902
  237POPC   GL1 3388   0.656   7.110   4.347
  237POPC   GL2 3389   0.337   7.297   4.365
  237POPC   C1A 3390   0.599   7.310   4.797
  237POPC   D2A 3391   0.343   7.249   5.181
  237POPC   C3A 3392   0.466   7.184   5.639
  237POPC   C4A 3393   0.202   7.113   6.038
  237POPC   C1B 3394   0.087   7.435   4.704
  237POPC   C2B 3395  11.364   7.392   5.101
  237POPC   C3B 3396   0.047   7.498   5.538
  237POPC   C4B 3397   0.318   7.591   5.913
  238POPC   NC3 3398   5.552   1.941   3.967
  238POPC   PO4 3399   5.947   2.331   4.096
  238POPC   GL1 3400   5.813   2.001   4.394
  238POPC   GL2 3401   5.957   1.690   4.283
  238POPC   C1A 3402   5.488   1.873   4.711
  238POPC   D2A 3403   5.278   1.906   5.137
  238POPC   C3A 3404   5.557   1.928   5.498
  238POPC   C4A 3405   5.802   2.163   5.839
  238POPC   C1B 3406   6.055   1.728   4.755
  238POPC   C2B 3407   6.000   1.887   5.188
  238POPC   C3B 3408   6.223   2.068   5.537
  238POPC   C4B 3409   6.268   1.997   5.988
  239POPC   NC3 3410   0.633   6.654   4.108
  239POPC   PO4 3411   0.028   6.872   3.926
  239POPC   GL1 3412   0.188   6.795   4.311
  239POPC   GL2 3413   0.161   6.435   4.254
  239POPC   C1A 3414   0.263   6.920   4.720
  239POPC   D2A 3415   0.478   6.774   5.032
  239POPC   C3A 3416   0.324   6.742   5.435
  239POPC   C4A 3417   0.596   6.594   5.734
  239POPC   C1B 3418   0.367   6.414   4.671
  239POPC   C2B 3419   0.468   6.236   5.102
  239POPC   C3B 3420   0.299   6.213   5.507
  239POPC   C4B 3421   0.379   6.000   5.907
  240POPC   NC3 3422  10.381   9.670   3.934
  240POPC   PO4 3423  10.871   9.138   3.840
  240POPC   GL1 3424  10.518   9.287   4.228
  240POPC   GL2 3425  10.668   9.597   4.354
  240POPC   C1A 3426  10.439   9.310   4.718
  240POPC   D2A 3427  10.558   9.195   5.144
  240POPC   C3A 3428  10.407   9.460   5.443
  240POPC   C4A 3429  10.536   9.717   5.793
  240POPC   C1B 3430  10.292   9.787   4.573
  240POPC   C2B 3431  10.216   9.735   5.012
  240POPC   C3B 3432  10.159   9.903   5.467
  240POPC   C4B 3433  10.253  10.134   5.888
  241POPC   NC3 3434   4.833  11.128   3.808
  241POPC   PO4 3435   5.520  10.991   3.881
  241POPC   GL1 3436   5.357  11.216   4.247
  241POPC   GL2 3437   4.993  11.254   4.275
  241POPC   C1A 3438   5.229  11.102   4.681
  241POPC   D2A 3439   5.084  11.334   5.005
  241POPC   C3A 3440   5.113  11.122   5.376
  241POPC   C4A 3441   5.205  11.385   5.708
  241POPC   C1B 3442   4.714  11.298   4.658
  241POPC   C2B 3443   4.544  11.418   5.075
  241POPC   C3B 3444   4.550  11.274   5.479
  241POPC   C4B 3445   4.793  11.116   5.791
  242POPC   NC3 3446  11.348   6.177   3.711
  242POPC   PO4 3447  11.031   5.685   4.082
  242POPC   GL1 3448  11.159   5.782   4.461
  242POPC   GL2 3449  11.490   5.702   4.369
  242POPC   C1A 3450  11.231   5.583   4.873
  242POPC   D2A 3451  11.075   5.382   5.284
  242POPC   C3A 3452  11.045   5.701   5.645
  242POPC   C4A 3453  10.885   6.128   5.591
  242POPC   C1B 3454   0.074   6.004   4.661
  242POPC   C2B 3455  11.267   6.100   4.948
  242POPC   C3B 3456  11.331   6.017   5.358
  242POPC   C4B 3457  11.374   6.147   5.793
  243POPC   NC3 3458   8.200  11.213   3.921
  243POPC   PO4 3459   7.732  10.776   4.147
  243POPC   GL1 3460   7.979  11.036   4.367
  243POPC   GL2 3461   8.332  10.998   4.356
  243POPC   C1A 3462   7.897  11.125   4.765
  243POPC   D2A 3463   7.869  11.332   5.142
  243POPC   C3A 3464   7.934  11.109   5.521
  243POPC   C4A 3465   7.874  11.290   5.938
  243POPC   C1B 3466   8.398  11.226   4.710
  243POPC   C2B 3467   8.336  11.048   5.111
  243POPC   C3B 3468   8.445  11.195   5.496
  243POPC   C4B 3469   8.357  11.113   5.915
  244POPC   NC3 3470   2.287   8.889   4.001
  244POPC   PO4 3471   1.759   9.218   3.760
  244POPC   GL1 3472   1.705   9.140   4.227
  244POPC   GL2 3473   1.750   8.789   4.247
  244POPC   C1A 3474   1.607   9.005   4.712
  244POPC   D2A 3475   1.796   8.724   5.063
  244POPC   C3A 3476   1.667   8.662   5.516
  244POPC   C4A 3477   1.771   8.863   5.935
  244POPC   C1B 3478   2.031   8.754   4.590
  244POPC   C2B 3479   2.305   8.741   4.928
  244POPC   C3B 3480   2.279   8.827   5.361
  244POPC   C4B 3481   2.225   9.035   5.755
  245POPC   NC3 3482   4.274   0.455   3.868
  245POPC   PO4 3483   4.073  11.341   3.923
  245POPC   GL1 3484   4.124   0.172   4.274
  245POPC   GL2 3485   4.177   0.526   4.381
  245POPC   C1A 3486   4.331   0.178   4.694
  245POPC   D2A 3487   4.136   0.320   5.084
  245POPC   C3A 3488   4.341   0.269   5.482
  245POPC   C4A 3489   4.300   0.307   5.945
  245POPC   C1B 3490   4.419   0.701   4.780
  245POPC   C2B 3491   4.630   0.637   5.215
  245POPC   C3B 3492   4.550   0.698   5.675
  245POPC   C4B 3493   4.094   0.726   5.771
  246POPC   NC3 3494   8.787   9.752   4.022
  246POPC   PO4 3495   9.349   9.362   3.969
  246POPC   GL1 3496   9.080   9.435   4.323
  246POPC   GL2 3497   9.219   9.745   4.437
  246POPC   C1A 3498   9.078   9.230   4.741
  246POPC   D2A 3499   8.908   9.089   5.159
  246POPC   C3A 3500   9.024   9.306   5.565
  246POPC   C4A 3501   9.081   9.165   6.030
  246POPC   C1B 3502   8.820   9.716   4.693
  246POPC   C2B 3503   8.740   9.574   5.120
  246POPC   C3B 3504   8.827   9.817   5.506
  246POPC   C4B 3505   9.155   9.976   5.787
  247POPC   NC3 3506   2.224   0.460   3.895
  247POPC   PO4 3507   1.700   0.124   4.063
  247POPC   GL1 3508   2.014   0.128   4.314
  247POPC   GL2 3509   2.102   0.479   4.389
  247POPC   C1A 3510   1.975   0.119   4.736
  247POPC   D2A 3511   1.794   0.130   5.109
  247POPC   C3A 3512   2.164   0.043   5.407
  247POPC   C4A 3513   2.074   0.057   5.838
  247POPC   C1B 3514   1.831   0.623   4.732
  247POPC   C2B 3515   1.651   0.619   5.139
  247POPC   C3B 3516   1.893   0.457   5.481
  247POPC   C4B 3517   2.158   0.554   5.793
  248POPC   NC3 3518  10.434   6.199   3.761
  248POPC   PO4 3519  10.542   6.818   3.973
  248POPC   GL1 3520  10.498   6.730   4.359
  248POPC   GL2 3521  10.413   6.400   4.273
  248POPC   C1A 3522  10.338   6.803   4.747
  248POPC   D2A 3523  10.152   6.522   5.045
  248POPC   C3A 3524  10.186   6.642   5.443
  248POPC   C4A 3525  10.037   6.674   5.870
  248POPC   C1B 3526  10.448   6.298   4.700
  248POPC   C2B 3527  10.372   6.020   5.024
  248POPC   C3B 3528  10.368   6.155   5.444
  248POPC   C4B 3529  10.470   6.401   5.786
  249POPC   NC3 3530   0.410   1.928   3.811
  249POPC   PO4 3531   0.122   2.369   4.144
  249POPC   GL1 3532   0.136   1.996   4.341
  249POPC   GL2 3533   0.485   1.974   4.327
  249POPC   C1A 3534   0.177   1.817   4.756
  249POPC   D2A 3535   0.366   1.935   5.133
  249POPC   C3A 3536   0.168   1.824   5.479
  249POPC   C4A 3537   0.014   2.178   5.671
  249POPC   C1B 3538   0.638   2.081   4.725
  249POPC   C2B 3539   0.629   2.368   5.075
  249POPC   C3B 3540   0.508   2.324   5.518
  249POPC   C4B 3541   0.513   1.984   5.801
  250POPC   NC3 3542   0.506   8.876   3.927
  250POPC   PO4 3543  11.429   8.453   3.797
  250POPC   GL1 3544   0.229   8.502   4.206
  250POPC   GL2 3545   0.573   8.612   4.335
  250POPC   C1A 3546   0.178   8.791   4.617
  250POPC   D2A 3547   0.349   8.824   5.064
  250POPC   C3A 3548   0.208   9.052   5.457
  250POPC   C4A 3549   0.116   9.098   5.915
  250POPC   C1B 3550   0.725   8.726   4.711
  250POPC   C2B 3551   0.867   8.703   5.102
  250POPC   C3B 3552   0.763   9.010   5.396
  250POPC   C4B 3553   0.570   8.947   5.802
  251POPC   NC3 3554  11.206  11.200   3.735
  251POPC   PO4 3555  10.895   0.110   3.594
  251POPC   GL1 3556  11.002  11.489   4.129
  251POPC   GL2 3557  11.253  11.230   4.246
  251POPC   C1A 3558  11.091  11.498   4.626
  251POPC   D2A 3559  11.054  11.258   5.063
  251POPC   C3A 3560  11.114  11.399   5.505
  251POPC   C4A 3561  11.164   0.070   5.925
  251POPC   C1B 3562  11.204  10.995   4.668
  251POPC   C2B 3563  11.352  10.800   5.065
  251POPC   C3B 3564  11.411  10.899   5.466
  251POPC   C4B 3565  11.185  11.003   5.814
  252POPC   NC3 3566   4.129   0.985   4.191
  252POPC   PO4 3567   4.619   1.292   3.760
  252POPC   GL1 3568   4.614   1.191   4.188
  252POPC   GL2 3569   4.372   1.420   4.315
  252POPC   C1A 3570   4.675   1.191   4.650
  252POPC   D2A 3571   4.590   1.135   5.075
  252POPC   C3A 3572   4.610   1.426   5.437
  252POPC   C4A 3573   4.614   1.216   5.846
  252POPC   C1B 3574   4.186   1.325   4.744
  252POPC   C2B 3575   4.128   1.333   5.170
  252POPC   C3B 3576   4.256   1.080   5.465
  252POPC   C4B 3577   4.159   1.415   5.711
  253POPC   NC3 3578   5.619  10.539   3.956
  253POPC   PO4 3579   6.086  10.086   3.894
  253POPC   GL1 3580   5.907  10.254   4.298
  253POPC   GL2 3581   5.992  10.628   4.311
  253POPC   C1A 3582   5.776  10.118   4.751
  253POPC   D2A 3583   5.549   9.987   5.155
  253POPC   C3A 3584   5.767   9.994   5.532
  253POPC   C4A 3585   5.890  10.280   5.794
  253POPC   C1B 3586   5.698  10.608   4.663
  253POPC   C2B 3587   5.640  10.474   5.086
  253POPC   C3B 3588   5.583  10.572   5.487
  253POPC   C4B 3589   5.863  10.773   5.776
  254POPC   NC3 3590   1.837  10.464   3.686
  254POPC   PO4 3591   2.444  10.767   3.863
  254POPC   GL1 3592   2.293  10.786   4.280
  254POPC   GL2 3593   2.117  10.460   4.348
  254POPC   C1A 3594   2.247  10.777   4.742
  254POPC   D2A 3595   2.035  10.603   5.071
  254POPC   C3A 3596   2.018  10.792   5.459
  254POPC   C4A 3597   2.192  10.662   5.852
  254POPC   C1B 3598   2.202  10.223   4.713
  254POPC   C2B 3599   2.167  10.078   5.151
  254POPC   C3B 3600   2.014  10.298   5.502
  254POPC   C4B 3601   1.668  10.501   5.702
  255POPC   NC3 3602   9.867  11.204   3.798
  255POPC   PO4 3603   9.224  11.295   3.606
  255POPC   GL1 3604   9.496  11.347   4.101
  255POPC   GL2 3605   9.689  11.050   4.251
  255POPC   C1A 3606   9.548  11.373   4.636
  255POPC   D2A 3607   9.422  11.383   5.128
  255POPC   C3A 3608   9.681  11.259   5.539
  255POPC   C4A 3609   9.725  11.362   6.057
  255POPC   C1B 3610   9.672  10.864   4.675
  255POPC   C2B 3611   9.474  10.872   5.082
  255POPC   C3B 3612   9.257  10.957   5.470
  255POPC   C4B 3613   9.480  10.917   5.882
  256POPC   NC3 3614   9.120   4.870   3.972
  256POPC   PO4 3615   8.570   5.126   3.786
  256POPC   GL1 3616   8.737   5.198   4.277
  256POPC   GL2 3617   9.092   5.165   4.409
  256POPC   C1A 3618   8.723   5.080   4.767
  256POPC   D2A 3619   8.899   4.955   5.225
  256POPC   C3A 3620   8.764   4.885   5.673
  256POPC   C4A 3621   8.423   4.856   5.978
  256POPC   C1B 3622   9.145   5.365   4.827
  256POPC   C2B 3623   9.215   5.366   5.279
  256POPC   C3B 3624   9.139   5.259   5.690
  256POPC   C4B 3625   9.210   4.929   5.983
  257POPC   NC3 3626   2.649   3.680   4.038
  257POPC   PO4 3627   2.699   3.048   4.021
  257POPC   GL1 3628   2.642   3.286   4.376
  257POPC   GL2 3629   2.384   3.172   4.524
  257POPC   C1A 3630   2.737   3.460   4.794
  257POPC   D2A 3631   3.026   3.389   5.147
  257POPC   C3A 3632   2.916   3.551   5.561
  257POPC   C4A 3633   3.083   3.417   5.946
  257POPC   C1B 3634   2.453   3.059   4.942
  257POPC   C2B 3635   2.528   3.300   5.304
  257POPC   C3B 3636   2.396   3.602   5.629
  257POPC   C4B 3637   2.564   3.539   6.025
  258POPC   NC3 3638   4.142  10.652   4.048
  258POPC   PO4 3639   4.379  10.030   4.049
  258POPC   GL1 3640   4.223  10.238   4.413
  258POPC   GL2 3641   3.892  10.289   4.333
  258POPC   C1A 3642   4.257  10.178   4.888
  258POPC   D2A 3643   4.640  10.265   5.175
  258POPC   C3A 3644   4.667  10.284   5.637
  258POPC   C4A 3645   4.699  10.620   5.960
  258POPC   C1B 3646   3.962  10.575   4.701
  258POPC   C2B 3647   3.866  10.503   5.130
  258POPC   C3B 3648   4.145  10.354   5.458
  258POPC   C4B 3649   4.236  10.415   5.895
  259POPC   NC3 3650   4.998   0.610   3.899
  259POPC   PO4 3651   5.231  11.492   3.744
  259POPC   GL1 3652   5.167   0.231   4.197
  259POPC   GL2 3653   4.812   0.247   4.359
  259POPC   C1A 3654   5.243   0.479   4.578
  259POPC   D2A 3655   5.329   0.409   5.023
  259POPC   C3A 3656   5.262   0.575   5.441
  259POPC   C4A 3657   5.248   0.376   5.847
  259POPC   C1B 3658   4.833   0.290   4.843
  259POPC   C2B 3659   4.908   0.201   5.313
  259POPC   C3B 3660   4.771   0.178   5.743
  259POPC   C4B 3661   4.801   0.463   6.088
  260POPC   NC3 3662   1.866   7.892   4.035
  260POPC   PO4 3663   2.062   8.504   3.917
  260POPC   GL1 3664   2.091   8.310   4.321
  260POPC   GL2 3665   1.769   8.294   4.414
  260POPC   C1A 3666   2.073   8.297   4.807
  260POPC   D2A 3667   1.757   8.212   5.132
  260POPC   C3A 3668   1.994   8.260   5.491
  260POPC   C4A 3669   2.145   8.535   5.768
  260POPC   C1B 3670   1.781   7.902   4.687
  260POPC   C2B 3671   1.699   7.689   5.100
  260POPC   C3B 3672   1.738   7.810   5.536
  260POPC   C4B 3673   1.554   8.201   5.714
  261POPC   NC3 3674   8.679   2.685   4.152
  261POPC   PO4 3675   9.280   2.820   4.050
  261POPC   GL1 3676   9.241   2.898   4.455
  261POPC   GL2 3677   9.101   2.587   4.506
  261POPC   C1A 3678   9.088   2.927   4.889
  261POPC   D2A 3679   8.894   2.757   5.270
  261POPC   C3A 3680   9.046   2.979   5.637
  261POPC   C4A 3681   9.139   3.125   6.036
  261POPC   C1B 3682   8.715   2.570   4.782
  261POPC   C2B 3683   8.477   2.381   5.132
  261POPC   C3B 3684   8.658   2.367   5.559
  261POPC   C4B 3685   8.620   2.752   5.825
  262POPC   NC3 3686   3.179  10.832   3.847
  262POPC   PO4 3687   3.198  11.469   3.935
  262POPC   GL1 3688   3.222  11.229   4.315
  262POPC   GL2 3689   3.569  11.146   4.394
  262POPC   C1A 3690   3.256  11.330   4.770
  262POPC   D2A 3691   3.218  11.143   5.164
  262POPC   C3A 3692   3.220  11.324   5.569
  262POPC   C4A 3693   3.379  11.405   5.991
  262POPC   C1B 3694   3.663  10.975   4.794
  262POPC   C2B 3695   3.699  11.003   5.233
  262POPC   C3B 3696   3.687  11.099   5.649
  262POPC   C4B 3697   3.839  10.723   5.787
  263POPC   NC3 3698  11.271   2.150   3.955
  263POPC   PO4 3699   0.081   1.603   3.984
  263POPC   GL1 3700  11.203   1.711   4.282
  263POPC   GL2 3701  10.980   2.033   4.322
  263POPC   C1A 3702  11.141   1.821   4.750
  263POPC   D2A 3703  11.296   2.040   5.119
  263POPC   C3A 3704  11.155   1.845   5.514
  263POPC   C4A 3705  11.370   1.777   5.932
  263POPC   C1B 3706  10.800   2.203   4.665
  263POPC   C2B 3707  10.786   2.055   5.081
  263POPC   C3B 3708  10.719   2.141   5.498
  263POPC   C4B 3709  10.960   2.151   5.874
  264POPC   NC3 3710   4.270   1.598   3.680
  264POPC   PO4 3711   3.871   1.365   4.143
  264POPC   GL1 3712   3.957   1.699   4.467
  264POPC   GL2 3713   4.204   1.902   4.272
  264POPC   C1A 3714   3.943   1.735   4.927
  264POPC   D2A 3715   3.925   2.009   5.240
  264POPC   C3A 3716   4.108   1.953   5.619
  264POPC   C4A 3717   3.992   1.769   6.018
  264POPC   C1B 3718   4.329   1.986   4.722
  264POPC   C2B 3719   4.431   1.827   5.154
  264POPC   C3B 3720   4.781   1.935   5.451
  264POPC   C4B 3721   4.790   2.203   5.858
  265POPC   NC3 3722   1.131   6.624   3.782
  265POPC   PO4 3723   1.532   6.451   4.257
  265POPC   GL1 3724   1.309   6.429   4.573
  265POPC   GL2 3725   1.005   6.368   4.402
  265POPC   C1A 3726   1.303   6.598   4.966
  265POPC   D2A 3727   1.299   6.849   5.295
  265POPC   C3A 3728   1.396   6.640   5.673
  265POPC   C4A 3729   1.566   6.882   6.030
  265POPC   C1B 3730   0.838   6.488   4.799
  265POPC   C2B 3731   0.858   6.543   5.265
  265POPC   C3B 3732   0.818   6.191   5.534
  265POPC   C4B 3733   1.099   6.233   5.850
  266POPC   NC3 3734   1.394   6.114   3.992
  266POPC   PO4 3735   1.192   5.454   3.903
  266POPC   GL1 3736   1.296   5.660   4.272
  266POPC   GL2 3737   1.018   5.864   4.279
  266POPC   C1A 3738   1.406   5.496   4.683
  266POPC   D2A 3739   1.296   5.666   5.087
  266POPC   C3A 3740   1.390   5.367   5.416
  266POPC   C4A 3741   1.521   5.515   5.795
  266POPC   C1B 3742   1.146   5.959   4.684
  266POPC   C2B 3743   1.076   6.134   5.060
  266POPC   C3B 3744   1.291   6.051   5.413
  266POPC   C4B 3745   1.080   5.733   5.651
  267POPC   NC3 3746   7.245   2.197   3.943
  267POPC   PO4 3747   7.082   1.542   3.708
  267POPC   GL1 3748   7.175   1.732   4.118
  267POPC   GL2 3749   7.528   1.855   4.189
  267POPC   C1A 3750   7.136   1.869   4.587
  267POPC   D2A 3751   7.122   1.981   5.055
  267POPC   C3A 3752   6.859   1.896   5.439
  267POPC   C4A 3753   7.078   1.789   5.827
  267POPC   C1B 3754   7.642   1.897   4.643
  267POPC   C2B 3755   7.595   1.779   5.068
  267POPC   C3B 3756   7.442   1.937   5.473
  267POPC   C4B 3757   7.166   2.251   5.607
  268POPC   NC3 3758  10.343   8.148   3.667
  268POPC   PO4 3759  10.013   7.667   3.936
  268POPC   GL1 3760  10.326   7.756   4.260
  268POPC   GL2 3761  10.507   8.082   4.294
  268POPC   C1A 3762  10.189   7.886   4.680
  268POPC   D2A 3763   9.925   8.152   4.921
  268POPC   C3A 3764   9.993   8.038   5.305
  268POPC   C4A 3765  10.197   7.935   5.658
  268POPC   C1B 3766  10.374   8.353   4.683
  268POPC   C2B 3767  10.289   8.435   5.143
  268POPC   C3B 3768  10.542   8.296   5.521
  268POPC   C4B 3769  10.610   8.463   5.918
  269POPC   NC3 3770   2.841   9.498   3.910
  269POPC   PO4 3771   2.211   9.795   3.864
  269POPC   GL1 3772   2.523   9.751   4.251
  269POPC   GL2 3773   2.856   9.632   4.401
  269POPC   C1A 3774   2.462   9.566   4.701
  269POPC   D2A 3775   2.733   9.640   5.078
  269POPC   C3A 3776   2.486   9.727   5.429
  269POPC   C4A 3777   2.349   9.526   5.813
  269POPC   C1B 3778   2.970   9.316   4.737
  269POPC   C2B 3779   3.057   9.215   5.197
  269POPC   C3B 3780   3.022   9.560   5.529
  269POPC   C4B 3781   2.800   9.790   5.826
  270POPC   NC3 3782   3.849  10.989   3.702
  270POPC   PO4 3783   4.517  10.795   3.814
  270POPC   GL1 3784   4.550  10.956   4.237
  270POPC   GL2 3785   4.476  11.302   4.225
  270POPC   C1A 3786   4.413  10.846   4.656
  270POPC   D2A 3787   4.338  10.661   5.062
  270POPC   C3A 3788   4.183  10.873   5.417
  270POPC   C4A 3789   4.321  10.933   5.818
  270POPC   C1B 3790   4.112  11.233   4.550
  270POPC   C2B 3791   4.125  11.140   4.972
  270POPC   C3B 3792   4.061  11.362   5.331
  270POPC   C4B 3793   4.091  11.390   5.743
  271POPC   NC3 3794   2.868   6.560   3.940
  271POPC   PO4 3795   2.910   7.137   4.054
  271POPC   GL1 3796   2.855   6.783   4.407
  271POPC   GL2 3797   2.543   6.620   4.335
  271POPC   C1A 3798   2.964   6.532   4.829
  271POPC   D2A 3799   3.030   6.427   5.307
  271POPC   C3A 3800   2.807   6.707   5.603
  271POPC   C4A 3801   2.492   6.935   5.823
  271POPC   C1B 3802   2.507   6.355   4.680
  271POPC   C2B 3803   2.654   6.186   5.082
  271POPC   C3B 3804   2.553   6.265   5.506
  271POPC   C4B 3805   2.177   6.115   5.709
  272POPC   NC3 3806   6.923   3.103   4.137
  272POPC   PO4 3807   6.814   2.427   3.994
  272POPC   GL1 3808   7.093   2.579   4.337
  272POPC   GL2 3809   7.466   2.508   4.287
  272POPC   C1A 3810   7.096   2.784   4.773
  272POPC   D2A 3811   7.312   2.845   5.198
  272POPC   C3A 3812   7.120   2.795   5.638
  272POPC   C4A 3813   7.141   2.985   6.086
  272POPC   C1B 3814   7.406   2.349   4.714
  272POPC   C2B 3815   7.496   2.336   5.158
  272POPC   C3B 3816   7.587   2.510   5.573
  272POPC   C4B 3817   7.768   2.456   5.987
  273POPC   NC3 3818   1.953   9.678   3.486
  273POPC   PO4 3819   1.788  10.112   4.003
  273POPC   GL1 3820   2.035   9.895   4.333
  273POPC   GL2 3821   2.112   9.483   4.283
  273POPC   C1A 3822   1.972   9.762   4.726
  273POPC   D2A 3823   1.731   9.808   5.054
  273POPC   C3A 3824   1.969   9.626   5.348
  273POPC   C4A 3825   2.009   9.839   5.673
  273POPC   C1B 3826   2.026   9.266   4.621
  273POPC   C2B 3827   2.038   9.190   5.038
  273POPC   C3B 3828   1.838   9.135   5.421
  273POPC   C4B 3829   1.823   9.365   5.813
  274POPC   NC3 3830   7.267   8.836   3.862
  274POPC   PO4 3831   7.065   9.411   4.096
  274POPC   GL1 3832   7.323   9.133   4.405
  274POPC   GL2 3833   7.419   8.773   4.345
  274POPC   C1A 3834   7.269   8.930   4.849
  274POPC   D2A 3835   7.321   8.820   5.292
  274POPC   C3A 3836   7.107   9.052   5.654
  274POPC   C4A 3837   6.799   9.061   6.013
  274POPC   C1B 3838   7.725   8.909   4.634
  274POPC   C2B 3839   7.778   8.846   5.042
  274POPC   C3B 3840   7.802   8.775   5.474
  274POPC   C4B 3841   7.490   8.702   5.758
  275POPC   NC3 3842   2.643   1.238   3.735
  275POPC   PO4 3843   2.461   1.775   4.018
  275POPC   GL1 3844   2.704   1.488   4.298
  275POPC   GL2 3845   2.872   1.181   4.216
  275POPC   C1A 3846   2.563   1.288   4.691
  275POPC   D2A 3847   2.283   1.340   5.036
  275POPC   C3A 3848   2.333   1.487   5.452
  275POPC   C4A 3849   2.374   1.397   5.869
  275POPC   C1B 3850   3.060   1.237   4.655
  275POPC   C2B 3851   2.843   1.149   5.090
  275POPC   C3B 3852   2.745   1.208   5.534
  275POPC   C4B 3853   2.800   1.134   5.978
  276POPC   NC3 3854   3.688   2.538   3.986
  276POPC   PO4 3855   3.157   2.387   3.642
  276POPC   GL1 3856   3.095   2.542   4.186
  276POPC   GL2 3857   3.440   2.566   4.429
  276POPC   C1A 3858   3.028   2.477   4.678
  276POPC   D2A 3859   3.198   2.460   5.151
  276POPC   C3A 3860   3.238   2.622   5.608
  276POPC   C4A 3861   3.513   2.676   6.008
  276POPC   C1B 3862   3.360   2.844   4.842
  276POPC   C2B 3863   3.385   2.998   5.287
  276POPC   C3B 3864   3.477   3.103   5.739
  276POPC   C4B 3865   3.849   3.098   6.062
  277POPC   NC3 3866   8.968  10.923   3.463
  277POPC   PO4 3867   8.689  11.210   4.059
  277POPC   GL1 3868   8.819  11.097   4.431
  277POPC   GL2 3869   9.106  11.275   4.412
  277POPC   C1A 3870   8.675  10.799   4.762
  277POPC   D2A 3871   8.875  10.719   5.159
  277POPC   C3A 3872   8.656  10.720   5.537
  277POPC   C4A 3873   8.840  11.035   5.769
  277POPC   C1B 3874   9.090  11.114   4.845
  277POPC   C2B 3875   8.878  11.228   5.212
  277POPC   C3B 3876   9.066  11.427   5.548
  277POPC   C4B 3877   9.013   0.286   5.783
  278POPC   NC3 3878   6.344   2.547   4.039
  278POPC   PO4 3879   6.486   3.173   4.146
  278POPC   GL1 3880   6.621   2.784   4.428
  278POPC   GL2 3881   6.587   2.402   4.452
  278POPC   C1A 3882   6.599   2.703   4.888
  278POPC   D2A 3883   6.780   2.916   5.246
  278POPC   C3A 3884   6.560   2.943   5.649
  278POPC   C4A 3885   6.634   3.142   6.057
  278POPC   C1B 3886   6.897   2.314   4.745
  278POPC   C2B 3887   6.983   2.453   5.170
  278POPC   C3B 3888   6.723   2.474   5.533
  278POPC   C4B 3889   6.344   2.480   5.801
  279POPC   NC3 3890   0.456   2.753   3.649
  279POPC   PO4 3891   0.488   3.060   4.209
  279POPC   GL1 3892   0.320   2.792   4.534
  279POPC   GL2 3893   0.499   2.493   4.462
  279POPC   C1A 3894   0.346   2.802   4.963
  279POPC   D2A 3895   0.757   2.858   5.098
  279POPC   C3A 3896   0.802   3.018   5.485
  279POPC   C4A 3897   0.606   2.795   5.773
  279POPC   C1B 3898   0.194   2.333   4.787
  279POPC   C2B 3899   0.111   2.415   5.209
  279POPC   C3B 3900   0.123   2.670   5.568
  279POPC   C4B 3901   0.220   2.529   5.964
  280POPC   NC3 3902  11.136   3.678   3.867
  280POPC   PO4 3903   0.144   3.150   3.739
  280POPC   GL1 3904  11.438   3.331   4.165
  280POPC   GL2 3905  11.081   3.399   4.274
  280POPC   C1A 3906  11.433   3.511   4.638
  280POPC   D2A 3907  11.461   3.341   5.071
  280POPC   C3A 3908  11.499   3.551   5.401
  280POPC   C4A 3909  11.347   3.517   5.794
  280POPC   C1B 3910  10.987   3.703   4.583
  280POPC   C2B 3911  11.011   3.529   4.960
  280POPC   C3B 3912  11.003   3.526   5.383
  280POPC   C4B 3913  10.894   3.774   5.692
  281POPC   NC3 3914   3.323  10.182   4.171
  281POPC   PO4 3915   3.683  10.747   4.069
  281POPC   GL1 3916   3.322  10.694   4.312
  281POPC   GL2 3917   3.483  10.505   4.536
  281POPC   C1A 3918   3.180  10.843   4.710
  281POPC   D2A 3919   3.346  10.636   5.079
  281POPC   C3A 3920   3.308  10.764   5.526
  281POPC   C4A 3921   3.353  10.513   5.927
  281POPC   C1B 3922   3.647  10.173   4.754
  281POPC   C2B 3923   3.478  10.131   5.093
  281POPC   C3B 3924   3.540  10.314   5.470
  281POPC   C4B 3925   3.785  10.202   5.799
  282POPC   NC3 3926   3.659   0.028   4.061
  282POPC   PO4 3927   3.870   0.660   3.961
  282POPC   GL1 3928   3.652   0.483   4.305
  282POPC   GL2 3929   3.294   0.370   4.255
  282POPC   C1A 3930   3.802   0.265   4.672
  282POPC   D2A 3931   3.703  11.462   4.978
  282POPC   C3A 3932   3.608   0.101   5.400
  282POPC   C4A 3933   3.730   0.367   5.737
  282POPC   C1B 3934   3.272   0.323   4.703
  282POPC   C2B 3935   3.513   0.492   5.048
  282POPC   C3B 3936   3.402   0.637   5.460
  282POPC   C4B 3937   3.186   0.322   5.736
  283POPC   NC3 3938   4.086   9.658   3.948
  283POPC   PO4 3939   4.772   9.396   4.031
  283POPC   GL1 3940   4.488   9.600   4.374
  283POPC   GL2 3941   4.128   9.737   4.441
  283POPC   C1A 3942   4.444   9.639   4.839
  283POPC   D2A 3943   4.690   9.473   5.205
  283POPC   C3A 3944   4.499   9.460   5.620
  283POPC   C4A 3945   4.616   9.613   6.065
  283POPC   C1B 3946   3.876   9.729   4.822
  283POPC   C2B 3947   3.933   9.913   5.192
  283POPC   C3B 3948   4.324   9.878   5.360
  283POPC   C4B 3949   4.292   9.912   5.789
  284POPC   NC3 3950  10.442  10.332   3.857
  284POPC   PO4 3951  10.065  10.830   3.956
  284POPC   GL1 3952  10.397  10.740   4.249
  284POPC   GL2 3953  10.458  10.391   4.355
  284POPC   C1A 3954  10.290  10.766   4.680
  284POPC   D2A 3955  10.407  10.565   5.037
  284POPC   C3A 3956  10.286  10.809   5.358
  284POPC   C4A 3957  10.447  10.771   5.740
  284POPC   C1B 3958  10.587  10.192   4.722
  284POPC   C2B 3959  10.546  10.088   5.149
  284POPC   C3B 3960  10.533  10.307   5.502
  284POPC   C4B 3961  10.862  10.210   5.773
  285POPC   NC3 3962   1.026   4.997   3.919
  285POPC   PO4 3963   0.436   5.374   3.901
  285POPC   GL1 3964   0.791   5.354   4.250
  285POPC   GL2 3965   1.120   5.179   4.367
  285POPC   C1A 3966   0.888   5.510   4.648
  285POPC   D2A 3967   1.056   5.252   4.977
  285POPC   C3A 3968   0.883   5.318   5.364
  285POPC   C4A 3969   0.891   5.049   5.706
  285POPC   C1B 3970   1.329   4.915   4.677
  285POPC   C2B 3971   1.420   4.896   5.127
  285POPC   C3B 3972   1.348   4.836   5.563
  285POPC   C4B 3973   1.502   5.031   5.922
  286POPC   NC3 3974   7.231   9.825   4.010
  286POPC   PO4 3975   7.919   9.880   3.874
  286POPC   GL1 3976   7.676   9.913   4.336
  286POPC   GL2 3977   7.435   9.651   4.425
  286POPC   C1A 3978   7.657   9.849   4.841
  286POPC   D2A 3979   7.334   9.867   5.170
  286POPC   C3A 3980   7.480   9.994   5.601
  286POPC   C4A 3981   7.496   9.695   5.912
  286POPC   C1B 3982   7.315   9.451   4.822
  286POPC   C2B 3983   7.329   9.353   5.275
  286POPC   C3B 3984   7.122   9.581   5.582
  286POPC   C4B 3985   6.701   9.532   5.745
  287POPC   NC3 3986   7.429   0.285   3.830
  287POPC   PO4 3987   7.782   0.927   3.879
  287POPC   GL1 3988   7.810   0.726   4.282
  287POPC   GL2 3989   7.514   0.540   4.262
  287POPC   C1A 3990   7.755   0.524   4.732
  287POPC   D2A 3991   7.786   0.365   5.200
  287POPC   C3A 3992   7.657   0.645   5.577
  287POPC   C4A 3993   7.703   0.674   6.075
  287POPC   C1B 3994   7.239   0.576   4.597
  287POPC   C2B 3995   7.294   0.347   4.979
  287POPC   C3B 3996   7.265   0.282   5.414
  287POPC   C4B 3997   7.150   0.626   5.679
  288POPC   NC3 3998   5.199   9.149   4.050
  288POPC   PO4 3999   4.852   8.623   3.871
  288POPC   GL1 4000   4.778   8.732   4.314
  288POPC   GL2 4001   4.835   9.052   4.388
  288POPC   C1A 4002   4.662   8.579   4.742
  288POPC   D2A 4003   4.948   8.590   5.120
  288POPC   C3A 4004   4.853   8.670   5.558
  288POPC   C4A 4005   4.963   8.789   5.999
  288POPC   C1B 4006   5.039   8.914   4.742
  288POPC   C2B 4007   5.047   9.088   5.174
  288POPC   C3B 4008   4.968   9.188   5.612
  288POPC   C4B 4009   5.346   9.181   5.881
  289POPC   NC3 4010   5.063   1.196   3.903
  289POPC   PO4 4011   4.594   0.676   4.098
  289POPC   GL1 4012   4.862   0.764   4.406
  289POPC   GL2 4013   5.079   1.021   4.370
  289POPC   C1A 4014   4.952   0.801   4.838
  289POPC   D2A 4015   5.101   1.075   5.109
  289POPC   C3A 4016   4.927   1.011   5.472
  289POPC   C4A 4017   5.046   0.842   5.834
  289POPC   C1B 4018   5.144   1.379   4.675
  289POPC   C2B 4019   4.929   1.548   5.050
  289POPC   C3B 4020   5.109   1.506   5.476
  289POPC   C4B 4021   5.435   1.515   5.779
  290POPC   NC3 4022   4.355   7.507   4.189
  290POPC   PO4 4023   3.783   7.592   4.227
  290POPC   GL1 4024   4.022   7.398   4.560
  290POPC   GL2 4025   4.170   7.082   4.445
  290POPC   C1A 4026   4.105   7.545   4.963
  290POPC   D2A 4027   4.235   7.830   5.276
  290POPC   C3A 4028   4.201   7.653   5.684
  290POPC   C4A 4029   3.901   7.336   5.834
  290POPC   C1B 4030   4.323   7.087   4.882
  290POPC   C2B 4031   4.507   7.351   5.221
  290POPC   C3B 4032   4.491   7.223   5.645
  290POPC   C4B 4033   4.204   6.909   5.814
  291POPC   NC3 4034   0.426   0.583   3.902
  291POPC   PO4 4035  11.465   0.040   3.902
  291POPC   GL1 4036   0.110   0.103   4.360
  291POPC   GL2 4037   0.279   0.418   4.353
  291POPC   C1A 4038   0.503   0.102   4.657
  291POPC   D2A 4039   0.735   0.280   5.012
  291POPC   C3A 4040   0.674   0.110   5.438
  291POPC   C4A 4041   0.923   0.268   5.743
  291POPC   C1B 4042   0.514   0.608   4.669
  291POPC   C2B 4043   0.374   0.672   5.091
  291POPC   C3B 4044   0.388   0.528   5.515
  291POPC   C4B 4045   0.397   0.647   5.924
  292POPC   NC3 4046  10.359   2.243   3.555
  292POPC   PO4 4047  10.202   1.681   3.908
  292POPC   GL1 4048  10.160   1.955   4.254
  292POPC   GL2 4049  10.466   2.156   4.243
  292POPC   C1A 4050  10.199   2.008   4.712
  292POPC   D2A 4051  10.294   1.906   5.144
  292POPC   C3A 4052  10.090   2.082   5.497
  292POPC   C4A 4053  10.316   2.294   5.788
  292POPC   C1B 4054  10.585   1.756   4.489
  292POPC   C2B 4055  10.627   1.601   4.907
  292POPC   C3B 4056  10.716   1.608   5.350
  292POPC   C4B 4057  10.448   1.751   5.694
  293POPC   NC3 4058   1.322   1.694   4.147
  293POPC   PO4 4059   1.586   2.219   3.830
  293POPC   GL1 4060   1.381   2.296   4.253
  293POPC   GL2 4061   1.033   2.134   4.281
  293POPC   C1A 4062   1.443   2.278   4.720
  293POPC   D2A 4063   1.639   2.326   5.162
  293POPC   C3A 4064   1.399   2.079   5.506
  293POPC   C4A 4065   1.353   2.026   5.974
  293POPC   C1B 4066   1.102   1.912   4.697
  293POPC   C2B 4067   1.065   2.094   5.084
  293POPC   C3B 4068   0.848   1.925   5.407
  293POPC   C4B 4069   1.035   1.712   5.748
  294POPC   NC3 4070   0.472  10.512   3.652
  294POPC   PO4 4071   0.864  10.256   4.082
  294POPC   GL1 4072   0.756  10.611   4.283
  294POPC   GL2 4073   0.392  10.617   4.197
  294POPC   C1A 4074   0.718  10.644   4.715
  294POPC   D2A 4075   0.720  10.281   4.951
  294POPC   C3A 4076   0.707  10.427   5.345
  294POPC   C4A 4077   0.655  10.322   5.750
  294POPC   C1B 4078   0.317  10.357   4.583
  294POPC   C2B 4079   0.202  10.408   5.045
  294POPC   C3B 4080   0.220  10.460   5.512
  294POPC   C4B 4081   0.205  10.280   5.963
  295POPC   NC3 4082   2.921   2.762   3.751
  295POPC   PO4 4083   2.338   2.460   3.865
  295POPC   GL1 4084   2.475   2.456   4.263
  295POPC   GL2 4085   2.656   2.736   4.405
  295POPC   C1A 4086   2.531   2.312   4.646
  295POPC   D2A 4087   2.601   2.566   4.949
  295POPC   C3A 4088   2.708   2.401   5.328
  295POPC   C4A 4089   2.720   2.592   5.735
  295POPC   C1B 4090   2.885   2.966   4.716
  295POPC   C2B 4091   2.898   2.897   5.174
  295POPC   C3B 4092   2.908   3.043   5.584
  295POPC   C4B 4093   3.045   2.922   5.991
  296POPC   NC3 4094   1.102  10.996   3.952
  296POPC   PO4 4095   0.819   0.129   4.014
  296POPC   GL1 4096   1.030  11.384   4.348
  296POPC   GL2 4097   1.090  11.056   4.478
  296POPC   C1A 4098   1.084  11.465   4.778
  296POPC   D2A 4099   1.351  11.309   5.107
  296POPC   C3A 4100   1.159  11.400   5.463
  296POPC   C4A 4101   0.951  11.228   5.791
  296POPC   C1B 4102   1.439  10.861   4.746
  296POPC   C2B 4103   1.549  10.818   5.197
  296POPC   C3B 4104   1.387  10.950   5.596
  296POPC   C4B 4105   1.444  10.837   6.028
  297POPC   NC3 4106   9.916   8.086   4.147
  297POPC   PO4 4107   9.306   7.876   3.950
  297POPC   GL1 4108   9.518   7.815   4.327
  297POPC   GL2 4109   9.457   8.181   4.385
  297POPC   C1A 4110   9.709   7.742   4.743
  297POPC   D2A 4111   9.819   7.564   5.173
  297POPC   C3A 4112   9.564   7.807   5.507
  297POPC   C4A 4113   9.730   8.170   5.708
  297POPC   C1B 4114   9.465   8.375   4.794
  297POPC   C2B 4115   9.492   8.228   5.228
  297POPC   C3B 4116   9.241   8.271   5.618
  297POPC   C4B 4117   9.007   8.217   6.024
  298POPC   NC3 4118   6.557  11.420   3.942
  298POPC   PO4 4119   6.493  10.761   3.923
  298POPC   GL1 4120   6.338  11.015   4.222
  298POPC   GL2 4121   6.658  11.087   4.352
  298POPC   C1A 4122   6.249  10.993   4.661
  298POPC   D2A 4123   6.550  11.104   4.991
  298POPC   C3A 4124   6.398  10.975   5.396
  298POPC   C4A 4125   6.580  11.009   5.808
  298POPC   C1B 4126   6.495  11.429   4.590
  298POPC   C2B 4127   6.429   0.101   4.998
  298POPC   C3B 4128   6.534  11.462   5.380
  298POPC   C4B 4129   6.471   0.026   5.792
  299POPC   NC3 4130  11.034   6.985   3.915
  299POPC   PO4 4131  10.901   6.280   3.782
  299POPC   GL1 4132  10.933   6.542   4.197
  299POPC   GL2 4133  11.189   6.707   4.302
  299POPC   C1A 4134  10.874   6.569   4.697
  299POPC   D2A 4135  10.701   6.444   5.143
  299POPC   C3A 4136  10.862   6.631   5.556
  299POPC   C4A 4137  10.920   6.467   6.003
  299POPC   C1B 4138  11.379   6.525   4.666
  299POPC   C2B 4139   0.033   6.516   5.072
  299POPC   C3B 4140  11.352   6.523   5.463
  299POPC   C4B 4141  11.348   6.712   5.884
  300POPC   NC3 4142  11.465   1.157   3.872
  300POPC   PO4 4143  10.790   1.005   3.856
  300POPC   GL1 4144  11.050   0.909   4.202
  300POPC   GL2 4145  11.302   1.148   4.339
  300POPC   C1A 4146  10.976   0.925   4.664
  300POPC   D2A 4147  10.995   1.258   4.983
  300POPC   C3A 4148  10.985   1.134   5.418
  300POPC   C4A 4149  11.076   0.929   5.833
  300POPC   C1B 4150  11.409   1.386   4.705
  300POPC   C2B 4151  11.392   1.535   5.153
  300POPC   C3B 4152  11.400   1.375   5.602
  300POPC   C4B 4153  11.300   1.305   6.081
  301POPC   NC3 4154  10.816   5.287   3.944
  301POPC   PO4 4155  10.276   4.870   3.772
  301POPC   GL1 4156  10.263   4.902   4.241
  301POPC   GL2 4157  10.406   5.199   4.397
  301POPC   C1A 4158  10.255   4.836   4.728
  301POPC   D2A 4159  10.129   4.717   5.168
  301POPC   C3A 4160  10.424   4.726   5.540
  301POPC   C4A 4161  10.268   4.883   5.954
  301POPC   C1B 4162  10.565   5.247   4.832
  301POPC   C2B 4163  10.549   5.133   5.236
  301POPC   C3B 4164  10.245   5.228   5.538
  301POPC   C4B 4165  10.320   5.404   5.910
  302POPC   NC3 4166   9.397   0.802   4.103
  302POPC   PO4 4167   9.263   1.399   3.882
  302POPC   GL1 4168   9.475   1.385   4.307
  302POPC   GL2 4169   9.587   1.108   4.489
  302POPC   C1A 4170   9.417   1.482   4.776
  302POPC   D2A 4171   9.636   1.238   5.101
  302POPC   C3A 4172   9.443   1.205   5.543
  302POPC   C4A 4173   9.485   1.316   6.000
  302POPC   C1B 4174   9.976   1.004   4.722
  302POPC   C2B 4175  10.077   0.860   5.123
  302POPC   C3B 4176   9.933   1.051   5.470
  302POPC   C4B 4177   9.782   0.950   5.856
  303POPC   NC3 4178   9.701  10.576   3.848
  303POPC   PO4 4179  10.076  10.041   3.871
  303POPC   GL1 4180   9.981  10.161   4.295
  303POPC   GL2 4181   9.908  10.532   4.337
  303POPC   C1A 4182  10.092  10.276   4.725
  303POPC   D2A 4183   9.905  10.559   5.037
  303POPC   C3A 4184  10.005  10.392   5.453
  303POPC   C4A 4185   9.947  10.633   5.813
  303POPC   C1B 4186   9.592  10.342   4.630
  303POPC   C2B 4187   9.433  10.359   5.070
  303POPC   C3B 4188   9.518  10.524   5.468
  303POPC   C4B 4189   9.524  10.345   5.842
  304POPC   NC3 4190   6.615   1.584   3.744
  304POPC   PO4 4191   6.277   1.027   3.852
  304POPC   GL1 4192   6.500   0.996   4.303
  304POPC   GL2 4193   6.832   0.807   4.297
  304POPC   C1A 4194   6.520   1.230   4.763
  304POPC   D2A 4195   6.596   1.575   5.128
  304POPC   C3A 4196   6.452   1.611   5.597
  304POPC   C4A 4197   6.651   1.649   6.023
  304POPC   C1B 4198   6.752   0.765   4.736
  304POPC   C2B 4199   6.767   0.963   5.155
  304POPC   C3B 4200   6.702   0.880   5.586
  304POPC   C4B 4201   6.456   1.158   5.841
  305POPC   NC3 4202  10.936   0.443   3.912
  305POPC   PO4 4203   0.023   0.733   4.060
  305POPC   GL1 4204  11.233   0.452   4.351
  305POPC   GL2 4205  10.845   0.470   4.411
  305POPC   C1A 4206  11.195   0.483   4.820
  305POPC   D2A 4207  11.299   0.857   5.074
  305POPC   C3A 4208  11.432   0.832   5.480
  305POPC   C4A 4209  11.421   0.533   5.781
  305POPC   C1B 4210  10.715   0.269   4.788
  305POPC   C2B 4211  10.797   0.172   5.181
  305POPC   C3B 4212  11.136   0.390   5.361
  305POPC   C4B 4213  10.927   0.443   5.707
  306POPC   NC3 4214   0.789   9.806   4.034
  306POPC   PO4 4215   0.371   9.323   4.015
  306POPC   GL1 4216   0.672   9.163   4.369
  306POPC   GL2 4217   0.893   9.464   4.475
  306POPC   C1A 4218   0.623   9.206   4.847
  306POPC   D2A 4219   0.486   9.434   5.218
  306POPC   C3A 4220   0.629   9.449   5.659
  306POPC   C4A 4221   0.323   9.544   5.972
  306POPC   C1B 4222   0.680   9.758   4.810
  306POPC   C2B 4223   0.409   9.941   5.171
  306POPC   C3B 4224   0.389   9.917   5.619
  306POPC   C4B 4225   0.670   9.894   6.013
  307POPC   NC3 4226  10.785   6.065   4.178
  307POPC   PO4 4227  10.186   5.851   3.941
  307POPC   GL1 4228  10.489   5.677   4.260
  307POPC   GL2 4229  10.324   5.902   4.440
  307POPC   C1A 4230  10.712   5.715   4.711
  307POPC   D2A 4231  10.849   5.842   5.130
  307POPC   C3A 4232  10.568   5.687   5.427
  307POPC   C4A 4233  10.532   5.867   5.842
  307POPC   C1B 4234  10.197   5.588   4.728
  307POPC   C2B 4235  10.099   5.597   5.175
  307POPC   C3B 4236  10.084   5.752   5.605
  307POPC   C4B 4237  10.092   6.099   5.951
  308POPC   NC3 4238  10.613  11.316   3.820
  308POPC   PO4 4239   9.901   0.146   3.689
  308POPC   GL1 4240  10.003   0.005   4.169
  308POPC   GL2 4241  10.297  11.253   4.194
  308POPC   C1A 4242  10.046  11.254   4.609
  308POPC   D2A 4243   9.911  11.203   5.038
  308POPC   C3A 4244  10.180  11.324   5.391
  308POPC   C4A 4245  10.110  11.131   5.814
  308POPC   C1B 4246  10.613  11.169   4.547
  308POPC   C2B 4247  10.504  11.157   4.993
  308POPC   C3B 4248  10.672  11.150   5.413
  308POPC   C4B 4249  10.594  11.301   5.798
  309POPC   NC3 4250   0.537   4.125   3.962
  309POPC   PO4 4251   0.203   4.631   4.045
  309POPC   GL1 4252   0.242   4.341   4.332
  309POPC   GL2 4253   0.588   4.338   4.408
  309POPC   C1A 4254   0.190   4.161   4.706
  309POPC   D2A 4255   0.153   4.345   5.077
  309POPC   C3A 4256   0.261   4.155   5.420
  309POPC   C4A 4257   0.221   4.357   5.786
  309POPC   C1B 4258   0.477   4.580   4.751
  309POPC   C2B 4259   0.658   4.325   5.057
  309POPC   C3B 4260   0.794   4.062   5.351
  309POPC   C4B 4261   0.673   4.085   5.767
  310POPC   NC3 4262  10.008   4.515   3.705
  310POPC   PO4 4263   9.384   4.473   3.992
  310POPC   GL1 4264   9.750   4.504   4.278
  310POPC   GL2 4265   9.800   4.175   4.440
  310POPC   C1A 4266   9.787   4.576   4.753
  310POPC   D2A 4267   9.809   4.274   5.125
  310POPC   C3A 4268   9.724   4.440   5.553
  310POPC   C4A 4269   9.711   4.691   5.964
  310POPC   C1B 4270   9.451   4.179   4.732
  310POPC   C2B 4271   9.286   4.278   5.151
  310POPC   C3B 4272   9.301   4.105   5.570
  310POPC   C4B 4273   9.370   4.326   5.919
  311POPC   NC3 4274   6.387  10.354   4.096
  311POPC   PO4 4275   6.989  10.232   3.979
  311POPC   GL1 4276   6.855  10.603   4.267
  311POPC   GL2 4277   6.519  10.601   4.496
  311POPC   C1A 4278   6.924  10.758   4.720
  311POPC   D2A 4279   6.651  10.621   5.089
  311POPC   C3A 4280   6.811  10.657   5.523
  311POPC   C4A 4281   6.748  10.338   5.857
  311POPC   C1B 4282   6.182  10.494   4.819
  311POPC   C2B 4283   6.113  10.505   5.295
  311POPC   C3B 4284   6.318  10.561   5.707
  311POPC   C4B 4285   6.310  10.354   6.121
  312POPC   NC3 4286   8.298   0.708   3.921
  312POPC   PO4 4287   7.912   0.129   3.850
  312POPC   GL1 4288   7.950   0.217   4.283
  312POPC   GL2 4289   8.268   0.358   4.289
  312POPC   C1A 4290   8.048   0.110   4.728
  312POPC   D2A 4291   8.331   0.073   5.090
  312POPC   C3A 4292   8.121   0.080   5.513
  312POPC   C4A 4293   7.934   0.298   5.831
  312POPC   C1B 4294   8.450   0.415   4.679
  312POPC   C2B 4295   8.219   0.567   4.987
  312POPC   C3B 4296   8.257   0.554   5.414
  312POPC   C4B 4297   8.116   0.794   5.756
  313POPC   NC3 4298   8.189   1.250   3.920
  313POPC   PO4 4299   8.613   0.874   4.210
  313POPC   GL1 4300   8.229   1.031   4.386
  313POPC   GL2 4301   8.170   1.397   4.406
  313POPC   C1A 4302   8.214   1.122   4.828
  313POPC   D2A 4303   8.183   1.014   5.237
  313POPC   C3A 4304   8.386   1.191   5.564
  313POPC   C4A 4305   8.210   1.500   5.787
  313POPC   C1B 4306   7.816   1.426   4.735
  313POPC   C2B 4307   7.697   1.250   5.130
  313POPC   C3B 4308   7.814   1.166   5.550
  313POPC   C4B 4309   7.840   1.170   5.980
  314POPC   NC3 4310   9.244   3.269   4.044
  314POPC   PO4 4311   8.525   3.118   4.055
  314POPC   GL1 4312   8.828   3.174   4.422
  314POPC   GL2 4313   8.990   3.508   4.428
  314POPC   C1A 4314   8.822   3.363   4.884
  314POPC   D2A 4315   9.000   3.351   5.301
  314POPC   C3A 4316   8.728   3.370   5.701
  314POPC   C4A 4317   8.826   3.510   6.115
  314POPC   C1B 4318   9.135   3.764   4.814
  314POPC   C2B 4319   8.986   3.861   5.239
  314POPC   C3B 4320   8.815   3.914   5.661
  314POPC   C4B 4321   9.009   3.988   6.049
  315POPC   NC3 4322   6.787  10.512   3.680
  315POPC   PO4 4323   7.434  10.513   3.693
  315POPC   GL1 4324   7.433  10.339   4.187
  315POPC   GL2 4325   7.346  10.585   4.446
  315POPC   C1A 4326   7.277  10.123   4.620
  315POPC   D2A 4327   7.086  10.339   4.992
  315POPC   C3A 4328   7.072  10.229   5.443
  315POPC   C4A 4329   7.237  10.426   5.835
  315POPC   C1B 4330   7.664  10.443   4.714
  315POPC   C2B 4331   7.586  10.301   5.105
  315POPC   C3B 4332   7.576  10.508   5.457
  315POPC   C4B 4333   7.735  10.443   5.845
  316POPC   NC3 4334   1.429   2.643   3.851
  316POPC   PO4 4335   0.844   2.958   3.780
  316POPC   GL1 4336   0.958   2.691   4.181
  316POPC   GL2 4337   1.273   2.825   4.322
  316POPC   C1A 4338   0.979   2.490   4.642
  316POPC   D2A 4339   1.196   2.600   5.043
  316POPC   C3A 4340   0.982   2.509   5.424
  316POPC   C4A 4341   0.959   2.261   5.772
  316POPC   C1B 4342   1.053   2.984   4.701
  316POPC   C2B 4343   1.181   3.140   5.124
  316POPC   C3B 4344   1.301   2.898   5.509
  316POPC   C4B 4345   1.392   2.533   5.746
  317POPC   NC3 4346   9.755   1.520   3.891
  317POPC   PO4 4347   9.383   2.100   3.873
  317POPC   GL1 4348   9.364   2.206   4.265
  317POPC   GL2 4349   9.272   1.854   4.325
  317POPC   C1A 4350   9.520   2.273   4.678
  317POPC   D2A 4351   9.420   2.060   5.050
  317POPC   C3A 4352   9.557   2.179   5.491
  317POPC   C4A 4353   9.473   2.229   5.966
  317POPC   C1B 4354   9.708   1.823   4.517
  317POPC   C2B 4355   9.809   1.758   4.971
  317POPC   C3B 4356   9.528   1.676   5.353
  317POPC   C4B 4357   9.622   1.755   5.774
  318POPC   NC3 4358   3.451   5.842   3.850
  318POPC   PO4 4359   3.625   5.310   3.799
  318POPC   GL1 4360   3.592   5.117   4.257
  318POPC   GL2 4361   3.300   4.896   4.275
  318POPC   C1A 4362   3.735   5.165   4.741
  318POPC   D2A 4363   3.727   5.328   5.201
  318POPC   C3A 4364   3.367   5.189   5.456
  318POPC   C4A 4365   3.384   4.969   5.854
  318POPC   C1B 4366   3.442   4.745   4.700
  318POPC   C2B 4367   3.594   4.837   5.142
  318POPC   C3B 4368   3.803   4.921   5.555
  318POPC   C4B 4369   3.835   4.596   5.871
  319W        W 4370  11.136  10.867   8.427
  320W        W 4371   8.649   4.359   3.195
  321W        W 4372   5.715   3.809   8.181
  322W        W 4373   6.727   6.852  11.764
  323W        W 4374   7.569   8.404   9.875
  324W        W 4375   2.157   9.595   8.675
  325W        W 4376   5.961   3.782   8.630
  326W        W 4377   0.889   5.098   2.236
  327W        W 4378   3.804   0.895   3.132
  328W        W 4379   9.330   0.854  11.168
  329W        W 4380   7.593   6.138   8.332
  330W        W 4381   8.660   5.526   8.637
  331W        W 4382  10.951   9.060   9.044
  332W        W 4383   9.782   9.409   9.116
  333W        W 4384  10.464   6.507   2.983
  334W        W 4385   7.774  10.862   2.264
  335W        W 4386  10.261   6.696  10.804
  336W        W 4387   7.467   1.377   0.175
  337W        W 4388   5.119   6.462   0.815
  338W        W 4389   0.781   4.336  11.674
  339W        W 4390   0.094   8.077  10.792
  340W        W 4391   7.986   2.290   2.946
  341W        W 4392   4.072  10.753  11.504
  342W        W 4393   3.188   7.565   9.970
  343W        W 4394   1.459   0.922   1.852
  344W        W 4395   9.689   6.559   9.987
  345W        W 4396   7.281   7.911   0.816
  346W        W 4397  10.961   5.418  10.542
  347W        W 4398   6.683   0.747   1.755
  348W        W 4399   3.205   7.054   1.805
  349W        W 4400   5.493   3.701   9.509
  350W        W 4401   1.838   9.459  11.791
  351W        W 4402   4.761   2.815   0.551
  352W        W 4403   9.982  11.479   3.202
  353W        W 4404   8.607   3.343   2.154
  354W        W 4405   1.505   7.566  10.027
  355W        W 4406   0.421   8.496  11.515
  356W        W 4407   0.944   7.034   8.281
  357W        W 4408   2.477   9.923   0.352
  358W        W 4409   6.303   3.698   8.994
  359W        W 4410   7.652   9.509   9.013
  360W        W 4411  10.640   4.998   0.024
  361W        W 4412   6.093   8.462  10.422
  362W        W 4413   1.093   1.413   9.783
  363W        W 4414   6.538   2.934  11.654
  364W        W 4415   2.311  10.816   1.349
  365W        W 4416   1.822   5.530   2.466
  366W        W 4417   9.393   8.874   3.000
  367W        W 4418   4.653  10.767   2.815
  368W        W 4419   5.254   5.471   1.824
  369W        W 4420   8.441   6.985   3.030
  370W        W 4421   7.628   6.611   9.501
  371W        W 4422   5.649   2.676   1.517
  372W        W 4423  11.273  10.495   2.795
  373W        W 4424   7.718   9.492   3.524
  374W        W 4425   5.556   6.648  10.544
  375W        W 4426   1.450   9.874   0.500
  376W        W 4427   9.834   4.801   0.699
  377W        W 4428   7.610   5.217  10.117
  378W        W 4429   2.228   3.700   2.341
  379W        W 4430   1.435   8.099   2.720
  380W        W 4431   3.719   3.728   1.262
  381W        W 4432   9.209   2.523   2.463
  382W        W 4433   5.142   3.257   1.369
  383W        W 4434   5.626   0.433  11.135
  384W        W 4435   5.394   6.012   9.831
  385W        W 4436   4.811   1.177   2.956
  386W        W 4437   9.421   4.615  11.955
  387W        W 4438   5.038  10.566  10.443
  388W        W 4439   8.605   9.910   2.572
  389W        W 4440  11.206   2.710   8.786
  390W        W 4441   2.680   5.913   1.842
  391W        W 4442   2.977   8.061   9.278
  392W        W 4443   2.711   1.969  11.762
  393W        W 4444   0.854   9.387   2.679
  394W        W 4445   5.393   4.458   3.920
  395W        W 4446   2.677   8.733   3.262
  396W        W 4447   1.707   7.929   3.556
  397W        W 4448   5.222   3.624   1.820
  398W        W 4449   7.018   7.683   1.186
  399W        W 4450   3.163   7.475   2.557
  400W        W 4451   3.774   0.476  10.651
  401W        W 4452  11.389   2.572  10.838
  402W        W 4453   5.420  10.910  10.586
  403W        W 4454   1.413   9.155   0.684
  404W        W 4455   8.686  10.533  11.823
  405W        W 4456   5.369   2.286   8.229
  406W        W 4457   3.127   6.584   1.498
  407W        W 4458   0.254   6.568  11.510
  408W        W 4459   3.315   4.766  11.041
  409W        W 4460  10.280   4.182   1.215
  410W        W 4461   3.561   5.548  11.278
  411W        W 4462   5.990  10.388  10.930
  412W        W 4463   7.598   5.096  11.917
  413W        W 4464   2.833   9.201   3.473
  414W        W 4465   6.410  10.205   3.522
  415W        W 4466   3.311   3.389   0.460
  416W        W 4467   8.240   9.116  11.299
  417W        W 4468   2.313   2.369   9.161
  418W        W 4469   8.930   5.395  11.563
  419W        W 4470   5.245   2.679  10.725
  420W        W 4471  10.005   6.616   2.775
  421W        W 4472   6.964   4.625  10.753
  422W        W 4473   4.246   6.925   0.682
  423W        W 4474  11.288   6.088  10.427
  424W        W 4475   1.261   6.511   0.163
  425W        W 4476   9.080   8.845   0.492
  426W        W 4477   6.494   4.142   9.141
  427W        W 4478   2.270   9.644  11.967
  428W        W 4479  10.899   7.537   1.600
  429W        W 4480  10.062  10.735  10.410
  430W        W 4481   3.940   0.164  11.089
  431W        W 4482   7.115   7.510   0.234
  432W        W 4483   7.815   0.895   2.641
  433W        W 4484   7.118   0.257  11.508
  434W        W 4485   8.602   2.255  11.866
  435W        W 4486   4.198   5.688   0.341
  436W        W 4487   4.203   3.705   1.382
  437W        W 4488   5.556   1.959   9.489
  438W        W 4489   8.427   7.153   1.657
  439W        W 4490   7.534   1.834   3.640
  440W        W 4491   9.937  10.885   1.179
  441W        W 4492   8.024   4.128   1.186
  442W        W 4493   5.708   9.582   9.568
  443W        W 4494   1.269   6.518   1.141
  444W        W 4495   9.476   7.943   2.710
  445W        W 4496   6.989  11.331   2.826
  446W        W 4497   5.500   4.176   2.237
  447W        W 4498   2.173   2.793   8.857
  448W        W 4499   1.013  10.923   9.784
  449W        W 4500   2.822   7.505   1.842
  450W        W 4501   4.261  11.151   3.464
  451W        W 4502   4.727   0.778  11.945
  452W        W 4503   7.655   3.663  10.449
  453W        W 4504  10.853   8.856   1.421
  454W        W 4505  10.599   0.640   1.406
  455W        W 4506   3.220   8.138   9.756
  456W        W 4507   3.127   1.641   2.458
  457W        W 4508   9.364   7.557  10.839
  458W        W 4509   2.700  11.116   2.231
  459W        W 4510   7.897   9.290  11.772
  460W        W 4511   9.530   2.618   0.442
  461W        W 4512   7.039   1.715   0.223
  462W        W 4513   4.155   8.745   8.889
  463W        W 4514   0.821   1.400  11.966
  464W        W 4515   7.143   8.870   3.211
  465W        W 4516   3.131   5.666   9.411
  466W        W 4517  10.031   7.077   0.517
  467W        W 4518   5.522   8.419   9.968
  468W        W 4519   0.706   0.990   0.288
  469W        W 4520   1.111   9.492   0.390
  470W        W 4521   7.183   4.329   0.870
  471W        W 4522   2.652  10.758   1.848
  472W        W 4523   4.299  10.791  11.986
  473W        W 4524   9.203  10.112  11.124
  474W        W 4525   3.211   6.469   8.910
  475W        W 4526   6.025   5.741  11.377
  476W        W 4527   5.916   6.044   9.837
  477W        W 4528   2.184   4.830   3.345
  478W        W 4529   9.554   1.090   9.577
  479W        W 4530  10.654   0.850  11.295
  480W        W 4531   4.710   0.627  11.049
  481W        W 4532   2.323   7.650   7.989
  482W        W 4533   2.475   4.815   8.341
  483W        W 4534   8.049   9.607   9.334
  484W        W 4535   3.632   2.624   8.811
  485W        W 4536   4.561   7.168  11.864
  486W        W 4537   3.866   9.233   8.570
  487W        W 4538   0.902   8.434   1.781
  488W        W 4539   9.450   6.474  10.422
  489W        W 4540   3.072   7.169   9.513
  490W        W 4541   5.066  10.735   9.947
  491W        W 4542   7.122   1.881  10.923
  492W        W 4543   5.123   2.336   3.260
  493W        W 4544   2.283   7.199   9.877
  494W        W 4545   2.883   1.746   3.732
  495W        W 4546   7.981   6.085   3.224
  496W        W 4547  11.266   3.418   2.653
  497W        W 4548   5.970   6.508   0.423
  498W        W 4549   4.012  11.286   2.116
  499W        W 4550   0.886   2.743   1.219
  500W        W 4551   5.532   2.699   3.286
  501W        W 4552   4.854   4.346   0.873
  502W        W 4553   9.739   3.370  10.643
  503W        W 4554   5.223   9.805   2.281
  504W        W 4555   6.139  10.844   9.961
  505W        W 4556   1.431   3.344   1.493
  506W        W 4557   7.211   0.852   9.307
  507W        W 4558   0.826   6.528   1.384
  508W        W 4559  10.100   8.560   0.390
  509W        W 4560   1.646   4.020   9.673
  510W        W 4561   4.509   5.292  11.249
  511W        W 4562  10.575  10.056   2.294
  512W        W 4563  11.433   4.713  11.909
  513W        W 4564   8.288   5.438   8.300
  514W        W 4565  10.862   9.371   1.542
  515W        W 4566   1.369   2.780   2.962
  516W        W 4567   7.420   6.601   8.505
  517W        W 4568   0.054   4.845   0.387
  518W        W 4569   2.818   8.604   0.415
  519W        W 4570   2.635   4.652   1.935
  520W        W 4571   4.626  10.226   0.953
  521W        W 4572   3.863   1.701   2.168
  522W        W 4573   7.590   2.425   2.665
  523W        W 4574   2.398   6.971  10.811
  524W        W 4575   6.234   9.490   9.640
  525W        W 4576   6.191   5.080  10.855
  526W        W 4577   3.177   8.648   9.926
  527W        W 4578   8.262   4.770   3.600
  528W        W 4579   8.903   8.504  11.308
  529W        W 4580   3.289   8.062   0.363
  530W        W 4581   7.418   2.683   1.794
  531W        W 4582   6.719   0.780   9.231
  532W        W 4583   9.731   7.540   1.334
  533W        W 4584   8.474   6.125   3.424
  534W        W 4585   0.909   5.606   9.574
  535W        W 4586   1.757  11.042  10.223
  536W        W 4587   4.938   0.082  10.310
  537W        W 4588   8.535   6.669   2.162
  538W        W 4589   1.298   7.494  10.883
  539W        W 4590   0.317   1.648   0.791
  540W        W 4591   5.640   2.803  11.032
  541W        W 4592   5.533   2.281   3.586
  542W        W 4593   6.682   8.707  11.221
  543W        W 4594   3.627   0.936   1.451
  544W        W 4595   7.371   1.325   0.893
  545W        W 4596   7.315   6.122   0.355
  546W        W 4597   1.131   8.436   8.493
  547W        W 4598  11.436   5.217   3.361
  548W        W 4599   9.242   6.073   8.181
  549W        W 4600   3.882  10.793  11.022
  550W        W 4601   0.859   7.839   1.923
  551W        W 4602  10.551   9.816   1.390
  552W        W 4603   5.678   7.237   1.613
  553W        W 4604   7.632  10.072   0.083
  554W        W 4605   2.619   7.586   0.274
  555W        W 4606   9.874   6.516   2.291
  556W        W 4607  10.972   6.507   9.628
  557W        W 4608  10.019   3.371   1.392
  558W        W 4609   1.520  11.355  11.985
  559W        W 4610   7.725   1.937   2.590
  560W        W 4611   9.435   7.042  10.750
  561W        W 4612   0.345   1.133   0.696
  562W        W 4613   5.627   8.008   2.851
  563W        W 4614   6.115  11.283   2.712
  564W        W 4615   1.204   6.572   0.655
  565W        W 4616  10.785  11.269   1.155
  566W        W 4617   4.611   7.092   9.864
  567W        W 4618  11.446   2.583   3.145
  568W        W 4619   5.610   4.148   8.616
  569W        W 4620   2.235   9.187   2.778
  570W        W 4621   2.483   8.119  11.846
  571W        W 4622   8.981  10.463  10.841
  572W        W 4623   1.009   1.873  11.986
  573W        W 4624   1.334   8.664   1.930
  574W        W 4625   6.461   7.123   3.159
  575W        W 4626   4.876   1.976   1.401
  576W        W 4627   9.892   9.776  10.438
  577W        W 4628   9.580   6.795   9.201
  578W        W 4629   1.119   5.687   0.517
  579W        W 4630   5.811  10.441   9.463
  580W        W 4631   8.042   0.546  11.355
  581W        W 4632   9.186   2.134   3.424
  582W        W 4633   6.495   5.644   2.226
  583W        W 4634   1.861   2.191   9.338
  584W        W 4635   9.433   3.262   3.539
  585W        W 4636   4.310   2.677  11.047
  586W        W 4637   5.682   8.713   9.589
  587W        W 4638  10.887   6.751  11.919
  588W        W 4639   8.092  10.960   0.750
  589W        W 4640   1.318   8.997  11.475
  590W        W 4641   2.111   1.824   2.607
  591W        W 4642   2.699   0.308   2.850
  592W        W 4643   3.236   3.726   0.059
  593W        W 4644   4.607   6.190   3.477
  594W        W 4645   9.445   4.346   9.810
  595W        W 4646   4.274   8.002  10.349
  596W        W 4647   0.778   9.000   1.370
  597W        W 4648   7.399   3.152   9.450
  598W        W 4649   5.087   9.510   9.417
  599W        W 4650   3.036   6.052  11.936
  600W        W 4651   0.442   8.551   1.968
  601W        W 4652   4.327   7.147   8.887
  602W        W 4653   9.900   1.984   1.732
  603W        W 4654   0.948   3.578   3.035
  604W        W 4655   2.748   9.391   9.946
  605W        W 4656   7.413   4.854  10.511
  606W        W 4657   4.777   6.549   1.242
  607W        W 4658   7.382   1.694  11.786
  608W        W 4659   9.522   3.151  11.536
  609W        W 4660   8.700   9.790   0.367
  610W        W 4661  10.420   9.486   9.976
  611W        W 4662   2.366   2.303  10.105
  612W        W 4663  10.783   9.528   8.766
  613W        W 4664   6.840  10.057   3.267
  614W        W 4665   3.528   5.088   3.292
  615W        W 4666   5.573   9.780   1.760
  616W        W 4667   5.565   2.421   9.261
  617W        W 4668   8.577  11.323   2.125
  618W        W 4669   6.276   7.055  10.464
  619W        W 4670   2.264   7.657  11.878
  620W        W 4671   1.395   2.845   1.972
  621W        W 4672   0.203   2.176   1.474
  622W        W 4673   4.108   6.337   8.608
  623W        W 4674   6.645   7.242  11.420
  624W        W 4675   0.233   5.360   1.488
  625W        W 4676   0.321   4.157   3.108
  626W        W 4677   3.851  10.221   0.215
  627W        W 4678   8.878   4.337   0.132
  628W        W 4679   1.336   1.056   2.760
  629W        W 4680   2.360   9.604  10.159
  630W        W 4681   7.862   9.291   0.686
  631W        W 4682  11.460   5.671  11.706
  632W        W 4683   5.727   8.357   1.199
  633W        W 4684   7.214  10.223   1.417
  634W        W 4685   2.829   9.560  11.503
  635W        W 4686   5.978   6.863   1.821
  636W        W 4687  10.923   7.471  11.449
  637W        W 4688   1.410   6.680   2.171
  638W        W 4689   3.591  10.448  10.482
  639W        W 4690   3.641   9.477   3.289
  640W        W 4691   0.781   6.724   8.982
  641W        W 4692   8.978   6.831   9.551
  642W        W 4693   8.662   6.681   1.639
  643W        W 4694  11.403   5.770   1.093
  644W        W 4695   3.621   1.820   2.622
  645W        W 4696  10.569   0.830   0.915
  646W        W 4697   1.808  10.193  11.289
  647W        W 4698   4.145   5.715  11.843
  648W        W 4699  11.306   7.448  11.782
  649W        W 4700   8.552   0.528  10.214
  650W        W 4701   6.231   9.740   0.382
  651W        W 4702   1.779   7.309   0.249
  652W        W 4703   4.128   0.471   1.459
  653W        W 4704   5.243   1.644  11.736
  654W        W 4705   8.124   7.124   9.976
  655W        W 4706   8.450   1.169  10.788
  656W        W 4707   5.125   4.459  11.225
  657W        W 4708   7.084   7.168   1.075
  658W        W 4709   0.693   1.987   2.218
  659W        W 4710   7.969   0.366   0.252
  660W        W 4711   5.038  10.090   3.154
  661W        W 4712   0.724   8.895  11.082
  662W        W 4713   5.178   1.850   3.142
  663W        W 4714   2.728   5.282   3.728
  664W        W 4715   5.776   3.168   2.110
  665W        W 4716   3.608   4.872   0.630
  666W        W 4717   8.924   3.749   0.712
  667W        W 4718   7.580   9.148   3.092
  668W        W 4719   7.409   8.119   2.064
  669W        W 4720   1.359  11.467  11.042
  670W        W 4721   0.980   3.005   9.587
  671W        W 4722   9.009   0.220  11.512
  672W        W 4723   5.833   5.740  11.860
  673W        W 4724   4.965  10.245  10.028
  674W        W 4725   3.592   7.008   9.602
  675W        W 4726   6.540  11.123  10.992
  676W        W 4727   9.620   5.499   9.416
  677W        W 4728   2.094   4.178  10.582
  678W        W 4729   7.417   4.252   1.929
  679W        W 4730   0.917   7.584   9.379
  680W        W 4731   2.443  10.372  10.095
  681W        W 4732   7.109  10.518   8.697
  682W        W 4733   7.157  11.137   0.403
  683W        W 4734   0.851   3.329  10.040
  684W        W 4735   4.676   6.153   0.808
  685W        W 4736   3.659   2.387  11.793
  686W        W 4737   2.212   6.215   2.982
  687W        W 4738   8.296   5.265   2.798
  688W        W 4739   8.820   3.822   9.071
  689W        W 4740  10.763   4.919   3.615
  690W        W 4741   5.860  10.520   0.158
  691W        W 4742   2.301  11.330   9.059
  692W        W 4743   5.686   1.748   1.003
  693W        W 4744   8.145   8.246   2.307
  694W        W 4745   2.294   1.723  11.939
  695W        W 4746   1.281   5.157   2.600
  696W        W 4747   5.487   2.632   0.942
  697W        W 4748   3.137   9.390   9.212
  698W        W 4749   2.993   4.138   0.233
  699W        W 4750   4.728   7.229   0.531
  700W        W 4751   9.989   0.885   3.582
  701W        W 4752  10.510   5.089   2.324
  702W        W 4753   8.122   4.629   9.444
  703W        W 4754   1.692   2.336   2.276
  704W        W 4755   9.278   3.265  10.842
  705W        W 4756   7.161   0.975  11.285
  706W        W 4757   9.666   8.904   0.799
  707W        W 4758   4.339   9.946  10.642
  708W        W 4759  10.622   3.226   0.707
  709W        W 4760   4.927   1.259   1.204
  710W        W 4761   1.283   9.723   9.821
  711W        W 4762   6.585   9.872   9.614
  712W        W 4763   2.175   8.622   1.656
  713W        W 4764   1.812   8.553   9.982
  714W        W 4765   9.363   9.559   2.303
  715W        W 4766   2.745   2.185   0.249
  716W        W 4767   3.090   3.145   1.793
  717W        W 4768  10.123   9.657   3.102
  718W        W 4769   0.218   0.561   0.096
  719W        W 4770   4.162   9.501  10.960
  720W        W 4771   5.108   9.401  11.026
  721W        W 4772   9.225   6.573  10.872
  722W        W 4773   8.142  10.059   9.094
  723W        W 4774   7.949   0.285  10.914
  724W        W 4775   8.051   1.474   1.864
  725W        W 4776   1.137   7.983  11.584
  726W        W 4777   7.131   3.672   1.235
  727W        W 4778   0.579   7.669   1.429
  728W        W 4779  10.266   0.441   1.064
  729W        W 4780   6.285   1.849   2.226
  730W        W 4781   2.627   5.558   3.315
  731W        W 4782   3.673   8.383  11.284
  732W        W 4783   0.719  10.347   1.418
  733W        W 4784   3.665   7.916  11.515
  734W        W 4785   5.234   3.058  11.583
  735W        W 4786   6.551   2.780   3.320
  736W        W 4787   0.783   0.644   3.196
  737W        W 4788   7.008   8.451   1.951
  738W        W 4789   5.655   7.815   9.828
  739W        W 4790   5.912  10.546   2.085
  740W        W 4791   0.485  11.036   0.670
  741W        W 4792   8.307   6.404  10.992
  742W        W 4793  11.419   7.669   9.599
  743W        W 4794   1.534   7.955  10.915
  744W        W 4795   2.270   1.188   0.986
  745W        W 4796   5.626   5.544   2.698
  746W        W 4797   9.871   8.359   0.790
  747W        W 4798   3.267  10.836   0.769
  748W        W 4799  10.834   8.651   8.749
  749W        W 4800   6.676   3.347   8.856
  750W        W 4801   2.744   4.241  11.205
  751W        W 4802  10.389   5.671   1.949
  752W        W 4803  11.421   4.562   1.688
  753W        W 4804   5.007   2.032   9.549
  754W        W 4805   8.570   7.168  11.193
  755W        W 4806  10.882   4.654   1.693
  756W        W 4807   4.794   2.708  10.936
  757W        W 4808   0.938   9.001   9.218
  758W        W 4809   7.134   4.286  10.000
  759W        W 4810   9.065  11.415   9.475
  760W        W 4811  11.462   5.691  10.753
  761W        W 4812   5.691   1.225   1.936
  762W        W 4813   0.684   0.320  10.959
  763W        W 4814  10.890   7.031   1.745
  764W        W 4815  10.137   4.496   9.824
  765W        W 4816   6.680   9.100  11.718
  766W        W 4817   2.058   6.856   3.643
  767W        W 4818   7.575   0.757   2.042
  768W        W 4819  10.005   5.692  10.632
  769W        W 4820   2.615   1.773   1.733
  770W        W 4821   4.197   1.788   3.122
  771W        W 4822   6.764   5.121   0.413
  772W        W 4823   1.936   0.677   0.179
  773W        W 4824   8.539   8.948   2.705
  774W        W 4825   5.065   6.696  10.327
  775W        W 4826   7.124   0.976   3.528
  776W        W 4827   9.620   4.864   3.752
  777W        W 4828   6.274   5.685   1.273
  778W        W 4829   0.842   5.069   1.717
  779W        W 4830   7.839   4.666  10.741
  780W        W 4831  11.482   8.552   9.421
  781W        W 4832   5.966  10.112  10.457
  782W        W 4833   4.832   5.644   2.104
  783W        W 4834  10.967   0.945   1.210
  784W        W 4835   6.702   2.596   9.381
  785W        W 4836   6.064   2.309   2.219
  786W        W 4837  10.156   0.299  10.769
  787W        W 4838  10.485   5.605  10.450
  788W        W 4839   9.415   7.801   3.436
  789W        W 4840   2.806   8.698   2.754
  790W        W 4841   1.198   9.631   1.762
  791W        W 4842   5.786  10.045   0.394
  792W        W 4843   6.593   3.159  11.188
  793W        W 4844   7.528   7.658   1.266
  794W        W 4845   5.571   1.757   3.458
  795W        W 4846   6.417  10.631  11.178
  796W        W 4847   7.391   7.633   2.219
  797W        W 4848   7.553   6.749  11.407
  798W        W 4849  10.529   6.541  10.366
  799W        W 4850   8.565   9.896   8.828
  800W        W 4851   9.146   8.925  11.153
  801W        W 4852  11.430   5.608   1.825
  802W        W 4853   0.923  10.077   0.400
  803W        W 4854   2.737   6.608  10.958
  804W        W 4855  10.341   5.153   3.150
  805W        W 4856   9.982   1.700  10.285
  806W        W 4857   6.439   3.815   9.556
  807W        W 4858   1.342   5.634   3.287
  808W        W 4859   0.040  11.327  10.666
  809W        W 4860   9.345   0.290   0.449
  810W        W 4861   5.029   0.476   0.852
  811W        W 4862   3.658   2.330   1.191
  812W        W 4863   9.898   0.211   0.311
  813W        W 4864   4.583   2.184   0.996
  814W        W 4865   2.548   8.344   0.768
  815W        W 4866   0.550   9.180   0.782
  816W        W 4867   5.916   7.866  11.971
  817W        W 4868   6.536   5.170   1.926
  818W        W 4869   4.757   8.353   1.537
  819W        W 4870   3.202   1.391   2.031
  820W        W 4871  10.423   0.609   9.411
  821W        W 4872   3.834   0.301   9.666
  822W        W 4873   6.248   7.168   9.471
  823W        W 4874   2.249   5.237   9.480
  824W        W 4875   5.445   0.795   9.875
  825W        W 4876   0.865   8.335   3.508
  826W        W 4877   5.666   9.968  11.896
  827W        W 4878   2.238   3.260   2.716
  828W        W 4879  11.381   7.095  10.503
  829W        W 4880   2.699   4.507   0.944
  830W        W 4881   1.407   9.895   9.360
  831W        W 4882   6.982   4.803   0.743
  832W        W 4883   1.836   8.156   1.393
  833W        W 4884   7.905   4.189   8.648
  834W        W 4885  10.866   2.159   2.229
  835W        W 4886  11.223   9.993   0.788
  836W        W 4887   1.148   0.548   2.840
  837W        W 4888   7.754  10.601   0.761
  838W        W 4889   0.692   8.907   2.747
  839W        W 4890  10.059   5.690   1.021
  840W        W 4891   8.030  10.741   1.216
  841W        W 4892   6.274   9.203   3.154
  842W        W 4893   1.542   6.232   9.858
  843W        W 4894   6.448   0.311  11.630
  844W        W 4895   0.890   8.362   9.871
  845W        W 4896   6.558   9.408   1.089
  846W        W 4897  10.857   2.109   1.721
  847W        W 4898   4.244  10.830   2.467
  848W        W 4899   2.646   3.681   2.029
  849W        W 4900   7.872   0.378   2.688
  850W        W 4901   6.592   8.157  11.353
  851W        W 4902   0.665   2.101   1.691
  852W        W 4903   0.745   0.784   0.770
  853W        W 4904   1.379   3.154  11.541
  854W        W 4905  11.372   4.101   3.517
  855W        W 4906   2.362   2.453   0.460
  856W        W 4907   8.322   7.554   2.332
  857W        W 4908   1.216   9.375   9.454
  858W        W 4909   4.226  11.277  11.344
  859W        W 4910   1.755   5.087   1.687
  860W        W 4911   3.842   9.270   0.437
  861W        W 4912   3.488  11.383  11.968
  862W        W 4913   7.480   4.965   0.939
  863W        W 4914   2.570   4.663  11.782
  864W        W 4915   7.746   1.452   0.579
  865W        W 4916   7.917   1.940   0.705
  866W        W 4917   0.879   2.700   8.472
  867W        W 4918   3.186   7.455   1.075
  868W        W 4919   2.680   4.105   1.245
  869W        W 4920   6.994   0.346   2.769
  870W        W 4921   2.381   8.140   8.146
  871W        W 4922   4.946   2.933   4.027
  872W        W 4923   4.263   3.377  11.504
  873W        W 4924   2.242   3.843   1.356
  874W        W 4925  11.144   7.692   0.758
  875W        W 4926   1.030   8.904   0.415
  876W        W 4927   8.442   1.751   3.249
  877W        W 4928   1.337  10.038  11.720
  878W        W 4929   9.931   8.996   9.372
  879W        W 4930   0.342   2.731   0.052
  880W        W 4931   9.793   7.494   8.535
  881W        W 4932   3.946   2.186   2.802
  882W        W 4933   6.945   5.847  10.338
  883W        W 4934   4.240   2.234   3.377
  884W        W 4935   4.276   0.850   2.238
  885W        W 4936   7.801  10.134   0.557
  886W        W 4937   0.489   6.254   1.658
  887W        W 4938   0.307   1.881  10.294
  888W        W 4939  11.393   4.675  10.528
  889W        W 4940   3.632   0.516   2.736
  890W        W 4941   5.699   1.312   0.716
  891W        W 4942   1.164  10.387   9.495
  892W        W 4943  10.951  10.390   9.326
  893W        W 4944   6.280  10.212   0.221
  894W        W 4945   4.483  11.166   9.234
  895W        W 4946   4.259   4.720   2.814
  896W        W 4947   6.643   9.480  10.528
  897W        W 4948  11.334   7.594   9.044
  898W        W 4949  10.386   9.644  10.483
  899W        W 4950   3.937   6.187  10.701
  900W        W 4951   4.051   4.020   9.254
  901W        W 4952   1.640   9.501   8.592
  902W        W 4953   1.365   8.707   1.043
  903W        W 4954   0.874   6.352   2.944
  904W        W 4955   3.568  11.362   9.522
  905W        W 4956   4.759   8.400   2.882
  906W        W 4957   8.310  10.236   2.841
  907W        W 4958   5.630  10.617   2.932
  908W        W 4959   7.602   8.472  10.392
  909W        W 4960   0.234   1.417  11.863
  910W        W 4961   6.053   3.264   0.168
  911W        W 4962   0.622   7.119   9.477
  912W        W 4963   3.385   8.879   1.972
  913W        W 4964  11.280   8.052   3.052
  914W        W 4965   1.720   7.351   2.940
  915W        W 4966   3.101   5.309   8.234
  916W        W 4967   8.153   2.787  11.287
  917W        W 4968   9.217   0.313   2.766
  918W        W 4969   8.657   1.083   2.596
  919W        W 4970   9.427   2.125   0.467
  920W        W 4971  11.016  10.517   0.745
  921W        W 4972   2.257   9.110  10.028
  922W        W 4973   6.575   1.930   1.439
  923W        W 4974   5.717   1.922   2.008
  924W        W 4975   4.305   0.720  11.381
  925W        W 4976   6.207   3.759   0.323
  926W        W 4977   4.760   6.272  10.323
  927W        W 4978   0.325   2.287  10.907
  928W        W 4979   7.970   7.908   1.465
  929W        W 4980   6.573  10.404  10.747
  930W        W 4981   2.128   4.310   0.489
  931W        W 4982   3.152   5.619  10.494
  932W        W 4983   4.466   8.862   9.301
  933W        W 4984  10.368   2.399  10.909
  934W        W 4985   9.675   4.132   1.854
  935W        W 4986   1.679   6.435   3.451
  936W        W 4987   5.130   1.968   3.650
  937W        W 4988   3.220  10.312   2.614
  938W        W 4989   8.609   3.355   3.083
  939W        W 4990   6.165   1.382   2.719
  940W        W 4991  10.946   3.674   1.438
  941W        W 4992   8.560   6.185   9.167
  942W        W 4993  11.148   8.094   3.531
  943W        W 4994   8.015  11.439   8.887
  944W        W 4995   6.101  10.433   2.662
  945W        W 4996   3.595   6.362   2.711
  946W        W 4997   3.688   3.756   3.021
  947W        W 4998   9.442  10.512  10.290
  948W        W 4999   0.441   7.015   2.534
  949W        W 5000   2.125  10.052   2.814
  950W        W 5001   9.788   3.295  11.959
  951W        W 5002   7.663   2.249  10.917
  952W        W 5003   9.072  10.955   0.512
  953W        W 5004   9.301   5.120   1.455
  954W        W 5005   6.765   9.039   9.267
  955W        W 5006   8.386   9.061  11.806
  956W        W 5007   5.806   3.735   1.577
  957W        W 5008   1.320   3.888   2.825
  958W        W 5009   5.256   8.044   9.638
  959W        W 5010   0.981   1.725   1.433
  960W        W 5011   0.300   9.490   1.488
  961W        W 5012  10.355   3.195   2.192
  962W        W 5013   2.854  10.823   9.007
  963W        W 5014   5.742   7.165  11.307
  964W        W 5015   1.351   0.402   3.415
  965W        W 5016   8.606   5.907  10.954
  966W        W 5017   5.151   4.617  11.754
  967W        W 5018   1.045   0.652   1.719
  968W        W 5019   5.596   7.539  10.992
  969W        W 5020   2.111   5.982  10.931
  970W        W 5021   9.465   5.190   3.385
  971W        W 5022   3.807   8.026   8.952
  972W        W 5023   4.162   7.611   9.071
  973W        W 5024   7.193   2.307   2.965
  974W        W 5025   8.744   4.955  10.767
  975W        W 5026   0.784   0.218   1.805
  976W        W 5027   4.413   1.284   1.418
  977W        W 5028   6.960   2.740   8.936
  978W        W 5029   7.630   3.875   3.285
  979W        W 5030  11.490   4.259   0.164
  980W        W 5031   2.659   8.450   1.667
  981W        W 5032  10.847  10.323   0.294
  982W        W 5033   3.228   2.834   9.111
  983W        W 5034   1.350   2.731  10.961
  984W        W 5035   3.304   9.781   8.892
  985W        W 5036   5.076   5.864  11.371
  986W        W 5037   5.355   9.395   8.095
  987W        W 5038  10.900   8.110   2.694
  988W        W 5039   6.411   9.141   1.824
  989W        W 5040   5.837   9.931   8.702
  990W        W 5041   7.065   8.390   9.111
  991W        W 5042   6.028   5.538   9.645
  992W        W 5043   8.898   5.527  10.573
  993W        W 5044   7.414   3.642   0.751
  994W        W 5045   6.309   2.698   2.856
  995W        W 5046   8.049   5.542   0.701
  996W        W 5047   1.434   6.239   8.983
  997W        W 5048   6.704   0.077  10.844
  998W        W 5049   8.049   6.445   0.293
  999W        W 5050  10.599   4.475   9.589
 1000W        W 5051   9.502   3.521   2.660
 1001W        W 5052   4.184   2.816  10.041
 1002W        W 5053   0.364   4.575   9.809
 1003W        W 5054   9.966   8.993  11.483
 1004W        W 5055   2.666   6.588   2.872
 1005W        W 5056   3.247  10.432   3.181
 1006W        W 5057   9.958   1.779   3.441
 1007W        W 5058   9.381   5.533  11.734
 1008W        W 5059   7.962   9.949   3.315
 1009W        W 5060   1.237   4.559   9.856
 1010W        W 5061   8.978   9.353  11.432
 1011W        W 5062   3.602   0.421   0.045
 1012W        W 5063   3.036   3.060   8.381
 1013W        W 5064   0.259   9.093   0.026
 1014W        W 5065   8.120   8.864   0.626
 1015W        W 5066   9.746   6.667   0.451
 1016W        W 5067   9.363   9.350   9.915
 1017W        W 5068   5.255   1.932   0.746
 1018W        W 5069   3.136   2.394   2.158
 1019W        W 5070   9.296   5.938   1.944
 1020W        W 5071   0.941   1.527  11.090
 1021W        W 5072   2.897   1.626  10.509
 1022W        W 5073   3.653   0.250   9.201
 1023W        W 5074   0.384   6.446   3.256
 1024W        W 5075   1.847   3.624   9.401
 1025W        W 5076   9.833   9.923   3.443
 1026W        W 5077   5.971   0.466   9.292
 1027W        W 5078  11.390   6.956   1.708
 1028W        W 5079   7.670   2.610  11.968
 1029W        W 5080   8.433   0.261   0.465
 1030W        W 5081   5.739  10.873   9.150
 1031W        W 5082   8.443   8.096   9.120
 1032W        W 5083   0.286   5.075   2.975
 1033W        W 5084   4.795   8.943   0.921
 1034W        W 5085   0.524   3.979  11.898
 1035W        W 5086   0.353   6.240   9.754
 1036W        W 5087   8.718   1.437  11.752
 1037W        W 5088  11.265  11.184  10.260
 1038W        W 5089   2.600   8.136   2.114
 1039W        W 5090   3.667   8.429   9.700
 1040W        W 5091   7.999   6.877   2.593
 1041W        W 5092   9.539   2.391  11.126
 1042W        W 5093   6.955   0.745   1.268
 1043W        W 5094   6.271   6.391   8.597
 1044W        W 5095   2.155   8.357  10.708
 1045W        W 5096   0.894   1.347   9.086
 1046W        W 5097   2.082   6.863   9.521
 1047W        W 5098   9.793  10.257   9.028
 1048W        W 5099  11.046   7.627  10.501
 1049W        W 5100   1.196   1.970   0.696
 1050W        W 5101   8.549   9.739   1.104
 1051W        W 5102   6.052   8.192   3.052
 1052W        W 5103  11.046   9.830   0.342
 1053W        W 5104   4.844   9.758   2.693
 1054W        W 5105   6.196   1.397   1.197
 1055W        W 5106   1.779  11.220  11.105
 1056W        W 5107   9.410   6.616   0.087
 1057W        W 5108   8.257   0.296   3.028
 1058W        W 5109   2.439   0.700   0.272
 1059W        W 5110   2.586   6.131  11.030
 1060W        W 5111   3.725   0.065   0.395
 1061W        W 5112   7.963   8.976   1.579
 1062W        W 5113   6.677   9.036   0.258
 1063W        W 5114   0.912   3.345  11.503
 1064W        W 5115   0.867   6.782  10.899
 1065W        W 5116   8.166   6.710   1.784
 1066W        W 5117   2.424   4.833   1.210
 1067W        W 5118   9.411   2.433  10.648
 1068W        W 5119   5.164   2.679   1.357
 1069W        W 5120   0.904   3.684  10.918
 1070W        W 5121   7.563   7.211   0.253
 1071W        W 5122  10.116   7.900   0.688
 1072W        W 5123   6.736   9.352   9.703
 1073W        W 5124   9.812  10.188   1.812
 1074W        W 5125   2.217   4.701   0.163
 1075W        W 5126   2.205   7.948   2.394
 1076W        W 5127  11.179   6.535  11.241
 1077W        W 5128  10.766   9.963   9.955
 1078W        W 5129   1.595   2.378   1.443
 1079W        W 5130   6.549   1.696   0.991
 1080W        W 5131   1.916   1.346   9.421
 1081W        W 5132  11.374   7.226   0.786
 1082W        W 5133   9.887  10.894   9.913
 1083W        W 5134   1.212   9.587   0.885
 1084W        W 5135   0.743   2.334  11.311
 1085W        W 5136   9.561  10.389   0.036
 1086W        W 5137   9.337   7.514   0.982
 1087W        W 5138  10.840   7.179   3.070
 1088W        W 5139   6.624   1.445   1.502
 1089W        W 5140   5.484   6.789   1.768
 1090W        W 5141   9.435   1.891  11.085
 1091W        W 5142   9.259   1.465  11.816
 1092W        W 5143   4.698   7.682   2.937
 1093W        W 5144   6.596   3.703  10.936
 1094W        W 5145   5.117   8.134   3.131
 1095W        W 5146   9.541   8.853  10.793
 1096W        W 5147   9.437   1.650   1.562
 1097W        W 5148   2.914   9.486   2.163
 1098W        W 5149  11.310   5.167   2.862
 1099W        W 5150   7.624   9.342  10.504
 1100W        W 5151   2.893   0.941  11.423
 1101W        W 5152   2.219   4.370   9.836
 1102W        W 5153   3.746   7.954  11.007
 1103W        W 5154   5.134   6.683  10.854
 1104W        W 5155   9.750   7.013   0.994
 1105W        W 5156   0.196   2.856   8.992
 1106W        W 5157   3.641  10.290   2.893
 1107W        W 5158   3.209  11.347  10.641
 1108W        W 5159  10.964  10.792   2.531
 1109W        W 5160  10.854   6.342   2.732
 1110W        W 5161  11.094  11.125  11.474
 1111W        W 5162   0.401   6.018  10.761
 1112W        W 5163   8.185   2.864   1.290
 1113W        W 5164   7.470   2.404   9.078
 1114W        W 5165   7.028   6.858   2.021
 1115W        W 5166   0.254   8.986   3.109
 1116W        W 5167   9.846   1.772   1.263
 1117W        W 5168   2.907   5.474   0.756
 1118W        W 5169   8.006   8.369  11.366
 1119W        W 5170   7.930   0.684   3.093
 1120W        W 5171   8.974   8.673   2.773
 1121W        W 5172   2.101   0.917   0.592
 1122W        W 5173   8.010   3.839  10.105
 1123W        W 5174   9.371   7.423   9.896
 1124W        W 5175   0.863   0.486   8.863
 1125W        W 5176   4.754   4.355   2.926
 1126W        W 5177   7.033   5.015  11.328
 1127W        W 5178  10.984   4.077   0.608
 1128W        W 5179   4.332   1.313   2.838
 1129W        W 5180   2.519   4.207  10.211
 1130W        W 5181   6.395   2.743   1.643
 1131W        W 5182   3.250   0.483   9.452
 1132W        W 5183   7.014   2.988   9.773
 1133W        W 5184   5.236   4.046   8.289
 1134W        W 5185   0.076   2.835  11.221
 1135W        W 5186   6.805  10.777   0.559
 1136W        W 5187   2.698  10.810   9.982
 1137W        W 5188   4.576   2.204  11.926
 1138W        W 5189   7.091   6.530  11.416
 1139W        W 5190  10.263   4.086  10.436
 1140W        W 5191   7.889   5.033   1.464
 1141W        W 5192   6.377   3.284   3.247
 1142W        W 5193   4.313   4.236   2.612
 1143W        W 5194  11.356   7.516   3.150
 1144W        W 5195   1.261   6.661   9.737
 1145W        W 5196   9.477   4.017   2.825
 1146W        W 5197   4.677   4.248   8.588
 1147W        W 5198  10.078   8.684   1.833
 1148W        W 5199   0.863   7.691  10.659
 1149W        W 5200   8.953   5.645   0.957
 1150W        W 5201   0.916   0.233  10.214
 1151W        W 5202   1.320  10.247   2.835
 1152W        W 5203  10.150   3.103  10.465
 1153W        W 5204  10.933   1.114   0.658
 1154W        W 5205   4.591   2.213   2.371
 1155W        W 5206   7.370   1.469   9.013
 1156W        W 5207   3.811   0.353  10.168
 1157W        W 5208   2.480   1.740   8.844
 1158W        W 5209   6.688  10.877   8.699
 1159W        W 5210   3.859   4.635  11.359
 1160W        W 5211   6.181   2.909  10.382
 1161W        W 5212   3.018   5.547   8.822
 1162W        W 5213   0.285   3.170  10.834
 1163W        W 5214   2.424   4.634  11.300
 1164W        W 5215   0.116   1.788   8.850
 1165W        W 5216   4.209   4.985   9.541
 1166W        W 5217   9.938   1.809   2.736
 1167W        W 5218   9.038   4.037   2.555
 1168W        W 5219  11.279   3.114  10.867
 1169W        W 5220   8.387   1.770   0.850
 1170W        W 5221   1.275   8.466  11.529
 1171W        W 5222   6.950   6.210   9.157
 1172W        W 5223  11.385   3.132   1.351
 1173W        W 5224  10.726   1.801   3.944
 1174W        W 5225   1.175  10.318  10.412
 1175W        W 5226   9.103   9.000   1.992
 1176W        W 5227   8.933   1.873  11.903
 1177W        W 5228   4.337   9.956   2.770
 1178W        W 5229   8.939   6.930   1.193
 1179W        W 5230   6.887   3.119   9.297
 1180W        W 5231   6.221   8.519  11.278
 1181W        W 5232   9.459   3.622   3.161
 1182W        W 5233   8.547   2.094   1.285
 1183W        W 5234   8.499   8.056   2.764
 1184W        W 5235   9.873   9.305  10.649
 1185W        W 5236   7.415   2.776   2.314
 1186W        W 5237   8.930   7.146  10.833
 1187W        W 5238  10.780   9.800   1.855
 1188W        W 5239   4.825   9.456   8.463
 1189W        W 5240   8.142   1.809   2.264
 1190W        W 5241   8.023   6.443  11.448
 1191W        W 5242   7.578   5.318  10.630
 1192W        W 5243   7.112   9.070   0.007
 1193W        W 5244   7.104  10.974   9.017
 1194W        W 5245   8.816   4.591   8.636
 1195W        W 5246   4.194   2.607   2.960
 1196W        W 5247   5.649   3.858   0.742
 1197W        W 5248   1.254   6.530  11.220
 1198W        W 5249   8.455   9.009   3.189
 1199W        W 5250   4.022   0.514   8.967
 1200W        W 5251   8.814  10.897   0.946
 1201W        W 5252   6.537   8.465   9.707
 1202W        W 5253   2.370   8.670  10.359
 1203W        W 5254   0.498   0.965  11.793
 1204W        W 5255   0.402   4.366   1.690
 1205W        W 5256   0.408   0.479   2.048
 1206W        W 5257  11.324  10.794   0.436
 1207W        W 5258  10.506   4.812   9.973
 1208W        W 5259   1.805   1.716  10.085
 1209W        W 5260   6.445   4.696   0.360
 1210W        W 5261   1.350   5.092   3.448
 1211W        W 5262  10.376   6.227  11.253
 1212W        W 5263   6.116   9.621  10.539
 1213W        W 5264  10.817   7.976   1.866
 1214W        W 5265   3.296   8.366   8.955
 1215W        W 5266   2.256   6.182   9.325
 1216W        W 5267   9.967   5.199   8.613
 1217W        W 5268  10.387   2.160   9.571
 1218W        W 5269   1.876   0.200   2.710
 1219W        W 5270   3.333   1.354   8.817
 1220W        W 5271   7.167   7.240  10.085
 1221W        W 5272   8.597  10.794   0.339
 1222W        W 5273   6.430   8.059   9.035
 1223W        W 5274   6.727   5.452   0.042
 1224W        W 5275   7.479   1.552   2.374
 1225W        W 5276   6.769   9.539   3.200
 1226W        W 5277   3.523   8.625  11.745
 1227W        W 5278   5.860   2.988   0.799
 1228W        W 5279  10.879   5.538  10.044
 1229W        W 5280   2.418   1.792  11.390
 1230W        W 5281   7.202  10.656   0.215
 1231W        W 5282   0.037  10.930   0.913
 1232W        W 5283   3.297   7.480   2.065
 1233W        W 5284   8.924   7.568  11.101
 1234W        W 5285   6.267   9.970  10.906
 1235W        W 5286   3.715  10.886  10.058
 1236W        W 5287   9.998   9.183   1.774
 1237W        W 5288   3.774   7.048   0.504
 1238W        W 5289   9.421   7.129   1.876
 1239W        W 5290   3.650   9.419   9.145
 1240W        W 5291   3.803   9.826   1.194
 1241W        W 5292   1.331   5.323   9.427
 1242W        W 5293  11.328   8.535   8.924
 1243W        W 5294   8.261   6.392   8.794
 1244W        W 5295   6.935  11.461   3.318
 1245W        W 5296   2.386   1.328   9.176
 1246W        W 5297   6.383   9.123  11.300
 1247W        W 5298   3.143   1.878   9.571
 1248W        W 5299   6.540   2.490  11.912
 1249W        W 5300   3.727   9.819   2.073
 1250W        W 5301   6.135  11.038  11.296
 1251W        W 5302   7.152   7.073   0.528
 1252W        W 5303   2.312  10.058   1.659
 1253W        W 5304   8.529   9.429  11.027
 1254W        W 5305   5.551   5.646   9.504
 1255W        W 5306   7.640   7.996  10.166
 1256W        W 5307   1.117   0.389  11.235
 1257W        W 5308   1.308   8.127   1.904
 1258W        W 5309   7.565  10.897  11.457
 1259W        W 5310   1.697   4.544   9.561
 1260W        W 5311   8.895   1.634   2.861
 1261W        W 5312   5.125   8.573   0.489
 1262W        W 5313   5.709  10.083   1.333
 1263W        W 5314   9.874  10.264  10.335
 1264W        W 5315   9.046   3.750   8.607
 1265W        W 5316   5.708   8.652   0.399
 1266W        W 5317   2.040  11.305  11.912
 1267W        W 5318   7.459   4.001  11.909
 1268W        W 5319   4.616   6.750   2.915
 1269W        W 5320   5.360   5.071   2.613
 1270W        W 5321   9.496   3.019   2.486
 1271W        W 5322   9.136   1.242  10.015
 1272W        W 5323   0.631   0.544  10.507
 1273W        W 5324   4.500  10.361   8.531
 1274W        W 5325   1.256   3.565   9.843
 1275W        W 5326   0.748   0.076  11.415
 1276W        W 5327   0.632   7.154   1.266
 1277W        W 5328  10.327  10.825  10.992
 1278W        W 5329   1.793   5.050   2.636
 1279W        W 5330   1.478   9.755   1.303
 1280W        W 5331   3.654   2.322   0.682
 1281W        W 5332   6.655   6.886   2.330
 1282W        W 5333   8.418   7.076   0.287
 1283W        W 5334   5.310   3.305   2.245
 1284W        W 5335   0.245   2.277   9.103
 1285W        W 5336   1.759   6.887   2.731
 1286W        W 5337   5.284   0.172   0.391
 1287W        W 5338   0.070  10.321   2.373
 1288W        W 5339   6.756   9.975  10.995
 1289W        W 5340   6.085   8.471  11.763
 1290W        W 5341   8.075   7.251  11.108
 1291W        W 5342   9.807   9.420   0.734
 1292W        W 5343   2.397  11.335   0.291
 1293W        W 5344   2.443   9.414   0.382
 1294W        W 5345   8.469   5.655   3.581
 1295W        W 5346   4.268   3.563   0.900
 1296W        W 5347   6.952   2.384  11.043
 1297W        W 5348   8.436   3.272   9.488
 1298W        W 5349   9.130  10.088   0.373
 1299W        W 5350  10.325   8.599  11.582
 1300W        W 5351  11.453   8.654   9.912
 1301W        W 5352   6.540   0.636   0.015
 1302W        W 5353   6.115  11.052   3.477
 1303W        W 5354   0.196   7.220   9.776
 1304W        W 5355   2.934   7.588   3.006
 1305W        W 5356   0.411   9.030   1.739
 1306W        W 5357  10.510   8.518   0.066
 1307W        W 5358   7.179   5.663   1.034
 1308W        W 5359   3.347   5.271   9.127
 1309W        W 5360   9.954   8.140   2.639
 1310W        W 5361   2.909   5.467   1.764
 1311W        W 5362   2.388   3.344   1.232
 1312W        W 5363   3.957   1.670   8.407
 1313W        W 5364   8.730   6.666  10.850
 1314W        W 5365  10.413   1.491  10.455
 1315W        W 5366   7.209   6.557   3.154
 1316W        W 5367  11.487   6.132  11.987
 1317W        W 5368   0.197   1.053   0.217
 1318W        W 5369  11.458   3.393  10.439
 1319W        W 5370   8.867   3.262   8.571
 1320W        W 5371   0.057   6.108   1.909
 1321W        W 5372   5.995   4.036   9.417
 1322W        W 5373   9.874   3.689   0.568
 1323W        W 5374   4.607   8.580   0.586
 1324W        W 5375  10.830   3.475   2.339
 1325W        W 5376   0.513  10.017   2.254
 1326W        W 5377   5.050  11.453   0.778
 1327W        W 5378   7.259   6.206  10.596
 1328W        W 5379   3.744  11.120  11.430
 1329W        W 5380   2.675   9.333  11.931
 1330W        W 5381  10.634   7.854   0.587
 1331W        W 5382   1.690   4.873  11.037
 1332W        W 5383   6.872  11.393   9.461
 1333W        W 5384   1.899   8.818   0.263
 1334W        W 5385   8.539   2.316   2.371
 1335W        W 5386   3.671   2.843   0.729
 1336W        W 5387  10.639  11.306   0.632
 1337W        W 5388   2.820   4.177   2.678
 1338W        W 5389   3.161   0.301   1.552
 1339W        W 5390   0.255   5.574   9.834
 1340W        W 5391   6.316  10.451  10.273
 1341W        W 5392   4.954   0.579   1.696
 1342W        W 5393   0.223   3.107   0.405
 1343W        W 5394   2.931   0.120  10.141
 1344W        W 5395   0.476   3.083  11.446
 1345W        W 5396   1.974   8.094  11.871
 1346W        W 5397   4.622   7.617  11.594
 1347W        W 5398   7.286   0.520   8.937
 1348W        W 5399   6.433   7.892   2.279
 1349W        W 5400   7.553   2.291   0.805
 1350W        W 5401   3.806   5.244   0.269
 1351W        W 5402   3.706   4.474   1.905
 1352W        W 5403   8.292   4.555   8.588
 1353W        W 5404   7.811   8.435  11.871
 1354W        W 5405   5.520   8.923   8.595
 1355W        W 5406   0.815   9.187   3.165
 1356W        W 5407   2.762   2.094  10.355
 1357W        W 5408   0.474   1.294   2.637
 1358W        W 5409   5.303  11.421   1.657
 1359W        W 5410  10.231   9.454  11.407
 1360W        W 5411  10.671  10.452   1.410
 1361W        W 5412   2.777   2.373   0.769
 1362W        W 5413   8.038   6.007   4.127
 1363W        W 5414   2.314  10.878  11.813
 1364W        W 5415   6.940   1.510   0.702
 1365W        W 5416   0.039   9.900   8.858
 1366W        W 5417   0.491   3.072   9.787
 1367W        W 5418  10.632   3.884   0.270
 1368W        W 5419   2.794   3.764   9.453
 1369W        W 5420   4.599   9.507  10.672
 1370W        W 5421   5.627   1.693   2.907
 1371W        W 5422   3.345   1.483   2.886
 1372W        W 5423   5.352   9.416   8.605
 1373W        W 5424   0.217   0.309  10.748
 1374W        W 5425  10.891  10.125  11.301
 1375W        W 5426   4.693  10.048   2.288
 1376W        W 5427   4.943   0.830   9.792
 1377W        W 5428   4.106   4.552   3.556
 1378W        W 5429  10.495   7.230  11.626
 1379W        W 5430   6.794   3.703   9.196
 1380W        W 5431   4.518   4.461   9.568
 1381W        W 5432   3.833   0.480  11.579
 1382W        W 5433  10.805   4.173   1.139
 1383W        W 5434   5.317   9.888   3.584
 1384W        W 5435   4.372   1.424   9.950
 1385W        W 5436   7.572   0.760   3.443
 1386W        W 5437   9.041   0.768   2.411
 1387W        W 5438   8.544   7.587   9.298
 1388W        W 5439   3.691   2.654   9.319
 1389W        W 5440   8.553   7.552   2.812
 1390W        W 5441   9.014   4.610   1.285
 1391W        W 5442   8.614   2.574   0.525
 1392W        W 5443   5.991   3.335   1.207
 1393W        W 5444   2.700   7.939   2.657
 1394W        W 5445   3.121  10.284   0.119
 1395W        W 5446  10.578   9.845  10.949
 1396W        W 5447   7.606   4.357   1.476
 1397W        W 5448   2.380   7.885  10.721
 1398W        W 5449   8.646   6.327  11.745
 1399W        W 5450   8.998   9.633  10.981
 1400W        W 5451   5.763   0.338   0.491
 1401W        W 5452   6.077   8.075   8.593
 1402W        W 5453   6.045   7.283   4.052
 1403W        W 5454   4.040  10.966   9.111
 1404W        W 5455   0.884   3.851  11.432
 1405W        W 5456   4.286   8.916   0.780
 1406W        W 5457   2.788   2.472  11.833
 1407W        W 5458   7.804   6.677   9.990
 1408W        W 5459   9.563   2.908   9.479
 1409W        W 5460  10.118   9.011   9.856
 1410W        W 5461   3.588   0.775   9.162
 1411W        W 5462   4.722   9.098  11.427
 1412W        W 5463   8.778  10.910   2.357
 1413W        W 5464   3.880   5.282  10.538
 1414W        W 5465   6.720   3.713   0.300
 1415W        W 5466   8.016   9.635   9.888
 1416W        W 5467   9.072   5.763   2.784
 1417W        W 5468   7.647   4.165  11.072
 1418W        W 5469  10.837   9.832  11.872
 1419W        W 5470   3.124   9.119  10.208
 1420W        W 5471   5.826   5.190  11.622
 1421W        W 5472   3.414   6.097  10.675
 1422W        W 5473   6.532   6.638   1.790
 1423W        W 5474   9.568   6.127  10.817
 1424W        W 5475   6.871  10.865  10.671
 1425W        W 5476   8.182   8.944   1.123
 1426W        W 5477   3.303   8.015  10.228
 1427W        W 5478   4.224   2.311  10.452
 1428W        W 5479  10.863   2.754   9.179
 1429W        W 5480   0.453  11.033   1.212
 1430W        W 5481   0.972  11.321   1.376
 1431W        W 5482   8.937   7.358   9.572
 1432W        W 5483   2.151   3.430   1.903
 1433W        W 5484   9.182   7.074  11.925
 1434W        W 5485   2.939   7.855  11.968
 1435W        W 5486   2.278   0.562   1.944
 1436W        W 5487   1.110   9.830   2.645
 1437W        W 5488   8.939   0.732  11.470
 1438W        W 5489   2.964   3.048   3.129
 1439W        W 5490   4.291   2.798   0.337
 1440W        W 5491   4.680   4.241   9.114
 1441W        W 5492   4.735   2.962   1.404
 1442W        W 5493   5.237   5.613  10.954
 1443W        W 5494   5.688  11.100   3.101
 1444W        W 5495  10.996   6.047   9.856
 1445W        W 5496   1.285   4.808   9.409
 1446W        W 5497   2.325   4.335   8.459
 1447W        W 5498   2.413   2.712  11.559
 1448W        W 5499   5.782   7.107  10.422
 1449W        W 5500   1.293   1.117  11.113
 1450W        W 5501   8.766   4.311   9.196
 1451W        W 5502   7.482   5.199   1.914
 1452W        W 5503   5.171   1.682  11.251
 1453W        W 5504   6.582   6.125  10.050
 1454W        W 5505   6.577   4.522   2.543
 1455W        W 5506   1.189   5.658   1.318
 1456W        W 5507  10.210   0.611   0.121
 1457W        W 5508   3.088   8.939   2.382
 1458W        W 5509   3.403  10.773  10.891
 1459W        W 5510   8.098   4.073   3.139
 1460W        W 5511   3.222   3.565   2.704
 1461W        W 5512   4.699  10.953   9.687
 1462W        W 5513   9.858   0.292  10.336
 1463W        W 5514   5.736   3.396   8.882
 1464W        W 5515   9.081   4.587  10.936
 1465W        W 5516  10.753   1.865   0.860
 1466W        W 5517   5.072   3.755   1.379
 1467W        W 5518   9.109   4.214   8.835
 1468W        W 5519   9.764   5.283   1.258
 1469W        W 5520   9.903   8.106   0.285
 1470W        W 5521  10.474  11.052   3.370
 1471W        W 5522  10.033   2.309   2.908
 1472W        W 5523   1.264   2.456   1.046
 1473W        W 5524   7.090   0.237   1.304
 1474W        W 5525   2.169   2.120  11.016
 1475W        W 5526   7.366   7.091   2.350
 1476W        W 5527  11.496   9.550   2.751
 1477W        W 5528   9.115   6.595   9.101
 1478W        W 5529   3.157   8.894   9.063
 1479W        W 5530   4.091   9.528  10.446
 1480W        W 5531   1.905   2.213   0.437
 1481W        W 5532   4.843  10.584   1.268
 1482W        W 5533   6.171   6.192   3.023
 1483W        W 5534   3.729   5.397  11.776
 1484W        W 5535   0.151   8.920   2.156
 1485W        W 5536   6.198   6.122  11.949
 1486W        W 5537   0.895   6.434   1.906
 1487W        W 5538   5.175   3.651  11.019
 1488W        W 5539   9.323   6.292  11.279
 1489W        W 5540   8.930   3.302  10.450
 1490W        W 5541   4.573   0.268  11.966
 1491W        W 5542   1.774   9.183  11.350
 1492W        W 5543   9.540   0.601   9.430
 1493W        W 5544   9.789   0.856  11.365
 1494W        W 5545  10.450  11.299   1.829
 1495W        W 5546  10.850   1.301  11.089
 1496W        W 5547   3.718   3.374  10.923
 1497W        W 5548   0.411   3.837   2.337
 1498W        W 5549   4.575   0.753   0.792
 1499W        W 5550   9.051   8.094  10.211
 1500W        W 5551  10.695   0.224   0.947
 1501W        W 5552  10.132  10.450   9.947
 1502W        W 5553   8.499  11.314   0.178
 1503W        W 5554   1.064  10.560   2.498
 1504W        W 5555   5.170  11.498   2.690
 1505W        W 5556   5.492   4.043   3.608
 1506W        W 5557   2.013   9.890   9.368
 1507W        W 5558   5.147   1.273   2.588
 1508W        W 5559   6.642   2.652  10.373
 1509W        W 5560   5.171   3.984   3.998
 1510W        W 5561   9.182   6.344   8.626
 1511W        W 5562   8.878   7.426   1.212
 1512W        W 5563  10.573   4.302  10.080
 1513W        W 5564   2.196   9.121  11.950
 1514W        W 5565   8.104   5.020   4.043
 1515W        W 5566   7.553   7.137   1.314
 1516W        W 5567   1.676   6.913   3.257
 1517W        W 5568  11.489   5.980   9.975
 1518W        W 5569   4.430  10.398  11.361
 1519W        W 5570   9.527   9.880   1.379
 1520W        W 5571   5.547   9.601  11.274
 1521W        W 5572   2.787   1.050   1.186
 1522W        W 5573   3.258   2.338   9.320
 1523W        W 5574  11.068   9.396  11.729
 1524W        W 5575   2.271   2.227   0.902
 1525W        W 5576   9.038   6.784   1.956
 1526W        W 5577   7.836   5.745   9.877
 1527W        W 5578  11.100   4.489  10.893
 1528W        W 5579   8.061   4.656   2.193
 1529W        W 5580   7.377   4.660  11.033
 1530W        W 5581   4.250  11.374   2.557
 1531W        W 5582   3.657   6.611   0.264
 1532W        W 5583   6.036   0.822   8.477
 1533W        W 5584  10.920   8.161   0.289
 1534W        W 5585  10.797   1.804  10.506
 1535W        W 5586   9.425   2.628   2.016
 1536W        W 5587   1.611   1.314   9.821
 1537W        W 5588   0.544  10.553   2.379
 1538W        W 5589   9.420   0.093  11.195
 1539W        W 5590   9.972  11.463   9.530
 1540W        W 5591   2.921   5.380   0.234
 1541W        W 5592   3.372   2.602  10.667
 1542W        W 5593   4.331   3.765  11.173
 1543W        W 5594   6.628   2.218   0.970
 1544W        W 5595   2.139   1.772   9.223
 1545W        W 5596   2.207  11.416  11.408
 1546W        W 5597   4.366   0.807   0.318
 1547W        W 5598   9.560   7.950  10.122
 1548W        W 5599   4.945   8.628  10.828
 1549W        W 5600   0.613   5.906   0.693
 1550W        W 5601   3.244   4.290  11.284
 1551W        W 5602   2.217   8.696   2.990
 1552W        W 5603   1.852   0.282   9.513
 1553W        W 5604   6.397   4.026  10.517
 1554W        W 5605   4.114  11.248  10.831
 1555W        W 5606   5.903   6.181   0.829
 1556W        W 5607   0.273   1.618   9.868
 1557W        W 5608   1.385  10.281   1.318
 1558W        W 5609   3.719   6.553   9.399
 1559W        W 5610   1.115   1.793   9.004
 1560W        W 5611   7.914   0.464   1.779
 1561W        W 5612   6.222   8.814  10.047
 1562W        W 5613   8.010   4.163  11.445
 1563W        W 5614   8.606   8.433   1.983
 1564W        W 5615   8.168   6.563   3.195
 1565W        W 5616   9.655   6.985   2.317
 1566W        W 5617   0.697  11.394   0.960
 1567W        W 5618   8.795   8.659   3.744
 1568W        W 5619  11.276   9.046  10.936
 1569W        W 5620   1.313   6.006   0.067
 1570W        W 5621   8.929   6.102   0.539
 1571W        W 5622   8.513   3.407   8.926
 1572W        W 5623   4.769   8.242  11.715
 1573W        W 5624  11.282   9.680   1.749
 1574W        W 5625   6.775   8.074   9.420
 1575W        W 5626   7.119  10.487   9.223
 1576W        W 5627  10.980  10.641  11.364
 1577W        W 5628   5.429   6.217   2.284
 1578W        W 5629   6.300   6.083   2.531
 1579W        W 5630   3.233   8.505  10.424
 1580W        W 5631   2.724   5.534   2.816
 1581W        W 5632   0.378   9.504  11.338
 1582W        W 5633   3.161   6.209   3.416
 1583W        W 5634   0.623   1.504   3.637
 1584W        W 5635   0.324   7.045  11.746
 1585W        W 5636   3.671   3.856  11.818
 1586W        W 5637   9.947  11.489   1.874
 1587W        W 5638  10.409   1.288  11.348
 1588W        W 5639   6.244   7.880   0.402
 1589W        W 5640  11.009  10.051   1.485
 1590W        W 5641  10.821   1.349   9.642
 1591W        W 5642  10.472   6.445  11.976
 1592W        W 5643   0.818   1.148   3.225
 1593W        W 5644   0.908   3.802   2.549
 1594W        W 5645   9.508   2.101   2.568
 1595W        W 5646   3.124   2.057  10.766
 1596W        W 5647   4.528   0.941  10.076
 1597W        W 5648   1.374   2.349   1.905
 1598W        W 5649   8.907   4.672   2.239
 1599W        W 5650   5.788   9.107   9.886
 1600W        W 5651  11.042   9.817   2.274
 1601W        W 5652   8.863   1.751   1.073
 1602W        W 5653   8.014   7.432   1.302
 1603W        W 5654   9.058   7.694   2.838
 1604W        W 5655  10.020   7.017   9.035
 1605W        W 5656   3.380   3.351   1.409
 1606W        W 5657   9.162   7.579  11.874
 1607W        W 5658  10.583   3.616   9.627
 1608W        W 5659   8.128  10.344  11.952
 1609W        W 5660  10.087   8.860   8.866
 1610W        W 5661   6.970   4.667  11.722
 1611W        W 5662   6.610   1.158   9.598
 1612W        W 5663   6.338   8.980   2.684
 1613W        W 5664  10.009   8.920  10.981
 1614W        W 5665   8.333   6.842   0.739
 1615W        W 5666   2.725  11.255   8.752
 1616W        W 5667   2.504   0.057  10.419
 1617W        W 5668   6.579  10.823   1.346
 1618W        W 5669   4.583   9.100  11.909
 1619W        W 5670   9.418   2.889   0.894
 1620W        W 5671   5.030   2.843   3.182
 1621W        W 5672   0.198  10.343   1.449
 1622W        W 5673   9.921   4.840   2.287
 1623W        W 5674  10.094   0.393   9.748
 1624W        W 5675   3.301   9.924   1.344
 1625W        W 5676  10.855   6.446   1.260
 1626W        W 5677   6.118   3.628   1.991
 1627W        W 5678   4.173   4.258  11.205
 1628W        W 5679   0.717  10.822   3.340
 1629W        W 5680   9.373   8.039   1.816
 1630W        W 5681   0.451   6.175  11.769
 1631W        W 5682   4.236  10.080   3.421
 1632W        W 5683   9.475   3.934   2.308
 1633W        W 5684   2.876   2.564  10.524
 1634W        W 5685   0.774   4.175   0.713
 1635W        W 5686   1.806   0.945   8.671
 1636W        W 5687   3.754   3.602  11.389
 1637W        W 5688   2.171   5.702   9.098
 1638W        W 5689   8.108   5.812  10.954
 1639W        W 5690   4.998   9.566   8.932
 1640W        W 5691   3.824   7.540   3.249
 1641W        W 5692   5.636   3.689   2.073
 1642W        W 5693   5.060   3.569   2.736
 1643W        W 5694   0.064   6.689   2.427
 1644W        W 5695  10.447   3.223   2.687
 1645W        W 5696   5.648   7.616   1.948
 1646W        W 5697   6.996   0.674   8.526
 1647W        W 5698   7.997   5.000  10.361
 1648W        W 5699   4.443   1.064  11.039
 1649W        W 5700   2.685   3.273   0.229
 1650W        W 5701   0.454   0.305   3.452
 1651W        W 5702   3.226   3.594  10.546
 1652W        W 5703   3.147   6.040   9.780
 1653W        W 5704   9.923   2.874   1.160
 1654W        W 5705   0.435   8.649  10.078
 1655W        W 5706   7.124   2.855   0.471
 1656W        W 5707   8.094  10.042   2.403
 1657W        W 5708   0.846   8.368  11.239
 1658W        W 5709   6.244   5.238   2.412
 1659W        W 5710   1.919   2.244   1.824
 1660W        W 5711   3.179   5.326   2.498
 1661W        W 5712   5.800   5.017   0.405
 1662W        W 5713   5.214   9.740  11.820
 1663W        W 5714   1.369   5.758   1.790
 1664W        W 5715   2.140   8.976   8.997
 1665W        W 5716  10.546   6.976   9.050
 1666W        W 5717   5.565   7.954   8.700
 1667W        W 5718   4.602   0.802   3.601
 1668W        W 5719   6.432   2.135   9.329
 1669W        W 5720   1.277   7.680   9.006
 1670W        W 5721  11.251   2.829   1.754
 1671W        W 5722   3.470   2.225   2.962
 1672W        W 5723  10.812   3.682   0.941
 1673W        W 5724  11.033   6.195   0.530
 1674W        W 5725   0.897   8.686  10.257
 1675W        W 5726   2.664   0.540  11.251
 1676W        W 5727  11.492   8.171   2.605
 1677W        W 5728   7.300  10.782   2.137
 1678W        W 5729  10.431   0.383   8.951
 1679W        W 5730   5.497   6.741   0.382
 1680W        W 5731   2.697   0.243   0.264
 1681W        W 5732   3.536   3.983   1.994
 1682W        W 5733   9.596   2.918  11.076
 1683W        W 5734   4.572   9.389   9.363
 1684W        W 5735   8.702   5.124   0.415
 1685W        W 5736   5.129   4.064   0.100
 1686W        W 5737   1.699   9.503   9.597
 1687W        W 5738   4.804   1.458  11.530
 1688W        W 5739   5.694   9.442  11.726
 1689W        W 5740   1.824   0.493   1.176
 1690W        W 5741   2.839   3.626   3.026
 1691W        W 5742   9.923   4.783   1.214
 1692W        W 5743   9.062   4.922   2.660
 1693W        W 5744   0.029   9.435   3.267
 1694W        W 5745   4.562   4.800   0.466
 1695W        W 5746  10.664   5.752   3.740
 1696W        W 5747   7.103   9.863   2.243
 1697W        W 5748   6.151   4.882  10.399
 1698W        W 5749  11.017   0.605   0.807
 1699W        W 5750   8.433  10.055  10.353
 1700W        W 5751   2.718   3.680   1.524
 1701W        W 5752   3.818  10.243   0.720
 1702W        W 5753  11.102   0.036  11.787
 1703W        W 5754   4.407   9.369   1.330
 1704W        W 5755   4.678  10.800   1.718
 1705W        W 5756   9.048  11.350  10.476
 1706W        W 5757   4.235   7.787  10.983
 1707W        W 5758   5.548  10.859   1.274
 1708W        W 5759   7.916   3.202  11.618
 1709W        W 5760   5.516   6.828  10.068
 1710W        W 5761  10.110   5.170  10.490
 1711W        W 5762   6.284   3.179   2.197
 1712W        W 5763   8.502   5.228   3.296
 1713W        W 5764  10.819   0.735   0.334
 1714W        W 5765  10.119   6.241  11.687
 1715W        W 5766   8.931   3.562   9.956
 1716W        W 5767   4.804   6.929   2.451
 1717W        W 5768   3.337   8.160  11.816
 1718W        W 5769   1.065   7.926  11.072
 1719W        W 5770   2.225   0.969   3.148
 1720W        W 5771   4.179   8.394   9.459
 1721W        W 5772   8.203   7.984   3.174
 1722W        W 5773   7.854  11.489  10.370
 1723W        W 5774   1.460   3.748   1.190
 1724W        W 5775   7.416   4.755   8.219
 1725W        W 5776   6.171  11.195   9.091
 1726W        W 5777   7.882   5.493   1.734
 1727W        W 5778   5.594   1.716   9.004
 1728W        W 5779   2.768   2.700   1.903
 1729W        W 5780   0.410   4.045   0.385
 1730W        W 5781   2.421   8.589   8.837
 1731W        W 5782   3.827  10.948   8.656
 1732W        W 5783   8.404  10.934  11.850
 1733W        W 5784   9.519   0.104   9.348
 1734W        W 5785   5.561   8.013   3.692
 1735W        W 5786   8.939   9.982   3.000
 1736W        W 5787   0.471   0.353   1.018
 1737W        W 5788   6.286   7.998   0.934
 1738W        W 5789   6.167   4.056   8.155
 1739W        W 5790   5.091   2.573  11.729
 1740W        W 5791   3.098   8.344   3.051
 1741W        W 5792   3.084   5.585   1.259
 1742W        W 5793   0.752  10.476  10.631
 1743W        W 5794   5.347   6.922   3.496
 1744W        W 5795   6.009   4.201   3.644
 1745W        W 5796   8.885   5.079   1.119
 1746W        W 5797   6.199   4.305   0.976
 1747W        W 5798   4.693   3.723  10.818
 1748W        W 5799   6.621   8.010   8.542
 1749W        W 5800   0.981   2.895   0.746
 1750W        W 5801   1.650   3.280   1.932
 1751W        W 5802  10.815   5.494   2.197
 1752W        W 5803   9.444   4.244  10.894
 1753W        W 5804   3.657   6.134   9.721
 1754W        W 5805   3.632   3.564   9.901
 1755W        W 5806   6.330   5.379  10.445
 1756W        W 5807   9.898   4.666   8.807
 1757W        W 5808  10.811   7.565   8.909
 1758W        W 5809   4.267   5.577  10.884
 1759W        W 5810   5.777  10.413   8.909
 1760W        W 5811   5.924   3.779   2.861
 1761W        W 5812   7.212  10.154   0.433
 1762W        W 5813   3.227   9.626   3.574
 1763W        W 5814  11.340   7.980   1.803
 1764W        W 5815   5.705   4.117   0.278
 1765W        W 5816   4.119   6.773   0.193
 1766W        W 5817   6.911   0.716  10.288
 1767W        W 5818  10.422  10.559   0.556
 1768W        W 5819   2.928   2.956  11.902
 1769W        W 5820  10.027   2.598  11.293
 1770W        W 5821   4.464   6.697   3.537
 1771W        W 5822   1.293   8.902   2.387
 1772W        W 5823   2.184   3.308  10.486
 1773W        W 5824   7.943   9.185   9.664
 1774W        W 5825   3.299   4.067   2.818
 1775W        W 5826  11.106   9.479   9.629
 1776W        W 5827   2.769   3.702   8.953
 1777W        W 5828   9.129   8.005   2.250
 1778W        W 5829   7.809   2.862   2.831
 1779W        W 5830   7.474   3.128  10.895
 1780W        W 5831   8.493   0.576   1.182
 1781W        W 5832   6.512   0.827  11.534
 1782W        W 5833   6.531   2.282   2.445
 1783W        W 5834   9.549   8.686  11.384
 1784W        W 5835   3.294   9.833   2.395
 1785W        W 5836   4.607   0.274   1.452
 1786W        W 5837   6.670   1.121  11.936
 1787W        W 5838   5.088   0.971   3.439
 1788W        W 5839   4.490   5.358  10.455
 1789W        W 5840   0.966   8.503   9.386
 1790W        W 5841  10.879   8.598  10.857
 1791W        W 5842   7.161   9.756   1.233
 1792W        W 5843   1.908   2.177   9.892
 1793W        W 5844   6.560   8.294   0.261
 1794W        W 5845   3.395   9.094  11.535
 1795W        W 5846   5.994   7.877  11.028
 1796W        W 5847   6.233   6.460   9.835
 1797W        W 5848   1.163   1.022   0.913
 1798W        W 5849   1.420   3.097   9.917
 1799W        W 5850   1.682   4.607   3.372
 1800W        W 5851   4.059   6.751   2.866
 1801W        W 5852   6.052   1.810   9.525
 1802W        W 5853  10.741   9.103   2.854
 1803W        W 5854   9.762   8.436   8.860
 1804W        W 5855   1.480   8.009   0.039
 1805W        W 5856   9.487   6.578   1.055
 1806W        W 5857   9.247   4.544   3.526
 1807W        W 5858   0.693   6.699  11.829
 1808W        W 5859   2.612  10.585  11.408
 1809W        W 5860   3.705   2.165   9.104
 1810W        W 5861  10.857  10.930   9.821
 1811W        W 5862  10.936   6.658   3.161
 1812W        W 5863   8.006  10.110  10.086
 1813W        W 5864   4.690  10.906   3.318
 1814W        W 5865   1.459   9.659   0.043
 1815W        W 5866   9.524   2.666   1.458
 1816W        W 5867   4.258  10.796  10.599
 1817W        W 5868   9.229   5.147  10.717
 1818W        W 5869   3.230   3.827  11.541
 1819W        W 5870   5.689   4.269   9.994
 1820W        W 5871   4.173   9.951  10.157
 1821W        W 5872   1.214   9.059   2.856
 1822W        W 5873   2.596  10.067   2.969
 1823W        W 5874   6.574   9.514   9.222
 1824W        W 5875   1.618   5.576   0.448
 1825W        W 5876   8.904   4.160   9.682
 1826W        W 5877   9.998   7.136   2.720
 1827W        W 5878   2.467   5.319   1.012
 1828W        W 5879   4.172   3.164  11.048
 1829W        W 5880   1.397   5.781   9.646
 1830W        W 5881   1.231   2.881   3.469
 1831W        W 5882   1.697   6.644  10.962
 1832W        W 5883   1.344  10.834   9.340
 1833W        W 5884   4.100   5.177  11.511
 1834W        W 5885   0.578  10.341   8.932
 1835W        W 5886   4.880   5.935   9.819
 1836W        W 5887   1.355   3.793   1.854
 1837W        W 5888   0.299   3.533   9.932
 1838W        W 5889  10.024   0.502   8.660
 1839W        W 5890   9.529   1.971   9.010
 1840W        W 5891   4.622   3.212   0.267
 1841W        W 5892   9.126   0.380   9.636
 1842W        W 5893   3.574   4.238   3.249
 1843W        W 5894   8.524   5.380  10.937
 1844W        W 5895   5.621   8.529   1.661
 1845W        W 5896  10.037   2.700   9.367
 1846W        W 5897  10.203   3.412  10.870
 1847W        W 5898   8.121   9.614   8.817
 1848W        W 5899   0.763   8.218   2.237
 1849W        W 5900   0.698   8.072   9.275
 1850W        W 5901   9.098   6.706   2.914
 1851W        W 5902   8.618  10.279   0.260
 1852W        W 5903   6.541   2.623  11.224
 1853W        W 5904   0.221   5.879   1.456
 1854W        W 5905   1.816   2.801   1.203
 1855W        W 5906   3.468   8.436   1.652
 1856W        W 5907   3.820   4.821  10.839
 1857W        W 5908   8.175   2.605   8.428
 1858W        W 5909   1.539  11.027   0.839
 1859W        W 5910   6.731   9.918   0.362
 1860W        W 5911   5.880   6.217  11.507
 1861W        W 5912   4.644  11.293   2.876
 1862W        W 5913   7.179   9.425   1.936
 1863W        W 5914  10.617  11.370  11.812
 1864W        W 5915   2.007   6.262  11.809
 1865W        W 5916   7.454   3.337   1.576
 1866W        W 5917   5.774   4.096   3.203
 1867W        W 5918   8.073  10.818   1.728
 1868W        W 5919   2.441  10.875  10.890
 1869W        W 5920  11.295   4.285   2.999
 1870W        W 5921   7.188   2.658   9.422
 1871W        W 5922   9.260   0.730   1.894
 1872W        W 5923   7.229   3.281   3.046
 1873W        W 5924   2.148   3.794   3.349
 1874W        W 5925  10.370   3.370  10.020
 1875W        W 5926   1.348   9.191   1.969
 1876W        W 5927   3.590   2.124   8.616
 1877W        W 5928  10.279   3.898   9.926
 1878W        W 5929   6.960   5.485   2.012
 1879W        W 5930   4.504   2.715   1.007
 1880W        W 5931   6.315   3.652   1.508
 1881W        W 5932   8.330  10.813   9.463
 1882W        W 5933   4.744   5.214   0.763
 1883W        W 5934   7.063   4.553   1.715
 1884W        W 5935  11.058  11.283   0.247
 1885W        W 5936   9.725   5.908  11.728
 1886W        W 5937   6.688  10.386   9.462
 1887W        W 5938   5.251  10.930   8.970
 1888W        W 5939   6.294   2.349   1.341
 1889W        W 5940   4.583   0.469   2.305
 1890W        W 5941   0.415   2.732  10.590
 1891W        W 5942  10.892   1.992   2.718
 1892W        W 5943   6.375   6.138   1.010
 1893W        W 5944   1.895  10.152   1.982
 1894W        W 5945   1.138   0.881   9.098
 1895W        W 5946   3.507   9.498   9.632
 1896W        W 5947  10.534   2.752   2.387
 1897W        W 5948   1.193   8.013   9.421
 1898W        W 5949   0.386   0.825   2.421
 1899W        W 5950   1.699   5.554   1.423
 1900W        W 5951   3.170   8.881   3.121
 1901W        W 5952  10.034   5.019  10.006
 1902W        W 5953   2.066   1.744   1.708
 1903W        W 5954   8.412   3.275  10.433
 1904W        W 5955   3.781   3.098  11.369
 1905W        W 5956   9.058   6.085   9.056
 1906W        W 5957  11.212   5.720  11.215
 1907W        W 5958   1.783   4.596   1.548
 1908W        W 5959   8.735   2.502   2.821
 1909W        W 5960  11.411  10.541  11.100
 1910W        W 5961  10.014   2.633  10.331
 1911W        W 5962   8.253   0.916  10.380
 1912W        W 5963   5.542   2.111   2.551
 1913W        W 5964   5.622   0.363   9.641
 1914W        W 5965  10.976   5.218  11.448
 1915W        W 5966  10.091   3.627   9.501
 1916W        W 5967   0.278   7.271   2.961
 1917W        W 5968   3.225  11.292   1.543
 1918W        W 5969   6.724   6.134   8.692
 1919W        W 5970   1.450   7.063   8.436
 1920W        W 5971  11.302   5.817   9.148
 1921W        W 5972  10.114   6.064   2.219
 1922W        W 5973   5.113  10.328   2.266
 1923W        W 5974   0.420   9.754   3.427
 1924W        W 5975   9.193   9.574   0.306
 1925W        W 5976   8.965  10.470   2.196
 1926W        W 5977   1.768   8.924   1.822
 1927W        W 5978   2.239   2.800  10.129
 1928W        W 5979   4.125   4.221   1.556
 1929W        W 5980   2.358   1.949   3.569
 1930W        W 5981   4.147   3.321  10.079
 1931W        W 5982   0.203   1.451   1.685
 1932W        W 5983   8.468  10.706   2.729
 1933W        W 5984   4.632   3.868   2.801
 1934W        W 5985   6.595   8.450  10.241
 1935W        W 5986   3.002  10.437  10.144
 1936W        W 5987   3.247   1.866   9.070
 1937W        W 5988   9.667  10.907   0.682
 1938W        W 5989   3.494   8.006   0.917
 1939W        W 5990   5.429   7.826   9.190
 1940W        W 5991   4.057   2.594   2.450
 1941W        W 5992   7.657  11.025   0.469
 1942W        W 5993   3.613   2.120   0.223
 1943W        W 5994   6.561   1.251   9.077
 1944W        W 5995   8.052   8.337   2.809
 1945W        W 5996   0.914   0.377   2.292
 1946W        W 5997   6.992   3.355   0.582
 1947W        W 5998   4.201   9.085   1.705
 1948W        W 5999   3.436   0.445   3.757
 1949W        W 6000   3.705   3.562   1.753
 1950W        W 6001   9.922   4.749  10.780
 1951W        W 6002   7.208   1.870   2.697
 1952W        W 6003   8.689   3.655  11.307
 1953W        W 6004  11.384   9.917   9.342
 1954W        W 6005   9.819   0.188   1.048
 1955W        W 6006   1.453   5.118   2.113
 1956W        W 6007   2.446   6.130   8.858
 1957W        W 6008   3.387   9.490   0.396
 1958W        W 6009   8.596   5.234  11.911
 1959W        W 6010   5.992   6.073  10.984
 1960W        W 6011  10.577   3.371   0.233
 1961W        W 6012   3.135  11.354  11.152
 1962W        W 6013   8.707   8.815   1.223
 1963W        W 6014   1.782   5.980   2.202
 1964W        W 6015   1.842  10.817   9.171
 1965W        W 6016  11.261   9.782  11.463
 1966W        W 6017   5.260   9.034   0.687
 1967W        W 6018  10.475  11.401  10.935
 1968W        W 6019  11.405   7.473   1.714
 1969W        W 6020   9.986   5.601   0.028
 1970W        W 6021   1.315   1.399   3.156
 1971W        W 6022   4.809   1.712  11.985
 1972W        W 6023   6.529   7.555   0.965
 1973W        W 6024   4.970   6.562   3.514
 1974W        W 6025   3.854   3.149   1.475
 1975W        W 6026   7.153   8.861  11.094
 1976W        W 6027   3.274   2.674   1.741
 1977W        W 6028   2.261   7.902   1.219
 1978W        W 6029   3.691   0.309   3.209
 1979W        W 6030   4.141  11.208  10.312
 1980W        W 6031  10.423   5.218  11.449
 1981W        W 6032   2.740   8.940   0.787
 1982W        W 6033  10.805   3.246   9.332
 1983W        W 6034   3.966   7.138   9.272
 1984W        W 6035   3.869   3.393  11.842
 1985W        W 6036  11.434   3.127   9.976
 1986W        W 6037   2.233   8.917  11.420
 1987W        W 6038   6.234  10.810  10.721
 1988W        W 6039   2.203   2.227  11.504
 1989W        W 6040   3.286   9.028  10.672
 1990W        W 6041   1.291   5.291   1.650
 1991W        W 6042   9.764   4.608  10.168
 1992W        W 6043   3.823   8.055   8.428
 1993W        W 6044   8.044  10.451   2.067
 1994W        W 6045   6.942   8.439   0.586
 1995W        W 6046   5.555   2.388   9.761
 1996W        W 6047   0.677   5.999   1.217
 1997W        W 6048   1.691   6.659  11.955
 1998W        W 6049   6.025   8.852   1.702
 1999W        W 6050   0.599   1.829   9.044
 2000W        W 6051   2.792   1.120  10.417
 2001W        W 6052   6.084   0.431   2.307
 2002W        W 6053   8.564   9.757   1.622
 2003W        W 6054  11.387   0.896  11.846
 2004W        W 6055   7.222   7.940   9.885
 2005W        W 6056   8.654  10.019  10.980
 2006W        W 6057   3.316   2.293   9.826
 2007W        W 6058   1.816   6.443   1.940
 2008W        W 6059   3.682   8.942   8.953
 2009W        W 6060   2.237   3.695  11.306
 2010W        W 6061  10.062   0.273   1.485
 2011W        W 6062   8.149   1.535  11.302
 2012W        W 6063   2.918   1.855  11.253
 2013W        W 6064   8.393   9.551   0.018
 2014W        W 6065   0.250   8.061   9.537
 2015W        W 6066   2.688   3.446   8.519
 2016W        W 6067   1.197   9.523   3.066
 2017W        W 6068  10.817   7.001  10.789
 2018W        W 6069   3.835   7.499   0.257
 2019W        W 6070   1.998   7.715   3.196
 2020W        W 6071   1.803   1.345   2.064
 2021W        W 6072   9.387   9.421  11.843
 2022W        W 6073   1.609  10.532   1.753
 2023W        W 6074   8.002  11.430   0.935
 2024W        W 6075   8.570   0.605   2.297
 2025W        W 6076   4.274   4.537  11.699
 2026W        W 6077   2.420   7.437   4.101
 2027W        W 6078   9.482   9.860   8.964
 2028W        W 6079   8.107   5.310   3.630
 2029W        W 6080   9.511  11.066  11.242
 2030W        W 6081   8.903   3.641  10.832
 2031W        W 6082   6.124   9.476   0.805
 2032W        W 6083   2.630  10.881   0.211
 2033W        W 6084  10.542   0.397   3.092
 2034W        W 6085   1.550   2.418   0.095
 2035W        W 6086  10.886   1.175   8.637
 2036W        W 6087   9.095  11.285   2.176
 2037W        W 6088   8.145   7.564   1.839
 2038W        W 6089   3.072   1.491   3.338
 2039W        W 6090   2.305   4.922   3.868
 2040W        W 6091   0.218   6.857  10.141
 2041W        W 6092  10.424   6.943   0.048
 2042W        W 6093  10.881   6.126  11.166
 2043W        W 6094   1.752   2.770   3.317
 2044W        W 6095  10.064   2.724   8.845
 2045W        W 6096   4.799  10.090   1.409
 2046W        W 6097   5.701  11.356   8.939
 2047W        W 6098   2.786   4.557   1.456
 2048W        W 6099   4.453  11.276  11.946
 2049W        W 6100   8.982   9.465  10.259
 2050W        W 6101   3.031   7.821   0.758
 2051W        W 6102   5.661   8.124   1.945
 2052W        W 6103   6.421   3.327   9.321
 2053W        W 6104   1.081   2.320   1.503
 2054W        W 6105   5.453   5.856   0.175
 2055W        W 6106   8.899   5.906  11.414
 2056W        W 6107  11.463   6.722   0.864
 2057W        W 6108   6.760  10.378   1.548
 2058W        W 6109   4.329   6.472   1.002
 2059W        W 6110  10.782   5.103   1.410
 2060W        W 6111   0.368  10.376   9.895
 2061W        W 6112   6.973   3.800   2.311
 2062W        W 6113   4.008   7.920   0.961
 2063W        W 6114   5.570   3.277   1.659
 2064W        W 6115  11.262   0.405  11.114
 2065W        W 6116   1.797  10.409   2.918
 2066W        W 6117   0.999   9.922   1.318
 2067W        W 6118  10.442   8.978  11.266
 2068W        W 6119   9.727   8.168   9.532
 2069W        W 6120   1.893   2.518  11.751
 2070W        W 6121   5.975   6.224   8.977
 2071W        W 6122   0.666   1.627   1.855
 2072W        W 6123   2.216  11.328  10.891
 2073W        W 6124   4.276  10.315   2.421
 2074W        W 6125   5.259   9.647   4.062
 2075W        W 6126   3.019   8.677   8.192
 2076W        W 6127   2.857   2.927  10.921
 2077W        W 6128   7.411   2.996  11.752
 2078W        W 6129   5.455   4.652   0.373
 2079W        W 6130   1.847   0.217   3.251
 2080W        W 6131  10.875   5.955   2.415
 2081W        W 6132   6.964   9.900  11.467
 2082W        W 6133   5.784   4.773  10.011
 2083W        W 6134  11.466   5.080   1.823
 2084W        W 6135   8.167   2.848   8.955
 2085W        W 6136   4.156   3.043   2.697
 2086W        W 6137   3.555  11.044   0.360
 2087W        W 6138   2.363   9.163   3.266
 2088W        W 6139   1.688   1.861   0.787
 2089W        W 6140   0.288   9.910  10.684
 2090W        W 6141  10.420   5.444   9.294
 2091W        W 6142  10.855   9.540  10.656
 2092W        W 6143   1.408   1.759  11.256
 2093W        W 6144   9.224   3.895   1.839
 2094W        W 6145   2.595   3.223   1.741
 2095W        W 6146   8.545   1.839   9.493
 2096W        W 6147   8.195  11.100  10.444
 2097W        W 6148   8.211   5.068   0.478
 2098W        W 6149   2.397   5.329   0.020
 2099W        W 6150   3.172   7.928   1.301
 2100W        W 6151   3.664   7.571   9.203
 2101W        W 6152   1.309   9.399   2.440
 2102W        W 6153   7.572  10.421   8.972
 2103W        W 6154   0.049   0.580   9.810
 2104W        W 6155  10.399   2.366   0.294
 2105W        W 6156  11.070   5.993  11.627
 2106W        W 6157   1.892   3.177   9.122
 2107W        W 6158  10.040   6.164   9.895
 2108W        W 6159   6.108  10.836   2.977
 2109W        W 6160   0.055   2.726   2.170
 2110W        W 6161   7.119   7.038  11.486
 2111W        W 6162   0.051   3.327  11.317
 2112W        W 6163   5.720   0.757   2.159
 2113W        W 6164   0.186   3.197  11.879
 2114W        W 6165   3.900   1.032  11.406
 2115W        W 6166   1.905   0.242  10.876
 2116W        W 6167   6.027   4.383  10.341
 2117W        W 6168   9.337   7.590   8.819
 2118W        W 6169   3.281   5.140   9.618
 2119W        W 6170   3.416   3.326   3.128
 2120W        W 6171   3.599   9.299  10.267
 2121W        W 6172  10.130   0.302   2.824
 2122W        W 6173   3.985   8.899   9.430
 2123W        W 6174   5.395   8.099   4.195
 2124W        W 6175   2.157   8.402   2.141
 2125W        W 6176  10.385   6.487   2.435
 2126W        W 6177   8.202   9.958   0.287
 2127W        W 6178  11.273   3.941   1.034
 2128W        W 6179   0.878   7.383   1.722
 2129W        W 6180  10.393   6.692   1.352
 2130W        W 6181   1.869   9.690  11.338
 2131W        W 6182   3.261   2.253  10.323
 2132W        W 6183   8.543   2.672   3.644
 2133W        W 6184   4.601   2.379   9.587
 2134W        W 6185   3.190   9.387  11.924
 2135W        W 6186   2.112   5.617   0.338
 2136W        W 6187  10.053   1.158   2.598
 2137W        W 6188   1.027   3.708   1.484
 2138W        W 6189   9.521   9.777  10.827
 2139W        W 6190   0.821   6.240  10.404
 2140W        W 6191  10.173   0.850   9.018
 2141W        W 6192   9.220   1.334   3.178
 2142W        W 6193   9.302   8.246  11.430
 2143W        W 6194   1.882   1.947   1.268
 2144W        W 6195   4.350   4.395   0.199
 2145W        W 6196   8.654   1.762   0.392
 2146W        W 6197   9.770   6.749   1.857
 2147W        W 6198   1.678   9.428   1.649
 2148W        W 6199   4.509   8.378  10.024
 2149W        W 6200   3.798   9.710   8.754
 2150W        W 6201   3.603   0.254   2.283
 2151W        W 6202   0.435   8.871   9.250
 2152W        W 6203   2.449   3.328   3.153
 2153W        W 6204   5.086   2.984   9.940
 2154W        W 6205   5.151   8.630   3.134
 2155W        W 6206   1.448   1.760  11.757
 2156W        W 6207  10.032  10.489  11.822
 2157W        W 6208   4.572   4.196   3.389
 2158W        W 6209   4.104   2.554   0.733
 2159W        W 6210   8.285   3.673   1.897
 2160W        W 6211   0.564  10.376   1.898
 2161W        W 6212   7.876   4.091   9.338
 2162W        W 6213   0.775   3.738   9.084
 2163W        W 6214   7.033   3.360  11.030
 2164W        W 6215   1.631  10.583  10.403
 2165W        W 6216   6.508   4.800   1.043
 2166W        W 6217   5.273   1.156   9.537
 2167W        W 6218   0.100   7.050   1.247
 2168W        W 6219   2.215  11.303   2.313
 2169W        W 6220   7.054   0.377   9.408
 2170W        W 6221   2.721   5.675  11.763
 2171W        W 6222   5.606   9.461   2.158
 2172W        W 6223   0.807   4.812  10.948
 2173W        W 6224   1.701   8.050  10.059
 2174W        W 6225   2.517   8.974   1.542
 2175W        W 6226   9.615   8.466   1.674
 2176W        W 6227   8.417   2.339   3.229
 2177W        W 6228   7.048   9.745   0.734
 2178W        W 6229   9.617   7.412  11.700
 2179W        W 6230  11.231   6.070   1.478
 2180W        W 6231  10.583   6.143   2.055
 2181W        W 6232   7.680   0.661   9.294
 2182W        W 6233   1.537   9.506  10.988
 2183W        W 6234  10.021   1.726   2.198
 2184W        W 6235   3.221   6.082   1.277
 2185W        W 6236   3.802   9.249  11.262
 2186W        W 6237   5.079   5.533   0.263
 2187W        W 6238   8.639   3.746  10.391
 2188W        W 6239   0.938   9.756  11.407
 2189W        W 6240   9.906   8.763   2.378
 2190W        W 6241  11.033   3.183   0.991
 2191W        W 6242   9.791   7.528   9.063
 2192W        W 6243  10.842   7.490  10.953
 2193W        W 6244   5.506   4.199   9.542
 2194W        W 6245   7.064   7.494  11.244
 2195W        W 6246   1.811   0.489   1.717
 2196W        W 6247   9.248   0.743  10.692
 2197W        W 6248   3.727   3.264   1.004
 2198W        W 6249   8.361   6.328   0.722
 2199W        W 6250   1.787   9.032   9.793
 2200W        W 6251   3.140   0.245   0.051
 2201W        W 6252   1.370   7.065   0.064
 2202W        W 6253   2.830   7.969  10.981
 2203W        W 6254  10.445  11.394   2.978
 2204W        W 6255   0.798   9.943  10.037
 2205W        W 6256   6.496  10.005   1.811
 2206W        W 6257   6.514   0.896   3.384
 2207W        W 6258   7.676   6.332   1.222
 2208W        W 6259   7.895   5.601   0.206
 2209W        W 6260   9.408   3.754  10.804
 2210W        W 6261  10.494   6.936   2.681
 2211W        W 6262   2.354   8.444   0.242
 2212W        W 6263   5.132   7.134   1.665
 2213W        W 6264   8.537  11.333  11.196
 2214W        W 6265   5.514  10.262   3.291
 2215W        W 6266  10.456   2.755  11.893
 2216W        W 6267   6.632   0.949  11.039
 2217W        W 6268  11.018   1.362   2.928
 2218W        W 6269   7.637   3.043   3.284
 2219W        W 6270   8.913   4.247  11.646
 2220W        W 6271   1.566  10.228   0.166
 2221W        W 6272  10.493   3.641   1.903
 2222W        W 6273  11.116   9.922  10.869
 2223W        W 6274   7.541   6.278  11.549
 2224W        W 6275   4.586   9.350   0.710
 2225W        W 6276  10.283  11.156   9.220
 2226W        W 6277   5.428   3.741   3.048
 2227W        W 6278   5.621   4.838   0.854
 2228W        W 6279   0.505   0.728  10.027
 2229W        W 6280   1.499   8.650   0.541
 2230W        W 6281   7.441   5.801  11.504
 2231W        W 6282   0.442   3.560  11.631
 2232W        W 6283  10.266   3.611   3.346
 2233W        W 6284   1.465   3.493   8.980
 2234W        W 6285  10.631   7.502  10.254
 2235W        W 6286  10.835   9.041   9.542
 2236W        W 6287   3.536   4.658   0.154
 2237W        W 6288  10.537  10.560   2.330
 2238W        W 6289   6.646   6.309   9.560
 2239W        W 6290   6.153   0.623   0.337
 2240W        W 6291   6.477   7.526  10.513
 2241W        W 6292   5.222   3.550   9.085
 2242W        W 6293   4.674   2.446   1.432
 2243W        W 6294   4.044   4.789   0.298
 2244W        W 6295  10.897   6.946  11.438
 2245W        W 6296   8.141   5.919   1.550
 2246W        W 6297  10.500   4.075  11.370
 2247W        W 6298   6.742   9.723  10.086
 2248W        W 6299   8.414   3.522   9.979
 2249W        W 6300   3.344   9.355   1.290
 2250W        W 6301   8.203   1.205   9.968
 2251W        W 6302   9.753   6.051  10.319
 2252W        W 6303   2.646   1.221   3.233
 2253W        W 6304   4.277   7.252   0.292
 2254W        W 6305   3.744   1.822  10.964
 2255W        W 6306   1.767   3.727   2.613
 2256W        W 6307   8.029   9.764   0.836
 2257W        W 6308  11.290   7.260  11.000
 2258W        W 6309  10.443   7.852   2.696
 2259W        W 6310   9.418   8.497  10.439
 2260W        W 6311   6.685  10.222   9.973
 2261W        W 6312   7.094   5.143  11.822
 2262W        W 6313   2.353   9.480   2.192
 2263W        W 6314   4.255   8.534   2.917
 2264W        W 6315  10.416   7.991   0.147
 2265W        W 6316   5.645   7.144   2.148
 2266W        W 6317   2.895   7.244  10.274
 2267W        W 6318   3.816   4.623   9.070
 2268W        W 6319   0.350   0.980  10.510
 2269W        W 6320  11.266   3.674   9.942
 2270W        W 6321   6.301   3.203   2.729
 2271W        W 6322   1.217   8.788  11.929
 2272W        W 6323   3.521   8.467   2.243
 2273W        W 6324   0.041  10.039  11.124
 2274W        W 6325   0.362   6.347   9.256
 2275W        W 6326   3.807  10.521   2.486
 2276W        W 6327   1.961   4.323  11.927
 2277W        W 6328   7.954   1.442   2.598
 2278W        W 6329   2.196  10.814  10.041
 2279W        W 6330   1.242  10.945  11.860
 2280W        W 6331   7.638   4.493   0.999
 2281W        W 6332   4.528   0.633   9.050
 2282W        W 6333   7.736   8.493  10.904
 2283W        W 6334   3.435   1.771  10.468
 2284W        W 6335   8.574   8.178  10.496
 2285W        W 6336   3.301   0.220   8.291
 2286W        W 6337   6.201   6.998  11.453
 2287W        W 6338   0.489   8.118   1.686
 2288W        W 6339   4.459   0.373   3.342
 2289W        W 6340   6.341   6.850   2.712
 2290W        W 6341   2.447   6.636   0.182
 2291W        W 6342   2.967   5.106  10.024
 2292W        W 6343   5.925  10.981   0.968
 2293W        W 6344   9.015   9.154   0.058
 2294W        W 6345   0.581  11.480   2.291
 2295W        W 6346   8.647   0.273   3.370
 2296W        W 6347   4.568  10.411  10.849
 2297W        W 6348   4.218   7.661   2.751
 2298W        W 6349   1.689   9.009   8.752
 2299W        W 6350   5.477   0.238   0.893
 2300W        W 6351   5.300   6.877  11.312
 2301W        W 6352  10.257   9.906   2.667
 2302W        W 6353   2.596   8.534  11.555
 2303W        W 6354  10.937   4.329  11.346
 2304W        W 6355   1.481   2.874   0.829
 2305W        W 6356   3.095  11.297   9.698
 2306W        W 6357   7.576   7.537   9.410
 2307W        W 6358   6.630   2.002   0.046
 2308W        W 6359   8.402   5.515   1.693
 2309W        W 6360   2.164  10.016  10.386
 2310W        W 6361   2.792   7.110   0.201
 2311W        W 6362   2.329   7.617   2.797
 2312W        W 6363  11.437   7.683   2.194
 2313W        W 6364   2.711   6.034   9.522
 2314W        W 6365   6.128   0.922   2.478
 2315W        W 6366   0.045   2.651   1.365
 2316W        W 6367   7.360   0.364  11.947
 2317W        W 6368   4.517  10.431   9.842
 2318W        W 6369   9.438   5.605   1.563
 2319W        W 6370   5.662   9.961   9.931
 2320W        W 6371  10.936   0.355   8.892
 2321W        W 6372   6.261   8.469   2.674
 2322W        W 6373   6.938   5.992   1.751
 2323W        W 6374   8.516   9.415   9.077
 2324W        W 6375   6.749   8.981   8.340
 2325W        W 6376   8.376  11.129   1.143
 2326W        W 6377   6.446   3.824   0.758
 2327W        W 6378   5.640   6.915   3.062
 2328W        W 6379   8.055   6.490   2.248
 2329W        W 6380   9.474  11.478   2.437
 2330W        W 6381   1.930   4.606  11.449
 2331W        W 6382   6.600   2.708   1.171
 2332W        W 6383   1.923   7.610   1.464
 2333W        W 6384   4.600   8.028  11.284
 2334W        W 6385  10.651   9.199   0.989
 2335W        W 6386   6.392   4.374  11.375
 2336W        W 6387   3.265   1.797   0.410
 2337W        W 6388   9.019   6.755   3.786
 2338W        W 6389   1.779   8.685   1.344
 2339W        W 6390   7.450   4.648   0.534
 2340W        W 6391   3.023   0.497   2.007
 2341W        W 6392   0.750   6.709   3.482
 2342W        W 6393   8.007   5.094   0.954
 2343W        W 6394   3.711   3.083  10.099
 2344W        W 6395   9.688   6.193   0.625
 2345W        W 6396   7.804   3.776   8.945
 2346W        W 6397   2.997   9.685   9.598
 2347W        W 6398   8.102  10.925   0.246
 2348W        W 6399  10.406   5.665   1.404
 2349W        W 6400   6.091   0.489   0.872
 2350W        W 6401   0.047   2.290   0.987
 2351W        W 6402   5.741   0.862   0.072
 2352W        W 6403   9.819   4.258  11.957
 2353W        W 6404   0.241   6.779   2.927
 2354W        W 6405   0.188  11.002   9.458
 2355W        W 6406   5.490   3.219  10.774
 2356W        W 6407   2.136   6.846  11.241
 2357W        W 6408   4.106   0.502   2.984
 2358W        W 6409   2.757   5.581   2.290
 2359W        W 6410  10.851   6.524   2.246
 2360W        W 6411   8.405   2.376  10.488
 2361W        W 6412   6.269   5.231   0.532
 2362W        W 6413   8.892   7.948   1.229
 2363W        W 6414  10.872   7.244  11.967
 2364W        W 6415   5.067   2.284   8.656
 2365W        W 6416   5.857   6.811   0.029
 2366W        W 6417   3.660   5.619   1.194
 2367W        W 6418   2.807  10.022   2.458
 2368W        W 6419   7.647   9.959   1.352
 2369W        W 6420   8.135   5.830   2.065
 2370W        W 6421   7.629   2.910  10.400
 2371W        W 6422   9.118   4.106   1.365
 2372W        W 6423   6.176   4.092  11.000
 2373W        W 6424   7.753   3.440   2.949
 2374W        W 6425   6.073   9.605  11.326
 2375W        W 6426  10.426   1.138  10.838
 2376W        W 6427   7.775   4.409   3.393
 2377W        W 6428   6.296   6.562   1.335
 2378W        W 6429  10.919   2.832   3.051
 2379W        W 6430   7.241   6.551  11.896
 2380W        W 6431   7.978   2.116   3.442
 2381W        W 6432   0.382   3.168  10.292
 2382W        W 6433   0.092  11.334   2.353
 2383W        W 6434   1.707   1.654   8.550
 2384W        W 6435   4.093   3.970   0.076
 2385W        W 6436   8.504   4.671   1.929
 2386W        W 6437   9.639   2.061   3.128
 2387W        W 6438   0.878   5.530   0.940
 2388W        W 6439   7.920   3.262  10.641
 2389W        W 6440   3.216   7.956   2.723
 2390W        W 6441   1.792   5.526   1.951
 2391W        W 6442   2.877  10.544   2.293
 2392W        W 6443   5.463   3.779  10.019
 2393W        W 6444   0.084   6.975   0.397
 2394W        W 6445   1.612   7.560   8.610
 2395W        W 6446   6.798   2.336   3.276
 2396W        W 6447   8.489   1.290   0.190
 2397W        W 6448   1.841   2.748   1.730
 2398W        W 6449   3.638   1.800   0.844
 2399W        W 6450   4.575  11.291   1.647
 2400W        W 6451   0.929   5.514   1.945
 2401W        W 6452   5.395   7.032   2.587
 2402W        W 6453   7.089  10.837  11.691
 2403W        W 6454  10.795   8.513  11.383
 2404W        W 6455   9.878   7.061  11.034
 2405W        W 6456   4.695   1.751  11.091
 2406W        W 6457   9.999   6.579   0.888
 2407W        W 6458   2.889   5.092   9.054
 2408W        W 6459  10.789   4.617  10.448
 2409W        W 6460   0.305   6.278  10.271
 2410W        W 6461   3.246   6.908   0.261
 2411W        W 6462   6.149   1.539   0.707
 2412W        W 6463   1.829   7.126  11.790
 2413W        W 6464   0.755   9.402   1.721
 2414W        W 6465   4.056   1.797   9.750
 2415W        W 6466   7.392  10.842  10.957
 2416W        W 6467   0.709   0.469   0.322
 2417W        W 6468  11.178   6.898   2.178
 2418W        W 6469   5.209   2.648  11.243
 2419W        W 6470   6.556  10.502  11.710
 2420W        W 6471   9.930   6.977   8.492
 2421W        W 6472   3.341   3.607   0.942
 2422W        W 6473   8.006   1.874   9.601
 2423W        W 6474   1.371   9.835   2.201
 2424W        W 6475   9.895   7.050   9.990
 2425W        W 6476   5.387   1.180   0.325
 2426W        W 6477   6.936  10.837  11.179
 2427W        W 6478   5.434   4.314  10.427
 2428W        W 6479   1.897   7.074  10.801
 2429W        W 6480   2.236   8.067   3.517
 2430W        W 6481   5.365   2.254   0.355
 2431W        W 6482   8.898   0.005   0.531
 2432W        W 6483   8.991   5.534  11.077
 2433W        W 6484   1.821   1.157   2.898
 2434W        W 6485   2.809   5.944   0.957
 2435W        W 6486   4.267   3.855   1.879
 2436W        W 6487  10.330   9.349  10.901
 2437W        W 6488  10.097   1.409   3.046
 2438W        W 6489   8.866  10.785   9.893
 2439W        W 6490  10.868   9.913   9.465
 2440W        W 6491  10.030   4.914   1.725
 2441W        W 6492   0.583   0.453   2.755
 2442W        W 6493   8.178   9.753   2.840
 2443W        W 6494   2.235   6.691  10.045
 2444W        W 6495   0.892  10.830   1.448
 2445W        W 6496   2.705   1.461  10.018
 2446W        W 6497   9.905   9.269   8.623
 2447W        W 6498   6.593   7.902   1.362
 2448W        W 6499   0.315   4.621   3.380
 2449W        W 6500   8.380   9.206  10.574
 2450W        W 6501   3.222   3.122   0.888
 2451W        W 6502  10.887  11.439  10.015
 2452W        W 6503   8.596   5.578   9.504
 2453W        W 6504  10.605   8.969   9.976
 2454W        W 6505   1.261   1.526   0.963
 2455W        W 6506   8.477  10.374   2.327
 2456W        W 6507  11.161   5.604   3.127
 2457W        W 6508   5.990   6.689  10.220
 2458W        W 6509   7.351   3.257   1.069
 2459W        W 6510   9.553   4.617   9.215
 2460W        W 6511   3.587   5.063  11.392
 2461W        W 6512   2.911  10.550   0.513
 2462W        W 6513   6.124   1.029  11.259
 2463W        W 6514   5.633   8.796   3.246
 2464W        W 6515   2.737   0.478   0.712
 2465W        W 6516   8.472   7.624   1.439
 2466W        W 6517   3.170   4.250   1.726
 2467W        W 6518   0.112   0.388   3.014
 2468W        W 6519   8.298   5.533   4.049
 2469W        W 6520   1.628   9.384   2.827
 2470W        W 6521  10.714   1.259   0.128
 2471W        W 6522   6.661   5.279   0.882
 2472W        W 6523   2.209   9.506   9.683
 2473W        W 6524   1.348   6.139   2.981
 2474W        W 6525   1.915   4.649   2.923
 2475W        W 6526   8.921   5.893   9.779
 2476W        W 6527   2.211   6.646   2.651
 2477W        W 6528  11.073   8.643   3.176
 2478W        W 6529   8.503   4.136  11.347
 2479W        W 6530   3.129   5.070   2.955
 2480W        W 6531   3.672   9.824  10.297
 2481W        W 6532   7.838   0.306  11.763
 2482W        W 6533   6.185  10.778   9.421
 2483W        W 6534  10.554   8.185   2.301
 2484W        W 6535   5.272  11.466   2.182
 2485W        W 6536   0.537   5.012   0.263
 2486W        W 6537   3.330   4.221  11.857
 2487W        W 6538   3.907   1.740  10.289
 2488W        W 6539   3.664   0.245   0.872
 2489W        W 6540   3.281   9.781   0.859
 2490W        W 6541   7.515   8.891   9.726
 2491W        W 6542   5.210   8.771   1.147
 2492W        W 6543   2.311  11.449   2.806
 2493W        W 6544   9.017   3.041   2.285
 2494W        W 6545   1.393   0.787   1.334
 2495W        W 6546  10.786   0.007  11.334
 2496W        W 6547   8.011   1.770   2.991
 2497W        W 6548  11.289  11.282   9.231
 2498W        W 6549   9.925   5.215   0.359
 2499W        W 6550   5.513   5.343   0.032
 2500W        W 6551   3.107   9.158   9.691
 2501W        W 6552   3.642   4.899   2.238
 2502W        W 6553   1.791   7.662   9.134
 2503W        W 6554   9.395   8.413   9.904
 2504W        W 6555   8.981   6.356   0.114
 2505W        W 6556  10.560   9.072   1.838
 2506W        W 6557   3.239  11.428   0.542
 2507W        W 6558   1.102   9.385   1.334
 2508W        W 6559   5.173   0.442   3.443
 2509W        W 6560   7.098  10.854   2.633
 2510W        W 6561   2.093   7.225   3.300
 2511W        W 6562   1.781   5.083   3.161
 2512W        W 6563   5.695   5.638  10.047
 2513W        W 6564   0.034   3.566   2.116
 2514W        W 6565   0.903   7.170  11.859
 2515W        W 6566   9.699   7.965  11.020
 2516W        W 6567   1.335   3.601  11.207
 2517W        W 6568   8.263  10.902   2.297
 2518W        W 6569   1.789   4.715  10.562
 2519W        W 6570   9.768   5.718   1.997
 2520W        W 6571   3.485   8.080   9.341
 2521W        W 6572   2.563   4.043   3.117
 2522W        W 6573   6.266   1.133   9.975
 2523W        W 6574   5.521   3.767   2.549
 2524W        W 6575   3.113   8.569  11.439
 2525W        W 6576   9.533   5.722   1.082
 2526W        W 6577   8.376   4.194   9.500
 2527W        W 6578   2.268   0.278  11.972
 2528W        W 6579   6.514   4.006   3.687
 2529W        W 6580   4.661   9.723   1.041
 2530W        W 6581   2.750   6.217   1.402
 2531W        W 6582  11.010   6.492  10.718
 2532W        W 6583   1.695   4.092   0.341
 2533W        W 6584   2.923   0.299  10.706
 2534W        W 6585  10.359   9.538   1.835
 2535W        W 6586   2.738   7.554  11.293
 2536W        W 6587   0.438   3.052   1.397
 2537W        W 6588   4.604  10.402   3.212
 2538W        W 6589   0.031   9.533  10.930
 2539W        W 6590   5.591   6.294   1.793
 2540W        W 6591   6.242   8.059   9.531
 2541W        W 6592   2.633   5.112  11.257
 2542W        W 6593   6.121   1.982  11.364
 2543W        W 6594   1.319   4.165   0.005
 2544W        W 6595   6.608   7.642   1.842
 2545W        W 6596   3.617   9.440   3.845
 2546W        W 6597   0.864   7.221   9.022
 2547W        W 6598   7.531   2.290   2.185
 2548W        W 6599  11.318   6.997   3.082
 2549W        W 6600   7.081  10.512   9.831
 2550W        W 6601   8.902   9.179  10.699
 2551W        W 6602  10.357   2.812   0.888
 2552W        W 6603   8.747   6.821  11.892
 2553W        W 6604  11.131   9.000   1.015
 2554W        W 6605  10.332   0.865   9.839
 2555W        W 6606  10.374   3.661   0.658
 2556W        W 6607   1.872   5.845   9.855
 2557W        W 6608   9.799  10.577   2.884
 2558W        W 6609   9.802   0.901  11.879
 2559W        W 6610  10.922   3.502  10.843
 2560W        W 6611   8.888   5.608   9.077
 2561W        W 6612   5.720   3.608   3.439
 2562W        W 6613   3.421   9.840   8.168
 2563W        W 6614   7.528   9.202   0.275
 2564W        W 6615  10.318   5.348   3.909
 2565W        W 6616   0.166   5.660   3.253
 2566W        W 6617   1.671   5.087  11.502
 2567W        W 6618  10.352   8.087  11.426
 2568W        W 6619   6.810   7.208   3.567
 2569W        W 6620   9.625   5.056  10.359
 2570W        W 6621   0.243   1.910   0.335
 2571W        W 6622   7.065   9.483   0.291
 2572W        W 6623   3.047   4.669   9.624
 2573W        W 6624   6.296   4.649   9.974
 2574W        W 6625   4.748   0.488   9.489
 2575W        W 6626   4.904   4.371  10.393
 2576W        W 6627   7.044   1.848   3.214
 2577W        W 6628   8.925   6.322   9.506
 2578W        W 6629   9.842   9.595   2.655
 2579W        W 6630   4.629   8.372  10.516
 2580W        W 6631   4.824   5.687   1.571
 2581W        W 6632   2.300   2.071   9.592
 2582W        W 6633  11.245   5.353   8.929
 2583W        W 6634   6.443   2.678   2.136
 2584W        W 6635   9.367   8.488   0.729
 2585W        W 6636  10.301   3.193   3.701
 2586W        W 6637   2.859   2.465   9.996
 2587W        W 6638  10.486   3.716   2.898
 2588W        W 6639   3.603   7.565  10.249
 2589W        W 6640   1.711   8.417  10.466
 2590W        W 6641   5.027   3.493   0.934
 2591W        W 6642   0.960   2.783   1.727
 2592W        W 6643   3.754  10.889   9.534
 2593W        W 6644  11.366   2.135   3.429
 2594W        W 6645   8.951   5.085   9.774
 2595W        W 6646  11.471   5.598   3.738
 2596W        W 6647   7.404   6.409   0.773
 2597W        W 6648   1.261   0.886   3.251
 2598W        W 6649   3.111   0.243   2.464
 2599W        W 6650   2.719   6.904   9.912
 2600W        W 6651   8.035   3.825  11.045
 2601W        W 6652   9.695   5.234   2.507
 2602W        W 6653   7.233  10.044   8.937
 2603W        W 6654   2.285   5.743   9.589
 2604W        W 6655   3.623   1.733   9.401
 2605W        W 6656  10.976   4.742   9.348
 2606W        W 6657   8.618  11.269   3.567
 2607W        W 6658   3.873   9.303   1.354
 2608W        W 6659   8.029   9.202  10.175
 2609W        W 6660   0.912   5.337   9.089
 2610W        W 6661   0.365   7.672   1.917
 2611W        W 6662   1.713  11.296   2.423
 2612W        W 6663   9.327  10.359   1.434
 2613W        W 6664   0.879   4.824   9.097
 2614W        W 6665   3.301  10.321   0.851
 2615W        W 6666   6.984   2.262   9.132
 2616W        W 6667   9.503   1.501  10.330
 2617W        W 6668   3.782   5.062   1.238
 2618W        W 6669  10.354   7.925  10.289
 2619W        W 6670  10.988   9.359   2.042
 2620W        W 6671   1.802   0.445   0.651
 2621W        W 6672   2.807   9.902  11.914
 2622W        W 6673   0.563   3.201   2.879
 2623W        W 6674   3.894   5.618   1.647
 2624W        W 6675   9.229  10.627  11.709
 2625W        W 6676   2.215   1.708   0.917
 2626W        W 6677   2.234   6.165   2.467
 2627W        W 6678  10.993   7.507   3.498
 2628W        W 6679   7.252   5.688  10.718
 2629W        W 6680   2.748   9.161   2.942
 2630W        W 6681   1.378   5.451  11.090
 2631W        W 6682   5.725   0.716   8.901
 2632W        W 6683   0.409  10.992   2.137
 2633W        W 6684   9.602  10.567   9.394
 2634W        W 6685  10.353   2.267   1.652
 2635W        W 6686   3.174   1.609   0.883
 2636W        W 6687   4.558   3.687   9.942
 2637W        W 6688   7.907   7.147   1.703
 2638W        W 6689   2.102   4.210   8.899
 2639W        W 6690   0.400   4.793  10.280
 2640W        W 6691  10.778   8.659   0.908
 2641W        W 6692   5.411   2.845   1.922
 2642W        W 6693   3.163   7.568  11.016
 2643W        W 6694   5.600   4.095   1.223
 2644W        W 6695   4.578  11.334  10.602
 2645W        W 6696   0.957   9.782  11.959
 2646W        W 6697   3.914  10.587   1.591
 2647W        W 6698   5.076  10.367  10.947
 2648W        W 6699   4.174  10.623   3.467
 2649W        W 6700   4.676   4.248  10.854
 2650W        W 6701  10.819   1.174   2.069
 2651W        W 6702   2.487   7.566   3.294
 2652W        W 6703  10.473  10.419   9.138
 2653W        W 6704   4.666   8.897   1.436
 2654W        W 6705   4.624   3.943   1.522
 2655W        W 6706   7.727   3.965   2.793
 2656W        W 6707   6.958   3.874   0.745
 2657W        W 6708   4.288   3.267   2.264
 2658W        W 6709   5.786   7.058   0.716
 2659W        W 6710   9.407  10.491   0.538
 2660W        W 6711   9.583   0.975   0.880
 2661W        W 6712  10.406   8.327  10.582
 2662W        W 6713   0.438   6.930  11.215
 2663W        W 6714   7.909   1.674  10.065
 2664W        W 6715   8.453   5.031   8.596
 2665W        W 6716   9.862   7.540   9.900
 2666W        W 6717   1.472  10.400   3.331
 2667W        W 6718   0.833   0.992  10.340
 2668W        W 6719  10.389   0.109   3.486
 2669W        W 6720   6.233   9.959  10.028
 2670W        W 6721   9.180   8.871   1.036
 2671W        W 6722   9.787  10.386   1.226
 2672W        W 6723   6.123   2.936  11.268
 2673W        W 6724   8.899   1.014  10.974
 2674W        W 6725  11.236   0.215   2.228
 2675W        W 6726   2.742   5.073   2.643
 2676W        W 6727   8.484  11.230   2.612
 2677W        W 6728   3.105  10.981   1.945
 2678W        W 6729   1.445   3.290   9.448
 2679W        W 6730   9.523   3.651  11.639
 2680W        W 6731   9.815   2.155  10.502
 2681W        W 6732   7.292   8.916   2.193
 2682W        W 6733   7.563  11.208   8.969
 2683W        W 6734   5.786   7.771   3.265
 2684W        W 6735   7.963   0.495  10.453
 2685W        W 6736   6.976   0.469   2.253
 2686W        W 6737   1.055   9.271  11.892
 2687W        W 6738   4.761   0.964  11.463
 2688W        W 6739   7.452   0.064   2.675
 2689W        W 6740   7.010   6.707   0.845
 2690W        W 6741   6.241   7.352   2.759
 2691W        W 6742   6.623   2.687   0.655
 2692W        W 6743   6.763   3.076   2.939
 2693W        W 6744   7.218   8.954   2.700
 2694W        W 6745   6.586   8.416   1.370
 2695W        W 6746   4.853   2.869   8.705
 2696W        W 6747   8.497   6.060   0.223
 2697W        W 6748   3.838   9.870  10.780
 2698W        W 6749  10.367   1.591   1.406
 2699W        W 6750   2.373   6.067  10.475
 2700W        W 6751   0.303   4.548   8.909
 2701W        W 6752   8.421   7.148  11.684
 2702W        W 6753   1.437  10.060   1.764
 2703W        W 6754   5.665   1.461   9.429
 2704W        W 6755   3.936   0.790   9.526
 2705W        W 6756   9.791  11.326   1.407
 2706W        W 6757  10.549   2.678   9.577
 2707W        W 6758   8.119   0.435   0.853
 2708W        W 6759   8.633   3.190   3.564
 2709W        W 6760   9.950   2.386   1.346
 2710W        W 6761   7.639   9.822  10.288
 2711W        W 6762   3.312   0.727   2.342
 2712W        W 6763   6.154   1.744   1.736
 2713W        W 6764   3.371   7.831   3.189
 2714W        W 6765   5.050   9.145  10.240
 2715W        W 6766   2.395   5.201   8.992
 2716W        W 6767   7.754   5.448   3.964
 2717W        W 6768   4.096   5.751  10.448
 2718W        W 6769   2.236   4.641  10.824
 2719W        W 6770   0.667  10.246   9.502
 2720W        W 6771   8.139   6.837   9.073
 2721W        W 6772   6.053   9.613   9.159
 2722W        W 6773   5.912   3.886  10.279
 2723W        W 6774   8.976   8.182   2.684
 2724W        W 6775   0.185   6.092   2.618
 2725W        W 6776  11.196   8.833  10.469
 2726W        W 6777   5.424   0.390   1.841
 2727W        W 6778   0.395   7.854  10.444
 2728W        W 6779  11.099   9.490   3.546
 2729W        W 6780   0.411   3.863   1.816
 2730W        W 6781  11.271   9.918   9.842
 2731W        W 6782   0.718   5.515   1.461
 2732W        W 6783   0.481   8.501   9.592
 2733W        W 6784   0.630   1.920  10.674
 2734W        W 6785   7.179  10.071  10.084
 2735W        W 6786   4.539   5.796  10.179
 2736W        W 6787   7.841  10.919  10.144
 2737W        W 6788  10.070   6.527   3.297
 2738W        W 6789   7.406   0.846   1.081
 2739W        W 6790   5.619   5.193   9.729
 2740W        W 6791   9.892   3.835   2.594
 2741W        W 6792   5.559   8.425  10.490
 2742W        W 6793   8.427  10.220   1.817
 2743W        W 6794   5.219   4.948  11.131
 2744W        W 6795  10.923   8.158   8.974
 2745W        W 6796   7.500   3.482  11.890
 2746W        W 6797   7.137   5.132  10.847
 2747W        W 6798  11.348  10.290  11.542
 2748W        W 6799   0.968   1.205   1.863
 2749W        W 6800   2.221   6.479  10.895
 2750W        W 6801   5.170   4.133  10.817
 2751W        W 6802   8.912   2.270  10.465
 2752W        W 6803   2.897   7.169   2.238
 2753W        W 6804   7.826   3.084   0.091
 2754W        W 6805   8.051  11.395   0.430
 2755W        W 6806   7.527   1.206   9.449
 2756W        W 6807   4.310   8.299   2.063
 2757W        W 6808   2.643   6.722   1.392
 2758W        W 6809   6.466   3.174   1.356
 2759W        W 6810   2.372   4.694   8.856
 2760W        W 6811   7.118   9.910   0.004
 2761W        W 6812  11.087   5.727   0.710
 2762W        W 6813   5.963  10.090   1.798
 2763W        W 6814   9.659   7.920   2.237
 2764W        W 6815   5.270   4.715  10.157
 2765W        W 6816  10.003   1.345   9.056
 2766W        W 6817   5.593   0.370  11.995
 2767W        W 6818   4.816  10.364   0.336
 2768W        W 6819   7.693   8.115   1.091
 2769W        W 6820   2.242   6.143   0.337
 2770W        W 6821   2.812   9.040   1.952
 2771W        W 6822   2.262   0.415   1.451
 2772W        W 6823   2.111   4.679   2.430
 2773W        W 6824   4.037   2.037  11.877
 2774W        W 6825  10.541   1.266   2.738
 2775W        W 6826  10.261   5.043   8.998
 2776W        W 6827   7.723   4.487   2.886
 2777W        W 6828   2.122   5.059  11.215
 2778W        W 6829   3.962  10.705   0.370
 2779W        W 6830   8.740   7.878   3.188
 2780W        W 6831   2.913   9.611   1.204
 2781W        W 6832   5.675   1.203   2.479
 2782W        W 6833   7.787   4.696   8.572
 2783W        W 6834   2.542   4.229   9.453
 2784W        W 6835   6.965   7.518   0.707
 2785W        W 6836  10.278   4.588   0.893
 2786W        W 6837  10.387   8.654   2.245
 2787W        W 6838   4.624   2.744  11.868
 2788W        W 6839   6.574   2.153  10.242
 2789W        W 6840   8.328   3.171  11.964
 2790W        W 6841   8.224  10.516   8.893
 2791W        W 6842   5.786   9.875  10.906
 2792W        W 6843   8.704   8.771   0.130
 2793W        W 6844   5.317   2.307   1.701
 2794W        W 6845   8.535   4.691   1.424
 2795W        W 6846   5.516   8.990   2.362
 2796W        W 6847   5.913   1.191  10.801
 2797W        W 6848   9.756   4.485  11.213
 2798W        W 6849   6.542   0.599   2.774
 2799W        W 6850   2.897   3.274   1.267
 2800W        W 6851   7.203   9.358   3.419
 2801W        W 6852   3.228   6.246  10.236
 2802W        W 6853   5.082   6.462   1.801
 2803W        W 6854   4.465   7.956   9.345
 2804W        W 6855   5.733   7.477   9.423
 2805W        W 6856   9.424   3.369   9.744
 2806W        W 6857   9.537   1.309  11.300
 2807W        W 6858   3.790   4.635   2.626
 2808W        W 6859   5.499   3.685  10.529
 2809W        W 6860  10.054   7.690  11.829
 2810W        W 6861   0.792   6.901   1.747
 2811W        W 6862   0.421   7.890   0.761
 2812W        W 6863   5.677   0.814  11.510
 2813W        W 6864  10.868   8.089  10.272
 2814W        W 6865   9.925   0.233   2.320
 2815W        W 6866   9.845  11.365   9.022
 2816W        W 6867   8.581   9.312   1.889
 2817W        W 6868   7.247   1.936   8.834
 2818W        W 6869   4.714   9.129   8.945
 2819W        W 6870  10.077   4.685   9.323
 2820W        W 6871   1.329   4.152   1.484
 2821W        W 6872   7.169   0.427   3.417
 2822W        W 6873   2.395   0.949   2.224
 2823W        W 6874   1.415  11.286   3.294
 2824W        W 6875   2.983   7.041   8.099
 2825W        W 6876   8.436   0.219   9.007
 2826W        W 6877   0.658   5.785   9.109
 2827W        W 6878   9.964   9.780   8.790
 2828W        W 6879   6.606   1.277   2.447
 2829W        W 6880   4.532   1.787   9.019
 2830W        W 6881   0.316  11.257  11.599
 2831W        W 6882   8.994   6.834   0.342
 2832W        W 6883   6.096   8.969   0.824
 2833W        W 6884  10.679   7.015   2.216
 2834W        W 6885   8.879  10.020   1.947
 2835W        W 6886   3.732   0.636  11.119
 2836W        W 6887   7.852   1.654  11.986
 2837W        W 6888   3.079   1.142   2.546
 2838W        W 6889  11.352   1.327   8.807
 2839W        W 6890  10.249   6.102   2.736
 2840W        W 6891   0.443   3.581  11.123
 2841W        W 6892   8.585  10.236   4.028
 2842W        W 6893   5.185  10.567   1.773
 2843W        W 6894   6.598  10.980  11.527
 2844W        W 6895  10.997   6.830   2.663
 2845W        W 6896   7.491  10.518  11.815
 2846W        W 6897   5.664   6.133   9.391
 2847W        W 6898   1.795   5.994   2.721
 2848W        W 6899   2.390   7.065   2.330
 2849W        W 6900   0.253   9.936  11.588
 2850W        W 6901   2.236   3.762   2.847
 2851W        W 6902   0.049   8.505   3.299
 2852W        W 6903   7.162   6.405   9.620
 2853W        W 6904  10.502  10.540  11.528
 2854W        W 6905   1.069   7.419   2.228
 2855W        W 6906   3.950   3.629   2.198
 2856W        W 6907   8.955   6.343  10.490
 2857W        W 6908   6.590   8.550  11.695
 2858W        W 6909  10.479   1.861   2.379
 2859W        W 6910   1.289   3.365  10.329
 2860W        W 6911   6.178   7.034   2.242
 2861W        W 6912   4.499   3.946   9.505
 2862W        W 6913   0.884  10.764   2.052
 2863W        W 6914   0.411   8.827   0.438
 2864W        W 6915   3.749   2.208  10.113
 2865W        W 6916   7.090   0.366   9.956
 2866W        W 6917  11.008   3.786   1.953
 2867W        W 6918   7.144   0.365  10.990
 2868W        W 6919   7.520   6.693   3.838
 2869W        W 6920   9.588   7.798   0.034
 2870W        W 6921   5.034   8.219  11.118
 2871W        W 6922   4.863   7.991   2.567
 2872W        W 6923   1.607   6.006   8.547
 2873W        W 6924   6.150   9.678   2.039
 2874W        W 6925   1.747   4.166   1.822
 2875W        W 6926   1.098   7.414   8.589
 2876W        W 6927   5.396  10.425   0.379
 2877W        W 6928   0.461   9.898   0.055
 2878W        W 6929   8.294   8.543  11.935
 2879W        W 6930   8.671   5.676   3.117
 2880W        W 6931   5.580   4.715  11.444
 2881W        W 6932   0.767   1.875   0.432
 2882W        W 6933  10.159   4.256   0.350
 2883W        W 6934   6.634   1.922   0.543
 2884W        W 6935   5.305   7.412  11.407
 2885W        W 6936   5.440   9.126   9.431
 2886W        W 6937   5.561   0.764   3.284
 2887W        W 6938  10.290   4.124   2.646
 2888W        W 6939   2.075   8.799  10.953
 2889W        W 6940   6.268   7.063   1.478
 2890W        W 6941   4.779   3.847   3.692
 2891W        W 6942   5.943   2.367   2.717
 2892W        W 6943   9.339   3.783   9.019
 2893W        W 6944   1.701   4.658   2.048
 2894W        W 6945   4.762   2.229   9.121
 2895W        W 6946   2.192   6.631   1.151
 2896W        W 6947   0.019   7.577  10.652
 2897W        W 6948   3.950   9.323   2.900
 2898W        W 6949   1.959   4.167   2.364
 2899W        W 6950   5.198   2.316   4.032
 2900W        W 6951  10.076   2.226  10.050
 2901W        W 6952   3.454  10.267   2.153
 2902W        W 6953   3.792  10.770   3.150
 2903W        W 6954   7.076   9.159  10.555
 2904W        W 6955   7.935   2.786   2.293
 2905W        W 6956   7.118   3.775  10.756
 2906W        W 6957  10.865   2.604   0.232
 2907W        W 6958   7.190   9.592  10.321
 2908W        W 6959   2.241   9.968   2.320
 2909W        W 6960   4.090   6.493   2.040
 2910W        W 6961   7.635   4.712   1.879
 2911W        W 6962   0.384   1.361   8.948
 2912W        W 6963   0.874   3.735   2.043
 2913W        W 6964  11.278   6.277   2.345
 2914W        W 6965   6.754   8.957   2.231
 2915W        W 6966   2.117   0.727  10.870
 2916W        W 6967   2.873   4.678   8.707
 2917W        W 6968  11.009  10.434   9.856
 2918W        W 6969   7.573   3.625   9.927
 2919W        W 6970   0.695   3.095  11.915
 2920W        W 6971   7.570  10.284   3.230
 2921W        W 6972   4.214   3.356   1.760
 2922W        W 6973  10.933   9.521  10.136
 2923W        W 6974   9.599   8.504   3.262
 2924W        W 6975  11.003   4.543   8.863
 2925W        W 6976   8.356   9.350   0.830
 2926W        W 6977   0.958   0.148   9.704
 2927W        W 6978   9.034   4.800   0.233
 2928W        W 6979   6.666   3.904   1.216
 2929W        W 6980   5.175   5.973   1.911
 2930W        W 6981   1.026   3.109   3.092
 2931W        W 6982  10.455   5.279   8.336
 2932W        W 6983   0.980   7.954   0.081
 2933W        W 6984   7.567   3.636  10.962
 2934W        W 6985  11.238   0.257  10.566
 2935W        W 6986   1.923   8.391   2.668
 2936W        W 6987   1.804   3.694   1.588
 2937W        W 6988   8.341   4.766   0.015
 2938W        W 6989   4.751  11.193  11.112
 2939W        W 6990   0.937   3.202   1.438
 2940W        W 6991   7.286   9.998   2.736
 2941W        W 6992   6.801   4.079  11.448
 2942W        W 6993   3.289   2.781   9.626
 2943W        W 6994   1.133   1.910  10.837
 2944W        W 6995   0.646   9.309   9.490
 2945W        W 6996   1.847   8.300   0.336
 2946W        W 6997   7.408   4.830   1.429
 2947W        W 6998   5.401   7.033  11.796
 2948W        W 6999   4.664   3.466   1.325
 2949W        W 7000   0.757   5.139  10.431
 2950W        W 7001   9.916   3.176   3.342
 2951W        W 7002   1.693   8.114   9.380
 2952W        W 7003   3.125   4.746   3.343
 2953W        W 7004   9.807   1.947   0.776
 2954W        W 7005   0.709  10.115   0.890
 2955W        W 7006   2.768   8.374   9.655
 2956W        W 7007   3.746   7.972   9.944
 2957W        W 7008   8.681   3.016   2.694
 2958W        W 7009  10.521   8.306   9.961
 2959W        W 7010   0.373   1.871   3.316
 2960W        W 7011   1.710   9.999   9.759
 2961W        W 7012   2.751   4.767   3.688
 2962W        W 7013   9.819   9.849   9.914
 2963W        W 7014   0.006   0.182   1.381
 2964W        W 7015   6.625   4.546   2.009
 2965W        W 7016   1.724  11.496  11.541
 2966W        W 7017   5.023   4.403   9.532
 2967W        W 7018   5.194   9.017   3.480
 2968W        W 7019   8.149   3.069   3.656
 2969W        W 7020   7.649   6.611   8.976
 2970W        W 7021   7.127   7.453   2.635
 2971W        W 7022  10.261  10.401   2.776
 2972W        W 7023   7.151   4.193  11.013
 2973W        W 7024   9.809   3.636   3.540
 2974W        W 7025   2.753   0.770   1.665
 2975W        W 7026   8.621   8.925   0.747
 2976W        W 7027   5.032   3.157   1.843
 2977W        W 7028   3.183   0.735   1.295
 2978W        W 7029   4.812  10.694  11.212
 2979W        W 7030   2.399   5.362   4.124
 2980W        W 7031   7.114   0.477   0.801
 2981W        W 7032   2.806   6.125  11.487
 2982W        W 7033   2.145   0.747   9.992
 2983W        W 7034   1.859  10.008   8.866
 2984W        W 7035  10.775   8.595  10.322
 2985W        W 7036   0.584   5.064   8.410
 2986W        W 7037   4.168   2.646   9.519
 2987W        W 7038   7.137   6.385   3.994
 2988W        W 7039   7.491   9.063   1.749
 2989W        W 7040   3.212   6.600  10.736
 2990W        W 7041   0.965   4.391  11.216
 2991W        W 7042   2.281   3.763  10.275
 2992W        W 7043  11.308  10.925   3.336
 2993W        W 7044  10.029  10.767   3.456
 2994W        W 7045   5.950   0.932  10.343
 2995W        W 7046   1.255   7.685   0.837
 2996W        W 7047   7.031   7.014   1.551
 2997W        W 7048  10.778   6.032  10.314
 2998W        W 7049   8.671   0.468   9.405
 2999W        W 7050   4.751   4.743  10.989
 3000W        W 7051   9.641   3.630   1.667
 3001W        W 7052   9.389   6.458   2.090
 3002W        W 7053   5.769   9.913   2.361
 3003W        W 7054   8.526   7.884  11.037
 3004W        W 7055   4.672   3.633   0.550
 3005W        W 7056   3.732   3.535  10.416
 3006W        W 7057   9.131   2.757  10.366
 3007W        W 7058   4.261   7.778   0.426
 3008W        W 7059   0.701   1.605   9.497
 3009W        W 7060  10.434   0.462   0.572
 3010W        W 7061   0.253   5.856   9.414
 3011W        W 7062   1.078   8.174   8.943
 3012W        W 7063   9.053   1.733  11.413
 3013W        W 7064   8.918   9.133   1.538
 3014W        W 7065   4.585   0.229   0.896
 3015W        W 7066   1.344   3.691   0.201
 3016W        W 7067   9.243   5.670   3.260
 3017W        W 7068   8.367   8.955   9.846
 3018W        W 7069   4.052   7.421   0.765
 3019W        W 7070   9.057   2.262   1.155
 3020W        W 7071   8.496   4.380   2.346
 3021W        W 7072   5.992  10.463   0.650
 3022W        W 7073  11.293   1.795   1.656
 3023W        W 7074   7.180   4.811   2.139
 3024W        W 7075   2.123   4.304   3.228
 3025W        W 7076   3.252  10.834  10.383
 3026W        W 7077   0.830   5.320  11.364
 3027W        W 7078   5.570   2.829   9.997
 3028W        W 7079   1.759   1.659   3.023
 3029W        W 7080   4.468   7.666   1.006
 3030W        W 7081   1.760   6.025   9.384
 3031W        W 7082   4.212   7.561  11.893
 3032W        W 7083  10.857   9.080   3.338
 3033W        W 7084   4.014   6.677  10.372
 3034W        W 7085   6.131   7.849   2.697
 3035W        W 7086   5.414   1.902   8.561
 3036W        W 7087   0.609   3.388   1.766
 3037W        W 7088   3.509   1.250   3.315
 3038W        W 7089  11.047   1.031   2.514
 3039W        W 7090   4.733   8.164   0.311
 3040W        W 7091   7.453   4.047   9.669
 3041W        W 7092   7.052   6.749   3.603
 3042W        W 7093   8.679   6.508   3.126
 3043W        W 7094   5.908   5.996   0.351
 3044W        W 7095  10.514  10.765   1.849
 3045W        W 7096   4.829   1.965  11.535
 3046W        W 7097   1.472  10.324   9.064
 3047W        W 7098   8.038   3.271   1.599
 3048W        W 7099   6.341  10.771   2.325
 3049W        W 7100   5.501   8.345   9.061
 3050W        W 7101   3.250   9.394   4.194
 3051W        W 7102   2.115   5.669   3.839
 3052W        W 7103   3.956  10.998   1.241
 3053W        W 7104   7.056   3.237   0.075
 3054W        W 7105   7.867   0.784  10.059
 3055W        W 7106  10.022  10.248   8.574
 3056W        W 7107  11.472   4.122   1.986
 3057W        W 7108  10.026   3.442   2.916
 3058W        W 7109   6.732   7.338  11.927
 3059W        W 7110   2.600   0.876   9.031
 3060W        W 7111   2.547   9.616   2.668
 3061W        W 7112   0.875   6.815   2.734
 3062W        W 7113   1.380   1.281  11.971
 3063W        W 7114  11.377   1.309  11.517
 3064W        W 7115   2.067   4.854   9.834
 3065W        W 7116   3.243   5.050   8.664
 3066W        W 7117   5.078   3.898  10.363
 3067W        W 7118   1.155   1.241   1.381
 3068W        W 7119   9.977   2.254   9.076
 3069W        W 7120   7.473   5.004   9.675
 3070W        W 7121   8.941   9.124   2.977
 3071W        W 7122   2.205  10.000   9.856
 3072W        W 7123   4.523  11.100   2.131
 3073W        W 7124   6.687   7.795   0.140
 3074W        W 7125   1.732   8.675  11.407
 3075W        W 7126   8.543  10.714   1.928
 3076W        W 7127   9.917   1.489   1.699
 3077W        W 7128   7.879   3.663   2.403
 3078W        W 7129  10.925   3.083   0.003
 3079W        W 7130   1.598   7.404   3.458
 3080W        W 7131   7.574   6.574   2.477
 3081W        W 7132   9.601   6.609   3.084
 3082W        W 7133   8.400   0.638   1.679
 3083W        W 7134   8.323   0.143  10.441
 3084W        W 7135   0.045   8.127   8.691
 3085W        W 7136   3.066   6.990   2.889
 3086W        W 7137   9.923   0.893   3.071
 3087W        W 7138   2.103   1.275  10.040
 3088W        W 7139   1.613   4.542   2.538
 3089W        W 7140   3.697   9.959   9.799
 3090W        W 7141   0.709  10.562   0.598
 3091W        W 7142   5.206  11.031   3.475
 3092W        W 7143   0.047   8.345   1.532
 3093W        W 7144   8.006   1.983   1.215
 3094W        W 7145   1.187   3.213   0.028
 3095W        W 7146   7.559  11.487   0.662
 3096W        W 7147  11.204   2.218   1.363
 3097W        W 7148   6.780   8.595  10.726
 3098W        W 7149   3.801   3.698   0.743
 3099W        W 7150   8.690   1.411   9.229
 3100W        W 7151  10.911   5.089   3.161
 3101W        W 7152   9.435   8.395  10.965
 3102W        W 7153   4.695   1.698   2.821
 3103W        W 7154   6.295   7.275   3.614
 3104W        W 7155   5.928   6.162   2.194
 3105W        W 7156   0.295   8.751   8.739
 3106W        W 7157   2.939  10.909  10.803
 3107W        W 7158   6.854   2.361   0.339
 3108W        W 7159  11.225   0.781   3.664
 3109W        W 7160   4.076   7.069  11.728
 3110W        W 7161   9.740   1.420  11.988
 3111W        W 7162   1.488   7.790   3.115
 3112W        W 7163   3.833   2.785  10.876
 3113W        W 7164   3.278   4.722   9.084
 3114W        W 7165   2.283  10.571   2.973
 3115W        W 7166   5.528   3.594   3.916
 3116W        W 7167   9.479   3.352   9.239
 3117W        W 7168   6.211  10.718   8.905
 3118W        W 7169   1.331   3.596   2.335
 3119W        W 7170   1.019   3.279   9.131
 3120W        W 7171   6.280   8.773  10.827
 3121W        W 7172   5.515   5.552  11.410
 3122W        W 7173   1.821   2.818   2.275
 3123W        W 7174   1.026   8.478   0.723
 3124W        W 7175   3.863   9.475   2.428
 3125W        W 7176   5.198   2.570  10.233
 3126W        W 7177  10.666   4.381   0.240
 3127W        W 7178   4.043   4.940   8.195
 3128W        W 7179   2.757   4.630   9.210
 3129W        W 7180   1.651   5.141  10.302
 3130W        W 7181   8.898   9.639  11.889
 3131W        W 7182   9.940   0.751  10.552
 3132W        W 7183   2.982  10.903   2.618
 3133W        W 7184   8.939  10.988  10.838
 3134W        W 7185   7.119   8.423   2.942
 3135W        W 7186   4.343   8.100   1.324
 3136W        W 7187   4.234   9.820   2.243
 3137W        W 7188   0.968   9.340   9.914
 3138W        W 7189   1.225   8.800   8.841
 3139W        W 7190   9.829   3.620   9.930
 3140W        W 7191   4.207   3.519   9.229
 3141W        W 7192   9.437   9.993  10.301
 3142W        W 7193   8.870   9.449   8.698
 3143W        W 7194   7.647   8.143   2.518
 3144W        W 7195   1.375   8.402   1.482
 3145W        W 7196   8.651   2.625  11.017
 3146W        W 7197  11.345   9.343   1.315
 3147W        W 7198  10.697   6.057   0.887
 3148W        W 7199   1.891   7.916  10.535
 3149W        W 7200   1.822   0.807   2.224
 3150W        W 7201  10.325   9.391   2.697
 3151W        W 7202   2.737  11.282   9.313
 3152W        W 7203   4.189   0.930  11.838
 3153W        W 7204  10.281   8.588   0.964
 3154W        W 7205   6.656   7.694   2.705
 3155W        W 7206   3.619   0.437   1.352
 3156W        W 7207  10.764   4.805  11.228
 3157W        W 7208   3.189   6.397   0.307
 3158W        W 7209   6.729  11.455  11.355
 3159W        W 7210   1.164   1.674   8.492
 3160W        W 7211   3.900   8.797  11.454
 3161W        W 7212  10.451   4.664   1.378
 3162W        W 7213   5.317   6.510  11.755
 3163W        W 7214   5.173   0.719  11.276
 3164W        W 7215   1.317  11.039   0.363
 3165W        W 7216   3.208   3.852   1.374
 3166W        W 7217  11.346   5.785   8.633
 3167W        W 7218  10.419   2.997   9.082
 3168W        W 7219   1.429   0.162   2.970
 3169W        W 7220   6.301   7.673   3.163
 3170W        W 7221   7.887   4.150   0.703
 3171W        W 7222   6.734   3.681   3.311
 3172W        W 7223   3.855   6.595  11.776
 3173W        W 7224  10.714   5.681  11.403
 3174W        W 7225   4.812   9.886   9.689
 3175W        W 7226   4.090   0.930   1.230
 3176W        W 7227   9.579   4.200   3.329
 3177W        W 7228   8.526   8.714  10.585
 3178W        W 7229   0.098   9.025  10.220
 3179W        W 7230   0.750   6.373   0.850
 3180W        W 7231   4.226   8.993   3.183
 3181W        W 7232   6.245   0.148   0.502
 3182W        W 7233   5.899   3.317   3.055
 3183W        W 7234   2.272   5.286   3.029
 3184W        W 7235   6.457   5.882  10.534
 3185W        W 7236  10.337   7.285   9.895
 3186W        W 7237   9.851   5.722   0.549
 3187W        W 7238   3.541   8.444   0.635
 3188W        W 7239   8.446  10.097   0.736
 3189W        W 7240   9.172   6.521   3.364
 3190W        W 7241   9.160   7.996   8.532
 3191W        W 7242   1.974   2.707   0.205
 3192W        W 7243   1.661  10.063  10.301
 3193W        W 7244   4.471  10.931   1.252
 3194W        W 7245   6.229   5.728  10.085
 3195W        W 7246  10.602   3.641  11.776
 3196W        W 7247  10.010   1.820   8.779
 3197W        W 7248   9.949   6.119   3.587
 3198W        W 7249   6.952   1.354  10.964
 3199W        W 7250   0.256   2.974   3.257
 3200W        W 7251   8.470   5.836   0.693
 3201W        W 7252   8.879   5.453   1.462
 3202W        W 7253   3.318   2.727  10.160
 3203W        W 7254   4.607   6.717   9.095
 3204W        W 7255   8.489   7.455   9.827
 3205W        W 7256   3.660  10.178   8.956
 3206W        W 7257  10.720   9.464   9.271
 3207W        W 7258  11.384   8.368   0.243
 3208W        W 7259  10.926   7.055  10.283
 3209W        W 7260   3.613   1.358  11.156
 3210W        W 7261   2.049   4.487   3.708
 3211W        W 7262   3.127  10.369  11.154
 3212W        W 7263  11.246   9.375   0.208
 3213W        W 7264   8.006   7.903   0.304
 3214W        W 7265   5.771   0.537  10.655
 3215W        W 7266   0.438   8.188   1.174
 3216W        W 7267   1.289   4.350   1.938
 3217W        W 7268   2.115   5.079   8.050
 3218W        W 7269   3.999   7.921   2.337
 3219W        W 7270   7.008  10.820   1.698
 3220W        W 7271   9.388   9.904   1.905
 3221W        W 7272   3.441   4.337   2.382
 3222W        W 7273   1.686   0.526   9.087
 3223W        W 7274   0.344   3.488   8.911
 3224W        W 7275   8.036   7.649  10.005
 3225W        W 7276   9.168   1.453  10.992
 3226W        W 7277   0.724   1.272   0.999
 3227W        W 7278   3.790  11.041   2.569
 3228W        W 7279   7.379   2.437  11.319
 3229W        W 7280   4.161   4.664   2.298
 3230W        W 7281   2.799  10.508   3.424
 3231W        W 7282  10.991   9.662   1.141
 3232W        W 7283   3.102  10.423  10.653
 3233W        W 7284   5.848   1.697   2.450
 3234W        W 7285   2.895  10.100   1.071
 3235W        W 7286   9.714   4.723   3.265
 3236W        W 7287  10.868  11.244   2.713
 3237W        W 7288   6.748   1.273  11.439
 3238W        W 7289  11.042  10.330   2.342
 3239W        W 7290   0.995  11.289  10.465
 3240W        W 7291   9.297  11.381   1.411
 3241W        W 7292   0.921   6.994  11.378
 3242W        W 7293   9.340   1.942  10.533
 3243W        W 7294   5.477   1.433  10.918
 3244W        W 7295   1.664   2.022   2.658
 3245W        W 7296   7.793  10.092   2.817
 3246W        W 7297   3.238   7.320   9.053
 3247W        W 7298   4.826   8.246   2.107
 3248W        W 7299   2.865  10.609   1.016
 3249W        W 7300   8.667   2.122   1.879
 3250W        W 7301   5.709   5.115  11.084
 3251W        W 7302   0.705   3.252   0.974
 3252W        W 7303   6.595   1.210   1.949
 3253W        W 7304   0.791   4.035   9.506
 3254W        W 7305   6.984   9.998  10.550
 3255W        W 7306  10.907   8.539   2.209
 3256W        W 7307   3.599   7.538  10.752
 3257W        W 7308   0.279   2.613   0.551
 3258W        W 7309   8.995   1.933   1.523
 3259W        W 7310   0.478   9.521   9.923
 3260W        W 7311   0.732   5.778  11.587
 3261W        W 7312   1.455   1.951   0.252
 3262W        W 7313   9.495   2.878  11.996
 3263W        W 7314   4.866   9.579   1.484
 3264W        W 7315   2.510   7.582  10.233
 3265W        W 7316   6.554   6.728  10.749
 3266W        W 7317   0.414   4.826   9.348
 3267W        W 7318   9.041   9.993  10.622
 3268W        W 7319   2.861   7.197   1.424
 3269W        W 7320   7.052   3.576   1.762
 3270W        W 7321   1.013   0.958  11.803
 3271W        W 7322   9.967   1.283  11.577
 3272W        W 7323   1.717   5.697  10.810
 3273W        W 7324   5.420  11.373  10.343
 3274W        W 7325  10.533   4.586   9.081
 3275W        W 7326   0.307   7.168  10.792
 3276W        W 7327   5.403  10.404   9.755
 3277W        W 7328   1.388   0.791  11.499
 3278W        W 7329   9.862   9.365  10.129
 3279W        W 7330   2.761   2.634   9.111
 3280W        W 7331   4.996   5.368  11.323
 3281W        W 7332   1.720   4.791  11.924
 3282W        W 7333   8.891   2.919   0.788
 3283W        W 7334   4.494   7.854   2.190
 3284W        W 7335  11.429   0.766   1.391
 3285W        W 7336   6.710   7.982  10.484
 3286W        W 7337  11.259   1.597   9.788
 3287W        W 7338   4.828   9.359   9.826
 3288W        W 7339   1.793   8.910   2.757
 3289W        W 7340   8.112   8.461   1.447
 3290W        W 7341   4.128   4.687   1.295
 3291W        W 7342   0.851   9.773   9.554
 3292W        W 7343   0.957   6.420   2.401
 3293W        W 7344  10.402   8.360   2.776
 3294W        W 7345  10.903   5.717   1.211
 3295W        W 7346  10.078   5.316   2.161
 3296W        W 7347   5.764   1.192   3.016
 3297W        W 7348   9.506   8.917  11.842
 3298W        W 7349   1.242   6.679   9.195
 3299W        W 7350   5.234   5.113   1.021
 3300W        W 7351   1.364   2.407   3.372
 3301W        W 7352   5.299   2.561   2.808
 3302W        W 7353   2.290   4.789   0.685
 3303W        W 7354   1.946  10.881  10.756
 3304W        W 7355   2.236  11.204   0.756
 3305W        W 7356   0.314   9.021   9.746
 3306W        W 7357   1.219  11.306  10.015
 3307W        W 7358  11.383   6.304   9.007
 3308W        W 7359   3.670   1.768   3.172
 3309W        W 7360   3.236   8.542   9.433
 3310W        W 7361   0.103   2.898   9.509
 3311W        W 7362   6.477   3.312   0.468
 3312W        W 7363   4.955  11.044   2.480
 3313W        W 7364   2.812   0.216   9.614
 3314W        W 7365   0.838   5.816   0.081
 3315W        W 7366   2.009   8.020  11.048
 3316W        W 7367   8.807   0.776   9.807
 3317W        W 7368   2.295   1.442   2.918
 3318W        W 7369   9.540   7.121   0.303
 3319W        W 7370   7.307   8.933   8.413
 3320W        W 7371   0.076  10.554   1.915
 3321W        W 7372   1.798  10.320  10.788
 3322W        W 7373   0.801   7.295  10.981
 3323W        W 7374   8.113   4.261   2.649
 3324W        W 7375   0.530   2.664   2.381
 3325W        W 7376   8.264   6.680  11.882
 3326W        W 7377   6.888   2.734   1.786
 3327W        W 7378   5.746   5.611  10.949
 3328W        W 7379  11.193   0.811   8.861
 3329W        W 7380   4.768   7.979   9.760
 3330W        W 7381   4.366  10.854  11.083
 3331W        W 7382   3.193   0.960   9.603
 3332W        W 7383   2.442   2.804   0.048
 3333W        W 7384  10.350   3.154   9.564
 3334W        W 7385   3.416   4.650  11.621
 3335W        W 7386   3.948   8.744  10.945
 3336W        W 7387   2.687   7.262   2.696
 3337W        W 7388   3.515   5.508   8.716
 3338W        W 7389   9.493   8.022   9.075
 3339W        W 7390   8.107   0.782  10.869
 3340W        W 7391   8.219  10.538  10.295
 3341W        W 7392   5.170  11.470   8.960
 3342W        W 7393   9.118  10.883  10.331
 3343W        W 7394  10.796   7.981  11.199
 3344W        W 7395   0.696   2.592   9.793
 3345W        W 7396   1.825  10.584   1.296
 3346W        W 7397  11.006   4.473   3.642
 3347W        W 7398  11.313   3.131   3.075
 3348W        W 7399   2.422   7.151   8.974
 3349W        W 7400   6.504   4.351   9.596
 3350W        W 7401   1.884   3.811   0.888
 3351W        W 7402   9.501   4.568   1.433
 3352W        W 7403   7.996   9.830  11.787
 3353W        W 7404   7.551   7.690   0.432
 3354W        W 7405   5.056   6.493   0.261
 3355W        W 7406   6.423   4.033   8.620
 3356W        W 7407  10.272   9.164  10.353
 3357W        W 7408  11.294   6.555   0.279
 3358W        W 7409   6.516  10.922  10.302
 3359W        W 7410   5.091  11.320  10.753
 3360W        W 7411   4.705   4.174   9.939
 3361W        W 7412   4.677   9.237   1.824
 3362W        W 7413   8.834   6.591   0.769
 3363W        W 7414   2.488   3.225  11.743
 3364W        W 7415   8.768   8.002   9.506
 3365W        W 7416   6.476   2.903   9.008
 3366W        W 7417   3.725   5.696  10.807
 3367W        W 7418   3.182   1.425   9.827
 3368W        W 7419  10.200   7.823   2.216
 3369W        W 7420   9.848   7.070   3.196
 3370W        W 7421   7.403   5.706   1.808
 3371W        W 7422   2.679  10.432  10.926
 3372W        W 7423   2.185  10.480  11.071
 3373W        W 7424   5.190  10.238  11.941
 3374W        W 7425   8.963   6.634   2.439
 3375W        W 7426   2.063   8.847   3.533
 3376W        W 7427   9.564   2.637  11.553
 3377W        W 7428  11.432  10.299  10.131
 3378W        W 7429   3.088   1.917   3.073
 3379W        W 7430   4.923   5.660  10.532
 3380W        W 7431   4.638   3.418   9.502
 3381W        W 7432   8.053   1.044  11.356
 3382W        W 7433   0.842   9.267  11.413
 3383W        W 7434   7.371   3.622   2.670
 3384W        W 7435   1.702   6.695   8.926
 3385W        W 7436   3.800   9.763  11.278
 3386W        W 7437   5.266   0.659   9.424
 3387W        W 7438   5.791   5.225   9.246
 3388W        W 7439   7.587   9.510   9.512
 3389W        W 7440   3.006  10.341   1.849
 3390W        W 7441   9.676   0.532  10.947
 3391W        W 7442   3.734   3.368   2.698
 3392W        W 7443   8.195   5.916   9.451
 3393W        W 7444   6.933   6.434  10.956
 3394W        W 7445   2.592   8.815  11.981
 3395W        W 7446   3.732   5.058   8.819
 3396W        W 7447   2.283   1.393   0.502
 3397W        W 7448  11.076   0.871   1.747
 3398W        W 7449   7.981   0.793   0.514
 3399W        W 7450   9.517   5.529   0.217
 3400W        W 7451   5.744   7.655  11.489
 3401W        W 7452   6.805   9.579   7.984
 3402W        W 7453   4.466   8.127   0.803
 3403W        W 7454   8.847   6.223   2.713
 3404W        W 7455   0.425   4.525   0.185
 3405W        W 7456   6.221  10.273   9.185
 3406W        W 7457   8.507   7.101   2.547
 3407W        W 7458   2.629   9.211  10.413
 3408W        W 7459   1.917   7.084  10.252
 3409W        W 7460   3.606   3.833   2.493
 3410W        W 7461   3.387   5.429   0.473
 3411W        W 7462   6.079   5.406   1.940
 3412W        W 7463   4.046   0.912   1.757
 3413W        W 7464   7.276   2.257   3.455
 3414W        W 7465   5.765  10.865  10.973
 3415W        W 7466  11.307   8.177   9.786
 3416W        W 7467   0.714   6.008   2.600
 3417W        W 7468   5.789   8.622   2.144
 3418W        W 7469   0.596   3.349   2.271
 3419W        W 7470   7.451   3.332  11.369
 3420W        W 7471   6.031  11.477   3.182
 3421W        W 7472   5.162   1.228  10.565
 3422W        W 7473   7.409   8.527   0.286
 3423W        W 7474   1.734  10.046   0.959
 3424W        W 7475   3.769   7.011   3.239
 3425W        W 7476  11.145   8.469   1.207
 3426W        W 7477   4.579   6.197  11.757
 3427W        W 7478   1.667   4.296   0.818
 3428W        W 7479   8.086   4.643   1.184
 3429W        W 7480   6.774   4.049   2.725
 3430W        W 7481   9.058   3.272   1.414
 3431W        W 7482  10.646   7.886  10.706
 3432W        W 7483   0.147   1.089   9.907
 3433W        W 7484   9.290  10.383   8.990
 3434W        W 7485   7.971   8.226   9.322
 3435W        W 7486   8.024   0.949   1.814
 3436W        W 7487   6.118   6.722   3.148
 3437W        W 7488   4.524   1.280   0.885
 3438W        W 7489  11.481  10.773   9.927
 3439W        W 7490  11.335   6.488   2.852
 3440W        W 7491   4.502   1.677   8.497
 3441W        W 7492   2.327   3.840   9.193
 3442W        W 7493   8.863   9.864  11.431
 3443W        W 7494   1.919   5.944   0.686
 3444W        W 7495   2.923   9.099   0.318
 3445W        W 7496   2.304   1.044   9.592
 3446W        W 7497   5.146   0.795   1.275
 3447W        W 7498   9.310   1.325   1.178
 3448W        W 7499   8.419  10.869  10.951
 3449W        W 7500   0.326   5.744   0.080
 3450W        W 7501   6.655   4.219  10.931
 3451W        W 7502   2.347  11.343   1.406
 3452W        W 7503   3.741   1.402  10.652
 3453W        W 7504   4.017   1.345   3.296
 3454W        W 7505   8.879   9.947  10.123
 3455W        W 7506   6.959   2.317   8.610
 3456W        W 7507   1.047   2.503   9.426
 3457W        W 7508   9.422   4.408   8.474
 3458W        W 7509   3.741   1.276   9.163
 3459W        W 7510   4.673   3.347   3.628
 3460W        W 7511   8.432  10.321   9.462
 3461W        W 7512   0.741   7.087   3.143
 3462W        W 7513   4.485   0.134  11.035
 3463W        W 7514   4.368   6.630   2.464
 3464W        W 7515   5.602   7.897   1.459
 3465W        W 7516   4.964   3.927   3.182
 3466W        W 7517   6.214  10.173   2.222
 3467W        W 7518   5.561   3.059   1.194
 3468W        W 7519   0.317   2.179   2.506
 3469W        W 7520  10.878   2.116   0.402
 3470W        W 7521   6.996   6.495   1.636
 3471W        W 7522   4.618   0.940  10.586
 3472W        W 7523   5.224   2.089  10.011
 3473W        W 7524   8.068   7.864  11.319
 3474W        W 7525   6.409   7.665   4.056
 3475W        W 7526   8.141   6.176  11.859
 3476W        W 7527   8.785   4.798   3.450
 3477W        W 7528   1.894   1.687   0.354
 3478W        W 7529  11.155   3.344   1.785
 3479W        W 7530  11.012  10.945   8.936
 3480W        W 7531   3.684   7.985   1.449
 3481W        W 7532   9.154   1.686   2.423
 3482W        W 7533   0.244   1.875   9.429
 3483W        W 7534   0.351  10.847  11.233
 3484W        W 7535   5.519  10.718   0.780
 3485W        W 7536   8.795   4.001   2.132
 3486W        W 7537   2.113   6.103   8.449
 3487W        W 7538   9.615   1.496   8.752
 3488W        W 7539   0.562   5.506   2.908
 3489W        W 7540   2.312  10.772   2.243
 3490W        W 7541   8.772   5.845   1.818
 3491W        W 7542  10.582   4.836   2.782
 3492W        W 7543   1.343   6.085   2.474
 3493W        W 7544  10.364   1.378   9.935
 3494W        W 7545   7.567   8.064   0.098
 3495W        W 7546   6.564   8.953  10.416
 3496W        W 7547   8.032   7.728   9.166
 3497W        W 7548  10.341   9.858   9.595
 3498W        W 7549   6.475   1.912   9.797
 3499W        W 7550   8.948   0.816   2.932
 3500W        W 7551   7.118   2.073  10.071
 3501W        W 7552   8.303   0.397   8.494
 3502W        W 7553   3.241   7.019   9.973
 3503W        W 7554   0.966   3.763  10.411
 3504W        W 7555   5.758   6.519   8.616
 3505W        W 7556   8.944   6.084   3.205
 3506W        W 7557   6.552   6.588   0.688
 3507W        W 7558   9.356   4.383   0.969
 3508W        W 7559   6.693   0.387   0.476
 3509W        W 7560   2.383   3.727   0.875
 3510W        W 7561  11.422   0.410  11.638
 3511W        W 7562   7.638   7.627   1.766
 3512W        W 7563   1.629   1.314  10.334
 3513W        W 7564  11.052   9.474  11.125
 3514W        W 7565   6.384   9.891   8.849
 3515W        W 7566   4.173  10.504   1.036
 3516W        W 7567   2.694  10.477  11.903
 3517W        W 7568   5.593   2.188   3.078
 3518W        W 7569   5.633   0.702   1.057
 3519W        W 7570   5.283   1.358   3.082
 3520W        W 7571   3.283   8.019  10.727
 3521W        W 7572   4.331   5.067  10.835
 3522W        W 7573   2.233   2.382   3.325
 3523W        W 7574   7.301   4.575   3.528
 3524W        W 7575   1.937   9.877   0.282
 3525W        W 7576   5.948   3.550   9.317
 3526W        W 7577   7.200   7.495  11.742
 3527W        W 7578   3.750   2.614   0.269
 3528W        W 7579   6.012   8.256   3.548
 3529W        W 7580   9.430   0.504   0.951
 3530W        W 7581   5.711   3.107   3.579
 3531W        W 7582   9.460   6.999  10.226
 3532W        W 7583   3.766   4.037   9.668
 3533W        W 7584   1.709   3.100   0.418
 3534W        W 7585   3.331   5.993   8.711
 3535W        W 7586  10.728   9.025   2.343
 3536W        W 7587   1.933   1.629  10.578
 3537W        W 7588  11.372  10.379   9.047
 3538W        W 7589   4.385   4.411  10.330
 3539W        W 7590   3.376   2.829  11.599
 3540W        W 7591   4.133   7.439  11.367
 3541W        W 7592   3.785   4.507   9.981
 3542W        W 7593   1.622   0.394  11.261
 3543W        W 7594   4.842  11.361   1.235
 3544W        W 7595   9.282   9.162   8.481
 3545W        W 7596   1.988   2.052   8.810
 3546W        W 7597   3.008   4.126   0.795
 3547W        W 7598   2.860   3.702   1.015
 3548W        W 7599   6.224   9.933   2.680
 3549W        W 7600   2.345  10.806   9.055
 3550W        W 7601  10.879   6.980   9.444
 3551W        W 7602   5.219   8.538   9.460
 3552W        W 7603  11.129   3.773  10.465
 3553W        W 7604  11.222   8.292  11.199
 3554W        W 7605   0.270   7.494   0.002
 3555W        W 7606   0.281   8.184  10.030
 3556W        W 7607   4.316   5.109   2.068
 3557W        W 7608   6.024   3.686  11.882
 3558W        W 7609   6.582   2.135  11.537
 3559W        W 7610   7.177   3.181   2.530
 3560W        W 7611  10.008   4.414   1.583
 3561W        W 7612  10.244   6.576   0.417
 3562W        W 7613   8.489   3.788  11.910
 3563W        W 7614   4.945   8.299   0.870
 3564W        W 7615   9.984   1.279  11.059
 3565W        W 7616   3.534   6.214  11.984
 3566W        W 7617   2.591   7.044   3.152
 3567W        W 7618   1.439   1.200   8.410
 3568W        W 7619   0.391   5.595   1.051
 3569W        W 7620   5.993   8.388   0.751
 3570W        W 7621  10.324   4.566   2.417
 3571W        W 7622   7.672   6.699   1.599
 3572W        W 7623   6.419   8.597   3.579
 3573W        W 7624   1.722   8.367   0.930
 3574W        W 7625   0.550   7.023   8.634
 3575W        W 7626   1.384   1.379   8.866
 3576W        W 7627   9.599   6.043   8.551
 3577W        W 7628  11.366   1.570   9.258
 3578W        W 7629   5.877   5.102   2.738
 3579W        W 7630   7.612  11.476   0.156
 3580W        W 7631   1.370  10.797   1.287
 3581W        W 7632   7.976   1.526   1.010
 3582W        W 7633   2.289  10.494   3.465
 3583W        W 7634   0.527   8.713   3.442
 3584W        W 7635  11.162  11.411   8.759
 3585W        W 7636   6.011   7.502   2.331
 3586W        W 7637  11.060   2.303   0.860
 3587W        W 7638   9.505  11.222   1.845
 3588W        W 7639   9.653   6.613   3.594
 3589W        W 7640   3.341   0.427   0.509
 3590W        W 7641   6.591   5.282   1.383
 3591W        W 7642  10.171   6.935   2.273
 3592W        W 7643   6.769   1.161  10.079
 3593W        W 7644   4.489   9.584   8.857
 3594W        W 7645   3.321   0.040   3.448
 3595W        W 7646   2.848   6.713   0.523
 3596W        W 7647   1.356   1.693   2.239
 3597W        W 7648   0.673   7.089   9.991
 3598W        W 7649   2.944   7.049  10.778
 3599W        W 7650   3.810   2.596  11.353
 3600W        W 7651   9.078  10.541   9.449
 3601W        W 7652   0.201   3.458   3.140
 3602W        W 7653   2.110   8.574   0.676
 3603W        W 7654   5.255   9.865   1.315
 3604W        W 7655   3.712   8.426  10.211
 3605W        W 7656   5.355  11.328   1.169
 3606W        W 7657   3.427   9.946   3.227
 3607W        W 7658   3.826   4.371  11.830
 3608W        W 7659   2.430   7.972  11.326
 3609W        W 7660   5.506   7.025   9.574
 3610W        W 7661   6.243   5.884   8.680
 3611W        W 7662  10.282   9.406   8.977
 3612W        W 7663   4.658   6.445  10.839
 3613W        W 7664   2.898   5.288  10.840
 3614W        W 7665   3.053   2.463   3.125
 3615W        W 7666  10.072   5.667   9.615
 3616W        W 7667   3.676   4.351  10.966
 3617W        W 7668   6.533   1.199   0.837
 3618W        W 7669  10.346   1.083   1.307
 3619W        W 7670   2.101   8.112   9.087
 3620W        W 7671   2.196   7.131   2.810
 3621W        W 7672   0.710   4.670   2.468
 3622W        W 7673   3.172   5.774  11.501
 3623W        W 7674   7.552   1.528   2.880
 3624W        W 7675   3.696   7.745   2.777
 3625W        W 7676   6.236   0.028  11.258
 3626W        W 7677   1.936   6.326  11.302
 3627W        W 7678   5.255   4.239   0.548
 3628W        W 7679   5.499   3.350   0.745
 3629W        W 7680   4.021   0.632   3.477
 3630W        W 7681   7.762   6.869   2.103
 3631W        W 7682   2.646   9.356   9.445
 3632W        W 7683   2.718   3.781  11.453
 3633W        W 7684   8.383   5.248   9.045
 3634W        W 7685   5.748   6.556   9.695
 3635W        W 7686   8.385   4.175   1.868
 3636W        W 7687   8.106   8.153  10.899
 3637W        W 7688   2.322   8.624   9.840
 3638W        W 7689   4.835   1.718   0.954
 3639W        W 7690   5.323   9.983   8.869
 3640W        W 7691   3.613  10.155   1.678
 3641W        W 7692   5.519  10.224   2.001
 3642W        W 7693   9.747   6.145   2.597
 3643W        W 7694   6.889   9.401   1.486
 3644W        W 7695   0.290   4.143   0.876
 3645W        W 7696  10.675   6.616  11.106
 3646W        W 7697   6.787   2.260   8.054
 3647W        W 7698   1.946   1.377   8.910
 3648W        W 7699   7.471   3.985   2.341
 3649W        W 7700   3.206  10.024  10.365
 3650W        W 7701   4.858   2.002   0.415
 3651W        W 7702  10.151   5.667   2.987
 3652W        W 7703   4.128   0.487   0.929
 3653W        W 7704   7.880   6.274   1.814
 3654W        W 7705  11.126   6.497   8.602
 3655W        W 7706   0.671   9.275   0.284
 3656W        W 7707   6.277   3.304  10.100
 3657W        W 7708   0.933   0.153   3.215
 3658W        W 7709   2.102   2.415   1.366
 3659W        W 7710  10.814   0.308  10.855
 3660W        W 7711   8.537   4.186   1.333
 3661W        W 7712  10.578   4.989   0.928
 3662W        W 7713   5.912   8.011   9.081
 3663W        W 7714   1.761   7.362   1.912
 3664W        W 7715   1.126   3.303   1.920
 3665W        W 7716   3.561   1.349   2.390
 3666W        W 7717   8.157   2.112  10.109
 3667W        W 7718   4.560   4.873   1.497
 3668W        W 7719   0.291  10.571  10.387
 3669W        W 7720   0.982   3.299   2.597
 3670W        W 7721   9.919   7.585  11.318
 3671W        W 7722   8.650  10.441   3.153
 3672W        W 7723   6.522   4.837  11.473
 3673W        W 7724   8.094   3.595   3.354
 3674W        W 7725  10.582   2.672   3.387
 3675W        W 7726   5.707   6.312   0.009
 3676W        W 7727   1.900   6.176  10.246
 3677W        W 7728   7.347  11.037   0.880
 3678W        W 7729   1.903   9.831  10.834
 3679W        W 7730   5.154   8.900  11.221
 3680W        W 7731   3.865   9.946  11.747
 3681W        W 7732   7.023   4.348   3.930
 3682W        W 7733   2.578   1.692  10.895
 3683W        W 7734   6.865  11.316  10.429
 3684W        W 7735  11.272  10.342   1.161
 3685W        W 7736   5.478   4.051  11.211
 3686W        W 7737   7.162   9.657   9.274
 3687W        W 7738   4.420   4.288   2.094
 3688W        W 7739  10.187   5.277   2.661
 3689W        W 7740   2.244   0.734  11.731
 3690W        W 7741   8.099   9.644  10.433
 3691W        W 7742   1.775   2.211   3.134
 3692W        W 7743   6.091   3.191   1.700
 3693W        W 7744  10.885   1.732   9.306
 3694W        W 7745   2.244   6.156   1.463
 3695W        W 7746   0.178  11.424   0.972
 3696W        W 7747   9.615   5.323   0.764
 3697W        W 7748   4.233   1.890  11.214
 3698W        W 7749  10.094   3.891   1.623
 3699W        W 7750   3.186  10.418   1.371
 3700W        W 7751   4.894   8.648   9.072
 3701W        W 7752   8.596   8.283   3.470
 3702W        W 7753   3.039   3.071  10.464
 3703W        W 7754   5.316  11.172   0.251
 3704W        W 7755   8.477   6.705  11.401
 3705W        W 7756   6.677   7.089   0.765
 3706W        W 7757   6.099   1.600   9.980
 3707W        W 7758  10.056   8.415   1.396
 3708W        W 7759   7.954   0.978   9.588
 3709W        W 7760   1.141   1.485  10.318
 3710W        W 7761   5.912   9.372   1.710
 3711W        W 7762  11.425  11.479  11.364
 3712W        W 7763   1.131   4.360   2.683
 3713W        W 7764   3.123   1.260   0.516
 3714W        W 7765   9.498   3.911   0.867
 3715W        W 7766   3.071   8.431   1.974
 3716W        W 7767   3.834   4.696   3.131
 3717W        W 7768   6.196   0.775  10.813
 3718W        W 7769   4.398   1.745   2.141
 3719W        W 7770   1.340   6.572   2.693
 3720W        W 7771  11.014  10.759   2.037
 3721W        W 7772   3.039   4.634  11.990
 3722W        W 7773   6.506   9.536  11.024
 3723W        W 7774   4.095   8.656   9.892
 3724W        W 7775  10.282   3.246  11.856
 3725W        W 7776  10.098  11.412  11.902
 3726W        W 7777   4.192   8.304   0.416
 3727W        W 7778   9.926   2.180   0.330
 3728W        W 7779   1.170   4.059   9.842
 3729W        W 7780   9.512   6.755  11.264
 3730W        W 7781   1.284   7.094   1.876
 3731W        W 7782   2.766   2.309   9.502
 3732W        W 7783   3.021   0.573   9.922
 3733W        W 7784   4.260   7.263  10.886
 3734W        W 7785   0.895  11.169   3.007
 3735W        W 7786   5.487   6.555   2.655
 3736W        W 7787   6.069   4.678  11.732
 3737W        W 7788   7.209   3.704   0.269
 3738W        W 7789  10.207   6.666   9.969
 3739W        W 7790   8.967   9.572   2.685
 3740W        W 7791   0.371   2.377   1.997
 3741W        W 7792   3.840   9.992   2.539
 3742W        W 7793  11.495   5.287   9.388
 3743W        W 7794  11.486   5.291   1.003
 3744W        W 7795   4.989   5.161  10.330
 3745W        W 7796   7.148   2.881  10.257
 3746W        W 7797   9.877   0.674   2.585
 3747W        W 7798   3.528   1.330  11.671
 3748W        W 7799  11.033   8.543  11.901
 3749W        W 7800   4.177   2.335   1.291
 3750W        W 7801   9.917   6.625   9.541
 3751W        W 7802   0.389   1.390   3.184
 3752W        W 7803   4.132   3.078   0.734
 3753W        W 7804   9.989   6.657  11.969
 3754W        W 7805   1.640   1.494   1.322
 3755W        W 7806  10.612   4.100   1.639
 3756W        W 7807   0.263   7.491   1.043
 3757W        W 7808  11.427   0.454   1.804
 3758W        W 7809   0.227   3.089   0.933
 3759W        W 7810   3.684  11.093   1.683
 3760W        W 7811   2.007   6.866   0.305
 3761W        W 7812  11.455   3.958   9.473
 3762W        W 7813  10.269   6.074  10.358
 3763W        W 7814   1.445   7.841   1.423
 3764W        W 7815  11.091   1.712  11.338
 3765W        W 7816   2.241   8.107   1.709
 3766W        W 7817   3.694   7.443   2.380
 3767W        W 7818   8.029  10.243   1.024
 3768W        W 7819   1.349   5.600   2.262
 3769W        W 7820   7.352   8.460   0.907
 3770W        W 7821   5.335   8.975   2.827
 3771W        W 7822   6.172   3.044   8.205
 3772W        W 7823   6.770   3.659  10.407
 3773W        W 7824   6.023   4.200   8.942
 3774W        W 7825   9.439   1.912  11.995
 3775W        W 7826   6.444   8.134   3.816
 3776W        W 7827   9.130   3.337   0.923
 3777W        W 7828   4.259   9.322   2.145
 3778W        W 7829   4.765  10.871  10.727
 3779W        W 7830   0.873   4.602   1.476
 3780W        W 7831   4.259   2.331  11.470
 3781W        W 7832  10.045   6.418   8.528
 3782W        W 7833   1.020   7.513  11.387
 3783W        W 7834  10.096   9.722   2.222
 3784W        W 7835   6.769   6.399   1.183
 3785W        W 7836   6.135   6.547  11.205
 3786W        W 7837   2.448   9.365   1.208
 3787W        W 7838   5.577   9.426  10.791
 3788W        W 7839   1.832   0.811   9.562
 3789W        W 7840   5.761   8.844  10.746
 3790W        W 7841   6.166   0.921   9.074
 3791W        W 7842   7.035   9.581  10.852
 3792W        W 7843   5.670   1.857  10.526
 3793W        W 7844   1.786   3.573   9.928
 3794W        W 7845   4.817   1.073   1.676
 3795W        W 7846   7.423  10.171   8.471
 3796W        W 7847   4.536   7.165   1.025
 3797W        W 7848   6.522   2.894   9.917
 3798W        W 7849  10.007   6.609  11.282
 3799W        W 7850  10.783   4.671   2.243
 3800W        W 7851   5.530   4.658   1.417
 3801W        W 7852   0.281   6.021   8.835
 3802W        W 7853   7.518  10.818   9.307
 3803W        W 7854   8.006   9.510   2.374
 3804W        W 7855   2.253  11.051   3.167
 3805W        W 7856   3.650   4.155   0.246
 3806W        W 7857   0.388   8.864  10.607
 3807W        W 7858   8.614   2.726   0.027
 3808W        W 7859   9.894   6.549   1.409
 3809W        W 7860   5.132   0.171   9.470
 3810W        W 7861   0.097   7.838   1.391
 3811W        W 7862  10.035   7.101   1.418
 3812W        W 7863   7.707   5.924  10.641
 3813W        W 7864   6.234   3.558   8.260
 3814W        W 7865   5.150   6.781   2.989
 3815W        W 7866   0.642   1.291   1.482
 3816W        W 7867   4.156  10.444   2.930
 3817W        W 7868  10.948   7.736   0.033
 3818W        W 7869   1.846   1.482  11.899
 3819W        W 7870   7.204   1.264  10.440
 3820W        W 7871  10.108   8.463   3.333
 3821W        W 7872   7.943   0.010   9.507
 3822W        W 7873  10.375   8.480  11.073
 3823W        W 7874   2.375   8.926   0.434
 3824W        W 7875   1.194   4.606   3.529
 3825W        W 7876   5.460   0.856  10.385
 3826W        W 7877   2.002  10.293   0.584
 3827W        W 7878   9.272   6.992   0.772
 3828W        W 7879   2.378   1.983   1.348
 3829W        W 7880   2.647  10.427   1.457
 3830W        W 7881   2.311   7.654   9.020
 3831W        W 7882   4.828   9.012   0.381
 3832W        W 7883   1.677   3.189  10.626
 3833W        W 7884   6.065   9.259  10.910
 3834W        W 7885   8.394   2.938   1.783
 3835W        W 7886   3.468   3.420   2.225
 3836W        W 7887   0.880   0.474  11.847
 3837W        W 7888  10.737   4.596   3.224
 3838W        W 7889   1.768   7.886   1.853
 3839W        W 7890   4.567   9.834   1.818
 3840W        W 7891  11.141   5.103   0.058
 3841W        W 7892   1.648   1.755   9.093
 3842W        W 7893   5.052   2.498   9.757
 3843W        W 7894  10.455   0.860   8.581
 3844W        W 7895   2.688   1.423   2.284
 3845W        W 7896   4.762   3.266  11.772
 3846W        W 7897   5.117   8.181  10.620
 3847W        W 7898   7.693   4.287   0.264
 3848W        W 7899   8.927   8.346   0.342
 3849W        W 7900   9.602   0.283   9.843
 3850W        W 7901   4.161   7.356   1.789
 3851W        W 7902   8.737   8.535   9.059
 3852W        W 7903   3.852   7.100  10.624
 3853W        W 7904   5.048   6.011   0.462
 3854W        W 7905   6.729   8.046   9.937
 3855W        W 7906   9.640   7.596   1.844
 3856W        W 7907   6.519   1.883   3.306
 3857W        W 7908  11.025   9.404   2.574
 3858W        W 7909   2.404   1.465  10.433
 3859W        W 7910   0.924   1.402   0.556
 3860W        W 7911   4.208  11.499   3.073
 3861W        W 7912  11.367   8.990   3.462
 3862W        W 7913   0.500   6.488   2.613
 3863W        W 7914   5.649   1.361  10.380
 3864W        W 7915   3.243   3.802   3.274
 3865W        W 7916   7.153   3.600   9.549
 3866W        W 7917   8.660   1.795   2.318
 3867W        W 7918   1.748   2.534   2.735
 3868W        W 7919   3.222   0.957   1.759
 3869W        W 7920   2.683   2.708   2.844
 3870W        W 7921  10.385   6.982   1.786
 3871W        W 7922   9.863   4.298   2.327
 3872W        W 7923   0.948   5.961   2.160
 3873W        W 7924   0.832   1.061   9.507
 3874W        W 7925   5.687   5.149   1.274
 3875W        W 7926   6.815   2.356   1.473
 3876W        W 7927   7.063   6.691  10.517
 3877W        W 7928   0.097   7.185   2.127
 3878W        W 7929   2.654   9.671   0.776
 3879W        W 7930   4.237   5.214  12.000
 3880W        W 7931  11.063   2.806  11.241
 3881W        W 7932   1.223   5.603  11.562
 3882W        W 7933   5.138   7.749  11.009
 3883W        W 7934   4.423   2.043   1.656
 3884W        W 7935   5.726   8.543   2.789
 3885W        W 7936   9.415   5.634  10.822
 3886W        W 7937   4.106   7.082   9.772
 3887W        W 7938  11.297   3.352   8.661
 3888W        W 7939   8.655   2.824  10.498
 3889W        W 7940   8.430   8.514   8.616
 3890W        W 7941   4.925   2.480   0.209
 3891W        W 7942   3.944   7.928   9.451
 3892W        W 7943   3.266   2.890   2.219
 3893W        W 7944  10.775  10.010  10.471
 3894W        W 7945   2.910   9.989   9.162
 3895W        W 7946   1.235   6.578   3.237
 3896W        W 7947   7.710   0.253   3.368
 3897W        W 7948   3.377   6.661  11.217
 3898W        W 7949  10.906   1.812   3.196
 3899W        W 7950   4.097   1.306   2.364
 3900W        W 7951   6.515   2.505   8.411
 3901W        W 7952   3.749   7.190   1.493
 3902W        W 7953   1.116   6.990   1.367
 3903W        W 7954   3.712  11.466  10.502
 3904W        W 7955   2.226   4.609  10.298
 3905W        W 7956   3.853   1.379   1.375
 3906W        W 7957   7.884   8.542   0.922
 3907W        W 7958   5.461   1.185   1.149
 3908W        W 7959  11.437   3.726   1.632
 3909W        W 7960   0.490   5.373   9.395
 3910W        W 7961   5.240  10.911  11.064
 3911W        W 7962   7.029   9.486  11.749
 3912W        W 7963   1.864   0.283   2.200
 3913W        W 7964  11.303   2.528   9.276
 3914W        W 7965   0.798   1.776   0.942
 3915W        W 7966   7.106   2.152  11.916
 3916W        W 7967   5.324   5.144   0.498
 3917W        W 7968   1.807   3.885  10.966
 3918W        W 7969   0.287   1.318   9.455
 3919W        W 7970   5.917   9.626   1.253
 3920W        W 7971   5.065   3.064   2.723
 3921W        W 7972   1.235   2.273  11.181
 3922W        W 7973   7.986   4.661   0.677
 3923W        W 7974   9.617   2.379  11.980
 3924W        W 7975  11.403   6.621   3.434
 3925W        W 7976   2.764   0.724   9.488
 3926W        W 7977  10.901   3.620   8.940
 3927W        W 7978   8.550   3.835   3.249
 3928W        W 7979   5.263   2.751   0.498
 3929W        W 7980   2.177   1.326  11.539
 3930W        W 7981   2.444   8.379   2.582
 3931W        W 7982   0.176   0.787  11.432
 3932W        W 7983  11.135   1.630  10.829
 3933W        W 7984   1.481   1.854  10.447
 3934W        W 7985   2.898   6.938   9.029
 3935W        W 7986   2.989   8.330   2.459
 3936W        W 7987  10.616   7.808   3.435
 3937W        W 7988   3.434  10.641   1.768
 3938W        W 7989   2.447   9.868   1.207
 3939W        W 7990   0.728   1.169  10.811
 3940W        W 7991  11.239  10.603  11.974
 3941W        W 7992  11.181   7.906  11.548
 3942W        W 7993   5.280  10.076   2.707
 3943W        W 7994   6.105   4.756   0.722
 3944W        W 7995  11.488   4.904   1.315
 3945W        W 7996   6.551   0.845   8.734
 3946W        W 7997   3.602   6.169   0.487
 3947W        W 7998   8.458   4.015   9.954
 3948W        W 7999   2.896   9.114   1.247
 3949W        W 8000   9.904   2.863   8.381
 3950W        W 8001   8.439   4.290  11.852
 3951W        W 8002   8.855   2.576   2.085
 3952W        W 8003   7.645   0.796  11.096
 3953W        W 8004   8.246   6.448  10.089
 3954W        W 8005   9.158   1.274   8.981
 3955W        W 8006   8.340   6.971  10.777
 3956W        W 8007   9.194   6.717   8.209
 3957W        W 8008   2.936   0.403   3.392
 3958W        W 8009   9.532   6.288   9.059
 3959W        W 8010  10.344   9.333   1.381
 3960W        W 8011   8.966   8.091   8.999
 3961W        W 8012   4.985   4.728   1.249
 3962W        W 8013   2.822   5.907  10.187
 3963W        W 8014   6.199   4.236   0.481
 3964W        W 8015   5.634   3.871   9.048
 3965W        W 8016   3.667   2.558   2.066
 3966W        W 8017   2.692   9.606   3.189
 3967W        W 8018   0.545   9.943  11.130
 3968W        W 8019   7.875   2.404  10.455
 3969W        W 8020   4.210  10.013   8.815
 3970W        W 8021   2.685   0.570  10.323
 3971W        W 8022   3.452  10.129  11.477
 3972W        W 8023   9.498   1.598   0.386
 3973W        W 8024   7.681   1.237   9.974
 3974W        W 8025   3.589  10.301  10.969
 3975W        W 8026   7.712  11.097  10.655
 3976W        W 8027   4.181   3.464   0.395
 3977W        W 8028   7.519  10.394   9.584
 3978W        W 8029   1.626  10.492  11.702
 3979W        W 8030   7.618   6.169   3.846
 3980W        W 8031   9.939   2.857   2.233
 3981W        W 8032   6.694   9.901   1.325
 3982W        W 8033   6.664   3.384   9.763
 3983W        W 8034  11.342   9.025   9.553
 3984W        W 8035   2.826   9.963   1.554
 3985W        W 8036   7.202   8.452   2.430
 3986W        W 8037   9.162   5.533  10.074
 3987W        W 8038  10.705   2.299   1.264
 3988W        W 8039   5.612   4.854  11.941
 3989W        W 8040   6.079   2.352   3.211
 3990W        W 8041   0.652   5.893   9.982
 3991W        W 8042   4.624   6.793   0.244
 3992W        W 8043   2.206   3.936   1.865
 3993W        W 8044   4.461  10.805   8.823
 3994W        W 8045   1.017   6.763  10.330
 3995W        W 8046   9.271   9.002  10.358
 3996W        W 8047   0.425   0.103   0.552
 3997W        W 8048   8.607   7.992   2.260
 3998W        W 8049   1.465   9.326  10.074
 3999W        W 8050   4.316  10.367   0.547
 4000W        W 8051   4.593   0.780   1.314
 4001W        W 8052   0.228   0.658   8.747
 4002W        W 8053   7.654   9.049   1.112
 4003W        W 8054   5.379   0.404   2.960
 4004W        W 8055  11.471   5.260   2.320
 4005W        W 8056   0.837   6.259  10.919
 4006W        W 8057   9.707   9.579   0.236
 4007W        W 8058   5.221  11.391  11.268
 4008W        W 8059   0.783   4.629   1.969
 4009W        W 8060   7.680   7.569  10.433
 4010W        W 8061   8.162   0.480   3.502
 4011W        W 8062   4.475   7.125   9.371
 4012W        W 8063   4.118  10.127   1.834
 4013W        W 8064   3.113   3.654  10.059
 4014W        W 8065   9.601   0.556   3.578
 4015W        W 8066   3.348  10.966  11.710
 4016W        W 8067   1.038   5.118   0.317
 4017W        W 8068   7.849   2.403  11.497
 4018W        W 8069  10.871   5.011   0.500
 4019W        W 8070   5.071   0.448   2.187
 4020W        W 8071   6.304  11.238   1.186
 4021W        W 8072   1.847  10.909   9.686
 4022W        W 8073   3.736   4.970   1.744
 4023W        W 8074   8.793  10.464   3.640
 4024W        W 8075   6.016   9.993   0.876
 4025W        W 8076   3.547  10.633  11.374
 4026W        W 8077   5.041   3.428  10.591
 4027W        W 8078  10.870   7.697   3.002
 4028W        W 8079   3.111   7.496   0.352
 4029W        W 8080   9.566   4.997   4.239
 4030W        W 8081   4.784   7.967  10.268
 4031W        W 8082   3.410   2.809   3.192
 4032W        W 8083   0.586   0.872   1.749
 4033W        W 8084   7.449   9.778   3.181
 4034W        W 8085   2.892   4.491  10.418
 4035W        W 8086   5.100   9.006   2.042
 4036W        W 8087   5.290   3.169   8.761
 4037W        W 8088  10.322   6.933   9.523
 4038W        W 8089   9.118   3.694   9.475
 4039W        W 8090   8.798   1.307   1.291
 4040W        W 8091   2.777   1.262   9.520
 4041W        W 8092   2.208   2.827   3.041
 4042W        W 8093   5.826  10.601  10.482
 4043W        W 8094   3.741   2.646   9.839
 4044W        W 8095  10.904   3.306   9.879
 4045W        W 8096  11.009   5.064   2.462
 4046W        W 8097   8.046   1.032   3.449
 4047W        W 8098  11.002   3.153  10.397
 4048W        W 8099  11.365   2.331   0.411
 4049W        W 8100   3.333   9.335  11.076
 4050W        W 8101   5.010   1.589   9.282
 4051W        W 8102   9.607   7.490  10.368
 4052W        W 8103   4.232   2.853  11.510
 4053W        W 8104   6.589   0.414   1.378
 4054W        W 8105   0.121   8.581   1.086
 4055W        W 8106   0.053   2.347  10.392
 4056W        W 8107   0.562   3.769   3.344
 4057W        W 8108   2.659   6.224   3.273
 4058W        W 8109   2.851   2.009   1.175
 4059W        W 8110   2.702   3.176   3.545
 4060W        W 8111   8.830   0.403   1.845
 4061W        W 8112   0.449   9.236   3.515
 4062W        W 8113   8.922   5.200   2.283
 4063W        W 8114   6.269   2.997   3.706
 4064W        W 8115  11.267   5.671   9.635
 4065W        W 8116   9.167   8.070  11.893
 4066W        W 8117   7.655  11.280  11.138
 4067W        W 8118   1.812   2.469  10.880
 4068W        W 8119   2.343   0.063   3.305
 4069W        W 8120   3.332   9.631  11.484
 4070W        W 8121   6.711   6.972   0.277
 4071W        W 8122   1.320   7.617   1.847
 4072W        W 8123   9.444   8.681   8.526
 4073W        W 8124  10.072   4.817   2.809
 4074W        W 8125  10.165   0.021   0.699
 4075W        W 8126   9.659   4.078   1.340
 4076W        W 8127   4.569   2.166   8.643
 4077W        W 8128   6.678   0.421   3.266
 4078W        W 8129   9.689   1.461   0.834
 4079W        W 8130   4.633  11.496   9.621
 4080W        W 8131   6.139   1.346   2.179
 4081W        W 8132   9.884   7.513  10.807
 4082W        W 8133   7.941   5.003  11.549
 4083W        W 8134   7.934   9.519   0.233
 4084W        W 8135   5.621   5.753   2.054
 4085W        W 8136   8.254   2.284   0.872
 4086W        W 8137   2.939  10.017   3.384
 4087W        W 8138   6.600   8.983   0.767
 4088W        W 8139   6.348   9.827   3.175
 4089W        W 8140   5.537   5.850   1.563
 4090W        W 8141   8.453   8.125   0.214
 4091W        W 8142   6.403   2.222   1.837
 4092W        W 8143   0.741   3.251   0.428
 4093W        W 8144   9.577   8.937   8.967
 4094W        W 8145   8.333   3.041   9.941
 4095W        W 8146  11.103   2.910   9.607
 4096W        W 8147   4.734   2.939  11.387
 4097W        W 8148   6.559  11.369  11.846
 4098W        W 8149   9.879   2.310   8.578
 4099W        W 8150  10.335   0.326  11.699
 4100W        W 8151   0.758   4.327   9.991
 4101W        W 8152  11.265   4.854   0.818
 4102W        W 8153   8.413   2.048   2.779
 4103W        W 8154   5.439   9.773   3.105
 4104W        W 8155  10.450  10.923   1.366
 4105W        W 8156   9.001   8.607  10.780
 4106W        W 8157  11.479   8.732  11.320
 4107W        W 8158   7.106  10.080   9.555
 4108W        W 8159   0.191   0.739   3.438
 4109W        W 8160   4.916   1.937   8.282
 4110W        W 8161   7.836   1.167   2.212
 4111W        W 8162   8.042  11.309  11.881
 4112W        W 8163   6.471   6.402   9.067
 4113W        W 8164  10.619   9.520   3.127
 4114W        W 8165  11.072   4.715   2.836
 4115W        W 8166   0.040   9.839   2.260
 4116W        W 8167   8.950   2.202   9.548
 4117W        W 8168   4.525  10.980   0.391
 4118W        W 8169   7.100   2.334   2.473
 4119W        W 8170   5.736   1.332  11.364
 4120W        W 8171  10.414   0.590   3.736
 4121W        W 8172  11.481   6.138   3.203
 4122W        W 8173   5.232   5.560   1.275
 4123W        W 8174   2.676   6.942   1.852
 4124W        W 8175   5.056   7.597  10.025
 4125W        W 8176  10.908   5.460   8.570
 4126W        W 8177   0.830   5.719  10.495
 4127W        W 8178   5.531   9.512   2.670
 4128W        W 8179   3.092   8.464  10.928
 4129W        W 8180   5.543  10.197   0.841
 4130W        W 8181   1.369   1.975   1.195
 4131W        W 8182   4.154   7.411   1.289
 4132W        W 8183   3.659  11.428   1.290
 4133W        W 8184   6.156   0.857   2.982
 4134W        W 8185  11.146  10.533   1.616
 4135W        W 8186   0.900   0.527   3.678
 4136W        W 8187  10.083   3.234   0.369
 4137W        W 8188   4.278   9.048  11.199
 4138W        W 8189  11.120   3.900   0.127
 4139W        W 8190   3.796   3.126   0.309
 4140W        W 8191   0.131   3.182   1.802
 4141W        W 8192   6.518   7.395   2.317
 4142W        W 8193   4.824   7.017   3.299
 4143W        W 8194   4.572  10.294  10.350
 4144W        W 8195   9.541   2.462  10.175
 4145W        W 8196   0.979   8.707   3.163
 4146W        W 8197   9.461   6.193   1.454
 4147W        W 8198   7.119   1.811   9.326
 4148W        W 8199  11.289   3.012  11.636
 4149W        W 8200   8.133   8.130   0.739
 4150W        W 8201   6.626   1.587   2.897
 4151W        W 8202   9.054   2.262   9.045
 4152W        W 8203   8.740   4.595  11.295
 4153W        W 8204   2.288   1.805  10.075
 4154W        W 8205   1.939   5.336   9.905
 4155W        W 8206   1.070   2.317   0.229
 4156W        W 8207  11.225   6.940   9.847
 4157W        W 8208   2.125  10.917  11.323
 4158W        W 8209   7.939   4.019   1.668
 4159W        W 8210   0.910   8.417   2.736
 4160W        W 8211   8.538   1.818  11.439
 4161W        W 8212   6.972   4.704  10.253
 4162W        W 8213   7.017   1.318   9.361
 4163W        W 8214  11.272   1.355   1.944
 4164W        W 8215   4.373   5.595   1.874
 4165W        W 8216   9.101   8.499   1.794
 4166W        W 8217   5.088   9.399   2.960
 4167W        W 8218   6.049   2.876   3.259
 4168W        W 8219   2.184   7.472   0.509
 4169W        W 8220   8.265   2.669   2.728
 4170W        W 8221   9.003  11.333   2.671
 4171W        W 8222   2.449   9.075   8.593
 4172W        W 8223   4.909   2.964  10.442
 4173W        W 8224   8.886   9.570   9.751
 4174W        W 8225   5.262   7.508   9.583
 4175W        W 8226   9.230   6.074  11.745
 4176W        W 8227   7.963   8.702  10.049
 4177W        W 8228   5.548   8.182   0.240
 4178W        W 8229   9.520   1.538   9.802
 4179W        W 8230   6.036   3.820   1.079
 4180W        W 8231   1.147   7.426   3.164
 4181W        W 8232   3.705   8.990   3.240
 4182W        W 8233   4.864   0.996   0.405
 4183W        W 8234   2.488   8.023   9.406
 4184W        W 8235   2.213   8.410   1.170
 4185W        W 8236   2.039   4.217   9.395
 4186W        W 8237   4.673   5.251   0.252
 4187W        W 8238   1.405   8.593   2.792
 4188W        W 8239   4.397   9.473   2.611
 4189W        W 8240  11.253   7.785  11.045
 4190W        W 8241   6.064   5.879   1.782
 4191W        W 8242   0.385   8.057  11.777
 4192W        W 8243  10.756   8.157  11.759
 4193W        W 8244  10.828   1.511  10.112
 4194W        W 8245   8.427   9.393   9.597
 4195W        W 8246  11.403   4.387   0.656
 4196W        W 8247   5.936   4.715   9.120
 4197W        W 8248  10.471   5.168   1.817
 4198W        W 8249   5.189   3.965   0.951
 4199W        W 8250   4.680   6.972  10.880
 4200W        W 8251   1.046  10.556   3.654
 4201W        W 8252   5.429  10.310  10.245
 4202W        W 8253   7.690   2.724   9.442
 4203W        W 8254   6.619   0.902   0.430
 4204W        W 8255   8.124   8.646   1.969
 4205W        W 8256   0.815   1.064  11.313
 4206W        W 8257   1.608   0.895   0.737
 4207W        W 8258   8.505   5.600  11.387
 4208W        W 8259   4.545   7.547  10.561
 4209W        W 8260   1.424   2.939   9.064
 4210W        W 8261   2.568   8.621  11.057
 4211W        W 8262   6.340   2.344   0.368
 4212W        W 8263   9.283   4.185   9.333
 4213W        W 8264  11.223   5.356   1.427
 4214W        W 8265   4.355   6.663   9.976
 4215W        W 8266   9.685   0.985   1.713
 4216W        W 8267   9.136   8.043   0.781
 4217W        W 8268  10.467  10.331  11.052
 4218W        W 8269   9.797   9.634  11.606
 4219W        W 8270  10.509   8.434   9.100
 4220W        W 8271   2.951  10.873   1.449
 4221W        W 8272   0.742   3.810   9.963
 4222W        W 8273  10.240   7.522   1.161
 4223W        W 8274   9.118   1.747   8.748
 4224W        W 8275   9.488   8.413   2.187
 4225W        W 8276   7.410   7.613  10.870
 4226W        W 8277   0.876   9.628   2.198
 4227W        W 8278   1.977   9.616   1.220
 4228W        W 8279   4.164   6.246   9.751
 4229W        W 8280   0.531   2.567   1.543
 4230W        W 8281   6.004   5.688   2.360
 4231W        W 8282   5.033   0.498   9.008
 4232W        W 8283   7.728  10.561   0.251
 4233W        W 8284   7.719   9.049   2.600
 4234W        W 8285   7.429   2.785   0.907
 4235W        W 8286   8.199   1.344  11.764
 4236W        W 8287   2.330   8.524   9.335
 4237W        W 8288   7.974  11.313   2.488
 4238W        W 8289   4.122   6.902   1.195
 4239W        W 8290   8.517   0.156   1.492
 4240W        W 8291   9.270   4.540  11.418
 4241W        W 8292  11.361   1.212  11.002
 4242W        W 8293   3.620   1.216   9.658
 4243W        W 8294   9.127   5.797   8.624
 4244W        W 8295  10.053  10.487  11.318
 4245W        W 8296   2.274   7.245  11.556
 4246W        W 8297   4.850   2.156   1.897
 4247W        W 8298   5.212   1.201  10.053
 4248W        W 8299  11.499  10.457   3.269
 4249W        W 8300   1.753   8.398   1.831
 4250W        W 8301   6.034   3.725   3.843
 4251W        W 8302   4.129   4.759   8.670
 4252W        W 8303   8.115   9.465   1.735
 4253W        W 8304   5.821   9.024   0.020
 4254W        W 8305  11.166   4.257  10.248
 4255W        W 8306   4.055   1.503   0.911
 4256W        W 8307  11.237   7.463   1.219
 4257W        W 8308   5.233   8.458  11.511
 4258W        W 8309   4.732   4.294  11.863
 4259W        W 8310  10.015   1.628   0.374
 4260W        W 8311   8.478  10.217   1.301
 4261W        W 8312  10.500  10.886   8.836
 4262W        W 8313   0.442   9.474   2.982
 4263W        W 8314   7.385   4.008   9.159
 4264W        W 8315   1.743   5.983   3.247
 4265W        W 8316   4.321   0.296   0.442
 4266W        W 8317   6.174   7.463  11.261
 4267W        W 8318   7.127   9.165  10.028
 4268W        W 8319   2.884   0.981   2.120
 4269W        W 8320   9.376   8.875   3.578
 4270W        W 8321   2.274   2.771   2.535
 4271W        W 8322  11.180   0.075   0.901
 4272W        W 8323   6.608   3.674   1.958
 4273W        W 8324   6.151   2.544   0.843
 4274W        W 8325   1.993  10.740   0.840
 4275W        W 8326   7.988   4.046  11.932
 4276W        W 8327   7.440  10.890   9.843
 4277W        W 8328  10.961   1.240   9.151
 4278W        W 8329  10.701   6.548   1.746
 4279W        W 8330  10.383   6.046   9.491
 4280W        W 8331   8.335   2.309  11.411
 4281W        W 8332   8.425   1.537   2.724
 4282W        W 8333   3.090   2.109   2.604
 4283W        W 8334   7.592   2.537   3.178
 4284W        W 8335   7.869  10.423   8.527
 4285W        W 8336   4.935   9.002   9.457
 4286W        W 8337   4.997   8.835  11.756
 4287W        W 8338   2.658   2.196   2.938
 4288W        W 8339   6.608   5.870  11.785
 4289W        W 8340   7.524   6.894   0.842
 4290W        W 8341   5.328   0.319  11.536
 4291W        W 8342   9.141   2.813   2.859
 4292W        W 8343   1.809  11.264   2.958
 4293W        W 8344   4.227   9.555  11.966
 4294W        W 8345   9.007   4.091  11.177
 4295W        W 8346   1.792   9.174   2.304
 4296W        W 8347   6.884   9.419   2.454
 4297W        W 8348   8.365   1.600   1.355
 4298W        W 8349   6.983   6.972  10.976
 4299W        W 8350   9.036   3.044   3.285
 4300W        W 8351   3.564   9.329   0.857
 4301W        W 8352   8.363   1.160   2.169
 4302W        W 8353   6.967   4.645   1.223
 4303W        W 8354   1.811   8.918   0.874
 4304W        W 8355   3.635   1.744   1.722
 4305W        W 8356   5.634   1.836  11.448
 4306W        W 8357   4.225   3.146   9.613
 4307W        W 8358   8.599   2.816   8.639
 4308W        W 8359  10.665   2.279  10.512
 4309W        W 8360   5.874  10.735   8.482
 4310W        W 8361   9.382  10.796   9.855
 4311W        W 8362   1.745  10.898   0.008
 4312W        W 8363   2.745   5.648  11.247
 4313W        W 8364   0.163   2.402   9.612
 4314W        W 8365   4.441   8.654  10.893
 4315W        W 8366   9.112   2.418   1.664
 4316W        W 8367   0.516   2.900   1.939
 4317W        W 8368   2.326   2.578   9.666
 4318W        W 8369   2.841  11.452   3.203
 4319W        W 8370   3.636   0.770   0.923
 4320W        W 8371   1.857   9.997  11.775
 4321W        W 8372   1.971  10.539   8.707
 4322W        W 8373   0.997   0.651   9.878
 4323W        W 8374   8.519   5.354   0.839
 4324W        W 8375   6.814   7.512   8.659
 4325W        W 8376  10.471   5.484  11.915
 4326W        W 8377   5.098   7.237   2.168
 4327W        W 8378   1.190   2.659   9.921
 4328W        W 8379   9.999   6.835   4.378
 4329W        W 8380  10.779   5.057   8.922
 4330W        W 8381   4.151   6.496   4.221
 4331W        W 8382   0.686  11.199   8.590
 4332W        W 8383   5.578   7.993  10.739
 4333W        W 8384   8.715   7.141   2.094
 4334W        W 8385  10.962   0.818  10.890
 4335W        W 8386   6.760   6.094   0.224
 4336W        W 8387  10.272  11.420  11.409
 4337W        W 8388   8.425   1.663   9.972
 4338W        W 8389   3.302   3.071   2.697
 4339W        W 8390   3.580   9.038   0.045
 4340W        W 8391   8.636   9.658  10.588
 4341W        W 8392   9.969  11.335  10.543
 4342W        W 8393  10.889   5.084   9.794
 4343W        W 8394   7.145  11.367   9.888
 4344W        W 8395  10.501   6.536   0.854
 4345W        W 8396   5.394  10.782   2.223
 4346W        W 8397   9.903   9.237  11.924
 4347W        W 8398  10.202   7.981  10.943
 4348W        W 8399   1.031  10.623   8.957
 4349W        W 8400  11.332   2.298   2.411
 4350W        W 8401   5.208   1.790   1.776
 4351W        W 8402   0.378   8.515  11.016
 4352W        W 8403   0.500   8.108   2.656
 4353W        W 8404   8.474   7.202   8.932
 4354W        W 8405   8.408   5.169   1.321
 4355W        W 8406   0.304   7.459   0.513
 4356W        W 8407  10.142   6.927   3.587
 4357W        W 8408   3.168   2.597   2.646
 4358W        W 8409   5.580   7.225   0.272
 4359W        W 8410   2.465  10.964   2.683
 4360W        W 8411  11.259   9.114   2.949
 4361W        W 8412   9.343   9.351   1.284
 4362W        W 8413  11.444   4.163  10.680
 4363W        W 8414   0.984   8.036   1.485
 4364W        W 8415   1.457   9.562   3.525
 4365W        W 8416   6.540   3.392  11.935
 4366W        W 8417   4.265   0.346   9.405
 4367W        W 8418   4.056  11.492   1.645
 4368W        W 8419   8.363   4.193  10.427
 4369W        W 8420   7.581   8.584   2.794
 4370W        W 8421  10.347   1.012  10.324
 4371W        W 8422   7.669   6.689   2.962
 4372W        W 8423   6.051   4.555  10.804
 4373W        W 8424  11.413   2.132   2.895
 4374W        W 8425   9.282   6.481   0.567
 4375W        W 8426   9.894   7.934  10.523
 4376W        W 8427  10.605   1.764  11.411
 4377W        W 8428   6.237   6.573  11.715
 4378W        W 8429   6.202   1.374  10.435
 4379W        W 8430   4.547  10.941  11.560
 4380W        W 8431   9.865   8.032   1.705
 4381W        W 8432   6.139   9.164   1.294
 4382W        W 8433   5.544   7.031  10.870
 4383W        W 8434   0.536   7.379  11.419
 4384W        W 8435   0.609   4.202   2.646
 4385W        W 8436   1.989   5.658   8.633
 4386W        W 8437   3.562   1.793   9.894
 4387W        W 8438   5.459   5.641  10.502
 4388W        W 8439   6.364   9.568   1.547
 4389W        W 8440   0.888   4.594   0.980
 4390W        W 8441  10.334   7.419   3.603
 4391W        W 8442   6.256   4.161   2.748
 4392W        W 8443   2.451   2.647  11.048
 4393W        W 8444   1.691   7.402   0.738
 4394W        W 8445   1.732   3.308   1.042
 4395W        W 8446   0.015  10.886   8.968
 4396W        W 8447   7.436  10.070   0.900
 4397W        W 8448   9.515   1.003   2.326
 4398W        W 8449   1.242   4.261   0.511
 4399W        W 8450   5.593   4.355  11.830
 4400W        W 8451   8.432   2.334   9.529
 4401W        W 8452   1.966   0.975   1.749
 4402W        W 8453   8.731   2.134   0.765
 4403W        W 8454   4.516   2.225  10.921
 4404W        W 8455   1.479  11.217   9.008
 4405W        W 8456   9.866   9.105   2.778
 4406W        W 8457   8.472   4.848   0.900
 4407W        W 8458   0.418   0.252  11.750
 4408W        W 8459   5.303   7.480   1.325
 4409W        W 8460  10.450   1.770   2.895
 4410W        W 8461   7.913   6.548   0.827
 4411W        W 8462   6.009   5.238  10.068
 4412W        W 8463   4.700   5.302  11.746
 4413W        W 8464   8.660   2.113   9.979
 4414W        W 8465   1.675  11.383   9.818
 4415W        W 8466  11.434  10.353   9.598
 4416W        W 8467   2.834  11.153  10.344
 4417W        W 8468   4.398   0.105   2.015
 4418W        W 8469   5.527   9.363  10.303
 4419W        W 8470   5.631   0.297   1.381
 4420W        W 8471   7.849   1.042   0.940
 4421W        W 8472   7.753   9.975   8.794
 4422W        W 8473   1.796  10.978   1.611
 4423W        W 8474   1.182   7.936   9.933
 4424W        W 8475   4.540   9.351   3.577
 4425W        W 8476   6.094   6.659   0.892
 4426W        W 8477   8.213   7.089   2.130
 4427W        W 8478   0.303   4.819   2.145
 4428W        W 8479   4.685   9.795  10.224
 4429W        W 8480   0.404   0.223  10.153
 4430W        W 8481  11.169   0.870  11.364
 4431W        W 8482   7.616   9.861   2.362
 4432W        W 8483   5.246   9.870   8.381
 4433W        W 8484   4.143   9.240   9.019
 4434W        W 8485   5.059   2.965   0.070
 4435W        W 8486   3.504   6.013   3.091
 4436W        W 8487  10.334  10.099   0.771
 4437W        W 8488   3.121   5.270  11.316
 4438W        W 8489   0.498  10.863   9.839
 4439W        W 8490   2.300   5.529  11.055
 4440W        W 8491   6.659   0.551  10.697
 4441W        W 8492   1.253   0.518   0.448
 4442W        W 8493   3.308   7.965   1.817
 4443W        W 8494   0.946   2.937   2.229
 4444W        W 8495   2.731   5.570   9.772
 4445W        W 8496   3.542   0.593   1.859
 4446W        W 8497  10.484   1.773   3.485
 4447W        W 8498   7.626   0.409   0.935
 4448W        W 8499  10.771   2.996  10.858
 4449W        W 8500   8.292   1.396   8.882
 4450W        W 8501   7.972   8.700   9.531
 4451W        W 8502   3.382   9.944   9.369
 4452W        W 8503  10.853  10.907  10.338
 4453W        W 8504   0.230   1.908   1.904
 4454W        W 8505   0.581   9.438  10.866
 4455W        W 8506  10.678   2.627   8.713
 4456W        W 8507   6.955  10.392   2.868
 4457W        W 8508   4.571   4.785   0.982
 4458W        W 8509   8.513   3.960  10.866
 4459W        W 8510   8.353   2.159   0.377
 4460W        W 8511   0.830   7.325   2.674
 4461W        W 8512   8.211   3.730   8.640
 4462W        W 8513   3.535   7.570   0.662
 4463W        W 8514   1.617   1.035   9.152
 4464W        W 8515   6.209  10.306   8.586
 4465W        W 8516  11.258   3.878   2.401
 4466W        W 8517  10.404   0.007  10.258
 4467W        W 8518   8.375   8.039   1.181
 4468W        W 8519   0.068   9.522  11.829
 4469W        W 8520   5.312  10.398   1.276
 4470W        W 8521   5.607  10.447  11.716
 4471W        W 8522   2.908   9.612   0.318
 4472W        W 8523   8.167   2.759   0.317
 4473W        W 8524   1.386   4.773   2.958
 4474W        W 8525   2.839   6.407   9.947
 4475W        W 8526  10.827  10.883  11.835
 4476W        W 8527   8.035   9.385   8.368
 4477W        W 8528   9.445   5.310  11.267
 4478W        W 8529   8.983   5.240   3.255
 4479W        W 8530   3.435   2.208   1.693
 4480W        W 8531  10.506  10.872   2.765
 4481W        W 8532  10.410  11.283   9.767
 4482W        W 8533   1.323   4.729  10.322
 4483W        W 8534   2.697   0.065  11.323
 4484W        W 8535   8.137   2.748  11.784
 4485W        W 8536   1.345   7.016  11.064
 4486W        W 8537   1.483   6.283  11.645
 4487W        W 8538   2.183   5.780  11.877
 4488W        W 8539  11.351   8.931  11.781
 4489W        W 8540  10.000   2.952   2.783
 4490W        W 8541   4.525   2.993   3.099
 4491W        W 8542   9.959   3.195   9.247
 4492W        W 8543  10.866   3.080   1.485
 4493W        W 8544   9.209   3.617  11.242
 4494W        W 8545   3.495   2.285  11.073
 4495W        W 8546   7.984   0.310   9.929
 4496W        W 8547   2.100   0.878   9.132
 4497W        W 8548   1.915   3.133   9.645
 4498W        W 8549  10.252  11.358   1.171
 4499W        W 8550   6.655  11.364   2.005
 4500W        W 8551   4.077   2.997   9.146
 4501W        W 8552   3.976   0.977  10.801
 4502W        W 8553   1.711   2.222  11.353
 4503W        W 8554   3.190   0.693  11.823
 4504W        W 8555   3.342   6.532   9.820
 4505W        W 8556   8.719   9.029  10.220
 4506W        W 8557   5.689   4.327   8.143
 4507W        W 8558   5.876  10.945   0.460
 4508W        W 8559   0.155   0.349   2.488
 4509W        W 8560   5.555   9.684   0.705
 4510W        W 8561   1.241   3.832   3.395
 4511W        W 8562   9.051  10.561   0.177
 4512W        W 8563   2.858   1.410   9.003
 4513W        W 8564   9.506   0.989  10.316
 4514W        W 8565   7.028   1.740   1.181
 4515W        W 8566   1.227   0.192   9.117
 4516W        W 8567   8.957   7.199   1.654
 4517W        W 8568  11.285   9.338  10.490
 4518W        W 8569   9.112   9.537   3.205
 4519W        W 8570   3.943   6.965   2.407
 4520W        W 8571   3.746   7.095  10.116
 4521W        W 8572   4.635   6.415   3.949
 4522W        W 8573   4.750   7.514   9.564
 4523W        W 8574   7.056   8.775  11.595
 4524W        W 8575   1.308  10.522  10.858
 4525W        W 8576   5.700   8.441   8.575
 4526W        W 8577   9.382   1.096   0.181
 4527W        W 8578   1.990   6.986   0.830
 4528W        W 8579   1.119   7.087   9.468
 4529W        W 8580   5.838   5.283  10.564
 4530W        W 8581   6.923   8.706   1.028
 4531W        W 8582   4.047   7.576  10.539
 4532W        W 8583   6.063   2.827   1.263
 4533W        W 8584  11.455   5.152  11.623
 4534W        W 8585   6.692   9.533   1.946
 4535W        W 8586   6.870   8.153  11.839
 4536W        W 8587   4.358   6.996   2.109
 4537W        W 8588   6.123   7.363   1.862
 4538W        W 8589   6.183   0.474  10.319
 4539W        W 8590   9.621   7.935   0.842
 4540W        W 8591   9.913   3.835  10.783
 4541W        W 8592  11.219   1.359   0.021
 4542W        W 8593   6.050   2.564   9.088
 4543W        W 8594  11.371   2.483  11.541
 4544W        W 8595   3.127   6.615   2.035
 4545W        W 8596   6.277   8.946   9.077
 4546W        W 8597   6.857   0.262  11.972
 4547W        W 8598   2.322   0.951  10.416
 4548W        W 8599   7.108   0.266  10.482
 4549W        W 8600   8.107   8.430  10.473
 4550W        W 8601   7.948   3.318  10.144
 4551W        W 8602   9.634  10.440   3.327
 4552W        W 8603   2.592   8.091   8.908
 4553W        W 8604   7.912   3.222   9.639
 4554W        W 8605   9.817   6.154   1.094
 4555W        W 8606   2.477   6.544   9.618
 4556W        W 8607   4.628   9.537  11.192
 4557W        W 8608   6.059   4.419   8.491
 4558W        W 8609   7.730   7.948   9.667
 4559W        W 8610   1.208  11.425   0.933
 4560W        W 8611   6.615  10.786   9.783
 4561W        W 8612   4.637   6.307   8.788
 4562W        W 8613   8.590   9.487   2.998
 4563W        W 8614   5.055  11.015  11.559
 4564W        W 8615   4.596  11.223   0.823
 4565W        W 8616   0.015   9.943   3.147
 4566W        W 8617   4.568   3.363   2.739
 4567W        W 8618   3.267   7.151   0.693
 4568W        W 8619   3.061   9.878   2.886
 4569W        W 8620  10.768  10.315   1.898
 4570W        W 8621   7.559   7.167   2.826
 4571W        W 8622  10.522   6.508   9.327
 4572W        W 8623  11.472   6.790  10.920
 4573W        W 8624   1.301   8.772  10.551
 4574W        W 8625   3.360   9.285   8.734
 4575W        W 8626   8.844   3.047  10.028
 4576W        W 8627   9.637   5.766   9.872
 4577W        W 8628   9.460   6.109   3.426
 4578W        W 8629   2.681   2.298  11.360
 4579W        W 8630   1.476   2.662  11.464
 4580W        W 8631   9.869   8.363  10.253
 4581W        W 8632   9.708   4.770   9.681
 4582W        W 8633   8.107   2.278  11.947
 4583W        W 8634   9.844   4.127  10.036
 4584W        W 8635   2.339  10.130  11.901
 4585W        W 8636   1.322   5.528  10.515
 4586W        W 8637   7.446   1.233  10.901
 4587W        W 8638  10.074   2.691   3.256
 4588W        W 8639   2.161   6.751  11.760
 4589W        W 8640   1.711   4.085   3.430
 4590W        W 8641   5.969   9.108   2.144
 4591W        W 8642  10.448   2.713   2.891
 4592W        W 8643  10.899   8.651   0.393
 4593W        W 8644   6.461  10.686   3.326
 4594W        W 8645   9.349   0.829   1.346
 4595W        W 8646   9.352   3.825   3.646
 4596W        W 8647   4.590  10.786  10.205
 4597W        W 8648   6.368  10.748   0.874
 4598W        W 8649   9.461  11.002   8.458
 4599W        W 8650  10.900   4.114   3.275
 4600W        W 8651   0.759   8.592   8.924
 4601W        W 8652   0.416   5.670   2.362
 4602W        W 8653   4.635   3.190  10.841
 4603W        W 8654  10.299  10.138  10.592
 4604W        W 8655  11.414   4.417   1.170
 4605W        W 8656   7.983   9.950   1.898
 4606W        W 8657   9.862   4.360   2.876
 4607W        W 8658   2.218   4.865   1.697
 4608W        W 8659   6.500   0.680   9.977
 4609W        W 8660   8.612   6.681   9.212
 4610W        W 8661   5.856   3.348  10.373
 4611W        W 8662   7.200   6.147   1.184
 4612W        W 8663   4.217   6.686   9.469
 4613W        W 8664   8.666   2.083   3.600
 4614W        W 8665   7.322   4.289  11.495
 4615W        W 8666   4.235   0.557  10.880
 4616W        W 8667   9.289   3.384   0.010
 4617W        W 8668   0.300   2.687  10.081
 4618W        W 8669   3.766   2.198   9.599
 4619W        W 8670   7.419  11.299   9.458
 4620W        W 8671   0.146   2.252  11.944
 4621W        W 8672   8.048  11.281   1.977
 4622W        W 8673   1.400   8.392   9.705
 4623W        W 8674   2.337   7.712   9.766
 4624W        W 8675   5.015   2.812   2.283
 4625W        W 8676   5.510   7.028   1.168
 4626W        W 8677   5.696   4.244   2.717
 4627W        W 8678   8.856   9.305   1.049
 4628W        W 8679   8.317   0.208   2.503
 4629W        W 8680   2.779   4.726  10.898
 4630W        W 8681   5.171   9.335  11.518
 4631W        W 8682   6.067   0.361   2.823
 4632W        W 8683   4.234   7.528   9.569
 4633W        W 8684   2.340   3.421   9.481
 4634W        W 8685  11.282  11.239   1.282
 4635W        W 8686   8.402  10.869   3.272
 4636W        W 8687   1.287   2.555   8.739
 4637W        W 8688   2.636   8.645   2.198
 4638W        W 8689  10.089   9.772   0.480
 4639W        W 8690   1.862   2.027  11.934
 4640W        W 8691   5.782   1.238   8.965
 4641W        W 8692   1.842   3.688  10.493
 4642W        W 8693   4.615   3.180   9.962
 4643W        W 8694   5.679   3.630  10.991
 4644W        W 8695   6.425   8.256  10.871
 4645W        W 8696   9.336  10.827   3.084
 4646W        W 8697   1.186   3.100   8.655
 4647W        W 8698   7.698   8.588   2.284
 4648W        W 8699  10.967   8.598   9.293
 4649W        W 8700   3.120   0.807   0.785
 4650W        W 8701   4.727   9.080  10.918
 4651W        W 8702   3.102   0.940   9.107
 4652W        W 8703   6.302   8.862  11.968
 4653W        W 8704   5.126  10.596   3.208
 4654W        W 8705  11.314   2.607  10.003
 4655W        W 8706   8.065   0.960   9.097
 4656W        W 8707   6.724   7.723  11.586
 4657W        W 8708   2.162   9.827   0.763
 4658W        W 8709   0.351  10.985   2.641
 4659W        W 8710  11.038   2.617  10.461
 4660W        W 8711   7.584   5.956   0.881
 4661W        W 8712   3.169   4.332   1.214
 4662W        W 8713   2.347   4.132  11.612
 4663W        W 8714  10.088  10.268   2.290
 4664W        W 8715   7.090  10.375   2.396
 4665W        W 8716   8.141   8.521   3.376
 4666W        W 8717   1.305   9.297   8.954
 4667W        W 8718  10.866   0.849  11.827
 4668W        W 8719   6.517   0.102   2.900
 4669W        W 8720  10.370   9.034   0.095
 4670W        W 8721   2.685   1.189   0.265
 4671W        W 8722   7.865   7.705   0.844
 4672W        W 8723   7.518   4.644  10.054
 4673W        W 8724   5.683   3.600   0.298
 4674W        W 8725  10.445   3.699   1.304
 4675W        W 8726   8.266   2.454   1.956
 4676W        W 8727  11.472   9.020   9.062
 4677W        W 8728   3.242   3.332   9.442
 4678W        W 8729   1.679  10.673   0.441
 4679W        W 8730   2.272   4.376   1.470
 4680W        W 8731   0.546   7.078   0.224
 4681W        W 8732  11.054   7.129   8.980
 4682W        W 8733  10.145   9.093   0.943
 4683W        W 8734   1.444   3.331   3.377
 4684W        W 8735   4.799   0.455  11.528
 4685W        W 8736   0.839  10.882   0.214
 4686W        W 8737   9.550   2.377   0.969
 4687W        W 8738   2.866  10.818   8.493
 4688W        W 8739   5.005   9.508   3.449
 4689W        W 8740   7.985   8.442   0.347
 4690W        W 8741   0.553   2.299   0.264
 4691W        W 8742   0.821   7.393   3.563
 4692W        W 8743   8.237   2.122   8.670
 4693W        W 8744   8.561   8.477   2.498
 4694W        W 8745   6.137   6.208  10.289
 4695W        W 8746   0.275   5.277  10.260
 4696W        W 8747   9.815   9.424  11.130
 4697W        W 8748  10.330   0.770   2.813
 4698W        W 8749   2.878   5.053   2.165
 4699W        W 8750   5.006  11.071  10.318
 4700W        W 8751   4.069  10.438  10.293
 4701W        W 8752   9.623  10.994  10.345
 4702W        W 8753   2.952   4.974   1.676
 4703W        W 8754  10.136   3.764  11.221
 4704W        W 8755   5.094  10.984   1.473
 4705W        W 8756   7.493   0.577  10.658
 4706W        W 8757   6.741   6.294  10.510
 4707W        W 8758   6.223   7.140   0.991
 4708W        W 8759   0.111   4.251   2.586
 4709W        W 8760   7.021   1.435   2.163
 4710W        W 8761   2.945   6.898   0.994
 4711W        W 8762  10.574   0.775   1.895
 4712W        W 8763   9.611   1.722  11.558
 4713W        W 8764   2.432   7.022   0.558
 4714W        W 8765   3.227   9.605  10.059
 4715W        W 8766  10.465   8.965   9.186
 4716W        W 8767   5.132  10.506  11.528
 4717W        W 8768   4.801   5.246   1.273
 4718W        W 8769   8.064   0.669   2.249
 4719W        W 8770   0.586   8.686   0.920
 4720W        W 8771   3.579   4.666   3.594
 4721W        W 8772   6.159   5.208   1.046
 4722W        W 8773   2.030   9.125   1.420
 4723W        W 8774   4.864   0.957   9.290
 4724W        W 8775   0.882   2.393   0.703
 4725W        W 8776   8.630   4.675   9.525
 4726W        W 8777   7.270  10.010  11.066
 4727W        W 8778   4.265   7.146  10.290
 4728W        W 8779   7.387   0.848  10.227
 4729W        W 8780   2.575   4.247  10.725
 4730W        W 8781   0.445  10.810   1.670
 4731W        W 8782   9.744   6.609  10.832
 4732W        W 8783   5.882   6.920   3.566
 4733W        W 8784   5.641   4.533   3.464
 4734W        W 8785  10.691   9.669  11.420
 4735W        W 8786   1.553   6.925   0.541
 4736W        W 8787  10.341   3.662   2.406
 4737W        W 8788   8.836  10.948   2.970
 4738W        W 8789   6.314   0.748   9.523
 4739W        W 8790   9.841   0.390  11.833
 4740W        W 8791   6.041   2.658   9.954
 4741W        W 8792   3.099   1.071   3.056
 4742W        W 8793   1.624   0.720  10.011
 4743W        W 8794   4.772   5.231   1.797
 4744W        W 8795   1.819   0.464  11.732
 4745W        W 8796   1.695   3.371  11.957
 4746W        W 8797  11.406   6.185  10.926
 4747W        W 8798   0.716   9.580   1.044
 4748W        W 8799   6.110   7.867   1.881
 4749W        W 8800   1.229   8.285  10.710
 4750W        W 8801   2.728   0.372  11.753
 4751W        W 8802   5.593   6.610   0.880
 4752W        W 8803   0.248   6.157   0.982
 4753W        W 8804   1.725   9.566   9.090
 4754W        W 8805   7.753   6.648  11.884
 4755W        W 8806  10.014   8.025   9.095
 4756W        W 8807   1.906   7.178   8.983
 4757W        W 8808   7.363  11.281  10.341
 4758W        W 8809   4.808  10.870  11.992
 4759W        W 8810   1.454  10.754   2.783
 4760W        W 8811   8.486   9.940   3.226
 4761W        W 8812   8.165  11.474   3.442
 4762W        W 8813   8.029   0.230   1.338
 4763W        W 8814   4.731   2.211  10.063
 4764W        W 8815   2.246   5.697   2.227
 4765W        W 8816   4.363   1.883  10.165
 4766W        W 8817   9.387  10.115   9.419
 4767W        W 8818   1.422   1.497   0.475
 4768W        W 8819  10.409   5.515   8.780
 4769W        W 8820   5.727  11.330   2.353
 4770W        W 8821  10.280   5.157   1.321
 4771W        W 8822   3.662   8.242   2.696
 4772W        W 8823   2.621   9.123   2.440
 4773W        W 8824   5.071   6.118   1.431
 4774W        W 8825  11.458   4.778  10.047
 4775W        W 8826   2.490   7.178   3.655
 4776W        W 8827   0.735   7.596  10.179
 4777W        W 8828   7.983   0.475   8.904
 4778W        W 8829   1.904  11.261   3.488
 4779W        W 8830   1.003  10.524   1.035
 4780W        W 8831   0.192   9.339   0.458
 4781W        W 8832   9.035   3.430   1.889
 4782W        W 8833   9.689   3.770   0.093
 4783W        W 8834   5.952   1.632  11.763
 4784W        W 8835  10.029   5.421   1.672
 4785W        W 8836   6.091   6.384   1.771
 4786W        W 8837  10.423   5.790  10.967
 4787W        W 8838   6.542   4.368   1.358
 4788W        W 8839   8.195   3.681   2.834
 4789W        W 8840   0.958  11.237   3.533
 4790W        W 8841   3.785   9.846   3.581
 4791W        W 8842  11.225   1.203  10.166
 4792W        W 8843   5.288  10.744  11.973
 4793W        W 8844   6.275   1.488  11.409
 4794W        W 8845   3.202   7.233  11.861
 4795W        W 8846   5.927  11.077  10.378
 4796W        W 8847  11.110  11.217   2.248
 4797W        W 8848   6.057   7.531   0.722
 4798W        W 8849   6.516   9.867   0.847
 4799W        W 8850   1.902   3.310   2.357
 4800W        W 8851   2.909   2.248   1.697
 4801W        W 8852  10.062   9.977   1.385
 4802W        W 8853   1.998  10.463   0.073
 4803W        W 8854   6.124   8.565   9.419
 4804W        W 8855   0.885   2.806   2.724
 4805W        W 8856  10.833   2.235   9.260
 4806W        W 8857   4.148   1.071   3.698
 4807W        W 8858   2.243   3.139  11.289
 4808W        W 8859  10.737   0.075   2.172
 4809W        W 8860   2.554  11.369  11.795
 4810W        W 8861   0.944   1.373   2.800
 4811W        W 8862   1.259   1.051  10.083
 4812W        W 8863   3.120   1.168  11.984
 4813W        W 8864   8.561   3.573   0.374
 4814W        W 8865  11.456   3.874   0.530
 4815W        W 8866  10.430   5.324   9.826
 4816W        W 8867   2.248   5.247   8.509
 4817W        W 8868   2.686   5.040   3.235
 4818W        W 8869   6.528   3.928  11.881
 4819W        W 8870   8.500   9.401   2.477
 4820W        W 8871   8.169   2.396   1.441
 4821W        W 8872   0.202   9.497   0.973
 4822W        W 8873   3.242   1.593  10.910
 4823W        W 8874   1.984  11.471  10.446
 4824W        W 8875   7.049   9.381   8.400
 4825W        W 8876   7.276   4.239   2.740
 4826W        W 8877   9.896  11.426  11.045
 4827W        W 8878   8.485   0.929  11.678
 4828W        W 8879   4.717   3.708   9.100
 4829W        W 8880   5.936   9.587   2.989
 4830W        W 8881   8.968   1.724   9.765
 4831W        W 8882   5.694   6.400   3.091
 4832W        W 8883   6.973   2.242  10.552
 4833W        W 8884   5.252   4.566   8.310
 4834W        W 8885   2.704   7.057   8.549
 4835W        W 8886   4.657   4.818  10.500
 4836W        W 8887   7.927   6.240   9.755
 4837W        W 8888   3.512  11.229   2.152
 4838W        W 8889  11.262   2.041   9.491
 4839W        W 8890  10.294   0.514  10.220
 4840W        W 8891  10.518   8.344   0.565
 4841W        W 8892   4.531   2.366   0.523
 4842W        W 8893   6.965   8.970   1.777
 4843W        W 8894   5.131   2.606   9.050
 4844W        W 8895   6.898   2.792   2.328
 4845W        W 8896   2.619   0.956   0.700
 4846W        W 8897  10.567   3.502  11.249
 4847W        W 8898   9.666   4.138   0.436
 4848W        W 8899   6.116   8.104   1.409
 4849W        W 8900   3.167  11.262   1.030
 4850W        W 8901   0.221   9.991   0.872
 4851W        W 8902   5.711  10.515   1.616
 4852W        W 8903   6.943   2.981   0.938
 4853W        W 8904  10.443   4.862  10.820
 4854W        W 8905   3.449  10.869   1.268
 4855W        W 8906   8.031   2.300   2.410
 4856W        W 8907   8.327   0.241   1.988
 4857W        W 8908   2.412   5.120  10.787
 4858W        W 8909   1.851   9.649   2.085
 4859W        W 8910   2.260  10.509   9.625
 4860W        W 8911   3.048   9.429   2.635
 4861W        W 8912   6.801   2.590   2.809
 4862W        W 8913  10.673   5.533   3.274
 4863W        W 8914   6.919   8.183   1.062
 4864W        W 8915   3.896   8.767   0.471
 4865W        W 8916   8.520  10.914   8.976
 4866W        W 8917   9.854  10.941  10.853
 4867W        W 8918   0.246  11.342   8.847
 4868W        W 8919   9.387   7.508   2.481
 4869W        W 8920  11.423   6.543   1.357
 4870W        W 8921  10.410   3.134   3.190
 4871W        W 8922   4.898   1.776   2.236
 4872W        W 8923  10.319   4.586  11.901
 4873W        W 8924   7.567   1.998   3.111
 4874W        W 8925   6.114   8.380   1.838
 4875W        W 8926  10.877   0.584   2.264
 4876W        W 8927   3.840   1.396   2.824
 4877W        W 8928   1.451   6.092   0.574
 4878W        W 8929   6.131   5.084   0.041
 4879W        W 8930   7.057   5.147   1.181
 4880W        W 8931   2.223  10.320   1.178
 4881W        W 8932   9.006   1.247   2.206
 4882W        W 8933   8.565  10.380   9.951
 4883W        W 8934   0.669   0.596  11.412
 4884W        W 8935   1.444   4.090   2.351
 4885W        W 8936   4.084   6.343   8.086
 4886W        W 8937   8.816   2.066   3.099
 4887W        W 8938   2.196   2.278   2.268
 4888W        W 8939  10.583   0.310   9.832
 4889W        W 8940   0.804   9.513  10.385
 4890W        W 8941   3.616   7.470  11.248
 4891W        W 8942   7.683   5.071  11.075
 4892W        W 8943   3.141   6.778   8.519
 4893W        W 8944   0.915   7.990   0.567
 4894W        W 8945   5.941   2.588   3.657
 4895W        W 8946   3.164   7.587  10.505
 4896W        W 8947   8.378  10.893   9.971
 4897W        W 8948   9.580  10.851   8.953
 4898W        W 8949   3.498   8.996   9.431
 4899W        W 8950   7.779   3.602   1.896
 4900W        W 8951   2.951   1.160  10.909
 4901W        W 8952   2.298   7.410  11.074
 4902W        W 8953   7.945   5.533  10.360
 4903W        W 8954   5.137   8.652   1.659
 4904W        W 8955  11.468   2.063   9.952
 4905W        W 8956   6.562   1.437   0.365
 4906W        W 8957   2.600   5.773   0.247
 4907W        W 8958   0.855   3.597  11.957
 4908W        W 8959   3.699   6.270   8.978
 4909W        W 8960   0.881   9.544   9.094
 4910W        W 8961  10.081   6.550   3.913
 4911W        W 8962   4.669   7.515  11.083
 4912W        W 8963   7.113   8.041   0.317
 4913W        W 8964  10.022   5.167   9.509
 4914W        W 8965   0.295   1.663   2.334
 4915W        W 8966   2.842   1.480   2.845
 4916W        W 8967   1.471  10.382   2.228
 4917W        W 8968  11.424   6.982  11.424
 4918W        W 8969   9.508   3.453   2.142
 4919W        W 8970   9.082   0.833   9.378
 4920W        W 8971   3.676  10.347   1.206
 4921W        W 8972  10.900   2.221  11.422
 4922W        W 8973  10.426   0.111   9.376
 4923W        W 8974   9.264   6.101   2.435
 4924W        W 8975   6.799   7.498   3.142
 4925W        W 8976   6.230  11.368   1.693
 4926W        W 8977   6.481   5.810   9.643
 4927W        W 8978   7.174   2.702   1.335
 4928W        W 8979  10.228   6.523   1.934
 4929W        W 8980   0.781   5.751  11.048
 4930W        W 8981   5.504   2.845   2.422
 4931W        W 8982   7.519   0.486   0.439
 4932W        W 8983   1.115   6.025   0.950
 4933W        W 8984   3.578   8.511   3.132
 4934W        W 8985  10.207   1.150   0.034
 4935W        W 8986   2.809   1.889   0.659
 4936W        W 8987   3.186  10.469   9.473
 4937W        W 8988   3.907   7.003  11.149
 4938W        W 8989   7.464   1.972  10.507
 4939W        W 8990   4.103   2.496   8.998
 4940W        W 8991   3.371   9.874  11.937
 4941W        W 8992   8.741   3.844   1.664
 4942W        W 8993   7.992   6.355   2.743
 4943W        W 8994   1.163  10.453  11.970
 4944W        W 8995  10.415   7.452   0.148
 4945W        W 8996  10.877   1.535   2.438
 4946W        W 8997   9.964   9.048   0.406
 4947W        W 8998   9.627   4.201   8.932
 4948W        W 8999   2.637   1.359  11.268
 4949W        W 9000   4.186  10.995   1.712
 4950W        W 9001   6.980   0.783   3.090
 4951W        W 9002   8.474   8.851   1.667
 4952W        W 9003   1.788   3.029   2.776
 4953W        W 9004  11.462   2.885  10.431
 4954W        W 9005   8.902   7.773  10.613
 4955W        W 9006   5.980  10.490   1.166
 4956W        W 9007   2.812  11.363   2.676
 4957W        W 9008   2.603   2.448   1.258
 4958W        W 9009  10.377   7.393   2.466
 4959W        W 9010   9.381   4.889   2.271
 4960W        W 9011   2.904   5.107   1.197
 4961W        W 9012  10.375   1.632  10.959
 4962W        W 9013  10.941   6.134   3.257
 4963W        W 9014   1.250   4.290   9.398
 4964W        W 9015   1.388   0.386   1.987
 4965W        W 9016   7.180   7.935  11.495
 4966W        W 9017   3.812   8.181   1.930
 4967W        W 9018   1.702   8.135   2.286
 4968W        W 9019   5.859   7.255  11.786
 4969W        W 9020   0.648   3.260   3.403
 4970W        W 9021   2.192   5.785   3.289
 4971W        W 9022  10.337  11.429   2.468
 4972W        W 9023   6.453   0.917  10.412
 4973W        W 9024   6.470   6.120   2.034
 4974W        W 9025  10.149   5.082  11.902
 4975W        W 9026  10.989   4.966  10.784
 4976W        W 9027   8.808   6.351   8.262
 4977W        W 9028   1.753   4.992   0.783
 4978W        W 9029   6.349   5.714   0.259
 4979W        W 9030   6.619   4.960  11.954
 4980W        W 9031   6.266  10.464   1.647
 4981W        W 9032  11.049   0.516   9.899
 4982W        W 9033  10.182   3.684   0.170
 4983W        W 9034   5.241   6.738   2.212
 4984W        W 9035   9.347   5.958   9.470
 4985W        W 9036   0.392   9.013  11.544
 4986W        W 9037   2.348   3.666   0.362
 4987W        W 9038   4.934  10.001   9.197
 4988W        W 9039   9.122   5.497   9.529
 4989W        W 9040   1.750   6.741   9.885
 4990W        W 9041   4.706  11.455  11.527
 4991W        W 9042   7.056   5.540  11.163
 4992W        W 9043   2.484   4.140   2.270
 4993W        W 9044   6.710  11.065   3.577
 4994W        W 9045   7.930   5.917  11.439
 4995W        W 9046   6.710   7.958   0.643
 4996W        W 9047   3.499   7.928   2.295
 4997W        W 9048   8.396   6.092  11.384
 4998W        W 9049  11.438   6.485   9.917
 4999W        W 9050   1.932   2.701   9.356
 5000W        W 9051   7.395   9.673   8.603
 5001W        W 9052   5.791   6.618   1.379
 5002W        W 9053  11.226   2.079   8.979
 5003W        W 9054   8.301  10.532  11.484
 5004W        W 9055   0.168   8.052  11.297
 5005W        W 9056   9.964   5.176   3.511
 5006W        W 9057   0.920   9.014   3.640
 5007W        W 9058   2.879   6.537  11.946
 5008W        W 9059   7.297  10.480  11.334
 5009W        W 9060   4.034   0.134   3.532
 5010W        W 9061   8.030   6.875   1.268
 5011W        W 9062   8.568   4.052   2.782
 5012W        W 9063   3.654  11.219   0.826
 5013W        W 9064   0.687   7.728   2.382
 5014W        W 9065   5.479   9.409   3.659
 5015W        W 9066   1.044   9.653  10.883
 5016W        W 9067   7.422   2.613   9.872
 5017W        W 9068   4.179   6.048   1.677
 5018W        W 9069   7.577  11.052   2.713
 5019W        W 9070   8.508   7.457  10.772
 5020W        W 9071   6.535   6.172   8.206
 5021W        W 9072   2.681   6.463   0.942
 5022W        W 9073   3.257   2.586   0.010
 5023W        W 9074   6.586   8.544   9.191
 5024W        W 9075   2.655  11.082   1.077
 5025W        W 9076   6.595  10.312   2.516
 5026W        W 9077   3.328   1.171   1.068
 5027W        W 9078   8.757  10.362   9.071
 5028W        W 9079   5.551   3.224   9.315
 5029W        W 9080   5.951   5.785  10.511
 5030W        W 9081  10.032   3.675  11.693
 5031W        W 9082   9.971   5.525   9.050
 5032W        W 9083   8.392   2.553  10.003
 5033W        W 9084   5.275   2.182  11.437
 5034W        W 9085   0.564   2.315  10.362
 5035W        W 9086   1.382   9.504  11.534
 5036W        W 9087   6.639   8.358   2.289
 5037W        W 9088   8.206   9.492   3.325
 5038W        W 9089   9.922   8.604   2.876
 5039W        W 9090   2.530   6.676   3.514
 5040W        W 9091   1.389   1.457   1.784
 5041W        W 9092   9.761   9.264   2.264
 5042W        W 9093   5.308   5.110  11.613
 5043W        W 9094   6.689  11.407   1.471
 5044W        W 9095   8.844   8.370   8.087
 5045W        W 9096   2.786   7.914   9.906
 5046W        W 9097   1.689   1.492   2.547
 5047W        W 9098   5.727   9.158   0.503
 5048W        W 9099  10.975   5.544  11.842
 5049W        W 9100   1.362   4.540   8.969
 5050W        W 9101   5.596   6.141  10.660
 5051W        W 9102  11.218  10.804   9.431
 5052W        W 9103   9.374   1.839   1.051
 5053W        W 9104   5.347   1.398   8.682
 5054W        W 9105   9.613   3.799   9.477
 5055W        W 9106   2.516   2.925  10.541
 5056W        W 9107   3.734   8.506   9.206
 5057W        W 9108  11.160   1.478   0.953
 5058W        W 9109   8.628  10.846  10.436
 5059W        W 9110   5.418   7.801   8.224
 5060W        W 9111   1.380   5.650   2.765
 5061W        W 9112   7.557  10.935   1.329
 5062W        W 9113   0.468   1.464   0.326
 5063W        W 9114   4.520   1.288  11.994
 5064W        W 9115   0.271   7.498   2.510
 5065W        W 9116   2.475   5.301   0.510
 5066W        W 9117   7.811   5.513  11.712
 5067W        W 9118   7.549   8.940  10.217
 5068W        W 9119   3.110   1.834  10.096
 5069W        W 9120   4.009   0.430   1.971
 5070W        W 9121   7.531   0.703  11.587
 5071W        W 9122   4.081   4.821   0.811
 5072W        W 9123   9.632   1.253   2.876
 5073W        W 9124   6.676   7.560   9.152
 5074W        W 9125   3.288   7.830   8.934
 5075W        W 9126  11.463   0.754  10.794
 5076W        W 9127   1.385   5.072   8.976
 5077W        W 9128   7.116  10.486   3.316
 5078W        W 9129   1.284   2.282   2.869
 5079W        W 9130   8.767   3.141  10.905
 5080W        W 9131   1.742   7.624  11.846
 5081W        W 9132   4.077   2.145   2.245
 5082W        W 9133  10.087   1.734  11.373
 5083W        W 9134   3.338   8.636   2.696
 5084W        W 9135   7.826   7.596   3.138
 5085W        W 9136   4.643   4.405  11.371
 5086W        W 9137  11.435   9.264  11.395
 5087W        W 9138   8.614   7.191  10.325
 5088W        W 9139   3.435   7.086  10.954
 5089W        W 9140   1.919   0.285  10.023
 5090W        W 9141   2.941  10.051   0.560
 5091W        W 9142   0.527  10.878   8.962
 5092W        W 9143   1.783   6.441   2.446
 5093W        W 9144   3.627   8.905   9.935
 5094W        W 9145   8.538   2.846   3.160
 5095W        W 9146   6.997   0.723  11.743
 5096W        W 9147   9.359  11.136  11.763
 5097W        W 9148   9.320  10.995   9.382
 5098W        W 9149   2.656   5.565   9.242
 5099W        W 9150   1.340   7.865  10.432
 5100W        W 9151   4.381   9.141   8.561
 5101W        W 9152  11.102   9.628   3.047
 5102W        W 9153   0.783   6.635   0.340
 5103W        W 9154   3.790   7.984   0.492
 5104W        W 9155   2.504   9.625  11.120
 5105W        W 9156   9.028   6.315   1.735
 5106W        W 9157   4.380   7.138   2.663
 5107W        W 9158  10.761   8.220   3.177
 5108W        W 9159   6.631   9.450   0.572
 5109W        W 9160   1.363   0.436   0.946
 5110W        W 9161   4.561   3.012   1.894
 5111W        W 9162   8.612   3.673   8.338
 5112W        W 9163   4.511   5.982  10.663
 5113W        W 9164   4.552   1.454   3.279
 5114W        W 9165   3.460   9.140   2.754
 5115W        W 9166   0.945   5.311   3.217
 5116W        W 9167   0.220  11.077   3.651
 5117W        W 9168   0.288   9.453  10.434
 5118W        W 9169   1.954  10.876   2.655
 5119W        W 9170   1.947   3.259   3.207
 5120W        W 9171  11.449  10.816   2.351
 5121W        W 9172   0.391   5.411  11.659
 5122W        W 9173   1.733  11.374   1.915
 5123W        W 9174   3.741   7.651   1.884
 5124W        W 9175   8.008   6.935  11.499
 5125W        W 9176   4.642   4.418   1.668
 5126W        W 9177  10.782   0.979  10.047
 5127W        W 9178  10.617   2.230  11.850
 5128W        W 9179   5.494   5.180  10.213
 5129W        W 9180   7.462   8.869  10.704
 5130W        W 9181   4.033   3.113  10.529
 5131W        W 9182   0.759   4.313   9.071
 5132W        W 9183   3.227   6.715   9.365
 5133W        W 9184   4.508   3.729   2.318
 5134W        W 9185  10.865   2.155   3.587
 5135W        W 9186   6.575   9.827   2.326
 5136W        W 9187   0.858   1.684   3.201
 5137W        W 9188   0.966   1.894  11.479
 5138W        W 9189   1.390   9.923  11.235
 5139W        W 9190   2.641   3.770   9.940
 5140W        W 9191   3.393   3.211  11.966
 5141W        W 9192   0.971   7.913   2.829
 5142W        W 9193   8.198   4.562   3.126
 5143W        W 9194   6.135   2.763   8.637
 5144W        W 9195  10.366   6.978   3.156
 5145W        W 9196   6.186   1.806   0.275
 5146W        W 9197  11.444   9.215   1.797
 5147W        W 9198   0.423   9.560   2.477
 5148W        W 9199   5.041   4.291   3.574
 5149W        W 9200   1.562   1.914   1.680
 5150W        W 9201   2.286   0.651   0.977
 5151W        W 9202   5.276   1.294   1.621
 5152W        W 9203   3.099   5.354   3.376
 5153W        W 9204   6.035   7.443  10.754
 5154W        W 9205  10.831   2.817  10.032
 5155W        W 9206   6.166   2.106  11.861
 5156W        W 9207   4.620   4.819  11.948
 5157W        W 9208  10.588   1.380   3.213
 5158W        W 9209   0.932   8.502   1.248
 5159W        W 9210   5.729   0.922   9.406
 5160W        W 9211   6.922   4.074   1.849
 5161W        W 9212   3.615   5.204   8.320
 5162W        W 9213   8.834  11.327   1.220
 5163W        W 9214   3.748   7.464  11.730
 5164W        W 9215   9.063   2.256  10.970
 5165W        W 9216   9.847   9.853   9.365
 5166W        W 9217   4.170   5.182   1.584
 5167W        W 9218   2.459  10.380   2.552
 5168W        W 9219   1.308   4.743   0.712
 5169W        W 9220   1.271   8.155   1.052
 5170W        W 9221   1.905   4.067  10.120
 5171W        W 9222   2.625   4.618   2.443
 5172W        W 9223   7.959   8.822  11.596
 5173W        W 9224   8.514   5.714   2.630
 5174W        W 9225  10.283   7.021   0.969
 5175W        W 9226   0.729   4.291   3.478
 5176W        W 9227   0.905   5.531   2.522
 5177W        W 9228   8.741   6.125   0.997
 5178W        W 9229   1.759   4.168   2.877
 5179W        W 9230   2.193   9.615   3.056
 5180W        W 9231   5.090   7.019   0.216
 5181W        W 9232  10.794   2.610   1.694
 5182W        W 9233   9.495   5.782   8.999
 5183W        W 9234  10.882  10.462   8.800
 5184W        W 9235   3.615   4.202   1.459
 5185W        W 9236   0.442   5.492  10.746
 5186W        W 9237   6.210   7.586   1.412
 5187W        W 9238   9.711   1.293   3.403
 5188W        W 9239   3.362   4.289   9.801
 5189W        W 9240  10.948   1.088   3.370
 5190W        W 9241   8.152   1.852   9.109
 5191W        W 9242   5.994   0.964   3.440
 5192W        W 9243   0.722  10.865  10.304
 5193W        W 9244   6.917   9.624   8.832
 5194W        W 9245  10.912   2.504   2.655
 5195W        W 9246   9.296   5.310   9.017
 5196W        W 9247   0.877   4.185  10.763
 5197W        W 9248   9.596  10.470   2.424
 5198W        W 9249   3.848   6.490  11.268
 5199W        W 9250   1.834   7.564  10.942
 5200W        W 9251   3.717   6.134   1.993
 5201W        W 9252   2.685   1.760   9.352
 5202W        W 9253   8.866   4.164  10.192
 5203W        W 9254   4.975   3.099   9.159
 5204W        W 9255   6.349   6.160   0.511
 5205W        W 9256   8.646   1.913   8.978
 5206W        W 9257   9.415  10.885   2.203
 5207W        W 9258   9.081   5.290   0.078
 5208W        W 9259   4.655   9.498   0.226
 5209W        W 9260   3.369   7.044   2.345
 5210W        W 9261   2.018   6.334   9.742
 5211W        W 9262   6.758  11.102   0.955
 5212W        W 9263   3.988   1.046   9.989
 5213W        W 9264   6.227   0.455   8.845
 5214W        W 9265   9.133   6.582  11.657
 5215W        W 9266   9.467   1.362   1.978
 5216W        W 9267   8.953   8.492   8.580
 5217W        W 9268   6.533   6.765   3.503
 5218W        W 9269  10.420   5.226   0.432
 5219W        W 9270   0.730   7.153  10.502
 5220W        W 9271   2.237   5.574  10.571
 5221W        W 9272   1.541   4.983   9.827
 5222W        W 9273   0.249   2.136  11.448
 5223W        W 9274   9.449  11.388   2.957
 5224W        W 9275   7.967   1.186   0.197
 5225W        W 9276   3.317   7.023   1.309
 5226W        W 9277   3.569   8.460   1.130
 5227W        W 9278   8.920   7.295  11.535
 5228W        W 9279   2.489   4.266   0.100
 5229W        W 9280   0.910   0.325   1.291
 5230W        W 9281   5.317   1.013   9.044
 5231W        W 9282   7.982   9.337  10.869
 5232W        W 9283   1.227   8.675  11.061
 5233W        W 9284   2.647   0.134   2.215
 5234W        W 9285   3.143  10.808   0.143
 5235W        W 9286   0.654   5.477   0.420
 5236W        W 9287   1.135   1.888   9.500
 5237W        W 9288   2.076   2.921  10.821
 5238W        W 9289   8.493   4.938   2.387
 5239W        W 9290   6.688   0.460  11.208
 5240W        W 9291   9.409   9.898  11.987
 5241W        W 9292   9.595   8.549   1.176
 5242W        W 9293  11.094   8.147  10.718
 5243W        W 9294  11.033   3.989  10.953
 5244W        W 9295   9.322   2.157  11.539
 5245W        W 9296   3.180   4.791   2.496
 5246W        W 9297  11.205   0.472   0.088
 5247W        W 9298   1.464   2.776   9.521
 5248W        W 9299   9.823   2.176  11.501
 5249W        W 9300   7.606   4.141  10.161
 5250W        W 9301   0.677   7.591   3.080
 5251W        W 9302   0.977   2.822  11.355
 5252W        W 9303   6.066   2.094  10.858
 5253W        W 9304   7.195   1.553  11.338
 5254W        W 9305   1.784   8.209   3.125
 5255W        W 9306   3.950   2.783   1.141
 5256W        W 9307   8.520  10.011  11.834
 5257W        W 9308  10.338   1.219   1.798
 5258W        W 9309   1.715   0.020   0.922
 5259W        W 9310   9.239   7.637   1.504
 5260W        W 9311   9.623   8.892   9.869
 5261W        W 9312   9.135   5.438   1.912
 5262W        W 9313   3.705   3.118   9.583
 5263W        W 9314   1.770   0.735   3.221
 5264W        W 9315   7.074   6.307  10.122
 5265W        W 9316   5.112   0.770  10.770
 5266W        W 9317   2.899   2.812   1.434
 5267W        W 9318   1.338   8.867   9.507
 5268W        W 9319   4.387   9.949  11.654
 5269W        W 9320   9.353   3.860   9.919
 5270W        W 9321   2.811   0.023   1.283
 5271W        W 9322  10.742   5.360  11.002
 5272W        W 9323   1.330   7.558   0.353
 5273W        W 9324   0.027   4.761  11.007
 5274W        W 9325  11.149   3.503  11.764
 5275W        W 9326   1.200   4.700   2.292
 5276W        W 9327   4.931  10.393   9.537
 5277W        W 9328   4.293   7.078   3.189
 5278W        W 9329   3.405   6.680   0.713
 5279W        W 9330   5.720   8.502  11.388
 5280W        W 9331   9.646   5.114  11.917
 5281W        W 9332   3.408   0.247  10.935
 5282W        W 9333   6.412   3.643   2.431
 5283W        W 9334   9.092   2.461  11.871
 5284W        W 9335   2.755  10.333   9.702
 5285W        W 9336   4.863  10.030  11.470
 5286W        W 9337   8.914   2.943   1.757
 5287W        W 9338   2.888   9.410  10.840
 5288W        W 9339  11.446   1.189   3.362
 5289W        W 9340   3.473   8.820  11.107
 5290W        W 9341   0.380   4.491  10.703
 5291W        W 9342   6.145   8.645   1.230
 5292W        W 9343   2.307   5.652  10.087
 5293W        W 9344   0.471   1.757   1.345
 5294W        W 9345   0.801   6.603   9.492
 5295W        W 9346   0.869   1.488   2.309
 5296W        W 9347  10.801   4.126  11.807
 5297W        W 9348   1.226   9.785  10.317
 5298W        W 9349   4.346   6.508  11.293
 5299W        W 9350   9.150   7.092   2.355
 5300W        W 9351   1.238   6.233   9.450
 5301W        W 9352   3.333  11.277  10.153
 5302W        W 9353   5.105   0.294  10.981
 5303W        W 9354  11.402   1.679   3.181
 5304W        W 9355   1.420   3.110   2.407
 5305W        W 9356  10.832   7.428   0.444
 5306W        W 9357  10.763   6.589   0.372
 5307W        W 9358   5.096   9.985   1.812
 5308W        W 9359   9.481   4.860  11.051
 5309W        W 9360   7.010   0.964   0.750
 5310W        W 9361   2.086   1.586  11.057
 5311W        W 9362   6.192   0.830   1.960
 5312W        W 9363   7.963   1.308  10.891
 5313W        W 9364   1.587   4.209  10.546
 5314W        W 9365  10.844   8.627   2.706
 5315W        W 9366   5.288   0.681   0.304
 5316W        W 9367   3.599   9.636   1.627
 5317W        W 9368   3.344   6.686  11.816
 5318W        W 9369   8.389   1.657  10.875
 5319W        W 9370   1.455   4.514  11.279
 5320W        W 9371  10.373   1.552  11.795
 5321W        W 9372   5.194   0.349   9.952
 5322W        W 9373   9.853   2.673   9.840
 5323W        W 9374   6.680   4.328   0.836
 5324W        W 9375   1.356   6.046  10.347
 5325W        W 9376   7.636   2.110  10.029
 5326W        W 9377  10.618  11.062   2.264
 5327W        W 9378   9.736   5.243  10.825
 5328W        W 9379   0.084   5.590   2.753
 5329W        W 9380   5.772   6.044   2.678
 5330W        W 9381   6.841   9.746   3.680
 5331W        W 9382   3.937   4.173   2.269
 5332W        W 9383   9.898  11.383   2.709
 5333W        W 9384   4.663   7.388   1.922
 5334W        W 9385   3.862   0.573   0.477
 5335W        W 9386   8.734   7.353   0.014
 5336W        W 9387   5.177   3.477   0.038
 5337W        W 9388   1.423   7.510   9.486
 5338W        W 9389  11.344   5.584  10.257
 5339W        W 9390   2.370   2.946   9.295
 5340W        W 9391   8.997   1.442   0.235
 5341W        W 9392   8.005   7.434  11.567
 5342W        W 9393   8.007   8.806   2.978
 5343W        W 9394   7.682   1.487  10.486
 5344W        W 9395   5.741   2.333  11.241
 5345W        W 9396   8.053   1.980  11.101
 5346W        W 9397   1.415   0.033   0.483
 5347W        W 9398   6.665   5.005  10.573
 5348W        W 9399   1.003   1.978  10.350
 5349W        W 9400   1.701   3.701   3.115
 5350W        W 9401   0.066   8.983   0.780
 5351W        W 9402  10.131   4.241  10.977
 5352W        W 9403   2.885   8.191   8.146
 5353W        W 9404   2.027   5.117   0.363
 5354W        W 9405  10.394   1.390   2.264
 5355W        W 9406   1.407   0.228   2.476
 5356W        W 9407   0.113   5.322   8.567
 5357W        W 9408   2.702   0.873  11.875
 5358W        W 9409   2.750   0.624   2.448
 5359W        W 9410   4.695   7.959  10.796
 5360W        W 9411   0.449   4.533  11.231
 5361W        W 9412   0.959   5.822   2.997
 5362W        W 9413   9.023  10.886   1.883
 5363W        W 9414   3.778   0.024   2.773
 5364W        W 9415   6.426   1.565  11.890
 5365W        W 9416   6.642  10.414   8.921
 5366W        W 9417   4.338   4.679   9.142
 5367W        W 9418   7.235   3.339  10.504
 5368W        W 9419   9.386  10.186   0.954
 5369W        W 9420   9.043  10.847   8.975
 5370W        W 9421   1.873  11.298   9.346
 5371W        W 9422  10.264   9.608  11.972
 5372W        W 9423   0.406   4.652   0.714
 5373W        W 9424   6.080   4.640   2.686
 5374W        W 9425   8.021  10.054   9.586
 5375W        W 9426  11.386   0.150  10.078
 5376W        W 9427   4.424   2.792  10.538
 5377W        W 9428   2.803  10.814   9.502
 5378W        W 9429   5.526   4.731   9.495
 5379W        W 9430  10.312   2.863   9.995
 5380W        W 9431   5.068   0.358  11.968
 5381W        W 9432   7.524   4.002   1.091
 5382W        W 9433   6.786   7.110  10.433
 5383W        W 9434   4.649   4.620   2.491
 5384W        W 9435   7.134   5.291  10.354
 5385W        W 9436   6.230   3.904  11.466
 5386W        W 9437   2.931   6.633  11.442
 5387W        W 9438   9.857   9.680   1.761
 5388W        W 9439   9.026   8.952   8.890
 5389W        W 9440   8.925   0.069   0.022
 5390W        W 9441   7.507   9.711   0.459
 5391W        W 9442   2.690   1.437   0.839
 5392W        W 9443   1.185   8.393   0.229
 5393W        W 9444   8.165   2.433  10.923
 5394W        W 9445   1.155   9.176  11.026
 5395W        W 9446   5.753   1.456   1.462
 5396W        W 9447   6.185   3.790   3.351
 5397W        W 9448   4.116   8.255  10.773
 5398W        W 9449   8.100   6.798   9.584
 5399W        W 9450   3.854   8.705   1.859
 5400W        W 9451   8.987  11.428   3.179
 5401W        W 9452   4.163   8.867   1.261
 5402W        W 9453   6.166   1.880  10.410
 5403W        W 9454   8.689   9.531   3.520
 5404W        W 9455   3.663   7.506   9.715
 5405W        W 9456   3.511   1.001   2.750
 5406W        W 9457   1.223  10.862  10.308
 5407W        W 9458   8.907  10.435   1.147
 5408W        W 9459  11.282   4.724   2.150
 5409W        W 9460   5.333   2.710   8.543
 5410W        W 9461   4.297   5.193   1.088
 5411W        W 9462   1.761   6.446   2.964
 5412W        W 9463   0.250  11.482   9.335
 5413W        W 9464   3.266   1.280  10.511
 5414W        W 9465   9.973   8.725  11.933
 5415W        W 9466   3.350  10.736   8.307
 5416W        W 9467   5.484   9.420   1.431
 5417W        W 9468   5.553   8.868  10.268
 5418W        W 9469   5.967   4.502   9.593
 5419W        W 9470   2.883   8.092  11.517
 5420W        W 9471   8.458  11.325   8.642
 5421W        W 9472   0.855   2.346  10.818
 5422W        W 9473   9.424   4.571   0.493
 5423W        W 9474   2.458   3.227   2.258
 5424W        W 9475   9.989   2.213   2.377
 5425W        W 9476   7.275   6.156   8.751
 5426W        W 9477  10.758   0.228   2.668
 5427W        W 9478   7.551   0.445   1.428
 5428W        W 9479   7.610   9.977   9.284
 5429W        W 9480   3.685   2.687   2.783
 5430W        W 9481  10.463   6.016   8.988
 5431W        W 9482   0.385   3.704   9.421
 5432W        W 9483   8.750   6.353  10.005
 5433W        W 9484  10.979   4.603   9.919
 5434W        W 9485   5.038   4.775   0.697
 5435W        W 9486   3.912   9.885   3.053
 5436W        W 9487   8.990   3.788   2.977
 5437W        W 9488   2.132   0.846   2.647
 5438W        W 9489   7.015   5.549   1.508
 5439W        W 9490   0.035   6.144   0.509
 5440W        W 9491   4.612   9.821   3.188
 5441W        W 9492  10.673   3.098  11.552
 5442W        W 9493   9.865   2.236   9.578
 5443W        W 9494   3.168   4.255   8.856
 5444W        W 9495   9.957   0.357  11.334
 5445W        W 9496   8.056   2.677   3.321
 5446W        W 9497   3.912   5.264  11.050
 5447W        W 9498   1.137   4.243  10.320
 5448W        W 9499   0.466   1.227   2.099
 5449W        W 9500   4.290   0.247  11.527
 5450W        W 9501   3.342   0.309  10.386
 5451W        W 9502   5.927   0.444   1.776
 5452W        W 9503   5.226   7.948   2.214
 5453W        W 9504   4.668   8.612   0.075
 5454W        W 9505   8.445   7.152   1.146
 5455W        W 9506   9.464   6.578   2.586
 5456W        W 9507   8.299   3.832   9.138
 5457W        W 9508   3.282   8.067  11.224
 5458W        W 9509   8.238   3.187   8.536
 5459W        W 9510   7.567   6.076   2.161
 5460W        W 9511  10.829   5.652   9.044
 5461W        W 9512   5.942   9.149   9.398
 5462W        W 9513   5.732  10.978  11.966
 5463W        W 9514   8.886  10.070   9.586
 5464W        W 9515   5.265   1.617   9.745
 5465W        W 9516   9.018   6.447   1.257
 5466W        W 9517   4.790   9.942   0.022
 5467W        W 9518   7.724   7.603  11.948
 5468W        W 9519   0.699   2.217   1.187
 5469W        W 9520  10.933   4.199   9.300
 5470W        W 9521  10.744  11.245   8.503
 5471W        W 9522   1.296   5.258   0.766
 5472W        W 9523   6.999   9.873   1.727
 5473W        W 9524   8.058   5.406  11.274
 5474W        W 9525   1.171   5.184  10.131
 5475W        W 9526   2.670   3.310   0.764
 5476W        W 9527   7.570  10.528   1.733
 5477W        W 9528   9.972  10.447  10.820
 5478W        W 9529   6.272   6.545   2.236
 5479W        W 9530  10.247   9.160   2.237
 5480W        W 9531   2.418   2.309   1.778
 5481W        W 9532   8.878   7.613   0.757
 5482W        W 9533  10.965   4.673   1.194
 5483W        W 9534   9.823  10.962  11.836
 5484W        W 9535  11.125   2.243  11.929
 5485W        W 9536   3.920   1.595  11.481
 5486W        W 9537  11.394   4.484   8.520
 5487W        W 9538   7.576   7.156  11.709
 5488W        W 9539   5.960   2.736   1.925
 5489W        W 9540   1.824  10.862   2.116
 5490W        W 9541   6.075  10.571   3.707
 5491W        W 9542   8.868   8.892  11.637
 5492W        W 9543  10.525   4.193   3.643
 5493W        W 9544   4.646   0.422  10.566
 5494W        W 9545   5.297   0.824   2.431
 5495W        W 9546   7.311   7.539   3.110
 5496W        W 9547   9.623   2.607   2.796
 5497W        W 9548   1.726   0.455   8.539
 5498W        W 9549   8.067   6.838  10.388
 5499W        W 9550   9.442   1.061   8.569
 5500W        W 9551   6.921   2.530  11.553
 5501W        W 9552   8.611   0.710  10.685
 5502W        W 9553   0.766   7.710   8.896
 5503W        W 9554   2.177   3.633  11.838
 5504W        W 9555   9.391  10.760  10.763
 5505W        W 9556   8.862   4.352   1.740
 5506W        W 9557   4.858   7.153   8.956
 5507W        W 9558   5.273   8.304   2.635
 5508W        W 9559   0.520   3.179   9.283
 5509W        W 9560  10.557   6.137   0.366
 5510W        W 9561  10.966   6.613   9.085
 5511W        W 9562   0.973   6.169   0.429
 5512W        W 9563   5.842   1.409   0.205
 5513W        W 9564   1.308   8.936   1.500
 5514W        W 9565   7.665   2.451   1.302
 5515W        W 9566   2.674   3.000   8.773
 5516W        W 9567   9.474   9.136   0.301
 5517W        W 9568   3.669   0.886  11.853
 5518W        W 9569  10.112   5.206   0.844
 5519W        W 9570  11.048   7.380   2.085
 5520W        W 9571   1.609   8.071   8.840
 5521W        W 9572   1.572   2.886  11.929
 5522W        W 9573   4.101   1.291   9.549
 5523W        W 9574   6.114   3.253  11.649
 5524W        W 9575   6.127   6.669   9.354
 5525W        W 9576  11.368   8.884   0.309
 5526W        W 9577   4.090   9.378   0.902
 5527W        W 9578   8.025   5.179   2.346
 5528W        W 9579   6.878   1.687  11.721
 5529W        W 9580   5.284   7.149  10.439
 5530W        W 9581   9.225   8.153   3.121
 5531W        W 9582   7.178   3.766  11.310
 5532W        W 9583   7.202   8.998   1.334
 5533W        W 9584   0.342   5.071   9.793
 5534W        W 9585   9.611   8.873   1.969
 5535W        W 9586   8.461   0.277  10.938
 5536W        W 9587   3.666   4.579   1.073
 5537W        W 9588   6.141   0.317   9.787
 5538W        W 9589   1.523   5.687   0.933
 5539W        W 9590   4.440   0.900   9.572
 5540W        W 9591   3.714   3.635   0.259
 5541W        W 9592   8.887  10.468   0.652
 5542W        W 9593   0.754   4.629   8.646
 5543W        W 9594   2.664   6.433   1.858
 5544W        W 9595   0.759   6.562   8.453
 5545W        W 9596   3.099  11.497   2.002
 5546W        W 9597   9.411   9.751   0.720
 5547W        W 9598   4.481   4.326   1.207
 5548W        W 9599   8.197   3.200   2.620
 5549W        W 9600   7.865   9.067   2.107
 5550W        W 9601   8.467   8.521   0.500
 5551W        W 9602   0.825   8.353  11.813
 5552W        W 9603   9.595   5.553  10.352
 5553W        W 9604   1.264   8.275   3.172
 5554W        W 9605   5.549  10.843  10.092
 5555W        W 9606   5.058   7.617  10.533
 5556W        W 9607   1.949   2.510   8.463
 5557W        W 9608   7.614   8.596   1.345
 5558W        W 9609   5.160  10.609   2.692
 5559W        W 9610  10.975   6.684   0.817
 5560W        W 9611   2.310   2.279  11.991
 5561W        W 9612   9.967   7.658   2.810
 5562W        W 9613   3.706   1.696   8.876
 5563W        W 9614  10.412   7.072  11.139
 5564W        W 9615   2.343   0.929   1.420
 5565W        W 9616   2.609  11.084  11.315
 5566W        W 9617   5.548   0.931  11.014
 5567W        W 9618   4.429   9.877   9.280
 5568W        W 9619   6.448   6.545   0.177
 5569W        W 9620  10.794   3.050   2.001
 5570W        W 9621  10.426   1.127   9.385
 5571W        W 9622   5.980   5.743   9.175
 5572W        W 9623   2.200   2.324   2.785
 5573W        W 9624   8.058   7.845   2.673
 5574W        W 9625   7.507  11.004  11.980
 5575W        W 9626  11.455   8.650   2.808
 5576W        W 9627   4.835   3.955  11.262
 5577W        W 9628   5.622   1.938   1.492
 5578W        W 9629   0.342   2.732   2.831
 5579W        W 9630   7.653  11.367   9.920
 5580W        W 9631   7.764   8.957  11.135
 5581W        W 9632   5.983   3.958   2.375
 5582W        W 9633   5.150   7.505   0.363
 5583W        W 9634   8.194   1.954   1.721
 5584W        W 9635   8.638   8.041   8.615
 5585W        W 9636   5.062   9.296   0.012
 5586W        W 9637   6.993   4.118   3.469
 5587W        W 9638   6.684   7.367   1.413
 5588W        W 9639   6.172   0.468   3.351
 5589W        W 9640   0.397   3.562   0.200
 5590W        W 9641   7.782   7.132  10.712
 5591W        W 9642   0.055   9.810   0.391
 5592W        W 9643   9.059   2.795   0.292
 5593W        W 9644   8.165   1.657   0.379
 5594W        W 9645   2.185   3.851   9.732
 5595W        W 9646   9.534   9.601   8.504
 5596W        W 9647   3.331   8.255   8.447
 5597W        W 9648   5.552   4.382   9.083
 5598W        W 9649   0.792  10.587  11.153
 5599W        W 9650   8.945   8.583  10.273
 5600W        W 9651   5.801   7.448   1.159
 5601W        W 9652   4.218   4.070  10.707
 5602W        W 9653   4.826   1.738   9.969
 5603W        W 9654   8.568   6.693  10.377
 5604W        W 9655   4.059   9.076  10.181
 5605W        W 9656   3.845   5.289   0.799
 5606W        W 9657   8.935   9.981   3.545
 5607W        W 9658   3.670   5.882  11.644
 5608W        W 9659  10.840   3.139   3.486
 5609W        W 9660   4.766   2.643   2.748
 5610W        W 9661   4.027   0.910   2.685
 5611W        W 9662  10.285  10.517   1.066
 5612W        W 9663   3.843   4.891  11.830
 5613W        W 9664   8.607   4.459  10.821
 5614W        W 9665  10.892   0.387   1.791
 5615W        W 9666   3.721   9.455  11.750
 5616W        W 9667  10.266  10.780   9.572
 5617W        W 9668   7.978   5.227   8.666
 5618W        W 9669   9.544   1.155  10.805
 5619W        W 9670   0.371  11.354  11.075
 5620W        W 9671   9.525   0.340   1.447
 5621W        W 9672  11.334   8.081   9.253
 5622W        W 9673   6.001   9.132  10.392
 5623W        W 9674   0.358   0.842   1.123
 5624W        W 9675   6.936   1.651   9.800
 5625W        W 9676   1.333   4.083  11.507
 5626W        W 9677   9.846   7.475   0.825
 5627W        W 9678   7.892   2.798   9.951
 5628W        W 9679   2.656   8.331  10.658
 5629W        W 9680   9.623   6.440   8.217
 5630W        W 9681  11.309   0.026   2.728
 5631W        W 9682   3.764  11.279   3.258
 5632W        W 9683   2.999   7.854   2.236
 5633W        W 9684   3.748   2.995   2.366
 5634W        W 9685   3.653   6.237   3.563
 5635W        W 9686  11.457   9.863   1.296
 5636W        W 9687   7.706   5.170   0.509
 5637W        W 9688   3.162   2.399   1.293
 5638W        W 9689   0.705   7.903   9.763
 5639W        W 9690   0.492   5.784   1.871
 5640W        W 9691   9.547   3.174   1.325
 5641W        W 9692   6.040   8.306   0.229
 5642W        W 9693   2.258   9.025   1.981
 5643W        W 9694   4.568  10.330   9.046
 5644W        W 9695   7.887  11.444   2.984
 5645W        W 9696   9.403   8.155   0.346
 5646W        W 9697   4.237   6.056  11.092
 5647W        W 9698   1.460   6.956  10.557
 5648W        W 9699   8.455   6.221  10.531
 5649W        W 9700   9.232   4.998  11.660
 5650W        W 9701   0.945   3.714   0.956
 5651W        W 9702   7.980   9.044   3.429
 5652W        W 9703   0.396   9.343   9.033
 5653W        W 9704   8.680   1.248   3.107
 5654W        W 9705   8.551   4.755   9.032
 5655W        W 9706   6.453   6.254  10.928
 5656W        W 9707   2.941   4.712  11.422
 5657W        W 9708   2.295   0.545   9.547
 5658W        W 9709   6.585  11.221   2.525
 5659W        W 9710   5.672   5.100   1.780
 5660W        W 9711   6.027   6.315   8.152
 5661W        W 9712   9.858  10.665   2.018
 5662W        W 9713   3.256   3.772   9.111
 5663W        W 9714   1.222   3.278   1.033
 5664W        W 9715   9.080  11.242   9.958
 5665W        W 9716   9.600   2.903  10.494
 5666W        W 9717   5.069   3.236   0.498
 5667W        W 9718   3.401   9.339   2.258
 5668W        W 9719   5.079   7.899   0.015
 5669W        W 9720   3.075   4.132  10.797
 5670W        W 9721   3.647   1.274   0.671
 5671W        W 9722   6.534   4.146   3.184
 5672W        W 9723   7.538   0.346  10.184
 5673W        W 9724   3.586  10.483  11.871
 5674W        W 9725   9.066   2.770   1.266
 5675W        W 9726   3.837  10.805   2.073
 5676W        W 9727   6.207  10.021   1.366
 5677W        W 9728   5.279   7.872   0.994
 5678W        W 9729   7.860   1.428   9.157
 5679W        W 9730   3.419   7.696   0.019
 5680W        W 9731   7.694   1.176  11.762
 5681W        W 9732   9.973  10.710   0.287
 5682W        W 9733   7.287   7.979   9.363
 5683W        W 9734   7.635   9.757  10.798
 5684W        W 9735   3.330   5.231   1.986
 5685W        W 9736   8.429   4.708  10.418
 5686W        W 9737   3.124   0.637   2.806
 5687W        W 9738  10.454   2.290   2.614
 5688W        W 9739   9.977   0.840   9.486
 5689W        W 9740  10.282   9.348   9.495
 5690W        W 9741   9.444   2.659   3.308
 5691W        W 9742   7.412   9.129  11.485
 5692W        W 9743   8.049   3.360   9.155
 5693W        W 9744   5.771   5.675   1.157
 5694W        W 9745   2.249   5.295   3.534
 5695W        W 9746   0.675   5.706   3.387
 5696W        W 9747   4.107   1.438  11.016
 5697W        W 9748   2.661   4.151   1.771
 5698W        W 9749   5.582   8.294   3.257
 5699W        W 9750   6.538  10.065   8.162
 5700W        W 9751   3.369   1.871   1.294
 5701W        W 9752   1.008  10.962   0.790
 5702W        W 9753   6.717   6.690   3.012
 5703W        W 9754   3.864   4.390   0.630
 5704W        W 9755   2.314   0.037   9.530
 5705W        W 9756  11.485  11.396   3.210
 5706W        W 9757   9.172   6.629   9.994
 5707W        W 9758   7.934   4.148   2.164
 5708W        W 9759   9.136   4.280   3.083
 5709W        W 9760   3.204   9.846   1.887
 5710W        W 9761   2.716   6.675   2.350
 5711W        W 9762  10.403   7.034  10.373
 5712W        W 9763   6.746   2.077   2.852
 5713W        W 9764   2.726   9.041  11.511
 5714W        W 9765   4.428   6.747   8.593
 5715W        W 9766   2.120   8.604  11.810
 5716W        W 9767   7.677   3.780  11.478
 5717W        W 9768  10.427   7.596  11.235
 5718W        W 9769   4.474   0.637   1.820
 5719W        W 9770   3.892   4.408  10.499
 5720W        W 9771  10.158  10.501   1.575
 5721W        W 9772   0.094   0.963   1.837
 5722W        W 9773   2.131   7.465   1.011
 5723W        W 9774   1.130   0.255  10.692
 5724W        W 9775  11.280   1.291   1.429
 5725W        W 9776   3.526   9.645   2.806
 5726W        W 9777   3.565   2.299   2.469
 5727W        W 9778   7.623   0.181   9.150
 5728W        W 9779   1.762   1.261   3.392
 5729W        W 9780   3.186   5.727  10.984
 5730W        W 9781   6.941   4.644   0.241
 5731W        W 9782  11.048   0.255   3.107
 5732W        W 9783   4.386   8.722  11.618
 5733W        W 9784   1.205   0.630  10.363
 5734W        W 9785   9.979   1.878  11.903
 5735W        W 9786   5.578   3.306   9.830
 5736W        W 9787   2.531   8.595   8.341
 5737W        W 9788   1.276   1.070  10.606
 5738W        W 9789  10.852   3.360   2.999
 5739W        W 9790   3.946   8.417   1.432
 5740W        W 9791   8.688   7.844  11.888
 5741W        W 9792   9.396   1.707   2.876
 5742W        W 9793   9.415   4.898   0.999
 5743W        W 9794   1.938   3.680   8.894
 5744W        W 9795  11.382   8.832   1.475
 5745W        W 9796   4.213   9.944   0.866
 5746W        W 9797   2.796   1.677   0.189
 5747W        W 9798   7.222   3.844  10.259
 5748W        W 9799   7.671   8.030  11.607
 5749W        W 9800   3.158   3.649   1.841
 5750W        W 9801   5.216   9.076   8.989
 5751W        W 9802  10.550   7.712  11.719
 5752W        W 9803   2.660  10.403   8.734
 5753W        W 9804   0.059   7.530  11.359
 5754W        W 9805   0.322   1.203  11.219
 5755W        W 9806  10.936  11.266   3.226
 5756W        W 9807   5.846   1.595   8.567
 5757W        W 9808   3.250   1.399   9.326
 5758W        W 9809   5.987   6.500   2.655
 5759W        W 9810  10.957   6.245   0.038
 5760W        W 9811   3.863   3.868  10.983
 5761W        W 9812  11.365   7.197   9.386
 5762W        W 9813   0.154   1.406  10.338
 5763W        W 9814   0.839   0.863   2.193
 5764W        W 9815   1.076   6.066  11.340
 5765W        W 9816   3.162   4.943   0.398
 5766W        W 9817   0.680   8.398   0.319
 5767W        W 9818   6.696  11.375   0.357
 5768W        W 9819   8.969   0.945   0.967
 5769W        W 9820  11.293   1.134   9.539
 5770W        W 9821   0.919   4.212   2.244
 5771W        W 9822   8.137   9.259   2.835
 5772W        W 9823   9.494   2.148   1.445
 5773W        W 9824   1.235   7.562  11.858
 5774W        W 9825   2.234   6.133   1.961
 5775W        W 9826   9.473   9.339   1.808
 5776W        W 9827  10.576   6.229  10.761
 5777W        W 9828   9.358   7.009   3.313
 5778W        W 9829   8.602   6.185   1.464
 5779W        W 9830   7.057   6.272   8.294
 5780W        W 9831   0.938   5.314  10.861
 5781W        W 9832   8.883   9.576   2.187
 5782W        W 9833  11.327   7.447   0.298
 5783W        W 9834   8.710   0.379   2.802
 5784W        W 9835   6.738   3.159  10.288
 5785W        W 9836   5.874   9.914   3.412
 5786W        W 9837   5.951   4.578   0.216
 5787W        W 9838   5.717   7.407   3.638
 5788W        W 9839   6.373   8.057  11.837
 5789W        W 9840  11.408   5.787   2.301
 5790W        W 9841  10.819  10.841   0.372
 5791W        W 9842   7.001   3.696  11.803
 5792W        W 9843   6.854   2.292   2.034
 5793W        W 9844   8.186  10.471   0.476
 5794W        W 9845   2.802   1.285   1.721
 5795W        W 9846   8.519   6.621   1.157
 5796W        W 9847   7.987  10.532   2.582
 5797W        W 9848   5.544  10.987   1.772
 5798W        W 9849  11.439   4.808   9.553
 5799W        W 9850   2.757   0.336   9.120
 5800W        W 9851  10.764   4.113  10.524
 5801W        W 9852   3.114   7.161  11.351
 5802W        W 9853   4.761  10.272   2.735
 5803W        W 9854   1.213  10.097   0.871
 5804W        W 9855   5.433   3.647   8.579
 5805W        W 9856   2.304   7.190   0.067
 5806W        W 9857   6.154   9.796  11.844
 5807W        W 9858   4.052   7.543  10.037
 5808W        W 9859   5.270   8.617   4.164
 5809W        W 9860   7.414   1.006   2.937
 5810W        W 9861   0.219   1.329   1.175
 5811W        W 9862   7.159   9.632   9.796
 5812W        W 9863  10.526   2.760  10.467
 5813W        W 9864  11.375   0.726   2.231
 5814W        W 9865   1.213  10.827   3.232
 5815W        W 9866   2.479  10.750   0.717
 5816W        W 9867   0.993   9.562   8.600
 5817W        W 9868   6.531   2.404   8.912
 5818W        W 9869   2.643   0.764  10.792
 5819W        W 9870   4.578   6.195   0.288
 5820W        W 9871   3.437   0.893   0.325
 5821W        W 9872   0.576   9.454  11.809
 5822W        W 9873   5.921   2.280   1.707
 5823W        W 9874   2.795   3.334   9.740
 5824W        W 9875   2.798  10.088  11.425
 5825W        W 9876   5.128   3.343   9.581
 5826W        W 9877   0.230   4.012   9.004
 5827W        W 9878   8.191   3.651  11.501
 5828W        W 9879   6.565   0.120   0.931
 5829W        W 9880   1.821   1.362   0.794
 5830W        W 9881  11.409  10.682   3.780
 5831W        W 9882   0.098   3.861  10.283
 5832W        W 9883  10.232   4.654   3.270
 5833W        W 9884  10.530   7.871   9.190
 5834W        W 9885   5.296   8.013  10.178
 5835W        W 9886   6.978   6.545   0.349
 5836W        W 9887  10.405   6.733  11.560
 5837W        W 9888   6.171   4.574   1.723
 5838W        W 9889  10.527   7.869   1.453
 5839W        W 9890   6.263   7.938  10.058
 5840W        W 9891   4.022   6.450   1.415
 5841W        W 9892   6.619   5.762   0.717
 5842W        W 9893   0.395   0.910   2.994
 5843W        W 9894   3.096   6.229  11.075
 5844W        W 9895   7.203   4.203   0.377
 5845W        W 9896  10.147  10.240   0.288
 5846W        W 9897   6.886   2.160   9.618
 5847W        W 9898  10.983   3.845   2.837
 5848W        W 9899   6.647   0.259  10.248
 5849W        W 9900   1.809   4.388  10.964
 5850W        W 9901  10.824   1.912   9.770
 5851W        W 9902   9.129   7.712   9.280
 5852W        W 9903   0.047   0.064   0.052
 5853W        W 9904   8.284   5.687  11.832
 5854W        W 9905   0.290   9.046   1.231
 5855W        W 9906   4.392   1.742  11.679
 5856W        W 9907   4.184   8.615  10.409
 5857W        W 9908   0.809   4.820  11.477
 5858W        W 9909   6.501   7.209  10.928
 5859W        W 9910   1.750   5.267   8.377
 5860W        W 9911   7.575   0.944   1.559
 5861W        W 9912   7.148   0.147   0.373
 5862W        W 9913   3.525  10.426   9.972
 5863W        W 9914   2.205   0.349   9.094
 5864W        W 9915   9.818  10.058   2.915
 5865W        W 9916   8.260   7.564  11.975
 5866W        W 9917   4.722   6.757   0.761
 5867W        W 9918   9.389   9.298   2.738
 5868W        W 9919  11.075   5.010  10.262
 5869W        W 9920   2.873   4.210   9.843
 5870W        W 9921   3.523   3.076  10.568
 5871W        W 9922  10.917   2.655  11.712
 5872W        W 9923   7.535   1.878   0.352
 5873W        W 9924   7.572   6.692  10.474
 5874W        W 9925   1.896   5.232  10.761
 5875W        W 9926   4.716   9.550  11.699
 5876W        W 9927   7.030   4.325   2.288
 5877W        W 9928   7.095   3.417  10.028
 5878W        W 9929   5.569   5.803   0.696
 5879W        W 9930   2.784   2.832   9.587
 5880W        W 9931  10.530   7.453   1.961
 5881W        W 9932  10.513   4.965   9.452
 5882W        W 9933   7.595  10.441  10.088
 5883W        W 9934   6.279   7.545  11.767
 5884W        W 9935   5.506   8.077  11.737
 5885W        W 9936   9.160   4.148   0.519
 5886W        W 9937  11.267   3.109   9.145
 5887W        W 9938   2.788   8.376  10.166
 5888W        W 9939   7.038   9.267   0.928
 5889W        W 9940   4.206   2.303   9.906
 5890W        W 9941   3.844   6.635   9.888
 5891W        W 9942  11.044   2.691   1.227
 5892W        W 9943   0.218   7.790   2.927
 5893W        W 9944   4.020   1.461  11.960
 5894W        W 9945   5.160   4.698  10.680
 5895W        W 9946   0.302  10.714   0.312
 5896W        W 9947   7.013   7.961  10.947
 5897W        W 9948   1.682   1.788   9.595
 5898W        W 9949  10.201   1.331   3.537
 5899W        W 9950  10.911   9.137   0.546
 5900W        W 9951   8.023   1.563   3.483
 5901W        W 9952   3.630   4.696   8.482
 5902W        W 9953   7.949  10.127  10.593
 5903W        W 9954   5.184   8.128   1.746
 5904W        W 9955   1.702  10.011   2.531
 5905W        W 9956   2.344   1.921   0.432
 5906W        W 9957   6.671   8.191   2.795
 5907W        W 9958   9.831   1.229   1.274
 5908W        W 9959   2.750   3.225   2.713
 5909W        W 9960   8.989   6.858  11.258
 5910W        W 9961   6.154   0.529  11.258
 5911W        W 9962   2.827  10.506   2.888
 5912W        W 9963   9.967  10.798   8.566
 5913W        W 9964   4.661   3.884   1.005
 5914W        W 9965   9.304   9.857   9.846
 5915W        W 9966   5.203   3.730   0.491
 5916W        W 9967   3.298   2.891   0.399
 5917W        W 9968   3.177   1.272   3.779
 5918W        W 9969   0.767  11.211   1.837
 5919W        W 9970   3.739   8.380   0.161
 5920W        W 9971   4.750   8.586  11.310
 5921W        W 9972   9.959  11.392  10.031
 5922W        W 9973   3.659   0.201   8.696
 5923W        W 9974   2.204   9.539   1.690
 5924W        W 9975   9.934   3.772   2.100
 5925W        W 9976  10.946   4.077   9.794
 5926W        W 9977   5.331   7.314   3.167
 5927W        W 9978   5.166   9.478   1.886
 5928W        W 9979   9.072   3.572   2.369
 5929W        W 9980   1.104  10.444   1.727
 5930W        W 9981   1.358   1.434   9.363
 5931W        W 9982   3.320   6.627   3.682
 5932W        W 9983  10.526   7.387   9.425
 5933W        W 9984   6.255   5.594  10.905
 5934W        W 9985  11.347   6.976  11.952
 5935W        W 9986   6.109   5.702   0.757
 5936W        W 9987   4.169   7.919  11.518
 5937W        W 9988   1.247  10.924  11.215
 5938W        W 9989   0.816   3.292  10.547
 5939W        W 9990   4.190   7.874   1.765
 5940W        W 9991   2.976   8.950  11.079
 5941W        W 9992  10.949   1.593   0.464
 5942W        W 9993   4.187   0.183  10.512
 5943W        W 9994   6.416   3.691   2.921
 5944W        W 9995   0.830   7.890   1.043
 5945W        W 9996   1.728   8.946  10.322
 5946W        W 9997   7.317   6.066  11.084
 5947W        W 9998   6.737   7.167   2.741
 5948W        W 9999   8.920   2.215   0.292
 5949W        W10000   2.516   7.804   0.745
 5950W        W10001   6.775   5.493  10.677
 5951W        W10002   9.015   8.098  10.993
 5952W        W10003   3.409   1.800  11.365
 5953W        W10004   8.149   5.344   9.935
 5954W        W10005   0.859  10.695  11.646
 5955W        W10006   2.566   7.574   2.310
 5956W        W10007   2.219   2.874   3.562
 5957W        W10008   1.315   1.202   2.262
 5958W        W10009   4.698   1.970   3.286
 5959W        W10010   6.008   4.708   1.229
 5960W        W10011   8.498  10.421  10.701
 5961W        W10012   2.724   7.428  11.785
 5962W        W10013   8.658   2.795   9.622
 5963W        W10014   7.579   9.933   9.801
 5964W        W10015   4.611   4.316   3.892
 5965W        W10016   4.744   8.837   9.934
 5966W        W10017  11.129   4.360   2.482
 5967W        W10018   8.033  10.539   9.810
 5968W        W10019   1.650   9.855   3.025
 5969W        W10020   1.279  11.322   9.484
 5970W        W10021   2.568   4.092   0.575
 5971W        W10022   9.961   2.095  11.012
 5972W        W10023   4.075  11.212   0.297
 5973W        W10024   8.496   7.611  11.474
 5974W        W10025   7.697   9.562   2.792
 5975W        W10026   3.791   2.468   3.279
 5976W        W10027   7.671   1.418  11.333
 5977W        W10028   7.648   3.106   1.981
 5978W        W10029   9.872   5.403  11.566
 5979W        W10030   2.790   4.996   4.150
 5980W        W10031   8.952   0.489  11.032
 5981W        W10032   4.804   9.969   8.675
 5982W        W10033   6.303   7.048  11.964
 5983W        W10034   9.622   3.394   0.881
 5984W        W10035   0.323   6.857   9.167
 5985W        W10036   9.307   0.195   1.912
 5986W        W10037   8.599   4.725   8.193
 5987W        W10038   9.560   8.631   9.411
 5988W        W10039   2.436   0.578   3.454
 5989W        W10040   2.320   1.336   1.899
 5990W        W10041   7.010   5.681   0.391
 5991W        W10042  10.860   1.657   1.934
 5992W        W10043   0.361   4.300   9.395
 5993W        W10044   4.979  11.361  11.934
 5994W        W10045   6.217   5.270  11.319
 5995W        W10046   5.076  10.433   0.806
 5996W        W10047   9.379   8.011  10.608
 5997W        W10048   0.777  11.077  11.330
 5998W        W10049   6.047   6.965  10.932
 5999W        W10050   8.896   1.805  10.764
 6000W        W10051   8.117   9.114   9.178
 6001W        W10052   7.257   2.203   1.726
 6002W        W10053  11.497   3.832   2.862
 6003W        W10054   8.947   2.099   2.606
 6004W        W10055   3.285   6.192   2.298
 6005W        W10056   7.998   1.913  10.582
 6006W        W10057   8.501   0.750   3.207
 6007W        W10058   5.517   8.048  11.232
 6008W        W10059   3.377   4.489  10.583
 6009W        W10060   4.887   0.106   1.871
 6010W        W10061   8.060   4.832   8.976
 6011W        W10062   6.706   1.316  10.551
 6012W        W10063   6.616   8.953   1.366
 6013W        W10064   0.343   6.539   8.776
 6014W        W10065   7.706   7.080   9.206
 6015W        W10066   8.879   8.437   9.784
 6016W        W10067  10.057  10.701   9.081
 6017W        W10068   6.078   4.188  11.896
 6018W        W10069   7.965   6.816   3.602
 6019W        W10070   9.191   4.800   3.113
 6020W        W10071   8.998   2.439   3.814
 6021W        W10072   5.091   9.917   0.835
 6022W        W10073   3.614   6.603   2.246
 6023W        W10074   3.275   7.054   3.371
 6024W        W10075  10.862  10.954  10.882
 6025W        W10076   1.700  10.441   9.510
 6026W        W10077  10.830   0.597   3.435
 6027W        W10078   6.514   7.432   0.440
 6028W        W10079   5.068  11.057   2.991
 6029W        W10080   5.109   2.294   2.330
 6030W        W10081  10.623   4.076   8.918
 6031W        W10082   2.273   2.765   2.032
 6032W        W10083   9.612   6.911  11.733
 6033W        W10084   3.560   6.892   9.021
 6034W        W10085  11.282  11.210   9.748
 6035W        W10086   3.771   8.890   0.947
 6036W        W10087   6.245   6.821   3.923
 6037W        W10088   6.020   3.461   0.693
 6038W        W10089   8.042   0.889   8.587
 6039W        W10090   3.481   6.565   3.184
 6040W        W10091   2.156   9.105  10.541
 6041W        W10092   5.009   2.403   0.779
 6042W        W10093   8.932   6.223   3.696
 6043W        W10094   2.307   9.322   3.740
 6044W        W10095   6.667  11.316   9.002
 6045W        W10096   1.072   7.911   8.504
 6046W        W10097   7.641   8.175   0.589
 6047W        W10098   4.822  10.750   9.197
 6048W        W10099  10.803   4.554   0.724
 6049W        W10100   6.382   8.983   9.595
 6050W        W10101   7.290   6.672   1.257
 6051W        W10102   2.149   8.249   8.593
 6052W        W10103   0.897   4.584   3.082
 6053W        W10104   4.235   9.082  10.670
 6054W        W10105   0.833   8.703   2.298
 6055W        W10106   1.875   4.654   9.040
 6056W        W10107   2.957   4.327   2.189
 6057W        W10108  11.216   8.914   2.434
 6058W        W10109   3.912   1.053   0.262
 6059W        W10110   2.299   2.860   1.043
 6060W        W10111   7.185  11.241  11.380
 6061W        W10112   9.119   4.828   8.287
 6062W        W10113   9.329   5.762   0.614
 6063W        W10114   9.347   6.197   2.929
 6064W        W10115   6.542  10.330   0.634
 6065W        W10116  10.611   4.377  10.939
 6066W        W10117   1.295  10.201   9.948
 6067W        W10118   5.723   0.831   0.573
 6068W        W10119   7.985  10.948   9.101
 6069W        W10120   7.980   9.543  11.340
 6070W        W10121   9.937   2.889   1.657
 6071W        W10122   0.266  10.899   3.134
 6072W        W10123   8.134   3.144   3.125
 6073W        W10124  10.289   7.457   8.979
 6074W        W10125   7.007   8.014   1.640
 6075W        W10126  11.445   8.342  11.679
 6076W        W10127   5.471   6.941   8.766
 6077W        W10128   7.030  10.333  11.756
 6078W        W10129   4.264   7.975   9.836
 6079W        W10130   8.404   6.111   2.932
 6080W        W10131   4.267   8.977   2.635
 6081W        W10132  11.398   4.345   9.778
 6082W        W10133   0.767   1.741   9.982
 6083W        W10134   7.048   8.430   9.919
 6084W        W10135   6.188   7.627   9.252
 6085W        W10136   1.388   0.277  10.018
 6086W        W10137   4.972  11.210   9.345
 6087W        W10138   7.457   5.714  10.245
 6088W        W10139   6.252   1.925   2.739
 6089W        W10140   2.767   2.175   3.419
 6090W        W10141   7.143   8.148   8.461
 6091W        W10142   4.138   1.626   1.716
 6092W        W10143   1.570   9.248   1.174
 6093W        W10144   8.467   5.429   2.195
 6094W        W10145   0.314   8.369   9.092
 6095W        W10146   8.743   0.519  11.866
 6096W        W10147  10.408   3.522   9.115
 6097W        W10148   6.447   0.011   3.456
 6098W        W10149   1.253   3.772   9.379
 6099W        W10150   5.940   3.460   2.473
 6100W        W10151   9.731   9.459   3.637
 6101W        W10152   4.642   5.734   0.028
 6102W        W10153   9.016   3.747  11.694
 6103W        W10154   8.988   7.096   9.996
 6104W        W10155   9.118  10.017   2.409
 6105W        W10156   6.126   2.404  10.426
 6106W        W10157   2.893   8.432   8.648
 6107W        W10158   8.989   9.818   9.129
 6108W        W10159   8.081   5.998   1.031
 6109W        W10160   5.491   2.673   0.029
 6110W        W10161   0.406   2.270   3.013
 6111W        W10162   6.462   9.494   2.779
 6112W        W10163   5.628   3.322  11.825
 6113W        W10164   3.531   1.407   0.183
 6114W        W10165   8.835   6.219   2.182
 6115W        W10166   4.561   8.570   2.447
 6116W        W10167   0.788   9.845   3.068
 6117W        W10168   5.662   9.269   0.983
 6118W        W10169   3.695   6.238   4.081
 6119W        W10170  10.071  10.781   2.488
 6120W        W10171   0.251  11.363   9.825
 6121W        W10172   6.087   7.562   9.758
 6122W        W10173   2.745   5.183   8.582
 6123W        W10174   2.410   5.747   0.726
 6124W        W10175   5.652   1.820  10.003
 6125W        W10176   6.568   0.760   2.279
 6126W        W10177   1.266   9.154   8.456
 6127W        W10178   8.183   8.707  10.986
 6128W        W10179   3.661   4.836  10.355
 6129W        W10180  11.070   6.994   0.407
 6130W        W10181   2.508   5.243   1.512
 6131W        W10182   4.760   2.323   3.678
 6132W        W10183   9.521   3.153   0.429
 6133W        W10184   7.516   9.479   1.478
 6134W        W10185  10.408   4.040   9.412
 6135W        W10186   8.509   5.724   1.222
 6136W        W10187   4.741   9.557   2.213
 6137W        W10188   9.030  11.226  11.398
 6138W        W10189   6.623  10.007  11.857
 6139W        W10190   2.441   5.265   2.010
 6140W        W10191   7.373   1.633  10.116
 6141W        W10192   9.613   5.198   1.916
 6142W        W10193   7.113  11.329  11.908
 6143W        W10194   7.865   2.328   0.388
 6144W        W10195   0.388   2.604  11.569
 6145W        W10196   8.552   6.574   0.315
 6146W        W10197   0.752   1.828   2.704
 6147W        W10198   0.843   8.127  10.352
 6148W        W10199   1.796   0.991  11.788
 6149W        W10200   4.048   9.419   9.480
 6150W        W10201   4.301   9.918   1.373
 6151W        W10202   6.199  11.441   2.214
 6152W        W10203   1.695  10.671  11.162
 6153W        W10204  10.541   9.916   0.307
 6154W        W10205   3.999   6.568   3.345
 6155W        W10206  11.176   3.036   0.446
 6156W        W10207   1.691   6.200  10.725
 6157W        W10208  10.951   8.583   9.819
 6158W        W10209  10.542  10.551   3.215
 6159W        W10210   5.303   2.200   1.180
 6160W        W10211   4.371   4.405   0.717
 6161W        W10212   6.954   2.944  10.729
 6162W        W10213   9.603  10.986   2.665
 6163W        W10214   6.869   3.856   9.885
 6164W        W10215   9.917   3.897   3.090
 6165W        W10216   6.026   2.804   2.429
 6166W        W10217   4.801   0.481   0.393
 6167W        W10218   1.762   1.156   0.298
 6168W        W10219   9.145   4.783   1.799
 6169W        W10220  10.347   0.319   1.907
 6170W        W10221   7.953   7.186   0.870
 6171W        W10222   6.960  10.929   3.137
 6172W        W10223   6.179   7.935  10.565
 6173W        W10224   9.456   9.485  10.415
 6174W        W10225   3.885   9.860   9.289
 6175W        W10226   8.580   8.051   9.975
 6176W        W10227   3.399   0.908  11.394
 6177W        W10228   3.877   5.870   8.709
 6178W        W10229   8.509   8.970   8.834
 6179W        W10230   7.098   4.172   1.362
 6180W        W10231  11.451  11.049   1.873
 6181W        W10232   3.828   8.787   2.795
 6182W        W10233   0.870   0.547   9.385
 6183W        W10234   8.847   0.807   1.457
 6184W        W10235   4.206   1.848  10.696
 6185W        W10236   6.488  10.347   1.134
 6186W        W10237   0.988  10.178   2.163
 6187W        W10238   6.915  10.470  10.346
 6188W        W10239   7.793   2.273   1.764
 6189W        W10240   4.721   1.603   1.738
 6190W        W10241   0.909   8.937   1.856
 6191W        W10242   5.075   3.762   2.277
 6192W        W10243   4.686   0.127   9.125
 6193W        W10244   8.162   3.709  10.558
 6194W        W10245  10.786   6.406  11.568
 6195W        W10246  10.909   6.049   8.717
 6196W        W10247   1.916   9.360   0.319
 6197W        W10248   7.251  10.557   0.732
 6198W        W10249   7.401   6.535   1.996
 6199W        W10250  11.388   3.449   0.208
 6200W        W10251   9.167  10.735   2.617
 6201W        W10252   7.411   9.618  11.373
 6202W        W10253   2.322   8.086  10.219
 6203W        W10254  11.478   4.284  11.200
 6204W        W10255   4.502   3.687   3.261
 6205W        W10256   8.855   4.222   0.931
 6206W        W10257   9.063   1.772   9.254
 6207W        W10258   1.385   2.317  10.665
 6208W        W10259   3.097   0.777   3.990
 6209W        W10260  11.058   5.962   1.948
 6210W        W10261   8.070   4.536   1.677
 6211W        W10262   6.779   9.990   9.157
 6212W        W10263   2.177   0.456  10.436
 6213W        W10264   2.365   2.818   1.541
 6214W        W10265   3.357   9.855  11.018
 6215W        W10266   5.023  10.422   8.828
 6216W        W10267   5.719   7.478   2.824
 6217W        W10268  11.203   4.056   8.870
 6218W        W10269   8.940   7.106   9.110
 6219W        W10270   1.510   7.315   1.453
 6220W        W10271   9.461   0.482   2.324
 6221W        W10272  10.986   5.279   0.948
 6222W        W10273   7.471   4.122   3.726
 6223W        W10274   5.100   9.556  10.540
 6224W        W10275   9.560   7.133   8.825
 6225W        W10276   9.411   8.879   2.449
 6226W        W10277  10.108   7.684   9.467
 6227W        W10278   4.629  10.706   0.804
 6228W        W10279  11.288   1.841   2.165
 6229W        W10280   7.307   6.753  10.022
 6230W        W10281   5.486   1.961  10.980
 6231W        W10282   6.588   9.513   0.051
 6232W        W10283   8.130   8.761   2.477
 6233W        W10284   7.130   7.520   1.657
 6234W        W10285   4.164   6.127   0.637
 6235W        W10286  10.744   3.993   2.388
 6236W        W10287   4.748   3.452  11.286
 6237W        W10288   9.358   5.050   9.439
 6238W        W10289  11.060   8.404   1.700
 6239W        W10290   7.877   8.220   1.864
 6240W        W10291   2.974   6.656   3.275
 6241W        W10292   0.905   9.562   3.516
 6242W        W10293  10.768   9.831   2.714
 6243W        W10294   2.248   5.732   2.753
 6244W        W10295   1.246   3.310   0.533
 6245W        W10296   3.439   2.852   1.270
 6246W        W10297   9.601   6.635   8.697
 6247W        W10298   7.412   6.190   1.638
 6248W        W10299  10.240   9.985  11.377
 6249W        W10300   2.606  10.398   9.235
 6250W        W10301   0.653   7.900  11.365
 6251W        W10302  11.433  10.278  10.654
 6252W        W10303   8.904  11.022  11.968
 6253W        W10304   4.804   6.858   1.936
 6254W        W10305   3.578   0.094   1.787
 6255W        W10306   8.991   3.536   3.413
 6256W        W10307   7.026   1.189   0.293
 6257W        W10308   4.585   9.336   3.066
 6258W        W10309   3.219  10.830   9.853
 6259W        W10310   4.007   5.804   9.959
 6260W        W10311   5.899   4.120   1.907
 6261W        W10312   5.532   9.844  10.455
 6262W        W10313   3.567   8.899   1.449
 6263W        W10314  11.439   0.268   9.034
 6264W        W10315   2.821   7.929  10.427
 6265W        W10316  10.896   1.664   8.816
 6266W        W10317   2.168   4.436   1.973
 6267W        W10318   9.345   7.265   8.372
 6268W        W10319   4.204   4.161   9.902
 6269W        W10320   1.410   9.991  10.741
 6270W        W10321   7.693   3.766   0.331
 6271W        W10322   9.330   6.155   9.978
 6272W        W10323  11.065   8.887   1.891
 6273W        W10324   8.666  10.879  11.419
 6274W        W10325   4.804   1.309   9.698
 6275W        W10326   7.582   4.493   2.368
 6276W        W10327   4.963   4.552   0.241
 6277W        W10328   9.123   1.325   9.500
 6278W        W10329  10.777   9.108  10.419
 6279W        W10330   0.607   7.857   3.640
 6280W        W10331   0.661   3.131   8.697
 6281W        W10332   2.155   8.415  11.315
 6282W        W10333  11.358  10.803  10.612
 6283W        W10334   5.017   3.491  10.063
 6284W        W10335   7.668   5.994  11.963
 6285W        W10336   4.305  11.418   1.215
 6286W        W10337   0.403   7.647  10.980
 6287W        W10338   1.654   7.444  10.495
 6288W        W10339   6.308   7.649   8.751
 6289W        W10340   7.102   8.700  10.341
 6290W        W10341   5.624  11.418   9.886
 6291W        W10342   8.511   1.883  10.430
 6292W        W10343   3.064  11.405  11.656
 6293W        W10344  11.023   2.179  10.166
 6294W        W10345   1.733   6.894   1.721
 6295W        W10346   3.376   0.205   9.870
 6296W        W10347  10.852   3.118   8.806
 6297W        W10348   8.395   1.795  11.948
 6298W        W10349   1.877   8.542   8.940
 6299W        W10350   4.192   7.442   2.286
 6300W        W10351   7.201   1.213   9.841
 6301W        W10352   4.207  11.011   9.845
 6302W        W10353   5.750   6.711  11.536
 6303W        W10354   5.139   5.533   0.758
 6304W        W10355   6.717   3.441   1.000
 6305W        W10356   0.447   5.173   2.499
 6306W        W10357  10.854  11.345   9.506
 6307W        W10358   7.507   9.588  11.915
 6308W        W10359   8.853   6.948   3.326
 6309W        W10360   9.424   0.780   2.764
 6310W        W10361   2.197   7.113   1.863
 6311W        W10362  10.970   5.093   1.934
 6312W        W10363   4.539   0.827   2.686
 6313W        W10364   0.295  10.540   9.303
 6314W        W10365   2.972   6.735  10.324
 6315W        W10366   1.978   4.804   8.524
 6316W        W10367   0.955  10.376   3.172
 6317W        W10368   9.825  11.009   9.410
 6318W        W10369   1.870   9.637  10.068
 6319W        W10370  11.335   2.713   0.048
 6320W        W10371   8.419   6.394   9.610
 6321W        W10372   8.081  10.953   8.598
 6322W        W10373   8.357   8.035   1.779
 6323W        W10374   2.160   6.721   3.152
 6324W        W10375   1.172   5.801   9.176
 6325W        W10376   2.742   5.078   9.537
 6326W        W10377   3.129   0.367  11.428
 6327W        W10378   1.794   5.974   0.177
 6328W        W10379   6.220  11.203   0.176
 6329W        W10380   0.470   9.927   1.318
 6330W        W10381   1.239  10.422  11.377
 6331W        W10382   0.453   5.267   3.400
 6332W        W10383   6.160   1.111   0.434
 6333W        W10384   0.016   1.290   2.865
 6334W        W10385   3.286  10.954   8.770
 6335W        W10386   5.557   0.029  10.823
 6336W        W10387   3.738  10.717   0.850
 6337W        W10388   5.089   5.029   0.061
 6338W        W10389   0.907   6.242   9.037
 6339W        W10390   0.784  10.096   3.574
 6340W        W10391   9.164   2.106  10.044
 6341W        W10392   0.242   5.638  11.214
 6342W        W10393   9.892   2.879   0.668
 6343W        W10394   8.518   8.520   3.011
 6344W        W10395  10.474   1.454   0.548
 6345W        W10396   6.232   6.973   0.476
 6346W        W10397   4.702  10.622   2.311
 6347W        W10398   1.795   7.241   9.778
 6348W        W10399  10.273   9.132   3.138
 6349W        W10400   9.952   1.802   9.298
 6350W        W10401   4.605  11.277  10.080
 6351W        W10402   7.022   1.063   8.887
 6352W        W10403   8.801   5.324   2.773
 6353W        W10404   2.637   1.727   3.223
 6354W        W10405   3.117   3.303   8.860
 6355W        W10406   0.812   4.838   9.991
 6356W        W10407   9.855   5.650  11.116
 6357W        W10408   2.694   9.543   8.961
 6358W        W10409   2.762   7.508   8.282
 6359W        W10410   3.153   6.263   0.793
 6360W        W10411   4.048   5.106   2.523
 6361W        W10412  10.336   8.148   1.823
 6362W        W10413   8.989   4.710   0.757
 6363W        W10414   7.121  10.348   1.905
 6364W        W10415   5.228   1.667   0.282
 6365W        W10416   7.048   2.473   0.819
 6366W        W10417   4.394   9.628   9.807
 6367W        W10418   5.517   3.585   1.189
 6368W        W10419   3.235   2.110   0.871
 6369W        W10420   2.285   8.900   1.042
 6370W        W10421  10.898   1.772  11.848
 6371W        W10422   7.884   8.858   8.785
 6372W        W10423   4.096   6.162  11.588
 6373W        W10424   2.049   9.354  10.979
 6374W        W10425   0.711   8.842   0.014
 6375W        W10426   7.378   5.556   0.011
 6376W        W10427   3.316   5.778   0.855
 6377W        W10428   0.483   6.200   2.185
 6378W        W10429   0.487   6.092  11.269
 6379W        W10430   1.795   6.045   1.170
 6380W        W10431   8.623   3.741   9.546
 6381W        W10432   9.567   5.246   9.875
 6382W        W10433   0.327   7.480   3.411
 6383W        W10434  10.456   0.380  11.203
 6384W        W10435  11.088   6.935   1.272
 6385W        W10436   3.433  10.015   0.429
 6386W        W10437   0.450   2.138   0.745
 6387W        W10438   3.432   5.256  10.255
 6388W        W10439   1.831   1.856   2.167
 6389W        W10440  10.703   7.081   3.549
 6390W        W10441   6.410   3.770  10.075
 6391W        W10442   0.713  10.657   8.515
 6392W        W10443   7.115   8.489   1.450
 6393W        W10444   3.326   4.431   0.555
 6394W        W10445   4.536   6.728  10.440
 6395W        W10446   6.505   4.708  10.981
 6396W        W10447   9.316  11.313   8.973
 6397W        W10448   8.316   7.452   3.245
 6398W        W10449  10.818   0.826   2.927
 6399W        W10450   9.485   9.190  11.412
 6400W        W10451   9.862   5.847   1.478
 6401W        W10452  10.738   7.648   1.056
 6402W        W10453   8.786  10.365  11.347
 6403W        W10454   5.234   1.661  10.280
 6404W        W10455   6.849   3.197   3.452
 6405W        W10456   0.211   5.546   9.004
 6406W        W10457   1.677   5.802  11.717
 6407W        W10458   8.946   0.248   2.329
 6408W        W10459   2.147   5.690   1.197
 6409W        W10460   1.446   2.395   0.583
 6410W        W10461  10.300   8.172   9.502
 6411W        W10462   0.448   0.765  10.974
 6412W        W10463  11.083  11.093   0.764
 6413W        W10464   1.958   2.720   0.700
 6414W        W10465   7.126  11.279  10.874
 6415W        W10466  10.272   9.621   0.963
 6416W        W10467   7.832   2.781  10.843
 6417W        W10468   5.491   6.261   0.506
 6418W        W10469   9.428   3.087   1.802
 6419W        W10470   6.093   8.471   8.925
 6420W        W10471   0.012   6.120  11.434
 6421W        W10472  10.912   0.452  11.511
 6422W        W10473   9.290   9.269   0.753
 6423W        W10474   5.070   9.483   0.525
 6424W        W10475   6.135   8.697   3.126
 6425W        W10476   5.563   4.529  10.967
 6426W        W10477   5.606   0.843   1.557
 6427W        W10478   9.235   2.320   2.954
 6428W        W10479   1.250   8.395   2.344
 6429W        W10480   4.259   3.101  11.944
 6430W        W10481   0.990   2.197   9.885
 6431W        W10482   1.796   7.794   0.393
 6432W        W10483   4.087   2.212   0.356
 6433W        W10484   2.812   8.519   9.149
 6434W        W10485   8.535  10.720   1.407
 6435W        W10486   7.946   8.900  10.575
 6436W        W10487   8.630   8.057   0.701
 6437W        W10488   6.938   7.919   2.158
 6438W        W10489   7.181   1.917   2.162
 6439W        W10490  11.260   3.130   2.225
 6440W        W10491   8.453   2.846   2.276
 6441W        W10492   4.152   9.543   3.332
 6442W        W10493   3.048   4.219   9.352
 6443W        W10494  10.419   1.637   9.488
 6444W        W10495   9.886   2.582  10.806
 6445W        W10496   2.835   9.668  10.408
 6446W        W10497   0.598   8.152   8.698
 6447W        W10498   3.913   8.788   8.320
 6448W        W10499   2.309   5.943  11.418
 6449W        W10500  11.398   7.886  10.241
 6450W        W10501  10.565   2.651  11.322
 6451W        W10502   3.923   9.524   9.956
 6452W        W10503   2.301   4.298   2.741
 6453W        W10504  11.293   6.515  11.731
 6454W        W10505  10.761  10.365   2.760
 6455W        W10506   9.323   5.299   2.872
 6456W        W10507   0.304   6.958   3.429
 6457W        W10508   5.514   0.299   9.142
 6458W        W10509   3.218   7.658   9.467
 6459W        W10510  11.468  10.789  11.555
 6460W        W10511   8.022   9.932   8.358
 6461W        W10512   1.091   1.928   1.891
 6462W        W10513   5.176   4.125  11.605
 6463W        W10514   5.704   5.253   2.269
 6464W        W10515   1.299   2.623   2.456
 6465W        W10516   9.963   1.259  10.544
 6466W        W10517   9.831   0.725  10.020
 6467W        W10518   4.020   8.482   2.431
 6468W        W10519   8.871   0.495   0.346
 6469W        W10520   8.947   4.601  10.451
 6470W        W10521   4.946   2.171   2.810
 6471W        W10522   8.298  10.002  11.381
 6472W        W10523  10.719   9.449   0.181
 6473W        W10524   1.536   0.703  10.868
 6474W        W10525   7.411   6.593  10.946
 6475W        W10526   8.546   6.589   3.611
 6476W        W10527   3.875   3.029   3.123
 6477W        W10528   9.406   0.134  11.868
 6478W        W10529   8.433   8.665  11.453
 6479W        W10530   4.740   5.692   1.052
 6480W        W10531   0.731  10.702   2.854
 6481W        W10532  10.544   6.495   8.789
 6482W        W10533   0.431   3.641   0.741
 6483W        W10534   0.677   2.153   9.442
 6484W        W10535   1.298   0.715   2.364
 6485W        W10536  10.587   9.241  11.693
 6486W        W10537   4.793   8.378   3.422
 6487W        W10538   7.541   7.543   9.929
 6488W        W10539   1.697   1.964  10.897
 6489W        W10540   4.659   7.619   0.127
 6490W        W10541   0.819  10.187  11.633
 6491W        W10542   2.125   3.308   0.718
 6492W        W10543   0.491  11.492   1.429
 6493W        W10544   1.859   5.529  11.309
 6494W        W10545   4.946   4.087   1.905
 6495W        W10546   3.698   7.086   0.987
 6496W        W10547  10.699   5.858   2.884
 6497W        W10548   8.188   4.365   0.304
 6498W        W10549   0.832   8.870   9.741
 6499W        W10550   7.413  11.325   3.149
 6500W        W10551   9.092   1.783   0.626
 6501W        W10552   9.671  11.102   3.328
 6502W        W10553   2.723   7.628   1.172
 6503W        W10554   7.026   5.072   1.696
 6504W        W10555  11.408   3.410   0.718
 6505W        W10556   2.473   7.091   1.074
 6506W        W10557   0.295   0.635   0.597
 6507W        W10558   5.313   9.947   9.550
 6508W        W10559   3.593   3.059   1.878
 6509W        W10560   5.714   5.330   0.791
 6510W        W10561   7.398   9.393   2.402
 6511W        W10562   1.473   2.300  10.162
 6512W        W10563   3.637   6.599   8.599
 6513W        W10564   2.040   7.429   2.396
 6514W        W10565  11.268  10.001   2.686
 6515W        W10566   4.632   1.343   2.425
 6516W        W10567   6.986   4.201  11.916
 6517W        W10568   0.710   5.372   9.981
 6518W        W10569   6.692   1.740  11.213
 6519W        W10570   8.489  11.343   3.085
 6520W        W10571   7.134   1.992   0.677
 6521W        W10572   1.432   0.718   0.015
 6522W        W10573   7.786   9.981  11.226
 6523W        W10574   4.105   0.456   0.009
 6524W        W10575   8.074   8.202   9.975
 6525W        W10576   0.321   6.496   3.750
 6526W        W10577   4.553   5.743  11.504
 6527W        W10578   4.013  10.537   9.799
 6528W        W10579   5.648   2.367  10.737
 6529W        W10580   8.944   9.289   9.318
 6530W        W10581   1.874   6.936   2.231
 6531W        W10582   0.407  10.811  11.825
 6532W        W10583   3.073  10.862  11.290
 6533W        W10584   0.787   9.979  10.567
 6534W        W10585   2.584   5.395   8.138
 6535W        W10586   6.618   6.713  11.276
 6536W        W10587   3.199   3.290  10.937
 6537W        W10588  10.880  10.324  11.778
 6538W        W10589   1.310  11.235   2.722
 6539W        W10590   3.749  10.954  10.555
 6540W        W10591   7.580   1.955  11.379
 6541W        W10592   3.971  11.461  11.810
 6542W        W10593   0.842   0.839   1.286
 6543W        W10594   1.841   8.618   9.468
 6544W        W10595   3.637   6.162   0.985
 6545W        W10596   9.776   1.678  10.766
 6546W        W10597   3.286   5.599  11.961
 6547W        W10598   0.598   7.266   2.131
 6548W        W10599   5.876   7.011   2.629
 6549W        W10600   9.749  11.421  11.545
 6550W        W10601   5.275   6.600   1.331
 6551W        W10602   6.242   4.129   4.116
 6552W        W10603   1.572   5.963  11.229
 6553W        W10604   6.668   6.887   1.220
 6554W        W10605   7.194   7.677  10.381
 6555W        W10606   6.524   7.746  10.997
 6556W        W10607   4.211  10.994   2.964
 6557W        W10608   7.076   0.869  10.766
 6558W        W10609   5.942  11.465   9.467
 6559W        W10610   5.930   9.555  10.059
 6560W        W10611   3.778   8.959   2.324
 6561W        W10612   4.160   6.281   3.748
 6562W        W10613   1.286   2.809   0.342
 6563W        W10614  10.559   2.386  10.021
 6564W        W10615   0.368  11.472   2.805
 6565W        W10616   0.356   7.231   1.675
 6566W        W10617   3.169   2.090  11.969
 6567W        W10618   2.902   2.780  11.416
 6568W        W10619   5.550   9.288   3.171
 6569W        W10620   9.994   8.304   2.159
 6570W        W10621  10.899  11.065   1.633
 6571W        W10622   1.851   9.221   3.246
 6572W        W10623   2.325  11.078  10.442
 6573W        W10624   7.493   0.985   0.547
 6574W        W10625   1.653   1.328  11.421
 6575W        W10626   6.769   3.313   2.291
 6576W        W10627   2.148   6.572   8.656
 6577W        W10628   2.871   6.229  10.601
 6578W        W10629   4.189   3.557  10.723
 6579W        W10630   6.613   3.005   8.474
 6580W        W10631   2.270   2.475  10.590
 6581W        W10632   1.610   7.016   9.375
 6582W        W10633  11.260   7.689   2.664
 6583W        W10634   9.250   0.771   0.558
 6584W        W10635   1.720   8.656   2.282
 6585W        W10636   5.102  11.296   9.851
 6586W        W10637   2.222   9.454   9.170
 6587W        W10638   9.947   3.308   1.914
 6588W        W10639   8.785   3.364  11.956
 6589W        W10640   4.240   0.094   9.948
 6590W        W10641   9.900   2.450   1.904
 6591W        W10642  10.938   8.165   0.849
 6592W        W10643   9.670   0.662   0.289
 6593W        W10644   5.142   5.981   0.956
 6594W        W10645   7.699   4.459   9.037
 6595W        W10646   3.237   2.616   0.845
 6596W        W10647   5.212   6.049  10.318
 6597W        W10648  10.086   8.226  11.831
 6598W        W10649   6.064   0.995   0.927
 6599W        W10650   1.992   3.424  10.947
 6600W        W10651  10.188   6.110   0.717
 6601W        W10652   8.931   7.909  11.464
 6602W        W10653   1.354   1.911   3.245
 6603W        W10654   6.558   8.659   1.812
 6604W        W10655   6.292   7.193   8.964
 6605W        W10656  10.703   0.819   9.036
 6606W        W10657   2.725   8.856   9.532
 6607W        W10658  11.271   8.551   0.717
 6608W        W10659   3.540   4.101   0.944
 6609W        W10660   4.043   6.203   0.123
 6610W        W10661   4.424   1.794   0.681
 6611W        W10662   6.215   0.266  10.799
 6612W        W10663   4.100  11.474   0.758
 6613W        W10664   7.597   8.845   0.638
 6614W        W10665   2.013   3.021  11.726
 6615W        W10666   8.144   2.836  10.389
 6616W        W10667   1.300   3.624  11.709
 6617W        W10668   4.563   3.432  10.394
 6618W        W10669   4.865   7.170  11.414
 6619W        W10670   5.636   6.318  10.165
 6620W        W10671   7.446   3.865   1.598
 6621W        W10672   0.155   5.657   0.598
 6622W        W10673  10.273   8.670  10.223
 6623W        W10674   7.140   3.112   1.979
 6624W        W10675   6.008   2.338   9.536
 6625W        W10676   4.520   1.346   9.268
 6626W        W10677   4.510   4.689   3.260
 6627W        W10678  10.112   7.469  10.328
 6628W        W10679  10.170  10.991   0.726
 6629W        W10680  11.384   5.246  11.112
 6630W        W10681   4.770   1.341  10.268
 6631W        W10682   0.833   3.503   9.555
 6632W        W10683   5.752   4.364   0.724
 6633W        W10684  10.142   7.610   1.662
 6634W        W10685   8.679   1.280   9.750
 6635W        W10686   3.285   8.576   0.216
 6636W        W10687   5.931   1.647  11.020
 6637W        W10688   5.068   1.808   4.153
 6638W        W10689   6.937   1.247   1.157
 6639W        W10690   7.893   5.100   9.387
 6640W        W10691   0.498   3.728   2.831
 6641W        W10692   8.113  11.300  10.911
 6642W        W10693   1.888   5.219   8.905
 6643W        W10694   1.337   2.862  10.401
 6644W        W10695   8.156  11.336   9.968
 6645W        W10696   9.155   0.443   3.271
 6646W        W10697   0.435  11.225   0.180
 6647W        W10698   8.625  11.314  10.189
 6648W        W10699   2.699   6.562   8.737
 6649W        W10700  10.515   0.668  10.665
 6650W        W10701   5.770   7.718   4.066
 6651W        W10702   3.318   3.316  11.430
 6652W        W10703   4.069  10.352  10.824
 6653W        W10704   9.006   3.352   9.060
 6654W        W10705   6.134   5.674   2.842
 6655W        W10706   4.969   8.131   9.225
 6656W        W10707   9.263   5.933  10.434
 6657W        W10708  10.372   4.159   3.156
 6658W        W10709   3.425   7.351   2.974
 6659W        W10710   7.627   2.118  11.893
 6660W        W10711   3.137   1.366  11.349
 6661W        W10712  10.718  11.373   9.017
 6662W        W10713  10.427   0.896   3.302
 6663W        W10714   4.191   1.254  10.414
 6664W        W10715   5.870  10.858   2.503
 6665W        W10716   2.086  10.359   9.172
 6666W        W10717   1.387   3.692  10.703
 6667W        W10718   1.751   4.633   0.420
 6668W        W10719   4.413   1.244   1.950
 6669W        W10720   9.095   8.909   9.874
 6670W        W10721   1.265   4.561  10.803
 6671W        W10722   4.278   2.770   1.536
 6672W        W10723   0.728   4.123   1.233
 6673W        W10724   9.405  10.193   3.692
 6674W        W10725  10.719   6.052   1.560
 6675W        W10726   2.127  10.559   1.751
 6676W        W10727  11.259   0.732   3.159
 6677W        W10728   0.570   1.889  11.160
 6678W        W10729   1.849  10.085   1.462
 6679W        W10730   7.600   6.241  10.198
 6680W        W10731   4.398   6.674  11.771
 6681W        W10732   0.089   1.688  11.243
 6682W        W10733   7.616  10.374  10.959
 6683W        W10734   7.618   8.038  10.662
 6684W        W10735   3.761   5.083   9.335
 6685W        W10736   5.124   0.276   1.320
 6686W        W10737   1.230   5.927  10.840
 6687W        W10738   9.797   9.003   3.293
 6688W        W10739   7.626   5.447   0.954
 6689W        W10740   2.193   8.810   2.446
 6690W        W10741   7.635   1.895   9.201
 6691W        W10742   9.308   4.801  10.043
 6692W        W10743   7.186   7.489   9.072
 6693W        W10744  10.935  10.795   3.034
 6694W        W10745   7.945   2.366   9.705
 6695W        W10746   3.706   6.639  10.796
 6696W        W10747   7.907  11.039   3.347
 6697W        W10748   3.931  10.278  11.343
 6698W        W10749   5.419   8.520  10.975
 6699W        W10750   0.603   9.103  10.179
 6700W        W10751   0.200   3.122   2.501
 6701W        W10752   6.075   2.591  10.908
 6702W        W10753  10.657   8.377   1.343
 6703W        W10754   3.178   0.023   9.242
 6704W        W10755  10.127   4.246   9.037
 6705W        W10756   6.757   1.788   2.435
 6706W        W10757   0.835   4.618  10.470
 6707W        W10758   5.756   2.850   2.857
 6708W        W10759   9.983   2.718   0.199
 6709W        W10760   3.911   7.264   2.818
 6710W        W10761  10.080   0.472   3.319
 6711W        W10762   7.385   1.067   2.420
 6712W        W10763   7.942   3.290  11.135
 6713W        W10764   0.772   7.416   0.823
 6714W        W10765   1.852   3.125  10.159
 6715W        W10766   1.786   6.427   0.399
 6716W        W10767   5.596   1.869   0.009
 6717W        W10768   2.358   9.585  10.649
 6718W        W10769   6.152   2.485  11.518
 6719W        W10770   4.559   6.097   1.328
 6720W        W10771   4.730  11.465   0.372
 6721W        W10772   9.121   7.356  10.414
 6722W        W10773   1.640  11.001  11.539
 6723W        W10774   4.204   9.491  11.474
 6724W        W10775   6.285   8.726   2.229
 6725W        W10776   3.652   0.891  10.374
 6726W        W10777   0.957   6.258  11.806
 6727W        W10778   8.825   7.601   8.865
 6728W        W10779   5.330   4.460   0.997
 6729W        W10780   9.942   3.245   8.747
 6730W        W10781   8.039   1.921  11.603
 6731W        W10782   9.636   9.505   3.134
 6732W        W10783   5.646   4.583   1.914
 6733W        W10784   5.831   7.060   9.154
 6734W        W10785   3.395   1.936   2.143
 6735W        W10786   8.417   5.951   9.906
 6736W        W10787   8.405   8.405   9.574
 6737W        W10788   0.217   4.035   1.356
 6738W        W10789   6.151   1.604   9.060
 6739W        W10790   4.833   7.945   1.224
 6740W        W10791   8.918   9.084   3.482
 6741W        W10792   9.988   7.960   1.198
 6742W        W10793   6.826  10.916   2.197
 6743W        W10794   9.407   3.354   8.723
 6744W        W10795   8.479   0.183   3.855
 6745W        W10796   2.953   0.723   0.298
 6746W        W10797   6.057   2.132   9.987
 6747W        W10798   4.928   2.654   1.815
 6748W        W10799   7.053   8.708   9.509
 6749W        W10800   7.810  10.435  11.435
 6750W        W10801   5.709   0.741   2.739
 6751W        W10802  11.361   5.241   9.886
 6752W        W10803   7.448  10.057  11.605
 6753W        W10804   7.118  11.192   1.326
 6754W        W10805  11.449   3.811  11.386
 6755W        W10806   9.902   9.996  11.930
 6756W        W10807   7.102   8.933   0.522
 6757W        W10808   2.162   4.976  11.725
 6758W        W10809   4.770   8.923   2.843
 6759W        W10810   2.715   9.459   1.662
 6760W        W10811  10.773   7.733   2.326
 6761W        W10812   1.777   2.672   9.898
 6762W        W10813   5.336   9.378   9.847
 6763W        W10814   2.282   9.997  11.403
 6764W        W10815  11.445   8.099   0.975
 6765W        W10816   8.234   1.233   0.645
 6766W        W10817   9.946   7.575   0.333
 6767W        W10818   5.099   7.248  10.935
 6768W        W10819   3.566   6.879   2.780
 6769W        W10820   8.643   3.049   1.228
 6770W        W10821   7.789   3.612   1.295
 6771W        W10822   1.371   7.177  11.556
 6772W        W10823   0.882   3.755   0.442
 6773W        W10824   2.791   2.849   0.934
 6774W        W10825  10.315  10.960  11.754
 6775W        W10826   6.513   2.343  10.771
 6776W        W10827   9.466   6.951   9.702
 6777W        W10828   4.768   9.944  10.934
 6778W        W10829   6.784   1.093   3.866
 6779W        W10830  10.592   7.198   1.353
 6780W        W10831  11.335   0.180   9.563
 6781W        W10832   5.262   9.015  10.702
 6782W        W10833   2.319   1.957  10.553
 6783W        W10834   5.117   9.309   2.453
 6784W        W10835   3.196   5.022   3.774
 6785W        W10836  11.303   5.288   0.518
 6786W        W10837   8.215   5.907   8.550
 6787W        W10838   9.753   0.482   1.881
 6788W        W10839  10.493   3.848  10.861
 6789W        W10840   1.222   6.671   8.682
 6790W        W10841   2.119   7.584   3.685
 6791W        W10842   4.561   1.453  10.712
 6792W        W10843   6.029   7.517  10.249
 6793W        W10844   2.716   7.554   9.328
 6794W        W10845   4.348  10.700   9.424
 6795W        W10846   4.790   7.165  10.349
 6796W        W10847   8.004  10.335   1.539
 6797W        W10848   7.959   1.252   1.418
 6798W        W10849   7.134   6.809   2.697
 6799W        W10850   9.113   8.423   1.290
 6800W        W10851   5.754   2.638   0.465
 6801W        W10852   1.884   2.162  10.428
 6802W        W10853   3.030   2.473  11.033
 6803W        W10854  10.389   7.481   3.062
 6804W        W10855  11.050   0.406   1.297
 6805W        W10856   5.885   4.299  11.393
 6806W        W10857   7.475   5.343   1.421
 6807W        W10858   7.178   9.457   2.881
 6808W        W10859   9.352   8.877   1.523
 6809W        W10860   5.654  10.735   3.450
 6810W        W10861   7.991   2.342   9.186
 6811W        W10862   3.667   7.058   0.020
 6812W        W10863   2.243  11.066   1.833
 6813W        W10864  11.483   0.489   0.972
 6814W        W10865   3.250   8.853   0.999
 6815W        W10866   7.318   7.016   8.831
 6816W        W10867   8.917   7.624  10.033
 6817W        W10868  10.542   9.078   8.679
 6818W        W10869   4.824   6.676  11.288
 6819W        W10870   0.392   4.867   1.635
 6820W        W10871   2.434   6.468  11.423
 6821W        W10872   9.398   9.805   2.773
 6822W        W10873   8.816   5.759  11.924
 6823W        W10874  10.875   0.352   9.401
 6824W        W10875   4.970   7.450   0.934
 6825W        W10876   2.507  10.224   0.778
 6826W        W10877  10.321   6.191   1.213
 6827W        W10878   5.237   9.933   0.340
 6828W        W10879  11.295   4.727   3.302
 6829W        W10880   5.246   0.800  11.789
 6830W        W10881   5.167   2.644   3.649
 6831W        W10882   5.743   4.093  10.749
 6832W        W10883   9.349  10.308   2.844
 6833W        W10884   1.843   7.812   2.720
 6834W        W10885  10.856   7.185   0.894
 6835W        W10886   9.876   4.715   0.196
 6836W        W10887   9.930   1.220   2.118
 6837W        W10888   3.190   4.755   0.937
 6838W        W10889   2.954   3.436  11.765
 6839W        W10890   0.669  10.414   0.074
 6840W        W10891   6.774   8.679   2.648
 6841W        W10892   8.478   9.473  10.116
 6842W        W10893   1.828   5.549   2.978
 6843W        W10894  11.350   2.773   2.659
 6844W        W10895   5.468  11.301   9.388
 6845W        W10896   8.935   9.964   0.840
 6846W        W10897   8.387   3.468  10.935
 6847W        W10898   6.572   1.629  10.188
 6848W        W10899   0.816   5.313  11.902
 6849W        W10900   2.706   8.137   1.211
 6850W        W10901   9.366   4.235  10.297
 6851W        W10902   7.474   6.690   0.339
 6852W        W10903   9.979   3.774   1.065
 6853W        W10904   2.177   7.432  10.581
 6854W        W10905   9.218   7.913   9.755
 6855W        W10906   8.449   9.900   9.840
 6856W        W10907   2.675   3.798  11.983
 6857W        W10908   0.987   0.733  10.869
 6858W        W10909  10.547  10.335   9.645
 6859W        W10910   6.225   1.259   8.670
 6860W        W10911   0.468   6.007   3.037
 6861W        W10912   0.820   4.557   9.536
 6862W        W10913   7.445   1.406   1.381
 6863W        W10914   9.400   5.808  11.306
 6864W        W10915  10.858   1.315  11.609
 6865W        W10916   8.792   4.748  11.776
 6866W        W10917   2.503   3.300  10.881
 6867W        W10918   6.382   1.385  10.931
 6868W        W10919   7.459   7.395   0.826
 6869W        W10920   1.344  10.933   2.292
 6870W        W10921   9.055   7.439   3.283
 6871W        W10922   5.611  10.393   2.477
 6872W        W10923   4.133  10.361  11.813
 6873W        W10924   1.326   1.827   9.966
 6874W        W10925   3.812   4.178   2.784
 6875W        W10926   5.034   6.072  11.949
 6876W        W10927   9.451   8.443   2.720
 6877W        W10928   7.703   5.572   2.216
 6878W        W10929   1.224   9.966   3.308
 6879W        W10930   5.460   7.442   0.783
 6880W        W10931  10.512  10.036   3.104
 6881W        W10932   4.267   5.218   0.541
 6882W        W10933   4.217   2.151   9.351
 6883W        W10934   8.938   7.186   2.833
 6884W        W10935   5.764   3.704  11.465
 6885W        W10936   7.922   2.765   1.729
 6886W        W10937   3.201   2.328  11.509
 6887W        W10938   7.480   9.992   1.850
 6888W        W10939   2.340   6.656   9.124
 6889W        W10940   9.043   9.589   1.694
 6890W        W10941   4.095  10.322   9.216
 6891W        W10942   3.159   6.155   1.790
 6892W        W10943   1.678   8.143  11.442
 6893W        W10944   6.134   0.213   1.323
 6894W        W10945   2.970   3.343   2.263
 6895W        W10946   4.082  11.488   8.998
 6896W        W10947   9.016   8.607   3.278
 6897W        W10948   7.173   8.181  10.350
 6898W        W10949   7.233   2.196   1.204
 6899W        W10950  10.025   8.004   9.917
 6900W        W10951   5.696   1.782   0.500
 6901W        W10952   0.875  11.368  10.945
 6902W        W10953   0.771  10.738   9.386
 6903W        W10954   3.329  11.282   2.623
 6904W        W10955   0.285   7.858   9.055
 6905W        W10956   2.003   7.599  10.133
 6906W        W10957   4.708   1.932  10.527
 6907W        W10958   7.596  10.453   1.209
 6908W        W10959   5.255   8.867   9.853
 6909W        W10960   7.167   5.294   0.701
 6910W        W10961   8.022   7.414   0.419
 6911W        W10962   5.566   3.106   0.298
 6912W        W10963  10.782   9.102  10.923
 6913W        W10964   3.672  10.354   9.471
 6914W        W10965   8.036   6.371   9.258
 6915W        W10966  10.277   1.976  10.603
 6916W        W10967   2.958   5.766   3.653
 6917W        W10968   6.124   0.209   0.017
 6918W        W10969   2.364   0.930  11.279
 6919W        W10970   8.128  10.338  11.030
 6920W        W10971   2.682  10.150  10.475
 6921W        W10972   1.448   1.504  10.809
 6922W        W10973   9.451   0.498  11.509
 6923W        W10974   7.216   9.237   8.973
 6924W        W10975   3.351   5.247   0.953
 6925W        W10976   9.972   7.184   0.009
 6926W        W10977   7.517   1.801   0.984
 6927W        W10978   6.916   7.478  10.765
 6928W        W10979  11.253   4.721  11.424
 6929W        W10980   9.157   7.554   2.004
 6930W        W10981   2.869   9.941  10.901
 6931W        W10982   7.258  10.051   3.565
 6932W        W10983  10.826   5.509   0.332
 6933W        W10984  10.424   8.826  10.696
 6934W        W10985   0.927   0.075   2.702
 6935W        W10986  11.050   3.322  11.291
 6936W        W10987  10.672   5.343   2.779
 6937W        W10988   4.313  10.024   0.163
 6938W        W10989   8.160  11.042  11.409
 6939W        W10990   0.321   6.735   9.657
 6940W        W10991   9.794   9.412   9.635
 6941W        W10992   7.383   2.444  10.340
 6942W        W10993   5.313   4.308   3.138
 6943W        W10994   2.629  11.300   9.873
 6944W        W10995   3.465   0.983  10.860
 6945W        W10996   1.640   5.702   8.996
 6946W        W10997   1.643   4.042   9.141
 6947W        W10998   8.454   9.298   1.376
 6948W        W10999   3.376   4.698   1.492
 6949W        W11000   1.607   6.894   1.182
 6950W        W11001   6.742   8.864   9.941
 6951W        W11002   9.860   9.487   1.260
 6952W        W11003   8.966   9.984   1.378
 6953W        W11004   3.124   3.866   2.307
 6954W        W11005   7.344   2.630  10.812
 6955W        W11006   8.452   5.227  10.441
 6956W        W11007   8.385   8.502   0.995
 6957W        W11008   7.498   5.645   0.502
 6958W        W11009  11.378   0.327   3.492
 6959W        W11010   8.007   0.739   1.326
 6960W        W11011   0.390   4.025  10.888
 6961W        W11012  10.885   2.464  10.933
 6962W        W11013   6.562   7.654   9.639
 6963W        W11014   4.183   1.426   8.821
 6964W        W11015   6.083   4.996   9.611
 6965W        W11016   5.255   1.661   1.251
 6966W        W11017   5.703   9.996   9.209
 6967W        W11018   6.363  11.384  10.469
 6968W        W11019   4.343   5.622   1.369
 6969W        W11020   8.925   1.009  11.932
 6970W        W11021   3.187   2.363   8.813
 6971W        W11022   9.959   6.017   8.904
 6972W        W11023   7.627   1.725  10.929
 6973W        W11024   3.793  11.376   9.970
 6974W        W11025  10.229   5.318  10.968
 6975W        W11026   7.462   1.317   1.905
 6976W        W11027   9.870   7.457   2.339
 6977W        W11028   5.616   8.553  11.900
 6978W        W11029   5.767  10.975   9.648
 6979W        W11030   6.158   4.149   9.897
 6980W        W11031   5.484  11.380  11.757
 6981W        W11032   8.483   0.768   0.709
 6982W        W11033   5.716   8.819   9.075
 6983W        W11034   9.541  11.277   9.754
 6984W        W11035   2.698   0.752   3.065
 6985W        W11036   4.511   9.303  10.215
 6986W        W11037   6.647   5.200  11.060
 6987W        W11038   4.805   3.288   2.295
 6988W        W11039   2.458   5.171   9.947
 6989W        W11040  11.201   6.480   1.843
 6990W        W11041   2.855   1.956   2.147
 6991W        W11042   3.748   6.234  10.218
 6992W        W11043  11.313   7.402  10.083
 6993W        W11044   4.695  11.413   3.413
 6994W        W11045  10.281   2.038   1.139
 6995W        W11046   9.562   0.453   8.937
 6996W        W11047   8.309   0.708   9.821
 6997W        W11048   3.944  10.250   3.833
 6998W        W11049   1.233   4.567  11.706
 6999W        W11050   5.112   7.100   9.945
 7000W        W11051   6.320  11.190   0.672
 7001W        W11052   2.656   1.382  11.775
 7002W        W11053  10.325   9.552   8.475
 7003W        W11054   9.088   2.871   8.873
 7004W        W11055   1.848   0.048   8.876
 7005W        W11056   7.574   1.002   8.921
 7006W        W11057   3.809   2.886  11.839
 7007W        W11058   6.957   4.119   9.455
 7008W        W11059   2.731   2.962  10.079
 7009W        W11060   0.318   4.049   9.842
 7010W        W11061  10.298   1.958   0.632
 7011W        W11062   1.763  10.822   3.236
 7012W        W11063   8.981   4.142  10.683
 7013W        W11064   2.159   6.308   3.482
 7014W        W11065   2.724  11.260   1.733
 7015W        W11066  10.326   5.708   0.391
 7016W        W11067  10.783   1.286   1.557
 7017W        W11068   9.844   1.134   0.425
 7018W        W11069   1.034   7.077   0.461
 7019W        W11070   0.820   5.028   2.816
 7020W        W11071   7.292   7.167  10.588
 7021W        W11072  11.391   1.010   0.922
 7022W        W11073   2.937  11.286   0.141
 7023W        W11074   5.750   6.641   2.214
 7024W        W11075   1.858   0.855  11.301
 7025W        W11076   4.209   8.384  11.261
 7026W        W11077   7.357   2.370   0.333
 7027W        W11078   0.857   4.639   0.472
 7028W        W11079   1.348   9.834   8.856
 7029W        W11080   8.651   2.951   9.140
 7030W        W11081   6.705   9.054   3.432
 7031W        W11082   4.265   5.641   0.852
 7032W        W11083   6.075   3.685  10.710
 7033W        W11084   5.529   6.191   1.176
 7034W        W11085   5.005   3.867   8.721
 7035W        W11086   6.055   9.963   9.561
 7036W        W11087   6.469  10.915   1.829
 7037W        W11088  11.313   1.695   2.645
 7038W        W11089   7.651   2.784   0.458
 7039W        W11090   0.262   8.100   2.173
 7040W        W11091   9.074   4.707   9.062
 7041W        W11092   1.513  10.758   8.785
 7042W        W11093   7.836   0.210   2.209
 7043W        W11094   3.398   8.971   0.524
 7044W        W11095   7.929   3.653   0.796
 7045W        W11096   5.186   9.796  10.073
 7046W        W11097   8.764   0.905   1.945
 7047W        W11098  10.070  10.998   2.997
 7048W        W11099   5.538   1.220   3.517
 7049W        W11100   5.976   8.918  11.530
 7050W        W11101   5.640   4.687   2.415
 7051W        W11102   8.411   0.751   0.193
 7052W        W11103   7.990   5.812   3.658
 7053W        W11104   0.609   0.901   9.060
 7054W        W11105   2.851   4.225  11.708
 7055W        W11106  11.218   5.991   2.795
 7056W        W11107   7.490   8.112   1.551
 7057W        W11108   5.309   0.367  10.499
 7058W        W11109   5.646   6.590   9.152
 7059W        W11110   7.875   7.824   2.188
 7060W        W11111   8.891  10.414  10.347
 7061W        W11112   7.927  10.786  11.791
 7062W        W11113  10.906   0.230   0.463
 7063W        W11114   3.544   3.994  10.617
 7064W        W11115  10.176   1.553   0.938
 7065W        W11116   9.993   6.509  10.400
 7066W        W11117   4.191   2.762   3.452
 7067W        W11118   6.700   1.873   8.955
 7068W        W11119   5.725   8.211   9.508
 7069W        W11120   3.211   9.315   1.771
 7070W        W11121   7.544  11.458   1.193
 7071W        W11122   1.668   8.709   3.225
 7072W        W11123   7.308   8.374  11.789
 7073W        W11124   6.815  10.359  11.296
 7074W        W11125   0.810   8.548  10.732
 7075W        W11126   5.757  11.416   0.227
 7076W        W11127   6.738   6.358  11.775
 7077W        W11128   9.813   8.077   3.636
 7078W        W11129   5.648   8.761   0.885
 7079W        W11130  10.543   5.541   0.849
 7080W        W11131   9.134  10.412   3.289
 7081W        W11132   7.891  11.010   9.622
 7082W        W11133   6.643  10.848   9.226
 7083W        W11134   2.437   7.065  10.330
 7084W        W11135  10.731   0.363  11.990
 7085W        W11136   6.700   9.089  10.886
 7086W        W11137   4.072   2.877   1.988
 7087W        W11138   8.133   9.860   1.387
 7088W        W11139   5.107   4.499   2.231
 7089W        W11140   0.861   4.143   1.732
 7090W        W11141   6.920   2.527   9.968
 7091W        W11142   2.639   4.922  10.389
 7092W        W11143   8.331   0.241  11.930
 7093W        W11144   7.622   9.039   9.254
 7094W        W11145   3.719   5.764   0.170
 7095W        W11146  10.382   6.070   3.259
 7096W        W11147   0.014  10.808   1.405
 7097W        W11148   4.667   0.406  10.002
 7098W        W11149   6.196   3.274   8.694
 7099W        W11150   8.422  10.583   0.916
 7100W        W11151   4.727   4.125   0.428
 7101W        W11152  11.483   1.800   1.184
 7102W        W11153  10.888   7.322   2.588
 7103W        W11154   5.506   9.528   9.092
 7104W        W11155   1.461   9.152   0.191
 7105W        W11156   9.391   0.481  10.275
 7106W        W11157   2.635   7.034  11.248
 7107W        W11158   2.837  10.941  11.745
 7108W        W11159   2.154   7.370   9.411
 7109W        W11160   1.718   9.554   0.777
 7110W        W11161   0.989  10.148  11.009
 7111W        W11162   9.970   2.875  11.717
 7112W        W11163   2.337   1.547   9.650
 7113W        W11164   8.584   3.369   1.612
 7114W        W11165   0.270  10.499   2.807
 7115W        W11166  11.420   8.478   2.061
 7116W        W11167   8.496   7.103   9.448
 7117W        W11168   5.192   1.763   2.645
 7118W        W11169   9.862   6.112   3.087
 7119W        W11170   7.953   7.065   3.159
 7120W        W11171   6.979   6.585   8.788
 7121W        W11172   1.749   6.484   0.898
 7122W        W11173   6.578   1.826  10.710
 7123W        W11174   2.704   5.748  10.729
 7124W        W11175   6.031  11.283  10.847
 7125W        W11176   1.119   5.693  10.059
 7126W        W11177   1.323   8.832  10.012
 7127W        W11178   5.076   2.963   0.942
 7128W        W11179   0.759   6.508  11.364
 7129W        W11180   8.445   1.152   1.625
 7130W        W11181   7.813   7.338   2.323
 7131W        W11182   2.640   2.682   3.344
 7132W        W11183   5.551   1.256  11.829
 7133W        W11184   2.017   7.682  11.425
 7134W        W11185   8.500   0.766  11.188
 7135W        W11186   0.514   6.681  10.524
 7136W        W11187   1.943  11.129   1.159
 7137W        W11188   0.266  11.089  10.261
 7138W        W11189   4.016   4.473   9.516
 7139W        W11190  10.901   9.007   0.031
 7140W        W11191   5.141   5.583  11.776
 7141W        W11192   9.823   5.249   3.017
 7142W        W11193   6.577   9.608   8.452
 7143W        W11194  10.044   1.787   9.795
 7144W        W11195   4.668   5.686   0.544
 7145W        W11196   1.291   8.355  10.205
 7146W        W11197   8.334  11.290   9.268
 7147W        W11198   3.200   1.005  10.102
 7148W        W11199   8.756   5.818   8.228
 7149W        W11200   3.546   4.212   9.247
 7150W        W11201   2.354  10.050  10.871
 7151W        W11202   1.783   5.020   9.379
 7152W        W11203   8.057   6.012  10.258
 7153W        W11204   7.024   0.941   2.095
 7154W        W11205   5.229   0.884   2.926
 7155W        W11206   4.625   3.203   0.838
 7156W        W11207   3.540   0.075  11.439
 7157W        W11208   8.065   0.037  11.382
 7158W        W11209   4.404   0.252   8.696
 7159W        W11210   8.509   7.630   0.404
 7160W        W11211  10.379   2.725   1.396
 7161W        W11212   8.571   1.276  11.282
 7162W        W11213   5.320  11.457   3.206
 7163W        W11214   4.793   0.692   3.125
 7164W        W11215  10.041   8.525   9.272
 7165W        W11216   4.108   1.997   8.804
 7166W        W11217   5.237   8.288   1.284
 7167W        W11218   3.374  10.751   2.308
 7168W        W11219   5.102   9.126   1.514
 7169W        W11220   6.730  10.924   0.056
 7170W        W11221   1.627   9.015  10.860
 7171W        W11222  11.429   1.823  11.712
 7172W        W11223   2.614   5.721   1.370
 7173W        W11224   8.616   4.091   0.479
 7174W        W11225   3.358   5.217   1.472
 7175W        W11226   6.894   4.541  11.254
 7176W        W11227  10.853   2.765   0.735
 7177W        W11228   6.495  11.150   3.099
 7178W        W11229   5.101   3.126  11.072
 7179W        W11230   9.474  10.859   0.191
 7180W        W11231   3.756   7.995  10.488
 7181W        W11232   7.152   7.036   0.008
 7182W        W11233   1.426   8.479   9.173
 7183W        W11234   3.897   1.885   1.309
 7184W        W11235   1.199   6.717  11.704
 7185W        W11236   5.199   1.426   0.756
 7186W        W11237   4.715   8.711   1.954
 7187W        W11238   3.327   8.766   8.598
 7188W        W11239   1.293   4.660   0.198
 7189W        W11240   7.249   8.410  10.800
 7190W        W11241   0.646   1.483  10.411
 7191W        W11242   2.675   8.643   1.187
 7192W        W11243   7.001   1.734  10.443
 7193W        W11244   5.029  10.816   0.464
 7194W        W11245   2.670   2.363   2.439
 7195W        W11246  10.738   4.311   2.804
 7196W        W11247   4.675   6.093   1.848
 7197W        W11248   8.798   3.672   1.199
 7198W        W11249   5.526   3.288   2.700
 7199W        W11250   1.817   5.523   9.443
 7200W        W11251   4.445   2.163   2.865
 7201W        W11252   6.019   3.074   9.141
 7202W        W11253   6.539   5.660   1.721
 7203W        W11254   3.609  11.258  10.964
 7204W        W11255   3.360   7.129  10.460
 7205W        W11256   3.811   2.652  10.373
 7206W        W11257  11.392   4.408   9.217
 7207W        W11258   9.453   5.044   0.371
 7208W        W11259   6.564   5.697  11.285
 7209W        W11260   8.733   6.584   8.727
 7210W        W11261   0.629   1.244   9.939
 7211W        W11262   4.278   4.567  10.811
 7212W        W11263   1.042   7.864   3.381
 7213W        W11264   4.155   2.530  11.931
 7214W        W11265   5.800   7.525   8.909
 7215W        W11266   8.110   3.720   9.613
 7216W        W11267   0.395   4.905  11.775
 7217W        W11268   0.862   9.056  10.621
 7218W        W11269   6.962   0.859   2.597
 7219W        W11270   0.275   7.692   9.955
 7220W        W11271   3.812   2.087  11.420
 7221W        W11272   7.034  11.465   2.336
 7222W        W11273   9.074   3.313   2.830
 7223W        W11274   4.090   1.683   9.239
 7224W        W11275   9.395   2.443   9.697
 7225W        W11276   5.149   6.734   9.117
 7226W        W11277   6.177   6.156   9.427
 7227W        W11278   0.244   6.606   0.047
 7228W        W11279   2.208   0.144   1.019
 7229W        W11280   5.523  10.283  10.731
 7230W        W11281   4.904   0.204   3.072
 7231W        W11282   2.193   1.917   3.096
 7232W        W11283   0.790  11.213  11.815
 7233W        W11284   8.078  10.987   2.860
 7234W        W11285   8.717   1.375   0.756
 7235W        W11286   0.557   9.713   0.558
 7236W        W11287   7.072   7.544   9.597
 7237W        W11288   0.126   5.279   0.104
 7238W        W11289   4.714   6.170  11.253
 7239W        W11290   3.817  10.955  11.920
 7240W        W11291   4.549   7.567  10.044
 7241W        W11292   8.391   9.879   3.718
 7242W        W11293   3.605   1.353  10.147
 7243W        W11294   2.638   9.861   2.003
 7244W        W11295   2.154   5.115  10.337
 7245W        W11296   1.784   3.504  11.460
 7246W        W11297   8.557   8.923   9.366
 7247W        W11298   6.592   7.131   1.873
 7248W        W11299   2.651   0.941   9.954
 7249W        W11300   2.618   1.845   2.588
 7250W        W11301   0.229   0.014   1.879
 7251W        W11302   4.158   3.768  10.260
 7252W        W11303   3.678   6.158   8.348
 7253W        W11304   3.252   4.684  10.097
 7254W        W11305   0.402   6.638   1.116
 7255W        W11306   0.762   3.194  11.042
 7256W        W11307   8.649   8.911  11.057
 7257W        W11308   1.722   8.968  11.808
 7258W        W11309   8.363   1.088   1.118
 7259W        W11310   2.522   5.649   8.685
 7260W        W11311   7.450   0.492   2.991
 7261W        W11312   2.723   8.871  10.038
 7262W        W11313   4.744   2.433  11.372
 7263W        W11314  10.912   3.028   2.581
 7264W        W11315   3.479  10.529   0.411
 7265W        W11316   6.264   5.499  11.781
 7266W        W11317   7.506   8.094  11.141
 7267W        W11318   8.871   8.489   0.843
 7268W        W11319   8.142   6.392   1.385
 7269W        W11320   9.985   0.379   9.222
 7270W        W11321   9.750   8.043   3.119
 7271W        W11322   5.143   8.406   0.017
 7272W        W11323   1.746   2.496   8.936
 7273W        W11324  10.325   8.869   2.691
 7274W        W11325   3.692   4.246   8.747
 7275W        W11326  10.339   2.194  11.394
 7276W        W11327   6.272  10.387   9.730
 7277W        W11328   2.365   3.837   8.647
 7278W        W11329   3.797   9.716   0.188
 7279W        W11330   4.084   0.399   2.479
 7280W        W11331  10.383   1.794   1.863
 7281W        W11332  11.034   2.648   2.183
 7282W        W11333   1.845   7.731   9.660
 7283W        W11334   0.390   0.483   1.515
 7284W        W11335   9.110   2.636  11.352
 7285W        W11336  10.896   6.124   9.278
 7286W        W11337   2.210   6.643   1.657
 7287W        W11338  10.253   8.003   3.143
 7288W        W11339  10.918   4.626  11.805
 7289W        W11340   6.755   5.865   1.213
 7290W        W11341   0.781   2.868  10.212
 7291W        W11342   2.723   9.923   9.989
 7292W        W11343  11.225   9.492   9.109
 7293W        W11344   8.917   2.541   3.306
 7294W        W11345   0.916   2.829  10.711
 7295W        W11346   7.513  11.302   2.233
 7296W        W11347   5.711   4.069   4.072
 7297W        W11348   0.880  11.346   0.482
 7298W        W11349   1.197   4.162   1.003
 7299W        W11350   8.482   0.954   9.406
 7300W        W11351  11.168   1.701   3.662
 7301W        W11352   3.700   1.262   1.891
 7302W        W11353   2.287   9.409  11.517
 7303W        W11354   7.074   2.043  11.414
 7304W        W11355   1.725   7.837   1.000
 7305W        W11356   9.066  10.884   1.390
 7306W        W11357  10.004  10.995  11.350
 7307W        W11358   1.333   4.092  10.999
 7308W        W11359   4.190   4.680   1.799
 7309W        W11360  10.597   8.576   1.798
 7310W        W11361   2.233   3.378   3.632
 7311W        W11362   6.767   1.336   3.332
 7312W        W11363   1.522  10.509   0.885
 7313W        W11364   5.473   8.306   0.761
 7314W        W11365   0.379  10.407  11.463
 7315W        W11366   5.028  11.074   1.969
 7316W        W11367   1.062   7.505   1.275
 7317W        W11368   2.031   5.163   1.253
 7318W        W11369   0.437   2.630   1.028
 7319W        W11370   5.636   4.695   2.961
 7320W        W11371   4.532   3.223   8.950
 7321W        W11372   9.867   4.284   0.895
 7322W        W11373   3.973   8.350  11.710
 7323W        W11374   4.294  10.588   1.991
 7324W        W11375   8.836   2.224  11.420
 7325W        W11376   6.209   9.225   0.335
 7326W        W11377   0.328   5.178   0.678
 7327W        W11378   5.694   2.818  10.498
 7328W        W11379   0.430  10.943  10.739
 7329W        W11380   0.471   2.138   9.898
 7330W        W11381   0.485   6.715   2.116
 7331W        W11382  10.432   1.942   9.076
 7332W        W11383   6.917   6.050  11.394
 7333W        W11384   9.004   0.322   1.351
 7334W        W11385   2.730   6.213   0.476
 7335W        W11386  11.349  10.272   0.344
 7336W        W11387   9.128   2.141   2.122
 7337W        W11388   1.163   7.901   2.339
 7338W        W11389   3.329   5.081  11.908
 7339W        W11390   6.508   4.522  10.505
 7340W        W11391   9.248   0.605  11.999
 7341W        W11392   1.726   9.091   9.271
 7342W        W11393   3.135   1.851   8.579
 7343W        W11394  10.091   1.042   0.871
 7344W        W11395  10.046   2.403   0.804
 7345W        W11396   0.680  11.233   9.523
 7346W        W11397   8.692   6.064   8.686
 7347W        W11398   7.952   4.245   9.807
 7348W        W11399   9.016  10.159  11.838
 7349W        W11400   6.931   0.786   9.729
 7350W        W11401   7.967   4.496  10.266
 7351W        W11402   9.601   2.918   8.964
 7352W        W11403  10.522   0.921   2.381
 7353W        W11404  11.371   6.182   9.509
 7354W        W11405   5.815   2.322   1.204
 7355W        W11406   6.566   0.232   2.405
 7356W        W11407   8.259   7.888   9.602
 7357W        W11408   7.999   7.118  11.985
 7358W        W11409   7.971  11.226   1.435
 7359W        W11410   2.773   4.970   0.731
 7360W        W11411   4.980   7.066   9.458
 7361W        W11412   4.709   4.773   2.013
 7362W        W11413   1.767   2.336   0.965
 7363W        W11414   0.309   5.773  10.332
 7364W        W11415   2.876   3.691   0.478
 7365W        W11416   4.967   1.778   8.771
 7366W        W11417  10.678   6.833   9.903
 7367W        W11418   2.264   0.284   0.527
 7368W        W11419   4.156   4.869  10.405
 7369W        W11420   1.988   5.433   0.795
 7370W        W11421   6.051   6.508  10.694
 7371W        W11422   8.825   9.323   0.530
 7372W        W11423   9.924   5.684   2.497
 7373W        W11424  10.355   7.446   0.673
 7374W        W11425   1.476  11.427  10.442
 7375W        W11426  10.736   9.649   0.706
 7376W        W11427   8.633   2.564   1.052
 7377W        W11428   4.282   9.953  11.149
 7378W        W11429   8.785   5.915  10.269
 7379W        W11430   8.408   3.834   0.885
 7380W        W11431   2.091   8.070   0.751
 7381W        W11432  11.224   3.641   3.269
 7382W        W11433   7.478  10.504   2.736
 7383W        W11434   9.012   8.570   2.286
 7384W        W11435   0.956   6.913   2.241
 7385W        W11436   7.584  11.392  11.643
 7386W        W11437  10.344   8.833   1.410
 7387W        W11438   3.709   7.113   1.981
 7388W        W11439   0.562   3.624   1.309
 7389W        W11440   3.562   0.708   9.877
 7390W        W11441   0.617   9.156   2.235
 7391W        W11442  11.426   8.565  10.819
 7392W        W11443   7.286   2.796   2.821
 7393W        W11444   8.631   8.376   1.471
 7394W        W11445   3.699   3.614   9.372
 7395W        W11446   4.737   5.705  11.021
 7396W        W11447   5.346   7.271   9.137
 7397W        W11448   7.424   0.551   2.485
 7398W        W11449   3.234   3.179   9.950
 7399W        W11450   9.657   0.402   3.035
 7400W        W11451   2.422   9.985   3.445
 7401W        W11452   7.811  10.613  10.566
 7402W        W11453   7.251   1.383   3.240
 7403W        W11454   1.411   0.289   1.441
 7404W        W11455   4.531   8.534   1.106
 7405W        W11456   5.700   2.777  11.558
 7406W        W11457   1.225   1.023   0.387
 7407W        W11458   6.560   8.146   1.829
 7408W        W11459   2.832   2.691   0.354
 7409W        W11460   9.438   1.960   9.534
 7410W        W11461   3.579   7.023  11.522
 7411W        W11462   0.756   6.085   9.506
 7412W        W11463  10.268   2.910  10.951
 7413W        W11464   3.597   3.187   9.078
 7414W        W11465   2.134   0.993   3.658
 7415W        W11466   5.484   7.590  11.933
 7416W        W11467  11.365   2.748   0.834
 7417W        W11468   6.523   6.654  10.224
 7418W        W11469   7.431  10.229  10.518
 7419W        W11470   6.150   5.074   1.560
 7420W        W11471   3.596   1.801  11.841
 7421W        W11472   1.828   3.603   0.400
 7422W        W11473   5.028   4.245   1.366
 7423W        W11474   3.241   4.699   1.991
 7424W        W11475   6.104   7.759   3.659
 7425W        W11476   7.622   4.528   9.544
 7426W        W11477   5.333   8.907   0.164
 7427W        W11478  10.833   5.554   1.694
 7428W        W11479   8.564   8.902   2.192
 7429W        W11480   9.338   3.659   1.266
 7430W        W11481   8.130   8.033  11.821
 7431W        W11482   2.403   7.425   1.505
 7432W        W11483   9.089   2.699   9.369
 7433W        W11484   2.387   9.971   8.989
 7434W        W11485   6.679   4.213   0.330
 7435W        W11486   8.830   1.002   0.432
 7436W        W11487   9.870  11.202   0.304
 7437W        W11488   5.965  10.587  11.395
 7438W        W11489   4.269   1.359   0.439
 7439W        W11490  10.058  10.312   9.464
 7440W        W11491   2.804   4.537   0.456
 7441W        W11492   8.638   2.549   1.561
 7442W        W11493   8.649   7.599   1.914
 7443W        W11494   3.845   8.066   3.156
 7444W        W11495   9.925   3.339   2.429
 7445W        W11496   0.436   5.082   8.911
 7446W        W11497   0.352   8.566   2.470
 7447W        W11498   9.385  10.447   1.927
 7448W        W11499  11.111   4.609   0.296
 7449W        W11500   2.154   3.221   0.184
 7450W        W11501   5.245   1.198  11.432
 7451W        W11502   9.848   2.299   3.521
 7452W        W11503   4.671  10.403  11.814
 7453W        W11504   5.660   4.783  10.524
 7454W        W11505   7.149   3.855   3.057
 7455W        W11506   4.255   4.697   9.941
 7456W        W11507   0.536   2.654   9.326
 7457W        W11508   9.590   5.729   2.872
 7458W        W11509   9.922   7.612   3.361
 7459W        W11510   2.051   8.750   8.482
 7460W        W11511   1.773   6.472   1.430
 7461W        W11512   4.081   6.007   1.153
 7462W        W11513   5.080   7.869  11.506
 7463W        W11514   2.147  11.320   9.985
 7464W        W11515   1.986   2.686  11.291
 7465W        W11516   8.557   1.596   1.853
 7466W        W11517   0.131   9.458   9.485
 7467W        W11518  10.012   6.135   0.200
 7468W        W11519   3.606   8.414  10.766
 7469W        W11520   6.333  10.718   0.332
 7470W        W11521  10.315  10.056   1.839
 7471W        W11522   7.661   0.023   1.706
 7472W        W11523   5.100   8.635  10.345
 7473W        W11524   8.171   3.867   0.383
 7474W        W11525   9.046   3.145  11.317
 7475W        W11526   7.630   5.613  11.066
 7476W        W11527   6.627   3.593  11.453
 7477W        W11528   8.154   0.481   9.392
 7478W        W11529   4.638   2.495   3.212
 7479W        W11530  10.072   6.189  10.822
 7480W        W11531   2.355   3.369   8.952
 7481W        W11532   8.500   4.984   9.999
 7482W        W11533  11.192   4.961   8.604
 7483W        W11534   8.560   8.381  10.977
 7484W        W11535   0.760   4.879   3.484
 7485W        W11536  10.211   5.773  11.477
 7486W        W11537   0.419   4.604   2.879
 7487W        W11538   0.445   8.523   2.970
 7488W        W11539   8.452  11.166   1.653
 7489W        W11540   9.005   5.030  11.200
 7490W        W11541   7.847   4.524  11.773
 7491W        W11542   7.497   6.955   3.379
 7492W        W11543   8.958   9.116   2.461
 7493W        W11544   5.157   4.039   9.191
 7494W        W11545   8.904   5.722   2.298
 7495W        W11546  11.266  10.148   1.932
 7496W        W11547   5.042  10.064  10.511
 7497W        W11548   4.525   7.034   1.531
 7498W        W11549   1.683   3.075  11.145
 7499W        W11550   0.866  10.474   9.978
 7500W        W11551   6.044   4.905   2.085
 7501W        W11552   2.227   1.148   0.042
 7502W        W11553   2.699   5.423  10.335
 7503W        W11554  11.034  10.145   3.125
 7504W        W11555   7.623   8.670   3.320
 7505W        W11556  11.431   0.282   0.505
 7506W        W11557   6.404   0.182   9.280
 7507W        W11558   3.779   2.642   1.591
 7508W        W11559   6.990   7.967   3.147
 7509W        W11560   9.963   1.088   8.606
 7510W        W11561   5.248   3.576  11.517
 7511W        W11562   6.504   0.983   1.319
 7512W        W11563   1.977   5.089   2.148
 7513W        W11564   4.472   6.527   1.666
 7514W        W11565   0.888   2.206   3.191
 7515W        W11566   2.804   6.459   9.240
 7516W        W11567   5.027   1.232  11.956
 7517W        W11568   7.019   5.615  11.658
 7518W        W11569   9.986   1.349   9.557
 7519W        W11570   0.892   2.433   2.083
 7520W        W11571   6.498   8.140   3.298
 7521W        W11572   5.027   3.473   3.985
 7522W        W11573   8.299   2.973  10.850
 7523W        W11574   9.446   7.632   0.488
 7524W        W11575   7.489  10.799   3.160
 7525W        W11576   6.479   6.137   1.532
 7526W        W11577   6.089   0.652  11.771
 7527W        W11578   8.134   3.300   0.456
 7528W        W11579   8.454   6.597   2.673
 7529W        W11580  11.343   2.304   1.872
 7530W        W11581   9.114   5.233   0.690
 7531W        W11582   5.561  10.916  11.481
 7532W        W11583   0.283   8.566   0.003
 7533W        W11584   9.593   8.641   0.295
 7534W        W11585   6.506   5.897   9.127
 7535W        W11586   5.332   7.473   8.660
 7536W        W11587   4.253   6.227  10.274
 7537W        W11588   5.155   3.141   3.605
 7538W        W11589   8.292   3.738   1.393
 7539W        W11590   8.414   9.771   2.111
 7540W        W11591   6.188  10.822  11.819
 7541W        W11592   4.303   9.116   0.317
 7542W        W11593   1.243  11.453   1.774
 7543W        W11594   1.712   2.949   8.652
 7544W        W11595   3.756   9.239   1.895
 7545W        W11596   3.197   4.117  10.258
 7546W        W11597   2.650   9.017   9.059
 7547W        W11598   4.079  11.361   9.497
 7548W        W11599   6.383  10.071  11.395
 7549W        W11600   4.760   0.005   2.382
 7550W        W11601   1.297   7.023   2.925
 7551W        W11602   7.672   9.526   1.973
 7552W        W11603   7.342  10.757  10.440
 7553W        W11604  10.391   0.436   2.404
 7554W        W11605   0.032   4.785   2.593
 7555W        W11606   5.450   6.011  11.669
 7556W        W11607   7.514   1.677   9.644
 7557W        W11608   8.196   3.335   1.101
 7558W        W11609   6.161   1.223   1.663
 7559W        W11610   5.244   0.922   0.764
 7560W        W11611   2.571   7.040   9.445
 7561W        W11612   3.005   5.829   3.130
 7562W        W11613   2.663  10.668  10.463
 7563W        W11614   6.274   2.795   9.486
 7564W        W11615   0.491   6.191   0.270
 7565W        W11616   5.014   8.389   9.923
 7566W        W11617   5.504   9.508   0.202
 7567W        W11618   7.937   7.662  10.861
 7568W        W11619   2.631   4.216   8.924
 7569W        W11620   8.518  11.201   0.661
 7570W        W11621   3.137   5.877   0.397
 7571W        W11622   2.480  10.331   2.047
 7572W        W11623  10.018   4.179  11.500
 7573W        W11624   6.660   8.618   3.131
 7574W        W11625  11.270   1.736  10.306
 7575W        W11626   0.839  11.044   2.491
 7576W        W11627   6.994  10.933  10.111
 7577W        W11628   6.621   4.255  10.087
 7578W        W11629  10.245   4.624  10.381
 7579W        W11630   8.113   4.788   2.689
 7580W        W11631   1.301   7.545   2.698
 7581W        W11632   9.819   4.286  10.554
 7582W        W11633   2.847   3.682  10.948
 7583W        W11634   0.493   5.067   1.162
 7584W        W11635   9.044   6.840  10.452
 7585W        W11636   8.978   3.194   9.546
 7586W        W11637   9.318   4.103  11.978
 7587W        W11638  11.290   4.222  11.694
 7588W        W11639   4.998   3.843   9.652
 7589W        W11640   4.064   2.072   0.869
 7590W        W11641   8.983   7.836   0.311
 7591W        W11642   3.428   5.258  10.847
 7592W        W11643   7.472   3.269   0.402
 7593W        W11644   2.214   7.639   1.941
 7594W        W11645   3.895   1.721   0.408
 7595W        W11646   4.214   6.727  10.848
 7596W        W11647   3.602   6.607   1.729
 7597W        W11648  10.592   9.547   2.298
 7598W        W11649   9.634   6.410  11.667
 7599W        W11650   6.105   4.474   3.174
 7600W        W11651   9.467   7.054   2.795
 7601W        W11652   0.378  10.211   0.444
 7602W        W11653   2.269   7.953   0.294
 7603W        W11654   9.138   6.891   8.681
 7604W        W11655  10.765   1.979  10.978
 7605W        W11656   2.786   3.275  11.307
 7606W        W11657   6.014  10.392   3.224
 7607W        W11658   2.250   8.096   2.953
 7608W        W11659   1.262   1.752   2.760
 7609W        W11660   2.917   6.000   9.040
 7610W        W11661  10.976   3.550   0.485
 7611W        W11662   9.571   4.835   2.781
 7612W        W11663  10.883   4.178   8.473
 7613W        W11664   2.714  11.351  10.844
 7614W        W11665   4.693   8.459   9.532
 7615W        W11666   1.667   6.750  11.460
 7616W        W11667   9.745   5.656   3.361
 7617W        W11668   6.667   2.914   0.184
 7618W        W11669   7.388   4.591   0.003
 7619W        W11670  10.108   3.610  10.369
 7620W        W11671   6.055  10.895   1.493
 7621W        W11672   8.844   5.123   9.273
 7622W        W11673  10.102   0.751   2.138
 7623W        W11674  11.332   9.965  11.937
 7624W        W11675   7.682   3.207   2.482
 7625W        W11676   8.875   8.021   1.759
 7626W        W11677   8.234   8.604   9.096
 7627W        W11678   6.943  10.198   0.960
 7628W        W11679  10.314   4.076  11.891
 7629W        W11680   3.380   2.849  11.106
 7630W        W11681  11.010   9.973   8.974
 7631W        W11682   3.612  11.265   9.011
 7632W        W11683   8.515   5.078  11.410
 7633W        W11684   3.332   7.501   1.560
 7634W        W11685   5.048   8.733   2.468
 7635W        W11686   9.364   9.609   9.414
 7636W        W11687   2.495   9.112  10.939
 7637W        W11688   4.331   4.799  11.268
 7638W        W11689  11.360   7.176   3.556
 7639W        W11690   2.788   2.124   9.016
 7640W        W11691   0.271   0.324  11.255
 7641W        W11692  11.478   3.399   9.541
 7642W        W11693   5.616   2.334   8.759
 7643W        W11694  10.390   7.419  10.744
 7644W        W11695   1.293  10.949   1.775
 7645W        W11696   7.649   3.619   9.412
 7646W        W11697  11.010  10.514   3.478
 7647W        W11698   6.072   0.725   1.372
 7648W        W11699  11.277   9.849  10.370
 7649W        W11700   5.167   4.077   2.715
 7650W        W11701   6.583   0.670   0.903
 7651W        W11702   9.327   0.240  10.706
 7652W        W11703   6.101   1.891   1.247
 7653W        W11704   3.378   4.578   2.919
 7654W        W11705   7.568   7.594  11.365
 7655W        W11706  10.704  10.864   9.330
 7656W        W11707   4.352   9.107   9.751
 7657W        W11708   5.376   3.200  10.289
 7658W        W11709   4.390   1.763   1.223
 7659W        W11710  11.338   1.894   0.696
 7660W        W11711   1.343   9.092   3.352
 7661W        W11712   8.846   4.612   9.970
 7662W        W11713   0.472   7.917   0.254
 7663W        W11714   7.651   5.826   1.365
 7664W        W11715   5.214   7.732   2.893
 7665W        W11716   3.868   7.927  11.981
 7666W        W11717   3.139   4.945  10.543
 7667W        W11718   4.703   3.557   1.857
 7668W        W11719   0.133   3.640   3.606
 7669W        W11720   5.423   4.120   1.710
 7670W        W11721   5.672   7.729   0.421
 7671W        W11722   7.046  10.925   9.533
 7672W        W11723   1.625   8.479  11.907
 7673W        W11724  10.364   8.639   8.455
 7674W        W11725   8.379   5.108   9.530
 7675W        W11726   7.151   6.049  11.871
 7676W        W11727   6.144   4.426   2.231
 7677W        W11728   6.973   3.234  11.563
 7678W        W11729   0.477   0.314   9.657
 7679W        W11730   8.107   4.931   8.237
 7680W        W11731   3.201   7.656  11.544
 7681W        W11732   4.978   0.727  10.279
 7682W        W11733   1.799   5.639  10.313
 7683W        W11734   8.929   5.093   8.743
 7684W        W11735  11.355  11.024   2.819
 7685W        W11736   4.372   8.130   2.617
 7686W        W11737   1.400   3.796   0.689
 7687W        W11738   7.900  10.806  11.047
 7688W        W11739   5.510   5.189   3.098
 7689W        W11740   1.374   7.145   8.944
 7690W        W11741   9.849   6.104   9.417
 7691W        W11742   7.331   4.445   8.668
 7692W        W11743   5.733   3.059   8.500
 7693W        W11744   0.926   2.465   3.662
 7694W        W11745   5.029   1.497   3.495
 7695W        W11746   6.542   4.097   2.265
 7696W        W11747   8.338   2.926   0.796
 7697W        W11748   3.171   9.405   3.122
 7698W        W11749   8.605   4.863   2.950
 7699W        W11750   4.119   3.740   2.681
 7700W        W11751  11.031  10.441  10.385
 7701W        W11752   8.185   9.808  10.916
 7702W        W11753   2.430  10.430   0.326
 7703W        W11754   7.967   8.919   0.132
 7704W        W11755   4.107   3.667   9.708
 7705W        W11756   1.164   7.373  10.376
 7706W        W11757   2.720   0.521   1.223
 7707W        W11758   9.940   4.999  11.254
 7708W        W11759   6.129  11.356   9.991
 7709W        W11760   7.420   2.200   9.559
 7710W        W11761   7.190   0.652   1.715
 7711W        W11762  11.420  11.041  11.078
 7712W        W11763   5.671   0.022   2.819
 7713W        W11764   5.217   5.065   1.539
 7714W        W11765   6.026   2.636  11.995
 7715W        W11766   0.533  11.449  10.561
 7716W        W11767   3.133   0.754  10.534
 7717W        W11768   7.065  10.680   1.194
 7718W        W11769   4.365   4.010  11.626
 7719W        W11770  11.466   9.471  10.005
 7720W        W11771   0.257   8.366   0.628
 7721W        W11772   2.415   2.938   0.541
 7722W        W11773   4.795   2.433  10.519
 7723W        W11774   0.418   4.323   2.185
 7724W        W11775   7.153   7.971   2.640
 7725W        W11776   5.776  10.084   2.875
 7726W        W11777   6.583   1.637   9.398
 7727W        W11778   1.450  10.680   9.894
 7728W        W11779   1.198   2.136   2.378
 7729W        W11780   1.041   6.223   9.934
 7730W        W11781  10.942   3.816  11.421
 7731W        W11782   4.709   8.889   3.370
 7732W        W11783   6.415   2.330   3.593
 7733W        W11784  10.667   1.365   1.030
 7734W        W11785   6.352   3.063   0.885
 7735W        W11786   5.551   7.353  10.004
 7736W        W11787   4.166   8.667   0.065
 7737W        W11788   2.178  10.518  10.503
 7738W        W11789  10.491   3.204   1.189
 7739W        W11790   1.089   2.715  11.860
 7740W        W11791  10.227   5.626   3.489
 7741W        W11792   5.177   5.581  10.070
 7742W        W11793   9.838   3.129  10.066
 7743W        W11794   5.248   2.072   9.083
 7744W        W11795   0.092   0.983   9.128
 7745W        W11796  10.035   6.500   9.055
 7746W        W11797  11.386   6.683   9.386
 7747W        W11798   2.580   4.524   3.282
 7748W        W11799   9.846   0.698   1.224
 7749W        W11800   6.947   7.934   8.935
 7750W        W11801   2.640   3.690   3.501
 7751W        W11802   2.159   9.309   0.786
 7752W        W11803   0.167   4.354  10.235
 7753W        W11804   0.505  11.325   3.298
 7754W        W11805   0.725   2.710   3.216
 7755W        W11806   5.273   0.883   1.932
 7756W        W11807   7.993  10.547   3.110
 7757W        W11808   5.149   7.621   1.809
 7758W        W11809  10.408  10.877  10.070
 7759W        W11810   1.837   0.176   0.217
 7760W        W11811   5.026   7.392  11.851
 7761W        W11812  11.053   9.107   8.550
 7762W        W11813   1.309   4.792   1.696
 7763W        W11814   8.354   4.510   9.929
 7764W        W11815   1.838   5.355  11.941
 7765W        W11816  11.095   5.542   2.612
 7766W        W11817   8.584  11.309  10.697
 7767W        W11818   2.291   0.387   2.472
 7768W        W11819   9.920   8.435  10.770
 7769W        W11820   8.367   7.599   0.901
 7770W        W11821   5.548   9.032   1.837
 7771W        W11822  10.233   6.083   1.697
 7772W        W11823   9.817   8.879  10.355
 7773W        W11824   0.426   3.610  10.587
 7774W        W11825   0.343   6.561   0.584
 7775W        W11826   5.532   0.344   2.433
 7776W        W11827  10.856   7.313   9.825
 7777W        W11828   4.503   2.813   2.355
 7778W        W11829   2.242   6.552   0.649
 7779W        W11830   5.798   8.040  10.257
 7780W        W11831   1.961   3.195   1.496
 7781W        W11832   6.855   2.021   3.674
 7782W        W11833   3.116   1.787   1.727
 7783W        W11834   6.473   3.482   3.715
 7784W        W11835   1.689   8.439  10.970
 7785W        W11836   4.050   5.665  11.349
 7786W        W11837   2.177   1.350   2.427
 7787W        W11838   8.238   1.417   9.495
 7788W        W11839  11.117   9.056  10.012
 7789W        W11840  10.584  10.396  10.155
 7790W        W11841  11.041   3.682   9.454
 7791W        W11842  11.393   3.623   9.091
 7792W        W11843   2.785   7.348   0.732
 7793W        W11844   7.532   8.073   3.008
 7794W        W11845   3.263  11.138   3.120
 7795W        W11846   0.393   7.043   0.800
 7796W        W11847   0.909   0.298   0.755
 7797W        W11848   9.647  10.327   9.845
 7798W        W11849   8.643   3.556   2.625
 7799W        W11850   0.386   8.370  10.499
 7800W        W11851   5.631   9.094  11.178
 7801W        W11852   3.110   1.634  11.773
 7802W        W11853   9.672  10.067   0.420
 7803W        W11854   3.502   6.675  10.301
 7804W        W11855   6.946   4.119   8.895
 7805W        W11856   1.292   5.502   0.061
 7806W        W11857   5.846   0.259  11.566
 7807W        W11858   9.578  10.795   1.555
 7808W        W11859   5.278   2.840   9.482
 7809W        W11860   8.461   8.531  10.104
 7810W        W11861   7.750   4.920   3.630
 7811W        W11862   1.357   2.840   1.415
 7812W        W11863  10.612  11.028  11.351
 7813W        W11864  10.288  11.422   8.730
 7814W        W11865   8.057   7.373   9.536
 7815W        W11866  11.278   1.844   0.191
 7816W        W11867   8.041   5.513   1.243
 7817W        W11868   9.520   7.508   3.022
 7818W        W11869   5.533  11.245   0.703
 7819W        W11870   7.447   4.793  11.532
 7820W        W11871   7.652   2.864  11.315
 7821W        W11872   3.329   9.121   3.563
 7822W        W11873   4.737   2.888   9.568
 7823W        W11874   8.963   3.803   0.191
 7824W        W11875   0.848   4.753  11.975
 7825W        W11876   6.262   1.353   3.225
 7826W        W11877  10.562   2.355   0.778
 7827W        W11878  10.111  10.302   3.263
 7828W        W11879   0.705  11.303  10.038
 7829W        W11880   4.784   4.148   2.406
 7830W        W11881  10.358   9.353   0.527
 7831W        W11882   8.094   6.323   3.696
 7832W        W11883   6.777   9.112   2.918
 7833W        W11884   1.480  11.282   1.343
 7834W        W11885   5.351   5.180  10.703
 7835W        W11886   0.020   1.214   2.363
 7836W        W11887   8.498   7.685  10.306
 7837W        W11888   3.363   3.769  11.052
 7838W        W11889   0.596   5.527   8.662
 7839W        W11890   6.783   9.891   2.787
 7840W        W11891   0.619   8.090  10.864
 7841W        W11892   5.991   6.123   1.344
 7842W        W11893   8.576   4.118   8.736
 7843W        W11894   9.660   9.975   2.348
 7844W        W11895   8.652   5.479  10.024
 7845W        W11896   9.124   2.780  10.870
 7846W        W11897   8.059   5.279  10.785
 7847W        W11898  10.422   2.475   9.124
 7848W        W11899   2.708   1.953   9.848
 7849W        W11900   1.136   1.400  11.542
 7850W        W11901   3.615  10.682   9.067
 7851W        W11902   6.407   0.327   1.902
 7852W        W11903   7.085  10.433  10.848
 7853W        W11904   0.757   2.307  11.808
 7854W        W11905   7.925   6.907   0.445
 7855W        W11906   9.924   0.572   0.711
 7856W        W11907   7.061   7.061   3.138
 7857W        W11908   0.370   6.486  10.978
 7858W        W11909   4.051   6.697   8.978
 7859W        W11910   3.247   0.450   8.930
 7860W        W11911   8.156   5.595   3.185
 7861W        W11912  11.497   7.923   0.486
 7862W        W11913   2.316   3.323   9.985
 7863W        W11914   7.464   0.774   9.742
 7864W        W11915   9.120   1.192   1.667
 7865W        W11916  11.328   2.137  11.141
 7866W        W11917   5.649   6.536  11.043
 7867W        W11918   4.908   6.802  11.786
 7868W        W11919   5.662   8.933   1.356
 7869W        W11920   7.063   8.372  11.280
 7870W        W11921   0.558   4.076  10.385
 7871W        W11922   2.636   4.673   9.939
 7872W        W11923   8.532   1.112   3.584
 7873W        W11924   3.724   8.846  10.493
 7874W        W11925   8.969   0.230  10.090
 7875W        W11926   5.868   2.206   0.256
 7876W        W11927   2.501   6.571  10.471
 7877W        W11928   5.887   0.074  10.431
 7878W        W11929   0.288   9.925   9.662
 7879W        W11930   0.887   2.274   8.981
 7880W        W11931  11.459   3.651  10.887
 7881W        W11932   5.580   2.416   2.131
 7882W        W11933   5.988   3.133  10.823
 7883W        W11934   9.487  10.158  11.564
 7884W        W11935   9.925   8.356  11.301
 7885W        W11936   0.391   0.808   9.516
 7886W        W11937   4.671   9.068   2.337
 7887W        W11938   2.343   3.773  10.783
 7888W        W11939   7.766   0.991  10.536
 7889W        W11940  10.960  10.423  10.885
 7890W        W11941   0.230   9.968   1.787
 7891W        W11942   7.941   6.009   0.517
 7892W        W11943   3.169  10.409   8.963
 7893W        W11944  10.111   3.289   0.879
 7894W        W11945   3.261  10.985   9.310
 7895W        W11946   4.540   1.788   9.546
 7896W        W11947  10.959   5.859  10.763
 7897W        W11948   5.313   8.528   3.629
 7898W        W11949   0.549   2.730  11.071
 7899W        W11950   5.609   2.833   8.972
 7900W        W11951  10.244   0.826  11.604
 7901W        W11952  10.487   1.327   8.908
 7902W        W11953   8.195   5.072   1.873
 7903W        W11954   6.010   8.075  11.480
 7904W        W11955   7.577   9.399   9.997
 7905W        W11956   6.632   3.176   1.827
 7906W        W11957  10.748   3.672   3.453
 7907W        W11958   9.636   1.974  10.037
 7908W        W11959   8.972  11.487  10.974
 7909W        W11960   9.533   3.117   3.006
 7910W        W11961   4.191   9.619   8.432
 7911W        W11962   4.363   1.800   0.189
 7912W        W11963  10.418  11.079  10.550
 7913W        W11964   7.593   7.658   2.684
 7914W        W11965   6.389   6.161  11.428
 7915W        W11966   7.648   7.087   9.711
 7916W        W11967   3.591   6.615   1.203
 7917W        W11968  10.960   7.637   9.401
 7918W        W11969   8.629   2.722  11.523
 7919W        W11970   8.802  11.344   9.044
 7920W        W11971  10.287   4.603  11.329
 7921W        W11972   5.402   3.219   3.175
 7922W        W11973   8.905  11.400   1.725
 7923W        W11974   4.068   6.863   1.705
 7924W        W11975   9.826   6.132  11.270
 7925W        W11976   4.333   0.935   3.180
 7926W        W11977   4.071   9.098  11.819
 7927W        W11978   3.775   9.742   0.689
 7928W        W11979  10.969   2.413   9.703
 7929W        W11980   9.272   8.509   8.983
 7930W        W11981  10.025   7.097  11.511
 7931W        W11982   5.277   9.880  10.940
 7932W        W11983   2.669   4.941   0.202
 7933W        W11984   9.491  10.268  10.728
 7934W        W11985   6.597   7.181   4.036
 7935W        W11986   5.908   8.365  10.899
 7936W        W11987   1.327   4.285   3.155
 7937W        W11988   1.657   0.654   2.724
 7938W        W11989   8.651   1.235  10.268
 7939W        W11990   4.261   6.018   2.179
 7940W        W11991   3.314   9.562  10.592
 7941W        W11992  10.968   4.274   2.006
 7942W        W11993   8.983   0.950   3.415
 7943W        W11994   9.746   5.072   9.088
 7944W        W11995   6.685   1.771   1.921
 7945W        W11996   9.165   1.226   2.681
 7946W        W11997   2.766   8.092   0.380
 7947W        W11998   1.266   7.177   0.914
 7948W        W11999   4.907  10.810   8.506
 7949W        W12000  11.296   5.720   0.220
 7950W        W12001   1.275   2.244  11.704
 7951W        W12002   5.318   8.327   8.195
 7952W        W12003   5.846   9.074   2.800
 7953W        W12004   9.357   7.231  11.242
 7954W        W12005   3.545   4.666   9.524
 7955W        W12006  10.975   5.273   9.349
 7956W        W12007  11.420   6.807   8.869
 7957W        W12008   9.121  10.741  11.235
 7958W        W12009  10.638  10.858   0.887
 7959W        W12010  10.565   6.317   9.896
 7960W        W12011  10.462   8.867   0.570
 7961W        W12012   6.615   7.697   3.575
 7962W        W12013   5.072  10.952   0.958
 7963W        W12014   2.242   4.215   0.977
 7964W        W12015   8.107   3.247   2.121
 7965W        W12016  10.122   2.376  11.846
 7966W        W12017   9.093   1.236  10.539
 7967W        W12018   9.084   0.303   9.125
 7968W        W12019   4.691   7.477   2.431
 7969W        W12020   3.421  10.754   2.812
 7970W        W12021   7.580   1.892   1.484
 7971W        W12022   5.732  11.357  11.272
 7972W        W12023   5.649   2.313  10.243
 7973W        W12024   9.902   7.023  10.517
 7974W        W12025   6.053   3.202   9.668
 7975W        W12026   8.848   7.534   2.402
 7976W        W12027   9.388   7.151   1.346
 7977W        W12028   2.222   0.470   2.990
 7978W        W12029   2.912   1.536   1.306
 7979W        W12030   2.272   4.701   9.387
 7980W        W12031   9.199   8.273   9.419
 7981W        W12032   4.174   4.297   3.106
 7982W        W12033   9.463  11.264  10.767
 7983W        W12034   7.960   4.859   9.865
 7984W        W12035   1.251   6.472  10.706
 7985W        W12036   7.855   4.778   0.209
 7986W        W12037   2.040   7.089   1.364
 7987W        W12038   1.030   2.468  10.351
 7988W        W12039   0.824   0.902   2.701
 7989W        W12040   6.166   2.040   0.755
 7990W        W12041   2.749   6.152   2.294
 7991W        W12042  10.429   5.693   2.467
 7992W        W12043   9.904  10.433   0.722
 7993W        W12044   7.527   8.583  11.387
 7994W        W12045   4.423   2.482   1.946
 7995W        W12046  11.195  11.479   1.758
 7996W        W12047   9.619   0.989   9.067
 7997W        W12048   8.889   0.457   0.849
 7998W        W12049   1.369   6.130   1.443
 7999W        W12050   2.225   9.019   9.500
 8000W        W12051  10.445   8.088   1.004
 8001W        W12052   9.319  11.324   0.262
 8002W        W12053   6.633  10.458   2.034
 8003W        W12054   0.413   4.032  11.394
 8004W        W12055  10.290   4.806   8.487
 8005W        W12056  11.288   0.649   9.355
 8006W        W12057   1.803   7.220  11.292
 8007W        W12058   8.721   5.112   1.810
 8008W        W12059  10.052   5.547  10.124
 8009W        W12060   2.228   5.659   1.708
 8010W        W12061   4.147   4.560   4.078
 8011W        W12062   0.749   9.916   1.772
 8012W        W12063   9.358   6.688   1.563
 8013W        W12064   8.157   4.326  10.983
 8014W        W12065   6.008   5.320   3.197
 8015W        W12066   9.834   8.964   1.343
 8016W        W12067  10.157   0.761  11.039
 8017W        W12068   2.416   6.126   9.951
 8018W        W12069   6.096  10.288  11.767
 8019W        W12070   7.662   7.121  10.214
 8020W        W12071   9.449   0.886   3.244
 8021W        W12072   6.455   2.409   9.793
 8022W        W12073   7.581  10.353   2.241
 8023W        W12074   9.052   8.767   9.385
 8024W        W12075   8.618   3.357   0.823
 8025W        W12076   3.605   6.055  11.155
 8026W        W12077   7.092   2.759   3.281
 8027W        W12078   7.978   9.415   1.217
 8028W        W12079   0.296   9.985   2.728
 8029W        W12080   8.271  10.340   3.509
 8030W        W12081   1.823   1.167  10.885
 8031W        W12082   1.824   0.868  10.460
 8032W        W12083   5.154   4.352   8.769
 8033W        W12084   8.840  10.361   2.687
 8034W        W12085   0.802   6.197   3.421
 8035W        W12086   7.529   8.842  11.880
 8036W        W12087   5.990   2.042   3.666
 8037W        W12088   4.177  10.077   9.666
 8038W        W12089  11.325   0.813   0.452
 8039W        W12090   1.812   5.992   1.686
 8040W        W12091   6.461   2.877  10.796
 8041W        W12092   1.849   1.010   1.212
 8042W        W12093   0.298   7.333  10.299
 8043W        W12094   0.757  10.205   2.701
 8044W        W12095   8.391   5.522   0.301
 8045W        W12096   0.812   5.053   0.760
 8046W        W12097   6.465  10.291   3.002
 8047W        W12098   1.820   5.009   3.682
 8048W        W12099  11.087   2.652   3.520
 8049W        W12100   7.870   4.120  10.609
 8050W        W12101   9.525   5.463   8.583
 8051W        W12102   1.175   4.035   8.940
 8052W        W12103   9.397   5.608   2.366
 8053W        W12104   6.033  11.310  11.709
 8054W        W12105   0.863   6.860   0.920
 8055W        W12106   6.120   1.151  11.808
 8056W        W12107   8.199   1.448  10.429
 8057W        W12108   4.770   1.492   0.452
 8058W        W12109   3.692   2.191  10.606
 8059W        W12110   6.978   3.171   1.435
 8060W        W12111  10.993   2.326   3.123
 8061W        W12112   1.339   0.305  11.704
 8062W        W12113   0.853   4.229   0.182
 8063W        W12114   7.497   3.121   9.951
 8064W        W12115   9.873   7.210   9.491
 8065W        W12116  10.567   3.418  10.498
 8066W        W12117   0.806   7.520   0.306
 8067W        W12118   6.898   0.254   1.790
 8068W        W12119  11.135   8.089   2.252
 8069W        W12120   4.775   4.678   9.996
 8070W        W12121   4.332   1.277  11.488
 8071W        W12122  10.453   1.881  10.115
 8072W        W12123   1.190   7.027   3.464
 8073W        W12124   9.861   4.696  11.671
 8074W        W12125   3.120  10.496  11.647
 8075W        W12126   0.058   3.812  11.886
 8076W        W12127   3.820   6.666   3.825
 8077W        W12128   8.587   4.624   0.455
 8078W        W12129   1.908   1.779  11.487
 8079W        W12130   0.021  11.265   0.501
 8080W        W12131   1.231   3.225  10.860
 8081W        W12132   8.012   0.780  11.854
 8082W        W12133   9.592   7.685   9.498
 8083W        W12134   9.254   4.342   2.094
 8084W        W12135   6.132   1.269   9.476
 8085W        W12136   8.759   7.117   0.732
 8086W        W12137   4.934   1.239  11.028
 8087W        W12138   8.220   4.334   9.037
 8088W        W12139   8.827   0.281  10.572
 8089W        W12140   1.904  10.406  10.003
 8090W        W12141   5.517  10.475  11.194
 8091W        W12142   9.070   7.328   0.379
 8092W        W12143   8.392   9.153   0.324
 8093W        W12144   8.962   1.673  10.270
 8094W        W12145   0.374   5.070  11.262
 8095W        W12146   6.594  10.758   2.783
 8096W        W12147   5.882   5.504   0.327
 8097W        W12148   2.402   1.458   1.389
 8098W        W12149   0.782   2.749   0.300
 8099W        W12150   5.949   3.685   9.812
 8100W        W12151   3.580   5.075   2.743
 8101W        W12152   9.529   2.457   9.207
 8102W        W12153  11.395   7.160   2.604
 8103W        W12154   7.517   0.079  10.746
 8104W        W12155   0.277   1.759   2.834
 8105W        W12156   8.907   1.645   3.408
 8106W        W12157   7.042   1.154   1.639
 8107W        W12158   8.390   6.154   2.416
 8108W        W12159   6.934   8.604   0.090
 8109W        W12160  10.555  10.586  10.611
 8110W        W12161   9.143  10.342   9.917
 8111W        W12162   1.521   5.091   1.228
 8112W        W12163   6.845   5.939  10.890
 8113W        W12164   6.918   4.180  10.493
 8114W        W12165   1.813   2.677  10.416
 8115W        W12166   4.676   2.696  10.068
 8116W        W12167   6.492   9.989  10.455
 8117W        W12168   2.438   0.292   9.970
 8118W        W12169   3.782  10.299   3.360
 8119W        W12170   3.057   9.330   0.776
 8120W        W12171  11.104   0.749  10.397
 8121W        W12172   0.434   5.288   1.978
 8122W        W12173   3.600   5.749  10.290
 8123W        W12174   1.787   5.504   3.481
 8124W        W12175   5.227   2.137  10.524
 8125W        W12176   0.262   9.075  11.049
 8126W        W12177   8.136   7.357  10.436
 8127W        W12178   5.758  11.477   1.872
 8128W        W12179   5.943   0.768   9.858
 8129W        W12180   2.371   1.203  10.857
 8130W        W12181   1.719   3.870  11.871
 8131W        W12182   4.662   9.903   0.543
 8132W        W12183   9.398   3.345  10.254
 8133W        W12184   3.681   6.081   1.491
 8134W        W12185   2.865  11.072   0.605
 8135W        W12186   2.698   7.489  10.731
 8136W        W12187   6.020   1.828   3.194
 8137W        W12188   6.241   2.009   8.708
 8138W        W12189   1.969  10.427   2.407
 8139W        W12190   9.384   9.969   3.244
 8140W        W12191  10.479   9.889   9.081
 8141W        W12192   5.688   2.290  11.750
 8142W        W12193   6.761  10.405   0.182
 8143W        W12194   3.029   4.262   3.204
 8144W        W12195  10.052  11.003   1.696
 8145W        W12196   7.367   0.269   2.025
 8146W        W12197   7.793   6.231  11.052
 8147W        W12198   4.358   8.070  11.978
 8148W        W12199   6.397  11.222   9.546
 8149W        W12200   3.197   5.579   9.962
 8150W        W12201   5.347  10.380   9.225
 8151W        W12202   5.780   7.915   0.926
 8152W        W12203   0.659   6.566  10.014
 8153W        W12204   2.787   7.496   8.824
 8154W        W12205   2.128  10.466  11.578
 8155W        W12206   1.458   2.272   9.658
 8156W        W12207   1.448   3.849  10.211
 8157W        W12208   3.735   5.009   9.867
 8158W        W12209   8.009   3.554  11.991
 8159W        W12210   5.438  11.055   2.661
 8160W        W12211   7.914   6.742  11.013
 8161W        W12212   6.644  11.305   9.973
 8162W        W12213   8.391   6.251   1.906
 8163W        W12214  10.393   3.035   8.564
 8164W        W12215  10.762   5.695   9.562
 8165W        W12216  10.395   3.175   1.684
 8166W        W12217   7.793   3.152   0.819
 8167W        W12218   5.204   6.993   0.727
 8168W        W12219   0.467   9.858   9.185
 8169W        W12220   4.964   0.509   2.669
 8170W        W12221   1.842   1.834   3.503
 8171W        W12222   6.056   4.780  11.249
 8172W        W12223   3.742   9.293  10.757
 8173W        W12224   1.221   4.976  11.225
 8174W        W12225   9.856  11.165   2.240
 8175W        W12226   5.284  10.825   9.485
 8176W        W12227   9.849   9.937   0.919
 8177W        W12228   7.611  11.033   1.813
 8178W        W12229   3.777   0.875   2.236
 8179W        W12230   4.105   9.604   1.739
 8180W        W12231   4.038  10.499   8.741
 8181W        W12232   5.808  11.314   1.381
 8182W        W12233  10.138   0.754   1.634
 8183W        W12234   1.069   0.062   0.073
 8184W        W12235   0.050  10.455   0.755
 8185W        W12236   2.329   5.423  11.536
 8186W        W12237  10.275   9.978  10.104
 8187W        W12238   0.958  10.901  10.786
 8188W        W12239  10.489   8.651   9.580
 8189W        W12240   4.281   3.168   1.221
 8190W        W12241   9.081   6.037  10.909
 8191W        W12242   9.423   4.880   8.722
 8192W        W12243  10.998   7.786   9.899
 8193W        W12244   8.901   4.182   8.336
 8194W        W12245   1.309   6.612   1.652
 8195W        W12246   6.030   8.368   9.897
 8196W        W12247   9.129   4.625   9.553
 8197W        W12248   8.183   2.799   9.479
 8198W        W12249   7.688   2.966   1.316
 8199W        W12250   3.348   1.382   1.521
 8200W        W12251   7.185   9.201   9.502
 8201W        W12252   0.796   9.095   8.735
 8202W        W12253   6.287   8.703   0.443
 8203W        W12254   1.457  11.013  10.745
 8204W        W12255   1.783   3.748   2.108
 8205W        W12256   4.904   3.360   3.170
 8206W        W12257  11.438   9.357   2.284
 8207W        W12258   2.659  11.496   0.769
 8208W        W12259   1.430   8.100   0.571
 8209W        W12260   6.866   3.539   2.752
 8210W        W12261   5.686   2.215   0.743
 8211W        W12262   9.831   4.257   9.476
 8212W        W12263   3.314   6.264  11.535
 8213W        W12264   4.008   2.282  10.978
 8214W        W12265   9.367   3.645   0.465
 8215W        W12266   7.470   7.153  11.113
 8216W        W12267   2.010   9.593   2.572
 8217W        W12268   2.934   7.915   8.569
 8218W        W12269   6.669   5.293  11.562
 8219W        W12270  10.981   9.001  11.399
 8220W        W12271   2.690   3.702   2.543
 8221W        W12272   5.117   9.405   1.043
 8222W        W12273   4.573   6.362   8.279
 8223W        W12274  10.110   3.236  11.363
 8224W        W12275   7.917   2.654   0.889
 8225W        W12276   9.374   9.685  11.335
 8226W        W12277  10.503   1.837   0.188
 8227W        W12278   9.642   3.804  10.361
 8228W        W12279   8.445   3.197  11.384
 8229W        W12280  10.891   1.752   1.340
 8230W        W12281   2.516   6.174  11.902
 8231W        W12282   4.254   8.821   2.137
 8232W        W12283   0.412   4.547   1.215
 8233W        W12284   0.715   7.645  11.805
 8234W        W12285   4.509   0.289   2.773
 8235W        W12286   9.044   5.924   1.382
 8236W        W12287   0.464  10.234   3.189
 8237W        W12288   0.912   2.797   9.009
 8238W        W12289   9.140   0.763   8.874
 8239W        W12290   5.303   8.477   2.113
 8240W        W12291  10.347   2.723   1.921
 8241W        W12292  10.478  10.579   0.054
 8242W        W12293   4.944   6.732   8.642
 8243W        W12294   1.287   9.318  10.551
 8244W        W12295   2.656   6.052   2.787
 8245W        W12296   6.404   4.105   1.780
 8246W        W12297   1.651   0.396  10.456
 8247W        W12298   9.643   4.637   1.914
 8248W        W12299   5.684   0.429  10.144
 8249W        W12300   7.081  11.475   0.857
 8250W        W12301   1.478   6.538  10.256
 8251W        W12302   5.927   2.076   9.106
 8252W        W12303   9.036   2.957  11.787
 8253W        W12304   4.333   8.594   1.661
 8254W        W12305  10.380   0.962   0.463
 8255W        W12306   2.937   0.891   3.516
 8256W        W12307   4.401   3.591  11.955
 8257W        W12308   3.706   4.122  11.405
 8258W        W12309   0.184  10.343  11.945
 8259W        W12310   8.600  11.369  11.683
 8260W        W12311   6.608   4.812   1.565
 8261W        W12312   2.426   0.296  10.873
 8262W        W12313  10.548   6.600   3.489
 8263W        W12314   1.533   5.097   0.305
 8264W        W12315  11.057   7.975   1.348
 8265W        W12316   2.588   1.072   2.688
 8266W        W12317   6.606   1.085   2.911
 8267W        W12318   5.570   7.582  10.461
 8268W        W12319   8.392   5.713  10.528
 8269W        W12320   9.422   9.115   9.434
 8270W        W12321   5.195   4.223   9.976
 8271W        W12322   4.093   0.980   0.733
 8272W        W12323  10.593   5.102  10.378
 8273W        W12324  10.417   0.075   0.252
 8274W        W12325   8.972   0.803  10.283
 8275W        W12326   2.280   6.158   0.969
 8276W        W12327   1.847   4.092  11.430
 8277W        W12328   6.980   7.362   2.124
 8278W        W12329   1.053   7.421   9.843
 8279W        W12330   2.637   6.927  11.747
 8280W        W12331   3.098   6.290   2.915
 8281W        W12332  11.029  10.797   1.197
 8282W        W12333   9.855   3.689   9.025
 8283W        W12334   8.819   6.364  11.237
 8284W        W12335   6.047   4.183   1.433
 8285W        W12336   0.334   6.011   3.600
 8286W        W12337   5.019   2.196  10.988
 8287W        W12338  10.781   0.360  10.324
 8288W        W12339   8.388   5.748   9.005
 8289W        W12340   4.824   4.891  11.469
 8290W        W12341   4.779   7.464   1.415
 8291W        W12342   2.242   4.175  11.105
 8292W        W12343   7.259   5.045   0.283
 8293W        W12344   9.386   7.265   9.297
 8294W        W12345   6.848  10.062   8.588
 8295W        W12346   7.125   2.881  11.222
 8296W        W12347   1.888   0.056   1.449
 8297W        W12348   9.619  11.420   0.678
 8298W        W12349   4.399   7.006  11.329
 8299W        W12350   8.871   5.611   0.432
 8300W        W12351  11.235   6.240   0.981
 8301W        W12352   5.475   8.953  11.641
 8302W        W12353   7.431   5.301  11.456
 8303W        W12354   7.428   9.299  10.979
 8304W        W12355   1.001   9.030   0.928
 8305W        W12356   0.089   3.558   1.163
 8306W        W12357   8.098   5.200  11.994
 8307W        W12358  10.351   4.738   0.414
 8308W        W12359   5.942  11.495   0.894
 8309W        W12360   5.633   4.661   8.658
 8310W        W12361   5.522   3.842  11.878
 8311W        W12362   2.835   8.795  10.591
 8312W        W12363   5.182   4.593   2.723
 8313W        W12364  10.449   2.873   0.388
 8314W        W12365   3.851   5.351   2.087
 8315W        W12366  10.405  10.113  11.843
 8316W        W12367   3.350   3.889   0.525
 8317W        W12368   6.647   0.270   9.720
 8318W        W12369  10.831   8.145   9.526
 8319W        W12370   2.326  11.022   9.540
 8320W        W12371   6.497   8.463   0.854
 8321W        W12372   5.060   6.094  10.834
 8322W        W12373   8.273   4.846  11.004
 8323W        W12374   9.264   6.131   0.951
 8324W        W12375   7.545  10.813   8.651
 8325W        W12376   3.375   5.516   2.957
 8326W        W12377   9.877   1.236  10.040
 8327W        W12378   2.790   2.855   2.374
 8328W        W12379   4.397  10.426   1.488
 8329W        W12380   9.484   8.056   1.317
 8330W        W12381   3.891   6.563   0.747
 8331W        W12382   3.424   5.708   8.264
 8332W        W12383   6.918   6.183   0.729
 8333W        W12384   0.872   5.082   9.555
 8334W        W12385   9.773   6.225   1.855
 8335W        W12386   1.369   0.456   9.536
 8336W        W12387   5.175   7.994   0.509
 8337W        W12388  10.404   4.586   1.894
 8338W        W12389   9.475  11.469  10.242
 8339W        W12390   8.884  10.438   1.662
 8340W        W12391   1.940   6.635  10.493
 8341W        W12392   8.947   2.548   9.944
 8342W        W12393   8.518   9.833   9.345
 8343W        W12394  10.733   3.750  10.129
 8344W        W12395   3.358   0.687   3.283
 8345W        W12396   0.803   2.321   2.648
 8346W        W12397   9.315   8.304   3.615
 8347W        W12398   6.196   9.307  11.767
 8348W        W12399   1.103  11.392   2.244
 8349W        W12400   5.206   3.630   3.511
 8350W        W12401   0.222   9.094   2.624
 8351W        W12402   5.724   1.240   9.883
 8352W        W12403   1.735   4.544  10.077
 8353W        W12404   5.678   0.285   3.416
 8354W        W12405   4.564   2.714   9.125
 8355W        W12406   1.777   9.444  10.526
 8356W        W12407   7.664   6.446   3.407
 8357W        W12408   9.306   9.379   8.956
 8358W        W12409   5.130   4.588   1.736
 8359W        W12410   3.309   6.197   9.328
 8360W        W12411   7.832   4.607  11.253
 8361W        W12412   3.799   5.763   0.687
 8362W        W12413   1.294   6.107   3.497
 8363W        W12414   7.100   2.677  11.999
 8364W        W12415   1.776   7.273   3.922
 8365W        W12416   4.652   8.874  10.450
 8366W        W12417   9.058   1.667   1.931
 8367W        W12418   8.357   4.347   0.848
 8368W        W12419   2.671   0.266   1.714
 8369W        W12420  10.549   8.693   3.143
 8370W        W12421   1.430   7.127   2.422
 8371W        W12422   2.384   4.804   2.868
 8372W        W12423  10.455   5.822   9.955
 8373W        W12424   4.213   4.279   8.846
 8374W        W12425   1.962   4.634   1.077
 8375W        W12426   4.989   7.014   1.198
 8376W        W12427   2.341   1.792   2.154
 8377W        W12428   8.935   5.090  10.286
 8378W        W12429   4.131   5.278  10.078
 8379W        W12430   8.342   3.880   2.355
 8380W        W12431   9.372   9.306  10.902
 8381W        W12432   4.750   7.750   0.604
 8382W        W12433   1.384   4.593   1.208
 8383W        W12434   8.479   9.529  11.526
 8384W        W12435   2.237   1.464   3.439
 8385W        W12436   3.252   0.168   2.958
 8386W        W12437   7.514   8.491   9.368
 8387W        W12438   1.380   7.055  10.043
 8388W        W12439   8.508   0.324  11.447
 8389W        W12440   7.159  11.303   1.842
 8390W        W12441  11.436   4.891   9.045
 8391W        W12442   0.267   9.915  10.174
 8392W        W12443   5.077   1.696  10.759
 8393W        W12444   1.935   6.162   8.925
 8394W        W12445   7.148   0.012   9.044
 8395W        W12446   7.403   4.346  10.589
 8396W        W12447   2.778   3.243   9.234
 8397W        W12448   6.208   2.859   0.425
 8398W        W12449   8.507   0.115   0.962
 8399W        W12450   2.156   0.423  11.315
 8400W        W12451   3.284   3.829   9.614
 8401W        W12452   6.410   3.342  10.613
 8402W        W12453   0.334   9.510   1.988
 8403W        W12454   0.928   5.976   1.654
 8404W        W12455   1.328   0.959   9.582
 8405W        W12456   1.351   5.059  10.711
 8406W        W12457   7.511   0.278   9.650
 8407W        W12458   3.741   8.483   8.699
 8408W        W12459   4.169  10.962   0.770
 8409W        W12460   9.223   1.278   0.668
 8410W        W12461   2.286   5.257   2.519
 8411W        W12462   2.707   8.030   3.181
 8412W        W12463   6.162   3.472  11.178
 8413W        W12464   4.171   0.995   9.120
 8414W        W12465   5.975   7.272   3.208
 8415W        W12466  10.571   5.976  11.808
 8416W        W12467   3.197  11.468   8.744
 8417W        W12468   7.490   8.568   1.828
 8418W        W12469   1.196  10.521   0.486
 8419W        W12470   6.558   9.589  11.534
 8420W        W12471   9.111   2.475   0.701
 8421W        W12472   3.108   0.671  11.030
 8422W        W12473   8.488   0.719   8.936
 8423W        W12474   1.588   7.633   2.295
 8424W        W12475  11.437   6.578  10.454
 8425W        W12476   7.675   1.819   1.988
 8426W        W12477   7.162   1.224  11.765
 8427W        W12478   4.693   2.842   3.582
 8428W        W12479   6.767   0.365   8.934
 8429W        W12480   2.740   7.404   9.809
 8430W        W12481   0.377   5.000  10.743
 8431W        W12482  10.842  11.386  10.532
 8432W        W12483   1.416   3.376   2.849
 8433W        W12484  10.849   0.852   9.545
 8434W        W12485   8.503   2.439   9.021
 8435W        W12486   1.359   6.215   1.977
 8436W        W12487   7.805   6.137   8.820
 8437W        W12488   9.952   7.212   1.910
 8438W        W12489   9.584   3.836   8.559
 8439W        W12490   6.422   2.031   4.012
 8440W        W12491   2.898   8.390  11.948
 8441W        W12492   9.434   1.708   3.501
 8442W        W12493  10.781  10.128   1.016
 8443W        W12494   3.175   6.624   2.552
 8444W        W12495   4.727  10.327   1.872
 8445W        W12496   3.193  10.077   9.835
 8446W        W12497   5.996  11.030   2.006
 8447W        W12498   3.160   0.300   0.997
 8448ION    NA+12499   2.216   0.071   1.862
 8449ION    NA+12500   3.676   7.569   1.158
 8450ION    NA+12501   9.652   3.921  11.233
 8451ION    NA+12502   3.065   8.785   1.593
 8452ION    NA+12503   9.434   4.638  10.571
 8453ION    NA+12504   2.255   6.601   2.153
 8454ION    NA+12505   4.832   3.781  11.761
 8455ION    NA+12506   7.517   1.276   3.662
 8456ION    NA+12507  11.382   8.376  10.337
 8457ION    NA+12508   6.010   8.182   2.318
 8458ION    NA+12509   9.590   8.370  11.849
 8459ION    NA+12510   9.447   6.077   0.200
 8460ION    NA+12511   3.380   5.695   1.673
 8461ION    NA+12512   9.360   0.988  11.662
 8462ION    NA+12513   5.267   4.973   2.079
 8463ION    NA+12514  11.421   5.189  10.605
 8464ION    NA+12515   7.373   3.510   2.173
 8465ION    NA+12516   7.939  10.485   9.316
 8466ION    NA+12517   0.098   7.259   8.702
 8467ION    NA+12518   9.417   6.458   9.549
 8468ION    NA+12519   2.093   8.187   9.708
 8469ION    NA+12520   7.729   2.109   8.758
 8470ION    NA+12521   8.078   2.565   3.834
 8471ION    NA+12522   8.806  10.973   9.418
 8472ION    NA+12523   5.225   6.349  11.270
 8473ION    NA+12524   0.421   7.584   9.479
 8474ION    NA+12525   9.348  10.680   1.016
 8475ION    NA+12526   3.772   4.037  10.171
 8476ION    NA+12527   9.404   7.722  11.352
 8477ION    NA+12528   3.941   2.181   1.740
 8478ION    NA+12529   4.797   0.915   2.165
 8479ION    NA+12530   1.259   5.059  11.818
 8480ION    NA+12531   0.955  11.166   9.041
 8481ION    NA+12532   8.758   8.379  11.786
 8482ION    NA+12533   0.870   4.056   3.037
 8483ION    NA+12534   7.064   1.366   2.713
 8484ION    NA+12535   5.134   2.102  11.933
 8485ION    NA+12536   4.169   0.697  10.361
 8486ION    NA+12537  10.583   0.134   1.459
 8487ION    NA+12538   5.360   7.528   2.477
 8488ION    NA+12539  11.171   0.513   2.675
 8489ION    NA+12540   4.213   3.956   0.577
 8490ION    NA+12541   6.025   9.473   2.499
 8491ION    NA+12542   3.194   2.329   0.430
 8492ION    NA+12543   1.464   2.058   8.740
 8493ION    NA+12544   3.078   8.882  11.868
 8494ION    NA+12545   4.183   1.758   2.613
 8495ION    NA+12546   8.553   6.836   9.881
 8496ION    NA+12547   7.531   9.556   0.959
 8497ION    NA+12548   7.410   0.866   0.064
 8498ION    NA+12549   1.815   4.144   1.294
 8499ION    NA+12550   7.964   6.384  10.593
 8500ION    NA+12551   3.104   5.838   2.623
 8501ION    NA+12552   5.390   1.567   2.203
 8502ION    NA+12553   0.270   4.398  11.708
 8503ION    NA+12554   3.069   8.323   0.856
 8504ION    NA+12555   7.136   1.682   1.693
 8505ION    NA+12556   3.024  10.934   7.964
 8506ION    NA+12557   8.209   1.102   2.929
 8507ION    NA+12558   4.059   8.456   0.901
 8508ION    NA+12559   9.199   0.066   0.936
 8509ION    NA+12560   3.526   2.031   3.622
 8510ION    NA+12561   5.382  10.054  11.447
 8511ION    NA+12562   8.062   5.037   3.223
 8512ION    NA+12563  11.439   7.909  11.988
 8513ION    NA+12564   9.318   0.774   9.880
 8514ION    NA+12565  11.471  11.060  11.999
 8515ION    NA+12566  10.998   6.495  10.167
 8516ION    NA+12567   5.775   2.804   9.517
 8517ION    NA+12568   6.643   9.187   8.798
 8518ION    NA+12569   1.013   5.101   1.234
 8519ION    NA+12570   7.586   0.278  11.275
 8520ION    NA+12571   0.433   0.416   9.153
 8521ION    NA+12572   2.395   7.781   8.533
 8522ION    NA+12573   8.995   3.295   0.430
 8523ION    NA+12574   9.625   1.524   2.433
 8524ION    NA+12575  10.481   7.822   9.800
 8525ION    NA+12576  10.487   4.147   0.726
 8526ION    NA+12577   7.385   8.735   8.919
 8527ION    NA+12578   0.597   1.516  11.488
 8528ION    NA+12579   9.773  10.097  11.132
 8529ION    NA+12580  10.370  11.059   0.250
 8530ION    NA+12581   9.531   1.510   9.238
 8531ION    NA+12582   0.059   1.871  10.727
 8532ION    NA+12583   8.848   4.477   2.714
 8533ION    NA+12584   1.828  11.198   0.430
 8534ION    NA+12585   2.680   3.423  10.364
 8535ION    NA+12586   8.493   0.202   9.826
 8536ION    NA+12587   4.873   3.382   8.557
 8537ION    CL-12588   2.871   4.639   2.890
 8538ION    CL-12589   4.584   3.112   8.327
 8539ION    CL-12590   0.331   2.320   3.551
 8540ION    CL-12591   1.211  11.342  11.526
 8541ION    CL-12592  10.022   4.088   3.544
 8542ION    CL-12593  11.116  11.416  10.957
 8543ION    CL-12594   5.824  10.072  11.383
 8544ION    CL-12595   9.145   3.787  10.379
 8545ION    CL-12596   9.564  10.501  11.188
 8546ION    CL-12597   0.090   0.579  10.321
 8547ION    CL-12598   2.822   5.149  11.746
 8548ION    CL-12599   5.040   1.296   2.098
 8549ION    CL-12600   3.518  10.663   3.571
 8550ION    CL-12601  11.146   4.150   1.535
 8551ION    CL-12602   1.505   7.657  11.357
 8552ION    CL-12603   0.362   1.542  10.859
 8553ION    CL-12604   6.399   9.321   2.308
 8554ION    CL-12605   0.363  10.398  10.929
 8555ION    CL-12606   4.579   3.960  10.381
 8556ION    CL-12607   6.394   9.319  10.095
 8557ION    CL-12608   0.718   0.058   9.138
 8558ION    CL-12609   2.644   2.206  10.851
 8559ION    CL-12610   7.855   1.670   8.707
 8560ION    CL-12611   9.542   1.837   2.119
 8561ION    CL-12612   9.052   1.214  11.433
 8562ION    CL-12613   0.865   8.780  11.544
 8563ION    CL-12614   8.300   0.716   2.722
 8564ION    CL-12615   9.384  10.794   3.611
 8565ION    CL-12616  11.488   0.818   2.718
 8566ION    CL-12617   8.282   4.615  11.494
 8567ION    CL-12618   2.529   9.879   9.483
 8568ION    CL-12619   8.610   3.074   0.385
 8569ION    CL-12620   9.365   2.903   9.948
 8570ION    CL-12621   5.032   7.306   2.733
 8571ION    CL-12622   9.166   8.561  11.936
 8572ION    CL-12623   8.488   8.163  11.488
 8573ION    CL-12624   6.051   7.421   0.225
 8574ION    CL-12625  10.497   2.229   3.125
 8575ION    CL-12626  11.253   9.470   0.728
 8576ION    CL-12627   1.918   5.145   4.171
 8577ION    CL-12628   0.524   1.834  11.801
 8578ION    CL-12629   8.618  11.289   9.683
 8579ION    CL-12630   1.930  10.118   3.360
 8580ION    CL-12631   8.560   2.123  10.971
 8581ION    CL-12632  11.439   1.405   0.506
 8582ION    CL-12633   2.763  10.976   3.097
 8583ION    CL-12634   8.077   7.923  10.437
 8584ION    CL-12635  10.059   9.811  10.922
 8585ION    CL-12636   4.001  11.409   8.464
 8586ION    CL-12637   0.335   6.729   1.612
 8587ION    CL-12638   5.687   7.866   2.387
 8588ION    CL-12639   7.422   7.150   1.846
 8589ION    CL-12640   1.376   2.204   9.158
 8590ION    CL-12641   9.702   3.483  11.151
 8591ION    CL-12642   5.861  10.420  10.004
 8592ION    CL-12643   2.022  11.059   8.730
 8593ION    CL-12644   4.083   4.058   0.994
 8594ION    CL-12645   0.451  10.558   1.040
 8595ION    CL-12646   3.105   8.449   1.293
 8596ION    CL-12647   9.280  11.123   0.963
 8597ION    CL-12648  10.321   4.113   2.100
 8598ION    CL-12649  10.834   1.196  10.538
 8599ION    CL-12650   4.708   7.882   1.727
 8600ION    CL-12651   5.663   3.228  11.304
 8601ION    CL-12652  10.547   7.001   0.533
 8602ION    CL-12653   2.783   3.847  10.454
 8603ION    CL-12654   4.875   1.281   8.889
 8604ION    CL-12655   0.250   7.754   8.199
 8605ION    CL-12656   6.939   9.302  11.285
 8606ION    CL-12657  10.057   8.483   9.795
 8607ION    CL-12658   5.946   7.059   9.871
 8608ION    CL-12659   4.192   0.591   9.925
 8609ION    CL-12660   9.692   7.990  11.585
 8610ION    CL-12661   0.295   7.352   9.114
 8611ION    CL-12662   8.085   7.347   2.761
 8612ION    CL-12663   1.678   6.517   9.414
 8613ION    CL-12664   6.945   8.843   8.824
 8614ION    CL-12665   2.137  10.888   0.342
 8615ION    CL-12666   9.282   4.466   2.600
 8616ION    CL-12667   5.512   6.027  11.156
 8617ION    CL-12668   4.845   5.226  10.835
 8618ION    CL-12669   7.064   0.672   0.271
 8619ION    CL-12670   0.599   8.079   3.155
 8620ION    CL-12671  11.184   2.126  10.655
 8621ION    CL-12672   4.223   9.622   0.471
 8622ION    CL-12673   0.976  10.072   9.124
 8623ION    CL-12674   6.524   4.456  11.884
 8624ION    CL-12675   0.480   8.604   1.463
 8625ION    CL-12676   6.775   7.570  10.103
  11.50000  11.50000  12.00000
