Protein in INSANE! Membrane UpperLeaflet>POPC=1.0 LowerLeaflet>POPC=1.0
11125
    1AU     AUC    1   5.248   5.304   6.007
    1AU     AUC    2   5.531   5.313   5.836
    1AU     AUC    3   5.525   5.293   6.183
    1AU     AUC    4   4.963   5.295   5.839
    1AU     AUC    5   4.976   5.336   6.191
    1AU     AUC    6   5.071   5.583   6.002
    1AU     AUC    7   5.437   5.578   6.002
    1AU     AUC    8   5.061   5.037   6.011
    1AU     AUC    9   5.412   5.013   6.003
    1AU     AUC   10   5.250   5.131   6.282
    1AU     AUC   11   5.240   5.480   6.275
    1AU     AUC   12   5.248   5.138   5.727
    1AU     AUC   13   5.266   5.460   5.729
    1AU     AUC   14   5.845   5.320   5.667
    1AU     AUC   15   5.859   5.266   6.028
    1AU     AUC   16   5.799   5.265   6.360
    1AU     AUC   17   4.659   5.286   5.668
    1AU     AUC   18   4.638   5.322   6.035
    1AU     AUC   19   4.685   5.362   6.375
    1AU     AUC   20   4.899   5.889   5.971
    1AU     AUC   21   5.253   5.901   5.957
    1AU     AUC   22   5.624   5.860   5.995
    1AU     AUC   23   4.862   4.760   6.014
    1AU     AUC   24   5.211   4.703   5.997
    1AU     AUC   25   5.573   4.708   5.983
    1AU     AUC   26   5.230   4.956   6.574
    1AU     AUC   27   5.262   5.335   6.617
    1AU     AUC   28   5.254   5.672   6.559
    1AU     AUC   29   5.274   4.968   5.449
    1AU     AUC   30   5.269   5.298   5.393
    1AU     AUC   31   5.251   5.613   5.436
    1AU     AUC   32   5.517   5.106   6.497
    1AU     AUC   33   5.554   5.476   6.495
    1AU     AUC   34   5.585   5.162   5.501
    1AU     AUC   35   5.582   5.490   5.546
    1AU     AUC   36   4.944   5.176   6.521
    1AU     AUC   37   4.958   5.546   6.486
    1AU     AUC   38   4.950   5.117   5.542
    1AU     AUC   39   4.925   5.428   5.498
    1AU     AUC   40   5.780   5.585   5.866
    1AU     AUC   41   5.742   5.581   6.208
    1AU     AUC   42   4.749   5.593   5.829
    1AU     AUC   43   4.767   5.651   6.183
    1AU     AUC   44   5.719   4.994   5.822
    1AU     AUC   45   5.693   4.948   6.184
    1AU     AUC   46   4.726   4.999   5.862
    1AU     AUC   47   4.780   5.048   6.222
    1AU     AUC   48   5.074   5.844   6.264
    1AU     AUC   49   5.434   5.786   6.260
    1AU     AUC   50   5.054   4.828   6.309
    1AU     AUC   51   5.374   4.782   6.280
    1AU     AUC   52   5.063   5.734   5.688
    1AU     AUC   53   5.452   5.779   5.702
    1AU     AUC   54   5.051   4.833   5.710
    1AU     AUC   55   5.444   4.846   5.701
    1AU    AUSL   56   5.776   5.230   6.700
    1AU    AUSL   57   5.500   4.808   6.653
    1AU     AUL   58   5.812   4.819   6.839
    1AU       S   59   5.892   4.435   6.608
    1AU     LIG   60   5.797   4.307   6.993
    1AU     LIG   61   5.996   3.973   7.217
    1AU     LIG   62   6.245   3.633   7.413
    1AU     LIG   63   6.442   3.470   7.797
    1AU       S   64   6.052   5.202   6.783
    1AU     LIG   65   6.015   5.115   7.243
    1AU     LIG   66   6.168   5.060   7.695
    1AU     LIG   67   6.516   5.079   8.038
    1AU     LIG   68   6.900   5.165   8.321
    1AU    AUSL   69   5.384   5.141   6.896
    1AU    AUSL   70   5.103   5.503   6.902
    1AU     AUL   71   5.290   5.439   7.232
    1AU       S   72   5.539   5.089   7.073
    1AU     LIG   73   5.425   4.986   7.464
    1AU     LIG   74   5.652   4.819   7.830
    1AU     LIG   75   5.745   4.603   8.240
    1AU     LIG   76   5.901   4.659   8.675
    1AU       S   77   4.892   5.235   7.133
    1AU     LIG   78   4.971   5.234   7.598
    1AU     LIG   79   4.712   5.183   7.975
    1AU     LIG   80   4.542   5.214   8.410
    1AU     LIG   81   4.555   5.432   8.832
    1AU    AUSL   82   5.513   5.561   6.846
    1AU    AUSL   83   5.874   5.637   6.595
    1AU     AUL   84   5.791   5.506   6.993
    1AU       S   85   5.390   5.867   6.989
    1AU     LIG   86   5.633   5.808   7.376
    1AU     LIG   87   5.725   5.895   7.848
    1AU     LIG   88   5.761   5.937   8.336
    1AU     LIG   89   5.784   5.907   8.818
    1AU       S   90   5.945   5.893   6.791
    1AU     LIG   91   6.327   5.707   6.842
    1AU     LIG   92   6.647   5.858   7.156
    1AU     LIG   93   6.926   6.128   7.433
    1AU     LIG   94   7.205   6.388   7.711
    1AU    AUSL   95   5.809   5.450   5.282
    1AU    AUSL   96   5.593   5.781   5.481
    1AU     AUL   97   5.714   5.821   5.148
    1AU       S   98   5.781   5.502   4.828
    1AU     LIG   99   6.149   5.333   4.640
    1AU     LIG  100   6.231   5.038   4.307
    1AU     LIG  101   6.275   4.961   3.851
    1AU     LIG  102   6.494   5.060   3.447
    1AU       S  103   6.052   6.009   5.389
    1AU     LIG  104   6.034   6.202   4.973
    1AU     LIG  105   6.215   6.360   4.552
    1AU     LIG  106   6.482   6.652   4.293
    1AU     LIG  107   6.732   6.936   4.019
    1AU    AUSL  108   5.576   5.127   5.113
    1AU    AUSL  109   5.918   5.061   5.420
    1AU     AUL  110   6.000   5.208   5.130
    1AU       S  111   6.029   4.745   5.172
    1AU     LIG  112   6.201   4.436   4.843
    1AU     LIG  113   6.475   4.058   4.718
    1AU     LIG  114   6.743   3.764   4.450
    1AU     LIG  115   7.146   3.726   4.188
    1AU       S  116   5.674   5.354   4.824
    1AU     LIG  117   5.776   4.971   4.618
    1AU     LIG  118   5.815   4.756   4.189
    1AU     LIG  119   5.816   4.782   3.711
    1AU     LIG  120   6.052   4.831   3.301
    1AU    AUSL  121   5.384   5.494   5.237
    1AU    AUSL  122   5.159   5.100   5.220
    1AU     AUL  123   5.307   5.118   4.946
    1AU       S  124   4.856   5.131   4.799
    1AU     LIG  125   4.925   4.809   4.520
    1AU     LIG  126   4.719   4.647   4.130
    1AU     LIG  127   4.507   4.679   3.701
    1AU     LIG  128   4.587   4.758   3.246
    1AU       S  129   5.447   5.561   4.862
    1AU     LIG  130   5.522   5.384   4.370
    1AU     LIG  131   5.835   5.242   4.023
    1AU     LIG  132   5.964   5.268   3.564
    1AU     LIG  133   5.930   5.468   3.137
    1AU    AUSL  134   4.710   5.433   6.739
    1AU    AUSL  135   5.003   5.793   6.613
    1AU     AUL  136   4.864   5.736   6.954
    1AU       S  137   4.711   5.349   7.183
    1AU     LIG  138   4.509   5.030   7.437
    1AU     LIG  139   4.278   4.937   7.847
    1AU     LIG  140   4.117   4.939   8.294
    1AU     LIG  141   3.768   5.079   8.584
    1AU       S  142   4.575   6.037   6.707
    1AU     LIG  143   4.669   6.198   7.114
    1AU     LIG  144   4.528   6.471   7.472
    1AU     LIG  145   4.221   6.737   7.713
    1AU     LIG  146   4.011   6.888   8.113
    1AU    AUSL  147   5.024   5.152   6.669
    1AU    AUSL  148   4.608   5.014   6.642
    1AU     AUL  149   4.511   5.240   6.783
    1AU       S  150   4.508   4.788   6.907
    1AU     LIG  151   4.074   4.668   6.711
    1AU     LIG  152   3.856   4.263   6.800
    1AU     LIG  153   3.657   3.933   7.060
    1AU     LIG  154   3.425   3.726   7.404
    1AU       S  155   4.917   5.099   7.053
    1AU     LIG  156   4.958   4.778   7.384
    1AU     LIG  157   4.746   4.700   7.778
    1AU     LIG  158   4.587   4.722   8.212
    1AU     LIG  159   4.444   4.556   8.619
    1AU    AUSL  160   4.747   5.201   5.273
    1AU    AUSL  161   4.930   4.832   5.451
    1AU     AUL  162   4.971   4.817   5.117
    1AU       S  163   4.646   5.105   4.939
    1AU     LIG  164   4.423   4.890   4.598
    1AU     LIG  165   4.296   4.936   4.139
    1AU     LIG  166   4.030   4.917   3.744
    1AU     LIG  167   3.592   5.051   3.601
    1AU       S  168   4.547   4.724   5.262
    1AU     LIG  169   4.548   4.387   5.004
    1AU     LIG  170   4.202   4.101   4.895
    1AU     LIG  171   3.863   3.925   4.627
    1AU     LIG  172   3.690   3.713   4.241
    1AU    AUSL  173   5.004   5.496   5.068
    1AU    AUSL  174   4.534   5.542   5.421
    1AU     AUL  175   4.651   5.539   5.093
    1AU       S  176   4.242   5.721   5.246
    1AU     LIG  177   4.011   5.995   4.938
    1AU     LIG  178   3.950   6.247   4.551
    1AU     LIG  179   3.643   6.441   4.256
    1AU     LIG  180   3.171   6.512   4.190
    1AU       S  181   4.936   5.362   4.763
    1AU     LIG  182   4.706   5.249   4.340
    1AU     LIG  183   4.714   5.122   3.892
    1AU     LIG  184   4.638   5.228   3.445
    1AU     LIG  185   4.774   5.467   3.056
    1AU    AUSL  186   5.975   5.733   6.056
    1AU    AUSL  187   5.961   5.615   5.639
    1AU     AUL  188   6.237   5.907   5.890
    1AU       S  189   6.105   5.765   5.467
    1AU     LIG  190   6.214   5.700   5.030
    1AU     LIG  191   6.489   5.997   4.795
    1AU     LIG  192   6.760   6.281   4.526
    1AU     LIG  193   7.020   6.565   4.249
    1AU       S  194   6.473   5.609   6.191
    1AU     LIG  195   6.858   5.854   6.100
    1AU     LIG  196   7.297   6.055   6.090
    1AU     LIG  197   7.506   6.500   6.071
    1AU     LIG  198   7.764   6.766   6.366
    1AU    AUSL  199   6.206   5.378   5.889
    1AU    AUSL  200   6.166   5.020   6.178
    1AU     AUL  201   6.517   5.096   6.104
    1AU       S  202   6.352   5.471   5.933
    1AU     LIG  203   6.816   5.406   5.855
    1AU     LIG  204   7.257   5.567   5.885
    1AU     LIG  205   7.670   5.743   5.799
    1AU     LIG  206   8.067   5.553   5.594
    1AU       S  207   6.390   4.637   6.139
    1AU     LIG  208   6.862   4.614   6.121
    1AU     LIG  209   7.284   4.452   6.208
    1AU     LIG  210   7.697   4.339   6.322
    1AU     LIG  211   8.096   4.494   6.484
    1AU    AUSL  212   5.995   5.384   6.289
    1AU    AUSL  213   5.814   6.000   6.340
    1AU     AUL  214   6.102   5.818   6.361
    1AU       S  215   6.002   6.175   6.659
    1AU     LIG  216   6.379   6.239   6.928
    1AU     LIG  217   6.703   6.521   7.158
    1AU     LIG  218   6.858   6.973   7.270
    1AU     LIG  219   6.909   7.473   7.255
    1AU       S  220   6.303   5.413   6.387
    1AU     LIG  221   6.737   5.441   6.567
    1AU     LIG  222   7.166   5.552   6.391
    1AU     LIG  223   7.597   5.733   6.391
    1AU     LIG  224   8.022   5.875   6.564
    1AU    AUSL  225   4.575   5.867   6.012
    1AU    AUSL  226   4.643   5.675   6.406
    1AU     AUL  227   4.332   5.968   6.242
    1AU       S  228   4.495   5.828   6.650
    1AU     LIG  229   4.365   5.771   7.081
    1AU     LIG  230   4.169   6.130   7.326
    1AU     LIG  231   3.872   6.379   7.602
    1AU     LIG  232   3.583   6.467   7.975
    1AU       S  233   4.570   6.251   5.933
    1AU     LIG  234   4.105   6.198   5.821
    1AU     LIG  235   3.626   6.291   5.814
    1AU     LIG  236   3.190   6.499   5.877
    1AU     LIG  237   2.779   6.665   6.061
    1AU    AUSL  238   4.540   5.474   5.829
    1AU    AUSL  239   4.657   5.918   5.603
    1AU     AUL  240   4.353   5.787   5.701
    1AU       S  241   4.159   5.285   5.490
    1AU     LIG  242   3.843   5.655   5.592
    1AU     LIG  243   3.397   5.839   5.687
    1AU     LIG  244   3.079   6.147   5.504
    1AU     LIG  245   2.601   6.192   5.491
    1AU       S  246   4.487   6.166   5.438
    1AU     LIG  247   4.243   6.421   5.139
    1AU     LIG  248   4.198   6.656   4.740
    1AU     LIG  249   3.951   7.011   4.562
    1AU     LIG  250   3.619   7.304   4.718
    1AU    AUSL  251   4.321   5.511   6.205
    1AU    AUSL  252   4.299   5.143   5.914
    1AU     AUL  253   4.142   5.457   5.932
    1AU       S  254   4.096   5.058   6.192
    1AU     LIG  255   3.772   5.118   5.879
    1AU     LIG  256   3.392   4.886   5.737
    1AU     LIG  257   2.973   4.685   5.742
    1AU     LIG  258   2.563   4.825   5.632
    1AU       S  259   4.171   5.537   6.427
    1AU     LIG  260   3.745   5.504   6.245
    1AU     LIG  261   3.310   5.675   6.361
    1AU     LIG  262   2.897   5.921   6.419
    1AU     LIG  263   2.504   6.224   6.355
    1AU    AUSL  264   5.915   4.706   6.027
    1AU    AUSL  265   5.795   4.961   6.379
    1AU     AUL  266   6.100   4.860   6.427
    1AU       S  267   6.123   4.541   5.996
    1AU     LIG  268   6.524   4.211   5.905
    1AU     LIG  269   6.994   4.113   5.947
    1AU     LIG  270   7.444   3.941   6.059
    1AU     LIG  271   7.791   3.840   6.364
    1AU       S  272   6.009   4.416   6.455
    1AU     LIG  273   6.287   4.219   6.823
    1AU     LIG  274   6.522   4.008   7.177
    1AU     LIG  275   6.745   3.798   7.530
    1AU     LIG  276   7.027   3.827   7.915
    1AU    AUSL  277   5.912   5.090   5.835
    1AU    AUSL  278   5.849   4.676   5.611
    1AU     AUL  279   6.132   4.906   5.653
    1AU       S  280   6.386   4.672   5.929
    1AU     LIG  281   6.723   4.620   5.631
    1AU     LIG  282   7.173   4.525   5.691
    1AU     LIG  283   7.586   4.362   5.794
    1AU     LIG  284   7.977   4.302   5.582
    1AU       S  285   6.044   4.547   5.341
    1AU     LIG  286   6.178   4.100   5.235
    1AU     LIG  287   6.337   3.687   5.046
    1AU     LIG  288   6.567   3.375   4.776
    1AU     LIG  289   6.737   2.931   4.742
    1AU    AUSL  290   4.504   4.786   6.063
    1AU    AUSL  291   4.593   5.037   5.633
    1AU     AUL  292   4.249   4.853   5.780
    1AU       S  293   4.422   4.869   5.349
    1AU     LIG  294   4.070   4.566   5.146
    1AU     LIG  295   3.712   4.255   5.010
    1AU     LIG  296   3.361   4.043   4.754
    1AU     LIG  297   3.016   4.120   4.435
    1AU       S  298   4.081   4.827   6.222
    1AU     LIG  299   3.733   4.631   6.039
    1AU     LIG  300   3.286   4.532   6.124
    1AU     LIG  301   2.910   4.388   6.369
    1AU     LIG  302   2.555   4.049   6.333
    1AU    AUSL  303   4.561   5.170   6.259
    1AU    AUSL  304   4.825   4.802   6.342
    1AU     AUL  305   4.495   4.754   6.408
    1AU       S  306   4.536   4.571   6.830
    1AU     LIG  307   4.362   4.152   6.707
    1AU     LIG  308   4.044   3.761   6.749
    1AU     LIG  309   3.722   3.425   6.932
    1AU     LIG  310   3.277   3.338   7.094
    1AU       S  311   4.159   5.069   6.374
    1AU     LIG  312   3.643   5.015   6.385
    1AU     LIG  313   3.213   5.032   6.199
    1AU     LIG  314   2.767   4.899   6.172
    1AU     LIG  315   2.446   4.668   6.438
    1AU    AUSL  316   5.235   6.119   6.467
    1AU    AUSL  317   4.827   6.047   6.307
    1AU     AUL  318   5.030   6.131   6.707
    1AU       S  319   4.676   6.255   6.424
    1AU     LIG  320   4.389   6.487   6.785
    1AU     LIG  321   4.139   6.651   7.182
    1AU     LIG  322   3.928   7.043   7.393
    1AU     LIG  323   3.705   7.491   7.393
    1AU       S  324   5.274   6.455   6.428
    1AU     LIG  325   5.368   6.509   6.838
    1AU     LIG  326   5.476   6.923   7.002
    1AU     LIG  327   5.625   7.348   7.124
    1AU     LIG  328   5.638   7.703   7.433
    1AU    AUSL  329   5.092   6.248   6.049
    1AU    AUSL  330   5.407   6.161   5.713
    1AU     AUL  331   5.323   6.509   5.822
    1AU       S  332   5.115   6.518   6.243
    1AU     LIG  333   5.302   6.938   6.495
    1AU     LIG  334   5.336   7.382   6.681
    1AU     LIG  335   5.141   7.833   6.687
    1AU     LIG  336   4.846   8.168   6.872
    1AU       S  337   5.158   6.407   5.408
    1AU     LIG  338   5.464   6.794   5.416
    1AU     LIG  339   5.685   7.243   5.323
    1AU     LIG  340   5.994   7.660   5.313
    1AU     LIG  341   6.183   8.118   5.265
    1AU    AUSL  342   5.465   6.032   6.115
    1AU    AUSL  343   5.476   5.779   6.501
    1AU     AUL  344   5.548   6.106   6.558
    1AU       S  345   5.832   6.005   6.902
    1AU     LIG  346   6.119   5.948   7.264
    1AU     LIG  347   6.420   6.222   7.473
    1AU     LIG  348   6.700   6.526   7.701
    1AU     LIG  349   6.748   6.776   8.100
    1AU       S  350   5.542   6.390   6.200
    1AU     LIG  351   5.746   6.651   6.523
    1AU     LIG  352   5.793   7.116   6.648
    1AU     LIG  353   5.834   7.581   6.714
    1AU     LIG  354   5.851   8.026   6.797
    1AU    AUSL  355   5.195   4.584   6.446
    1AU    AUSL  356   5.602   4.590   6.285
    1AU     AUL  357   5.431   4.481   6.672
    1AU       S  358   5.188   4.120   6.495
    1AU     LIG  359   4.873   3.975   6.802
    1AU     LIG  360   4.818   3.512   6.894
    1AU     LIG  361   4.874   3.038   6.929
    1AU     LIG  362   4.710   2.635   7.153
    1AU       S  363   5.756   4.358   6.333
    1AU     LIG  364   5.900   3.939   6.621
    1AU     LIG  365   6.257   3.681   6.878
    1AU     LIG  366   6.636   3.459   7.124
    1AU     LIG  367   6.871   3.012   7.127
    1AU    AUSL  368   4.872   4.433   6.160
    1AU    AUSL  369   4.977   4.752   6.757
    1AU     AUL  370   4.864   4.465   6.522
    1AU       S  371   4.974   4.057   6.316
    1AU     LIG  372   4.766   3.654   6.393
    1AU     LIG  373   4.612   3.208   6.503
    1AU     LIG  374   4.490   2.781   6.689
    1AU     LIG  375   4.587   2.325   6.748
    1AU       S  376   4.778   4.643   6.954
    1AU     LIG  377   4.594   4.240   7.179
    1AU     LIG  378   4.179   4.002   7.181
    1AU     LIG  379   3.948   3.634   7.371
    1AU     LIG  380   3.964   3.389   7.777
    1AU    AUSL  381   5.301   4.358   6.100
    1AU    AUSL  382   5.069   4.605   5.821
    1AU     AUL  383   4.950   4.261   5.898
    1AU       S  384   5.331   4.147   5.679
    1AU     LIG  385   5.013   3.765   5.793
    1AU     LIG  386   4.786   3.313   5.694
    1AU     LIG  387   4.745   2.850   5.500
    1AU     LIG  388   4.618   2.468   5.245
    1AU       S  389   5.304   4.145   6.223
    1AU     LIG  390   5.274   3.668   6.232
    1AU     LIG  391   5.138   3.303   6.510
    1AU     LIG  392   5.332   2.900   6.668
    1AU     LIG  393   5.743   2.647   6.670
    1AU    AUSL  394   5.232   5.948   5.354
    1AU    AUSL  395   5.791   6.005   5.789
    1AU     AUL  396   5.581   6.153   5.450
    1AU       S  397   5.180   6.268   5.228
    1AU     LIG  398   5.549   6.458   5.037
    1AU     LIG  399   5.582   6.915   4.915
    1AU     LIG  400   5.502   7.297   4.644
    1AU     LIG  401   5.550   7.580   4.257
    1AU       S  402   6.029   6.154   5.563
    1AU     LIG  403   6.421   6.315   5.308
    1AU     LIG  404   6.541   6.524   4.917
    1AU     LIG  405   6.821   6.810   4.662
    1AU     LIG  406   7.135   7.178   4.662
    1AU    AUSL  407   5.038   5.960   5.752
    1AU    AUSL  408   4.959   5.637   5.456
    1AU     AUL  409   4.885   5.927   5.319
    1AU       S  410   4.957   6.309   5.583
    1AU     LIG  411   4.966   6.815   5.588
    1AU     LIG  412   5.140   7.205   5.358
    1AU     LIG  413   5.027   7.670   5.284
    1AU     LIG  414   4.783   8.027   5.082
    1AU       S  415   4.446   5.954   5.189
    1AU     LIG  416   4.490   6.141   4.777
    1AU     LIG  417   4.418   6.362   4.375
    1AU     LIG  418   4.135   6.690   4.200
    1AU     LIG  419   4.152   7.153   4.058
    1AU    AUSL  420   5.253   4.555   5.431
    1AU    AUSL  421   4.665   4.608   5.714
    1AU     AUL  422   4.919   4.454   5.469
    1AU       S  423   4.468   4.578   5.473
    1AU     LIG  424   4.285   4.176   5.416
    1AU     LIG  425   3.935   3.885   5.286
    1AU     LIG  426   3.630   3.647   5.005
    1AU     LIG  427   3.470   3.195   4.871
    1AU       S  428   5.294   4.154   5.502
    1AU     LIG  429   5.193   3.709   5.319
    1AU     LIG  430   4.976   3.263   5.211
    1AU     LIG  431   4.825   2.865   4.965
    1AU     LIG  432   4.739   2.594   4.563
    1AU    AUSL  433   5.497   4.578   5.805
    1AU    AUSL  434   5.510   4.885   5.446
    1AU     AUL  435   5.584   4.512   5.423
    1AU       S  436   5.595   4.203   5.772
    1AU     LIG  437   5.525   3.705   5.759
    1AU     LIG  438   5.297   3.303   5.628
    1AU     LIG  439   5.253   2.858   5.431
    1AU     LIG  440   5.396   2.391   5.435
    1AU       S  441   5.802   4.721   5.083
    1AU     LIG  442   5.740   4.271   5.004
    1AU     LIG  443   5.971   3.933   4.772
    1AU     LIG  444   6.226   3.658   4.480
    1AU     LIG  445   6.424   3.566   4.058
    2POPC   NC3  446  10.035   5.944   8.100
    2POPC   PO4  447  10.429   5.420   8.010
    2POPC   GL1  448  10.245   5.530   7.677
    2POPC   GL2  449  10.269   5.851   7.668
    2POPC   C1A  450  10.158   5.350   7.288
    2POPC   D2A  451  10.334   5.403   6.890
    2POPC   C3A  452  10.132   5.408   6.468
    2POPC   C4A  453  10.130   5.382   5.972
    2POPC   C1B  454  10.207   5.917   7.281
    2POPC   C2B  455  10.295   5.963   6.905
    2POPC   C3B  456  10.034   5.904   6.598
    2POPC   C4B  457  10.185   5.827   6.207
    3POPC   NC3  458   0.476   9.290   8.331
    3POPC   PO4  459   0.672   9.655   7.855
    3POPC   GL1  460   0.501   9.473   7.503
    3POPC   GL2  461   0.367   9.178   7.600
    3POPC   C1A  462   0.220   9.556   7.208
    3POPC   D2A  463   0.364   9.670   6.829
    3POPC   C3A  464   0.083   9.665   6.522
    3POPC   C4A  465   0.264   9.712   6.150
    3POPC   C1B  466   0.284   9.034   7.177
    3POPC   C2B  467   0.558   9.112   6.807
    3POPC   C3B  468   0.448   9.319   6.421
    3POPC   C4B  469   0.502   9.308   5.929
    4POPC   NC3  470   9.454   7.326   8.230
    4POPC   PO4  471   9.055   6.803   8.123
    4POPC   GL1  472   9.250   7.080   7.818
    4POPC   GL2  473   9.604   7.014   7.804
    4POPC   C1A  474   9.191   7.076   7.377
    4POPC   D2A  475   9.153   6.897   6.961
    4POPC   C3A  476   9.191   7.158   6.580
    4POPC   C4A  477   9.213   7.128   6.146
    4POPC   C1B  478   9.716   7.180   7.405
    4POPC   C2B  479   9.753   7.044   7.001
    4POPC   C3B  480   9.878   7.202   6.618
    4POPC   C4B  481   9.636   7.406   6.302
    5POPC   NC3  482   5.930   8.593   7.916
    5POPC   PO4  483   5.774   9.245   8.007
    5POPC   GL1  484   6.027   9.046   7.702
    5POPC   GL2  485   5.688   8.983   7.540
    5POPC   C1A  486   6.125   8.967   7.255
    5POPC   D2A  487   5.802   9.206   6.994
    5POPC   C3A  488   5.725   9.089   6.550
    5POPC   C4A  489   5.681   8.730   6.292
    5POPC   C1B  490   5.722   8.671   7.202
    5POPC   C2B  491   5.574   8.541   6.787
    5POPC   C3B  492   5.562   8.245   6.430
    5POPC   C4B  493   5.705   8.266   5.998
    6POPC   NC3  494   6.431   1.963   8.120
    6POPC   PO4  495   6.037   2.427   8.007
    6POPC   GL1  496   6.369   2.155   7.647
    6POPC   GL2  497   6.485   1.787   7.626
    6POPC   C1A  498   6.491   2.034   7.161
    6POPC   D2A  499   6.277   2.267   6.786
    6POPC   C3A  500   6.509   2.340   6.378
    6POPC   C4A  501   6.378   2.239   5.926
    6POPC   C1B  502   6.662   1.468   7.308
    6POPC   C2B  503   6.731   1.597   6.878
    6POPC   C3B  504   6.573   1.888   6.639
    6POPC   C4B  505   6.384   1.858   6.266
    7POPC   NC3  506   9.034   5.907   8.067
    7POPC   PO4  507   8.856   5.295   8.178
    7POPC   GL1  508   8.855   5.352   7.741
    7POPC   GL2  509   8.560   5.478   7.645
    7POPC   C1A  510   8.976   5.493   7.312
    7POPC   D2A  511   9.065   5.635   6.863
    7POPC   C3A  512   8.958   5.480   6.427
    7POPC   C4A  513   8.911   5.664   6.030
    7POPC   C1B  514   8.489   5.612   7.197
    7POPC   C2B  515   8.558   5.493   6.755
    7POPC   C3B  516   8.464   5.613   6.316
    7POPC   C4B  517   8.079   5.652   6.090
    8POPC   NC3  518   3.724   9.696   8.070
    8POPC   PO4  519   3.069   9.730   8.188
    8POPC   GL1  520   3.267   9.693   7.780
    8POPC   GL2  521   3.403   9.352   7.813
    8POPC   C1A  522   3.364   9.762   7.326
    8POPC   D2A  523   3.181   9.711   6.890
    8POPC   C3A  524   3.481   9.575   6.574
    8POPC   C4A  525   3.468   9.432   6.133
    8POPC   C1B  526   3.437   9.203   7.403
    8POPC   C2B  527   3.425   9.244   6.969
    8POPC   C3B  528   3.546   9.048   6.551
    8POPC   C4B  529   3.750   8.950   6.161
    9POPC   NC3  530   2.595   7.868   8.414
    9POPC   PO4  531   3.042   8.226   8.100
    9POPC   GL1  532   2.678   7.979   7.880
    9POPC   GL2  533   2.440   8.184   7.717
    9POPC   C1A  534   2.579   7.793   7.420
    9POPC   D2A  535   2.846   7.684   7.041
    9POPC   C3A  536   2.680   7.702   6.613
    9POPC   C4A  537   2.500   7.535   6.244
    9POPC   C1B  538   2.874   8.215   7.459
    9POPC   C2B  539   3.005   8.170   7.034
    9POPC   C3B  540   2.998   8.097   6.566
    9POPC   C4B  541   2.789   7.972   6.159
   10POPC   NC3  542   8.628   6.776   8.352
   10POPC   PO4  543   8.520   7.485   8.334
   10POPC   GL1  544   8.765   7.377   7.889
   10POPC   GL2  545   8.757   7.050   7.697
   10POPC   C1A  546   8.760   7.488   7.373
   10POPC   D2A  547   8.577   7.724   6.962
   10POPC   C3A  548   8.441   7.530   6.518
   10POPC   C4A  549   8.431   7.522   6.031
   10POPC   C1B  550   8.709   7.012   7.227
   10POPC   C2B  551   8.725   7.172   6.793
   10POPC   C3B  552   8.715   7.038   6.340
   10POPC   C4B  553   8.783   7.176   5.891
   11POPC   NC3  554   6.110   9.072   8.261
   11POPC   PO4  555   6.273   8.389   8.145
   11POPC   GL1  556   6.436   8.573   7.742
   11POPC   GL2  557   6.684   8.832   7.718
   11POPC   C1A  558   6.527   8.610   7.272
   11POPC   D2A  559   6.694   8.443   6.899
   11POPC   C3A  560   6.493   8.538   6.508
   11POPC   C4A  561   6.419   8.524   6.072
   11POPC   C1B  562   6.643   9.082   7.331
   11POPC   C2B  563   6.555   9.021   6.918
   11POPC   C3B  564   6.631   9.020   6.493
   11POPC   C4B  565   6.192   8.950   6.263
   12POPC   NC3  566   5.028   1.169   8.087
   12POPC   PO4  567   5.248   1.819   8.094
   12POPC   GL1  568   4.895   1.590   7.793
   12POPC   GL2  569   4.928   1.273   7.618
   12POPC   C1A  570   4.697   1.577   7.320
   12POPC   D2A  571   4.947   1.508   6.909
   12POPC   C3A  572   4.776   1.490   6.491
   12POPC   C4A  573   4.822   1.428   6.021
   12POPC   C1B  574   4.917   1.092   7.223
   12POPC   C2B  575   4.854   1.040   6.786
   12POPC   C3B  576   5.016   1.060   6.359
   12POPC   C4B  577   4.609   0.983   6.165
   13POPC   NC3  578   0.211   9.539   7.906
   13POPC   PO4  579  10.001   9.437   8.067
   13POPC   GL1  580  10.221   9.569   7.731
   13POPC   GL2  581  10.347   9.226   7.666
   13POPC   C1A  582  10.150   9.827   7.361
   13POPC   D2A  583  10.312   9.770   6.947
   13POPC   C3A  584  10.104   9.875   6.559
   13POPC   C4A  585  10.218   9.675   6.161
   13POPC   C1B  586  10.269   9.312   7.255
   13POPC   C2B  587  10.429   9.257   6.841
   13POPC   C3B  588  10.112   9.353   6.553
   13POPC   C4B  589   9.989   9.218   6.154
   14POPC   NC3  590   1.413   5.573   7.911
   14POPC   PO4  591   0.899   5.553   8.210
   14POPC   GL1  592   0.985   5.646   7.703
   14POPC   GL2  593   1.242   5.386   7.487
   14POPC   C1A  594   1.104   5.844   7.315
   14POPC   D2A  595   1.231   5.630   6.893
   14POPC   C3A  596   1.092   5.850   6.492
   14POPC   C4A  597   1.137   5.665   6.095
   14POPC   C1B  598   0.865   5.392   7.237
   14POPC   C2B  599   0.794   5.355   6.803
   14POPC   C3B  600   0.844   5.362   6.358
   14POPC   C4B  601   0.832   5.281   5.877
   15POPC   NC3  602   8.533   3.392   8.022
   15POPC   PO4  603   8.602   4.021   7.822
   15POPC   GL1  604   8.711   3.666   7.519
   15POPC   GL2  605   8.708   3.277   7.546
   15POPC   C1A  606   8.853   3.535   7.088
   15POPC   D2A  607   8.627   3.442   6.699
   15POPC   C3A  608   8.851   3.358   6.339
   15POPC   C4A  609   8.812   3.558   5.961
   15POPC   C1B  610   8.384   3.394   7.224
   15POPC   C2B  611   8.227   3.679   6.922
   15POPC   C3B  612   8.140   3.507   6.526
   15POPC   C4B  613   8.371   3.613   6.191
   16POPC   NC3  614   0.490   2.757   8.100
   16POPC   PO4  615   0.299   2.100   8.190
   16POPC   GL1  616   0.364   2.387   7.762
   16POPC   GL2  617   0.143   2.681   7.722
   16POPC   C1A  618   0.148   2.393   7.325
   16POPC   D2A  619   0.170   2.632   6.932
   16POPC   C3A  620   0.466   2.535   6.587
   16POPC   C4A  621   0.138   2.474   6.275
   16POPC   C1B  622   0.422   2.820   7.347
   16POPC   C2B  623   0.467   3.060   6.959
   16POPC   C3B  624   0.336   3.038   6.530
   16POPC   C4B  625   0.489   2.857   6.153
   17POPC   NC3  626   8.908   7.734   8.289
   17POPC   PO4  627   8.595   8.159   7.918
   17POPC   GL1  628   8.659   7.985   7.567
   17POPC   GL2  629   8.953   7.804   7.692
   17POPC   C1A  630   8.628   8.251   7.216
   17POPC   D2A  631   8.344   8.239   6.907
   17POPC   C3A  632   8.502   8.113   6.558
   17POPC   C4A  633   8.611   8.192   6.132
   17POPC   C1B  634   9.056   7.923   7.245
   17POPC   C2B  635   8.959   8.118   6.828
   17POPC   C3B  636   8.946   7.929   6.414
   17POPC   C4B  637   8.904   7.504   6.288
   18POPC   NC3  638   2.827  10.062   8.426
   18POPC   PO4  639   3.302  10.308   7.985
   18POPC   GL1  640   3.545  10.140   7.659
   18POPC   GL2  641   3.906  10.086   7.755
   18POPC   C1A  642   3.557  10.265   7.227
   18POPC   D2A  643   3.432  10.179   6.788
   18POPC   C3A  644   3.598  10.416   6.401
   18POPC   C4A  645   3.397  10.340   5.960
   18POPC   C1B  646   3.882   9.865   7.367
   18POPC   C2B  647   3.753   9.806   6.972
   18POPC   C3B  648   3.828   9.956   6.578
   18POPC   C4B  649   3.556   9.943   6.230
   19POPC   NC3  650   9.642   8.130   8.084
   19POPC   PO4  651   9.336   7.705   8.453
   19POPC   GL1  652   9.415   7.685   7.900
   19POPC   GL2  653   9.442   7.975   7.659
   19POPC   C1A  654   9.348   7.544   7.444
   19POPC   D2A  655   9.146   7.456   7.012
   19POPC   C3A  656   9.317   7.649   6.612
   19POPC   C4A  657   9.327   7.749   6.124
   19POPC   C1B  658   9.568   8.165   7.310
   19POPC   C2B  659   9.462   8.040   6.912
   19POPC   C3B  660   9.429   8.134   6.476
   19POPC   C4B  661   9.697   8.096   6.124
   20POPC   NC3  662   8.402   9.196   8.178
   20POPC   PO4  663   9.006   8.982   8.070
   20POPC   GL1  664   8.741   9.082   7.688
   20POPC   GL2  665   8.518   9.384   7.694
   20POPC   C1A  666   8.600   9.173   7.233
   20POPC   D2A  667   8.767   9.126   6.832
   20POPC   C3A  668   8.583   9.129   6.456
   20POPC   C4A  669   8.805   9.131   6.099
   20POPC   C1B  670   8.895   9.529   7.438
   20POPC   C2B  671   8.925   9.596   6.992
   20POPC   C3B  672   8.599   9.602   6.674
   20POPC   C4B  673   8.662   9.595   6.244
   21POPC   NC3  674   9.362   4.640   8.491
   21POPC   PO4  675   9.365   4.488   7.879
   21POPC   GL1  676   9.511   4.753   7.630
   21POPC   GL2  677   9.530   5.040   7.820
   21POPC   C1A  678   9.505   4.751   7.194
   21POPC   D2A  679   9.207   4.741   6.910
   21POPC   C3A  680   9.323   4.720   6.492
   21POPC   C4A  681   8.998   4.611   6.224
   21POPC   C1B  682   9.661   5.199   7.412
   21POPC   C2B  683   9.405   5.281   7.073
   21POPC   C3B  684   9.287   5.194   6.680
   21POPC   C4B  685   9.417   5.188   6.272
   22POPC   NC3  686   0.836   0.906   8.100
   22POPC   PO4  687   1.407   0.811   8.059
   22POPC   GL1  688   1.176   0.893   7.694
   22POPC   GL2  689   1.034   1.220   7.753
   22POPC   C1A  690   1.193   1.089   7.280
   22POPC   D2A  691   1.400   1.121   6.900
   22POPC   C3A  692   1.217   0.902   6.588
   22POPC   C4A  693   1.178   1.056   6.200
   22POPC   C1B  694   1.257   1.534   7.532
   22POPC   C2B  695   1.233   1.586   7.096
   22POPC   C3B  696   1.063   1.468   6.690
   22POPC   C4B  697   1.371   1.499   6.373
   23POPC   NC3  698   6.885   8.732   8.181
   23POPC   PO4  699   7.326   9.224   8.226
   23POPC   GL1  700   7.111   9.062   7.871
   23POPC   GL2  701   7.240   8.728   7.786
   23POPC   C1A  702   7.155   9.042   7.402
   23POPC   D2A  703   7.094   8.785   7.012
   23POPC   C3A  704   7.228   8.901   6.572
   23POPC   C4A  705   7.046   8.808   6.166
   23POPC   C1B  706   7.015   8.504   7.453
   23POPC   C2B  707   7.155   8.272   7.090
   23POPC   C3B  708   7.139   8.398   6.656
   23POPC   C4B  709   6.910   8.341   6.258
   24POPC   NC3  710   0.079   6.412   8.312
   24POPC   PO4  711   9.963   6.395   8.219
   24POPC   GL1  712   9.882   6.497   7.784
   24POPC   GL2  713  10.163   6.334   7.721
   24POPC   C1A  714   9.834   6.297   7.316
   24POPC   D2A  715  10.003   6.384   6.892
   24POPC   C3A  716   9.779   6.359   6.519
   24POPC   C4A  717   9.764   6.089   6.206
   24POPC   C1B  718  10.317   6.422   7.311
   24POPC   C2B  719  10.493   6.442   6.881
   24POPC   C3B  720  10.313   6.351   6.452
   24POPC   C4B  721  10.454   6.557   6.062
   25POPC   NC3  722   5.361   0.396   8.233
   25POPC   PO4  723   4.656   0.194   8.207
   25POPC   GL1  724   4.765   0.413   7.804
   25POPC   GL2  725   4.933   0.750   7.772
   25POPC   C1A  726   4.961   0.286   7.373
   25POPC   D2A  727   5.122   0.404   6.968
   25POPC   C3A  728   4.994   0.122   6.632
   25POPC   C4A  729   5.146   0.120   6.208
   25POPC   C1B  730   4.665   0.690   7.400
   25POPC   C2B  731   4.637   0.599   6.960
   25POPC   C3B  732   4.834   0.600   6.545
   25POPC   C4B  733   4.968   0.601   6.133
   26POPC   NC3  734   5.924   1.238   8.066
   26POPC   PO4  735   5.398   0.834   8.009
   26POPC   GL1  736   5.370   1.021   7.583
   26POPC   GL2  737   5.450   1.376   7.664
   26POPC   C1A  738   5.408   1.150   7.109
   26POPC   D2A  739   5.746   1.222   6.761
   26POPC   C3A  740   5.578   1.021   6.372
   26POPC   C4A  741   5.402   0.838   6.014
   26POPC   C1B  742   5.683   1.520   7.273
   26POPC   C2B  743   5.466   1.660   6.882
   26POPC   C3B  744   5.389   1.509   6.471
   26POPC   C4B  745   5.789   1.456   6.239
   27POPC   NC3  746   9.395   5.178   8.296
   27POPC   PO4  747   9.549   5.860   8.192
   27POPC   GL1  748   9.401   5.845   7.734
   27POPC   GL2  749   9.660   6.058   7.720
   27POPC   C1A  750   9.384   5.782   7.249
   27POPC   D2A  751   9.518   6.026   6.874
   27POPC   C3A  752   9.343   5.854   6.483
   27POPC   C4A  753   9.306   5.981   6.080
   27POPC   C1B  754   9.811   5.693   7.486
   27POPC   C2B  755   9.843   5.640   7.032
   27POPC   C3B  756   9.676   5.513   6.663
   27POPC   C4B  757   9.720   5.585   6.227
   28POPC   NC3  758   5.320   9.166   7.924
   28POPC   PO4  759   5.681   9.700   8.235
   28POPC   GL1  760   5.518   9.618   7.767
   28POPC   GL2  761   5.786   9.499   7.595
   28POPC   C1A  762   5.375   9.353   7.323
   28POPC   D2A  763   5.182   9.487   6.936
   28POPC   C3A  764   5.297   9.379   6.520
   28POPC   C4A  765   5.422   9.565   6.143
   28POPC   C1B  766   5.760   9.680   7.264
   28POPC   C2B  767   5.602   9.801   6.902
   28POPC   C3B  768   5.750   9.619   6.538
   28POPC   C4B  769   5.953   9.445   6.198
   29POPC   NC3  770   9.513   2.611   8.378
   29POPC   PO4  771   9.710   3.234   8.171
   29POPC   GL1  772   9.646   2.862   7.867
   29POPC   GL2  773   9.270   2.776   7.780
   29POPC   C1A  774   9.621   2.695   7.419
   29POPC   D2A  775   9.275   2.753   7.090
   29POPC   C3A  776   9.402   2.842   6.660
   29POPC   C4A  777   9.652   2.606   6.349
   29POPC   C1B  778   9.191   2.408   7.480
   29POPC   C2B  779   9.144   2.252   7.077
   29POPC   C3B  780   9.306   2.340   6.693
   29POPC   C4B  781   9.186   2.366   6.285
   30POPC   NC3  782   2.669   3.413   8.541
   30POPC   PO4  783   2.374   3.114   8.082
   30POPC   GL1  784   2.324   3.369   7.746
   30POPC   GL2  785   2.310   3.128   7.514
   30POPC   C1A  786   2.551   3.542   7.359
   30POPC   D2A  787   2.694   3.341   6.962
   30POPC   C3A  788   2.536   3.493   6.542
   30POPC   C4A  789   2.425   3.447   6.098
   30POPC   C1B  790   2.788   3.090   7.453
   30POPC   C2B  791   2.979   2.922   7.066
   30POPC   C3B  792   2.976   3.043   6.622
   30POPC   C4B  793   3.140   3.265   6.256
   31POPC   NC3  794   4.649  10.204   8.356
   31POPC   PO4  795   4.169   9.831   8.131
   31POPC   GL1  796   4.439   9.948   7.816
   31POPC   GL2  797   4.402  10.275   7.714
   31POPC   C1A  798   4.407   9.873   7.369
   31POPC   D2A  799   4.240  10.000   6.961
   31POPC   C3A  800   4.322   9.825   6.562
   31POPC   C4A  801   4.471   9.951   6.167
   31POPC   C1B  802   4.120  10.321   7.339
   31POPC   C2B  803   3.924  10.384   6.906
   31POPC   C3B  804   4.183  10.320   6.545
   31POPC   C4B  805   4.200   0.033   6.192
   32POPC   NC3  806   2.825   5.300   8.614
   32POPC   PO4  807   2.389   5.203   8.164
   32POPC   GL1  808   2.390   5.388   7.696
   32POPC   GL2  809   2.376   5.760   7.639
   32POPC   C1A  810   2.557   5.451   7.236
   32POPC   D2A  811   2.647   5.579   6.777
   32POPC   C3A  812   2.860   5.393   6.377
   32POPC   C4A  813   3.097   5.458   5.955
   32POPC   C1B  814   2.367   5.929   7.167
   32POPC   C2B  815   2.275   5.919   6.707
   32POPC   C3B  816   2.446   5.722   6.324
   32POPC   C4B  817   2.374   5.877   5.893
   33POPC   NC3  818   5.665  10.175   8.185
   33POPC   PO4  819   6.240  10.118   7.861
   33POPC   GL1  820   5.884  10.007   7.650
   33POPC   GL2  821   5.563  10.157   7.691
   33POPC   C1A  822   5.798  10.171   7.250
   33POPC   D2A  823   5.968  10.338   6.905
   33POPC   C3A  824   5.860  10.116   6.563
   33POPC   C4A  825   6.009  10.163   6.156
   33POPC   C1B  826   5.291  10.350   7.357
   33POPC   C2B  827   5.427  10.299   6.928
   33POPC   C3B  828   5.408  10.335   6.513
   33POPC   C4B  829   5.507  10.144   6.128
   34POPC   NC3  830   6.154   9.655   7.949
   34POPC   PO4  831   6.563   9.121   8.185
   34POPC   GL1  832   6.479   9.307   7.753
   34POPC   GL2  833   6.813   9.412   7.651
   34POPC   C1A  834   6.219   9.442   7.355
   34POPC   D2A  835   6.119   9.599   6.923
   34POPC   C3A  836   6.199   9.310   6.615
   34POPC   C4A  837   6.464   9.401   6.224
   34POPC   C1B  838   6.664   9.582   7.213
   34POPC   C2B  839   6.610   9.534   6.779
   34POPC   C3B  840   6.754   9.756   6.463
   34POPC   C4B  841   6.963   9.801   6.116
   35POPC   NC3  842   0.602   1.862   7.919
   35POPC   PO4  843  10.397   1.778   7.988
   35POPC   GL1  844   0.168   1.652   7.764
   35POPC   GL2  845   0.188   1.948   7.612
   35POPC   C1A  846   0.219   1.534   7.339
   35POPC   D2A  847   0.442   1.639   6.960
   35POPC   C3A  848   0.520   1.492   6.592
   35POPC   C4A  849   0.415   1.684   6.213
   35POPC   C1B  850   0.470   2.006   7.311
   35POPC   C2B  851   0.381   2.150   6.930
   35POPC   C3B  852   0.284   2.050   6.544
   35POPC   C4B  853   0.563   2.166   6.197
   36POPC   NC3  854   3.433   0.937   8.197
   36POPC   PO4  855   3.262   1.494   7.855
   36POPC   GL1  856   3.450   1.212   7.624
   36POPC   GL2  857   3.494   0.856   7.664
   36POPC   C1A  858   3.228   1.057   7.283
   36POPC   D2A  859   2.975   1.042   6.949
   36POPC   C3A  860   3.248   1.191   6.607
   36POPC   C4A  861   3.141   1.336   6.198
   36POPC   C1B  862   3.747   0.949   7.289
   36POPC   C2B  863   3.850   1.232   7.002
   36POPC   C3B  864   3.819   1.097   6.620
   36POPC   C4B  865   3.637   1.231   6.250
   37POPC   NC3  866   9.777   4.292   8.036
   37POPC   PO4  867  10.492   4.422   8.029
   37POPC   GL1  868  10.326   4.435   7.678
   37POPC   GL2  869  10.057   4.197   7.625
   37POPC   C1A  870  10.434   4.444   7.290
   37POPC   D2A  871  10.148   4.447   6.990
   37POPC   C3A  872  10.362   4.476   6.646
   37POPC   C4A  873  10.229   4.609   6.252
   37POPC   C1B  874  10.263   3.954   7.309
   37POPC   C2B  875  10.143   3.933   6.911
   37POPC   C3B  876   9.983   4.169   6.589
   37POPC   C4B  877  10.105   4.124   6.162
   38POPC   NC3  878   7.570   0.131   7.842
   38POPC   PO4  879   7.654   0.760   8.019
   38POPC   GL1  880   7.887   0.519   7.705
   38POPC   GL2  881   7.962   0.158   7.546
   38POPC   C1A  882   7.885   0.600   7.283
   38POPC   D2A  883   7.851   0.865   6.965
   38POPC   C3A  884   7.779   0.683   6.598
   38POPC   C4A  885   7.978   0.742   6.248
   38POPC   C1B  886   7.982   0.113   7.151
   38POPC   C2B  887   7.702   0.252   6.852
   38POPC   C3B  888   7.923   0.193   6.486
   38POPC   C4B  889   7.918   0.276   6.041
   39POPC   NC3  890   8.036   1.983   8.082
   39POPC   PO4  891   7.459   1.605   8.194
   39POPC   GL1  892   7.522   1.668   7.731
   39POPC   GL2  893   7.859   1.726   7.682
   39POPC   C1A  894   7.609   1.654   7.254
   39POPC   D2A  895   7.906   1.721   6.933
   39POPC   C3A  896   7.633   1.794   6.613
   39POPC   C4A  897   7.536   1.783   6.212
   39POPC   C1B  898   7.969   2.020   7.380
   39POPC   C2B  899   8.223   2.120   6.987
   39POPC   C3B  900   8.040   2.091   6.555
   39POPC   C4B  901   7.816   2.222   6.205
   40POPC   NC3  902  10.361   7.898   8.008
   40POPC   PO4  903   9.871   7.373   8.030
   40POPC   GL1  904   9.860   7.614   7.637
   40POPC   GL2  905   9.953   7.964   7.652
   40POPC   C1A  906   9.792   7.680   7.183
   40POPC   D2A  907   9.969   7.948   6.852
   40POPC   C3A  908  10.041   7.824   6.412
   40POPC   C4A  909  10.413   7.788   6.110
   40POPC   C1B  910  10.271   7.833   7.337
   40POPC   C2B  911  10.475   7.987   6.953
   40POPC   C3B  912  10.399   8.186   6.547
   40POPC   C4B  913  10.201   8.255   6.134
   41POPC   NC3  914   2.181   4.773   8.059
   41POPC   PO4  915   1.673   5.251   8.079
   41POPC   GL1  916   1.909   5.212   7.678
   41POPC   GL2  917   1.840   4.890   7.573
   41POPC   C1A  918   2.207   5.084   7.289
   41POPC   D2A  919   2.177   4.974   6.815
   41POPC   C3A  920   2.380   5.168   6.425
   41POPC   C4A  921   2.266   4.955   6.017
   41POPC   C1B  922   1.728   5.197   7.179
   41POPC   C2B  923   1.687   5.165   6.719
   41POPC   C3B  924   1.894   4.931   6.366
   41POPC   C4B  925   1.780   4.654   5.987
   42POPC   NC3  926   7.705   8.432   8.199
   42POPC   PO4  927   8.316   8.360   8.418
   42POPC   GL1  928   8.123   8.360   7.911
   42POPC   GL2  929   7.822   8.569   7.734
   42POPC   C1A  930   8.138   8.354   7.408
   42POPC   D2A  931   7.928   8.508   6.994
   42POPC   C3A  932   7.953   8.307   6.557
   42POPC   C4A  933   8.147   8.389   6.156
   42POPC   C1B  934   7.621   8.801   7.380
   42POPC   C2B  935   7.624   8.894   6.924
   42POPC   C3B  936   7.754   8.825   6.482
   42POPC   C4B  937   7.536   8.964   6.088
   43POPC   NC3  938   1.131   5.951   8.176
   43POPC   PO4  939   1.228   6.624   8.191
   43POPC   GL1  940   1.306   6.331   7.817
   43POPC   GL2  941   1.057   6.217   7.664
   43POPC   C1A  942   1.414   6.276   7.324
   43POPC   D2A  943   1.269   6.139   6.935
   43POPC   C3A  944   1.481   6.254   6.598
   43POPC   C4A  945   1.498   6.121   6.200
   43POPC   C1B  946   1.125   6.659   7.472
   43POPC   C2B  947   1.143   6.840   7.057
   43POPC   C3B  948   1.264   6.920   6.612
   43POPC   C4B  949   1.187   6.583   6.304
   44POPC   NC3  950   1.414   3.200   8.408
   44POPC   PO4  951   0.864   3.030   8.048
   44POPC   GL1  952   1.120   3.200   7.692
   44POPC   GL2  953   1.253   3.558   7.756
   44POPC   C1A  954   1.258   3.297   7.278
   44POPC   D2A  955   1.169   3.569   6.937
   44POPC   C3A  956   1.262   3.309   6.627
   44POPC   C4A  957   1.065   3.276   6.268
   44POPC   C1B  958   1.506   3.735   7.397
   44POPC   C2B  959   1.674   3.571   7.020
   44POPC   C3B  960   1.596   3.704   6.626
   44POPC   C4B  961   1.423   3.619   6.242
   45POPC   NC3  962   1.200   9.558   7.966
   45POPC   PO4  963   0.792   8.992   8.162
   45POPC   GL1  964   0.872   9.170   7.732
   45POPC   GL2  965   1.010   9.476   7.519
   45POPC   C1A  966   0.795   9.107   7.280
   45POPC   D2A  967   1.065   9.360   6.995
   45POPC   C3A  968   0.914   9.449   6.607
   45POPC   C4A  969   0.897   9.173   6.257
   45POPC   C1B  970   1.379   9.594   7.340
   45POPC   C2B  971   1.449   9.729   6.934
   45POPC   C3B  972   1.425   9.516   6.577
   45POPC   C4B  973   1.247   9.508   6.204
   46POPC   NC3  974   8.824   2.512   8.399
   46POPC   PO4  975   8.421   3.010   8.270
   46POPC   GL1  976   8.486   2.829   7.794
   46POPC   GL2  977   8.722   2.534   7.785
   46POPC   C1A  978   8.354   2.881   7.319
   46POPC   D2A  979   8.575   2.984   6.934
   46POPC   C3A  980   8.380   3.015   6.518
   46POPC   C4A  981   8.556   2.988   6.116
   46POPC   C1B  982   8.788   2.645   7.320
   46POPC   C2B  983   8.668   2.455   6.916
   46POPC   C3B  984   8.683   2.593   6.482
   46POPC   C4B  985   9.013   2.855   6.300
   47POPC   NC3  986   0.563   8.611   8.008
   47POPC   PO4  987   0.116   9.109   8.085
   47POPC   GL1  988   0.130   8.750   7.738
   47POPC   GL2  989   0.483   8.696   7.519
   47POPC   C1A  990   0.051   8.461   7.390
   47POPC   D2A  991   0.187   8.453   6.972
   47POPC   C3A  992   0.272   8.718   6.631
   47POPC   C4A  993   0.129   8.546   6.217
   47POPC   C1B  994   0.642   8.655   7.093
   47POPC   C2B  995   0.833   8.420   6.761
   47POPC   C3B  996   0.869   8.695   6.426
   47POPC   C4B  997   0.506   8.867   6.190
   48POPC   NC3  998   2.798   0.542   8.227
   48POPC   PO4  999   2.618  10.391   8.155
   48POPC   GL1 1000   2.582   0.242   7.809
   48POPC   GL2 1001   2.640   0.623   7.703
   48POPC   C1A 1002   2.585   0.258   7.349
   48POPC   D2A 1003   2.544   0.498   6.968
   48POPC   C3A 1004   2.713   0.324   6.579
   48POPC   C4A 1005   2.541   0.385   6.181
   48POPC   C1B 1006   2.916   0.642   7.306
   48POPC   C2B 1007   3.049   0.545   6.893
   48POPC   C3B 1008   3.034   0.742   6.544
   48POPC   C4B 1009   2.925   0.700   6.181
   49POPC   NC3 1010   9.751   0.323   8.373
   49POPC   PO4 1011   9.644   0.762   7.888
   49POPC   GL1 1012   9.591   0.462   7.589
   49POPC   GL2 1013   9.243   0.459   7.632
   49POPC   C1A 1014   9.481   0.334   7.170
   49POPC   D2A 1015   9.130   0.168   6.911
   49POPC   C3A 1016   9.321   0.241   6.510
   49POPC   C4A 1017   9.669   0.180   6.215
   49POPC   C1B 1018   9.288   0.781   7.311
   49POPC   C2B 1019   9.212   0.680   6.894
   49POPC   C3B 1020   9.309   0.797   6.500
   49POPC   C4B 1021   9.453   0.625   6.181
   50POPC   NC3 1022   3.906   1.096   7.867
   50POPC   PO4 1023   4.535   1.186   8.183
   50POPC   GL1 1024   4.493   1.032   7.783
   50POPC   GL2 1025   4.290   0.748   7.762
   50POPC   C1A 1026   4.413   1.117   7.352
   50POPC   D2A 1027   4.423   1.341   6.965
   50POPC   C3A 1028   4.358   1.210   6.572
   50POPC   C4A 1029   4.332   1.448   6.181
   50POPC   C1B 1030   4.154   0.659   7.353
   50POPC   C2B 1031   4.194   0.855   6.965
   50POPC   C3B 1032   4.213   0.722   6.567
   50POPC   C4B 1033   4.086   0.964   6.214
   51POPC   NC3 1034   3.162   2.732   8.001
   51POPC   PO4 1035   3.740   2.800   8.097
   51POPC   GL1 1036   3.647   2.752   7.651
   51POPC   GL2 1037   3.428   2.451   7.648
   51POPC   C1A 1038   3.644   2.947   7.200
   51POPC   D2A 1039   3.446   2.972   6.776
   51POPC   C3A 1040   3.625   3.020   6.346
   51POPC   C4A 1041   3.512   3.148   5.897
   51POPC   C1B 1042   3.295   2.544   7.216
   51POPC   C2B 1043   3.139   2.535   6.785
   51POPC   C3B 1044   3.328   2.608   6.402
   51POPC   C4B 1045   3.221   2.336   6.053
   52POPC   NC3 1046   2.489   1.170   7.971
   52POPC   PO4 1047   2.855   1.609   8.370
   52POPC   GL1 1048   2.763   1.564   7.827
   52POPC   GL2 1049   2.891   1.202   7.661
   52POPC   C1A 1050   2.660   1.546   7.316
   52POPC   D2A 1051   2.877   1.522   6.861
   52POPC   C3A 1052   2.739   1.217   6.503
   52POPC   C4A 1053   2.572   1.356   6.085
   52POPC   C1B 1054   2.601   1.028   7.327
   52POPC   C2B 1055   2.405   1.004   6.903
   52POPC   C3B 1056   2.482   0.780   6.526
   52POPC   C4B 1057   2.446   0.873   6.101
   53POPC   NC3 1058   3.467   7.958   8.102
   53POPC   PO4 1059   3.922   8.471   8.013
   53POPC   GL1 1060   3.671   8.346   7.627
   53POPC   GL2 1061   3.349   8.154   7.661
   53POPC   C1A 1062   3.528   8.239   7.188
   53POPC   D2A 1063   3.413   8.311   6.774
   53POPC   C3A 1064   3.479   8.032   6.416
   53POPC   C4A 1065   3.289   8.081   6.010
   53POPC   C1B 1066   3.261   7.834   7.353
   53POPC   C2B 1067   3.350   7.804   6.898
   53POPC   C3B 1068   3.179   7.615   6.512
   53POPC   C4B 1069   3.149   7.603   6.068
   54POPC   NC3 1070   3.621   8.824   7.919
   54POPC   PO4 1071   3.047   9.006   7.980
   54POPC   GL1 1072   3.036   8.916   7.572
   54POPC   GL2 1073   3.247   8.648   7.585
   54POPC   C1A 1074   2.956   8.682   7.178
   54POPC   D2A 1075   3.231   8.778   6.872
   54POPC   C3A 1076   3.194   8.669   6.477
   54POPC   C4A 1077   3.219   8.943   6.139
   54POPC   C1B 1078   3.585   8.738   7.248
   54POPC   C2B 1079   3.784   8.665   6.816
   54POPC   C3B 1080   3.681   8.500   6.383
   54POPC   C4B 1081   3.514   8.555   5.934
   55POPC   NC3 1082   1.401   4.149   8.102
   55POPC   PO4 1083   0.971   4.570   8.172
   55POPC   GL1 1084   0.903   4.371   7.752
   55POPC   GL2 1085   1.055   4.050   7.730
   55POPC   C1A 1086   1.140   4.416   7.344
   55POPC   D2A 1087   1.243   4.585   6.924
   55POPC   C3A 1088   0.993   4.505   6.570
   55POPC   C4A 1089   1.078   4.412   6.143
   55POPC   C1B 1090   1.044   3.918   7.302
   55POPC   C2B 1091   1.355   4.063   6.964
   55POPC   C3B 1092   1.265   4.069   6.510
   55POPC   C4B 1093   0.952   3.761   6.392
   56POPC   NC3 1094   9.139   8.526   8.095
   56POPC   PO4 1095   9.657   8.842   8.007
   56POPC   GL1 1096   9.506   8.572   7.688
   56POPC   GL2 1097   9.238   8.804   7.650
   56POPC   C1A 1098   9.516   8.694   7.233
   56POPC   D2A 1099   9.295   8.521   6.847
   56POPC   C3A 1100   9.486   8.638   6.515
   56POPC   C4A 1101   9.468   8.556   6.088
   56POPC   C1B 1102   9.172   9.094   7.314
   56POPC   C2B 1103   9.255   9.021   6.880
   56POPC   C3B 1104   9.097   8.948   6.468
   56POPC   C4B 1105   9.299   9.028   6.066
   57POPC   NC3 1106   1.083   7.852   8.162
   57POPC   PO4 1107   1.359   8.326   7.863
   57POPC   GL1 1108   1.264   7.963   7.674
   57POPC   GL2 1109   0.896   7.940   7.690
   57POPC   C1A 1110   1.417   8.009   7.264
   57POPC   D2A 1111   1.534   7.750   6.948
   57POPC   C3A 1112   1.352   7.871   6.575
   57POPC   C4A 1113   1.530   7.843   6.212
   57POPC   C1B 1114   0.846   7.764   7.294
   57POPC   C2B 1115   0.993   7.928   6.935
   57POPC   C3B 1116   0.815   7.913   6.538
   57POPC   C4B 1117   0.979   7.947   6.173
   58POPC   NC3 1118   2.082   7.314   8.007
   58POPC   PO4 1119   1.460   7.586   8.041
   58POPC   GL1 1120   1.606   7.284   7.706
   58POPC   GL2 1121   1.914   7.270   7.539
   58POPC   C1A 1122   1.525   7.085   7.296
   58POPC   D2A 1123   1.765   7.271   6.927
   58POPC   C3A 1124   1.613   7.296   6.485
   58POPC   C4A 1125   1.652   6.935   6.179
   58POPC   C1B 1126   2.322   7.333   7.371
   58POPC   C2B 1127   2.397   7.443   6.953
   58POPC   C3B 1128   2.128   7.501   6.616
   58POPC   C4B 1129   2.079   7.229   6.243
   59POPC   NC3 1130   6.936   9.458   8.241
   59POPC   PO4 1131   7.556   9.854   8.123
   59POPC   GL1 1132   7.263   9.610   7.825
   59POPC   GL2 1133   7.460   9.355   7.675
   59POPC   C1A 1134   7.157   9.578   7.328
   59POPC   D2A 1135   6.988   9.281   6.993
   59POPC   C3A 1136   7.070   9.383   6.583
   59POPC   C4A 1137   6.984   9.297   6.178
   59POPC   C1B 1138   7.620   9.328   7.294
   59POPC   C2B 1139   7.463   9.361   6.927
   59POPC   C3B 1140   7.587   9.307   6.565
   59POPC   C4B 1141   7.475   9.454   6.228
   60POPC   NC3 1142   0.551   7.571   7.870
   60POPC   PO4 1143   0.653   8.174   8.093
   60POPC   GL1 1144   0.442   8.209   7.703
   60POPC   GL2 1145   0.193   7.976   7.621
   60POPC   C1A 1146   0.564   8.204   7.293
   60POPC   D2A 1147   0.490   8.053   6.905
   60POPC   C3A 1148   0.405   8.236   6.535
   60POPC   C4A 1149   0.619   8.333   6.200
   60POPC   C1B 1150   0.307   7.727   7.262
   60POPC   C2B 1151   0.468   7.567   6.858
   60POPC   C3B 1152   0.290   7.739   6.476
   60POPC   C4B 1153   0.456   7.884   6.073
   61POPC   NC3 1154   2.643   1.954   8.165
   61POPC   PO4 1155   2.045   2.228   8.246
   61POPC   GL1 1156   2.339   2.213   7.779
   61POPC   GL2 1157   2.670   2.072   7.680
   61POPC   C1A 1158   2.404   2.058   7.265
   61POPC   D2A 1159   2.577   1.917   6.827
   61POPC   C3A 1160   2.464   2.176   6.415
   61POPC   C4A 1161   2.327   2.195   5.929
   61POPC   C1B 1162   2.979   1.943   7.377
   61POPC   C2B 1163   3.110   2.049   6.955
   61POPC   C3B 1164   2.985   2.078   6.536
   61POPC   C4B 1165   2.764   1.715   6.376
   62POPC   NC3 1166   4.150   2.600   8.084
   62POPC   PO4 1167   4.571   3.085   7.921
   62POPC   GL1 1168   4.344   2.787   7.589
   62POPC   GL2 1169   4.130   2.468   7.589
   62POPC   C1A 1170   4.196   2.740   7.130
   62POPC   D2A 1171   3.972   2.949   6.781
   62POPC   C3A 1172   4.150   2.993   6.365
   62POPC   C4A 1173   3.989   2.963   5.954
   62POPC   C1B 1174   3.791   2.462   7.262
   62POPC   C2B 1175   3.672   2.526   6.828
   62POPC   C3B 1176   3.882   2.558   6.417
   62POPC   C4B 1177   4.331   2.486   6.295
   63POPC   NC3 1178   2.808   8.621   7.997
   63POPC   PO4 1179   2.309   9.103   8.107
   63POPC   GL1 1180   2.545   8.987   7.740
   63POPC   GL2 1181   2.595   8.644   7.555
   63POPC   C1A 1182   2.619   9.076   7.319
   63POPC   D2A 1183   2.528   8.861   6.974
   63POPC   C3A 1184   2.738   8.877   6.602
   63POPC   C4A 1185   2.597   8.891   6.202
   63POPC   C1B 1186   2.472   8.387   7.210
   63POPC   C2B 1187   2.619   8.389   6.790
   63POPC   C3B 1188   2.671   8.422   6.371
   63POPC   C4B 1189   2.993   8.486   6.062
   64POPC   NC3 1190   5.788   0.534   7.946
   64POPC   PO4 1191   5.303  10.460   8.049
   64POPC   GL1 1192   5.521   0.165   7.723
   64POPC   GL2 1193   5.371   0.477   7.630
   64POPC   C1A 1194   5.684   0.165   7.286
   64POPC   D2A 1195   5.603   0.254   6.843
   64POPC   C3A 1196   5.818   0.125   6.478
   64POPC   C4A 1197   5.679   0.121   6.023
   64POPC   C1B 1198   5.589   0.667   7.251
   64POPC   C2B 1199   5.489   0.746   6.808
   64POPC   C3B 1200   5.422   0.514   6.427
   64POPC   C4B 1201   5.812   0.575   6.211
   65POPC   NC3 1202   8.908   4.380   7.884
   65POPC   PO4 1203   9.441   4.134   8.322
   65POPC   GL1 1204   9.406   4.005   7.817
   65POPC   GL2 1205   9.647   3.829   7.670
   65POPC   C1A 1206   9.461   4.203   7.336
   65POPC   D2A 1207   9.528   4.322   6.873
   65POPC   C3A 1208   9.143   4.257   6.611
   65POPC   C4A 1209   9.202   4.103   6.210
   65POPC   C1B 1210   9.752   3.808   7.218
   65POPC   C2B 1211   9.656   3.804   6.781
   65POPC   C3B 1212   9.639   3.900   6.354
   65POPC   C4B 1213   9.632   4.372   6.276
   66POPC   NC3 1214   1.444  10.230   8.235
   66POPC   PO4 1215   0.901   0.062   8.165
   66POPC   GL1 1216   1.174  10.413   7.807
   66POPC   GL2 1217   1.210  10.060   7.778
   66POPC   C1A 1218   1.361  10.455   7.395
   66POPC   D2A 1219   1.342  10.217   6.985
   66POPC   C3A 1220   1.435  10.389   6.618
   66POPC   C4A 1221   1.379  10.338   6.199
   66POPC   C1B 1222   1.074  10.003   7.359
   66POPC   C2B 1223   0.950   9.882   6.912
   66POPC   C3B 1224   1.119   9.950   6.474
   66POPC   C4B 1225   1.132   9.949   5.997
   67POPC   NC3 1226  10.328   1.345   8.147
   67POPC   PO4 1227   0.479   1.169   8.171
   67POPC   GL1 1228   0.224   1.140   7.785
   67POPC   GL2 1229   0.531   1.292   7.669
   67POPC   C1A 1230   0.277   1.040   7.309
   67POPC   D2A 1231   0.107   1.233   6.945
   67POPC   C3A 1232   0.207   1.063   6.581
   67POPC   C4A 1233   0.262   0.996   6.161
   67POPC   C1B 1234   0.764   1.438   7.321
   67POPC   C2B 1235   0.751   1.172   6.972
   67POPC   C3B 1236   0.725   1.031   6.552
   67POPC   C4B 1237   0.744   1.294   6.183
   68POPC   NC3 1238   8.744   6.569   7.871
   68POPC   PO4 1239   8.750   5.946   7.707
   68POPC   GL1 1240   8.841   6.214   7.435
   68POPC   GL2 1241   8.975   6.601   7.434
   68POPC   C1A 1242   8.765   6.018   7.034
   68POPC   D2A 1243   8.510   6.028   6.688
   68POPC   C3A 1244   8.810   6.030   6.379
   68POPC   C4A 1245   8.879   6.189   5.985
   68POPC   C1B 1246   8.635   6.530   7.128
   68POPC   C2B 1247   8.684   6.534   6.687
   68POPC   C3B 1248   8.547   6.547   6.272
   68POPC   C4B 1249   8.411   6.859   5.942
   69POPC   NC3 1250   7.727   9.426   8.084
   69POPC   PO4 1251   8.130   8.843   8.070
   69POPC   GL1 1252   8.001   9.060   7.679
   69POPC   GL2 1253   7.990   9.412   7.653
   69POPC   C1A 1254   8.051   9.065   7.222
   69POPC   D2A 1255   8.257   9.216   6.847
   69POPC   C3A 1256   8.076   9.264   6.441
   69POPC   C4A 1257   8.272   9.342   6.053
   69POPC   C1B 1258   8.112   9.596   7.287
   69POPC   C2B 1259   7.916   9.582   6.897
   69POPC   C3B 1260   7.817   9.818   6.548
   69POPC   C4B 1261   7.924   9.708   6.150
   70POPC   NC3 1262   1.249   4.941   8.236
   70POPC   PO4 1263   1.753   4.431   8.169
   70POPC   GL1 1264   1.438   4.577   7.772
   70POPC   GL2 1265   1.148   4.828   7.756
   70POPC   C1A 1266   1.406   4.848   7.340
   70POPC   D2A 1267   1.236   5.125   7.028
   70POPC   C3A 1268   1.187   5.021   6.613
   70POPC   C4A 1269   1.407   4.755   6.328
   70POPC   C1B 1270   0.898   4.888   7.377
   70POPC   C2B 1271   0.787   4.829   6.976
   70POPC   C3B 1272   0.685   4.907   6.567
   70POPC   C4B 1273   0.913   4.885   6.193
   71POPC   NC3 1274  10.408   2.251   7.936
   71POPC   PO4 1275   9.824   2.257   8.351
   71POPC   GL1 1276   9.880   2.236   7.858
   71POPC   GL2 1277   9.980   1.933   7.739
   71POPC   C1A 1278  10.002   2.268   7.368
   71POPC   D2A 1279  10.296   2.244   6.994
   71POPC   C3A 1280  10.265   2.031   6.588
   71POPC   C4A 1281  10.458   1.944   6.174
   71POPC   C1B 1282  10.253   1.824   7.356
   71POPC   C2B 1283  10.420   1.729   6.967
   71POPC   C3B 1284   0.027   1.594   6.572
   71POPC   C4B 1285  10.481   1.428   6.185
   72POPC   NC3 1286   7.315   1.366   8.559
   72POPC   PO4 1287   7.155   0.902   8.131
   72POPC   GL1 1288   7.136   0.986   7.684
   72POPC   GL2 1289   6.911   1.258   7.746
   72POPC   C1A 1290   6.951   0.980   7.274
   72POPC   D2A 1291   6.710   1.079   6.911
   72POPC   C3A 1292   6.923   1.100   6.534
   72POPC   C4A 1293   6.996   0.945   6.124
   72POPC   C1B 1294   7.167   1.437   7.436
   72POPC   C2B 1295   7.163   1.389   7.017
   72POPC   C3B 1296   7.232   1.481   6.603
   72POPC   C4B 1297   7.253   1.369   6.176
   73POPC   NC3 1298  10.460   3.978   7.927
   73POPC   PO4 1299   0.622   3.960   8.018
   73POPC   GL1 1300   0.456   4.040   7.658
   73POPC   GL2 1301   0.340   4.356   7.632
   73POPC   C1A 1302   0.310   3.914   7.259
   73POPC   D2A 1303   0.112   4.121   6.932
   73POPC   C3A 1304  10.494   3.999   6.526
   73POPC   C4A 1305   0.107   4.276   6.222
   73POPC   C1B 1306   0.648   4.326   7.278
   73POPC   C2B 1307   0.800   4.128   6.895
   73POPC   C3B 1308   0.595   4.142   6.499
   73POPC   C4B 1309   0.585   4.478   6.220
   74POPC   NC3 1310   1.651   6.426   8.178
   74POPC   PO4 1311   1.829   6.943   8.034
   74POPC   GL1 1312   1.635   6.718   7.706
   74POPC   GL2 1313   1.805   6.365   7.700
   74POPC   C1A 1314   1.759   6.639   7.273
   74POPC   D2A 1315   1.626   6.682   6.863
   74POPC   C3A 1316   1.943   6.852   6.589
   74POPC   C4A 1317   2.294   6.734   6.307
   74POPC   C1B 1318   1.920   6.137   7.318
   74POPC   C2B 1319   2.016   6.332   6.923
   74POPC   C3B 1320   1.987   6.310   6.488
   74POPC   C4B 1321   1.987   5.951   6.233
   75POPC   NC3 1322   9.988   0.287   7.884
   75POPC   PO4 1323  10.199   0.889   8.222
   75POPC   GL1 1324  10.124   0.888   7.776
   75POPC   GL2 1325  10.386   0.678   7.715
   75POPC   C1A 1326  10.016   0.642   7.344
   75POPC   D2A 1327   9.988   0.330   6.998
   75POPC   C3A 1328   9.783   0.472   6.614
   75POPC   C4A 1329   9.947   0.602   6.204
   75POPC   C1B 1330   0.022   0.589   7.283
   75POPC   C2B 1331   0.009   0.548   6.851
   75POPC   C3B 1332  10.404   0.633   6.440
   75POPC   C4B 1333  10.348   0.254   6.203
   76POPC   NC3 1334   6.436   7.968   8.234
   76POPC   PO4 1335   6.842   7.573   8.040
   76POPC   GL1 1336   6.519   7.818   7.754
   76POPC   GL2 1337   6.160   7.996   7.807
   76POPC   C1A 1338   6.467   8.153   7.451
   76POPC   D2A 1339   6.220   8.236   7.093
   76POPC   C3A 1340   6.354   8.091   6.701
   76POPC   C4A 1341   6.481   8.060   6.274
   76POPC   C1B 1342   6.146   7.773   7.376
   76POPC   C2B 1343   6.317   7.648   6.968
   76POPC   C3B 1344   6.300   7.630   6.505
   76POPC   C4B 1345   5.997   7.899   6.263
   77POPC   NC3 1346   1.875   8.957   8.125
   77POPC   PO4 1347   1.595   8.418   8.322
   77POPC   GL1 1348   1.814   8.525   7.839
   77POPC   GL2 1349   2.188   8.615   7.885
   77POPC   C1A 1350   1.653   8.573   7.335
   77POPC   D2A 1351   1.610   8.813   6.909
   77POPC   C3A 1352   1.715   8.665   6.466
   77POPC   C4A 1353   1.779   8.733   5.997
   77POPC   C1B 1354   2.126   8.756   7.437
   77POPC   C2B 1355   2.077   8.623   7.000
   77POPC   C3B 1356   2.234   8.662   6.594
   77POPC   C4B 1357   2.207   8.561   6.205
   78POPC   NC3 1358   1.979   9.953   8.268
   78POPC   PO4 1359   1.665   0.101   8.059
   78POPC   GL1 1360   1.716  10.247   7.764
   78POPC   GL2 1361   1.994  10.323   7.546
   78POPC   C1A 1362   1.654  10.033   7.339
   78POPC   D2A 1363   1.871  10.117   6.923
   78POPC   C3A 1364   1.676   9.964   6.541
   78POPC   C4A 1365   1.624   9.817   6.134
   78POPC   C1B 1366   2.159   0.039   7.192
   78POPC   C2B 1367   2.297   0.065   6.772
   78POPC   C3B 1368   2.135  10.318   6.447
   78POPC   C4B 1369   2.115   9.917   6.306
   79POPC   NC3 1370   0.504   7.161   8.376
   79POPC   PO4 1371   0.088   7.489   7.914
   79POPC   GL1 1372   0.286   7.156   7.697
   79POPC   GL2 1373   0.624   7.039   7.783
   79POPC   C1A 1374   0.384   7.228   7.275
   79POPC   D2A 1375   0.152   7.170   6.912
   79POPC   C3A 1376   0.351   7.206   6.507
   79POPC   C4A 1377   0.677   7.461   6.298
   79POPC   C1B 1378   0.623   6.780   7.371
   79POPC   C2B 1379   0.431   6.719   6.954
   79POPC   C3B 1380   0.305   6.660   6.520
   79POPC   C4B 1381   0.456   6.850   6.162
   80POPC   NC3 1382   1.862   0.867   8.093
   80POPC   PO4 1383   2.138   1.484   7.949
   80POPC   GL1 1384   2.061   1.108   7.672
   80POPC   GL2 1385   1.691   1.012   7.614
   80POPC   C1A 1386   2.156   1.265   7.278
   80POPC   D2A 1387   2.198   1.627   7.038
   80POPC   C3A 1388   2.340   1.497   6.653
   80POPC   C4A 1389   2.179   1.194   6.374
   80POPC   C1B 1390   1.794   0.933   7.176
   80POPC   C2B 1391   1.903   1.214   6.820
   80POPC   C3B 1392   1.684   1.110   6.430
   80POPC   C4B 1393   1.566   0.721   6.248
   81POPC   NC3 1394   2.904  10.096   7.918
   81POPC   PO4 1395   2.235  10.039   7.889
   81POPC   GL1 1396   2.510  10.261   7.588
   81POPC   GL2 1397   2.867  10.381   7.531
   81POPC   C1A 1398   2.556  10.243   7.123
   81POPC   D2A 1399   2.401   9.984   6.784
   81POPC   C3A 1400   2.611  10.013   6.397
   81POPC   C4A 1401   2.640  10.415   6.274
   81POPC   C1B 1402   3.048  10.161   7.165
   81POPC   C2B 1403   2.964  10.387   6.751
   81POPC   C3B 1404   3.107  10.207   6.371
   81POPC   C4B 1405   3.062   9.753   6.334
   82POPC   NC3 1406   7.907  10.151   8.227
   82POPC   PO4 1407   8.224   9.605   8.066
   82POPC   GL1 1408   8.086   9.927   7.754
   82POPC   GL2 1409   7.817  10.183   7.730
   82POPC   C1A 1410   8.158  10.142   7.342
   82POPC   D2A 1411   8.230   9.983   6.927
   82POPC   C3A 1412   8.215  10.250   6.571
   82POPC   C4A 1413   7.932  10.260   6.216
   82POPC   C1B 1414   7.652  10.278   7.297
   82POPC   C2B 1415   7.768  10.247   6.845
   82POPC   C3B 1416   7.512  10.357   6.488
   82POPC   C4B 1417   7.494  10.436   6.009
   83POPC   NC3 1418   1.387   7.075   8.108
   83POPC   PO4 1419   0.832   7.458   8.218
   83POPC   GL1 1420   1.049   7.449   7.782
   83POPC   GL2 1421   1.130   7.119   7.671
   83POPC   C1A 1422   1.291   7.532   7.379
   83POPC   D2A 1423   1.245   7.329   6.956
   83POPC   C3A 1424   1.083   7.440   6.589
   83POPC   C4A 1425   1.206   7.458   6.161
   83POPC   C1B 1426   0.887   7.228   7.324
   83POPC   C2B 1427   0.738   7.135   6.914
   83POPC   C3B 1428   0.761   6.889   6.576
   83POPC   C4B 1429   0.938   7.035   6.230
   84POPC   NC3 1430   6.923  10.007   8.215
   84POPC   PO4 1431   7.126   0.091   7.968
   84POPC   GL1 1432   7.174  10.406   7.601
   84POPC   GL2 1433   7.314  10.116   7.754
   84POPC   C1A 1434   7.164  10.120   7.260
   84POPC   D2A 1435   6.931   9.920   6.945
   84POPC   C3A 1436   6.845  10.227   6.625
   84POPC   C4A 1437   7.065  10.276   6.249
   84POPC   C1B 1438   7.581   9.818   7.460
   84POPC   C2B 1439   7.493   9.847   6.999
   84POPC   C3B 1440   7.295   9.850   6.574
   84POPC   C4B 1441   7.465   9.949   6.171
   85POPC   NC3 1442   4.381   0.595   8.237
   85POPC   PO4 1443   3.794   0.663   8.014
   85POPC   GL1 1444   3.921   0.349   7.734
   85POPC   GL2 1445   4.251   0.243   7.866
   85POPC   C1A 1446   3.848   0.242   7.305
   85POPC   D2A 1447   3.843   0.485   6.952
   85POPC   C3A 1448   3.932   0.284   6.577
   85POPC   C4A 1449   3.959   0.473   6.179
   85POPC   C1B 1450   4.415   0.233   7.446
   85POPC   C2B 1451   4.287   0.235   7.010
   85POPC   C3B 1452   4.461   0.250   6.589
   85POPC   C4B 1453   4.474   0.477   6.196
   86POPC   NC3 1454   1.607   2.380   8.386
   86POPC   PO4 1455   1.470   3.008   8.001
   86POPC   GL1 1456   1.600   2.807   7.576
   86POPC   GL2 1457   1.970   2.768   7.586
   86POPC   C1A 1458   1.644   2.558   7.201
   86POPC   D2A 1459   1.665   2.350   6.789
   86POPC   C3A 1460   1.496   2.513   6.472
   86POPC   C4A 1461   1.771   2.663   6.183
   86POPC   C1B 1462   2.155   2.495   7.350
   86POPC   C2B 1463   2.108   2.534   6.952
   86POPC   C3B 1464   2.116   2.566   6.549
   86POPC   C4B 1465   2.312   2.628   6.172
   87POPC   NC3 1466   8.435   5.107   8.041
   87POPC   PO4 1467   8.844   4.685   8.391
   87POPC   GL1 1468   9.013   4.874   7.934
   87POPC   GL2 1469   8.727   4.841   7.723
   87POPC   C1A 1470   9.099   4.995   7.424
   87POPC   D2A 1471   8.874   5.134   6.988
   87POPC   C3A 1472   8.849   4.946   6.586
   87POPC   C4A 1473   8.630   5.080   6.236
   87POPC   C1B 1474   8.612   4.849   7.304
   87POPC   C2B 1475   8.728   4.563   6.955
   87POPC   C3B 1476   8.632   4.434   6.530
   87POPC   C4B 1477   8.448   4.598   6.142
   88POPC   NC3 1478  10.169   9.865   8.192
   88POPC   PO4 1479   9.789  10.407   8.185
   88POPC   GL1 1480   9.954  10.291   7.750
   88POPC   GL2 1481  10.305  10.136   7.774
   88POPC   C1A 1482   9.807  10.447   7.316
   88POPC   D2A 1483   9.578  10.396   6.913
   88POPC   C3A 1484   9.837  10.325   6.558
   88POPC   C4A 1485  10.042  10.353   6.158
   88POPC   C1B 1486  10.305  10.340   7.366
   88POPC   C2B 1487  10.187  10.280   6.951
   88POPC   C3B 1488   0.013  10.178   6.659
   88POPC   C4B 1489  10.469  10.108   6.241
   89POPC   NC3 1490   0.698   1.964   8.418
   89POPC   PO4 1491   1.354   2.004   8.288
   89POPC   GL1 1492   1.396   2.127   7.879
   89POPC   GL2 1493   1.098   1.967   7.809
   89POPC   C1A 1494   1.474   1.993   7.462
   89POPC   D2A 1495   1.359   2.096   7.079
   89POPC   C3A 1496   1.292   1.940   6.664
   89POPC   C4A 1497   1.412   1.998   6.246
   89POPC   C1B 1498   0.973   1.960   7.389
   89POPC   C2B 1499   0.867   1.920   6.993
   89POPC   C3B 1500   0.771   1.947   6.618
   89POPC   C4B 1501   0.928   1.770   6.290
   90POPC   NC3 1502   8.631   5.111   8.542
   90POPC   PO4 1503   8.200   5.490   8.038
   90POPC   GL1 1504   8.124   5.245   7.614
   90POPC   GL2 1505   8.200   4.902   7.627
   90POPC   C1A 1506   8.247   5.166   7.151
   90POPC   D2A 1507   8.378   4.901   6.775
   90POPC   C3A 1508   8.146   4.998   6.370
   90POPC   C4A 1509   8.092   5.135   5.921
   90POPC   C1B 1510   8.138   4.669   7.205
   90POPC   C2B 1511   7.876   4.800   6.817
   90POPC   C3B 1512   7.650   4.850   6.390
   90POPC   C4B 1513   7.471   4.861   5.953
   91POPC   NC3 1514   5.569   2.168   7.980
   91POPC   PO4 1515   6.083   1.668   8.028
   91POPC   GL1 1516   5.749   1.814   7.682
   91POPC   GL2 1517   5.870   2.166   7.584
   91POPC   C1A 1518   5.551   2.010   7.248
   91POPC   D2A 1519   5.750   2.170   6.868
   91POPC   C3A 1520   5.521   2.193   6.465
   91POPC   C4A 1521   5.505   1.889   6.133
   91POPC   C1B 1522   6.050   1.873   7.292
   91POPC   C2B 1523   6.090   1.785   6.862
   91POPC   C3B 1524   5.927   1.886   6.466
   91POPC   C4B 1525   5.974   1.965   6.005
   92POPC   NC3 1526   1.673   8.032   8.055
   92POPC   PO4 1527   2.272   7.702   8.151
   92POPC   GL1 1528   2.119   7.732   7.686
   92POPC   GL2 1529   1.758   7.770   7.626
   92POPC   C1A 1530   2.059   7.739   7.195
   92POPC   D2A 1531   2.337   7.977   6.893
   92POPC   C3A 1532   2.322   8.015   6.414
   92POPC   C4A 1533   2.032   7.732   6.182
   92POPC   C1B 1534   1.939   8.163   7.445
   92POPC   C2B 1535   1.839   8.182   7.007
   92POPC   C3B 1536   1.857   7.985   6.616
   92POPC   C4B 1537   1.862   8.212   6.229
   93POPC   NC3 1538   9.547   3.684   8.211
   93POPC   PO4 1539   8.835   3.715   8.229
   93POPC   GL1 1540   9.097   3.602   7.846
   93POPC   GL2 1541   9.381   3.368   7.797
   93POPC   C1A 1542   9.226   3.722   7.406
   93POPC   D2A 1543   9.201   3.921   6.993
   93POPC   C3A 1544   9.172   3.712   6.586
   93POPC   C4A 1545   9.288   3.589   6.145
   93POPC   C1B 1546   9.226   3.207   7.383
   93POPC   C2B 1547   9.356   3.417   6.985
   93POPC   C3B 1548   9.542   3.357   6.571
   93POPC   C4B 1549   9.461   3.100   6.218
   94POPC   NC3 1550   0.513   4.431   8.118
   94POPC   PO4 1551   0.297   5.054   8.277
   94POPC   GL1 1552   0.263   4.839   7.826
   94POPC   GL2 1553   0.609   4.810   7.777
   94POPC   C1A 1554   0.364   4.750   7.317
   94POPC   D2A 1555   0.370   4.554   6.861
   94POPC   C3A 1556   0.229   4.745   6.450
   94POPC   C4A 1557   0.190   4.731   5.974
   94POPC   C1B 1558   0.468   5.205   7.515
   94POPC   C2B 1559   0.370   5.209   7.053
   94POPC   C3B 1560   0.302   5.257   6.595
   94POPC   C4B 1561   0.440   5.130   6.153
   95POPC   NC3 1562   1.237   8.667   8.152
   95POPC   PO4 1563   1.589   9.285   8.006
   95POPC   GL1 1564   1.376   8.923   7.728
   95POPC   GL2 1565   1.031   8.688   7.664
   95POPC   C1A 1566   1.279   8.943   7.290
   95POPC   D2A 1567   1.077   8.852   6.900
   95POPC   C3A 1568   1.283   9.017   6.551
   95POPC   C4A 1569   1.301   8.813   6.168
   95POPC   C1B 1570   1.100   8.436   7.246
   95POPC   C2B 1571   1.344   8.348   6.842
   95POPC   C3B 1572   1.276   8.340   6.370
   95POPC   C4B 1573   1.049   8.416   5.956
   96POPC   NC3 1574   6.775   0.725   7.953
   96POPC   PO4 1575   6.129   0.800   8.114
   96POPC   GL1 1576   6.353   0.972   7.774
   96POPC   GL2 1577   6.402   1.316   7.823
   96POPC   C1A 1578   6.438   0.952   7.337
   96POPC   D2A 1579   6.176   0.827   6.997
   96POPC   C3A 1580   6.326   0.914   6.599
   96POPC   C4A 1581   6.091   1.026   6.244
   96POPC   C1B 1582   6.169   1.383   7.424
   96POPC   C2B 1583   6.259   1.331   6.978
   96POPC   C3B 1584   6.293   1.429   6.534
   96POPC   C4B 1585   6.546   1.232   6.214
   97POPC   NC3 1586   3.258   1.761   8.216
   97POPC   PO4 1587   3.813   1.361   8.227
   97POPC   GL1 1588   3.808   1.599   7.795
   97POPC   GL2 1589   3.582   1.904   7.755
   97POPC   C1A 1590   3.678   1.586   7.338
   97POPC   D2A 1591   3.387   1.530   6.987
   97POPC   C3A 1592   3.465   1.650   6.538
   97POPC   C4A 1593   3.262   1.844   6.170
   97POPC   C1B 1594   3.481   2.054   7.328
   97POPC   C2B 1595   3.627   2.016   6.912
   97POPC   C3B 1596   3.525   2.154   6.503
   97POPC   C4B 1597   3.720   2.175   6.116
   98POPC   NC3 1598   6.343   0.484   8.396
   98POPC   PO4 1599   5.776   0.188   8.256
   98POPC   GL1 1600   6.047   0.100   7.832
   98POPC   GL2 1601   6.290   0.399   7.769
   98POPC   C1A 1602   6.173   0.028   7.353
   98POPC   D2A 1603   6.087   0.332   6.985
   98POPC   C3A 1604   6.270   0.392   6.553
   98POPC   C4A 1605   6.177   0.199   6.134
   98POPC   C1B 1606   6.471   0.434   7.334
   98POPC   C2B 1607   6.643   0.557   6.948
   98POPC   C3B 1608   6.765   0.616   6.539
   98POPC   C4B 1609   6.560   0.706   6.182
   99POPC   NC3 1610   1.269   2.615   7.920
   99POPC   PO4 1611   0.762   2.275   8.066
   99POPC   GL1 1612   0.863   2.407   7.640
   99POPC   GL2 1613   0.824   2.754   7.630
   99POPC   C1A 1614   0.771   2.420   7.178
   99POPC   D2A 1615   1.054   2.385   6.804
   99POPC   C3A 1616   1.015   2.332   6.360
   99POPC   C4A 1617   0.883   2.572   5.983
   99POPC   C1B 1618   1.153   2.776   7.307
   99POPC   C2B 1619   1.293   2.841   6.898
   99POPC   C3B 1620   1.061   2.827   6.519
   99POPC   C4B 1621   1.270   2.848   6.153
  100POPC   NC3 1622   1.957   4.003   8.160
  100POPC   PO4 1623   2.309   4.360   7.899
  100POPC   GL1 1624   1.910   4.382   7.689
  100POPC   GL2 1625   1.696   4.092   7.711
  100POPC   C1A 1626   1.662   4.417   7.292
  100POPC   D2A 1627   1.739   4.685   6.922
  100POPC   C3A 1628   1.780   4.436   6.533
  100POPC   C4A 1629   2.114   4.358   6.221
  100POPC   C1B 1630   1.949   4.003   7.354
  100POPC   C2B 1631   1.902   4.034   6.920
  100POPC   C3B 1632   2.056   3.937   6.522
  100POPC   C4B 1633   1.733   4.013   6.236
  101POPC   NC3 1634   8.132   2.666   8.137
  101POPC   PO4 1635   8.145   3.212   7.813
  101POPC   GL1 1636   7.961   2.808   7.662
  101POPC   GL2 1637   8.114   2.432   7.694
  101POPC   C1A 1638   7.839   2.971   7.255
  101POPC   D2A 1639   8.046   3.136   6.893
  101POPC   C3A 1640   7.868   3.062   6.469
  101POPC   C4A 1641   8.094   3.212   6.093
  101POPC   C1B 1642   8.016   2.501   7.258
  101POPC   C2B 1643   8.185   2.637   6.886
  101POPC   C3B 1644   8.043   2.588   6.507
  101POPC   C4B 1645   8.083   2.711   6.133
  102POPC   NC3 1646   1.245   0.362   8.042
  102POPC   PO4 1647   0.597   0.511   8.043
  102POPC   GL1 1648   0.771   0.242   7.702
  102POPC   GL2 1649   1.062   0.400   7.553
  102POPC   C1A 1650   0.850  10.490   7.321
  102POPC   D2A 1651   1.099   0.156   6.959
  102POPC   C3A 1652   0.932  10.472   6.561
  102POPC   C4A 1653   0.745   0.156   6.210
  102POPC   C1B 1654   1.405   0.604   7.318
  102POPC   C2B 1655   1.512   0.586   6.872
  102POPC   C3B 1656   1.334   0.367   6.513
  102POPC   C4B 1657   1.217   0.323   6.081
  103POPC   NC3 1658  10.364   4.985   8.144
  103POPC   PO4 1659   9.750   4.867   8.307
  103POPC   GL1 1660   9.964   4.749   7.885
  103POPC   GL2 1661  10.053   5.062   7.733
  103POPC   C1A 1662   9.965   4.683   7.412
  103POPC   D2A 1663   9.952   4.942   7.028
  103POPC   C3A 1664   9.847   4.724   6.634
  103POPC   C4A 1665   9.890   4.981   6.261
  103POPC   C1B 1666  10.409   4.943   7.459
  103POPC   C2B 1667  10.468   4.880   7.008
  103POPC   C3B 1668  10.305   4.970   6.624
  103POPC   C4B 1669  10.437   5.087   6.229
  104POPC   NC3 1670  10.254   7.141   7.933
  104POPC   PO4 1671   0.298   6.802   8.152
  104POPC   GL1 1672   0.016   6.718   7.748
  104POPC   GL2 1673  10.148   6.855   7.542
  104POPC   C1A 1674   0.087   6.834   7.317
  104POPC   D2A 1675  10.243   6.865   7.026
  104POPC   C3A 1676  10.359   6.889   6.623
  104POPC   C4A 1677  10.104   6.816   6.366
  104POPC   C1B 1678  10.220   7.289   7.311
  104POPC   C2B 1679  10.253   7.508   6.924
  104POPC   C3B 1680  10.377   7.419   6.518
  104POPC   C4B 1681  10.119   7.367   6.193
  105POPC   NC3 1682   8.383   5.894   7.971
  105POPC   PO4 1683   8.336   6.535   8.081
  105POPC   GL1 1684   8.362   6.301   7.657
  105POPC   GL2 1685   8.040   6.138   7.651
  105POPC   C1A 1686   8.309   6.130   7.215
  105POPC   D2A 1687   8.209   6.421   6.881
  105POPC   C3A 1688   8.121   6.371   6.479
  105POPC   C4A 1689   8.315   6.106   6.196
  105POPC   C1B 1690   7.929   6.467   7.318
  105POPC   C2B 1691   7.714   6.523   6.882
  105POPC   C3B 1692   7.623   6.257   6.513
  105POPC   C4B 1693   7.813   6.103   6.137
  106POPC   NC3 1694   1.780   1.864   8.096
  106POPC   PO4 1695   1.752   2.575   7.986
  106POPC   GL1 1696   1.846   2.255   7.650
  106POPC   GL2 1697   1.974   1.882   7.626
  106POPC   C1A 1698   1.891   2.091   7.173
  106POPC   D2A 1699   2.090   2.041   6.753
  106POPC   C3A 1700   1.895   2.145   6.361
  106POPC   C4A 1701   1.833   2.221   5.937
  106POPC   C1B 1702   1.752   1.597   7.310
  106POPC   C2B 1703   1.687   1.687   6.870
  106POPC   C3B 1704   1.870   1.625   6.471
  106POPC   C4B 1705   2.232   1.759   6.224
  107POPC   NC3 1706   9.520   6.330   8.278
  107POPC   PO4 1707   8.848   6.293   8.231
  107POPC   GL1 1708   9.182   6.312   7.832
  107POPC   GL2 1709   9.374   6.559   7.797
  107POPC   C1A 1710   9.327   6.256   7.369
  107POPC   D2A 1711   9.099   6.376   6.969
  107POPC   C3A 1712   9.236   6.352   6.529
  107POPC   C4A 1713   9.395   6.489   6.118
  107POPC   C1B 1714   9.537   6.706   7.396
  107POPC   C2B 1715   9.552   6.573   6.965
  107POPC   C3B 1716   9.530   6.789   6.577
  107POPC   C4B 1717   9.656   6.915   6.187
  108POPC   NC3 1718   2.237   2.643   8.073
  108POPC   PO4 1719   2.879   2.360   8.062
  108POPC   GL1 1720   2.864   2.544   7.638
  108POPC   GL2 1721   2.535   2.674   7.626
  108POPC   C1A 1722   2.808   2.410   7.232
  108POPC   D2A 1723   2.585   2.399   6.887
  108POPC   C3A 1724   2.606   2.699   6.639
  108POPC   C4A 1725   2.836   2.535   6.334
  108POPC   C1B 1726   2.490   2.816   7.164
  108POPC   C2B 1727   2.268   3.047   6.868
  108POPC   C3B 1728   2.280   3.059   6.419
  108POPC   C4B 1729   2.678   3.006   6.212
  109POPC   NC3 1730   6.599  10.400   7.908
  109POPC   PO4 1731   6.629   9.725   8.010
  109POPC   GL1 1732   6.535   9.831   7.607
  109POPC   GL2 1733   6.812  10.017   7.597
  109POPC   C1A 1734   6.289   9.964   7.238
  109POPC   D2A 1735   6.420  10.008   6.821
  109POPC   C3A 1736   6.243   9.804   6.440
  109POPC   C4A 1737   6.269   9.768   5.938
  109POPC   C1B 1738   6.679  10.318   7.252
  109POPC   C2B 1739   6.491   0.033   6.892
  109POPC   C3B 1740   6.307  10.375   6.509
  109POPC   C4B 1741   6.551  10.139   6.196
  110POPC   NC3 1742   2.056   5.516   8.101
  110POPC   PO4 1743   1.598   5.970   8.077
  110POPC   GL1 1744   1.564   5.926   7.628
  110POPC   GL2 1745   1.850   5.734   7.669
  110POPC   C1A 1746   1.590   5.752   7.224
  110POPC   D2A 1747   1.781   5.875   6.855
  110POPC   C3A 1748   1.574   5.728   6.511
  110POPC   C4A 1749   1.621   5.572   6.101
  110POPC   C1B 1750   2.046   5.570   7.321
  110POPC   C2B 1751   2.132   5.471   6.915
  110POPC   C3B 1752   2.012   5.497   6.501
  110POPC   C4B 1753   2.112   5.460   6.081
  111POPC   NC3 1754   0.762   3.474   7.979
  111POPC   PO4 1755   0.160   3.077   8.028
  111POPC   GL1 1756   0.453   3.159   7.712
  111POPC   GL2 1757   0.376   3.524   7.658
  111POPC   C1A 1758   0.724   3.280   7.351
  111POPC   D2A 1759   0.649   3.580   7.008
  111POPC   C3A 1760   0.725   3.368   6.625
  111POPC   C4A 1761   0.581   3.375   6.175
  111POPC   C1B 1762   0.216   3.404   7.271
  111POPC   C2B 1763   0.049   3.596   6.898
  111POPC   C3B 1764   0.265   3.575   6.527
  111POPC   C4B 1765   0.348   3.837   6.158
  112POPC   NC3 1766   6.434   2.658   8.041
  112POPC   PO4 1767   6.913   3.039   7.963
  112POPC   GL1 1768   6.668   2.889   7.608
  112POPC   GL2 1769   6.695   2.542   7.629
  112POPC   C1A 1770   6.380   3.021   7.244
  112POPC   D2A 1771   6.394   3.162   6.788
  112POPC   C3A 1772   6.693   3.000   6.446
  112POPC   C4A 1773   6.735   3.033   5.983
  112POPC   C1B 1774   6.533   2.533   7.227
  112POPC   C2B 1775   6.578   2.681   6.823
  112POPC   C3B 1776   6.240   2.733   6.524
  112POPC   C4B 1777   6.005   2.383   6.306
  113POPC   NC3 1778  10.111   8.947   8.048
  113POPC   PO4 1779  10.081   8.265   8.068
  113POPC   GL1 1780  10.099   8.471   7.660
  113POPC   GL2 1781   9.960   8.806   7.576
  113POPC   C1A 1782  10.069   8.305   7.238
  113POPC   D2A 1783   9.803   8.433   6.915
  113POPC   C3A 1784   9.903   8.349   6.530
  113POPC   C4A 1785   9.932   8.693   6.275
  113POPC   C1B 1786  10.184   8.802   7.184
  113POPC   C2B 1787  10.251   8.675   6.755
  113POPC   C3B 1788  10.359   8.927   6.402
  113POPC   C4B 1789   0.011   9.254   6.176
  114POPC   NC3 1790  10.148   3.088   8.067
  114POPC   PO4 1791  10.017   3.843   8.020
  114POPC   GL1 1792  10.002   3.480   7.757
  114POPC   GL2 1793  10.368   3.390   7.694
  114POPC   C1A 1794   9.718   3.341   7.401
  114POPC   D2A 1795   9.697   3.045   7.044
  114POPC   C3A 1796   9.898   2.994   6.631
  114POPC   C4A 1797   9.932   3.259   6.239
  114POPC   C1B 1798  10.198   3.439   7.267
  114POPC   C2B 1799  10.007   3.439   6.866
  114POPC   C3B 1800  10.096   3.667   6.480
  114POPC   C4B 1801  10.406   3.582   6.159
  115POPC   NC3 1802   7.321   0.461   8.186
  115POPC   PO4 1803   6.667   0.308   8.124
  115POPC   GL1 1804   6.833   0.330   7.660
  115POPC   GL2 1805   7.201   0.483   7.669
  115POPC   C1A 1806   6.983   0.261   7.248
  115POPC   D2A 1807   7.191   0.403   6.880
  115POPC   C3A 1808   7.049   0.194   6.536
  115POPC   C4A 1809   6.669   0.144   6.301
  115POPC   C1B 1810   7.371   0.680   7.292
  115POPC   C2B 1811   7.303   0.904   6.873
  115POPC   C3B 1812   7.276   0.704   6.467
  115POPC   C4B 1813   7.479   0.346   6.311
  116POPC   NC3 1814   9.235  10.220   8.218
  116POPC   PO4 1815   9.319   0.413   8.210
  116POPC   GL1 1816   9.424   0.043   7.847
  116POPC   GL2 1817   9.460  10.157   7.787
  116POPC   C1A 1818   9.288  10.419   7.397
  116POPC   D2A 1819   9.185  10.076   7.093
  116POPC   C3A 1820   9.159  10.218   6.646
  116POPC   C4A 1821   9.387  10.278   6.294
  116POPC   C1B 1822   9.642   9.981   7.420
  116POPC   C2B 1823   9.756   9.910   6.982
  116POPC   C3B 1824   9.571   9.878   6.562
  116POPC   C4B 1825   9.769   9.934   6.166
  117POPC   NC3 1826   7.496   1.190   7.966
  117POPC   PO4 1827   8.181   1.458   7.972
  117POPC   GL1 1828   8.084   1.264   7.563
  117POPC   GL2 1829   7.798   1.020   7.577
  117POPC   C1A 1830   8.290   0.972   7.273
  117POPC   D2A 1831   8.378   0.932   6.829
  117POPC   C3A 1832   8.078   1.141   6.572
  117POPC   C4A 1833   7.978   1.515   6.345
  117POPC   C1B 1834   7.557   1.154   7.264
  117POPC   C2B 1835   7.640   1.306   6.848
  117POPC   C3B 1836   7.579   1.127   6.466
  117POPC   C4B 1837   7.701   1.134   6.056
  118POPC   NC3 1838   9.411   9.235   8.023
  118POPC   PO4 1839   9.074   9.811   8.040
  118POPC   GL1 1840   9.334   9.647   7.683
  118POPC   GL2 1841   9.691   9.495   7.648
  118POPC   C1A 1842   9.380   9.580   7.237
  118POPC   D2A 1843   9.497   9.454   6.836
  118POPC   C3A 1844   9.144   9.471   6.521
  118POPC   C4A 1845   9.124   9.847   6.255
  118POPC   C1B 1846   9.726   9.174   7.291
  118POPC   C2B 1847   9.780   8.972   6.860
  118POPC   C3B 1848   9.607   9.122   6.465
  118POPC   C4B 1849   9.538   9.481   6.181
  119POPC   NC3 1850   0.412   5.485   8.135
  119POPC   PO4 1851   0.726   6.023   7.966
  119POPC   GL1 1852   0.513   5.788   7.683
  119POPC   GL2 1853   0.239   5.702   7.717
  119POPC   C1A 1854   0.592   5.812   7.274
  119POPC   D2A 1855   0.797   5.877   6.904
  119POPC   C3A 1856   0.580   5.755   6.547
  119POPC   C4A 1857   0.621   5.822   6.145
  119POPC   C1B 1858   0.123   5.579   7.321
  119POPC   C2B 1859   0.245   5.702   6.918
  119POPC   C3B 1860   0.050   5.711   6.542
  119POPC   C4B 1861   0.141   5.545   6.191
  120POPC   NC3 1862   4.227   1.536   8.311
  120POPC   PO4 1863   4.388   2.174   8.136
  120POPC   GL1 1864   4.282   1.923   7.745
  120POPC   GL2 1865   4.373   1.551   7.800
  120POPC   C1A 1866   4.003   2.022   7.364
  120POPC   D2A 1867   4.105   2.241   6.930
  120POPC   C3A 1868   4.067   2.071   6.506
  120POPC   C4A 1869   4.215   2.036   6.054
  120POPC   C1B 1870   4.182   1.556   7.383
  120POPC   C2B 1871   4.036   1.706   6.971
  120POPC   C3B 1872   3.986   1.572   6.561
  120POPC   C4B 1873   3.862   1.686   6.151
  121POPC   NC3 1874   2.182   9.566   8.012
  121POPC   PO4 1875   1.579   9.837   8.042
  121POPC   GL1 1876   1.813   9.675   7.657
  121POPC   GL2 1877   2.171   9.730   7.518
  121POPC   C1A 1878   1.857   9.571   7.175
  121POPC   D2A 1879   2.054   9.624   6.772
  121POPC   C3A 1880   1.897   9.468   6.400
  121POPC   C4A 1881   1.633   9.201   6.164
  121POPC   C1B 1882   2.177   9.281   7.435
  121POPC   C2B 1883   2.105   9.133   7.022
  121POPC   C3B 1884   2.287   9.166   6.611
  121POPC   C4B 1885   2.132   9.078   6.185
  122POPC   NC3 1886   8.701   1.595   8.020
  122POPC   PO4 1887   8.394   2.254   8.184
  122POPC   GL1 1888   8.495   2.032   7.800
  122POPC   GL2 1889   8.877   2.035   7.782
  122POPC   C1A 1890   8.392   1.753   7.409
  122POPC   D2A 1891   8.342   1.464   7.032
  122POPC   C3A 1892   8.364   1.735   6.672
  122POPC   C4A 1893   8.404   1.848   6.233
  122POPC   C1B 1894   8.735   2.135   7.362
  122POPC   C2B 1895   8.739   1.942   6.959
  122POPC   C3B 1896   8.798   2.076   6.519
  122POPC   C4B 1897   8.739   2.256   6.082
  123POPC   NC3 1898   8.625   9.844   7.950
  123POPC   PO4 1899   8.794  10.373   8.282
  123POPC   GL1 1900   8.923  10.366   7.811
  123POPC   GL2 1901   8.977  10.050   7.603
  123POPC   C1A 1902   8.766  10.466   7.368
  123POPC   D2A 1903   8.462  10.491   7.024
  123POPC   C3A 1904   8.660   0.043   6.635
  123POPC   C4A 1905   8.917   0.041   6.266
  123POPC   C1B 1906   8.669   9.971   7.260
  123POPC   C2B 1907   8.718  10.073   6.829
  123POPC   C3B 1908   8.678  10.094   6.373
  123POPC   C4B 1909   8.341   9.993   6.093
  124POPC   NC3 1910   1.915   3.089   7.970
  124POPC   PO4 1911   1.583   3.721   8.153
  124POPC   GL1 1912   1.819   3.574   7.776
  124POPC   GL2 1913   1.665   3.297   7.589
  124POPC   C1A 1914   2.039   3.518   7.361
  124POPC   D2A 1915   2.214   3.595   6.961
  124POPC   C3A 1916   2.007   3.422   6.628
  124POPC   C4A 1917   1.938   3.544   6.205
  124POPC   C1B 1918   1.829   3.074   7.191
  124POPC   C2B 1919   1.779   2.922   6.751
  124POPC   C3B 1920   1.667   3.128   6.356
  124POPC   C4B 1921   1.903   3.106   5.960
  125POPC   NC3 1922   4.842   2.053   8.041
  125POPC   PO4 1923   5.270   2.399   7.722
  125POPC   GL1 1924   5.192   1.983   7.628
  125POPC   GL2 1925   4.821   2.028   7.532
  125POPC   C1A 1926   5.182   1.680   7.336
  125POPC   D2A 1927   4.986   1.982   7.039
  125POPC   C3A 1928   5.079   1.931   6.616
  125POPC   C4A 1929   5.031   1.831   6.208
  125POPC   C1B 1930   4.490   2.020   7.204
  125POPC   C2B 1931   4.496   1.819   6.795
  125POPC   C3B 1932   4.573   1.951   6.390
  125POPC   C4B 1933   4.815   2.305   6.246
  126POPC   NC3 1934   2.801   9.330   8.187
  126POPC   PO4 1935   2.448   9.808   8.322
  126POPC   GL1 1936   2.632   9.694   7.845
  126POPC   GL2 1937   2.836   9.415   7.700
  126POPC   C1A 1938   2.655   9.783   7.379
  126POPC   D2A 1939   2.496   9.501   7.048
  126POPC   C3A 1940   2.655   9.541   6.631
  126POPC   C4A 1941   2.410   9.521   6.267
  126POPC   C1B 1942   2.994   9.412   7.300
  126POPC   C2B 1943   2.928   9.211   6.934
  126POPC   C3B 1944   3.082   9.253   6.536
  126POPC   C4B 1945   2.869   9.315   6.164
  127POPC   NC3 1946   7.367   2.043   8.071
  127POPC   PO4 1947   6.784   2.338   8.105
  127POPC   GL1 1948   7.039   2.180   7.721
  127POPC   GL2 1949   7.009   1.815   7.748
  127POPC   C1A 1950   7.421   2.096   7.403
  127POPC   D2A 1951   7.682   2.174   6.987
  127POPC   C3A 1952   7.482   2.288   6.597
  127POPC   C4A 1953   7.318   2.240   6.176
  127POPC   C1B 1954   6.968   1.883   7.291
  127POPC   C2B 1955   7.232   1.905   6.929
  127POPC   C3B 1956   7.082   1.938   6.505
  127POPC   C4B 1957   6.837   1.635   6.285
  128POPC   NC3 1958   3.458   0.249   8.066
  128POPC   PO4 1959   3.084   0.746   7.926
  128POPC   GL1 1960   3.098   0.333   7.663
  128POPC   GL2 1961   3.421   0.155   7.571
  128POPC   C1A 1962   3.105   0.159   7.194
  128POPC   D2A 1963   3.423   0.195   6.838
  128POPC   C3A 1964   3.218   0.273   6.418
  128POPC   C4A 1965   3.012   0.204   6.007
  128POPC   C1B 1966   3.425   0.544   7.278
  128POPC   C2B 1967   3.465   0.816   6.900
  128POPC   C3B 1968   3.574   0.652   6.536
  128POPC   C4B 1969   3.428   0.762   6.193
  129POPC   NC3 1970   8.060   0.986   8.010
  129POPC   PO4 1971   8.663   0.758   8.049
  129POPC   GL1 1972   8.620   1.093   7.732
  129POPC   GL2 1973   8.860   0.899   7.555
  129POPC   C1A 1974   8.729   1.382   7.365
  129POPC   D2A 1975   8.848   1.442   6.892
  129POPC   C3A 1976   8.557   1.315   6.524
  129POPC   C4A 1977   8.488   0.914   6.308
  129POPC   C1B 1978   8.816   0.951   7.114
  129POPC   C2B 1979   8.871   0.971   6.676
  129POPC   C3B 1980   8.961   1.131   6.263
  129POPC   C4B 1981   9.234   1.008   5.949
  130POPC   NC3 1982   8.337   7.935   8.221
  130POPC   PO4 1983   7.663   7.962   8.141
  130POPC   GL1 1984   7.776   8.041   7.718
  130POPC   GL2 1985   8.137   7.905   7.687
  130POPC   C1A 1986   7.629   8.281   7.339
  130POPC   D2A 1987   7.627   8.087   6.909
  130POPC   C3A 1988   7.483   8.086   6.465
  130POPC   C4A 1989   7.441   8.482   6.255
  130POPC   C1B 1990   8.048   7.896   7.213
  130POPC   C2B 1991   7.862   7.642   6.866
  130POPC   C3B 1992   7.852   7.663   6.428
  130POPC   C4B 1993   8.168   7.889   6.264
  131POPC   NC3 1994   7.262   7.764   8.054
  131POPC   PO4 1995   7.234   8.415   8.189
  131POPC   GL1 1996   7.270   8.191   7.777
  131POPC   GL2 1997   6.881   8.189   7.858
  131POPC   C1A 1998   7.398   7.851   7.391
  131POPC   D2A 1999   7.216   7.779   6.949
  131POPC   C3A 2000   7.349   7.598   6.532
  131POPC   C4A 2001   7.449   7.684   6.080
  131POPC   C1B 2002   6.923   7.970   7.457
  131POPC   C2B 2003   6.733   7.950   7.054
  131POPC   C3B 2004   6.853   7.975   6.630
  131POPC   C4B 2005   6.983   7.830   6.232
  132POPC   NC3 2006   0.218   0.754   8.142
  132POPC   PO4 2007  10.431   0.150   7.938
  132POPC   GL1 2008   0.271   0.324   7.655
  132POPC   GL2 2009   0.394   0.682   7.633
  132POPC   C1A 2010   0.511   0.386   7.243
  132POPC   D2A 2011   0.480   0.734   6.940
  132POPC   C3A 2012   0.407   0.602   6.526
  132POPC   C4A 2013   0.348   0.506   6.142
  132POPC   C1B 2014   0.753   0.836   7.398
  132POPC   C2B 2015   0.988   0.685   7.030
  132POPC   C3B 2016   0.876   0.504   6.645
  132POPC   C4B 2017   0.849   0.659   6.231
  133POPC   NC3 2018   4.218   8.090   8.082
  133POPC   PO4 2019   3.813   7.662   8.108
  133POPC   GL1 2020   3.889   7.888   7.706
  133POPC   GL2 2021   4.246   7.850   7.643
  133POPC   C1A 2022   3.931   7.937   7.225
  133POPC   D2A 2023   3.892   8.142   6.786
  133POPC   C3A 2024   3.973   7.905   6.366
  133POPC   C4A 2025   3.667   7.662   6.078
  133POPC   C1B 2026   4.410   8.120   7.319
  133POPC   C2B 2027   4.365   7.965   6.909
  133POPC   C3B 2028   4.535   7.954   6.517
  133POPC   C4B 2029   4.452   8.040   6.127
  134POPC   NC3 2030   8.542   8.581   8.082
  134POPC   PO4 2031   9.162   8.076   8.077
  134POPC   GL1 2032   9.051   8.294   7.672
  134POPC   GL2 2033   8.800   8.549   7.659
  134POPC   C1A 2034   9.109   8.418   7.299
  134POPC   D2A 2035   8.880   8.715   7.108
  134POPC   C3A 2036   8.769   8.596   6.691
  134POPC   C4A 2037   9.021   8.434   6.362
  134POPC   C1B 2038   8.463   8.731   7.433
  134POPC   C2B 2039   8.380   8.744   6.999
  134POPC   C3B 2040   8.270   8.727   6.565
  134POPC   C4B 2041   8.551   8.689   6.209
  135POPC   NC3 2042   0.431  10.496   8.046
  135POPC   PO4 2043   0.137   9.878   8.206
  135POPC   GL1 2044   0.326  10.050   7.766
  135POPC   GL2 2045   0.693  10.165   7.716
  135POPC   C1A 2046   0.329  10.383   7.398
  135POPC   D2A 2047   0.148   0.069   7.009
  135POPC   C3A 2048   0.369   0.077   6.585
  135POPC   C4A 2049   0.279  10.488   6.136
  135POPC   C1B 2050   0.574   9.959   7.291
  135POPC   C2B 2051   0.504  10.173   6.904
  135POPC   C3B 2052   0.493  10.058   6.470
  135POPC   C4B 2053   0.665  10.151   6.079
  136POPC   NC3 2054   9.779   1.098   8.156
  136POPC   PO4 2055   9.951   1.630   8.279
  136POPC   GL1 2056   9.924   1.449   7.831
  136POPC   GL2 2057  10.238   1.398   7.649
  136POPC   C1A 2058   9.809   1.562   7.396
  136POPC   D2A 2059   9.998   1.405   7.015
  136POPC   C3A 2060   9.818   1.538   6.632
  136POPC   C4A 2061  10.021   1.681   6.307
  136POPC   C1B 2062  10.270   1.089   7.338
  136POPC   C2B 2063  10.191   0.932   6.932
  136POPC   C3B 2064  10.218   1.188   6.579
  136POPC   C4B 2065  10.190   1.032   6.193
  137POPC   NC3 2066   0.603   6.456   7.987
  137POPC   PO4 2067   0.029   6.029   8.086
  137POPC   GL1 2068   0.175   6.214   7.683
  137POPC   GL2 2069   0.529   6.274   7.534
  137POPC   C1A 2070   0.178   6.091   7.246
  137POPC   D2A 2071   0.435   6.207   6.920
  137POPC   C3A 2072   0.272   6.155   6.540
  137POPC   C4A 2073   0.130   6.058   6.134
  137POPC   C1B 2074   0.842   6.305   7.221
  137POPC   C2B 2075   0.887   6.460   6.830
  137POPC   C3B 2076   0.775   6.265   6.488
  137POPC   C4B 2077   0.538   6.344   6.144
  138POPC   NC3 2078   9.139   0.804   7.991
  138POPC   PO4 2079   9.167   1.532   8.119
  138POPC   GL1 2080   9.124   1.320   7.725
  138POPC   GL2 2081   9.468   1.203   7.703
  138POPC   C1A 2082   9.214   1.282   7.267
  138POPC   D2A 2083   9.490   1.286   6.939
  138POPC   C3A 2084   9.351   1.326   6.525
  138POPC   C4A 2085   9.511   1.564   6.170
  138POPC   C1B 2086   9.729   1.068   7.342
  138POPC   C2B 2087   9.697   0.821   6.979
  138POPC   C3B 2088   9.765   0.989   6.573
  138POPC   C4B 2089   9.690   1.085   6.149
  139POPC   NC3 2090   2.158  10.485   8.013
  139POPC   PO4 2091   2.323   0.744   8.097
  139POPC   GL1 2092   2.109   0.556   7.752
  139POPC   GL2 2093   1.719   0.518   7.755
  139POPC   C1A 2094   2.208   0.657   7.345
  139POPC   D2A 2095   2.024   0.499   6.992
  139POPC   C3A 2096   1.973   0.736   6.647
  139POPC   C4A 2097   2.074   0.558   6.278
  139POPC   C1B 2098   1.779   0.275   7.413
  139POPC   C2B 2099   1.681   0.113   7.008
  139POPC   C3B 2100   1.827   0.221   6.594
  139POPC   C4B 2101   1.711   0.225   6.167
  140POPC   NC3 2102   5.248   9.578   8.283
  140POPC   PO4 2103   4.841   9.093   8.073
  140POPC   GL1 2104   4.809   9.254   7.704
  140POPC   GL2 2105   5.008   9.506   7.681
  140POPC   C1A 2106   4.905   9.108   7.313
  140POPC   D2A 2107   4.689   9.164   6.975
  140POPC   C3A 2108   4.859   9.155   6.617
  140POPC   C4A 2109   4.755   8.929   6.277
  140POPC   C1B 2110   4.828   9.609   7.274
  140POPC   C2B 2111   4.730   9.674   6.823
  140POPC   C3B 2112   4.810   9.616   6.409
  140POPC   C4B 2113   4.943   9.515   5.989
  141POPC   NC3 2114   9.562   1.893   8.226
  141POPC   PO4 2115   9.186   2.383   8.127
  141POPC   GL1 2116   9.397   2.086   7.784
  141POPC   GL2 2117   9.464   1.730   7.746
  141POPC   C1A 2118   9.558   2.037   7.333
  141POPC   D2A 2119   9.867   1.923   6.993
  141POPC   C3A 2120   9.754   2.087   6.587
  141POPC   C4A 2121   9.603   2.084   6.180
  141POPC   C1B 2122   9.130   1.772   7.411
  141POPC   C2B 2123   9.257   1.759   6.970
  141POPC   C3B 2124   9.280   1.852   6.534
  141POPC   C4B 2125   9.100   1.890   6.120
  142POPC   NC3 2126  10.203   2.008   8.331
  142POPC   PO4 2127  10.158   2.621   8.038
  142POPC   GL1 2128  10.123   2.682   7.624
  142POPC   GL2 2129  10.044   3.001   7.571
  142POPC   C1A 2130  10.072   2.716   7.153
  142POPC   D2A 2131   9.773   2.534   6.900
  142POPC   C3A 2132  10.075   2.500   6.602
  142POPC   C4A 2133  10.075   2.326   6.209
  142POPC   C1B 2134  10.440   2.986   7.360
  142POPC   C2B 2135  10.450   3.100   6.934
  142POPC   C3B 2136  10.357   3.205   6.523
  142POPC   C4B 2137  10.228   2.845   6.261
  143POPC   NC3 2138   4.496   9.509   8.069
  143POPC   PO4 2139   3.906   9.181   8.008
  143POPC   GL1 2140   4.229   9.218   7.732
  143POPC   GL2 2141   4.112   9.559   7.690
  143POPC   C1A 2142   4.424   9.324   7.373
  143POPC   D2A 2143   4.304   9.509   7.009
  143POPC   C3A 2144   4.388   9.333   6.597
  143POPC   C4A 2145   4.427   9.428   6.155
  143POPC   C1B 2146   3.913   9.351   7.295
  143POPC   C2B 2147   3.884   9.335   6.815
  143POPC   C3B 2148   3.929   9.361   6.396
  143POPC   C4B 2149   3.996   9.684   6.192
  144POPC   NC3 2150   4.952   8.621   8.123
  144POPC   PO4 2151   5.506   8.750   7.974
  144POPC   GL1 2152   5.160   8.773   7.645
  144POPC   GL2 2153   4.781   8.743   7.666
  144POPC   C1A 2154   5.223   8.738   7.208
  144POPC   D2A 2155   5.326   9.006   6.904
  144POPC   C3A 2156   5.235   8.837   6.530
  144POPC   C4A 2157   5.166   8.522   6.252
  144POPC   C1B 2158   4.779   8.509   7.269
  144POPC   C2B 2159   4.794   8.677   6.834
  144POPC   C3B 2160   4.690   8.454   6.451
  144POPC   C4B 2161   4.527   8.535   6.041
  145POPC   NC3 2162   8.684   4.152   8.267
  145POPC   PO4 2163   8.395   4.658   8.056
  145POPC   GL1 2164   8.359   4.426   7.666
  145POPC   GL2 2165   8.646   4.384   7.452
  145POPC   C1A 2166   8.224   4.156   7.297
  145POPC   D2A 2167   8.316   4.256   6.886
  145POPC   C3A 2168   8.274   4.018   6.498
  145POPC   C4A 2169   8.114   4.140   6.081
  145POPC   C1B 2170   8.734   4.060   7.170
  145POPC   C2B 2171   8.719   3.939   6.771
  145POPC   C3B 2172   8.757   3.889   6.365
  145POPC   C4B 2173   8.738   4.182   6.083
  146POPC   NC3 2174   7.133   2.675   8.100
  146POPC   PO4 2175   7.721   2.342   8.063
  146POPC   GL1 2176   7.497   2.504   7.692
  146POPC   GL2 2177   7.177   2.695   7.600
  146POPC   C1A 2178   7.505   2.579   7.239
  146POPC   D2A 2179   7.678   2.702   6.858
  146POPC   C3A 2180   7.400   2.805   6.553
  146POPC   C4A 2181   7.576   2.673   6.215
  146POPC   C1B 2182   7.025   2.401   7.267
  146POPC   C2B 2183   6.858   2.250   6.890
  146POPC   C3B 2184   6.982   2.435   6.542
  146POPC   C4B 2185   7.025   2.668   6.219
  147POPC   NC3 2186   4.871  10.419   7.892
  147POPC   PO4 2187   4.863   9.810   8.182
  147POPC   GL1 2188   5.127   9.963   7.844
  147POPC   GL2 2189   4.881  10.022   7.580
  147POPC   C1A 2190   5.290   9.850   7.377
  147POPC   D2A 2191   5.043  10.004   7.024
  147POPC   C3A 2192   5.188   9.892   6.599
  147POPC   C4A 2193   5.022  10.013   6.187
  147POPC   C1B 2194   4.687  10.309   7.288
  147POPC   C2B 2195   4.606  10.350   6.902
  147POPC   C3B 2196   4.720  10.159   6.573
  147POPC   C4B 2197   4.688  10.412   6.226
  148POPC   NC3 2198   8.658   0.311   8.203
  148POPC   PO4 2199   7.979   0.074   8.050
  148POPC   GL1 2200   8.364   0.330   7.780
  148POPC   GL2 2201   8.739   0.372   7.702
  148POPC   C1A 2202   8.376   0.441   7.311
  148POPC   D2A 2203   8.178   0.475   6.873
  148POPC   C3A 2204   8.364   0.451   6.477
  148POPC   C4A 2205   8.365   0.104   6.210
  148POPC   C1B 2206   8.886   0.457   7.277
  148POPC   C2B 2207   8.698   0.497   6.895
  148POPC   C3B 2208   8.875   0.490   6.523
  148POPC   C4B 2209   8.950   0.626   6.157
  149POPC   NC3 2210   4.217   8.825   8.066
  149POPC   PO4 2211   4.616   8.309   8.086
  149POPC   GL1 2212   4.331   8.491   7.681
  149POPC   GL2 2213   4.011   8.742   7.599
  149POPC   C1A 2214   4.401   8.820   7.313
  149POPC   D2A 2215   4.201   8.974   6.955
  149POPC   C3A 2216   4.302   8.847   6.517
  149POPC   C4A 2217   4.253   8.968   6.077
  149POPC   C1B 2218   4.031   8.460   7.236
  149POPC   C2B 2219   4.302   8.462   6.864
  149POPC   C3B 2220   4.185   8.368   6.418
  149POPC   C4B 2221   4.030   8.530   6.012
  150POPC   NC3 2222   9.846  10.315   4.110
  150POPC   PO4 2223   9.180  10.254   3.711
  150POPC   GL1 2224   9.200  10.057   4.196
  150POPC   GL2 2225   9.518   9.999   4.320
  150POPC   C1A 2226   9.121  10.148   4.656
  150POPC   D2A 2227   9.045  10.365   5.085
  150POPC   C3A 2228   9.260  10.228   5.462
  150POPC   C4A 2229   9.123  10.259   5.867
  150POPC   C1B 2230   9.653  10.158   4.741
  150POPC   C2B 2231   9.836  10.053   5.145
  150POPC   C3B 2232   9.857  10.325   5.517
  150POPC   C4B 2233   9.630  10.324   5.857
  151POPC   NC3 2234   6.397   9.796   3.927
  151POPC   PO4 2235   6.860  10.069   3.721
  151POPC   GL1 2236   6.677  10.134   4.160
  151POPC   GL2 2237   6.392  10.300   4.172
  151POPC   C1A 2238   6.500   9.935   4.560
  151POPC   D2A 2239   6.292   9.997   4.956
  151POPC   C3A 2240   6.570   9.927   5.290
  151POPC   C4A 2241   6.677   9.963   5.717
  151POPC   C1B 2242   6.257  10.394   4.593
  151POPC   C2B 2243   6.244   0.044   5.008
  151POPC   C3B 2244   6.343  10.374   5.372
  151POPC   C4B 2245   6.323  10.325   5.793
  152POPC   NC3 2246   0.737   9.600   4.119
  152POPC   PO4 2247   1.205   9.260   3.729
  152POPC   GL1 2248   1.175   9.356   4.188
  152POPC   GL2 2249   1.445   9.549   4.216
  152POPC   C1A 2250   1.018   9.240   4.641
  152POPC   D2A 2251   1.033   9.015   5.067
  152POPC   C3A 2252   0.814   9.155   5.446
  152POPC   C4A 2253   1.000   9.385   5.788
  152POPC   C1B 2254   1.444   9.668   4.629
  152POPC   C2B 2255   1.387   9.399   4.961
  152POPC   C3B 2256   1.289   9.372   5.367
  152POPC   C4B 2257   1.511   9.515   5.744
  153POPC   NC3 2258   1.289  10.330   3.841
  153POPC   PO4 2259   0.686   9.983   3.830
  153POPC   GL1 2260   0.919  10.183   4.186
  153POPC   GL2 2261   1.119   9.924   4.283
  153POPC   C1A 2262   1.130  10.283   4.613
  153POPC   D2A 2263   0.870  10.332   4.962
  153POPC   C3A 2264   0.961  10.309   5.403
  153POPC   C4A 2265   1.029  10.421   5.834
  153POPC   C1B 2266   0.953   9.802   4.691
  153POPC   C2B 2267   1.107   9.856   5.079
  153POPC   C3B 2268   1.152   9.839   5.503
  153POPC   C4B 2269   1.505  10.048   5.672
  154POPC   NC3 2270   1.115   1.401   4.037
  154POPC   PO4 2271   1.614   0.884   3.859
  154POPC   GL1 2272   1.495   1.103   4.260
  154POPC   GL2 2273   1.193   1.029   4.441
  154POPC   C1A 2274   1.514   1.372   4.689
  154POPC   D2A 2275   1.346   1.448   5.114
  154POPC   C3A 2276   1.565   1.485   5.527
  154POPC   C4A 2277   1.564   1.252   5.932
  154POPC   C1B 2278   0.978   1.381   4.666
  154POPC   C2B 2279   0.835   1.485   5.055
  154POPC   C3B 2280   0.804   1.207   5.393
  154POPC   C4B 2281   1.069   1.229   5.726
  155POPC   NC3 2282   8.782   7.776   3.868
  155POPC   PO4 2283   8.294   8.313   3.886
  155POPC   GL1 2284   8.301   8.118   4.273
  155POPC   GL2 2285   8.601   7.913   4.317
  155POPC   C1A 2286   8.298   8.042   4.706
  155POPC   D2A 2287   8.567   8.147   5.030
  155POPC   C3A 2288   8.527   8.013   5.453
  155POPC   C4A 2289   8.228   8.019   5.783
  155POPC   C1B 2290   8.856   7.872   4.675
  155POPC   C2B 2291   8.830   7.714   5.096
  155POPC   C3B 2292   9.028   7.859   5.480
  155POPC   C4B 2293   8.843   7.826   5.899
  156POPC   NC3 2294   2.729   1.103   3.956
  156POPC   PO4 2295   3.109   1.573   3.596
  156POPC   GL1 2296   3.087   1.401   4.116
  156POPC   GL2 2297   2.739   1.432   4.315
  156POPC   C1A 2298   3.124   1.404   4.624
  156POPC   D2A 2299   3.010   1.095   4.984
  156POPC   C3A 2300   3.077   1.201   5.432
  156POPC   C4A 2301   2.889   1.061   5.835
  156POPC   C1B 2302   2.570   1.218   4.676
  156POPC   C2B 2303   2.563   1.401   5.098
  156POPC   C3B 2304   2.579   1.308   5.518
  156POPC   C4B 2305   2.329   0.987   5.630
  157POPC   NC3 2306   0.629   3.346   4.000
  157POPC   PO4 2307  10.481   3.414   3.822
  157POPC   GL1 2308   0.144   3.480   4.255
  157POPC   GL2 2309   0.325   3.187   4.378
  157POPC   C1A 2310   0.063   3.550   4.704
  157POPC   D2A 2311   0.279   3.469   5.087
  157POPC   C3A 2312   0.137   3.452   5.497
  157POPC   C4A 2313   0.367   3.155   5.742
  157POPC   C1B 2314   0.603   3.412   4.664
  157POPC   C2B 2315   0.820   3.461   5.034
  157POPC   C3B 2316   0.744   3.350   5.447
  157POPC   C4B 2317   0.552   3.643   5.737
  158POPC   NC3 2318   8.798   5.363   3.840
  158POPC   PO4 2319   8.860   6.037   3.932
  158POPC   GL1 2320   8.842   5.754   4.315
  158POPC   GL2 2321   8.514   5.727   4.286
  158POPC   C1A 2322   8.953   5.532   4.739
  158POPC   D2A 2323   8.736   5.499   5.130
  158POPC   C3A 2324   8.842   5.543   5.538
  158POPC   C4A 2325   8.538   5.363   5.831
  158POPC   C1B 2326   8.467   5.683   4.715
  158POPC   C2B 2327   8.244   5.665   5.083
  158POPC   C3B 2328   8.419   5.858   5.405
  158POPC   C4B 2329   8.504   5.863   5.814
  159POPC   NC3 2330   7.892   4.939   3.832
  159POPC   PO4 2331   8.425   4.863   3.915
  159POPC   GL1 2332   8.225   4.843   4.316
  159POPC   GL2 2333   7.856   4.790   4.334
  159POPC   C1A 2334   8.204   4.895   4.789
  159POPC   D2A 2335   8.089   4.670   5.190
  159POPC   C3A 2336   7.823   4.786   5.572
  159POPC   C4A 2337   7.943   4.654   6.011
  159POPC   C1B 2338   7.731   5.042   4.741
  159POPC   C2B 2339   7.853   5.169   5.209
  159POPC   C3B 2340   7.648   5.255   5.648
  159POPC   C4B 2341   7.656   5.313   6.115
  160POPC   NC3 2342   2.016  10.245   3.819
  160POPC   PO4 2343   1.570   0.221   3.869
  160POPC   GL1 2344   1.792   0.023   4.231
  160POPC   GL2 2345   1.553  10.253   4.305
  160POPC   C1A 2346   2.083  10.484   4.664
  160POPC   D2A 2347   2.225  10.405   5.136
  160POPC   C3A 2348   2.042   0.085   5.551
  160POPC   C4A 2349   2.175   0.095   6.021
  160POPC   C1B 2350   1.639  10.156   4.756
  160POPC   C2B 2351   1.853  10.035   5.154
  160POPC   C3B 2352   2.011  10.075   5.589
  160POPC   C4B 2353   1.846  10.238   5.999
  161POPC   NC3 2354   1.871   4.514   4.046
  161POPC   PO4 2355   1.841   3.890   3.795
  161POPC   GL1 2356   2.023   4.048   4.211
  161POPC   GL2 2357   1.772   4.121   4.440
  161POPC   C1A 2358   2.186   4.015   4.685
  161POPC   D2A 2359   1.952   4.111   5.077
  161POPC   C3A 2360   2.172   4.008   5.490
  161POPC   C4A 2361   2.206   3.935   5.960
  161POPC   C1B 2362   1.775   4.497   4.693
  161POPC   C2B 2363   1.783   4.678   5.093
  161POPC   C3B 2364   1.772   4.427   5.442
  161POPC   C4B 2365   1.781   4.179   5.780
  162POPC   NC3 2366   7.077   0.529   4.022
  162POPC   PO4 2367   7.683   0.355   3.872
  162POPC   GL1 2368   7.550   0.573   4.238
  162POPC   GL2 2369   7.402   0.258   4.329
  162POPC   C1A 2370   7.562   0.577   4.694
  162POPC   D2A 2371   7.452   0.433   5.120
  162POPC   C3A 2372   7.395   0.710   5.482
  162POPC   C4A 2373   7.419   0.698   5.955
  162POPC   C1B 2374   7.112   0.329   4.691
  162POPC   C2B 2375   6.986   0.224   5.115
  162POPC   C3B 2376   7.087   0.292   5.590
  162POPC   C4B 2377   7.020   0.404   6.053
  163POPC   NC3 2378   7.970  10.493   3.917
  163POPC   PO4 2379   8.583   0.143   3.733
  163POPC   GL1 2380   8.268   0.313   4.153
  163POPC   GL2 2381   8.062   0.621   4.150
  163POPC   C1A 2382   7.919   0.183   4.515
  163POPC   D2A 2383   7.758  10.411   4.881
  163POPC   C3A 2384   7.820   0.057   5.325
  163POPC   C4A 2385   7.600   0.283   5.653
  163POPC   C1B 2386   8.049   0.673   4.575
  163POPC   C2B 2387   7.979   0.420   4.968
  163POPC   C3B 2388   7.880   0.602   5.351
  163POPC   C4B 2389   7.871   0.734   5.750
  164POPC   NC3 2390   8.801  10.301   3.994
  164POPC   PO4 2391   8.738   9.668   3.930
  164POPC   GL1 2392   8.861   9.734   4.349
  164POPC   GL2 2393   8.692  10.043   4.413
  164POPC   C1A 2394   8.831   9.741   4.802
  164POPC   D2A 2395   8.776   9.960   5.114
  164POPC   C3A 2396   8.977   9.821   5.489
  164POPC   C4A 2397   8.793   9.886   5.865
  164POPC   C1B 2398   8.656  10.360   4.722
  164POPC   C2B 2399   8.532  10.465   5.134
  164POPC   C3B 2400   8.639  10.253   5.502
  164POPC   C4B 2401   8.633  10.349   5.894
  165POPC   NC3 2402   2.165   2.671   3.921
  165POPC   PO4 2403   1.500   2.611   3.948
  165POPC   GL1 2404   1.594   2.806   4.325
  165POPC   GL2 2405   1.941   2.739   4.363
  165POPC   C1A 2406   1.607   2.799   4.770
  165POPC   D2A 2407   1.826   2.743   5.168
  165POPC   C3A 2408   1.544   2.863   5.385
  165POPC   C4A 2409   1.540   2.797   5.738
  165POPC   C1B 2410   2.101   2.662   4.770
  165POPC   C2B 2411   2.330   2.452   5.060
  165POPC   C3B 2412   2.169   2.351   5.451
  165POPC   C4B 2413   2.017   2.638   5.740
  166POPC   NC3 2414   6.657   8.347   3.755
  166POPC   PO4 2415   6.146   8.773   3.802
  166POPC   GL1 2416   6.135   8.749   4.360
  166POPC   GL2 2417   6.514   8.777   4.548
  166POPC   C1A 2418   6.245   8.427   4.742
  166POPC   D2A 2419   6.503   8.556   5.108
  166POPC   C3A 2420   6.329   8.533   5.538
  166POPC   C4A 2421   6.183   8.172   5.801
  166POPC   C1B 2422   6.227   8.942   4.851
  166POPC   C2B 2423   6.203   9.025   5.279
  166POPC   C3B 2424   6.549   8.991   5.534
  166POPC   C4B 2425   6.608   8.988   5.972
  167POPC   NC3 2426  10.233   7.198   3.964
  167POPC   PO4 2427   9.800   6.789   3.815
  167POPC   GL1 2428   9.804   7.013   4.249
  167POPC   GL2 2429  10.102   7.164   4.434
  167POPC   C1A 2430   9.743   7.008   4.726
  167POPC   D2A 2431   9.939   6.885   5.116
  167POPC   C3A 2432  10.005   7.090   5.487
  167POPC   C4A 2433  10.059   6.989   5.886
  167POPC   C1B 2434  10.230   7.376   4.826
  167POPC   C2B 2435  10.417   7.209   5.222
  167POPC   C3B 2436   0.006   6.959   5.646
  167POPC   C4B 2437   0.001   7.050   6.132
  168POPC   NC3 2438   8.181   1.651   4.142
  168POPC   PO4 2439   8.160   1.044   3.833
  168POPC   GL1 2440   8.199   1.136   4.233
  168POPC   GL2 2441   7.838   1.089   4.276
  168POPC   C1A 2442   8.347   1.087   4.658
  168POPC   D2A 2443   8.142   0.895   5.029
  168POPC   C3A 2444   8.267   0.954   5.483
  168POPC   C4A 2445   8.194   1.097   5.920
  168POPC   C1B 2446   7.877   1.261   4.713
  168POPC   C2B 2447   7.929   1.321   5.172
  168POPC   C3B 2448   7.822   1.222   5.568
  168POPC   C4B 2449   7.580   1.541   5.758
  169POPC   NC3 2450   4.913   8.449   4.026
  169POPC   PO4 2451   4.884   9.153   3.948
  169POPC   GL1 2452   4.886   8.950   4.326
  169POPC   GL2 2453   4.590   8.741   4.318
  169POPC   C1A 2454   4.784   9.009   4.747
  169POPC   D2A 2455   4.607   8.949   5.127
  169POPC   C3A 2456   4.793   8.823   5.459
  169POPC   C4A 2457   4.945   8.702   5.838
  169POPC   C1B 2458   4.782   8.489   4.664
  169POPC   C2B 2459   4.915   8.518   5.089
  169POPC   C3B 2460   4.813   8.322   5.511
  169POPC   C4B 2461   4.906   8.192   5.943
  170POPC   NC3 2462   7.775   6.504   3.919
  170POPC   PO4 2463   7.540   7.029   4.074
  170POPC   GL1 2464   7.794   6.721   4.404
  170POPC   GL2 2465   8.026   6.452   4.355
  170POPC   C1A 2466   7.944   6.527   4.847
  170POPC   D2A 2467   7.738   6.365   5.226
  170POPC   C3A 2468   7.811   6.571   5.627
  170POPC   C4A 2469   8.035   6.537   6.001
  170POPC   C1B 2470   8.201   6.129   4.606
  170POPC   C2B 2471   8.348   6.181   4.999
  170POPC   C3B 2472   8.231   6.363   5.358
  170POPC   C4B 2473   8.051   6.098   5.697
  171POPC   NC3 2474   5.607   2.212   3.971
  171POPC   PO4 2475   5.324   1.645   3.814
  171POPC   GL1 2476   5.520   1.724   4.225
  171POPC   GL2 2477   5.855   1.871   4.265
  171POPC   C1A 2478   5.666   1.627   4.666
  171POPC   D2A 2479   5.841   1.723   5.062
  171POPC   C3A 2480   5.599   1.835   5.406
  171POPC   C4A 2481   5.712   1.617   5.761
  171POPC   C1B 2482   5.663   2.126   4.642
  171POPC   C2B 2483   5.767   2.233   5.089
  171POPC   C3B 2484   5.889   2.253   5.551
  171POPC   C4B 2485   5.632   2.348   5.936
  172POPC   NC3 2486   1.508   3.809   4.112
  172POPC   PO4 2487   0.995   3.452   3.754
  172POPC   GL1 2488   1.034   3.620   4.181
  172POPC   GL2 2489   1.042   3.310   4.356
  172POPC   C1A 2490   1.078   3.736   4.650
  172POPC   D2A 2491   1.285   3.724   5.081
  172POPC   C3A 2492   0.995   3.778   5.450
  172POPC   C4A 2493   1.035   3.587   5.867
  172POPC   C1B 2494   1.323   3.259   4.704
  172POPC   C2B 2495   1.232   3.179   5.114
  172POPC   C3B 2496   1.361   3.371   5.483
  172POPC   C4B 2497   1.417   3.252   5.893
  173POPC   NC3 2498   0.761   2.335   3.978
  173POPC   PO4 2499   0.744   2.935   4.171
  173POPC   GL1 2500   0.584   2.601   4.373
  173POPC   GL2 2501   0.241   2.666   4.423
  173POPC   C1A 2502   0.685   2.395   4.737
  173POPC   D2A 2503   0.486   2.480   5.124
  173POPC   C3A 2504   0.657   2.630   5.525
  173POPC   C4A 2505   0.412   2.470   5.831
  173POPC   C1B 2506   0.472   2.900   4.785
  173POPC   C2B 2507   0.457   2.991   5.221
  173POPC   C3B 2508   0.171   2.736   5.464
  173POPC   C4B 2509   0.032   2.815   5.876
  174POPC   NC3 2510   1.806   7.189   4.002
  174POPC   PO4 2511   2.501   7.197   3.937
  174POPC   GL1 2512   2.231   7.102   4.306
  174POPC   GL2 2513   1.960   7.303   4.458
  174POPC   C1A 2514   2.178   6.976   4.758
  174POPC   D2A 2515   2.110   7.246   5.122
  174POPC   C3A 2516   2.128   6.965   5.455
  174POPC   C4A 2517   2.072   6.889   5.872
  174POPC   C1B 2518   1.696   7.148   4.776
  174POPC   C2B 2519   1.676   6.991   5.188
  174POPC   C3B 2520   1.679   7.157   5.603
  174POPC   C4B 2521   1.676   7.421   5.954
  175POPC   NC3 2522   7.231   7.366   4.024
  175POPC   PO4 2523   6.772   7.915   3.897
  175POPC   GL1 2524   7.038   8.006   4.346
  175POPC   GL2 2525   7.414   8.051   4.378
  175POPC   C1A 2526   7.088   7.833   4.772
  175POPC   D2A 2527   7.250   7.774   5.221
  175POPC   C3A 2528   7.088   7.717   5.666
  175POPC   C4A 2529   7.054   7.378   5.984
  175POPC   C1B 2530   7.334   8.305   4.747
  175POPC   C2B 2531   7.389   8.404   5.181
  175POPC   C3B 2532   7.205   8.202   5.519
  175POPC   C4B 2533   7.258   8.139   5.936
  176POPC   NC3 2534   1.525   2.203   3.741
  176POPC   PO4 2535   1.548   1.583   4.079
  176POPC   GL1 2536   1.502   1.877   4.364
  176POPC   GL2 2537   1.147   1.798   4.402
  176POPC   C1A 2538   1.455   1.869   4.803
  176POPC   D2A 2539   1.372   1.982   5.186
  176POPC   C3A 2540   1.097   1.740   5.462
  176POPC   C4A 2541   1.243   1.645   5.911
  176POPC   C1B 2542   0.945   1.913   4.798
  176POPC   C2B 2543   0.921   2.204   5.148
  176POPC   C3B 2544   0.751   2.141   5.549
  176POPC   C4B 2545   0.988   2.088   5.900
  177POPC   NC3 2546   5.022   0.557   3.820
  177POPC   PO4 2547   4.417   0.571   4.068
  177POPC   GL1 2548   4.632   0.585   4.433
  177POPC   GL2 2549   4.891   0.356   4.270
  177POPC   C1A 2550   4.652   0.628   4.904
  177POPC   D2A 2551   4.659   0.381   5.256
  177POPC   C3A 2552   4.735   0.577   5.625
  177POPC   C4A 2553   4.764   0.237   5.852
  177POPC   C1B 2554   4.971   0.303   4.682
  177POPC   C2B 2555   5.116   0.488   5.055
  177POPC   C3B 2556   5.138   0.316   5.440
  177POPC   C4B 2557   5.291   0.379   5.810
  178POPC   NC3 2558   3.461   1.842   3.812
  178POPC   PO4 2559   2.919   1.846   4.037
  178POPC   GL1 2560   3.245   1.859   4.353
  178POPC   GL2 2561   3.570   1.992   4.300
  178POPC   C1A 2562   3.179   1.871   4.823
  178POPC   D2A 2563   3.413   1.931   5.191
  178POPC   C3A 2564   3.193   1.691   5.452
  178POPC   C4A 2565   2.951   1.598   5.810
  178POPC   C1B 2566   3.483   2.235   4.698
  178POPC   C2B 2567   3.617   2.407   5.084
  178POPC   C3B 2568   3.739   2.281   5.488
  178POPC   C4B 2569   3.467   2.033   5.714
  179POPC   NC3 2570   6.514   2.291   3.950
  179POPC   PO4 2571   6.836   1.713   3.903
  179POPC   GL1 2572   6.735   1.950   4.288
  179POPC   GL2 2573   6.374   1.906   4.293
  179POPC   C1A 2574   6.631   1.988   4.744
  179POPC   D2A 2575   6.767   1.842   5.145
  179POPC   C3A 2576   6.601   2.047   5.500
  179POPC   C4A 2577   6.600   1.782   5.826
  179POPC   C1B 2578   6.137   1.948   4.703
  179POPC   C2B 2579   6.235   2.037   5.155
  179POPC   C3B 2580   6.137   1.807   5.547
  179POPC   C4B 2581   6.189   1.489   5.923
  180POPC   NC3 2582   9.034   0.218   3.687
  180POPC   PO4 2583   9.420  10.482   4.147
  180POPC   GL1 2584   9.015   0.063   4.378
  180POPC   GL2 2585   8.765   0.267   4.218
  180POPC   C1A 2586   8.919   0.298   4.782
  180POPC   D2A 2587   9.158   0.371   5.156
  180POPC   C3A 2588   8.952   0.174   5.494
  180POPC   C4A 2589   8.738   0.327   5.823
  180POPC   C1B 2590   8.556   0.561   4.556
  180POPC   C2B 2591   8.498   0.507   5.035
  180POPC   C3B 2592   8.339   0.400   5.478
  180POPC   C4B 2593   8.328   0.583   5.921
  181POPC   NC3 2594  10.374   0.541   3.943
  181POPC   PO4 2595   9.702   0.558   3.757
  181POPC   GL1 2596   9.831   0.340   4.183
  181POPC   GL2 2597  10.160   0.379   4.372
  181POPC   C1A 2598   9.817   0.156   4.639
  181POPC   D2A 2599   9.660   0.443   4.968
  181POPC   C3A 2600   9.868   0.419   5.381
  181POPC   C4A 2601   9.967   0.260   5.806
  181POPC   C1B 2602  10.129   0.495   4.794
  181POPC   C2B 2603  10.123   0.753   5.115
  181POPC   C3B 2604  10.377   0.686   5.455
  181POPC   C4B 2605  10.368   0.649   5.901
  182POPC   NC3 2606   8.551   2.456   3.939
  182POPC   PO4 2607   9.009   2.984   3.893
  182POPC   GL1 2608   8.886   2.766   4.238
  182POPC   GL2 2609   8.586   2.970   4.275
  182POPC   C1A 2610   9.004   2.779   4.659
  182POPC   D2A 2611   9.027   2.945   5.067
  182POPC   C3A 2612   9.004   2.656   5.398
  182POPC   C4A 2613   8.864   2.671   5.820
  182POPC   C1B 2614   8.503   2.666   4.592
  182POPC   C2B 2615   8.655   2.561   5.018
  182POPC   C3B 2616   8.518   2.806   5.341
  182POPC   C4B 2617   8.361   2.719   5.726
  183POPC   NC3 2618   4.654  10.210   3.869
  183POPC   PO4 2619   5.260   0.081   3.843
  183POPC   GL1 2620   5.232  10.427   4.235
  183POPC   GL2 2621   5.070  10.135   4.147
  183POPC   C1A 2622   5.338  10.462   4.664
  183POPC   D2A 2623   5.074  10.468   5.045
  183POPC   C3A 2624   5.239  10.324   5.417
  183POPC   C4A 2625   5.053  10.340   5.798
  183POPC   C1B 2626   4.838  10.269   4.554
  183POPC   C2B 2627   4.813  10.053   4.965
  183POPC   C3B 2628   4.968   9.868   5.333
  183POPC   C4B 2629   4.761   9.909   5.737
  184POPC   NC3 2630   9.453   0.735   4.110
  184POPC   PO4 2631   9.782   1.215   4.122
  184POPC   GL1 2632   9.590   1.110   4.460
  184POPC   GL2 2633   9.252   1.092   4.390
  184POPC   C1A 2634   9.732   0.964   4.835
  184POPC   D2A 2635   9.627   0.861   5.233
  184POPC   C3A 2636   9.810   1.122   5.473
  184POPC   C4A 2637   9.553   1.350   5.713
  184POPC   C1B 2638   9.253   1.312   4.788
  184POPC   C2B 2639   9.384   1.327   5.204
  184POPC   C3B 2640   9.110   1.228   5.517
  184POPC   C4B 2641   9.050   1.472   5.860
  185POPC   NC3 2642   2.407   8.733   3.960
  185POPC   PO4 2643   2.870   8.277   3.746
  185POPC   GL1 2644   2.770   8.427   4.223
  185POPC   GL2 2645   2.432   8.514   4.419
  185POPC   C1A 2646   2.843   8.639   4.669
  185POPC   D2A 2647   2.963   8.727   5.098
  185POPC   C3A 2648   2.750   9.053   5.352
  185POPC   C4A 2649   2.848   8.929   5.780
  185POPC   C1B 2650   2.226   8.362   4.789
  185POPC   C2B 2651   2.435   8.571   5.097
  185POPC   C3B 2652   2.637   8.575   5.483
  185POPC   C4B 2653   2.544   8.400   5.878
  186POPC   NC3 2654   7.314  10.133   3.824
  186POPC   PO4 2655   6.863   0.120   4.091
  186POPC   GL1 2656   7.118  10.337   4.288
  186POPC   GL2 2657   7.144   9.967   4.262
  186POPC   C1A 2658   6.930  10.192   4.658
  186POPC   D2A 2659   6.695  10.319   4.986
  186POPC   C3A 2660   6.870  10.333   5.412
  186POPC   C4A 2661   6.826  10.433   5.844
  186POPC   C1B 2662   7.305   9.842   4.666
  186POPC   C2B 2663   7.212  10.041   5.054
  186POPC   C3B 2664   7.076   9.852   5.420
  186POPC   C4B 2665   7.195  10.086   5.766
  187POPC   NC3 2666   7.168   9.166   3.831
  187POPC   PO4 2667   7.522   9.735   4.043
  187POPC   GL1 2668   7.382   9.367   4.318
  187POPC   GL2 2669   7.076   9.174   4.313
  187POPC   C1A 2670   7.208   9.315   4.769
  187POPC   D2A 2671   7.314   9.547   5.094
  187POPC   C3A 2672   7.333   9.340   5.448
  187POPC   C4A 2673   7.261   9.550   5.795
  187POPC   C1B 2674   6.894   9.589   4.480
  187POPC   C2B 2675   6.843   9.687   4.929
  187POPC   C3B 2676   6.863   9.338   5.280
  187POPC   C4B 2677   7.023   9.056   5.689
  188POPC   NC3 2678   9.156   8.875   3.841
  188POPC   PO4 2679   9.720   8.547   3.815
  188POPC   GL1 2680   9.699   8.796   4.187
  188POPC   GL2 2681   9.401   8.671   4.311
  188POPC   C1A 2682   9.754   8.808   4.652
  188POPC   D2A 2683   9.626   8.890   5.069
  188POPC   C3A 2684   9.890   8.827   5.430
  188POPC   C4A 2685   9.766   8.897   5.845
  188POPC   C1B 2686   9.213   8.839   4.727
  188POPC   C2B 2687   9.176   8.691   5.162
  188POPC   C3B 2688   9.282   8.743   5.604
  188POPC   C4B 2689   8.961   8.670   5.913
  189POPC   NC3 2690   3.693  10.147   3.828
  189POPC   PO4 2691   3.047   9.765   3.896
  189POPC   GL1 2692   3.164   9.807   4.293
  189POPC   GL2 2693   3.430   9.983   4.221
  189POPC   C1A 2694   2.991   9.847   4.711
  189POPC   D2A 2695   3.088  10.073   5.077
  189POPC   C3A 2696   3.017   9.879   5.467
  189POPC   C4A 2697   3.227   9.838   5.862
  189POPC   C1B 2698   3.424  10.122   4.646
  189POPC   C2B 2699   3.621  10.139   5.056
  189POPC   C3B 2700   3.545  10.191   5.491
  189POPC   C4B 2701   3.836   0.010   5.736
  190POPC   NC3 2702   8.355   9.416   3.843
  190POPC   PO4 2703   8.352  10.113   3.904
  190POPC   GL1 2704   8.350   9.708   4.255
  190POPC   GL2 2705   8.576   9.325   4.279
  190POPC   C1A 2706   8.392   9.544   4.664
  190POPC   D2A 2707   8.596   9.297   5.010
  190POPC   C3A 2708   8.588   9.547   5.328
  190POPC   C4A 2709   8.636   9.439   5.725
  190POPC   C1B 2710   8.901   9.278   4.611
  190POPC   C2B 2711   9.133   9.356   5.012
  190POPC   C3B 2712   9.055   9.308   5.458
  190POPC   C4B 2713   9.100   9.480   5.902
  191POPC   NC3 2714   2.424   0.502   3.799
  191POPC   PO4 2715   3.007   0.811   3.714
  191POPC   GL1 2716   2.789   0.538   4.136
  191POPC   GL2 2717   2.919   0.198   4.180
  191POPC   C1A 2718   2.707   0.677   4.646
  191POPC   D2A 2719   2.558   0.853   5.068
  191POPC   C3A 2720   2.758   0.812   5.403
  191POPC   C4A 2721   2.671   0.600   5.753
  191POPC   C1B 2722   2.553   0.227   4.502
  191POPC   C2B 2723   2.415   0.342   4.927
  191POPC   C3B 2724   2.476   0.320   5.366
  191POPC   C4B 2725   2.590   0.096   5.736
  192POPC   NC3 2726   8.774   6.511   3.875
  192POPC   PO4 2727   8.147   6.777   3.982
  192POPC   GL1 2728   8.487   6.631   4.281
  192POPC   GL2 2729   8.512   6.264   4.241
  192POPC   C1A 2730   8.473   6.608   4.737
  192POPC   D2A 2731   8.757   6.524   5.101
  192POPC   C3A 2732   8.749   6.728   5.536
  192POPC   C4A 2733   8.923   6.690   5.983
  192POPC   C1B 2734   8.734   6.139   4.637
  192POPC   C2B 2735   8.811   5.997   5.066
  192POPC   C3B 2736   8.783   6.186   5.487
  192POPC   C4B 2737   8.474   6.381   5.787
  193POPC   NC3 2738   9.715   8.045   3.849
  193POPC   PO4 2739   9.054   8.134   3.959
  193POPC   GL1 2740   9.194   8.208   4.354
  193POPC   GL2 2741   9.544   8.121   4.325
  193POPC   C1A 2742   9.438   8.377   4.747
  193POPC   D2A 2743   9.594   8.126   5.091
  193POPC   C3A 2744   9.424   8.230   5.512
  193POPC   C4A 2745   9.181   8.192   5.911
  193POPC   C1B 2746   9.375   7.870   4.688
  193POPC   C2B 2747   9.345   7.668   5.102
  193POPC   C3B 2748   9.570   7.709   5.511
  193POPC   C4B 2749   9.862   7.678   5.884
  194POPC   NC3 2750   1.216   2.977   3.992
  194POPC   PO4 2751   1.076   2.358   3.660
  194POPC   GL1 2752   1.215   2.262   4.165
  194POPC   GL2 2753   1.106   2.585   4.294
  194POPC   C1A 2754   1.232   2.301   4.670
  194POPC   D2A 2755   1.358   2.487   5.080
  194POPC   C3A 2756   1.181   2.441   5.530
  194POPC   C4A 2757   1.364   2.404   5.970
  194POPC   C1B 2758   1.078   2.791   4.711
  194POPC   C2B 2759   0.932   2.765   5.125
  194POPC   C3B 2760   1.064   2.937   5.536
  194POPC   C4B 2761   0.865   3.074   5.866
  195POPC   NC3 2762   6.618   0.995   3.504
  195POPC   PO4 2763   7.258   1.002   3.836
  195POPC   GL1 2764   7.053   1.022   4.186
  195POPC   GL2 2765   7.099   1.345   4.326
  195POPC   C1A 2766   6.959   0.828   4.594
  195POPC   D2A 2767   7.078   0.919   4.997
  195POPC   C3A 2768   6.923   0.683   5.302
  195POPC   C4A 2769   6.822   0.737   5.706
  195POPC   C1B 2770   7.416   1.060   4.568
  195POPC   C2B 2771   7.587   0.966   5.012
  195POPC   C3B 2772   7.386   1.193   5.324
  195POPC   C4B 2773   7.291   1.130   5.736
  196POPC   NC3 2774   1.881   1.289   3.934
  196POPC   PO4 2775   2.417   1.583   3.952
  196POPC   GL1 2776   2.182   1.479   4.335
  196POPC   GL2 2777   2.118   1.121   4.352
  196POPC   C1A 2778   2.075   1.362   4.787
  196POPC   D2A 2779   2.119   1.105   5.127
  196POPC   C3A 2780   2.086   1.397   5.443
  196POPC   C4A 2781   2.105   1.390   5.880
  196POPC   C1B 2782   1.792   0.964   4.635
  196POPC   C2B 2783   1.624   0.982   5.074
  196POPC   C3B 2784   1.772   0.998   5.528
  196POPC   C4B 2785   1.941   0.930   5.971
  197POPC   NC3 2786   3.426   9.314   4.047
  197POPC   PO4 2787   4.128   9.180   4.036
  197POPC   GL1 2788   3.797   9.189   4.361
  197POPC   GL2 2789   3.702   9.570   4.374
  197POPC   C1A 2790   3.737   9.207   4.818
  197POPC   D2A 2791   3.695   9.214   5.265
  197POPC   C3A 2792   3.881   9.595   5.410
  197POPC   C4A 2793   3.724   9.782   5.768
  197POPC   C1B 2794   3.399   9.562   4.688
  197POPC   C2B 2795   3.420   9.672   5.109
  197POPC   C3B 2796   3.368   9.520   5.496
  197POPC   C4B 2797   2.997   9.402   5.686
  198POPC   NC3 2798   8.413  10.281   3.432
  198POPC   PO4 2799   7.784  10.132   3.716
  198POPC   GL1 2800   7.867  10.137   4.223
  198POPC   GL2 2801   7.607  10.252   4.379
  198POPC   C1A 2802   8.190  10.217   4.556
  198POPC   D2A 2803   8.286   9.966   4.948
  198POPC   C3A 2804   8.131  10.115   5.367
  198POPC   C4A 2805   8.146  10.418   5.737
  198POPC   C1B 2806   7.801   9.929   4.663
  198POPC   C2B 2807   7.738   9.854   5.058
  198POPC   C3B 2808   7.588  10.046   5.414
  198POPC   C4B 2809   7.789  10.035   5.784
  199POPC   NC3 2810   4.904   1.868   3.750
  199POPC   PO4 2811   4.483   2.256   3.941
  199POPC   GL1 2812   4.737   1.933   4.237
  199POPC   GL2 2813   4.994   1.641   4.238
  199POPC   C1A 2814   4.671   1.703   4.649
  199POPC   D2A 2815   4.895   1.678   5.064
  199POPC   C3A 2816   4.674   1.666   5.468
  199POPC   C4A 2817   4.668   1.902   5.862
  199POPC   C1B 2818   5.189   1.813   4.621
  199POPC   C2B 2819   5.265   2.032   5.032
  199POPC   C3B 2820   4.971   2.096   5.412
  199POPC   C4B 2821   5.119   2.185   5.842
  200POPC   NC3 2822   2.533   2.059   4.118
  200POPC   PO4 2823   2.074   2.293   3.663
  200POPC   GL1 2824   1.880   2.269   4.112
  200POPC   GL2 2825   2.034   1.989   4.268
  200POPC   C1A 2826   1.734   2.314   4.570
  200POPC   D2A 2827   1.848   2.237   5.025
  200POPC   C3A 2828   1.670   2.327   5.449
  200POPC   C4A 2829   1.460   2.017   5.676
  200POPC   C1B 2830   1.937   1.837   4.678
  200POPC   C2B 2831   1.827   1.715   5.124
  200POPC   C3B 2832   1.945   1.869   5.563
  200POPC   C4B 2833   1.756   1.729   5.982
  201POPC   NC3 2834   3.055   3.540   4.055
  201POPC   PO4 2835   2.453   3.200   3.851
  201POPC   GL1 2836   2.404   3.327   4.274
  201POPC   GL2 2837   2.752   3.331   4.430
  201POPC   C1A 2838   2.328   3.501   4.692
  201POPC   D2A 2839   2.625   3.372   5.026
  201POPC   C3A 2840   2.528   3.328   5.439
  201POPC   C4A 2841   2.823   3.265   5.797
  201POPC   C1B 2842   2.770   3.746   4.724
  201POPC   C2B 2843   2.566   3.863   5.179
  201POPC   C3B 2844   2.619   3.780   5.679
  201POPC   C4B 2845   2.863   3.692   6.095
  202POPC   NC3 2846   5.290   9.366   3.887
  202POPC   PO4 2847   4.730   9.754   3.962
  202POPC   GL1 2848   4.870   9.711   4.378
  202POPC   GL2 2849   5.102   9.441   4.353
  202POPC   C1A 2850   4.977   9.601   4.816
  202POPC   D2A 2851   4.691   9.444   5.079
  202POPC   C3A 2852   4.757   9.410   5.506
  202POPC   C4A 2853   4.658   9.127   5.824
  202POPC   C1B 2854   5.266   9.195   4.704
  202POPC   C2B 2855   5.116   9.064   5.148
  202POPC   C3B 2856   5.165   9.110   5.631
  202POPC   C4B 2857   5.197   9.083   6.090
  203POPC   NC3 2858   9.315   2.624   3.996
  203POPC   PO4 2859   9.677   2.191   4.314
  203POPC   GL1 2860   9.298   2.377   4.471
  203POPC   GL2 2861   9.464   2.645   4.478
  203POPC   C1A 2862   9.173   2.373   4.909
  203POPC   D2A 2863   9.325   2.266   5.263
  203POPC   C3A 2864   9.763   2.349   5.345
  203POPC   C4A 2865   9.788   2.356   5.791
  203POPC   C1B 2866   9.653   2.553   4.863
  203POPC   C2B 2867   9.493   2.757   5.174
  203POPC   C3B 2868   9.463   2.679   5.583
  203POPC   C4B 2869   9.356   2.693   5.950
  204POPC   NC3 2870   2.225   5.143   4.079
  204POPC   PO4 2871   1.576   4.936   3.983
  204POPC   GL1 2872   1.713   5.183   4.308
  204POPC   GL2 2873   1.921   4.895   4.398
  204POPC   C1A 2874   1.712   5.446   4.720
  204POPC   D2A 2875   1.876   5.405   5.165
  204POPC   C3A 2876   1.620   5.414   5.549
  204POPC   C4A 2877   1.788   5.142   5.891
  204POPC   C1B 2878   2.064   5.060   4.790
  204POPC   C2B 2879   2.201   4.971   5.207
  204POPC   C3B 2880   2.055   4.839   5.562
  204POPC   C4B 2881   2.181   4.475   5.727
  205POPC   NC3 2882   2.202   5.767   3.646
  205POPC   PO4 2883   1.630   5.736   3.929
  205POPC   GL1 2884   1.986   5.596   4.153
  205POPC   GL2 2885   2.154   5.898   4.167
  205POPC   C1A 2886   2.188   5.573   4.581
  205POPC   D2A 2887   2.083   5.793   4.943
  205POPC   C3A 2888   2.248   5.747   5.384
  205POPC   C4A 2889   2.155   5.351   5.597
  205POPC   C1B 2890   1.807   5.926   4.519
  205POPC   C2B 2891   1.673   6.076   4.923
  205POPC   C3B 2892   1.761   5.954   5.342
  205POPC   C4B 2893   1.893   5.806   5.747
  206POPC   NC3 2894   5.808   0.678   3.998
  206POPC   PO4 2895   6.020   0.083   3.984
  206POPC   GL1 2896   5.803  10.497   4.341
  206POPC   GL2 2897   5.598   0.276   4.281
  206POPC   C1A 2898   5.807   0.107   4.765
  206POPC   D2A 2899   5.524   0.191   5.088
  206POPC   C3A 2900   5.652   0.164   5.475
  206POPC   C4A 2901   6.062   0.225   5.630
  206POPC   C1B 2902   5.486   0.502   4.656
  206POPC   C2B 2903   5.547   0.749   5.026
  206POPC   C3B 2904   5.405   0.766   5.446
  206POPC   C4B 2905   5.724   0.616   5.694
  207POPC   NC3 2906   6.553   1.345   3.955
  207POPC   PO4 2907   6.665   0.728   3.897
  207POPC   GL1 2908   6.570   1.020   4.323
  207POPC   GL2 2909   6.247   1.162   4.381
  207POPC   C1A 2910   6.563   1.126   4.778
  207POPC   D2A 2911   6.539   1.003   5.200
  207POPC   C3A 2912   6.880   1.175   5.432
  207POPC   C4A 2913   6.857   1.353   5.833
  207POPC   C1B 2914   6.112   1.399   4.729
  207POPC   C2B 2915   6.327   1.538   5.086
  207POPC   C3B 2916   6.458   1.432   5.481
  207POPC   C4B 2917   6.436   1.070   5.738
  208POPC   NC3 2918   7.057   3.034   3.576
  208POPC   PO4 2919   6.670   2.730   3.998
  208POPC   GL1 2920   7.016   2.715   4.310
  208POPC   GL2 2921   7.089   2.343   4.273
  208POPC   C1A 2922   7.256   2.961   4.676
  208POPC   D2A 2923   7.114   3.065   5.107
  208POPC   C3A 2924   7.288   3.000   5.521
  208POPC   C4A 2925   7.253   3.061   5.993
  208POPC   C1B 2926   7.340   2.473   4.623
  208POPC   C2B 2927   7.260   2.573   5.027
  208POPC   C3B 2928   7.442   2.509   5.414
  208POPC   C4B 2929   7.309   2.579   5.803
  209POPC   NC3 2930   9.907   3.739   3.618
  209POPC   PO4 2931  10.362   4.068   3.924
  209POPC   GL1 2932  10.185   4.147   4.269
  209POPC   GL2 2933  10.306   4.429   4.364
  209POPC   C1A 2934   9.931   4.182   4.629
  209POPC   D2A 2935   9.710   4.327   4.991
  209POPC   C3A 2936   9.931   4.102   5.288
  209POPC   C4A 2937  10.027   4.075   5.662
  209POPC   C1B 2938  10.454   4.102   4.687
  209POPC   C2B 2939  10.401   3.938   5.094
  209POPC   C3B 2940  10.425   4.256   5.409
  209POPC   C4B 2941  10.364   4.414   5.792
  210POPC   NC3 2942   7.909   3.212   4.066
  210POPC   PO4 2943   8.270   3.644   3.973
  210POPC   GL1 2944   8.128   3.523   4.405
  210POPC   GL2 2945   8.151   3.139   4.519
  210POPC   C1A 2946   8.186   3.514   4.864
  210POPC   D2A 2947   8.127   3.157   5.167
  210POPC   C3A 2948   8.051   3.326   5.597
  210POPC   C4A 2949   7.941   3.683   5.895
  210POPC   C1B 2950   7.759   3.258   4.780
  210POPC   C2B 2951   7.610   3.331   5.236
  210POPC   C3B 2952   7.538   3.421   5.700
  210POPC   C4B 2953   7.610   3.392   6.165
  211POPC   NC3 2954   0.318   8.904   4.002
  211POPC   PO4 2955   0.564   8.311   3.990
  211POPC   GL1 2956   0.542   8.521   4.343
  211POPC   GL2 2957   0.202   8.619   4.402
  211POPC   C1A 2958   0.466   8.341   4.731
  211POPC   D2A 2959   0.442   8.080   5.061
  211POPC   C3A 2960   0.430   8.333   5.414
  211POPC   C4A 2961   0.507   8.564   5.776
  211POPC   C1B 2962   0.463   8.930   4.651
  211POPC   C2B 2963   0.466   9.095   5.051
  211POPC   C3B 2964   0.365   8.880   5.406
  211POPC   C4B 2965   0.168   8.962   5.788
  212POPC   NC3 2966   2.333   6.765   3.917
  212POPC   PO4 2967   1.690   6.734   3.963
  212POPC   GL1 2968   1.798   6.809   4.374
  212POPC   GL2 2969   2.098   6.600   4.373
  212POPC   C1A 2970   1.758   6.638   4.787
  212POPC   D2A 2971   1.789   6.484   5.193
  212POPC   C3A 2972   1.735   6.644   5.592
  212POPC   C4A 2973   1.838   6.458   6.017
  212POPC   C1B 2974   2.132   6.275   4.712
  212POPC   C2B 2975   2.210   6.219   5.158
  212POPC   C3B 2976   2.096   6.256   5.590
  212POPC   C4B 2977   2.349   6.413   5.909
  213POPC   NC3 2978  10.148   4.487   3.877
  213POPC   PO4 2979  10.022   5.163   3.725
  213POPC   GL1 2980   9.979   4.895   4.143
  213POPC   GL2 2981  10.286   4.941   4.239
  213POPC   C1A 2982   9.986   4.701   4.619
  213POPC   D2A 2983  10.202   4.472   4.991
  213POPC   C3A 2984  10.025   4.580   5.414
  213POPC   C4A 2985   9.851   4.518   5.848
  213POPC   C1B 2986  10.267   5.123   4.639
  213POPC   C2B 2987  10.182   4.982   5.048
  213POPC   C3B 2988  10.081   5.076   5.470
  213POPC   C4B 2989  10.178   4.893   5.837
  214POPC   NC3 2990   3.340   2.561   3.800
  214POPC   PO4 2991   3.195   3.126   4.147
  214POPC   GL1 2992   3.491   2.773   4.266
  214POPC   GL2 2993   3.316   2.469   4.300
  214POPC   C1A 2994   3.766   2.705   4.655
  214POPC   D2A 2995   3.853   2.864   5.093
  214POPC   C3A 2996   3.679   2.790   5.523
  214POPC   C4A 2997   3.596   2.645   5.954
  214POPC   C1B 2998   3.273   2.705   4.727
  214POPC   C2B 2999   3.270   2.773   5.174
  214POPC   C3B 3000   3.195   2.607   5.600
  214POPC   C4B 3001   3.110   2.834   5.988
  215POPC   NC3 3002   1.423   8.852   3.834
  215POPC   PO4 3003   2.104   9.154   3.835
  215POPC   GL1 3004   2.011   8.939   4.207
  215POPC   GL2 3005   1.766   8.682   4.242
  215POPC   C1A 3006   2.059   8.825   4.642
  215POPC   D2A 3007   1.896   8.689   5.048
  215POPC   C3A 3008   2.092   8.748   5.423
  215POPC   C4A 3009   2.300   8.827   5.776
  215POPC   C1B 3010   1.676   8.453   4.652
  215POPC   C2B 3011   1.694   8.151   4.974
  215POPC   C3B 3012   1.876   8.216   5.368
  215POPC   C4B 3013   2.041   8.364   5.759
  216POPC   NC3 3014   0.473   9.428   3.703
  216POPC   PO4 3015  10.396   9.002   3.789
  216POPC   GL1 3016  10.470   9.134   4.273
  216POPC   GL2 3017   0.315   9.312   4.328
  216POPC   C1A 3018   0.031   9.236   4.745
  216POPC   D2A 3019   0.179   9.545   5.057
  216POPC   C3A 3020   0.301   9.385   5.459
  216POPC   C4A 3021   0.023   9.541   5.757
  216POPC   C1B 3022   0.547   9.473   4.721
  216POPC   C2B 3023   0.705   9.557   5.178
  216POPC   C3B 3024   0.666   9.741   5.670
  216POPC   C4B 3025   0.759   9.668   6.166
  217POPC   NC3 3026   4.177   7.918   3.882
  217POPC   PO4 3027   3.671   8.318   3.858
  217POPC   GL1 3028   3.781   8.039   4.239
  217POPC   GL2 3029   4.140   7.934   4.386
  217POPC   C1A 3030   3.747   7.831   4.675
  217POPC   D2A 3031   3.778   8.045   5.094
  217POPC   C3A 3032   3.880   7.818   5.491
  217POPC   C4A 3033   4.154   7.740   5.853
  217POPC   C1B 3034   4.316   8.100   4.814
  217POPC   C2B 3035   4.308   7.983   5.259
  217POPC   C3B 3036   4.620   7.849   5.597
  217POPC   C4B 3037   4.799   7.682   5.997
  218POPC   NC3 3038   0.558   7.111   4.033
  218POPC   PO4 3039   0.055   7.090   3.661
  218POPC   GL1 3040   0.120   7.112   4.253
  218POPC   GL2 3041   0.378   7.431   4.377
  218POPC   C1A 3042   0.183   7.135   4.732
  218POPC   D2A 3043   0.413   7.331   5.076
  218POPC   C3A 3044   0.309   7.352   5.524
  218POPC   C4A 3045   0.284   7.426   5.978
  218POPC   C1B 3046   0.706   7.193   4.656
  218POPC   C2B 3047   0.864   7.029   5.042
  218POPC   C3B 3048   0.808   7.252   5.410
  218POPC   C4B 3049   0.674   7.125   5.808
  219POPC   NC3 3050   0.881   0.541   4.183
  219POPC   PO4 3051   0.295   0.366   3.848
  219POPC   GL1 3052   0.416   0.367   4.251
  219POPC   GL2 3053   0.221   0.644   4.314
  219POPC   C1A 3054   0.523   0.498   4.725
  219POPC   D2A 3055   0.753   0.361   5.083
  219POPC   C3A 3056   0.785   0.651   5.410
  219POPC   C4A 3057   0.717   0.432   5.784
  219POPC   C1B 3058   0.084   0.287   4.610
  219POPC   C2B 3059   0.061   0.385   5.036
  219POPC   C3B 3060   0.331   0.371   5.369
  219POPC   C4B 3061   0.197   0.313   5.726
  220POPC   NC3 3062   6.304   2.886   4.217
  220POPC   PO4 3063   6.046   2.315   4.013
  220POPC   GL1 3064   6.237   2.385   4.407
  220POPC   GL2 3065   6.582   2.445   4.413
  220POPC   C1A 3066   6.338   2.429   4.846
  220POPC   D2A 3067   6.473   2.719   5.151
  220POPC   C3A 3068   6.331   2.572   5.549
  220POPC   C4A 3069   6.305   2.727   6.009
  220POPC   C1B 3070   6.849   2.438   4.728
  220POPC   C2B 3071   6.816   2.349   5.126
  220POPC   C3B 3072   6.918   2.632   5.428
  220POPC   C4B 3073   6.766   2.558   5.811
  221POPC   NC3 3074   1.724   8.182   4.080
  221POPC   PO4 3075   1.573   7.570   3.935
  221POPC   GL1 3076   1.985   7.743   4.211
  221POPC   GL2 3077   1.974   8.039   4.480
  221POPC   C1A 3078   2.264   7.657   4.636
  221POPC   D2A 3079   2.295   7.890   5.013
  221POPC   C3A 3080   2.125   7.703   5.397
  221POPC   C4A 3081   2.163   7.434   5.759
  221POPC   C1B 3082   1.734   7.713   4.665
  221POPC   C2B 3083   1.726   7.567   5.065
  221POPC   C3B 3084   1.617   7.665   5.464
  221POPC   C4B 3085   1.812   7.901   5.773
  222POPC   NC3 3086   1.113   7.794   3.852
  222POPC   PO4 3087   1.355   8.450   4.050
  222POPC   GL1 3088   1.303   8.205   4.385
  222POPC   GL2 3089   1.394   7.870   4.287
  222POPC   C1A 3090   1.150   8.244   4.791
  222POPC   D2A 3091   0.939   8.202   5.181
  222POPC   C3A 3092   1.270   8.268   5.489
  222POPC   C4A 3093   1.526   8.310   5.871
  222POPC   C1B 3094   1.228   7.756   4.627
  222POPC   C2B 3095   1.291   7.820   5.039
  222POPC   C3B 3096   1.113   7.790   5.410
  222POPC   C4B 3097   1.279   7.864   5.791
  223POPC   NC3 3098   0.204   7.915   3.906
  223POPC   PO4 3099   0.741   7.816   3.582
  223POPC   GL1 3100   0.666   7.828   4.138
  223POPC   GL2 3101   0.357   7.989   4.367
  223POPC   C1A 3102   0.744   7.878   4.638
  223POPC   D2A 3103   0.823   7.614   5.008
  223POPC   C3A 3104   0.613   7.754   5.399
  223POPC   C4A 3105   0.767   8.085   5.699
  223POPC   C1B 3106   0.194   7.746   4.749
  223POPC   C2B 3107   0.076   7.707   5.199
  223POPC   C3B 3108   0.163   7.826   5.636
  223POPC   C4B 3109   0.133   8.218   5.841
  224POPC   NC3 3110  10.185   3.667   4.079
  224POPC   PO4 3111   9.841   3.277   3.603
  224POPC   GL1 3112   9.882   3.202   4.107
  224POPC   GL2 3113  10.217   3.147   4.205
  224POPC   C1A 3114   9.934   3.357   4.618
  224POPC   D2A 3115  10.183   3.426   5.044
  224POPC   C3A 3116  10.056   3.586   5.479
  224POPC   C4A 3117   9.955   3.683   5.954
  224POPC   C1B 3118  10.397   3.064   4.605
  224POPC   C2B 3119  10.495   2.990   5.018
  224POPC   C3B 3120  10.318   3.077   5.413
  224POPC   C4B 3121  10.225   3.228   5.823
  225POPC   NC3 3122   1.862   0.541   4.038
  225POPC   PO4 3123   2.281   0.924   3.911
  225POPC   GL1 3124   2.283   0.634   4.304
  225POPC   GL2 3125   1.934   0.450   4.502
  225POPC   C1A 3126   2.230   0.774   4.715
  225POPC   D2A 3127   1.940   0.581   4.985
  225POPC   C3A 3128   2.086   0.630   5.368
  225POPC   C4A 3129   2.174   0.525   5.778
  225POPC   C1B 3130   1.611   0.169   4.684
  225POPC   C2B 3131   1.733   0.085   5.101
  225POPC   C3B 3132   1.620   0.436   5.359
  225POPC   C4B 3133   1.631   0.566   5.773
  226POPC   NC3 3134   7.231   1.486   3.833
  226POPC   PO4 3135   7.860   1.783   3.812
  226POPC   GL1 3136   7.583   1.601   4.187
  226POPC   GL2 3137   7.286   1.844   4.271
  226POPC   C1A 3138   7.460   1.578   4.672
  226POPC   D2A 3139   7.512   1.651   5.143
  226POPC   C3A 3140   7.157   1.650   5.465
  226POPC   C4A 3141   7.135   1.770   5.897
  226POPC   C1B 3142   7.146   2.001   4.720
  226POPC   C2B 3143   7.251   2.087   5.180
  226POPC   C3B 3144   7.067   2.176   5.612
  226POPC   C4B 3145   6.851   2.139   6.072
  227POPC   NC3 3146   7.909   8.035   3.951
  227POPC   PO4 3147   8.390   7.547   3.986
  227POPC   GL1 3148   8.161   7.634   4.344
  227POPC   GL2 3149   7.888   7.872   4.423
  227POPC   C1A 3150   8.074   7.568   4.776
  227POPC   D2A 3151   8.178   7.799   5.149
  227POPC   C3A 3152   8.130   7.579   5.543
  227POPC   C4A 3153   7.924   7.577   5.924
  227POPC   C1B 3154   7.621   7.819   4.786
  227POPC   C2B 3155   7.700   7.981   5.187
  227POPC   C3B 3156   7.628   7.896   5.625
  227POPC   C4B 3157   7.761   8.071   6.029
  228POPC   NC3 3158   4.330   2.676   3.882
  228POPC   PO4 3159   3.776   2.270   3.859
  228POPC   GL1 3160   3.903   2.379   4.273
  228POPC   GL2 3161   4.239   2.500   4.352
  228POPC   C1A 3162   3.978   2.250   4.710
  228POPC   D2A 3163   4.131   2.386   5.117
  228POPC   C3A 3164   4.159   2.606   5.485
  228POPC   C4A 3165   4.060   2.473   5.868
  228POPC   C1B 3166   4.282   2.703   4.763
  228POPC   C2B 3167   4.354   2.939   5.151
  228POPC   C3B 3168   4.312   3.085   5.586
  228POPC   C4B 3169   4.502   2.897   5.982
  229POPC   NC3 3170   9.670   5.360   3.970
  229POPC   PO4 3171   9.144   5.085   3.656
  229POPC   GL1 3172   9.241   4.930   4.173
  229POPC   GL2 3173   9.521   5.038   4.308
  229POPC   C1A 3174   9.176   5.055   4.661
  229POPC   D2A 3175   9.351   5.280   5.058
  229POPC   C3A 3176   9.206   5.152   5.512
  229POPC   C4A 3177   9.037   5.176   5.944
  229POPC   C1B 3178   9.703   5.120   4.705
  229POPC   C2B 3179   9.689   4.870   5.094
  229POPC   C3B 3180   9.545   4.758   5.511
  229POPC   C4B 3181   9.406   4.767   5.964
  230POPC   NC3 3182   7.939   7.208   3.923
  230POPC   PO4 3183   7.508   7.737   3.949
  230POPC   GL1 3184   7.641   7.447   4.345
  230POPC   GL2 3185   7.936   7.201   4.415
  230POPC   C1A 3186   7.628   7.302   4.801
  230POPC   D2A 3187   7.764   7.464   5.212
  230POPC   C3A 3188   7.540   7.388   5.631
  230POPC   C4A 3189   7.578   7.187   6.063
  230POPC   C1B 3190   8.096   7.009   4.791
  230POPC   C2B 3191   8.035   6.902   5.270
  230POPC   C3B 3192   7.979   7.073   5.732
  230POPC   C4B 3193   8.086   7.170   6.199
  231POPC   NC3 3194  10.430   6.373   3.904
  231POPC   PO4 3195   9.950   6.055   4.066
  231POPC   GL1 3196  10.226   6.298   4.362
  231POPC   GL2 3197  10.234   6.675   4.295
  231POPC   C1A 3198  10.333   6.336   4.804
  231POPC   D2A 3199  10.053   6.340   5.130
  231POPC   C3A 3200  10.185   6.089   5.474
  231POPC   C4A 3201  10.214   6.168   5.857
  231POPC   C1B 3202  10.288   6.826   4.746
  231POPC   C2B 3203  10.407   6.701   5.186
  231POPC   C3B 3204  10.134   6.593   5.578
  231POPC   C4B 3205   9.925   6.520   6.019
  232POPC   NC3 3206   5.648  10.315   3.883
  232POPC   PO4 3207   5.944   9.698   3.875
  232POPC   GL1 3208   5.917   9.992   4.229
  232POPC   GL2 3209   5.557  10.031   4.284
  232POPC   C1A 3210   5.827  10.084   4.699
  232POPC   D2A 3211   5.857  10.229   5.127
  232POPC   C3A 3212   6.055   9.974   5.458
  232POPC   C4A 3213   5.809  10.243   5.707
  232POPC   C1B 3214   5.248   9.981   4.592
  232POPC   C2B 3215   5.367  10.025   5.003
  232POPC   C3B 3216   5.538   9.922   5.394
  232POPC   C4B 3217   5.274   9.890   5.759
  233POPC   NC3 3218   0.521  10.420   3.825
  233POPC   PO4 3219   0.289   9.714   4.011
  233POPC   GL1 3220   0.437  10.000   4.308
  233POPC   GL2 3221   0.304  10.331   4.269
  233POPC   C1A 3222   0.491  10.011   4.753
  233POPC   D2A 3223   0.554  10.025   5.198
  233POPC   C3A 3224   0.237   9.883   5.449
  233POPC   C4A 3225   0.216  10.065   5.807
  233POPC   C1B 3226   0.577  10.493   4.572
  233POPC   C2B 3227   0.376  10.490   4.976
  233POPC   C3B 3228   0.248  10.388   5.389
  233POPC   C4B 3229   0.544  10.452   5.693
  234POPC   NC3 3230  10.478  10.047   3.959
  234POPC   PO4 3231  10.241   0.091   3.987
  234POPC   GL1 3232  10.298  10.356   4.351
  234POPC   GL2 3233  10.108  10.055   4.441
  234POPC   C1A 3234  10.275  10.410   4.774
  234POPC   D2A 3235  10.054   0.052   5.090
  234POPC   C3A 3236  10.305   0.160   5.426
  234POPC   C4A 3237  10.385  10.443   5.798
  234POPC   C1B 3238  10.482   9.911   4.623
  234POPC   C2B 3239   0.052  10.058   5.020
  234POPC   C3B 3240  10.303  10.144   5.373
  234POPC   C4B 3241  10.163  10.004   5.788
  235POPC   NC3 3242   3.365   0.650   3.977
  235POPC   PO4 3243   3.383  10.472   3.943
  235POPC   GL1 3244   3.529   0.196   4.302
  235POPC   GL2 3245   3.409   0.507   4.447
  235POPC   C1A 3246   3.614   0.099   4.741
  235POPC   D2A 3247   3.299   0.051   5.106
  235POPC   C3A 3248   3.409   0.180   5.549
  235POPC   C4A 3249   3.525   0.323   5.979
  235POPC   C1B 3250   3.090   0.296   4.666
  235POPC   C2B 3251   2.923   0.451   5.042
  235POPC   C3B 3252   2.975   0.366   5.438
  235POPC   C4B 3253   3.179   0.614   5.747
  236POPC   NC3 3254   9.683   6.350   3.828
  236POPC   PO4 3255   9.151   6.605   4.121
  236POPC   GL1 3256   9.611   6.517   4.292
  236POPC   GL2 3257   9.610   6.163   4.448
  236POPC   C1A 3258   9.864   6.526   4.666
  236POPC   D2A 3259   9.536   6.618   4.954
  236POPC   C3A 3260   9.644   6.537   5.347
  236POPC   C4A 3261   9.642   6.753   5.690
  236POPC   C1B 3262   9.627   6.134   4.934
  236POPC   C2B 3263   9.227   6.281   5.197
  236POPC   C3B 3264   9.225   6.405   5.629
  236POPC   C4B 3265   9.625   6.218   5.738
  237POPC   NC3 3266   1.166   4.616   3.947
  237POPC   PO4 3267   0.865   5.220   3.878
  237POPC   GL1 3268   1.142   4.993   4.293
  237POPC   GL2 3269   1.423   4.703   4.390
  237POPC   C1A 3270   1.077   4.817   4.750
  237POPC   D2A 3271   0.962   5.061   5.115
  237POPC   C3A 3272   1.056   4.934   5.548
  237POPC   C4A 3273   1.296   5.093   5.926
  237POPC   C1B 3274   1.545   4.971   4.732
  237POPC   C2B 3275   1.466   5.112   5.141
  237POPC   C3B 3276   1.552   4.887   5.516
  237POPC   C4B 3277   1.352   4.539   5.735
  238POPC   NC3 3278   8.693   8.366   4.100
  238POPC   PO4 3279   8.529   8.983   3.910
  238POPC   GL1 3280   8.526   8.811   4.319
  238POPC   GL2 3281   8.894   8.759   4.343
  238POPC   C1A 3282   8.640   8.859   4.760
  238POPC   D2A 3283   8.670   8.628   5.126
  238POPC   C3A 3284   8.762   8.874   5.464
  238POPC   C4A 3285   8.486   8.964   5.773
  238POPC   C1B 3286   8.910   8.416   4.711
  238POPC   C2B 3287   9.070   8.194   5.085
  238POPC   C3B 3288   8.911   8.358   5.497
  238POPC   C4B 3289   8.500   8.464   5.710
  239POPC   NC3 3290   7.241   8.143   3.916
  239POPC   PO4 3291   6.922   8.754   3.828
  239POPC   GL1 3292   6.974   8.670   4.264
  239POPC   GL2 3293   7.276   8.562   4.312
  239POPC   C1A 3294   7.045   8.832   4.693
  239POPC   D2A 3295   7.207   8.920   5.107
  239POPC   C3A 3296   6.956   8.654   5.363
  239POPC   C4A 3297   6.807   8.565   5.763
  239POPC   C1B 3298   7.579   8.758   4.616
  239POPC   C2B 3299   7.750   8.729   5.043
  239POPC   C3B 3300   7.571   8.841   5.464
  239POPC   C4B 3301   7.299   8.637   5.755
  240POPC   NC3 3302   4.250   0.957   3.819
  240POPC   PO4 3303   3.810   1.523   3.841
  240POPC   GL1 3304   3.966   1.204   4.169
  240POPC   GL2 3305   4.274   1.093   4.294
  240POPC   C1A 3306   3.932   1.225   4.642
  240POPC   D2A 3307   4.165   1.275   5.052
  240POPC   C3A 3308   4.056   1.101   5.456
  240POPC   C4A 3309   3.932   1.262   5.841
  240POPC   C1B 3310   4.320   0.917   4.677
  240POPC   C2B 3311   4.171   0.744   5.042
  240POPC   C3B 3312   4.260   0.631   5.413
  240POPC   C4B 3313   4.303   0.780   5.810
  241POPC   NC3 3314   9.984   9.222   3.930
  241POPC   PO4 3315  10.038   9.921   3.955
  241POPC   GL1 3316   9.864   9.644   4.202
  241POPC   GL2 3317  10.200   9.561   4.314
  241POPC   C1A 3318   9.824   9.694   4.643
  241POPC   D2A 3319  10.172   9.604   4.949
  241POPC   C3A 3320  10.162   9.653   5.404
  241POPC   C4A 3321   9.885   9.588   5.787
  241POPC   C1B 3322  10.032   9.235   4.584
  241POPC   C2B 3323  10.095   9.070   4.985
  241POPC   C3B 3324  10.357   9.174   5.302
  241POPC   C4B 3325  10.194   9.170   5.700
  242POPC   NC3 3326   6.338   7.764   3.985
  242POPC   PO4 3327   6.318   8.360   4.080
  242POPC   GL1 3328   6.622   8.307   4.301
  242POPC   GL2 3329   6.533   8.000   4.408
  242POPC   C1A 3330   6.817   8.374   4.683
  242POPC   D2A 3331   6.932   8.206   5.081
  242POPC   C3A 3332   6.683   8.184   5.434
  242POPC   C4A 3333   6.743   8.072   5.846
  242POPC   C1B 3334   6.514   8.002   4.856
  242POPC   C2B 3335   6.559   7.749   5.208
  242POPC   C3B 3336   6.419   7.745   5.627
  242POPC   C4B 3337   6.559   7.609   6.041
  243POPC   NC3 3338   8.606   0.780   3.923
  243POPC   PO4 3339   8.576   1.444   3.971
  243POPC   GL1 3340   8.755   1.259   4.310
  243POPC   GL2 3341   9.006   1.518   4.336
  243POPC   C1A 3342   8.841   1.017   4.699
  243POPC   D2A 3343   8.629   1.012   5.106
  243POPC   C3A 3344   8.742   0.737   5.458
  243POPC   C4A 3345   8.713   0.933   5.843
  243POPC   C1B 3346   8.782   1.568   4.736
  243POPC   C2B 3347   8.821   1.487   5.176
  243POPC   C3B 3348   8.623   1.343   5.555
  243POPC   C4B 3349   8.573   1.406   6.022
  244POPC   NC3 3350   2.515   9.378   3.772
  244POPC   PO4 3351   2.869   8.874   3.951
  244POPC   GL1 3352   2.580   9.156   4.229
  244POPC   GL2 3353   2.827   9.420   4.236
  244POPC   C1A 3354   2.300   9.291   4.589
  244POPC   D2A 3355   2.355   9.071   4.999
  244POPC   C3A 3356   2.279   9.229   5.405
  244POPC   C4A 3357   2.471   9.289   5.823
  244POPC   C1B 3358   2.809   9.362   4.695
  244POPC   C2B 3359   2.797   9.546   5.114
  244POPC   C3B 3360   2.563   9.650   5.482
  244POPC   C4B 3361   2.704   9.748   5.920
  245POPC   NC3 3362   5.782   8.596   4.008
  245POPC   PO4 3363   5.324   8.253   4.065
  245POPC   GL1 3364   5.312   8.664   4.287
  245POPC   GL2 3365   5.585   8.848   4.420
  245POPC   C1A 3366   5.242   8.701   4.742
  245POPC   D2A 3367   5.440   8.514   5.085
  245POPC   C3A 3368   5.295   8.654   5.445
  245POPC   C4A 3369   5.447   8.688   5.846
  245POPC   C1B 3370   5.791   8.660   4.731
  245POPC   C2B 3371   5.954   8.593   5.140
  245POPC   C3B 3372   5.815   8.482   5.528
  245POPC   C4B 3373   5.975   8.702   5.874
  246POPC   NC3 3374   9.450   3.075   3.752
  246POPC   PO4 3375   9.713   3.680   4.034
  246POPC   GL1 3376   9.464   3.451   4.315
  246POPC   GL2 3377   9.386   3.093   4.267
  246POPC   C1A 3378   9.458   3.607   4.713
  246POPC   D2A 3379   9.726   3.745   5.017
  246POPC   C3A 3380   9.543   3.682   5.449
  246POPC   C4A 3381   9.609   3.363   5.801
  246POPC   C1B 3382   9.510   3.078   4.727
  246POPC   C2B 3383   9.599   3.260   5.117
  246POPC   C3B 3384   9.310   3.149   5.463
  246POPC   C4B 3385   9.085   3.141   5.863
  247POPC   NC3 3386   0.260   1.819   3.729
  247POPC   PO4 3387   0.825   1.875   4.000
  247POPC   GL1 3388   0.644   1.607   4.312
  247POPC   GL2 3389   0.300   1.715   4.241
  247POPC   C1A 3390   0.481   1.734   4.716
  247POPC   D2A 3391   0.501   1.924   5.114
  247POPC   C3A 3392   0.569   1.677   5.448
  247POPC   C4A 3393   0.751   1.658   5.824
  247POPC   C1B 3394   0.225   2.127   4.511
  247POPC   C2B 3395   0.083   2.162   4.964
  247POPC   C3B 3396   0.179   2.211   5.423
  247POPC   C4B 3397   0.322   1.970   5.790
  248POPC   NC3 3398   9.611   0.105   3.751
  248POPC   PO4 3399   9.050   0.601   3.936
  248POPC   GL1 3400   9.081   0.604   4.409
  248POPC   GL2 3401   9.387   0.395   4.473
  248POPC   C1A 3402   9.267   0.751   4.796
  248POPC   D2A 3403   9.118   0.888   5.153
  248POPC   C3A 3404   9.265   0.687   5.557
  248POPC   C4A 3405   9.692   0.717   5.755
  248POPC   C1B 3406   9.360   0.078   4.775
  248POPC   C2B 3407   9.544  10.496   5.154
  248POPC   C3B 3408   9.463   0.197   5.559
  248POPC   C4B 3409   9.243   0.246   5.933
  249POPC   NC3 3410   8.589   3.300   3.870
  249POPC   PO4 3411   8.841   3.965   3.772
  249POPC   GL1 3412   8.771   3.685   4.160
  249POPC   GL2 3413   8.959   3.379   4.215
  249POPC   C1A 3414   8.598   3.460   4.558
  249POPC   D2A 3415   8.638   3.285   4.997
  249POPC   C3A 3416   8.429   3.547   5.308
  249POPC   C4A 3417   8.414   3.718   5.697
  249POPC   C1B 3418   9.060   3.293   4.652
  249POPC   C2B 3419   9.142   3.450   5.077
  249POPC   C3B 3420   8.910   3.472   5.465
  249POPC   C4B 3421   8.574   3.207   5.662
  250POPC   NC3 3422  10.218   5.730   3.831
  250POPC   PO4 3423   0.361   5.661   3.944
  250POPC   GL1 3424   0.098   5.561   4.319
  250POPC   GL2 3425  10.299   5.760   4.330
  250POPC   C1A 3426  10.476   5.552   4.778
  250POPC   D2A 3427   0.018   5.353   5.186
  250POPC   C3A 3428  10.249   5.553   5.470
  250POPC   C4A 3429  10.442   5.740   5.778
  250POPC   C1B 3430  10.093   5.913   4.672
  250POPC   C2B 3431  10.098   5.837   5.057
  250POPC   C3B 3432   9.753   5.859   5.355
  250POPC   C4B 3433   9.861   5.771   5.779
  251POPC   NC3 3434   9.171   9.761   3.806
  251POPC   PO4 3435   9.511   9.168   3.865
  251POPC   GL1 3436   9.368   9.473   4.187
  251POPC   GL2 3437   9.245   9.159   4.298
  251POPC   C1A 3438   9.295   9.672   4.617
  251POPC   D2A 3439   9.304   9.879   5.038
  251POPC   C3A 3440   9.485   9.720   5.398
  251POPC   C4A 3441   9.424   9.849   5.810
  251POPC   C1B 3442   9.518   9.238   4.640
  251POPC   C2B 3443   9.671   9.405   5.009
  251POPC   C3B 3444   9.798   9.307   5.370
  251POPC   C4B 3445   9.505   9.281   5.681
  252POPC   NC3 3446   3.091   5.508   4.024
  252POPC   PO4 3447   2.451   5.513   3.925
  252POPC   GL1 3448   2.623   5.585   4.290
  252POPC   GL2 3449   2.600   5.927   4.406
  252POPC   C1A 3450   2.674   5.469   4.713
  252POPC   D2A 3451   2.410   5.400   5.060
  252POPC   C3A 3452   2.635   5.315   5.469
  252POPC   C4A 3453   2.588   5.355   5.935
  252POPC   C1B 3454   2.553   5.947   4.862
  252POPC   C2B 3455   2.745   5.762   5.228
  252POPC   C3B 3456   2.808   5.760   5.675
  252POPC   C4B 3457   2.824   6.130   5.959
  253POPC   NC3 3458   2.096   3.511   3.783
  253POPC   PO4 3459   1.491   3.350   4.081
  253POPC   GL1 3460   1.880   3.237   4.197
  253POPC   GL2 3461   1.943   3.562   4.297
  253POPC   C1A 3462   1.947   3.160   4.637
  253POPC   D2A 3463   1.721   3.243   5.047
  253POPC   C3A 3464   1.906   3.216   5.458
  253POPC   C4A 3465   2.131   3.507   5.695
  253POPC   C1B 3466   1.831   3.652   4.730
  253POPC   C2B 3467   2.075   3.609   5.127
  253POPC   C3B 3468   1.753   3.720   5.395
  253POPC   C4B 3469   1.659   3.685   5.801
  254POPC   NC3 3470   0.249   4.248   3.797
  254POPC   PO4 3471   0.897   4.218   3.825
  254POPC   GL1 3472   0.568   4.272   4.196
  254POPC   GL2 3473   0.225   4.148   4.273
  254POPC   C1A 3474   0.464   4.382   4.646
  254POPC   D2A 3475   0.245   4.343   5.029
  254POPC   C3A 3476   0.402   4.441   5.424
  254POPC   C4A 3477   0.380   4.253   5.802
  254POPC   C1B 3478   0.433   3.880   4.545
  254POPC   C2B 3479   0.528   3.902   4.980
  254POPC   C3B 3480   0.328   3.931   5.391
  254POPC   C4B 3481   0.004   3.891   5.758
  255POPC   NC3 3482   5.026   1.272   3.883
  255POPC   PO4 3483   4.637   0.773   3.617
  255POPC   GL1 3484   4.710   0.961   4.069
  255POPC   GL2 3485   4.997   0.870   4.232
  255POPC   C1A 3486   4.733   1.199   4.490
  255POPC   D2A 3487   4.664   1.248   4.925
  255POPC   C3A 3488   4.567   1.004   5.284
  255POPC   C4A 3489   4.503   1.217   5.693
  255POPC   C1B 3490   5.067   0.822   4.663
  255POPC   C2B 3491   5.106   1.025   5.074
  255POPC   C3B 3492   4.977   1.244   5.444
  255POPC   C4B 3493   4.972   0.995   5.802
  256POPC   NC3 3494   8.118   8.774   3.813
  256POPC   PO4 3495   7.620   8.381   4.003
  256POPC   GL1 3496   7.843   8.386   4.349
  256POPC   GL2 3497   8.015   8.686   4.311
  256POPC   C1A 3498   7.844   8.277   4.779
  256POPC   D2A 3499   8.095   8.335   5.159
  256POPC   C3A 3500   7.811   8.361   5.503
  256POPC   C4A 3501   7.763   8.546   5.875
  256POPC   C1B 3502   8.194   8.632   4.727
  256POPC   C2B 3503   8.229   8.888   5.132
  256POPC   C3B 3504   8.073   8.798   5.562
  256POPC   C4B 3505   8.069   8.889   6.058
  257POPC   NC3 3506   2.787   4.434   3.652
  257POPC   PO4 3507   2.330   4.697   4.045
  257POPC   GL1 3508   2.235   4.475   4.428
  257POPC   GL2 3509   2.497   4.240   4.342
  257POPC   C1A 3510   2.237   4.519   4.895
  257POPC   D2A 3511   2.568   4.534   5.203
  257POPC   C3A 3512   2.622   4.288   5.565
  257POPC   C4A 3513   2.585   4.440   5.997
  257POPC   C1B 3514   2.642   4.238   4.775
  257POPC   C2B 3515   2.966   4.181   5.078
  257POPC   C3B 3516   3.133   4.250   5.494
  257POPC   C4B 3517   2.994   4.153   5.913
  258POPC   NC3 3518   5.726   1.326   3.813
  258POPC   PO4 3519   5.376   0.851   3.920
  258POPC   GL1 3520   5.401   1.206   4.218
  258POPC   GL2 3521   5.743   1.262   4.313
  258POPC   C1A 3522   5.314   1.272   4.661
  258POPC   D2A 3523   5.615   1.258   5.038
  258POPC   C3A 3524   5.476   1.274   5.483
  258POPC   C4A 3525   5.335   1.344   5.962
  258POPC   C1B 3526   5.815   0.958   4.630
  258POPC   C2B 3527   6.055   0.958   5.017
  258POPC   C3B 3528   6.006   1.165   5.430
  258POPC   C4B 3529   5.809   1.108   5.841
  259POPC   NC3 3530   9.261   5.876   4.082
  259POPC   PO4 3531   9.778   5.718   3.696
  259POPC   GL1 3532   9.711   5.694   4.310
  259POPC   GL2 3533   9.385   5.579   4.473
  259POPC   C1A 3534   9.696   5.638   4.823
  259POPC   D2A 3535   9.878   5.386   5.115
  259POPC   C3A 3536   9.666   5.372   5.472
  259POPC   C4A 3537   9.700   5.150   5.829
  259POPC   C1B 3538   9.230   5.928   4.733
  259POPC   C2B 3539   9.261   5.778   5.154
  259POPC   C3B 3540   9.245   5.870   5.580
  259POPC   C4B 3541   9.376   5.541   5.857
  260POPC   NC3 3542   6.168   9.236   3.839
  260POPC   PO4 3543   5.585   9.024   3.962
  260POPC   GL1 3544   5.802   9.268   4.230
  260POPC   GL2 3545   5.616   9.534   4.264
  260POPC   C1A 3546   5.820   9.198   4.700
  260POPC   D2A 3547   5.614   9.007   5.066
  260POPC   C3A 3548   5.718   8.994   5.505
  260POPC   C4A 3549   5.673   9.128   5.942
  260POPC   C1B 3550   5.545   9.615   4.707
  260POPC   C2B 3551   5.394   9.495   5.142
  260POPC   C3B 3552   5.487   9.472   5.606
  260POPC   C4B 3553   5.771   9.758   5.842
  261POPC   NC3 3554   9.361   6.962   3.901
  261POPC   PO4 3555   9.676   7.553   3.770
  261POPC   GL1 3556   9.571   7.595   4.205
  261POPC   GL2 3557   9.374   7.310   4.300
  261POPC   C1A 3558   9.696   7.485   4.633
  261POPC   D2A 3559   9.782   7.403   5.066
  261POPC   C3A 3560   9.533   7.204   5.370
  261POPC   C4A 3561   9.614   7.247   5.809
  261POPC   C1B 3562   9.163   7.394   4.682
  261POPC   C2B 3563   9.274   7.078   4.947
  261POPC   C3B 3564   9.194   6.806   5.282
  261POPC   C4B 3565   9.194   6.953   5.672
  262POPC   NC3 3566   2.665   1.845   3.657
  262POPC   PO4 3567   2.908   2.455   3.960
  262POPC   GL1 3568   2.871   2.246   4.437
  262POPC   GL2 3569   2.776   1.886   4.517
  262POPC   C1A 3570   2.751   2.163   4.918
  262POPC   D2A 3571   3.053   2.296   5.207
  262POPC   C3A 3572   2.977   2.128   5.628
  262POPC   C4A 3573   2.800   2.065   6.026
  262POPC   C1B 3574   2.437   1.737   4.713
  262POPC   C2B 3575   2.286   1.929   5.075
  262POPC   C3B 3576   2.519   1.986   5.431
  262POPC   C4B 3577   2.463   1.739   5.771
  263POPC   NC3 3578   4.120   1.945   3.904
  263POPC   PO4 3579   4.638   1.526   3.881
  263POPC   GL1 3580   4.317   1.619   4.275
  263POPC   GL2 3581   4.257   1.989   4.372
  263POPC   C1A 3582   4.132   1.696   4.748
  263POPC   D2A 3583   3.906   1.934   5.091
  263POPC   C3A 3584   3.882   1.779   5.508
  263POPC   C4A 3585   4.230   1.648   5.727
  263POPC   C1B 3586   4.472   2.170   4.725
  263POPC   C2B 3587   4.438   1.970   5.120
  263POPC   C3B 3588   4.325   2.117   5.531
  263POPC   C4B 3589   4.569   2.411   5.791
  264POPC   NC3 3590   3.005  10.217   3.967
  264POPC   PO4 3591   2.388   0.045   3.884
  264POPC   GL1 3592   2.583  10.284   4.253
  264POPC   GL2 3593   2.647   9.913   4.205
  264POPC   C1A 3594   2.829  10.327   4.672
  264POPC   D2A 3595   2.765  10.477   5.117
  264POPC   C3A 3596   3.008  10.373   5.503
  264POPC   C4A 3597   2.898  10.211   5.894
  264POPC   C1B 3598   2.494   9.803   4.631
  264POPC   C2B 3599   2.562   9.998   5.052
  264POPC   C3B 3600   2.534  10.156   5.487
  264POPC   C4B 3601   2.379  10.137   5.929
  265POPC   NC3 3602   4.217   0.328   3.742
  265POPC   PO4 3603   3.771   0.854   3.810
  265POPC   GL1 3604   3.898   0.672   4.224
  265POPC   GL2 3605   4.026   0.303   4.248
  265POPC   C1A 3606   3.819   0.661   4.684
  265POPC   D2A 3607   3.585   0.485   5.067
  265POPC   C3A 3608   3.803   0.471   5.470
  265POPC   C4A 3609   3.796   0.765   5.808
  265POPC   C1B 3610   4.230   0.362   4.665
  265POPC   C2B 3611   4.061   0.232   5.038
  265POPC   C3B 3612   4.224   0.095   5.395
  265POPC   C4B 3613   4.259   0.286   5.773
  266POPC   NC3 3614   1.242   6.804   3.891
  266POPC   PO4 3615   0.933   7.382   4.041
  266POPC   GL1 3616   1.137   7.118   4.292
  266POPC   GL2 3617   1.435   7.313   4.367
  266POPC   C1A 3618   1.317   6.842   4.580
  266POPC   D2A 3619   1.292   6.698   5.013
  266POPC   C3A 3620   1.233   6.877   5.435
  266POPC   C4A 3621   1.271   6.945   5.869
  266POPC   C1B 3622   1.212   7.292   4.788
  266POPC   C2B 3623   1.291   7.330   5.216
  266POPC   C3B 3624   1.219   7.381   5.656
  266POPC   C4B 3625   0.837   7.594   5.829
  267POPC   NC3 3626   7.873   2.251   3.826
  267POPC   PO4 3627   8.168   2.859   3.930
  267POPC   GL1 3628   8.081   2.533   4.234
  267POPC   GL2 3629   7.714   2.494   4.269
  267POPC   C1A 3630   8.097   2.361   4.647
  267POPC   D2A 3631   8.148   2.661   4.987
  267POPC   C3A 3632   8.057   2.508   5.384
  267POPC   C4A 3633   7.825   2.473   5.759
  267POPC   C1B 3634   7.770   2.761   4.632
  267POPC   C2B 3635   7.672   2.846   5.062
  267POPC   C3B 3636   7.784   2.908   5.463
  267POPC   C4B 3637   7.729   2.974   5.854
  268POPC   NC3 3638   1.648   9.315   3.823
  268POPC   PO4 3639   1.621   9.993   3.652
  268POPC   GL1 3640   1.834   9.853   4.110
  268POPC   GL2 3641   1.981   9.509   4.171
  268POPC   C1A 3642   1.961   9.756   4.609
  268POPC   D2A 3643   2.186   9.610   5.024
  268POPC   C3A 3644   1.932   9.594   5.430
  268POPC   C4A 3645   2.041   9.612   5.891
  268POPC   C1B 3646   1.765   9.266   4.506
  268POPC   C2B 3647   1.863   9.211   4.924
  268POPC   C3B 3648   1.737   9.123   5.318
  268POPC   C4B 3649   1.895   9.147   5.727
  269POPC   NC3 3650   9.137   1.650   3.858
  269POPC   PO4 3651   9.010   2.323   3.856
  269POPC   GL1 3652   8.830   2.182   4.255
  269POPC   GL2 3653   8.631   1.864   4.318
  269POPC   C1A 3654   8.766   2.234   4.658
  269POPC   D2A 3655   8.779   2.028   5.063
  269POPC   C3A 3656   8.738   2.210   5.481
  269POPC   C4A 3657   8.671   1.852   5.778
  269POPC   C1B 3658   8.383   1.921   4.713
  269POPC   C2B 3659   8.287   2.162   5.097
  269POPC   C3B 3660   8.248   2.072   5.551
  269POPC   C4B 3661   8.256   2.259   5.953
  270POPC   NC3 3662   2.843   2.910   3.931
  270POPC   PO4 3663   2.387   2.465   4.263
  270POPC   GL1 3664   2.530   2.828   4.332
  270POPC   GL2 3665   2.888   2.782   4.401
  270POPC   C1A 3666   2.460   3.016   4.705
  270POPC   D2A 3667   2.210   3.086   5.059
  270POPC   C3A 3668   2.295   2.867   5.398
  270POPC   C4A 3669   2.375   3.001   5.813
  270POPC   C1B 3670   2.778   2.637   4.774
  270POPC   C2B 3671   2.736   2.769   5.154
  270POPC   C3B 3672   2.658   2.502   5.468
  270POPC   C4B 3673   2.704   2.554   5.858
  271POPC   NC3 3674  10.109   8.667   3.622
  271POPC   PO4 3675  10.162   8.008   3.712
  271POPC   GL1 3676  10.106   8.347   4.076
  271POPC   GL2 3677  10.207   8.688   4.150
  271POPC   C1A 3678   9.943   8.372   4.521
  271POPC   D2A 3679  10.036   8.528   4.977
  271POPC   C3A 3680   9.955   8.341   5.367
  271POPC   C4A 3681   9.850   8.409   5.772
  271POPC   C1B 3682  10.278   8.778   4.599
  271POPC   C2B 3683   0.025   8.757   5.003
  271POPC   C3B 3684  10.386   8.678   5.448
  271POPC   C4B 3685  10.255   8.698   5.886
  272POPC   NC3 3686   8.874   4.759   3.897
  272POPC   PO4 3687   9.195   5.410   4.070
  272POPC   GL1 3688   8.825   5.246   4.332
  272POPC   GL2 3689   8.753   4.918   4.342
  272POPC   C1A 3690   8.647   5.145   4.762
  272POPC   D2A 3691   8.917   5.028   5.098
  272POPC   C3A 3692   8.704   5.037   5.463
  272POPC   C4A 3693   8.782   4.777   5.804
  272POPC   C1B 3694   8.824   4.663   4.691
  272POPC   C2B 3695   8.595   4.665   5.024
  272POPC   C3B 3696   8.562   4.551   5.377
  272POPC   C4B 3697   8.307   4.732   5.670
  273POPC   NC3 3698  10.224   3.052   3.691
  273POPC   PO4 3699   9.708   2.685   3.762
  273POPC   GL1 3700   9.881   2.668   4.159
  273POPC   GL2 3701  10.154   2.432   4.273
  273POPC   C1A 3702   9.933   2.850   4.558
  273POPC   D2A 3703   9.984   2.937   5.023
  273POPC   C3A 3704   9.833   3.007   5.484
  273POPC   C4A 3705   9.846   2.861   5.917
  273POPC   C1B 3706  10.325   2.552   4.709
  273POPC   C2B 3707  10.257   2.523   5.158
  273POPC   C3B 3708  10.181   2.594   5.575
  273POPC   C4B 3709  10.418   2.327   5.848
  274POPC   NC3 3710   0.341   0.824   3.778
  274POPC   PO4 3711   0.920   0.966   4.019
  274POPC   GL1 3712   0.653   1.018   4.379
  274POPC   GL2 3713   0.343   1.144   4.211
  274POPC   C1A 3714   0.637   1.006   4.861
  274POPC   D2A 3715   0.336   0.818   5.159
  274POPC   C3A 3716   0.339   0.805   5.640
  274POPC   C4A 3717   0.670   0.939   5.845
  274POPC   C1B 3718   0.250   1.279   4.622
  274POPC   C2B 3719   0.343   1.398   5.054
  274POPC   C3B 3720   0.295   1.258   5.429
  274POPC   C4B 3721   0.364   1.359   5.827
  275POPC   NC3 3722   4.332   9.626   3.763
  275POPC   PO4 3723   4.243  10.356   3.694
  275POPC   GL1 3724   4.171  10.284   4.135
  275POPC   GL2 3725   3.850  10.272   4.301
  275POPC   C1A 3726   4.310  10.353   4.576
  275POPC   D2A 3727   4.560   0.016   4.933
  275POPC   C3A 3728   4.671  10.335   5.376
  275POPC   C4A 3729   4.449  10.306   5.781
  275POPC   C1B 3730   3.949  10.000   4.664
  275POPC   C2B 3731   4.162  10.162   5.064
  275POPC   C3B 3732   4.052  10.107   5.512
  275POPC   C4B 3733   4.004  10.128   5.996
  276POPC   NC3 3734   6.519   8.767   4.057
  276POPC   PO4 3735   6.596   9.377   3.928
  276POPC   GL1 3736   6.576   9.215   4.312
  276POPC   GL2 3737   6.270   9.254   4.417
  276POPC   C1A 3738   6.660   9.227   4.773
  276POPC   D2A 3739   6.370   9.471   5.049
  276POPC   C3A 3740   6.435   9.502   5.498
  276POPC   C4A 3741   6.731   9.466   5.783
  276POPC   C1B 3742   6.075   9.631   4.620
  276POPC   C2B 3743   5.893   9.687   5.059
  276POPC   C3B 3744   5.949   9.455   5.444
  276POPC   C4B 3745   6.156   9.200   5.794
  277POPC   NC3 3746   1.341   5.356   3.945
  277POPC   PO4 3747   1.071   5.989   3.920
  277POPC   GL1 3748   1.038   5.639   4.246
  277POPC   GL2 3749   1.396   5.622   4.356
  277POPC   C1A 3750   1.074   5.355   4.653
  277POPC   D2A 3751   0.912   5.565   5.021
  277POPC   C3A 3752   1.065   5.434   5.441
  277POPC   C4A 3753   0.868   5.754   5.691
  277POPC   C1B 3754   1.297   5.810   4.693
  277POPC   C2B 3755   1.409   5.655   5.082
  277POPC   C3B 3756   1.259   5.877   5.388
  277POPC   C4B 3757   1.395   5.941   5.751
  278POPC   NC3 3758   1.169   3.870   3.700
  278POPC   PO4 3759   1.461   4.282   4.080
  278POPC   GL1 3760   1.240   4.179   4.394
  278POPC   GL2 3761   0.990   4.440   4.411
  278POPC   C1A 3762   1.412   4.155   4.808
  278POPC   D2A 3763   1.334   4.393   5.176
  278POPC   C3A 3764   1.381   4.084   5.493
  278POPC   C4A 3765   1.303   4.019   5.937
  278POPC   C1B 3766   0.912   4.222   4.802
  278POPC   C2B 3767   0.835   4.237   5.232
  278POPC   C3B 3768   0.899   4.274   5.660
  278POPC   C4B 3769   0.788   4.025   6.003
  279POPC   NC3 3770  10.113   1.476   3.988
  279POPC   PO4 3771  10.355   2.015   3.817
  279POPC   GL1 3772  10.324   1.932   4.239
  279POPC   GL2 3773  10.016   1.817   4.352
  279POPC   C1A 3774  10.457   1.694   4.613
  279POPC   D2A 3775  10.356   1.598   5.016
  279POPC   C3A 3776   0.056   1.724   5.346
  279POPC   C4A 3777  10.446   1.649   5.737
  279POPC   C1B 3778  10.141   2.070   4.715
  279POPC   C2B 3779  10.095   2.016   5.121
  279POPC   C3B 3780  10.178   2.072   5.500
  279POPC   C4B 3781  10.037   1.929   5.877
  280POPC   NC3 3782   9.261   4.033   3.970
  280POPC   PO4 3783   9.843   4.190   3.676
  280POPC   GL1 3784   9.701   4.211   4.149
  280POPC   GL2 3785   9.545   4.511   4.191
  280POPC   C1A 3786   9.434   4.116   4.594
  280POPC   D2A 3787   9.277   4.014   5.041
  280POPC   C3A 3788   9.446   4.210   5.434
  280POPC   C4A 3789   9.572   4.057   5.861
  280POPC   C1B 3790   9.478   4.634   4.626
  280POPC   C2B 3791   9.245   4.597   5.004
  280POPC   C3B 3792   9.064   4.616   5.399
  280POPC   C4B 3793   9.116   4.390   5.782
  281POPC   NC3 3794   2.612   7.902   3.807
  281POPC   PO4 3795   2.141   8.349   4.058
  281POPC   GL1 3796   2.451   8.018   4.285
  281POPC   GL2 3797   2.522   7.634   4.218
  281POPC   C1A 3798   2.677   8.121   4.686
  281POPC   D2A 3799   2.752   8.183   5.150
  281POPC   C3A 3800   2.390   8.146   5.444
  281POPC   C4A 3801   2.342   7.935   5.844
  281POPC   C1B 3802   2.801   7.639   4.593
  281POPC   C2B 3803   2.798   7.702   4.999
  281POPC   C3B 3804   2.640   7.706   5.393
  281POPC   C4B 3805   2.716   7.594   5.800
  282POPC   NC3 3806   0.628   6.115   3.978
  282POPC   PO4 3807   0.256   6.648   4.072
  282POPC   GL1 3808   0.522   6.480   4.343
  282POPC   GL2 3809   0.745   6.758   4.339
  282POPC   C1A 3810   0.380   6.516   4.774
  282POPC   D2A 3811   0.271   6.245   5.109
  282POPC   C3A 3812   0.106   6.363   5.506
  282POPC   C4A 3813   0.352   6.593   5.749
  282POPC   C1B 3814   0.894   6.578   4.703
  282POPC   C2B 3815   0.790   6.511   5.122
  282POPC   C3B 3816   0.751   6.733   5.479
  282POPC   C4B 3817   0.860   6.651   5.905
  283POPC   NC3 3818  10.089   7.568   3.581
  283POPC   PO4 3819  10.454   7.571   4.117
  283POPC   GL1 3820  10.110   7.656   4.371
  283POPC   GL2 3821  10.003   7.887   4.227
  283POPC   C1A 3822   9.940   7.904   4.734
  283POPC   D2A 3823  10.078   7.916   5.131
  283POPC   C3A 3824  10.101   7.588   5.411
  283POPC   C4A 3825  10.329   7.429   5.737
  283POPC   C1B 3826  10.363   8.100   4.483
  283POPC   C2B 3827  10.468   8.233   4.900
  283POPC   C3B 3828  10.448   8.188   5.344
  283POPC   C4B 3829  10.185   8.012   5.682
  284POPC   NC3 3830   8.423   7.115   4.150
  284POPC   PO4 3831   8.918   6.955   3.748
  284POPC   GL1 3832   8.927   7.076   4.196
  284POPC   GL2 3833   8.816   7.429   4.296
  284POPC   C1A 3834   8.847   6.976   4.647
  284POPC   D2A 3835   8.764   7.046   5.095
  284POPC   C3A 3836   9.033   7.311   5.340
  284POPC   C4A 3837   9.168   7.460   5.742
  284POPC   C1B 3838   8.576   7.432   4.723
  284POPC   C2B 3839   8.332   7.307   5.121
  284POPC   C3B 3840   8.440   7.161   5.504
  284POPC   C4B 3841   8.640   7.528   5.561
  285POPC   NC3 3842   6.455   0.294   3.956
  285POPC   PO4 3843   6.106   1.031   3.921
  285POPC   GL1 3844   6.242   0.651   4.251
  285POPC   GL2 3845   6.617   0.522   4.361
  285POPC   C1A 3846   6.123   0.505   4.686
  285POPC   D2A 3847   5.972   0.457   5.136
  285POPC   C3A 3848   6.213   0.680   5.448
  285POPC   C4A 3849   6.174   0.673   5.881
  285POPC   C1B 3850   6.599   0.279   4.703
  285POPC   C2B 3851   6.511   0.477   5.067
  285POPC   C3B 3852   6.586   0.307   5.442
  285POPC   C4B 3853   6.545   0.336   5.835
  286POPC   NC3 3854   4.535   9.363   4.171
  286POPC   PO4 3855   3.960   9.784   3.965
  286POPC   GL1 3856   4.277   9.796   4.270
  286POPC   GL2 3857   4.181   9.502   4.492
  286POPC   C1A 3858   4.457   9.861   4.672
  286POPC   D2A 3859   4.230   9.652   4.999
  286POPC   C3A 3860   4.422   9.790   5.362
  286POPC   C4A 3861   4.274   9.716   5.761
  286POPC   C1B 3862   4.258   9.147   4.762
  286POPC   C2B 3863   4.124   8.990   5.160
  286POPC   C3B 3864   4.245   9.236   5.522
  286POPC   C4B 3865   3.948   9.321   5.858
  287POPC   NC3 3866   8.437   4.067   3.952
  287POPC   PO4 3867   9.016   4.389   4.145
  287POPC   GL1 3868   8.592   4.452   4.231
  287POPC   GL2 3869   8.663   4.117   4.404
  287POPC   C1A 3870   8.348   4.443   4.608
  287POPC   D2A 3871   8.541   4.184   4.908
  287POPC   C3A 3872   8.366   4.072   5.298
  287POPC   C4A 3873   8.444   4.218   5.710
  287POPC   C1B 3874   8.943   3.837   4.648
  287POPC   C2B 3875   8.801   3.801   5.071
  287POPC   C3B 3876   8.876   4.072   5.419
  287POPC   C4B 3877   9.112   3.888   5.742
  288POPC   NC3 3878   8.218   1.480   3.675
  288POPC   PO4 3879   8.254   2.096   4.026
  288POPC   GL1 3880   7.879   2.015   4.306
  288POPC   GL2 3881   7.926   1.732   4.545
  288POPC   C1A 3882   7.646   2.098   4.683
  288POPC   D2A 3883   7.731   2.329   5.024
  288POPC   C3A 3884   7.759   2.071   5.381
  288POPC   C4A 3885   7.539   2.054   5.758
  288POPC   C1B 3886   7.967   1.789   4.967
  288POPC   C2B 3887   8.318   1.657   5.241
  288POPC   C3B 3888   8.194   1.570   5.670
  288POPC   C4B 3889   7.973   1.824   5.935
  289POPC   NC3 3890   9.867   2.144   3.909
  289POPC   PO4 3891   9.543   1.488   3.720
  289POPC   GL1 3892   9.542   1.672   4.164
  289POPC   GL2 3893   9.273   1.943   4.212
  289POPC   C1A 3894   9.605   1.642   4.618
  289POPC   D2A 3895   9.633   2.019   4.886
  289POPC   C3A 3896   9.623   1.859   5.310
  289POPC   C4A 3897   9.550   1.853   5.737
  289POPC   C1B 3898   9.156   1.908   4.631
  289POPC   C2B 3899   9.210   1.775   5.031
  289POPC   C3B 3900   9.109   1.842   5.476
  289POPC   C4B 3901   9.193   2.237   5.759
  290POPC   NC3 3902   3.215   8.588   3.715
  290POPC   PO4 3903   3.011   7.855   4.029
  290POPC   GL1 3904   3.301   7.861   4.360
  290POPC   GL2 3905   3.360   7.529   4.345
  290POPC   C1A 3906   3.387   8.184   4.725
  290POPC   D2A 3907   3.263   8.247   5.168
  290POPC   C3A 3908   3.502   8.149   5.551
  290POPC   C4A 3909   3.795   8.115   5.911
  290POPC   C1B 3910   3.277   7.676   4.811
  290POPC   C2B 3911   3.400   7.728   5.231
  290POPC   C3B 3912   3.153   7.784   5.587
  290POPC   C4B 3913   2.871   8.094   5.663
  291POPC   NC3 3914   0.354   5.199   3.919
  291POPC   PO4 3915   0.086   4.632   3.976
  291POPC   GL1 3916   0.245   4.700   4.316
  291POPC   GL2 3917   0.252   5.067   4.409
  291POPC   C1A 3918   0.055   4.698   4.703
  291POPC   D2A 3919   0.174   4.861   5.058
  291POPC   C3A 3920   0.023   4.807   5.455
  291POPC   C4A 3921   0.071   5.187   5.722
  291POPC   C1B 3922   0.598   4.885   4.620
  291POPC   C2B 3923   0.645   4.687   5.020
  291POPC   C3B 3924   0.554   4.915   5.412
  291POPC   C4B 3925   0.658   4.731   5.791
  292POPC   NC3 3926   0.943   8.558   3.848
  292POPC   PO4 3927   0.700   9.152   3.993
  292POPC   GL1 3928   0.915   8.882   4.269
  292POPC   GL2 3929   1.278   8.878   4.324
  292POPC   C1A 3930   0.925   8.688   4.677
  292POPC   D2A 3931   0.689   8.634   5.075
  292POPC   C3A 3932   0.918   8.647   5.467
  292POPC   C4A 3933   0.897   8.882   5.856
  292POPC   C1B 3934   1.437   8.898   4.744
  292POPC   C2B 3935   1.396   8.602   5.098
  292POPC   C3B 3936   1.584   8.670   5.504
  292POPC   C4B 3937   1.392   9.012   5.721
  293POPC   NC3 3938   7.963   9.765   3.933
  293POPC   PO4 3939   7.955   9.199   3.721
  293POPC   GL1 3940   8.038   9.206   4.195
  293POPC   GL2 3941   7.894   9.505   4.358
  293POPC   C1A 3942   8.091   9.131   4.675
  293POPC   D2A 3943   8.120   9.439   5.063
  293POPC   C3A 3944   8.194   9.291   5.486
  293POPC   C4A 3945   8.201   9.705   5.700
  293POPC   C1B 3946   7.689   9.437   4.732
  293POPC   C2B 3947   7.687   9.227   5.111
  293POPC   C3B 3948   7.771   9.546   5.461
  293POPC   C4B 3949   7.800   9.325   5.839
  294POPC   NC3 3950   3.439   1.224   3.777
  294POPC   PO4 3951   3.089   0.899   4.236
  294POPC   GL1 3952   3.483   1.058   4.317
  294POPC   GL2 3953   3.546   1.437   4.284
  294POPC   C1A 3954   3.484   1.063   4.763
  294POPC   D2A 3955   3.724   0.974   5.096
  294POPC   C3A 3956   3.471   0.863   5.420
  294POPC   C4A 3957   3.391   1.069   5.814
  294POPC   C1B 3958   3.608   1.631   4.668
  294POPC   C2B 3959   3.678   1.482   5.058
  294POPC   C3B 3960   3.596   1.359   5.452
  294POPC   C4B 3961   3.494   1.547   5.843
  295POPC   NC3 3962   3.249   8.247   4.060
  295POPC   PO4 3963   3.525   8.886   3.897
  295POPC   GL1 3964   3.551   8.647   4.246
  295POPC   GL2 3965   3.218   8.696   4.322
  295POPC   C1A 3966   3.630   8.737   4.651
  295POPC   D2A 3967   3.470   8.810   5.030
  295POPC   C3A 3968   3.525   8.629   5.408
  295POPC   C4A 3969   3.136   8.530   5.585
  295POPC   C1B 3970   3.222   9.051   4.628
  295POPC   C2B 3971   3.181   9.219   5.048
  295POPC   C3B 3972   3.237   9.030   5.437
  295POPC   C4B 3973   3.490   9.094   5.749
  296POPC   NC3 3974   2.936   7.378   4.030
  296POPC   PO4 3975   3.485   7.077   4.065
  296POPC   GL1 3976   3.133   7.057   4.399
  296POPC   GL2 3977   2.795   6.905   4.261
  296POPC   C1A 3978   3.082   7.210   4.853
  296POPC   D2A 3979   3.032   7.369   5.314
  296POPC   C3A 3980   3.023   7.184   5.767
  296POPC   C4A 3981   2.916   7.192   6.245
  296POPC   C1B 3982   2.630   7.167   4.607
  296POPC   C2B 3983   2.602   7.236   5.051
  296POPC   C3B 3984   2.569   7.206   5.501
  296POPC   C4B 3985   2.518   7.108   5.945
  297POPC   NC3 3986   1.496   6.192   3.989
  297POPC   PO4 3987   0.849   6.531   3.869
  297POPC   GL1 3988   1.105   6.421   4.226
  297POPC   GL2 3989   0.942   6.153   4.395
  297POPC   C1A 3990   1.351   6.335   4.620
  297POPC   D2A 3991   1.178   6.195   5.010
  297POPC   C3A 3992   1.344   6.368   5.396
  297POPC   C4A 3993   1.342   6.451   5.831
  297POPC   C1B 3994   0.715   6.094   4.793
  297POPC   C2B 3995   0.741   6.011   5.253
  297POPC   C3B 3996   0.902   6.246   5.603
  297POPC   C4B 3997   1.001   6.153   6.042
  298POPC   NC3 3998   0.785   5.660   3.760
  298POPC   PO4 3999   0.242   6.108   3.696
  298POPC   GL1 4000   0.202   6.069   4.214
  298POPC   GL2 4001   0.534   5.844   4.378
  298POPC   C1A 4002   0.177   6.007   4.659
  298POPC   D2A 4003   0.393   5.743   4.979
  298POPC   C3A 4004   0.237   5.824   5.381
  298POPC   C4A 4005   0.440   6.055   5.721
  298POPC   C1B 4006   0.568   5.442   4.577
  298POPC   C2B 4007   0.501   5.242   4.977
  298POPC   C3B 4008   0.557   5.420   5.384
  298POPC   C4B 4009   0.416   5.543   5.776
  299POPC   NC3 4010   1.325   0.568   3.672
  299POPC   PO4 4011   0.923   0.147   3.943
  299POPC   GL1 4012   1.240   0.188   4.279
  299POPC   GL2 4013   1.398   0.539   4.245
  299POPC   C1A 4014   1.091   0.266   4.717
  299POPC   D2A 4015   1.233   0.153   5.110
  299POPC   C3A 4016   1.164   0.302   5.519
  299POPC   C4A 4017   1.515   0.067   5.727
  299POPC   C1B 4018   1.425   0.638   4.682
  299POPC   C2B 4019   1.197   0.668   5.057
  299POPC   C3B 4020   1.275   0.847   5.439
  299POPC   C4B 4021   1.144   0.735   5.816
  300POPC   NC3 4022   3.954   8.720   3.949
  300POPC   PO4 4023   4.475   8.243   4.011
  300POPC   GL1 4024   4.154   8.427   4.304
  300POPC   GL2 4025   4.089   8.774   4.432
  300POPC   C1A 4026   3.900   8.327   4.660
  300POPC   D2A 4027   3.898   8.541   5.069
  300POPC   C3A 4028   3.966   8.357   5.471
  300POPC   C4A 4029   4.299   8.228   5.698
  300POPC   C1B 4030   4.322   8.633   4.793
  300POPC   C2B 4031   4.412   8.488   5.220
  300POPC   C3B 4032   4.322   8.725   5.594
  300POPC   C4B 4033   3.915   8.858   5.644
  301POPC   NC3 4034   9.713   1.059   3.689
  301POPC   PO4 4035  10.446   1.079   3.850
  301POPC   GL1 4036  10.305   1.111   4.286
  301POPC   GL2 4037  10.059   0.865   4.389
  301POPC   C1A 4038  10.111   1.296   4.683
  301POPC   D2A 4039   9.853   1.468   5.043
  301POPC   C3A 4040  10.010   1.594   5.465
  301POPC   C4A 4041  10.021   1.406   5.884
  301POPC   C1B 4042  10.447   0.852   4.682
  301POPC   C2B 4043  10.455   1.102   5.011
  301POPC   C3B 4044  10.302   1.205   5.371
  301POPC   C4B 4045  10.429   1.124   5.763
  302W        W 4046  10.381   3.580   8.974
  303W        W 4047   3.386   7.422   2.232
  304W        W 4048   8.000   2.763   1.832
  305W        W 4049   6.078   0.515   0.265
  306W        W 4050   9.227   2.102   8.574
  307W        W 4051   9.850   3.086   8.670
  308W        W 4052   8.192   5.480   9.714
  309W        W 4053   2.271   3.562   0.849
  310W        W 4054  10.035   3.195   0.978
  311W        W 4055   0.277   7.400  10.513
  312W        W 4056   5.256   1.910   2.171
  313W        W 4057   9.674   7.141   9.553
  314W        W 4058   9.911   7.957   8.987
  315W        W 4059   8.429   5.664   0.083
  316W        W 4060   8.899   0.844   3.203
  317W        W 4061   5.265   6.441   1.662
  318W        W 4062   8.013   6.175   1.468
  319W        W 4063   5.653  10.448  11.917
  320W        W 4064   6.523  10.331   1.454
  321W        W 4065   1.853   5.689  11.747
  322W        W 4066   3.507   6.668  11.486
  323W        W 4067   6.422   8.055   0.333
  324W        W 4068   8.952   7.686   9.833
  325W        W 4069   0.967   1.853   9.795
  326W        W 4070  10.315   1.799   9.104
  327W        W 4071   4.620   0.761  10.117
  328W        W 4072   9.997   8.576  10.929
  329W        W 4073   9.748   2.284   0.747
  330W        W 4074   1.863   6.959   2.744
  331W        W 4075   1.356   6.999   1.765
  332W        W 4076   9.547   2.110  11.781
  333W        W 4077   6.342   3.133  10.000
  334W        W 4078   2.223   2.846   2.559
  335W        W 4079   0.415   1.011   9.412
  336W        W 4080   8.718   2.250   2.210
  337W        W 4081   8.890   8.833  10.593
  338W        W 4082   4.957   0.470   1.500
  339W        W 4083   2.723   9.481  11.135
  340W        W 4084   3.508   7.382   2.977
  341W        W 4085   9.063   0.979   2.740
  342W        W 4086   1.357   2.566   0.093
  343W        W 4087   2.359   4.701   2.657
  344W        W 4088   6.615  10.488   3.574
  345W        W 4089  10.463   4.221   9.655
  346W        W 4090   7.012  10.301   1.719
  347W        W 4091   7.398   3.683   9.881
  348W        W 4092   1.646   6.779  10.300
  349W        W 4093  10.265   5.082   2.026
  350W        W 4094   8.440   5.602   0.614
  351W        W 4095   3.581   6.891  11.030
  352W        W 4096   6.977   4.114   1.900
  353W        W 4097   4.696   4.169  10.389
  354W        W 4098   8.558   7.592   9.043
  355W        W 4099   5.149  10.099  10.711
  356W        W 4100   8.544   7.690   9.548
  357W        W 4101   6.445   9.125   2.045
  358W        W 4102   2.258   1.294   1.688
  359W        W 4103   7.582   4.638   9.418
  360W        W 4104   0.890   0.835   0.294
  361W        W 4105   4.806   8.449   9.712
  362W        W 4106   5.301   4.779   0.323
  363W        W 4107   8.421   3.188   1.908
  364W        W 4108   0.430   0.804   1.397
  365W        W 4109   8.903   8.149   0.217
  366W        W 4110   5.177   3.039  11.381
  367W        W 4111   9.239   2.663   3.489
  368W        W 4112   2.158   1.884   3.062
  369W        W 4113   4.847   0.937   1.748
  370W        W 4114   8.441   0.241   1.775
  371W        W 4115   8.982   9.094  10.151
  372W        W 4116   9.234   1.389   1.101
  373W        W 4117   8.048   6.061   2.913
  374W        W 4118   6.145   3.715   0.678
  375W        W 4119   4.913   7.930   0.227
  376W        W 4120   8.706   9.777  10.981
  377W        W 4121   0.935   8.626   9.479
  378W        W 4122   5.690   9.445  10.211
  379W        W 4123   1.006   7.177   2.594
  380W        W 4124   1.908   0.954   1.780
  381W        W 4125   4.576   9.902   9.793
  382W        W 4126   6.706   9.701  11.727
  383W        W 4127   0.965   4.654   2.976
  384W        W 4128   7.134   3.557  10.465
  385W        W 4129   8.121   7.335   1.652
  386W        W 4130   4.781   2.193   2.907
  387W        W 4131   9.648   9.837   0.709
  388W        W 4132   8.511   9.607   3.193
  389W        W 4133   6.687   4.590   9.184
  390W        W 4134   7.023   9.451  10.237
  391W        W 4135   0.780   7.738   0.009
  392W        W 4136   5.442   7.574  10.480
  393W        W 4137   7.490   6.260  11.824
  394W        W 4138   1.620   0.552   1.714
  395W        W 4139   7.810   1.261   2.942
  396W        W 4140   0.917   3.741   8.799
  397W        W 4141   3.513   2.391  11.371
  398W        W 4142   4.050   9.634   9.788
  399W        W 4143   3.078   5.277   2.783
  400W        W 4144   7.199   4.362   3.330
  401W        W 4145   9.409   8.071   2.579
  402W        W 4146   7.696   1.435   9.502
  403W        W 4147   2.322   5.475   8.602
  404W        W 4148   8.146   3.773   2.933
  405W        W 4149   9.787   8.559   1.536
  406W        W 4150   7.610   4.581   3.125
  407W        W 4151   0.757  10.354   0.661
  408W        W 4152   2.630   2.736   2.250
  409W        W 4153   8.129   9.297   9.329
  410W        W 4154   1.736   4.495   8.692
  411W        W 4155   0.388   4.366   9.926
  412W        W 4156   7.893  10.266  10.561
  413W        W 4157   1.197   9.164  11.191
  414W        W 4158   7.033   8.197  11.929
  415W        W 4159   1.260   3.627   9.613
  416W        W 4160   6.357   9.774  11.323
  417W        W 4161   3.654   0.459   0.495
  418W        W 4162   9.243   7.201   2.905
  419W        W 4163   6.702   9.405  11.231
  420W        W 4164   8.073   1.242  10.130
  421W        W 4165   7.864   0.445   0.022
  422W        W 4166   7.738   2.709   8.834
  423W        W 4167  10.245   3.423   3.337
  424W        W 4168   0.971  10.487   1.758
  425W        W 4169   4.170   2.501  11.767
  426W        W 4170   4.748   4.116   2.210
  427W        W 4171   5.345   6.092   3.331
  428W        W 4172   7.396   8.647   3.664
  429W        W 4173   2.057   0.933   3.437
  430W        W 4174   4.258   0.835   1.874
  431W        W 4175  10.096   6.842  11.777
  432W        W 4176   1.973   9.131   1.250
  433W        W 4177   7.520   7.682   2.731
  434W        W 4178   1.770   2.102   0.367
  435W        W 4179   9.922   2.791  10.054
  436W        W 4180   0.230   4.662   9.539
  437W        W 4181   4.456   3.156   3.650
  438W        W 4182   6.518   5.025  11.577
  439W        W 4183   7.907   1.612   3.312
  440W        W 4184   1.882   0.659   8.878
  441W        W 4185   5.010   6.682   0.294
  442W        W 4186   3.737   3.733   1.963
  443W        W 4187   4.107   8.518  10.933
  444W        W 4188   1.301   0.481   2.820
  445W        W 4189   4.547   1.717   1.911
  446W        W 4190   8.151   5.723   9.214
  447W        W 4191   6.913   9.908   0.367
  448W        W 4192   3.445   0.768   0.866
  449W        W 4193   9.555   5.542   2.162
  450W        W 4194   6.654  10.005   3.091
  451W        W 4195   9.241   4.470   3.690
  452W        W 4196   5.078   5.255  11.407
  453W        W 4197   6.646   9.532   2.927
  454W        W 4198  10.390  10.341   2.440
  455W        W 4199   8.383   0.227  11.329
  456W        W 4200   2.870   1.291   8.793
  457W        W 4201   6.086   3.793  11.195
  458W        W 4202   0.756   8.629   1.749
  459W        W 4203   2.184   7.187   1.247
  460W        W 4204   9.510   9.536   2.395
  461W        W 4205   6.688   4.095  11.838
  462W        W 4206   6.942   4.141   9.287
  463W        W 4207   3.253   2.305   2.879
  464W        W 4208   8.164   3.739   0.289
  465W        W 4209   1.767   2.270  11.859
  466W        W 4210   8.038   1.093   3.352
  467W        W 4211   1.502  10.318  11.882
  468W        W 4212   5.485   6.639   9.439
  469W        W 4213   2.090   0.809   0.883
  470W        W 4214   5.949   8.176   0.512
  471W        W 4215  10.371   2.017   1.556
  472W        W 4216   6.626   4.098   9.682
  473W        W 4217   9.035   0.291   9.140
  474W        W 4218   8.058   4.695   2.928
  475W        W 4219   5.136   2.507   1.719
  476W        W 4220   3.059   8.234   2.589
  477W        W 4221   7.416   8.936  11.732
  478W        W 4222   2.886   0.350  11.815
  479W        W 4223  10.381   0.225   1.667
  480W        W 4224   1.956   0.881   0.387
  481W        W 4225   9.276   8.382   3.561
  482W        W 4226   9.818   6.399   9.010
  483W        W 4227   6.047   9.172  11.933
  484W        W 4228   9.410   6.642  10.816
  485W        W 4229   7.549   8.854   9.297
  486W        W 4230   2.388   4.239   9.884
  487W        W 4231   5.498   3.282   1.260
  488W        W 4232   4.496   9.951  11.324
  489W        W 4233   5.236   3.736   1.172
  490W        W 4234   5.029   0.739   9.780
  491W        W 4235   5.114   0.798   9.279
  492W        W 4236   1.297   5.020   3.536
  493W        W 4237   8.128   4.180  10.027
  494W        W 4238   2.907   2.421   3.235
  495W        W 4239   8.535   8.433  11.466
  496W        W 4240   9.766   2.351  10.289
  497W        W 4241   2.377   6.277   8.802
  498W        W 4242   5.960   6.293   9.495
  499W        W 4243   6.130   3.742   1.192
  500W        W 4244   2.801   7.414   0.992
  501W        W 4245   9.324   5.157  10.506
  502W        W 4246   6.844   2.124   1.675
  503W        W 4247   7.221   5.334   2.099
  504W        W 4248   6.123   6.023   2.535
  505W        W 4249   3.257   1.372   2.483
  506W        W 4250   0.085   3.895   0.781
  507W        W 4251   0.169   1.264   2.276
  508W        W 4252  10.057   3.975   8.715
  509W        W 4253   7.236   5.844   8.147
  510W        W 4254   2.782   5.855   9.469
  511W        W 4255  10.161   4.258  10.077
  512W        W 4256   2.161   5.203   2.942
  513W        W 4257   3.819   2.791  11.525
  514W        W 4258   8.317   6.494   0.042
  515W        W 4259   6.872   0.118  10.826
  516W        W 4260   6.657   4.552   1.908
  517W        W 4261   5.633   6.528   3.256
  518W        W 4262   6.151   3.715   2.817
  519W        W 4263   7.701   3.548   2.903
  520W        W 4264   6.571   5.948   1.820
  521W        W 4265   4.611   5.446   2.404
  522W        W 4266   2.914   3.288   0.363
  523W        W 4267   5.159   0.841   0.662
  524W        W 4268   1.429   7.596   1.137
  525W        W 4269   2.812   2.741  11.729
  526W        W 4270   6.472   1.450   2.784
  527W        W 4271   1.806   5.884   9.396
  528W        W 4272   3.588   2.364   2.199
  529W        W 4273   9.995   0.039  10.456
  530W        W 4274   6.505   1.671  10.076
  531W        W 4275   5.811   6.244   4.208
  532W        W 4276   6.720   7.034   0.103
  533W        W 4277   7.714   4.324  11.839
  534W        W 4278   9.333   8.579   9.493
  535W        W 4279   9.066  10.217  10.874
  536W        W 4280   9.125   4.672  10.561
  537W        W 4281   4.221   1.257  10.598
  538W        W 4282   9.899   4.743   1.222
  539W        W 4283   1.676   6.100   0.751
  540W        W 4284   9.656   4.161  10.049
  541W        W 4285   3.472   2.277   3.358
  542W        W 4286   0.475   5.277   9.775
  543W        W 4287   0.402   4.527   2.458
  544W        W 4288   2.401   6.044  10.315
  545W        W 4289   5.559  10.466  10.469
  546W        W 4290   1.928   0.690   2.238
  547W        W 4291   7.649   3.563   8.913
  548W        W 4292   7.966   1.865   9.323
  549W        W 4293   6.637   5.455   0.467
  550W        W 4294   9.803   7.172  10.530
  551W        W 4295  10.149   4.668  10.386
  552W        W 4296   3.750   6.622  10.637
  553W        W 4297   9.584   2.590   3.060
  554W        W 4298   7.553   1.147  11.474
  555W        W 4299   6.633   8.621   2.692
  556W        W 4300   4.547   1.788   3.331
  557W        W 4301   4.999   2.764   8.001
  558W        W 4302   4.191   0.576   9.903
  559W        W 4303   6.466   5.675   2.260
  560W        W 4304   8.915   5.091   9.552
  561W        W 4305   8.924   2.170   0.491
  562W        W 4306   8.502   2.762   2.211
  563W        W 4307   2.170   4.708   9.877
  564W        W 4308   1.393   0.714   0.346
  565W        W 4309   7.864   7.448   1.217
  566W        W 4310   6.908   3.156   1.218
  567W        W 4311  10.123   5.081  10.067
  568W        W 4312   0.799   2.766   9.704
  569W        W 4313   5.216   4.315   2.310
  570W        W 4314   1.198   4.762   9.624
  571W        W 4315   6.580   5.872   0.194
  572W        W 4316   2.019   8.022  11.926
  573W        W 4317   4.728   4.953  11.641
  574W        W 4318   0.646   1.682   1.735
  575W        W 4319   7.089   5.589  11.926
  576W        W 4320   3.357   1.876   2.168
  577W        W 4321   8.857   4.245   1.536
  578W        W 4322   0.343   9.891   1.799
  579W        W 4323   0.476   5.631   1.902
  580W        W 4324   8.499   8.896   8.768
  581W        W 4325   6.072   6.953   2.760
  582W        W 4326   6.246   6.540   9.870
  583W        W 4327   2.709   5.224   3.143
  584W        W 4328   7.130   6.518   9.380
  585W        W 4329   3.762   2.572   0.059
  586W        W 4330   3.259   8.229   0.562
  587W        W 4331   9.349   7.324   9.194
  588W        W 4332   6.680   9.237   0.674
  589W        W 4333   3.121   3.337   2.583
  590W        W 4334   9.426   7.535   2.482
  591W        W 4335   9.044   4.118   0.410
  592W        W 4336   4.504   4.108   0.672
  593W        W 4337   5.203   7.066   9.306
  594W        W 4338   5.110   9.939   9.047
  595W        W 4339   1.951   6.707   9.880
  596W        W 4340   3.784   6.082  10.499
  597W        W 4341   5.905   9.901   3.399
  598W        W 4342   9.431   3.788   0.435
  599W        W 4343   0.877   0.332  10.507
  600W        W 4344   2.319   4.569   0.995
  601W        W 4345   6.656   1.787   8.634
  602W        W 4346   2.738   3.544   3.394
  603W        W 4347   7.724   3.679   3.889
  604W        W 4348   6.045   3.220  10.797
  605W        W 4349   1.293   3.825   9.138
  606W        W 4350   9.543   4.726   1.952
  607W        W 4351   0.876   8.335  11.191
  608W        W 4352   3.557   1.549   3.378
  609W        W 4353   1.241   7.486   8.831
  610W        W 4354   4.797   1.022   1.216
  611W        W 4355   7.696   2.817   1.353
  612W        W 4356   1.330   2.397  11.051
  613W        W 4357   4.617   2.154  10.591
  614W        W 4358   3.238   9.738   9.169
  615W        W 4359   9.273   6.267   9.809
  616W        W 4360   4.084   8.404   9.074
  617W        W 4361   6.975   1.843  11.007
  618W        W 4362   4.117   5.999  11.784
  619W        W 4363   3.398   1.016   2.131
  620W        W 4364   9.050   1.698   0.669
  621W        W 4365   5.160   3.848   0.665
  622W        W 4366   3.356   4.996   9.849
  623W        W 4367   2.138   5.701  10.004
  624W        W 4368   4.536   2.781   8.810
  625W        W 4369   1.592   0.289   9.082
  626W        W 4370   6.917   6.993   3.510
  627W        W 4371   7.680   1.048   9.839
  628W        W 4372   2.395   7.362   0.218
  629W        W 4373   7.618   4.119  10.035
  630W        W 4374   6.132   8.360   1.874
  631W        W 4375   4.800   4.590   2.438
  632W        W 4376   7.248   3.627  11.967
  633W        W 4377   3.621   6.118   2.664
  634W        W 4378   4.748   7.358   0.981
  635W        W 4379   2.415   6.552  10.074
  636W        W 4380   7.505   0.840  11.866
  637W        W 4381   5.018   6.487  10.354
  638W        W 4382   3.207  10.299  11.406
  639W        W 4383   9.862   8.471   9.060
  640W        W 4384   9.206   5.731   0.694
  641W        W 4385   0.362   5.953   0.386
  642W        W 4386  10.130   2.810   1.755
  643W        W 4387   5.511   5.140  10.925
  644W        W 4388   2.142   2.065   9.949
  645W        W 4389   3.291   8.383  10.492
  646W        W 4390   4.741   0.028   1.999
  647W        W 4391  10.074   8.289   9.967
  648W        W 4392   5.671   4.147   9.524
  649W        W 4393   4.089   2.356   2.306
  650W        W 4394   4.504   4.210   1.186
  651W        W 4395   7.991  10.433   0.449
  652W        W 4396   9.443   6.735   9.885
  653W        W 4397   0.043   6.568  11.057
  654W        W 4398   1.761   6.946   3.242
  655W        W 4399   9.026   4.284   1.019
  656W        W 4400   1.929   8.787  10.532
  657W        W 4401   8.628   7.224   2.306
  658W        W 4402   9.833   1.370   0.258
  659W        W 4403   3.296   5.086   8.365
  660W        W 4404   2.313   2.095   0.993
  661W        W 4405   9.313   7.701   2.964
  662W        W 4406   6.708   6.067   8.744
  663W        W 4407   5.239   5.782   9.086
  664W        W 4408   7.607   5.697   2.135
  665W        W 4409   4.840   2.677  11.267
  666W        W 4410   9.087   2.349   1.359
  667W        W 4411   5.669   5.619   1.086
  668W        W 4412   5.905   8.627   1.500
  669W        W 4413   4.060   3.281   2.303
  670W        W 4414   6.104   0.307   2.488
  671W        W 4415   9.464   9.459   8.960
  672W        W 4416   3.815   0.032   1.708
  673W        W 4417   4.977   3.226   3.634
  674W        W 4418  10.078   3.630   1.702
  675W        W 4419   1.219   4.210   1.948
  676W        W 4420   0.553   3.420   3.480
  677W        W 4421   8.049   8.628  11.008
  678W        W 4422   6.517   3.600  11.726
  679W        W 4423   5.345  10.379   2.916
  680W        W 4424   5.051   6.061   1.408
  681W        W 4425   8.004   1.753   0.822
  682W        W 4426   0.827   0.947  11.806
  683W        W 4427   9.830   6.976   0.947
  684W        W 4428   1.954   3.680  11.924
  685W        W 4429   6.552   0.576   2.224
  686W        W 4430   0.311   2.074   1.834
  687W        W 4431   0.348   3.949  10.535
  688W        W 4432   6.230   4.684   0.517
  689W        W 4433   9.628   0.591   0.094
  690W        W 4434   0.518   4.741   1.976
  691W        W 4435   9.962   2.311   1.734
  692W        W 4436  10.263   7.794   9.846
  693W        W 4437   6.739   7.276   2.199
  694W        W 4438   0.861   8.615   2.230
  695W        W 4439   2.340   1.556   9.992
  696W        W 4440   8.633   6.527   1.889
  697W        W 4441   4.800   0.339   3.412
  698W        W 4442   1.872  10.450   3.383
  699W        W 4443   0.279   4.817  11.117
  700W        W 4444   7.186   1.892   8.549
  701W        W 4445   2.023   3.953   9.349
  702W        W 4446   3.708   7.644   2.591
  703W        W 4447   8.936   3.116   0.554
  704W        W 4448   7.812   3.106   3.117
  705W        W 4449   3.768   0.118   3.585
  706W        W 4450   7.955   8.366   3.085
  707W        W 4451   4.774   0.341   0.029
  708W        W 4452   5.224   6.022   1.935
  709W        W 4453   8.431   9.505   2.695
  710W        W 4454   1.369   5.559   8.437
  711W        W 4455   5.599   3.428   8.986
  712W        W 4456   7.900   5.257   9.103
  713W        W 4457   0.974   8.078   9.519
  714W        W 4458   2.328   6.987   8.891
  715W        W 4459   6.993  10.438   8.514
  716W        W 4460   7.132   7.410   1.863
  717W        W 4461   1.637  10.320   2.406
  718W        W 4462   3.212   0.335   0.795
  719W        W 4463   5.169   7.871  10.829
  720W        W 4464   7.117   4.213  10.931
  721W        W 4465   8.442   8.853   9.286
  722W        W 4466   5.694   8.915   2.192
  723W        W 4467   9.751   6.957   9.075
  724W        W 4468   5.120   7.155   0.466
  725W        W 4469   5.513   5.153   2.611
  726W        W 4470   6.448   7.439   0.366
  727W        W 4471   8.183   4.877   8.603
  728W        W 4472   6.407   7.396  11.187
  729W        W 4473   7.733   0.544   9.880
  730W        W 4474   1.406   1.425   1.742
  731W        W 4475   0.315   7.912   2.269
  732W        W 4476   1.572   8.417   1.638
  733W        W 4477   6.038   4.236  11.465
  734W        W 4478   0.086   4.706   0.425
  735W        W 4479   3.640   9.930   9.991
  736W        W 4480   9.535   5.267  10.981
  737W        W 4481   9.680   0.117  10.004
  738W        W 4482   3.786   1.910   0.418
  739W        W 4483   1.260   3.790   0.037
  740W        W 4484   0.428   5.722  11.031
  741W        W 4485   9.968   2.859   3.301
  742W        W 4486   1.092   7.834   3.206
  743W        W 4487   5.671   1.824   0.031
  744W        W 4488   2.123   9.267   8.955
  745W        W 4489   7.561   6.658   1.113
  746W        W 4490   5.651   9.568   8.847
  747W        W 4491   5.700   2.148   2.950
  748W        W 4492  10.050   3.519  10.708
  749W        W 4493   7.413   9.677   8.999
  750W        W 4494   1.767   7.588  11.824
  751W        W 4495   1.444   0.069  11.292
  752W        W 4496   4.315   6.665   1.604
  753W        W 4497   9.991   8.810  10.023
  754W        W 4498   0.575   0.004  10.798
  755W        W 4499   4.193  10.075   2.416
  756W        W 4500   5.343  10.072   9.533
  757W        W 4501   4.505   1.320   8.722
  758W        W 4502   0.445   0.827  10.995
  759W        W 4503   9.403   9.883   9.446
  760W        W 4504   2.066   3.175   0.029
  761W        W 4505   9.041   2.705  11.246
  762W        W 4506   7.302   7.904   9.114
  763W        W 4507   3.283   7.929   2.268
  764W        W 4508   1.354   1.982  10.734
  765W        W 4509   6.982   2.621   1.865
  766W        W 4510   8.969   3.129   0.052
  767W        W 4511   2.583  10.478   8.966
  768W        W 4512   2.173   8.953  11.787
  769W        W 4513   6.568   4.051   1.008
  770W        W 4514   9.909  10.000   9.272
  771W        W 4515   3.078   6.283   3.734
  772W        W 4516   1.694  10.409   1.287
  773W        W 4517   2.352   9.459   2.724
  774W        W 4518   9.610   8.440   0.303
  775W        W 4519   3.356   1.929  10.355
  776W        W 4520   1.299   0.656   1.193
  777W        W 4521   7.404   8.166  10.074
  778W        W 4522   2.746   6.425  10.974
  779W        W 4523   3.786   4.782   0.573
  780W        W 4524   7.702   5.775   1.324
  781W        W 4525   6.188   7.026  11.481
  782W        W 4526   0.353   2.288   1.377
  783W        W 4527   6.161   5.481   0.990
  784W        W 4528   5.548   6.020  10.232
  785W        W 4529   5.072   3.327   2.212
  786W        W 4530   0.845   6.201  11.510
  787W        W 4531   5.765   1.249  10.249
  788W        W 4532   6.242   9.534   3.303
  789W        W 4533   5.602   6.745   2.805
  790W        W 4534   0.076   2.115   8.651
  791W        W 4535   4.301   3.084   1.874
  792W        W 4536   6.647   0.335   1.362
  793W        W 4537   2.667   5.605   9.007
  794W        W 4538   0.156   9.414   3.306
  795W        W 4539   3.234   0.773   1.714
  796W        W 4540   0.268   6.559  10.585
  797W        W 4541   3.101   4.275   2.793
  798W        W 4542   4.276   9.367   8.903
  799W        W 4543   1.292   1.910   2.996
  800W        W 4544   3.024   4.299   8.580
  801W        W 4545   8.269   1.058  10.995
  802W        W 4546   7.258   2.827   0.021
  803W        W 4547   5.176   6.515   1.168
  804W        W 4548   7.230   4.225   8.538
  805W        W 4549  10.017   3.981  10.911
  806W        W 4550   4.785   0.343  11.516
  807W        W 4551   4.128   2.761   9.606
  808W        W 4552   8.900   0.240   8.642
  809W        W 4553   6.790   5.347   1.295
  810W        W 4554   9.343   4.083   1.374
  811W        W 4555   8.975   7.924   1.798
  812W        W 4556   7.055   7.545  10.384
  813W        W 4557   0.948   0.831  10.226
  814W        W 4558   3.706   4.000   3.743
  815W        W 4559   4.675   9.345  10.947
  816W        W 4560   7.535   7.305   3.623
  817W        W 4561  10.255   9.479  10.484
  818W        W 4562   6.930   3.685   9.540
  819W        W 4563  10.244   7.442  10.537
  820W        W 4564   5.626   2.244  11.187
  821W        W 4565   1.042   1.401   8.985
  822W        W 4566   0.127   5.566   9.520
  823W        W 4567   5.114   0.950   3.486
  824W        W 4568   3.603   4.241   1.825
  825W        W 4569   3.741   7.830   2.085
  826W        W 4570   7.118   1.195   0.796
  827W        W 4571   5.990   8.380  11.484
  828W        W 4572   2.644   6.923   2.967
  829W        W 4573   6.730   1.487   2.251
  830W        W 4574   8.055   2.877  11.218
  831W        W 4575   4.498   1.624   0.885
  832W        W 4576   8.551   9.508  10.569
  833W        W 4577   2.692   2.624   9.451
  834W        W 4578   7.937  10.156  10.079
  835W        W 4579   2.553   0.713   3.360
  836W        W 4580   7.403   5.560   8.568
  837W        W 4581   7.926   6.551  11.192
  838W        W 4582   6.030   3.285   0.932
  839W        W 4583   5.613   6.752   1.931
  840W        W 4584   9.222   1.093   2.038
  841W        W 4585   7.120   4.725   0.233
  842W        W 4586   4.845   6.184   0.370
  843W        W 4587   1.083   9.679  11.305
  844W        W 4588   0.715   9.845   2.517
  845W        W 4589   4.769   4.722   0.420
  846W        W 4590   4.750   3.703   9.499
  847W        W 4591   2.229   7.351  11.744
  848W        W 4592   6.204   4.239  11.946
  849W        W 4593   9.951   9.894   3.362
  850W        W 4594   6.576   8.363  10.368
  851W        W 4595   2.895   2.673  10.300
  852W        W 4596   7.912   4.662   8.227
  853W        W 4597   3.365   5.710   2.806
  854W        W 4598   1.816   1.746   2.395
  855W        W 4599   3.086   6.472   2.195
  856W        W 4600   4.065   8.619  11.432
  857W        W 4601   3.341   8.563   1.464
  858W        W 4602   2.141   2.428   2.286
  859W        W 4603   7.739   2.474   9.985
  860W        W 4604   2.365   3.842   3.173
  861W        W 4605   6.684   7.070  11.439
  862W        W 4606   0.483   8.453   3.219
  863W        W 4607   2.770   6.009   0.066
  864W        W 4608   6.680   4.795   2.403
  865W        W 4609   1.308   7.278  11.662
  866W        W 4610   8.896   7.461  10.852
  867W        W 4611   1.177   9.306   3.128
  868W        W 4612   3.661   2.756  10.025
  869W        W 4613   8.065   6.460  10.708
  870W        W 4614   6.450   3.241   0.554
  871W        W 4615   8.643   3.607   2.073
  872W        W 4616   9.531   6.627   1.177
  873W        W 4617   4.176   9.811  10.953
  874W        W 4618   1.433   0.552   2.320
  875W        W 4619   7.880   3.287  10.483
  876W        W 4620   0.320   3.224   9.120
  877W        W 4621   1.738   5.095   3.242
  878W        W 4622   4.109   0.402  10.747
  879W        W 4623   2.581   6.549   2.171
  880W        W 4624   0.533   0.913   9.927
  881W        W 4625   7.527   9.958   1.042
  882W        W 4626   2.064   1.013  11.807
  883W        W 4627   7.451   4.961   9.810
  884W        W 4628   8.466   4.664  10.792
  885W        W 4629  10.053   0.926  10.588
  886W        W 4630   9.655   6.641   2.195
  887W        W 4631   9.377   6.124  10.732
  888W        W 4632   4.979   2.612   9.001
  889W        W 4633   8.469   4.546   8.875
  890W        W 4634   4.689   2.196  11.450
  891W        W 4635  10.238   7.981   1.447
  892W        W 4636   9.090   2.840   0.972
  893W        W 4637   6.572   5.121   0.877
  894W        W 4638   8.161   3.665   8.930
  895W        W 4639  10.406   3.249   9.419
  896W        W 4640   0.673   9.753  10.462
  897W        W 4641   0.881   0.948   1.225
  898W        W 4642   8.113   4.788  11.227
  899W        W 4643   9.414   9.428  10.477
  900W        W 4644   0.495   7.570   0.835
  901W        W 4645   4.002   7.704   1.293
  902W        W 4646   3.585  10.030   0.478
  903W        W 4647   4.727   1.733   8.940
  904W        W 4648   5.626   9.392  11.752
  905W        W 4649   4.278   3.628   0.675
  906W        W 4650   7.563   7.621  10.309
  907W        W 4651   0.843   8.021   2.387
  908W        W 4652   2.556   1.169  11.465
  909W        W 4653   0.921   9.115   1.920
  910W        W 4654   0.842   3.078   2.311
  911W        W 4655   8.013   9.346   3.183
  912W        W 4656   7.531   0.999   3.350
  913W        W 4657   8.509   0.497   0.610
  914W        W 4658   8.420   1.970  11.952
  915W        W 4659   6.980   1.478   0.410
  916W        W 4660   6.440   2.748   3.261
  917W        W 4661   2.231   9.362  11.267
  918W        W 4662   8.101   1.385   9.169
  919W        W 4663   1.689   7.225   8.889
  920W        W 4664   2.152   4.100  10.751
  921W        W 4665   6.521   0.727   0.407
  922W        W 4666   9.885   2.745  11.115
  923W        W 4667   6.412   6.809  10.553
  924W        W 4668   0.939   8.752  10.351
  925W        W 4669   3.522   0.950   1.331
  926W        W 4670   3.326   6.806   0.214
  927W        W 4671  10.025   7.344  11.872
  928W        W 4672   8.873   4.202  10.486
  929W        W 4673   7.043   6.961   9.982
  930W        W 4674   1.525   8.199  11.922
  931W        W 4675   9.076   9.479  11.830
  932W        W 4676   0.571   9.129  11.124
  933W        W 4677   5.499   6.661   4.074
  934W        W 4678   8.397  10.018   8.371
  935W        W 4679   0.568   4.836   0.543
  936W        W 4680   9.356   6.184   8.755
  937W        W 4681   6.609   3.759   1.427
  938W        W 4682   9.440   6.400  10.288
  939W        W 4683   4.376  10.346   2.888
  940W        W 4684   3.869   7.305   2.200
  941W        W 4685   8.417   0.731  11.361
  942W        W 4686   4.567   5.778  11.898
  943W        W 4687   8.730   9.328   2.179
  944W        W 4688   3.681   6.062   1.302
  945W        W 4689   8.312   9.454   0.887
  946W        W 4690   5.198   5.242   9.551
  947W        W 4691   7.902   4.056   1.129
  948W        W 4692   1.824   1.612   0.535
  949W        W 4693   5.127   5.231   0.828
  950W        W 4694   1.712   4.177   3.199
  951W        W 4695   3.264   8.373   9.535
  952W        W 4696   9.923   3.142   9.207
  953W        W 4697   6.097   2.468  10.368
  954W        W 4698   1.884   9.387  10.826
  955W        W 4699   5.597   6.496   2.372
  956W        W 4700   2.612   9.980   9.113
  957W        W 4701   1.015   9.077   2.432
  958W        W 4702   3.821   9.378  11.765
  959W        W 4703   2.701   8.050   3.323
  960W        W 4704   4.564   4.051   8.911
  961W        W 4705   3.680   7.569   3.435
  962W        W 4706   2.395   0.284  11.811
  963W        W 4707   5.667   8.031  11.305
  964W        W 4708   1.438   5.613   2.476
  965W        W 4709   5.259   0.959  11.356
  966W        W 4710   7.491   6.953   8.651
  967W        W 4711   2.908   3.164   8.936
  968W        W 4712   2.618   8.939   9.983
  969W        W 4713   5.650   7.565   8.863
  970W        W 4714   4.076   2.223   8.878
  971W        W 4715   5.964   6.795   9.505
  972W        W 4716   9.826  10.279  11.438
  973W        W 4717   4.221   0.313   2.738
  974W        W 4718   7.348   1.031   2.883
  975W        W 4719   4.286   8.603   2.752
  976W        W 4720   1.851   5.072   9.987
  977W        W 4721   8.882   4.538   2.011
  978W        W 4722   3.196   6.118   9.640
  979W        W 4723   9.011   0.842  11.427
  980W        W 4724   5.546   1.672  10.532
  981W        W 4725   2.781   8.078   1.762
  982W        W 4726   6.647   8.131   2.782
  983W        W 4727   6.654  10.026   1.023
  984W        W 4728   6.699   4.448   0.637
  985W        W 4729   4.826   9.829   0.895
  986W        W 4730  10.425   1.418   0.840
  987W        W 4731  10.318   4.712  11.382
  988W        W 4732   3.531   5.278   9.430
  989W        W 4733   5.462   4.335   1.665
  990W        W 4734   0.158   0.175   2.104
  991W        W 4735   0.821   6.997   3.624
  992W        W 4736   4.563   2.677   2.774
  993W        W 4737   1.163   6.119  10.851
  994W        W 4738   9.099   9.726   2.165
  995W        W 4739   8.812   9.879  11.528
  996W        W 4740   6.879   8.331   2.332
  997W        W 4741   0.194   9.185   2.405
  998W        W 4742   8.928   0.050  10.478
  999W        W 4743  10.289   3.247  11.366
 1000W        W 4744   2.363   2.062   2.024
 1001W        W 4745   7.829   3.304   1.121
 1002W        W 4746   0.790   0.513  11.564
 1003W        W 4747   4.927   4.464   2.956
 1004W        W 4748   2.278   7.834   0.370
 1005W        W 4749   9.873   9.241   2.637
 1006W        W 4750   4.064   3.943   9.143
 1007W        W 4751   5.345   7.887   2.654
 1008W        W 4752   6.584   5.717  11.715
 1009W        W 4753   5.944   2.231  10.776
 1010W        W 4754   5.690   8.572   0.714
 1011W        W 4755  10.310  10.019  11.784
 1012W        W 4756   1.678   9.057   9.117
 1013W        W 4757   2.602   2.673   3.565
 1014W        W 4758   7.447   1.332   1.700
 1015W        W 4759   1.180   1.874   1.585
 1016W        W 4760   3.152   6.120  11.766
 1017W        W 4761   7.930   9.142   0.790
 1018W        W 4762   3.533   7.713   1.631
 1019W        W 4763   3.679   4.675   8.229
 1020W        W 4764   7.092   4.731  10.393
 1021W        W 4765   9.399   3.734  10.157
 1022W        W 4766   8.568   5.676   3.063
 1023W        W 4767   4.000   4.435   1.561
 1024W        W 4768   9.171   3.570  11.346
 1025W        W 4769   9.542   6.355   0.160
 1026W        W 4770   2.494   2.751   3.039
 1027W        W 4771   9.326   7.831  11.497
 1028W        W 4772   8.355  10.193   0.187
 1029W        W 4773   5.558  10.497   8.860
 1030W        W 4774   5.803   9.855   9.595
 1031W        W 4775   1.328   0.765   9.531
 1032W        W 4776   1.231   5.085   3.002
 1033W        W 4777   5.664  10.376   1.962
 1034W        W 4778   5.758   0.666   1.321
 1035W        W 4779   1.864   8.541   3.208
 1036W        W 4780   1.204   1.062   3.593
 1037W        W 4781  10.448   1.800  10.107
 1038W        W 4782   2.298   3.665  11.093
 1039W        W 4783   8.877   5.736   2.649
 1040W        W 4784   8.134   9.264   9.836
 1041W        W 4785   5.221   3.538   1.727
 1042W        W 4786   1.862   8.453  10.157
 1043W        W 4787   5.590   3.685  11.949
 1044W        W 4788   8.325   3.323  10.817
 1045W        W 4789   6.559   8.556   9.817
 1046W        W 4790   2.795   0.385   9.763
 1047W        W 4791   7.539   0.277   2.291
 1048W        W 4792  10.216   5.113   3.231
 1049W        W 4793   1.230   5.944   3.316
 1050W        W 4794   4.586   1.879  11.053
 1051W        W 4795   4.273   3.321  11.260
 1052W        W 4796   8.285  10.221   8.827
 1053W        W 4797   9.741   4.016   1.700
 1054W        W 4798  10.148   5.992   9.030
 1055W        W 4799   2.580   4.503   8.767
 1056W        W 4800   6.648   7.519   1.741
 1057W        W 4801   5.786   6.202  11.510
 1058W        W 4802   6.856   5.138   9.512
 1059W        W 4803   0.921   3.570  10.819
 1060W        W 4804   4.066   0.199  11.219
 1061W        W 4805  10.001   3.227   9.743
 1062W        W 4806   0.759   8.023   2.892
 1063W        W 4807   1.354   9.985  10.603
 1064W        W 4808   0.607   0.551   9.130
 1065W        W 4809   7.093   1.079   8.936
 1066W        W 4810   0.766   2.612   2.938
 1067W        W 4811   8.705   7.304  11.842
 1068W        W 4812   7.147   3.375   8.934
 1069W        W 4813   4.441   0.006   2.403
 1070W        W 4814   7.841   5.182  11.435
 1071W        W 4815   9.565   7.126  10.992
 1072W        W 4816   4.136  10.075  10.033
 1073W        W 4817   6.993   6.090   9.618
 1074W        W 4818   0.112   7.466   9.572
 1075W        W 4819   7.127   4.601   4.267
 1076W        W 4820   7.457   0.854  10.905
 1077W        W 4821   5.248   8.303   0.490
 1078W        W 4822   4.763   9.326   0.924
 1079W        W 4823   9.251   1.634   1.989
 1080W        W 4824   5.128   8.968   1.945
 1081W        W 4825   3.622   8.588   8.953
 1082W        W 4826   6.937   0.176  11.825
 1083W        W 4827   9.892   1.874   1.447
 1084W        W 4828   7.570   5.404  11.002
 1085W        W 4829   8.673   6.833   1.470
 1086W        W 4830   5.786   4.651   1.367
 1087W        W 4831   5.088  10.457   1.542
 1088W        W 4832   8.346   6.218   2.170
 1089W        W 4833   6.152   3.681   1.699
 1090W        W 4834  10.328   1.212   2.640
 1091W        W 4835   3.566   2.739   1.843
 1092W        W 4836   5.263   8.989  11.463
 1093W        W 4837   1.754   7.165   9.799
 1094W        W 4838   9.857   7.069   2.984
 1095W        W 4839   3.691   9.605   0.209
 1096W        W 4840   6.865   2.228  10.687
 1097W        W 4841   9.424   1.207   9.970
 1098W        W 4842   5.361   0.435  10.585
 1099W        W 4843   3.281  10.185  10.888
 1100W        W 4844   8.147   8.390   0.308
 1101W        W 4845   6.464   3.315   2.795
 1102W        W 4846   4.624   7.869   2.319
 1103W        W 4847   2.322   8.360   1.390
 1104W        W 4848   6.083   9.681  10.468
 1105W        W 4849   6.086   1.037   0.165
 1106W        W 4850   3.270   0.499   2.767
 1107W        W 4851   3.911   4.646   2.725
 1108W        W 4852   2.863   3.568  11.733
 1109W        W 4853   5.287   1.346  10.992
 1110W        W 4854   2.945   4.598   9.636
 1111W        W 4855   6.282   1.375  10.542
 1112W        W 4856   3.214   4.566  11.573
 1113W        W 4857   6.563  10.223   0.553
 1114W        W 4858   9.865   1.394  10.685
 1115W        W 4859   0.142   8.310   0.361
 1116W        W 4860   3.416   3.652  10.378
 1117W        W 4861   0.177   6.190   9.864
 1118W        W 4862   4.947   5.636  10.266
 1119W        W 4863   6.165   6.497   1.216
 1120W        W 4864   5.626   3.129  11.130
 1121W        W 4865   4.708   9.112   9.141
 1122W        W 4866   9.533   9.580   0.032
 1123W        W 4867   4.997   4.528   1.848
 1124W        W 4868   1.755   6.031   9.914
 1125W        W 4869   2.199   9.479   9.837
 1126W        W 4870   0.365   2.753   1.155
 1127W        W 4871   2.971   5.940   0.547
 1128W        W 4872   2.235   0.937  10.559
 1129W        W 4873   0.184   1.673  11.072
 1130W        W 4874   3.557   1.707  11.995
 1131W        W 4875   9.964   6.157   1.363
 1132W        W 4876   8.077   7.275   8.624
 1133W        W 4877   5.973   7.480   1.505
 1134W        W 4878   3.684   3.511   1.465
 1135W        W 4879   8.466   5.905   9.576
 1136W        W 4880   0.997   5.907   9.434
 1137W        W 4881   2.828   8.887   2.156
 1138W        W 4882   4.809   3.150   2.702
 1139W        W 4883   9.901   6.017   0.002
 1140W        W 4884   4.990   4.201   8.677
 1141W        W 4885  10.416   7.245   0.207
 1142W        W 4886   9.576   7.043  11.926
 1143W        W 4887   7.573   5.778  11.923
 1144W        W 4888   3.723   1.434   9.362
 1145W        W 4889   0.770   7.047  10.584
 1146W        W 4890   9.190   1.750  10.804
 1147W        W 4891   8.943   3.318   1.084
 1148W        W 4892  10.312   0.469   0.698
 1149W        W 4893   0.287   6.967  10.245
 1150W        W 4894   8.415   5.033   9.621
 1151W        W 4895   0.275   2.721   3.077
 1152W        W 4896   4.412   9.541  10.127
 1153W        W 4897   7.892  10.232   9.575
 1154W        W 4898   2.687   5.656   1.723
 1155W        W 4899   7.202   7.012   0.211
 1156W        W 4900   5.421   7.310   3.698
 1157W        W 4901   8.368  10.478  11.761
 1158W        W 4902   6.463   1.400   9.610
 1159W        W 4903   1.771   4.278   0.631
 1160W        W 4904   9.894   8.896  11.557
 1161W        W 4905   3.525   7.541   1.159
 1162W        W 4906   1.597   3.265   3.069
 1163W        W 4907   6.970   6.059   0.959
 1164W        W 4908   0.485   2.104   0.913
 1165W        W 4909   7.098   9.320   3.303
 1166W        W 4910   2.694   1.915   9.926
 1167W        W 4911   3.701   8.861   0.898
 1168W        W 4912   1.363   0.869  10.532
 1169W        W 4913   9.971   5.694  10.306
 1170W        W 4914   8.747  10.013  10.525
 1171W        W 4915   3.125   9.803  11.343
 1172W        W 4916   1.830   5.756  11.234
 1173W        W 4917   1.050   1.445   3.273
 1174W        W 4918   9.548   7.044   3.433
 1175W        W 4919  10.333   9.847   1.682
 1176W        W 4920   5.751   7.021   2.360
 1177W        W 4921   7.400   5.625   9.093
 1178W        W 4922   2.840   4.819   2.815
 1179W        W 4923   9.493   3.550   3.337
 1180W        W 4924   9.558   4.502   0.427
 1181W        W 4925   5.670   1.304   8.729
 1182W        W 4926   7.059   3.976   2.412
 1183W        W 4927   5.649   3.749   1.972
 1184W        W 4928   7.686   3.830  11.869
 1185W        W 4929   7.169   2.650  10.620
 1186W        W 4930  10.426   4.372   0.778
 1187W        W 4931   7.185   1.240  11.852
 1188W        W 4932   2.880   2.931   8.390
 1189W        W 4933   5.541   2.214   8.798
 1190W        W 4934   8.179   1.881   2.935
 1191W        W 4935   3.305   0.516   2.248
 1192W        W 4936   7.936   7.389   2.712
 1193W        W 4937   0.271   1.347   9.821
 1194W        W 4938   2.319   1.893   8.585
 1195W        W 4939   0.625   8.903   0.939
 1196W        W 4940   6.194   5.997   1.041
 1197W        W 4941   9.084   3.742  10.562
 1198W        W 4942   4.267   1.163   0.846
 1199W        W 4943   2.661   3.777   0.617
 1200W        W 4944   7.887   5.108   0.214
 1201W        W 4945   7.837   8.288  11.326
 1202W        W 4946   7.937   6.611  11.693
 1203W        W 4947   1.262   7.332   3.065
 1204W        W 4948   1.443   6.512  11.007
 1205W        W 4949   7.620   7.848  11.049
 1206W        W 4950   1.640   2.778   3.236
 1207W        W 4951   6.051   1.964   0.735
 1208W        W 4952   2.165   8.564   2.311
 1209W        W 4953   6.903   7.855  10.002
 1210W        W 4954   1.386   5.564   9.441
 1211W        W 4955   1.870   5.910  10.406
 1212W        W 4956   1.722   7.731   8.784
 1213W        W 4957   7.186   1.482  11.326
 1214W        W 4958   2.278   3.771   8.911
 1215W        W 4959  10.009   3.805  10.272
 1216W        W 4960   0.032   9.376   1.414
 1217W        W 4961   9.840   5.508   9.833
 1218W        W 4962   7.640   9.475   8.576
 1219W        W 4963   3.144   2.824   9.302
 1220W        W 4964   7.292   4.423   0.599
 1221W        W 4965   2.956   7.580   8.643
 1222W        W 4966   4.030   7.943   3.362
 1223W        W 4967   3.530   3.155   3.253
 1224W        W 4968   8.197   4.690   0.172
 1225W        W 4969   5.553   1.666   2.495
 1226W        W 4970   3.141   4.095  10.838
 1227W        W 4971   9.521   0.705  11.605
 1228W        W 4972   5.643   8.468   0.212
 1229W        W 4973   2.150   7.327  11.235
 1230W        W 4974   4.590   5.028  10.802
 1231W        W 4975   3.762   1.314  10.372
 1232W        W 4976   2.272   8.335   9.037
 1233W        W 4977   8.921   0.047   1.852
 1234W        W 4978   6.032   5.806   9.570
 1235W        W 4979   0.894  10.021   3.382
 1236W        W 4980   5.734   9.582   3.040
 1237W        W 4981   9.423   1.720   1.508
 1238W        W 4982   3.513   1.711   0.788
 1239W        W 4983   6.950   0.290   9.526
 1240W        W 4984   9.490   0.973   0.909
 1241W        W 4985   9.343   9.622   2.866
 1242W        W 4986   9.320   5.101   9.222
 1243W        W 4987   1.514   7.763   2.919
 1244W        W 4988   2.189   5.796   2.347
 1245W        W 4989   6.184   6.459   3.911
 1246W        W 4990   5.270   3.788   2.315
 1247W        W 4991   0.502   8.284   9.506
 1248W        W 4992   6.223   2.720  10.783
 1249W        W 4993   4.943   3.715   7.841
 1250W        W 4994   4.279   3.896  10.342
 1251W        W 4995   7.383   6.780   3.670
 1252W        W 4996   5.382   7.081  10.564
 1253W        W 4997   6.027   8.382   9.571
 1254W        W 4998   7.212   7.321   0.662
 1255W        W 4999   5.075   0.713   2.142
 1256W        W 5000   4.750   2.701  10.759
 1257W        W 5001   3.345   2.812   0.259
 1258W        W 5002   7.960   0.964   8.866
 1259W        W 5003   5.995   3.907  10.196
 1260W        W 5004   2.181   5.773   8.991
 1261W        W 5005   2.767   4.693   1.952
 1262W        W 5006   9.717   7.144   1.443
 1263W        W 5007   8.548   3.388   3.366
 1264W        W 5008   5.016   7.989   9.761
 1265W        W 5009   1.690   4.688   9.692
 1266W        W 5010   9.132   8.193   9.221
 1267W        W 5011   7.464   5.226   3.604
 1268W        W 5012   6.506   7.335   2.742
 1269W        W 5013   4.565   8.124  10.026
 1270W        W 5014   4.512   9.703   8.550
 1271W        W 5015   7.832  10.418  11.955
 1272W        W 5016   4.138   1.400   0.390
 1273W        W 5017   1.256   6.460   0.308
 1274W        W 5018   8.108   8.909   0.334
 1275W        W 5019   0.135   6.846   8.639
 1276W        W 5020   4.613   5.020   2.675
 1277W        W 5021   9.347   2.432   9.964
 1278W        W 5022  10.150   0.334   9.989
 1279W        W 5023   1.815   1.657  10.046
 1280W        W 5024   1.283   2.187   1.171
 1281W        W 5025   7.931   8.840   3.326
 1282W        W 5026  10.266   6.485   9.656
 1283W        W 5027   0.464   3.460  10.610
 1284W        W 5028   7.055   5.379   0.768
 1285W        W 5029   5.614   9.383   1.439
 1286W        W 5030   3.482   8.372   3.305
 1287W        W 5031   7.468   5.030   0.480
 1288W        W 5032   7.220   9.294   1.916
 1289W        W 5033   9.100   1.335   0.238
 1290W        W 5034   2.851   4.036   3.300
 1291W        W 5035   9.760   0.488   1.851
 1292W        W 5036   1.833   5.554   0.251
 1293W        W 5037   3.116  10.493   9.619
 1294W        W 5038   1.840  10.324  11.511
 1295W        W 5039  10.248   1.951   2.051
 1296W        W 5040   6.873   7.592   1.224
 1297W        W 5041   6.483   3.537  10.742
 1298W        W 5042   8.755  10.435   9.465
 1299W        W 5043   3.226   5.990   2.317
 1300W        W 5044   4.468   4.612   0.826
 1301W        W 5045  10.481   5.435   2.363
 1302W        W 5046   3.064   0.670   3.234
 1303W        W 5047   6.707   5.551  10.840
 1304W        W 5048   8.923   7.652   0.360
 1305W        W 5049   8.396   8.613   3.314
 1306W        W 5050   2.417   0.297   9.407
 1307W        W 5051   8.382   1.818   0.444
 1308W        W 5052   0.735   2.452   8.578
 1309W        W 5053   0.699   4.162   2.227
 1310W        W 5054   6.928   2.276   8.825
 1311W        W 5055   4.646   7.078   1.651
 1312W        W 5056   0.378   6.418  11.908
 1313W        W 5057   3.184   7.640   3.272
 1314W        W 5058   4.156   7.875   9.789
 1315W        W 5059   2.503   9.590   8.793
 1316W        W 5060   7.670   6.529   1.568
 1317W        W 5061   6.846   2.318  11.737
 1318W        W 5062   1.165   7.563  11.258
 1319W        W 5063   4.601   9.939   2.687
 1320W        W 5064   7.856   6.024   4.151
 1321W        W 5065   4.850   1.315  11.248
 1322W        W 5066   6.565   5.845   2.741
 1323W        W 5067   9.909   7.491   1.821
 1324W        W 5068   6.481   0.983   9.290
 1325W        W 5069   2.395   1.456   9.042
 1326W        W 5070   4.768   6.522   1.803
 1327W        W 5071   4.617   6.149  10.371
 1328W        W 5072   6.991   9.442   1.457
 1329W        W 5073   4.153   4.695   9.966
 1330W        W 5074   2.707   3.234  10.853
 1331W        W 5075   4.193   0.343   1.194
 1332W        W 5076   7.696   8.309   0.527
 1333W        W 5077   9.359   0.229   9.556
 1334W        W 5078   2.818   1.421   9.839
 1335W        W 5079   3.225   4.087  11.340
 1336W        W 5080   7.423   9.750   0.460
 1337W        W 5081   1.227   6.502   1.706
 1338W        W 5082  10.422   0.175   1.145
 1339W        W 5083   8.850   3.170   9.544
 1340W        W 5084   6.084   7.370   3.071
 1341W        W 5085   5.103   7.413  10.081
 1342W        W 5086   7.720   7.302   9.936
 1343W        W 5087   3.819   2.249   1.774
 1344W        W 5088   2.587   3.178  11.942
 1345W        W 5089   3.936   2.624   8.580
 1346W        W 5090   7.902   7.040   9.524
 1347W        W 5091   3.877   3.639  11.051
 1348W        W 5092   6.090   0.385   0.808
 1349W        W 5093   2.184   4.411   8.447
 1350W        W 5094   6.210   0.050  10.857
 1351W        W 5095   7.527   2.948   2.299
 1352W        W 5096   5.554   4.365  11.410
 1353W        W 5097   8.240   5.812   3.866
 1354W        W 5098   9.009   7.711   9.310
 1355W        W 5099   4.728   7.236   9.482
 1356W        W 5100   7.930   1.154   1.919
 1357W        W 5101   7.859   8.362   9.834
 1358W        W 5102   3.704   1.401   1.493
 1359W        W 5103   7.423   7.414  11.255
 1360W        W 5104   6.571   6.849   2.717
 1361W        W 5105   8.505   4.549   3.126
 1362W        W 5106   7.825   5.097   7.996
 1363W        W 5107   4.574  10.354  10.035
 1364W        W 5108   5.771   4.634   2.928
 1365W        W 5109   9.716  10.446   1.242
 1366W        W 5110  10.071   0.514  11.806
 1367W        W 5111   5.103   6.144  11.053
 1368W        W 5112   2.290   6.252   3.784
 1369W        W 5113   1.995   1.159   8.789
 1370W        W 5114   1.816   3.197  10.992
 1371W        W 5115   4.088   2.372   0.454
 1372W        W 5116   9.367   0.413   8.729
 1373W        W 5117   2.889   4.014   2.370
 1374W        W 5118   8.951   2.707  10.736
 1375W        W 5119   4.466   6.775  11.811
 1376W        W 5120   0.135   9.308  11.284
 1377W        W 5121  10.302   6.371   2.516
 1378W        W 5122   5.840   7.691   1.956
 1379W        W 5123   2.676   9.912   3.211
 1380W        W 5124   8.390   4.163   9.566
 1381W        W 5125   5.737   8.315   1.146
 1382W        W 5126   4.719   3.239   9.681
 1383W        W 5127   2.623   1.222  10.300
 1384W        W 5128   7.800  10.333   1.252
 1385W        W 5129   8.289   0.233   0.210
 1386W        W 5130   7.056   8.824   3.342
 1387W        W 5131   7.882   9.377   2.659
 1388W        W 5132   2.261   9.841   1.406
 1389W        W 5133   5.993   2.967  10.344
 1390W        W 5134   7.239   7.901   1.716
 1391W        W 5135   1.708   2.618   9.542
 1392W        W 5136   5.434   0.843  10.894
 1393W        W 5137   9.935   0.617   3.172
 1394W        W 5138   1.267   0.533  11.400
 1395W        W 5139   8.556   1.774   1.406
 1396W        W 5140   2.447   2.196   9.574
 1397W        W 5141   1.952   3.311   1.533
 1398W        W 5142   5.694   8.227   2.724
 1399W        W 5143   1.015   2.317   9.573
 1400W        W 5144   0.698   2.894  11.408
 1401W        W 5145   7.680   1.994  10.267
 1402W        W 5146   5.437   0.821   3.098
 1403W        W 5147   3.935   5.641  10.240
 1404W        W 5148   2.916   4.549  10.969
 1405W        W 5149   8.953   6.206   2.808
 1406W        W 5150   5.564   2.044   0.970
 1407W        W 5151   1.608   8.032  10.056
 1408W        W 5152   2.678   7.028   3.480
 1409W        W 5153   7.706   1.320   3.708
 1410W        W 5154   2.776   3.719   1.962
 1411W        W 5155  10.350   3.057   8.923
 1412W        W 5156   9.104   6.680   2.658
 1413W        W 5157   1.208   3.315   0.235
 1414W        W 5158   5.550   0.862   8.480
 1415W        W 5159   3.574   3.221  10.667
 1416W        W 5160   1.438   2.237   9.310
 1417W        W 5161   0.454   6.875  10.950
 1418W        W 5162   2.135   7.675   1.176
 1419W        W 5163   1.326   4.326   9.006
 1420W        W 5164   2.581   2.682   0.830
 1421W        W 5165   9.090   5.555   9.265
 1422W        W 5166   0.287   4.134  11.931
 1423W        W 5167   2.407   0.883   1.958
 1424W        W 5168   2.396   6.089   9.792
 1425W        W 5169   5.008   3.797   9.047
 1426W        W 5170   8.893   5.305   0.439
 1427W        W 5171   6.206   5.490   0.078
 1428W        W 5172   1.495   5.068   1.918
 1429W        W 5173   0.242   0.564   0.989
 1430W        W 5174   6.157   8.387  10.083
 1431W        W 5175   0.322   0.389  11.370
 1432W        W 5176   9.491   4.152   0.061
 1433W        W 5177   7.973   8.746   1.695
 1434W        W 5178  10.254   8.485   3.108
 1435W        W 5179   4.821   4.564   1.354
 1436W        W 5180   0.943   0.319   0.308
 1437W        W 5181   8.962   9.898   3.079
 1438W        W 5182   1.084  10.355   0.163
 1439W        W 5183   8.003   4.625   2.410
 1440W        W 5184  10.407  10.092   9.049
 1441W        W 5185   8.873   5.595   9.737
 1442W        W 5186   8.837   9.053  11.981
 1443W        W 5187   4.787   1.224   0.740
 1444W        W 5188   7.954   6.498   2.635
 1445W        W 5189   5.435   2.146  10.730
 1446W        W 5190   4.219   5.856  10.638
 1447W        W 5191   2.200   2.195  11.139
 1448W        W 5192   5.215   4.230   3.626
 1449W        W 5193   3.711   5.890   2.210
 1450W        W 5194   1.741   9.605   8.943
 1451W        W 5195   5.269   0.061  10.954
 1452W        W 5196   6.165   9.881   2.933
 1453W        W 5197   2.156   6.543   1.864
 1454W        W 5198   8.169   5.770   8.462
 1455W        W 5199   1.636   4.591   0.250
 1456W        W 5200   7.628   3.270  11.939
 1457W        W 5201   2.837   5.754  10.393
 1458W        W 5202   6.629   6.619   3.162
 1459W        W 5203   6.811   2.067  10.202
 1460W        W 5204   5.747   3.763   2.491
 1461W        W 5205   5.181   1.754   0.830
 1462W        W 5206   3.808   3.546   9.383
 1463W        W 5207  10.209   6.029   0.916
 1464W        W 5208   4.232   1.409   9.588
 1465W        W 5209   2.957   0.877   2.389
 1466W        W 5210   3.559   0.145  11.288
 1467W        W 5211   4.697   0.326   9.894
 1468W        W 5212   1.706   3.151   2.551
 1469W        W 5213   1.002   8.330   0.459
 1470W        W 5214   3.523   6.696   8.682
 1471W        W 5215   2.269   5.473  11.992
 1472W        W 5216   6.442   5.254   2.583
 1473W        W 5217   2.302   0.243   3.387
 1474W        W 5218   7.541   1.498   0.721
 1475W        W 5219   9.713  10.144  10.297
 1476W        W 5220   9.592   2.251   1.240
 1477W        W 5221   1.793   7.275  10.326
 1478W        W 5222   0.777   4.236   3.264
 1479W        W 5223   1.675   7.610  11.310
 1480W        W 5224   8.538   5.283   1.275
 1481W        W 5225   5.741   7.125   4.047
 1482W        W 5226   4.539   8.142   8.967
 1483W        W 5227   9.778   7.646   9.377
 1484W        W 5228   4.978   7.902   8.810
 1485W        W 5229   8.748   5.836   0.957
 1486W        W 5230   3.273   6.359   1.445
 1487W        W 5231   6.861   8.115   8.900
 1488W        W 5232   9.000   3.351   1.584
 1489W        W 5233   9.498   4.721  10.962
 1490W        W 5234   2.749   4.626   0.705
 1491W        W 5235   9.858   2.219   0.176
 1492W        W 5236  10.371   6.102   0.282
 1493W        W 5237   3.163   5.647   1.899
 1494W        W 5238   7.888   7.165  10.413
 1495W        W 5239   6.157   0.533  10.743
 1496W        W 5240   7.843   9.734  11.450
 1497W        W 5241   3.941   8.410   3.099
 1498W        W 5242   0.255   8.558   9.137
 1499W        W 5243   5.314   4.491   1.200
 1500W        W 5244   8.482   6.380   1.274
 1501W        W 5245   7.676   9.603   3.540
 1502W        W 5246   3.716  10.109   9.110
 1503W        W 5247   8.517   1.037   2.904
 1504W        W 5248   4.270   1.481  11.094
 1505W        W 5249   3.574   4.319   0.440
 1506W        W 5250   4.532   6.965   0.625
 1507W        W 5251   8.462   9.025   2.504
 1508W        W 5252   2.078   7.714   2.130
 1509W        W 5253   8.484   8.278  11.951
 1510W        W 5254   1.769   2.104   2.773
 1511W        W 5255   5.665   1.301   0.241
 1512W        W 5256   7.004   7.501   3.483
 1513W        W 5257   0.193   5.941  11.893
 1514W        W 5258   9.430   5.026   1.248
 1515W        W 5259   4.257   1.112  10.001
 1516W        W 5260   0.001   8.408  10.993
 1517W        W 5261   9.312   0.553  10.477
 1518W        W 5262   3.131   6.976   2.130
 1519W        W 5263   7.670   4.214   8.286
 1520W        W 5264   1.465   5.491  11.459
 1521W        W 5265   5.126  10.457   3.367
 1522W        W 5266   9.540   5.443   0.960
 1523W        W 5267   9.043   5.837   3.156
 1524W        W 5268   8.769   7.052   2.768
 1525W        W 5269   3.776   8.636   2.664
 1526W        W 5270   2.742  10.427  11.586
 1527W        W 5271   3.497   2.765  10.960
 1528W        W 5272   7.284   2.316   9.738
 1529W        W 5273   3.198   9.194   3.631
 1530W        W 5274  10.340   6.227   3.003
 1531W        W 5275   1.834   3.709  10.882
 1532W        W 5276   7.489   6.118   9.423
 1533W        W 5277   6.044   7.429   2.566
 1534W        W 5278   5.620   8.305   3.610
 1535W        W 5279   2.227   5.785   1.449
 1536W        W 5280   5.537   6.847   0.399
 1537W        W 5281   3.262   1.132   3.325
 1538W        W 5282  10.338   6.470   9.118
 1539W        W 5283   6.769   8.458   0.299
 1540W        W 5284   9.823   5.233  10.461
 1541W        W 5285   4.473   7.549   1.483
 1542W        W 5286   3.669   6.709   9.181
 1543W        W 5287   1.453   5.547   2.997
 1544W        W 5288   5.591   3.093   9.387
 1545W        W 5289   7.542   8.889   1.960
 1546W        W 5290  10.162   6.008   9.885
 1547W        W 5291   9.837   6.029   8.600
 1548W        W 5292   6.144   9.901   9.978
 1549W        W 5293   9.863   3.272  11.128
 1550W        W 5294   6.091   6.475  11.811
 1551W        W 5295   4.494   7.478   1.993
 1552W        W 5296   2.381   7.584  10.105
 1553W        W 5297   4.470   7.245  11.080
 1554W        W 5298   5.615   1.284   9.248
 1555W        W 5299   7.250   4.450   9.009
 1556W        W 5300   7.690   6.952   0.340
 1557W        W 5301  10.300   4.959   2.522
 1558W        W 5302   8.921   6.238   3.473
 1559W        W 5303   8.093   1.267  11.461
 1560W        W 5304   6.761   5.688   9.848
 1561W        W 5305   1.535   1.875   1.982
 1562W        W 5306   4.876   5.636   9.411
 1563W        W 5307   5.103   1.202   2.997
 1564W        W 5308   3.609   3.742   8.945
 1565W        W 5309   7.494   6.760  11.881
 1566W        W 5310   5.678   2.793   1.602
 1567W        W 5311   3.669   5.898   3.164
 1568W        W 5312   6.111   5.930  11.813
 1569W        W 5313   2.839   0.738  11.499
 1570W        W 5314   7.365   2.363  11.759
 1571W        W 5315   5.307   9.323   2.933
 1572W        W 5316   9.669   5.453   9.327
 1573W        W 5317   2.127   8.031  10.111
 1574W        W 5318   8.090   4.456   3.958
 1575W        W 5319   9.569   0.472   0.590
 1576W        W 5320   4.600   0.739   0.828
 1577W        W 5321   2.190   4.076   0.862
 1578W        W 5322   1.344   9.389  11.629
 1579W        W 5323   1.059   8.387  10.711
 1580W        W 5324   1.602   0.764   0.798
 1581W        W 5325   7.769   1.149   2.442
 1582W        W 5326   9.200   5.570   3.573
 1583W        W 5327   1.859   9.240   0.343
 1584W        W 5328   9.965   0.330   2.764
 1585W        W 5329   1.360   8.414   9.263
 1586W        W 5330   8.843   0.798   9.032
 1587W        W 5331   6.546   5.031  11.063
 1588W        W 5332   8.910   7.915   3.373
 1589W        W 5333   5.405   7.105   8.782
 1590W        W 5334   1.800   8.083   9.158
 1591W        W 5335   6.364   2.429  11.932
 1592W        W 5336   1.234   1.134   0.029
 1593W        W 5337   3.357   8.732   0.446
 1594W        W 5338   5.706   0.190  11.454
 1595W        W 5339   7.097   6.585   1.526
 1596W        W 5340   8.007   7.679  10.624
 1597W        W 5341   9.264   2.382  10.468
 1598W        W 5342   9.856   6.156   2.321
 1599W        W 5343   7.256   2.935   0.916
 1600W        W 5344   0.956   5.158   0.578
 1601W        W 5345  10.361   4.526   1.265
 1602W        W 5346   3.562   3.651   9.818
 1603W        W 5347   8.960   3.594   0.274
 1604W        W 5348   6.019   5.200  10.130
 1605W        W 5349   9.763   8.157  10.723
 1606W        W 5350   8.880   4.365   2.569
 1607W        W 5351   7.399   6.595   1.972
 1608W        W 5352   1.320   5.757   9.932
 1609W        W 5353  10.489   8.731   2.236
 1610W        W 5354   7.619   8.114   1.456
 1611W        W 5355   6.944   4.539  11.813
 1612W        W 5356   5.479   6.233   2.811
 1613W        W 5357   8.200   0.675   9.675
 1614W        W 5358   6.023   9.161   1.726
 1615W        W 5359   5.318   9.883   0.890
 1616W        W 5360   7.660   9.553  11.015
 1617W        W 5361   7.108   3.614   2.066
 1618W        W 5362   4.730   3.657   0.927
 1619W        W 5363   8.514   1.480   9.945
 1620W        W 5364   8.418   3.800   2.480
 1621W        W 5365   2.512   1.646   0.884
 1622W        W 5366   4.120   6.585   9.387
 1623W        W 5367   3.367   2.275   9.632
 1624W        W 5368   9.642   3.467  11.558
 1625W        W 5369   6.133   0.312   1.354
 1626W        W 5370   5.215   3.921   9.515
 1627W        W 5371   4.902   9.043   2.851
 1628W        W 5372   3.340   7.538   3.795
 1629W        W 5373   9.397   9.769   1.697
 1630W        W 5374   1.673  10.415   2.914
 1631W        W 5375   8.523   2.779   9.464
 1632W        W 5376   4.108   4.123   1.951
 1633W        W 5377   1.308   9.423   9.222
 1634W        W 5378   2.815   7.353   0.489
 1635W        W 5379   8.965   3.150  11.019
 1636W        W 5380   5.067  10.489   0.282
 1637W        W 5381   1.208   2.747   1.457
 1638W        W 5382   8.526   5.543  10.557
 1639W        W 5383   2.660   6.031   2.901
 1640W        W 5384   0.212   2.721   9.121
 1641W        W 5385   6.963   6.023   3.565
 1642W        W 5386   4.446   5.668  10.229
 1643W        W 5387   4.274   1.386   3.539
 1644W        W 5388   4.074   6.133   2.897
 1645W        W 5389   7.172   3.207  11.696
 1646W        W 5390   5.926   5.623  10.418
 1647W        W 5391   1.364   6.867   2.832
 1648W        W 5392   0.918   2.691  10.184
 1649W        W 5393   7.235   3.709   2.860
 1650W        W 5394   4.986   5.179   0.339
 1651W        W 5395   7.055   0.353   1.693
 1652W        W 5396   6.033   2.427   2.220
 1653W        W 5397   5.579   2.433   1.975
 1654W        W 5398   7.835   5.670   8.823
 1655W        W 5399   2.165   7.772  11.463
 1656W        W 5400   8.532   0.681   1.508
 1657W        W 5401   5.517  10.227  11.460
 1658W        W 5402   4.778   8.079  11.694
 1659W        W 5403   4.586   5.917   1.193
 1660W        W 5404  10.352   3.052   3.000
 1661W        W 5405   1.940   1.336   9.261
 1662W        W 5406   4.756   3.643  10.492
 1663W        W 5407   0.506   5.237   0.895
 1664W        W 5408   0.550   9.353   0.704
 1665W        W 5409   9.798   2.343   9.772
 1666W        W 5410   2.718   7.918   2.830
 1667W        W 5411   1.234   6.572   2.210
 1668W        W 5412   0.976   9.397   8.409
 1669W        W 5413   6.132   1.056  11.455
 1670W        W 5414   2.175   6.829   2.316
 1671W        W 5415   2.123   4.307   0.136
 1672W        W 5416   0.389   6.517   8.947
 1673W        W 5417   3.937   3.176   3.589
 1674W        W 5418   5.468   3.375   3.680
 1675W        W 5419   4.703   1.261   2.628
 1676W        W 5420   5.188   1.214   1.494
 1677W        W 5421   3.931   8.944   3.053
 1678W        W 5422   1.596   9.185  10.453
 1679W        W 5423   1.105   8.490   1.409
 1680W        W 5424   6.223   1.400   2.329
 1681W        W 5425   3.817   2.832   0.542
 1682W        W 5426   7.559   3.099   9.170
 1683W        W 5427   1.351   2.469  11.583
 1684W        W 5428   5.110   2.231   0.625
 1685W        W 5429   6.359   7.304  10.446
 1686W        W 5430   9.818   1.800  11.455
 1687W        W 5431   1.013   1.442   1.397
 1688W        W 5432   6.373   1.990   1.563
 1689W        W 5433   5.657   8.504   3.138
 1690W        W 5434   4.230   6.721   2.400
 1691W        W 5435   2.262   0.767   2.920
 1692W        W 5436   5.650   3.273   1.782
 1693W        W 5437   7.365   6.859   0.706
 1694W        W 5438   4.469   2.192   0.062
 1695W        W 5439   2.732   5.660  11.254
 1696W        W 5440   7.612   4.075   3.026
 1697W        W 5441  10.244   5.732  11.783
 1698W        W 5442   8.057   1.665  11.788
 1699W        W 5443   5.651   3.177   3.251
 1700W        W 5444   7.898   1.955  10.743
 1701W        W 5445   2.091   4.216   1.882
 1702W        W 5446   5.536  10.267   0.388
 1703W        W 5447   2.234  10.433   9.752
 1704W        W 5448   5.230   2.050   2.684
 1705W        W 5449   2.299   5.144   0.373
 1706W        W 5450   4.788   7.163   8.994
 1707W        W 5451   2.828   9.046   9.001
 1708W        W 5452  10.075   9.397   1.675
 1709W        W 5453   6.954   6.570   0.028
 1710W        W 5454   5.659   2.202   0.486
 1711W        W 5455   9.675   1.797  10.956
 1712W        W 5456   5.547   7.300   1.247
 1713W        W 5457   0.283   4.716   0.949
 1714W        W 5458   9.883   8.063  11.207
 1715W        W 5459   7.334   9.666  11.511
 1716W        W 5460   4.160   9.135   0.723
 1717W        W 5461   9.257   5.462   0.094
 1718W        W 5462   4.633   8.218   2.705
 1719W        W 5463   0.250   2.875  10.885
 1720W        W 5464   6.409   2.475   0.851
 1721W        W 5465   3.330   0.729  10.039
 1722W        W 5466   2.801   1.417  11.873
 1723W        W 5467   0.662   5.047   2.750
 1724W        W 5468  10.271   3.152   0.351
 1725W        W 5469   2.691   7.235   9.793
 1726W        W 5470   2.913   9.018  10.485
 1727W        W 5471   2.848   6.966   0.133
 1728W        W 5472   7.677   7.974   0.971
 1729W        W 5473   0.788  10.071   2.039
 1730W        W 5474   3.959   5.201  11.462
 1731W        W 5475   6.183   2.410   1.324
 1732W        W 5476  10.259   6.484  10.626
 1733W        W 5477   6.257   8.550   0.335
 1734W        W 5478   4.154   6.875   0.247
 1735W        W 5479   2.152   6.099  10.775
 1736W        W 5480   2.633   5.531   2.217
 1737W        W 5481  10.496   6.996  10.734
 1738W        W 5482   5.100   3.121  10.880
 1739W        W 5483   3.055   1.869   1.716
 1740W        W 5484   7.430   7.161   2.711
 1741W        W 5485   6.078   3.363   2.436
 1742W        W 5486   0.274   6.203  11.449
 1743W        W 5487   7.534   8.617   1.456
 1744W        W 5488   9.118   7.100   2.380
 1745W        W 5489   8.690   4.814   0.372
 1746W        W 5490   1.173   7.539   9.358
 1747W        W 5491   4.341   9.981   0.943
 1748W        W 5492   2.490   9.904  11.934
 1749W        W 5493   4.147   2.240   1.393
 1750W        W 5494   7.708   4.825  11.778
 1751W        W 5495   9.156   3.484   2.940
 1752W        W 5496   2.825   6.090   9.002
 1753W        W 5497   0.489   7.345   0.351
 1754W        W 5498   1.481   1.959   9.749
 1755W        W 5499   9.136   7.528   0.792
 1756W        W 5500  10.364   0.751   2.858
 1757W        W 5501   4.966   3.334   1.333
 1758W        W 5502   2.320   3.487  11.609
 1759W        W 5503   9.836   1.364   2.648
 1760W        W 5504   4.972   1.255   9.008
 1761W        W 5505   4.324   3.732   2.196
 1762W        W 5506   9.849   8.356  11.838
 1763W        W 5507   7.425   4.042   1.650
 1764W        W 5508   2.669   3.548   2.435
 1765W        W 5509   4.602   7.254   3.415
 1766W        W 5510   3.256   1.369   9.568
 1767W        W 5511   0.387   8.067   9.043
 1768W        W 5512   8.361   7.051   3.118
 1769W        W 5513   5.872   8.898   8.841
 1770W        W 5514   3.534   6.416  11.931
 1771W        W 5515   2.438   5.220  11.157
 1772W        W 5516   2.917   9.906   1.280
 1773W        W 5517   3.528   4.522   1.389
 1774W        W 5518   7.000  10.457  11.361
 1775W        W 5519   2.889   7.649  10.079
 1776W        W 5520   9.462   2.626   2.019
 1777W        W 5521   5.130   8.308  10.570
 1778W        W 5522   2.699   8.622   8.646
 1779W        W 5523   0.585   3.513   1.620
 1780W        W 5524   5.486   4.703  10.136
 1781W        W 5525   2.307   7.205   2.701
 1782W        W 5526   4.080   6.686   8.868
 1783W        W 5527   5.351   7.992   1.258
 1784W        W 5528   0.072   5.719  11.401
 1785W        W 5529   7.502   0.751   9.002
 1786W        W 5530   5.488   2.644   9.140
 1787W        W 5531   5.719   9.558   0.931
 1788W        W 5532   3.030   2.223   1.351
 1789W        W 5533   8.886   8.566  11.847
 1790W        W 5534   3.293   1.478  11.099
 1791W        W 5535   2.847   6.246  10.507
 1792W        W 5536   8.693   1.920   3.814
 1793W        W 5537   1.147   6.973   0.419
 1794W        W 5538   5.964   6.965   1.363
 1795W        W 5539   2.103   4.283   2.873
 1796W        W 5540   7.149   8.182   1.266
 1797W        W 5541   5.707   5.603  10.916
 1798W        W 5542   4.194   2.829   0.176
 1799W        W 5543   5.982   1.184   1.884
 1800W        W 5544   6.152   6.156   0.259
 1801W        W 5545   5.204   2.873   0.267
 1802W        W 5546  10.488   2.121  11.068
 1803W        W 5547   3.105   2.733  11.302
 1804W        W 5548   6.624   1.870   2.571
 1805W        W 5549   9.863   9.865   1.424
 1806W        W 5550   4.854   9.858  11.693
 1807W        W 5551   7.424   7.301  11.776
 1808W        W 5552   6.053   1.628   9.302
 1809W        W 5553   9.456   8.498   2.283
 1810W        W 5554   3.889   3.640  10.538
 1811W        W 5555   4.918   7.488  11.098
 1812W        W 5556   3.693   9.534   1.493
 1813W        W 5557   3.580   2.666   3.020
 1814W        W 5558   5.168   3.413   9.400
 1815W        W 5559   4.581   6.898   1.184
 1816W        W 5560  10.497   9.119  11.897
 1817W        W 5561   1.920   0.378   9.476
 1818W        W 5562   3.582   9.016   1.383
 1819W        W 5563   6.142   0.640   9.518
 1820W        W 5564   2.054   3.779   1.269
 1821W        W 5565   3.541   2.238   1.339
 1822W        W 5566   5.558   6.059   9.729
 1823W        W 5567   4.211   9.146   9.844
 1824W        W 5568   5.759  10.081   0.824
 1825W        W 5569   8.574   8.576   2.302
 1826W        W 5570   7.047   0.987  11.389
 1827W        W 5571   9.553   2.660   2.526
 1828W        W 5572   0.132   4.085   2.324
 1829W        W 5573   1.691   2.365   9.990
 1830W        W 5574   6.218   7.470   9.989
 1831W        W 5575   6.566   4.531   0.136
 1832W        W 5576   7.669   7.519   2.256
 1833W        W 5577  10.203   2.343   2.397
 1834W        W 5578   6.482   2.820   9.475
 1835W        W 5579   7.546   3.945   0.740
 1836W        W 5580   4.717   0.243   2.907
 1837W        W 5581   8.628   1.746   2.781
 1838W        W 5582   4.068   6.475  11.944
 1839W        W 5583   8.877   7.049   3.256
 1840W        W 5584   6.885   6.805   0.550
 1841W        W 5585   2.774   9.413   1.398
 1842W        W 5586   4.424   4.568   2.799
 1843W        W 5587   7.918   2.795   0.358
 1844W        W 5588   6.155   8.976   2.441
 1845W        W 5589   5.048  10.412  11.419
 1846W        W 5590   1.707   3.783   0.762
 1847W        W 5591   2.174   2.599   9.765
 1848W        W 5592   5.628   7.051   3.285
 1849W        W 5593   0.687   4.882   9.541
 1850W        W 5594   1.297   9.550   2.122
 1851W        W 5595   3.857   7.094   3.246
 1852W        W 5596   6.951   3.286   0.690
 1853W        W 5597   4.338   4.706   1.312
 1854W        W 5598  10.221   8.325  10.521
 1855W        W 5599   8.832   5.048   9.036
 1856W        W 5600   0.979   7.945   8.658
 1857W        W 5601   3.691   4.921   2.331
 1858W        W 5602   1.403   4.104  11.474
 1859W        W 5603   7.912   9.065  11.884
 1860W        W 5604   7.160   9.791   1.769
 1861W        W 5605  10.451   9.882   3.206
 1862W        W 5606   8.483   4.694   2.636
 1863W        W 5607   0.258   2.747   1.676
 1864W        W 5608  10.375   1.137   1.881
 1865W        W 5609   9.702   8.750   1.020
 1866W        W 5610   7.011   1.713   3.425
 1867W        W 5611   2.086   2.719  10.961
 1868W        W 5612   0.451   0.330   3.372
 1869W        W 5613   4.537   6.767  11.274
 1870W        W 5614   5.181   3.500   2.724
 1871W        W 5615   3.655   6.279   9.465
 1872W        W 5616   1.754   2.757   2.229
 1873W        W 5617   9.524   5.660   3.174
 1874W        W 5618   5.836   3.802   8.648
 1875W        W 5619   3.048   0.941   1.141
 1876W        W 5620   5.159   9.262  10.758
 1877W        W 5621   8.542   8.148   2.568
 1878W        W 5622   5.908   2.973   9.781
 1879W        W 5623   0.193   5.583   2.885
 1880W        W 5624   2.309   4.213   1.377
 1881W        W 5625   6.608   2.005   0.817
 1882W        W 5626   1.827   9.881  11.004
 1883W        W 5627   0.687   8.047   1.014
 1884W        W 5628  10.384   2.704   9.838
 1885W        W 5629   1.711   1.779  11.586
 1886W        W 5630   0.938   7.802   1.903
 1887W        W 5631   1.240   3.754   0.531
 1888W        W 5632   6.288   2.624   9.907
 1889W        W 5633   0.806   1.862  10.275
 1890W        W 5634   8.302   6.114   0.870
 1891W        W 5635   1.852   8.116   1.257
 1892W        W 5636   4.849   4.016   9.880
 1893W        W 5637   9.284   0.674   1.770
 1894W        W 5638  10.463   7.073   3.143
 1895W        W 5639   3.188   5.645  11.999
 1896W        W 5640   5.757   7.732   2.872
 1897W        W 5641   1.738   4.008   8.933
 1898W        W 5642   9.394   9.808   3.343
 1899W        W 5643   7.499   8.692  10.025
 1900W        W 5644   3.800   7.346   0.788
 1901W        W 5645   8.549   0.448   9.275
 1902W        W 5646   3.616   6.038   0.693
 1903W        W 5647   2.834   7.199   8.941
 1904W        W 5648   6.118   4.433   9.463
 1905W        W 5649   3.419   2.709   8.484
 1906W        W 5650   3.207   1.832  11.457
 1907W        W 5651   9.487   5.247   1.723
 1908W        W 5652  10.255   7.621   9.208
 1909W        W 5653   3.843   6.114   0.231
 1910W        W 5654   6.456   2.327   2.474
 1911W        W 5655   4.969   6.247   9.067
 1912W        W 5656   5.688   4.066   0.697
 1913W        W 5657   1.196   7.903   0.283
 1914W        W 5658   4.451   0.051   9.554
 1915W        W 5659   0.519   8.332  10.810
 1916W        W 5660   4.201   4.866   1.785
 1917W        W 5661   1.738   6.586   2.435
 1918W        W 5662  10.213   5.650   1.365
 1919W        W 5663   6.286   3.625   0.191
 1920W        W 5664   7.668   9.444   2.177
 1921W        W 5665   8.135   6.646   9.243
 1922W        W 5666   7.024   5.795   0.480
 1923W        W 5667   6.469   4.896   2.957
 1924W        W 5668   6.436   6.339  10.325
 1925W        W 5669  10.379   2.613   0.422
 1926W        W 5670   6.036   1.135   9.525
 1927W        W 5671   1.376   8.951   9.575
 1928W        W 5672  10.455   4.600   3.075
 1929W        W 5673   9.524   5.861   0.311
 1930W        W 5674   3.716   9.977  11.048
 1931W        W 5675   5.205   0.367   3.029
 1932W        W 5676   6.374   1.903   9.606
 1933W        W 5677   3.086   2.128   3.640
 1934W        W 5678   4.550   3.614   9.990
 1935W        W 5679   8.327   8.067  10.504
 1936W        W 5680   2.894   3.651  11.077
 1937W        W 5681   9.896   6.193   0.521
 1938W        W 5682   0.821   2.683   1.929
 1939W        W 5683   0.195   1.937   0.497
 1940W        W 5684   8.000   4.224   0.282
 1941W        W 5685   8.049   4.376   8.628
 1942W        W 5686   9.867   3.552   8.922
 1943W        W 5687   9.448   4.599   0.965
 1944W        W 5688   0.027   0.002   3.546
 1945W        W 5689   3.156   7.837   9.040
 1946W        W 5690   3.387   0.893   0.355
 1947W        W 5691  10.314   0.047   8.830
 1948W        W 5692  10.052   1.214   8.623
 1949W        W 5693   6.103   7.457   9.094
 1950W        W 5694   7.462   3.111   0.420
 1951W        W 5695   6.191   1.259   0.979
 1952W        W 5696   5.084   1.609   1.794
 1953W        W 5697  10.469   2.141   2.807
 1954W        W 5698   5.685   3.698   1.474
 1955W        W 5699   6.613   2.542  10.349
 1956W        W 5700   1.550   9.060   3.363
 1957W        W 5701   8.030   0.225   1.467
 1958W        W 5702   0.771   0.227   2.855
 1959W        W 5703   1.362   3.698  11.075
 1960W        W 5704   6.880   2.877   9.036
 1961W        W 5705   4.792   9.437  10.458
 1962W        W 5706   0.214   6.945   0.495
 1963W        W 5707   0.967   5.638   1.694
 1964W        W 5708   2.336   5.548   1.006
 1965W        W 5709   4.738   6.592   8.594
 1966W        W 5710   8.571   3.673   1.581
 1967W        W 5711   2.638   0.795  11.054
 1968W        W 5712   5.573   7.437   0.159
 1969W        W 5713   0.726   5.103   9.003
 1970W        W 5714   1.315   1.472   9.851
 1971W        W 5715   1.765  10.322   9.013
 1972W        W 5716   5.764   5.417   0.630
 1973W        W 5717   4.947   6.983  10.318
 1974W        W 5718   9.844   6.062   2.877
 1975W        W 5719   7.168   4.119   9.736
 1976W        W 5720  10.497   5.605   3.384
 1977W        W 5721   5.414   8.046   3.202
 1978W        W 5722   7.980   7.379   0.385
 1979W        W 5723   4.786   4.970   9.404
 1980W        W 5724   5.371   6.209   8.745
 1981W        W 5725   6.647   4.955   0.383
 1982W        W 5726  10.229   4.544   2.117
 1983W        W 5727   8.368   1.317   0.837
 1984W        W 5728   0.064   6.679  11.568
 1985W        W 5729   8.232   4.155   0.744
 1986W        W 5730   2.632   4.470   9.261
 1987W        W 5731   4.576   2.627   9.337
 1988W        W 5732   1.795   5.646   1.673
 1989W        W 5733   4.267   7.952   1.942
 1990W        W 5734  10.461   4.566  11.929
 1991W        W 5735   3.643   5.405  11.811
 1992W        W 5736   1.713   3.786   9.830
 1993W        W 5737   2.947   0.734   0.659
 1994W        W 5738   6.000   1.598   9.794
 1995W        W 5739   0.433   4.309   8.702
 1996W        W 5740  10.399   2.338   9.081
 1997W        W 5741   4.504   3.599   8.101
 1998W        W 5742   9.495  10.340   0.753
 1999W        W 5743   9.280   8.787   1.887
 2000W        W 5744   8.785   5.287   3.320
 2001W        W 5745   8.941  10.325   2.784
 2002W        W 5746  10.185   7.869  10.829
 2003W        W 5747   9.743   9.134   8.430
 2004W        W 5748   0.520   6.971   2.420
 2005W        W 5749   3.077   7.675   1.890
 2006W        W 5750  10.272   5.856   2.655
 2007W        W 5751   2.296   9.904   2.415
 2008W        W 5752   4.644   7.636   9.775
 2009W        W 5753   7.838   4.612   9.889
 2010W        W 5754   5.084   5.173   1.903
 2011W        W 5755   0.527   6.378  11.046
 2012W        W 5756   6.770   3.159   3.171
 2013W        W 5757   2.106   2.545  11.505
 2014W        W 5758   5.461   6.893   0.943
 2015W        W 5759   2.408  10.351   3.095
 2016W        W 5760   8.501   3.572   0.982
 2017W        W 5761   6.005   6.985   9.971
 2018W        W 5762   3.727   3.080  11.974
 2019W        W 5763   0.318  10.468   9.093
 2020W        W 5764   6.564  10.103   1.911
 2021W        W 5765   0.911   9.801   9.071
 2022W        W 5766   6.009   4.225   8.898
 2023W        W 5767   2.125   9.858  11.496
 2024W        W 5768   6.594   9.510   1.097
 2025W        W 5769   8.750   6.436   0.309
 2026W        W 5770   1.243   3.422  10.408
 2027W        W 5771   8.099   0.013  10.960
 2028W        W 5772   0.871   8.634   0.091
 2029W        W 5773   1.406   5.345   8.934
 2030W        W 5774   6.641   8.628   0.768
 2031W        W 5775   3.169   8.043   8.564
 2032W        W 5776   3.418   3.112   2.236
 2033W        W 5777   0.722   5.197   1.764
 2034W        W 5778   0.993   9.490   1.356
 2035W        W 5779   8.807   5.564  11.301
 2036W        W 5780   2.260   0.790   1.429
 2037W        W 5781   3.318   1.769   8.749
 2038W        W 5782   2.289   4.701   2.162
 2039W        W 5783   1.698   6.647   9.343
 2040W        W 5784  10.331  10.342  11.392
 2041W        W 5785   0.281   1.777   1.386
 2042W        W 5786   0.254   2.327   3.907
 2043W        W 5787   5.353   8.584   8.443
 2044W        W 5788   8.603   0.805   1.008
 2045W        W 5789   1.929   0.379   3.049
 2046W        W 5790   9.859   5.179  11.378
 2047W        W 5791   6.687   4.451   2.777
 2048W        W 5792   5.198   0.996   0.173
 2049W        W 5793   1.915   2.343   3.184
 2050W        W 5794   0.253   6.103   1.772
 2051W        W 5795   2.377   6.112   9.287
 2052W        W 5796   3.520   9.669   3.676
 2053W        W 5797   3.189   4.557  10.077
 2054W        W 5798   1.783   2.287  10.840
 2055W        W 5799   9.239   5.424  11.567
 2056W        W 5800   0.062   1.247   3.101
 2057W        W 5801   8.634   3.632   2.927
 2058W        W 5802   4.525   6.683  10.348
 2059W        W 5803   6.986   3.239   0.178
 2060W        W 5804   4.241  10.293   9.170
 2061W        W 5805   3.092   1.189  11.494
 2062W        W 5806   2.154   6.992   0.497
 2063W        W 5807   7.505   2.606  11.329
 2064W        W 5808   6.115   3.983   9.714
 2065W        W 5809   7.001   8.701  11.885
 2066W        W 5810   4.638   3.619   3.444
 2067W        W 5811   2.698   5.252  10.298
 2068W        W 5812   8.480   7.177  10.956
 2069W        W 5813   3.831   3.596   0.073
 2070W        W 5814   5.171   3.511   3.237
 2071W        W 5815   0.144  10.051   9.998
 2072W        W 5816   1.659   5.187   2.721
 2073W        W 5817   1.943   1.703   8.887
 2074W        W 5818   4.310   7.047   9.188
 2075W        W 5819   9.863  10.019   1.909
 2076W        W 5820   7.006   2.228   2.203
 2077W        W 5821   5.703   6.805  10.860
 2078W        W 5822   2.038   4.841   0.037
 2079W        W 5823   7.845   1.682   2.456
 2080W        W 5824   5.966   5.546   1.482
 2081W        W 5825   1.120   4.532  11.458
 2082W        W 5826   2.734   5.606  11.754
 2083W        W 5827   2.764   8.471  11.187
 2084W        W 5828   7.072   1.751   1.953
 2085W        W 5829   1.358   1.162   1.179
 2086W        W 5830   4.197   2.319   3.534
 2087W        W 5831   0.517   7.782   9.531
 2088W        W 5832   2.978  10.005  11.827
 2089W        W 5833   1.336   0.908  11.057
 2090W        W 5834   5.613   4.646   9.637
 2091W        W 5835   7.953   3.622   2.426
 2092W        W 5836   8.952   5.371   0.974
 2093W        W 5837   7.932   2.165  11.912
 2094W        W 5838   0.741   6.091   3.473
 2095W        W 5839   3.865   7.125   2.702
 2096W        W 5840   3.595   4.196   8.594
 2097W        W 5841   8.959   2.715   9.197
 2098W        W 5842   7.747   2.821   0.843
 2099W        W 5843   4.707   4.022  11.910
 2100W        W 5844   0.884  10.138   9.500
 2101W        W 5845   8.778   7.908  10.624
 2102W        W 5846   5.247   2.330   3.127
 2103W        W 5847   1.847   3.146   3.523
 2104W        W 5848   3.313   9.675  10.882
 2105W        W 5849   8.620   0.916  11.839
 2106W        W 5850  10.426   4.653  10.811
 2107W        W 5851   7.116   7.981   2.647
 2108W        W 5852   4.207   9.393   3.300
 2109W        W 5853   2.329   3.218   3.364
 2110W        W 5854   7.683   1.286  10.998
 2111W        W 5855   9.422   3.096   1.796
 2112W        W 5856   7.442   7.012   3.215
 2113W        W 5857   5.468   9.370   2.007
 2114W        W 5858   4.766   0.780   0.303
 2115W        W 5859   6.095   6.066   1.560
 2116W        W 5860   5.589   4.066   8.248
 2117W        W 5861   7.641   1.526  10.034
 2118W        W 5862   3.310   7.240   1.704
 2119W        W 5863   0.299   2.862   0.285
 2120W        W 5864   4.690   1.443  10.784
 2121W        W 5865   2.264   6.613   2.757
 2122W        W 5866   1.196   7.976  10.970
 2123W        W 5867   7.446  10.097  10.277
 2124W        W 5868   8.149   0.536   1.046
 2125W        W 5869   8.437   4.050   8.703
 2126W        W 5870   7.058   3.853   3.306
 2127W        W 5871   1.632   9.711   0.351
 2128W        W 5872   8.328   8.441   8.999
 2129W        W 5873   1.374   9.294   1.672
 2130W        W 5874   1.641   4.137   1.642
 2131W        W 5875   7.513   8.062  10.573
 2132W        W 5876   9.023   6.642   1.146
 2133W        W 5877   1.503   1.482   3.598
 2134W        W 5878   2.787   2.183   0.882
 2135W        W 5879   8.930   6.167   1.329
 2136W        W 5880   1.269   3.821  10.090
 2137W        W 5881   0.323   0.497   2.921
 2138W        W 5882   0.438   8.778   9.565
 2139W        W 5883   7.833   0.587   3.360
 2140W        W 5884   9.099   0.789   9.913
 2141W        W 5885   8.085   2.842  10.225
 2142W        W 5886   1.235   6.364   3.609
 2143W        W 5887   8.495   1.890   9.612
 2144W        W 5888   9.499  10.472   2.890
 2145W        W 5889   7.048   2.398   0.200
 2146W        W 5890   8.789   0.219   2.319
 2147W        W 5891   1.822   8.738   0.430
 2148W        W 5892  10.326   8.957   2.710
 2149W        W 5893   1.000   5.319  11.236
 2150W        W 5894   3.170   2.800   9.839
 2151W        W 5895   0.771   1.758   2.990
 2152W        W 5896   7.484   7.412   0.272
 2153W        W 5897   9.981   4.699   2.903
 2154W        W 5898   4.713   3.737   0.409
 2155W        W 5899   9.932   1.239   0.779
 2156W        W 5900   9.275   0.294  11.408
 2157W        W 5901   1.313   9.876   9.459
 2158W        W 5902   2.913   4.812   8.572
 2159W        W 5903   9.065   6.698   0.633
 2160W        W 5904   8.949   8.443   3.122
 2161W        W 5905   8.067   3.533  11.790
 2162W        W 5906   6.819   8.982   0.255
 2163W        W 5907   6.123   9.522   1.366
 2164W        W 5908   7.938   6.022   2.394
 2165W        W 5909   7.772   7.643  11.965
 2166W        W 5910   4.400   2.741   3.313
 2167W        W 5911   4.122   5.011   0.920
 2168W        W 5912   3.392   9.946   1.458
 2169W        W 5913   7.704   9.279   9.050
 2170W        W 5914  10.303   8.392   2.579
 2171W        W 5915   5.253   1.463   0.000
 2172W        W 5916   7.065   0.401  10.439
 2173W        W 5917   2.590   2.061   1.580
 2174W        W 5918   4.456   2.765   0.602
 2175W        W 5919   1.366   6.857  11.961
 2176W        W 5920   2.593   1.138   2.696
 2177W        W 5921   4.219   4.803   2.339
 2178W        W 5922   0.002   4.721   1.723
 2179W        W 5923   7.188  10.277   2.890
 2180W        W 5924   4.630   8.959  10.620
 2181W        W 5925   9.296   5.733   1.724
 2182W        W 5926   8.461   2.346   0.345
 2183W        W 5927   3.495   9.079   2.841
 2184W        W 5928   3.117   2.732   2.089
 2185W        W 5929  10.299   2.538   3.080
 2186W        W 5930   5.091   9.784   2.045
 2187W        W 5931  10.270   9.704  10.014
 2188W        W 5932   5.577   9.298   0.259
 2189W        W 5933   1.765   8.679   2.628
 2190W        W 5934   7.014   2.829   0.471
 2191W        W 5935   9.928   8.586   9.555
 2192W        W 5936   5.577   9.963   2.724
 2193W        W 5937   7.081   4.925   9.097
 2194W        W 5938   1.813   6.685  11.726
 2195W        W 5939   8.084   5.035  10.036
 2196W        W 5940   2.600   8.063   9.955
 2197W        W 5941   0.334   6.872   1.364
 2198W        W 5942   5.044   4.933  11.022
 2199W        W 5943   8.581   1.465  11.861
 2200W        W 5944   5.862   9.856  11.470
 2201W        W 5945   8.226   7.799   1.818
 2202W        W 5946   9.655   1.366   2.165
 2203W        W 5947   8.312   0.752   0.213
 2204W        W 5948   7.080  10.164   0.764
 2205W        W 5949   9.236   5.149   3.147
 2206W        W 5950   7.030   9.867  10.530
 2207W        W 5951   2.757   0.680   2.844
 2208W        W 5952   9.972   9.376  11.307
 2209W        W 5953   4.157   0.504   0.695
 2210W        W 5954   5.093   7.081  11.515
 2211W        W 5955   8.009   2.283   9.005
 2212W        W 5956   9.776   1.830   0.493
 2213W        W 5957   4.416   7.042   8.667
 2214W        W 5958   8.507   0.080   2.735
 2215W        W 5959   8.141   7.330   2.187
 2216W        W 5960   4.637   2.565  10.269
 2217W        W 5961   2.825   1.741   1.277
 2218W        W 5962   0.338   1.760  11.551
 2219W        W 5963   1.576   2.782  10.796
 2220W        W 5964   4.136   5.258   2.580
 2221W        W 5965   4.120   4.378  10.372
 2222W        W 5966   4.159   8.350   9.569
 2223W        W 5967   1.960   1.511   8.422
 2224W        W 5968   6.017   2.452  11.511
 2225W        W 5969   9.050   3.826   1.727
 2226W        W 5970  10.340  10.444   0.697
 2227W        W 5971   8.382   5.197   0.271
 2228W        W 5972   8.438   7.445   2.738
 2229W        W 5973   7.650   2.712   2.766
 2230W        W 5974   5.622   8.476   1.918
 2231W        W 5975   3.742   9.360   1.015
 2232W        W 5976   0.699   2.569  10.999
 2233W        W 5977   6.177   9.861   0.996
 2234W        W 5978   6.055  10.333   1.195
 2235W        W 5979   8.336   8.559  10.606
 2236W        W 5980   2.421   1.230  10.939
 2237W        W 5981   8.294  10.278   1.314
 2238W        W 5982  10.114   7.497   0.933
 2239W        W 5983   7.115   5.116   1.626
 2240W        W 5984   8.552   3.741  10.543
 2241W        W 5985   6.921   7.448  11.204
 2242W        W 5986   1.027   5.695  11.653
 2243W        W 5987   7.464   4.305   1.160
 2244W        W 5988   3.087   3.238  10.497
 2245W        W 5989   8.396   8.801  11.840
 2246W        W 5990   2.498   2.786  10.594
 2247W        W 5991   9.901   6.062  11.478
 2248W        W 5992   1.015   7.111   9.100
 2249W        W 5993   5.685   1.790  11.504
 2250W        W 5994   6.500   7.103   3.203
 2251W        W 5995   8.395   7.922   3.576
 2252W        W 5996   1.867   5.596   0.759
 2253W        W 5997   2.678   6.545   3.612
 2254W        W 5998   9.562   0.312   3.292
 2255W        W 5999   3.697   4.755   1.840
 2256W        W 6000   8.435   0.956   1.949
 2257W        W 6001   3.148   6.129   3.259
 2258W        W 6002   1.169   2.252  10.065
 2259W        W 6003   4.323   9.895   1.488
 2260W        W 6004   3.284   5.658   0.883
 2261W        W 6005   5.443   0.851  10.065
 2262W        W 6006   6.335   4.964   9.387
 2263W        W 6007   3.611   5.357  11.138
 2264W        W 6008   0.238   5.145   3.391
 2265W        W 6009   2.350   6.065   1.890
 2266W        W 6010   3.099   8.123   9.952
 2267W        W 6011   7.965   3.297   9.430
 2268W        W 6012   7.397   4.040  11.343
 2269W        W 6013   2.360   6.481   0.855
 2270W        W 6014   4.446   4.611   9.556
 2271W        W 6015   8.445   7.693  10.960
 2272W        W 6016   5.738   1.231   2.317
 2273W        W 6017   9.190   0.285  10.060
 2274W        W 6018   9.978   6.962   0.274
 2275W        W 6019   6.287   6.196  11.389
 2276W        W 6020   5.472   5.866  11.295
 2277W        W 6021   5.047   6.975   9.799
 2278W        W 6022   2.846   7.479  11.975
 2279W        W 6023   8.074   4.516   1.910
 2280W        W 6024   8.946   6.038   9.432
 2281W        W 6025   7.182   1.695   1.471
 2282W        W 6026  10.297   9.894   2.209
 2283W        W 6027   5.556   7.094   9.663
 2284W        W 6028   1.410   7.533   9.804
 2285W        W 6029   6.579   6.216  11.823
 2286W        W 6030   7.164   9.231  11.324
 2287W        W 6031   5.254   7.894  11.849
 2288W        W 6032   2.906   1.072   0.288
 2289W        W 6033   3.395   0.383  11.744
 2290W        W 6034   4.933   4.401   9.533
 2291W        W 6035  10.160   1.467   2.209
 2292W        W 6036   9.387   8.104  11.089
 2293W        W 6037   8.014   0.285   2.495
 2294W        W 6038   1.558   3.344  10.019
 2295W        W 6039   1.519   8.265   0.525
 2296W        W 6040   7.055   3.099   2.205
 2297W        W 6041   0.090   4.001  10.105
 2298W        W 6042   9.176   1.389   2.438
 2299W        W 6043   6.479   2.433   1.918
 2300W        W 6044   0.275   6.451   0.399
 2301W        W 6045   1.270   6.893   3.380
 2302W        W 6046   1.957  10.446   0.740
 2303W        W 6047   2.840   6.410   8.585
 2304W        W 6048   0.444   2.265   8.980
 2305W        W 6049   8.014   4.190   2.675
 2306W        W 6050   7.036   8.877   9.072
 2307W        W 6051   1.163   5.108   1.536
 2308W        W 6052   9.602  10.346  10.899
 2309W        W 6053   8.344  10.467   2.257
 2310W        W 6054   1.586   5.184   0.889
 2311W        W 6055   9.507   0.912   3.083
 2312W        W 6056   0.713   3.372   2.742
 2313W        W 6057   2.820   8.517   1.353
 2314W        W 6058   0.047   2.168   3.377
 2315W        W 6059   1.280   3.198  10.858
 2316W        W 6060   0.296   2.358  10.760
 2317W        W 6061   3.581   4.130   0.902
 2318W        W 6062   5.067   8.409  11.056
 2319W        W 6063   0.440   1.824   9.827
 2320W        W 6064   0.870   0.914  11.282
 2321W        W 6065   1.995   7.060   9.307
 2322W        W 6066   5.218   6.636  10.787
 2323W        W 6067   0.902   6.345   1.362
 2324W        W 6068   2.247  10.212  10.754
 2325W        W 6069   7.394   5.735   3.549
 2326W        W 6070   6.259   2.886  11.700
 2327W        W 6071   3.378   7.116   9.529
 2328W        W 6072   8.103   8.140   0.776
 2329W        W 6073   3.735   6.883  11.911
 2330W        W 6074   1.392   9.296   0.132
 2331W        W 6075   5.444   6.071   1.094
 2332W        W 6076   3.666   7.163  10.575
 2333W        W 6077  10.105   6.571  11.342
 2334W        W 6078   7.467   3.282  10.188
 2335W        W 6079   6.669   3.711   0.636
 2336W        W 6080   7.092   4.537   1.584
 2337W        W 6081   0.531   1.882  10.722
 2338W        W 6082   3.787   8.725   3.483
 2339W        W 6083   9.570   2.788   9.031
 2340W        W 6084   5.582   7.964   0.227
 2341W        W 6085   9.284   9.860   9.951
 2342W        W 6086   7.189   2.728   8.629
 2343W        W 6087   5.268   7.576   3.077
 2344W        W 6088   3.749   3.803  11.539
 2345W        W 6089   5.582   1.715   9.528
 2346W        W 6090   8.684   1.321   2.524
 2347W        W 6091   8.001   3.673   0.787
 2348W        W 6092   9.134   2.674   2.840
 2349W        W 6093  10.066   7.075   3.465
 2350W        W 6094   8.891   5.716  11.823
 2351W        W 6095   4.224   3.780   9.607
 2352W        W 6096   7.506   5.086   8.819
 2353W        W 6097   0.466   4.592   0.091
 2354W        W 6098   3.193   5.414  10.209
 2355W        W 6099   3.267   1.235   0.751
 2356W        W 6100   1.678   9.810   9.819
 2357W        W 6101   6.116   1.236   8.998
 2358W        W 6102   1.654   9.685  10.323
 2359W        W 6103   0.473   2.121  11.201
 2360W        W 6104   1.510  10.404   1.791
 2361W        W 6105   7.175   5.060   1.138
 2362W        W 6106   7.372   3.130   2.788
 2363W        W 6107   6.476   4.513  11.603
 2364W        W 6108   0.731   1.248  10.942
 2365W        W 6109   4.331   2.731   1.422
 2366W        W 6110   5.558   8.941   1.687
 2367W        W 6111   6.523   0.027   9.644
 2368W        W 6112   3.225   3.703   3.561
 2369W        W 6113   2.304   9.451  11.776
 2370W        W 6114  10.296   9.163   8.913
 2371W        W 6115   4.632   3.722   1.422
 2372W        W 6116   2.050   9.496   8.506
 2373W        W 6117   9.086   4.598   0.605
 2374W        W 6118   8.080   6.618   9.739
 2375W        W 6119   2.833   3.937   1.499
 2376W        W 6120  10.123   5.650   9.431
 2377W        W 6121   2.961   8.589  10.157
 2378W        W 6122   3.643   7.972  11.821
 2379W        W 6123   6.825   5.514   1.773
 2380W        W 6124   3.825   8.338   2.138
 2381W        W 6125   0.272   1.312  10.733
 2382W        W 6126   3.299   1.296  10.077
 2383W        W 6127   8.802   8.238   8.400
 2384W        W 6128   5.294   3.024   2.559
 2385W        W 6129  10.348   9.189  10.082
 2386W        W 6130   2.062   2.847   8.902
 2387W        W 6131   2.661   5.020   2.373
 2388W        W 6132   8.966   9.822   1.274
 2389W        W 6133   3.176   6.136   1.002
 2390W        W 6134   8.740   0.449   0.130
 2391W        W 6135   1.232   8.164   2.735
 2392W        W 6136   4.604   1.618   9.901
 2393W        W 6137   6.599   2.236   0.356
 2394W        W 6138   3.017   4.111   9.440
 2395W        W 6139   8.976   9.322  10.782
 2396W        W 6140   8.607   4.599   9.384
 2397W        W 6141   4.506  10.446   0.292
 2398W        W 6142   0.151   9.799  10.487
 2399W        W 6143   7.902   4.749  10.761
 2400W        W 6144   1.454   9.073   2.182
 2401W        W 6145   5.942   7.641  10.393
 2402W        W 6146   5.085   8.153   3.631
 2403W        W 6147   0.836   3.572   2.264
 2404W        W 6148   9.858   6.170  10.436
 2405W        W 6149   5.994   8.676  11.886
 2406W        W 6150   3.354   6.827  10.383
 2407W        W 6151   4.655   2.632  11.763
 2408W        W 6152   4.229   1.754   8.761
 2409W        W 6153   3.808   7.567   3.994
 2410W        W 6154   8.928   7.534   2.586
 2411W        W 6155   7.257   0.371   8.687
 2412W        W 6156  10.070   9.469   1.180
 2413W        W 6157   1.594   4.573   3.639
 2414W        W 6158   8.561   9.379  10.078
 2415W        W 6159   5.333   4.790   2.150
 2416W        W 6160   8.842  10.448  11.378
 2417W        W 6161   2.911   0.303   3.648
 2418W        W 6162   7.609   2.702   9.532
 2419W        W 6163   5.549   8.299  11.756
 2420W        W 6164  10.436   7.841   3.329
 2421W        W 6165   6.518   0.465  11.956
 2422W        W 6166   2.376   6.857   9.611
 2423W        W 6167   2.863   8.090   9.357
 2424W        W 6168   8.409   4.195   1.255
 2425W        W 6169   5.561   5.154  10.363
 2426W        W 6170   9.949   1.878   9.924
 2427W        W 6171   4.779   3.678   2.459
 2428W        W 6172  10.115   8.386   0.290
 2429W        W 6173   5.060   9.241   0.234
 2430W        W 6174   4.669   1.219  10.313
 2431W        W 6175   0.675   2.277   9.951
 2432W        W 6176   2.240   4.764   9.078
 2433W        W 6177   8.891   9.555   1.730
 2434W        W 6178   7.246   6.472   9.897
 2435W        W 6179   0.405   4.327   0.548
 2436W        W 6180   9.220   5.758   1.209
 2437W        W 6181   2.812   9.419   2.975
 2438W        W 6182   2.699   7.823   0.692
 2439W        W 6183   2.556   0.315  11.300
 2440W        W 6184   6.151   4.740  11.272
 2441W        W 6185   2.917   0.278   9.246
 2442W        W 6186   0.942   0.519   8.439
 2443W        W 6187   9.866   3.718   1.255
 2444W        W 6188   4.943   3.969   4.105
 2445W        W 6189   7.179   7.725  10.842
 2446W        W 6190   8.860   6.073   8.889
 2447W        W 6191   1.652   4.206  10.767
 2448W        W 6192   7.080   4.600   9.524
 2449W        W 6193   0.755   1.431   9.997
 2450W        W 6194   8.869   0.290   0.915
 2451W        W 6195  10.389   7.177   8.975
 2452W        W 6196   2.129   1.851  10.775
 2453W        W 6197   3.735   1.001   9.111
 2454W        W 6198   2.344   8.707   9.471
 2455W        W 6199   4.152   1.326   1.826
 2456W        W 6200   7.587   8.081   3.543
 2457W        W 6201   6.911   0.811   9.557
 2458W        W 6202   1.835   1.384   2.036
 2459W        W 6203   7.462   8.428  11.665
 2460W        W 6204   2.708   2.100   2.883
 2461W        W 6205  10.454  10.043  10.940
 2462W        W 6206   3.290   8.018   3.601
 2463W        W 6207   7.923   0.764   2.789
 2464W        W 6208   2.315   7.651   2.987
 2465W        W 6209   2.614   2.266   2.415
 2466W        W 6210  10.413   3.716   0.030
 2467W        W 6211   6.482   6.984   1.827
 2468W        W 6212   6.114  10.464   1.736
 2469W        W 6213   3.899   0.122   8.952
 2470W        W 6214   3.746   0.535   9.306
 2471W        W 6215   7.195   7.842   0.879
 2472W        W 6216   5.064   3.559   9.876
 2473W        W 6217   8.113   9.309  10.355
 2474W        W 6218   1.768   0.889   1.293
 2475W        W 6219   1.879   2.099  10.378
 2476W        W 6220   6.687   2.888   0.867
 2477W        W 6221   4.608   8.558  11.896
 2478W        W 6222  10.020   9.544   8.581
 2479W        W 6223   6.264   8.829  11.458
 2480W        W 6224   0.397   4.182   1.041
 2481W        W 6225   6.059   6.332   3.420
 2482W        W 6226   8.379   7.987   8.772
 2483W        W 6227   4.164   7.698   0.809
 2484W        W 6228   5.230  10.156  11.908
 2485W        W 6229  10.137   8.519   1.169
 2486W        W 6230   5.125   2.524  10.016
 2487W        W 6231   3.192  10.424   1.302
 2488W        W 6232   5.019   6.020  11.906
 2489W        W 6233   7.538   8.851   8.774
 2490W        W 6234   8.948   3.212   9.059
 2491W        W 6235   0.841   7.485  10.289
 2492W        W 6236   0.367   1.596  10.304
 2493W        W 6237   0.912   8.981   1.423
 2494W        W 6238  10.089   8.096   9.470
 2495W        W 6239   7.162   2.886  11.070
 2496W        W 6240   2.904   0.224   1.590
 2497W        W 6241   2.493   7.260   9.296
 2498W        W 6242   3.880   8.103   1.630
 2499W        W 6243   5.415   4.274   3.136
 2500W        W 6244   9.942   2.441  11.683
 2501W        W 6245   3.375   0.285   1.782
 2502W        W 6246   7.574   3.792  10.434
 2503W        W 6247   4.258   3.879  11.287
 2504W        W 6248   0.021   5.945   2.214
 2505W        W 6249   0.660   6.582  10.268
 2506W        W 6250   7.916   2.297   2.818
 2507W        W 6251   9.398   3.144   1.289
 2508W        W 6252   3.727   1.283   0.992
 2509W        W 6253   4.595   7.993   3.594
 2510W        W 6254   1.203   5.329  10.288
 2511W        W 6255   5.721   9.890   1.305
 2512W        W 6256   0.721   7.446   2.239
 2513W        W 6257   7.917  10.029  11.051
 2514W        W 6258   9.430   7.652  10.183
 2515W        W 6259   5.677   4.511   9.153
 2516W        W 6260   8.025   1.805   1.963
 2517W        W 6261   7.825   7.055   0.868
 2518W        W 6262   8.059   0.276   2.989
 2519W        W 6263   9.359   2.814   0.490
 2520W        W 6264   2.132   7.416   1.720
 2521W        W 6265   4.148   8.634   0.859
 2522W        W 6266   8.912   5.972  10.965
 2523W        W 6267   9.598  10.030   3.788
 2524W        W 6268   9.996   4.457   1.670
 2525W        W 6269   2.397   5.325   1.462
 2526W        W 6270  10.053   4.882  11.814
 2527W        W 6271   8.123   2.460   1.428
 2528W        W 6272   9.149   3.695   9.160
 2529W        W 6273   6.275   2.894   1.166
 2530W        W 6274  10.286   1.285   9.982
 2531W        W 6275  10.432   2.434   1.937
 2532W        W 6276   6.483   2.757   2.767
 2533W        W 6277   8.297   7.157   9.145
 2534W        W 6278   9.963  10.337   2.698
 2535W        W 6279   0.816   6.817   1.167
 2536W        W 6280   3.264   0.225  10.036
 2537W        W 6281   2.130   2.738   3.408
 2538W        W 6282   4.059   5.278   0.471
 2539W        W 6283   6.221   6.934   9.087
 2540W        W 6284   2.867   4.166   9.924
 2541W        W 6285   3.201   9.688   9.905
 2542W        W 6286   5.950   6.630  11.299
 2543W        W 6287   8.154   4.038  11.830
 2544W        W 6288   7.233   5.588   1.188
 2545W        W 6289   0.919   9.152   9.433
 2546W        W 6290   5.227   0.273   1.934
 2547W        W 6291   6.235   1.238  10.045
 2548W        W 6292   7.861   5.443   1.759
 2549W        W 6293   7.438   8.106   3.055
 2550W        W 6294   5.458   7.834   3.723
 2551W        W 6295   7.038   6.078   0.044
 2552W        W 6296   1.893   4.252   9.853
 2553W        W 6297   4.985   2.919   8.561
 2554W        W 6298   3.151   3.464   3.087
 2555W        W 6299   9.327   9.293   3.382
 2556W        W 6300   6.259   4.964   2.131
 2557W        W 6301   4.504   7.703  11.452
 2558W        W 6302   9.010   4.507  11.042
 2559W        W 6303   8.560   9.296  11.131
 2560W        W 6304   5.973   3.501   9.867
 2561W        W 6305  10.386   0.324   3.140
 2562W        W 6306   3.565   2.251   8.750
 2563W        W 6307   8.141   9.317  11.520
 2564W        W 6308   4.724   8.368   0.405
 2565W        W 6309   8.960   1.500   1.577
 2566W        W 6310   6.936   0.782  10.925
 2567W        W 6311   4.592   6.649   9.081
 2568W        W 6312   9.122   3.445   2.073
 2569W        W 6313   8.492   7.396   0.328
 2570W        W 6314   4.673   9.067  10.107
 2571W        W 6315   1.722   6.501   3.494
 2572W        W 6316   5.195   1.301   2.483
 2573W        W 6317   3.620   8.393  10.882
 2574W        W 6318   5.618   1.705   0.548
 2575W        W 6319   3.827   7.490   9.767
 2576W        W 6320   5.649   5.159   1.300
 2577W        W 6321   9.424   7.896   2.085
 2578W        W 6322   7.219   1.387   9.768
 2579W        W 6323   8.518   6.695  10.008
 2580W        W 6324   9.700   9.974   2.933
 2581W        W 6325   4.063   1.527  11.554
 2582W        W 6326   0.745   6.121   9.883
 2583W        W 6327   1.375   8.505  11.090
 2584W        W 6328   3.332   1.463  10.594
 2585W        W 6329  10.488   0.004   9.709
 2586W        W 6330   2.659   4.926   3.588
 2587W        W 6331   5.766   0.787  10.500
 2588W        W 6332   0.778   4.350   1.753
 2589W        W 6333   6.011   7.314   9.565
 2590W        W 6334   0.854   4.657   8.684
 2591W        W 6335   4.592   8.466  11.362
 2592W        W 6336   2.219   3.196  10.689
 2593W        W 6337   6.647   8.344   1.847
 2594W        W 6338   0.367   5.728   9.981
 2595W        W 6339   9.632   5.371   0.452
 2596W        W 6340   9.805   3.064   0.071
 2597W        W 6341   4.310   9.528  11.840
 2598W        W 6342   1.698   3.664  10.395
 2599W        W 6343   0.461   0.487   0.354
 2600W        W 6344   1.744   5.720   8.750
 2601W        W 6345  10.210   2.798  11.958
 2602W        W 6346   5.796   2.494   9.967
 2603W        W 6347   6.586   2.945   1.922
 2604W        W 6348   6.486   3.920  10.342
 2605W        W 6349   7.449   2.282   8.783
 2606W        W 6350   6.493  10.372  10.131
 2607W        W 6351   2.229   9.662   9.252
 2608W        W 6352   4.684   6.408   1.309
 2609W        W 6353   3.614  10.404  10.302
 2610W        W 6354   2.959   5.677   3.110
 2611W        W 6355   6.274  10.273   3.252
 2612W        W 6356   9.419   3.088   2.781
 2613W        W 6357   8.049   1.781   8.812
 2614W        W 6358   8.951   9.516   9.793
 2615W        W 6359   9.456   2.197   1.729
 2616W        W 6360   8.426   0.216   8.829
 2617W        W 6361   5.385   9.567   9.823
 2618W        W 6362   6.996   2.195   3.258
 2619W        W 6363   7.895   3.877  11.374
 2620W        W 6364   1.135   1.413  11.206
 2621W        W 6365   7.077   5.030  11.803
 2622W        W 6366   8.305   7.107   1.233
 2623W        W 6367   4.218   6.551   1.100
 2624W        W 6368   2.740   9.893  10.027
 2625W        W 6369   5.455   7.620   1.609
 2626W        W 6370   7.105   5.734  10.234
 2627W        W 6371   8.428   0.730   8.746
 2628W        W 6372   7.250   9.278   9.278
 2629W        W 6373   6.056   1.988  11.216
 2630W        W 6374   7.326   5.189  10.248
 2631W        W 6375   2.043   9.928   0.664
 2632W        W 6376   9.966   9.308  11.872
 2633W        W 6377   4.598   0.675  10.646
 2634W        W 6378   9.853   9.491  10.800
 2635W        W 6379   9.497   1.787   2.433
 2636W        W 6380   9.581   0.491   9.186
 2637W        W 6381   5.202   1.939  10.269
 2638W        W 6382   2.791   9.300   2.473
 2639W        W 6383   1.149   0.985   0.740
 2640W        W 6384   5.934   3.011   9.013
 2641W        W 6385   6.517  10.170  11.594
 2642W        W 6386   6.968   8.515  10.698
 2643W        W 6387   0.362   2.672  10.049
 2644W        W 6388   2.441   9.539   0.611
 2645W        W 6389   0.522   7.398  10.969
 2646W        W 6390   3.761   0.409   2.530
 2647W        W 6391   5.233   5.046  11.860
 2648W        W 6392   3.715   6.733   9.699
 2649W        W 6393   9.759   6.626   9.487
 2650W        W 6394   0.036   3.394   0.824
 2651W        W 6395   9.463   9.868  10.727
 2652W        W 6396   2.231  10.437  10.273
 2653W        W 6397   0.196   3.349  11.038
 2654W        W 6398   6.110   1.113   2.739
 2655W        W 6399   2.839   6.063   1.434
 2656W        W 6400   5.676   0.082   0.912
 2657W        W 6401   8.956   4.751   2.900
 2658W        W 6402   8.507   4.138   2.847
 2659W        W 6403   3.642   7.103  10.048
 2660W        W 6404   5.240   6.498   9.869
 2661W        W 6405   6.133   7.700   0.078
 2662W        W 6406   7.570   3.929   2.544
 2663W        W 6407   6.079   1.477   0.522
 2664W        W 6408   4.624   8.358   2.125
 2665W        W 6409   7.067   4.829   2.035
 2666W        W 6410   7.963   7.632   3.639
 2667W        W 6411   8.507   3.396   0.489
 2668W        W 6412   5.536   6.484  10.434
 2669W        W 6413   6.343   8.174   8.693
 2670W        W 6414   9.288   4.285   1.856
 2671W        W 6415   4.486   3.228   1.423
 2672W        W 6416   4.219   8.049  10.784
 2673W        W 6417   9.449   6.738   3.042
 2674W        W 6418   1.467   1.945   0.738
 2675W        W 6419   9.734   9.033   1.829
 2676W        W 6420   6.779   8.283   8.412
 2677W        W 6421  10.300   2.742  11.449
 2678W        W 6422   1.837   0.392   0.497
 2679W        W 6423   8.873   5.498   1.891
 2680W        W 6424   0.251   1.312  11.765
 2681W        W 6425   1.633   4.154   2.670
 2682W        W 6426   8.488   4.578   1.635
 2683W        W 6427   6.672   4.461  10.566
 2684W        W 6428   6.683   3.140  11.540
 2685W        W 6429   7.656   0.485   1.237
 2686W        W 6430   9.866   9.130  10.422
 2687W        W 6431  10.348   2.592  10.967
 2688W        W 6432   4.488   5.589   0.376
 2689W        W 6433   1.411   6.007   1.651
 2690W        W 6434   2.209   1.302   0.681
 2691W        W 6435   3.746   1.901   9.551
 2692W        W 6436   9.670   1.824   2.934
 2693W        W 6437   8.380   5.700  11.580
 2694W        W 6438   9.840   1.680   8.784
 2695W        W 6439   0.257   5.094   8.794
 2696W        W 6440   0.308   4.900  10.543
 2697W        W 6441   5.875   7.579   3.857
 2698W        W 6442   8.493   7.576   1.352
 2699W        W 6443   9.248   8.104   9.733
 2700W        W 6444   1.066   7.663   2.692
 2701W        W 6445   4.195   8.913   1.708
 2702W        W 6446   8.816   0.554   1.923
 2703W        W 6447   0.812   9.476  10.029
 2704W        W 6448   4.978   3.987   3.224
 2705W        W 6449   7.441   5.535  11.490
 2706W        W 6450   1.154   4.322  10.353
 2707W        W 6451   2.328   2.702  11.960
 2708W        W 6452   4.521   6.558   0.293
 2709W        W 6453   0.392   9.805   1.258
 2710W        W 6454   2.262   7.188   3.226
 2711W        W 6455   9.746   6.476  11.715
 2712W        W 6456   7.888   8.456   9.252
 2713W        W 6457   7.525   4.747   2.260
 2714W        W 6458   4.366   4.195   9.923
 2715W        W 6459   5.825   9.316   9.622
 2716W        W 6460   8.623   9.377  11.629
 2717W        W 6461   3.109   1.527   0.340
 2718W        W 6462   9.447   6.223  11.241
 2719W        W 6463   9.181   0.714   9.414
 2720W        W 6464   8.365   3.310  10.272
 2721W        W 6465   1.837   0.669  10.341
 2722W        W 6466   3.508   6.919   0.711
 2723W        W 6467   1.392   5.605  11.985
 2724W        W 6468   8.838   7.145   0.624
 2725W        W 6469   0.360   0.241  10.411
 2726W        W 6470   8.610   4.786  11.858
 2727W        W 6471   2.657   9.793   1.728
 2728W        W 6472   7.898   5.288   8.484
 2729W        W 6473  10.335   5.249  11.596
 2730W        W 6474   7.335   6.937   9.158
 2731W        W 6475   2.074  10.280   2.113
 2732W        W 6476   8.566   7.827  10.135
 2733W        W 6477   1.919   6.190   1.582
 2734W        W 6478   6.355   0.675   2.714
 2735W        W 6479   3.244   9.492   2.643
 2736W        W 6480   5.829   4.524   0.871
 2737W        W 6481   0.407  10.373   0.248
 2738W        W 6482   6.189   1.649   1.885
 2739W        W 6483   1.863   8.574   9.290
 2740W        W 6484   6.581  10.311  11.119
 2741W        W 6485   9.253   2.369   0.858
 2742W        W 6486   3.209   0.973  10.473
 2743W        W 6487   1.504   0.996   2.088
 2744W        W 6488   8.717   8.169   9.782
 2745W        W 6489   6.110   4.295  10.981
 2746W        W 6490   3.789   7.674  11.440
 2747W        W 6491   0.484   1.866   0.043
 2748W        W 6492   8.013   3.173   8.893
 2749W        W 6493   7.020   9.173   1.035
 2750W        W 6494   7.497   0.542   2.982
 2751W        W 6495  10.463   4.666   9.985
 2752W        W 6496   9.401   9.369   9.963
 2753W        W 6497   7.462   0.161  11.348
 2754W        W 6498   7.837   6.980   1.395
 2755W        W 6499  10.312   1.215  10.952
 2756W        W 6500   5.148   1.339  10.505
 2757W        W 6501   3.057  10.258   9.153
 2758W        W 6502   0.983   7.048   8.562
 2759W        W 6503   7.109   8.845   0.644
 2760W        W 6504   2.291   8.855   1.524
 2761W        W 6505  10.291   6.083   3.479
 2762W        W 6506   0.354   0.918   0.086
 2763W        W 6507  10.348   4.105  10.557
 2764W        W 6508   8.587   2.633   1.185
 2765W        W 6509   8.401   0.223   9.712
 2766W        W 6510   0.655   7.343   9.344
 2767W        W 6511   8.370   5.530   1.739
 2768W        W 6512   8.736   4.162   9.098
 2769W        W 6513   0.816   3.720   9.350
 2770W        W 6514   6.186   4.429   2.123
 2771W        W 6515   8.382   6.541  11.456
 2772W        W 6516   2.579   4.759  11.272
 2773W        W 6517   9.944   6.937   1.877
 2774W        W 6518   8.286   9.630   0.406
 2775W        W 6519   3.421   3.221  10.095
 2776W        W 6520   0.072   5.991   1.293
 2777W        W 6521   2.011   8.261   0.378
 2778W        W 6522  10.421   6.434   1.513
 2779W        W 6523   6.832   5.315  10.177
 2780W        W 6524   2.662   5.989   0.956
 2781W        W 6525   7.480   5.892  10.786
 2782W        W 6526   6.157   9.993   1.552
 2783W        W 6527   9.133   1.796   2.810
 2784W        W 6528   8.610   5.065   1.738
 2785W        W 6529   0.200   8.595   2.817
 2786W        W 6530   8.341   9.728  11.329
 2787W        W 6531   5.722   7.098   9.173
 2788W        W 6532   7.240   1.858  10.002
 2789W        W 6533   6.159   8.661  10.523
 2790W        W 6534   1.714   5.997   3.518
 2791W        W 6535   5.921   4.116   3.086
 2792W        W 6536   7.023   0.703   0.716
 2793W        W 6537   2.502   8.270   0.540
 2794W        W 6538   9.763   5.916   1.844
 2795W        W 6539   8.376   9.106   3.451
 2796W        W 6540   8.537   2.861  10.484
 2797W        W 6541   3.270   3.208   8.571
 2798W        W 6542   3.111   2.251  11.110
 2799W        W 6543   9.049   1.229   8.728
 2800W        W 6544   8.902   7.023   1.899
 2801W        W 6545   0.220   3.090  10.384
 2802W        W 6546  10.395   8.219   2.097
 2803W        W 6547   2.209   6.395  11.601
 2804W        W 6548  10.433   6.048   9.444
 2805W        W 6549   3.076   2.387   0.117
 2806W        W 6550   3.885   3.343   0.525
 2807W        W 6551   5.572   3.303  11.610
 2808W        W 6552   8.557   8.600   2.824
 2809W        W 6553   8.778  10.335   8.950
 2810W        W 6554   1.908   8.062   1.788
 2811W        W 6555   5.294   9.562   3.397
 2812W        W 6556   3.872   2.334   9.801
 2813W        W 6557   4.536   7.932   0.573
 2814W        W 6558   8.141   1.714  10.333
 2815W        W 6559   9.820   0.526  10.329
 2816W        W 6560   9.869   0.963  10.056
 2817W        W 6561   6.039   2.758   8.431
 2818W        W 6562   7.967   8.880   1.214
 2819W        W 6563   1.258   4.274   3.445
 2820W        W 6564   6.045   0.013   0.228
 2821W        W 6565   9.962   7.458  10.107
 2822W        W 6566   1.126   9.012   0.975
 2823W        W 6567   8.344   0.038   0.836
 2824W        W 6568   3.141   5.259   1.489
 2825W        W 6569   1.896   3.725   1.823
 2826W        W 6570   8.462   6.069   1.687
 2827W        W 6571   0.022   0.206   0.284
 2828W        W 6572   0.096   1.145   8.518
 2829W        W 6573   7.631   1.093  10.357
 2830W        W 6574   7.806   6.194   1.014
 2831W        W 6575   4.081   9.015   1.222
 2832W        W 6576  10.090   2.662   0.853
 2833W        W 6577   9.492   8.895   0.516
 2834W        W 6578   1.052   5.194   9.371
 2835W        W 6579   5.952   8.820   9.863
 2836W        W 6580   9.401   2.317   0.371
 2837W        W 6581   8.022   6.177   8.789
 2838W        W 6582   7.191   5.474  10.649
 2839W        W 6583   8.355   5.412   3.562
 2840W        W 6584   0.314   9.953  11.916
 2841W        W 6585   9.336   5.357   9.696
 2842W        W 6586   3.316   1.358   9.053
 2843W        W 6587   1.030   4.813   1.964
 2844W        W 6588   8.546   6.187   3.149
 2845W        W 6589   9.396   6.300   9.310
 2846W        W 6590   6.943  10.442   0.303
 2847W        W 6591  10.493   0.757   2.321
 2848W        W 6592   6.677   7.819  11.947
 2849W        W 6593   5.302   1.433  11.504
 2850W        W 6594   6.245   8.856   2.926
 2851W        W 6595   1.402   0.968  10.022
 2852W        W 6596   7.919   2.177   2.327
 2853W        W 6597   1.019   5.847   0.321
 2854W        W 6598   8.672   0.025   0.455
 2855W        W 6599   4.638   8.931   9.607
 2856W        W 6600   5.550   3.215   0.158
 2857W        W 6601   1.848   6.773  11.205
 2858W        W 6602   4.146   6.376   0.604
 2859W        W 6603   3.460  10.047  11.999
 2860W        W 6604   2.606   4.104  10.410
 2861W        W 6605   5.274   8.683   3.765
 2862W        W 6606   0.462   8.928   2.062
 2863W        W 6607   1.321   2.027  11.844
 2864W        W 6608   0.418   7.184   2.874
 2865W        W 6609   3.222   1.814   9.856
 2866W        W 6610   7.258   0.397   9.953
 2867W        W 6611   4.735   3.131  10.242
 2868W        W 6612   4.556   9.428   9.570
 2869W        W 6613   8.518   4.444   3.626
 2870W        W 6614   8.590   3.865   0.047
 2871W        W 6615   9.305   1.745   3.317
 2872W        W 6616   3.046   2.659   1.077
 2873W        W 6617   1.300  10.373   9.256
 2874W        W 6618   6.641   5.665   0.928
 2875W        W 6619   4.415   5.830  11.406
 2876W        W 6620   7.956   8.162  10.829
 2877W        W 6621   1.397   4.746  11.827
 2878W        W 6622   1.843   9.933   1.127
 2879W        W 6623   3.001   9.164  11.867
 2880W        W 6624   8.811   9.513   0.281
 2881W        W 6625   4.179   7.418  10.129
 2882W        W 6626   8.507   1.316  10.443
 2883W        W 6627   3.018   0.055   2.093
 2884W        W 6628   0.433   7.102   1.927
 2885W        W 6629   9.288   9.299   1.939
 2886W        W 6630   7.422   0.095   1.470
 2887W        W 6631   1.119   8.291   1.904
 2888W        W 6632   5.046   8.733   9.316
 2889W        W 6633   4.587   9.098  11.984
 2890W        W 6634   1.491   9.331   1.153
 2891W        W 6635   2.767   9.495   9.240
 2892W        W 6636   5.934   7.984   8.965
 2893W        W 6637   7.846   9.754  10.433
 2894W        W 6638   6.188   4.218   0.716
 2895W        W 6639   3.327   0.457  10.486
 2896W        W 6640   8.288   2.337   1.975
 2897W        W 6641   4.621   2.643   1.895
 2898W        W 6642  10.156   5.217   0.499
 2899W        W 6643   6.754   1.654  10.558
 2900W        W 6644   2.118   2.177   1.437
 2901W        W 6645   8.355   6.940  11.795
 2902W        W 6646   6.883   6.598  10.302
 2903W        W 6647   8.060   5.221  10.951
 2904W        W 6648   8.775   5.708   1.457
 2905W        W 6649   4.061   4.678  11.648
 2906W        W 6650   6.015   5.298   9.627
 2907W        W 6651   9.866   4.180  11.397
 2908W        W 6652   4.306   3.099   9.964
 2909W        W 6653   1.598   4.556  11.153
 2910W        W 6654   2.401   4.324   3.331
 2911W        W 6655   7.116   6.900  11.213
 2912W        W 6656   5.617   4.225   2.660
 2913W        W 6657   2.827   9.322   0.869
 2914W        W 6658   3.039   4.736   1.172
 2915W        W 6659  10.327   3.481   1.283
 2916W        W 6660   4.884   8.651   2.503
 2917W        W 6661   5.209   0.490   0.259
 2918W        W 6662   8.164   3.731   8.010
 2919W        W 6663   7.885   6.895   3.514
 2920W        W 6664   2.716   9.452   9.742
 2921W        W 6665  10.177   5.965  10.759
 2922W        W 6666   9.804   5.621   2.650
 2923W        W 6667   5.139   7.523   9.578
 2924W        W 6668   3.592   4.005   9.412
 2925W        W 6669   1.113   0.110  11.708
 2926W        W 6670   1.666  10.232   0.367
 2927W        W 6671  10.466   7.368  10.070
 2928W        W 6672   7.683   6.548   9.042
 2929W        W 6673   8.313   5.807   1.270
 2930W        W 6674   4.591   6.287  11.866
 2931W        W 6675   3.396   4.529  11.102
 2932W        W 6676  10.001   1.384   9.163
 2933W        W 6677   0.186   5.265  10.209
 2934W        W 6678   0.986   1.624  10.708
 2935W        W 6679   1.680   7.444   1.976
 2936W        W 6680   0.200   0.394  10.884
 2937W        W 6681   7.015   4.869   0.706
 2938W        W 6682   6.831   8.834   1.866
 2939W        W 6683   4.550   8.541   9.284
 2940W        W 6684   7.515   4.771   1.391
 2941W        W 6685   4.186   8.293   0.493
 2942W        W 6686   5.128   3.203  11.867
 2943W        W 6687   4.689   5.963   1.741
 2944W        W 6688   8.644   8.100   9.243
 2945W        W 6689   0.169   4.444  10.395
 2946W        W 6690   6.379   2.029  10.527
 2947W        W 6691   0.221   7.986   0.746
 2948W        W 6692   9.813   0.385  11.306
 2949W        W 6693   8.471   7.450  10.499
 2950W        W 6694   1.185   5.199  11.745
 2951W        W 6695   6.550   3.756   2.325
 2952W        W 6696   5.204   7.398   2.614
 2953W        W 6697   3.864   1.274  11.955
 2954W        W 6698   2.532   6.665   0.403
 2955W        W 6699   5.538   8.067   2.213
 2956W        W 6700   5.101   8.357   0.023
 2957W        W 6701   0.538   1.367   3.231
 2958W        W 6702   6.259   2.127  10.038
 2959W        W 6703   8.111   5.517   2.211
 2960W        W 6704   4.257   4.812   0.375
 2961W        W 6705   1.320   2.811   1.938
 2962W        W 6706   0.274   4.246   3.303
 2963W        W 6707   5.277   3.503  11.207
 2964W        W 6708   1.977   8.253  10.620
 2965W        W 6709   5.709   2.103  10.282
 2966W        W 6710   9.042   1.217   9.255
 2967W        W 6711   9.279   7.892  10.637
 2968W        W 6712   7.809   6.022   3.645
 2969W        W 6713   4.235   2.092  10.229
 2970W        W 6714   0.567   8.526   1.294
 2971W        W 6715   8.545   5.097   0.780
 2972W        W 6716   8.831   1.998   8.294
 2973W        W 6717   4.069   3.227  10.788
 2974W        W 6718   4.165   6.101  10.153
 2975W        W 6719   2.239   7.890   8.789
 2976W        W 6720   0.428   4.678   3.543
 2977W        W 6721   1.699   9.451   2.461
 2978W        W 6722   3.778   1.387   9.861
 2979W        W 6723   9.755   8.461   3.317
 2980W        W 6724   0.893   3.220   9.485
 2981W        W 6725   7.028   4.066   1.327
 2982W        W 6726   0.710   2.804   9.201
 2983W        W 6727   5.131   4.034   2.738
 2984W        W 6728   3.001   6.898   0.637
 2985W        W 6729   4.017   6.866   0.735
 2986W        W 6730   9.094   4.642   9.342
 2987W        W 6731   3.736   5.771   9.469
 2988W        W 6732   5.524   4.294   8.703
 2989W        W 6733   7.883   2.620   3.233
 2990W        W 6734   1.709   1.664  10.549
 2991W        W 6735   3.663   7.150  11.462
 2992W        W 6736   8.671   2.308   3.471
 2993W        W 6737   6.981   0.461  11.355
 2994W        W 6738   2.414   8.374  10.381
 2995W        W 6739   1.650   3.555   0.304
 2996W        W 6740   3.189   6.439   8.999
 2997W        W 6741  10.362   4.194  11.228
 2998W        W 6742   5.169   2.341   3.671
 2999W        W 6743   4.255   3.359   3.205
 3000W        W 6744   3.608   5.905  11.833
 3001W        W 6745   9.514   4.089   0.844
 3002W        W 6746   6.202   5.719   0.548
 3003W        W 6747   0.933   3.329  11.805
 3004W        W 6748   2.723   4.954   1.509
 3005W        W 6749   0.898   7.088  11.112
 3006W        W 6750   3.234   5.916  10.097
 3007W        W 6751   8.543   1.832   1.923
 3008W        W 6752   6.628   9.809   1.502
 3009W        W 6753   7.107  10.406   9.912
 3010W        W 6754   5.011   9.348  11.740
 3011W        W 6755   4.240   7.037   1.965
 3012W        W 6756   7.831   9.646   0.772
 3013W        W 6757   7.109   8.566   8.672
 3014W        W 6758  10.032   5.717   0.406
 3015W        W 6759  10.050   3.519   8.432
 3016W        W 6760   1.097   3.332   3.118
 3017W        W 6761   4.244   6.170   1.473
 3018W        W 6762   4.731   7.481   0.475
 3019W        W 6763   0.964   5.580   8.954
 3020W        W 6764   5.704   0.388  10.973
 3021W        W 6765   5.540   0.981  11.814
 3022W        W 6766   8.020   8.885   9.004
 3023W        W 6767   6.038  10.316   8.992
 3024W        W 6768   1.449   0.224   0.198
 3025W        W 6769   9.746   1.398   1.239
 3026W        W 6770   8.559   5.244   2.232
 3027W        W 6771   2.666   6.054   3.438
 3028W        W 6772   4.661   3.111   9.195
 3029W        W 6773   9.905   5.243   1.269
 3030W        W 6774   5.211   0.281   0.741
 3031W        W 6775   2.852   1.762   9.039
 3032W        W 6776   5.175   5.579  10.976
 3033W        W 6777   2.696   3.060   2.633
 3034W        W 6778   9.609   2.261   3.456
 3035W        W 6779   8.930   6.505   9.216
 3036W        W 6780   1.023   9.558   0.343
 3037W        W 6781   6.476   9.965   0.111
 3038W        W 6782   4.524   4.481  11.682
 3039W        W 6783   1.779   5.882   1.208
 3040W        W 6784   5.994   8.860   9.357
 3041W        W 6785   7.556   9.610   9.505
 3042W        W 6786   3.734   6.996   1.181
 3043W        W 6787   7.031   4.054   0.796
 3044W        W 6788   8.033   5.029   2.071
 3045W        W 6789   8.431   0.278  10.472
 3046W        W 6790   6.537   4.044  10.845
 3047W        W 6791   4.618   0.853   8.591
 3048W        W 6792   8.926   1.786  11.667
 3049W        W 6793  10.159   7.485   3.090
 3050W        W 6794   3.193   4.950   3.153
 3051W        W 6795   5.927   3.615   3.262
 3052W        W 6796   1.494   7.578  10.817
 3053W        W 6797   0.441   2.251  11.698
 3054W        W 6798   4.706   9.594   1.348
 3055W        W 6799   8.061   3.408  11.303
 3056W        W 6800   5.180   7.499   9.054
 3057W        W 6801   2.182  10.330   1.196
 3058W        W 6802   1.962   5.156   1.733
 3059W        W 6803   9.078   5.020  10.949
 3060W        W 6804   4.613   2.523   1.030
 3061W        W 6805   1.929   3.169  11.510
 3062W        W 6806   3.786   6.249  11.489
 3063W        W 6807  10.343   1.746   9.620
 3064W        W 6808   1.271   3.896  10.610
 3065W        W 6809   9.449   5.523  10.157
 3066W        W 6810  10.028   5.662   3.187
 3067W        W 6811   6.641   6.146   2.289
 3068W        W 6812   3.797   7.115   8.855
 3069W        W 6813   3.118   6.370  11.318
 3070W        W 6814   1.843   5.020   8.877
 3071W        W 6815   2.593   3.702  10.107
 3072W        W 6816   7.881   9.884   8.764
 3073W        W 6817   4.285   8.419  10.429
 3074W        W 6818   0.706   7.873  10.951
 3075W        W 6819  10.478   6.945   9.795
 3076W        W 6820   4.205   9.408   1.601
 3077W        W 6821   2.037   0.280  11.385
 3078W        W 6822   8.158   2.911   1.176
 3079W        W 6823   2.045   8.534   1.821
 3080W        W 6824   1.178   1.317  10.328
 3081W        W 6825   7.459   6.644   2.469
 3082W        W 6826   7.507   0.879   8.508
 3083W        W 6827   6.743   1.794   1.266
 3084W        W 6828   0.204   6.994   9.334
 3085W        W 6829   2.807   1.266   9.319
 3086W        W 6830   7.491   4.091   0.260
 3087W        W 6831   2.570   2.778   8.992
 3088W        W 6832   4.319   0.912   3.239
 3089W        W 6833   7.475   5.533   0.383
 3090W        W 6834   3.335   7.501   9.884
 3091W        W 6835   4.859   0.377   8.632
 3092W        W 6836   0.511   9.457   9.187
 3093W        W 6837   3.541   8.662  11.305
 3094W        W 6838   6.505   0.021   0.979
 3095W        W 6839  10.258   5.172   9.273
 3096W        W 6840   2.582   1.453   0.369
 3097W        W 6841   7.238   7.463   9.915
 3098W        W 6842   3.827   6.591   2.689
 3099W        W 6843   3.328   1.775   1.251
 3100W        W 6844   7.517   0.149   0.328
 3101W        W 6845   6.462   5.515   9.474
 3102W        W 6846   9.171   5.864   2.241
 3103W        W 6847   4.494   9.886   3.199
 3104W        W 6848   5.944   7.594  11.293
 3105W        W 6849   6.696   3.424  10.278
 3106W        W 6850   9.714   1.401   3.257
 3107W        W 6851   6.752   2.778  11.945
 3108W        W 6852   3.145   6.088  10.890
 3109W        W 6853   7.393   0.035   9.497
 3110W        W 6854   1.921   4.459   2.397
 3111W        W 6855   5.720   5.606   9.956
 3112W        W 6856   6.490   6.356   2.726
 3113W        W 6857   3.456   0.083   9.253
 3114W        W 6858   8.531   9.087   2.992
 3115W        W 6859   0.782   0.579   3.683
 3116W        W 6860   9.464   4.666   8.995
 3117W        W 6861   3.981   2.951   3.126
 3118W        W 6862   2.216   9.057   0.765
 3119W        W 6863   2.283   1.969   9.143
 3120W        W 6864   2.890   9.505  10.631
 3121W        W 6865   1.374   9.963   8.958
 3122W        W 6866   9.048   7.504   2.087
 3123W        W 6867   7.426   1.477   3.205
 3124W        W 6868   9.032   2.219   9.060
 3125W        W 6869   0.768   6.357   9.395
 3126W        W 6870   0.037  10.456  10.695
 3127W        W 6871   9.756   7.235   2.237
 3128W        W 6872   2.562   7.655   1.943
 3129W        W 6873   5.931   2.524   8.872
 3130W        W 6874   2.728   9.519   0.168
 3131W        W 6875   4.224   8.210   2.398
 3132W        W 6876   9.866   3.292   2.999
 3133W        W 6877   3.790   9.461  10.805
 3134W        W 6878   0.247   4.444  11.492
 3135W        W 6879   6.579   4.636   9.694
 3136W        W 6880   7.476  10.436   1.933
 3137W        W 6881   0.139   0.441  11.843
 3138W        W 6882   6.476   3.099  11.059
 3139W        W 6883   0.054   9.468   0.861
 3140W        W 6884   8.315   8.396   9.534
 3141W        W 6885   3.765   6.490  10.154
 3142W        W 6886   7.333   5.611   1.692
 3143W        W 6887   1.572   8.872   8.552
 3144W        W 6888   8.440   1.656  11.416
 3145W        W 6889   1.770   3.654  11.431
 3146W        W 6890   6.242   1.512   0.018
 3147W        W 6891   2.710   6.970   2.455
 3148W        W 6892   0.034   1.853  10.616
 3149W        W 6893   7.192   6.141   8.560
 3150W        W 6894   8.822   7.023  10.265
 3151W        W 6895   0.803   6.815   1.666
 3152W        W 6896   7.586  10.215   0.624
 3153W        W 6897   5.327   3.819   8.633
 3154W        W 6898   9.459   0.066  10.458
 3155W        W 6899   2.306   8.135   2.574
 3156W        W 6900   1.640   8.595   2.132
 3157W        W 6901   8.206   2.600  11.980
 3158W        W 6902   4.673   5.215  10.326
 3159W        W 6903   0.042   0.845  10.680
 3160W        W 6904   9.915   4.469   0.793
 3161W        W 6905   0.965   6.610   0.735
 3162W        W 6906   7.396   9.496  10.575
 3163W        W 6907   5.160  10.270   2.025
 3164W        W 6908  10.416   6.417   2.027
 3165W        W 6909   3.025   1.885  11.950
 3166W        W 6910   4.840   3.369   8.812
 3167W        W 6911   7.697   0.943   1.483
 3168W        W 6912   5.743   2.676  10.910
 3169W        W 6913   3.127   6.172   2.769
 3170W        W 6914   6.331   9.067   0.357
 3171W        W 6915   6.178   4.305  10.490
 3172W        W 6916   2.346   8.133   2.060
 3173W        W 6917   7.631   9.929  11.856
 3174W        W 6918   5.166   5.629   1.157
 3175W        W 6919   4.171   1.580  10.181
 3176W        W 6920   3.593   5.221   2.736
 3177W        W 6921   6.140   0.163   9.352
 3178W        W 6922   4.137   1.348   9.083
 3179W        W 6923   4.967   2.725   0.701
 3180W        W 6924   1.007   8.429   9.944
 3181W        W 6925  10.352   8.243   9.051
 3182W        W 6926   2.271   5.641   9.495
 3183W        W 6927   0.918   0.973   9.234
 3184W        W 6928   2.505   4.240   0.470
 3185W        W 6929   5.574   8.051  10.384
 3186W        W 6930   6.888   3.031   2.687
 3187W        W 6931   3.311   4.519  10.608
 3188W        W 6932   6.917   5.399  11.484
 3189W        W 6933   0.479   3.776  11.010
 3190W        W 6934   9.878   1.396   9.674
 3191W        W 6935   6.265   5.626   9.989
 3192W        W 6936   5.968   5.075   1.695
 3193W        W 6937   8.930   8.088  11.692
 3194W        W 6938   8.531   8.556   1.763
 3195W        W 6939   6.617   1.307   8.882
 3196W        W 6940   2.142   9.668   0.227
 3197W        W 6941   5.220   7.561   0.976
 3198W        W 6942   4.186   6.189   8.828
 3199W        W 6943   8.058   0.494   9.099
 3200W        W 6944   2.766   4.443   1.480
 3201W        W 6945   2.642   4.532   8.252
 3202W        W 6946   2.201   1.493  11.692
 3203W        W 6947   6.005   6.112  10.527
 3204W        W 6948   3.149   4.113  10.335
 3205W        W 6949   3.198   0.384   0.248
 3206W        W 6950   9.925  10.249   0.472
 3207W        W 6951   8.866   8.835   1.282
 3208W        W 6952   7.220   3.540   3.709
 3209W        W 6953   9.302   6.880  10.380
 3210W        W 6954   0.635   8.430  11.642
 3211W        W 6955   4.593   7.150   9.989
 3212W        W 6956   8.146   9.570  10.860
 3213W        W 6957   9.454   7.559   0.358
 3214W        W 6958   3.176   8.345   9.014
 3215W        W 6959   1.920   8.539  11.959
 3216W        W 6960   6.056   9.507   0.337
 3217W        W 6961   4.042   4.894  10.468
 3218W        W 6962   4.630   9.115   1.871
 3219W        W 6963   8.441   5.076   2.961
 3220W        W 6964   0.237   5.525   1.446
 3221W        W 6965   4.039   9.707  11.436
 3222W        W 6966   1.533   3.531   3.624
 3223W        W 6967   0.726   7.465   8.744
 3224W        W 6968   1.348   5.631  10.980
 3225W        W 6969   9.450   6.172   1.455
 3226W        W 6970   4.765  10.374  11.843
 3227W        W 6971   0.912   6.114   1.862
 3228W        W 6972   0.449   9.996  10.884
 3229W        W 6973   7.853   0.147   0.882
 3230W        W 6974   5.651   8.032   9.548
 3231W        W 6975   6.313   5.434   1.843
 3232W        W 6976   9.937   3.675   2.652
 3233W        W 6977   2.826   5.170  11.486
 3234W        W 6978   8.451   9.710   9.691
 3235W        W 6979   9.977   0.378   1.387
 3236W        W 6980   6.374   9.464  10.830
 3237W        W 6981   9.296   4.941   0.266
 3238W        W 6982   0.796   3.631   0.267
 3239W        W 6983   4.996   4.828  10.289
 3240W        W 6984  10.403   7.996  11.324
 3241W        W 6985   6.774   1.228  10.011
 3242W        W 6986   0.624   1.645   0.488
 3243W        W 6987   2.001   6.317   9.568
 3244W        W 6988   6.062   9.353  11.431
 3245W        W 6989  10.130   7.341   9.640
 3246W        W 6990   6.133   3.489   8.931
 3247W        W 6991   3.807   6.330   8.448
 3248W        W 6992   2.863   6.088   1.946
 3249W        W 6993   5.224   6.961   2.340
 3250W        W 6994   7.788   4.394   0.734
 3251W        W 6995   8.080   9.804   2.927
 3252W        W 6996   6.765   6.557   8.586
 3253W        W 6997  10.207   9.061   0.917
 3254W        W 6998   9.056   8.033  10.197
 3255W        W 6999   5.229   0.386   8.991
 3256W        W 7000   0.432   1.942   2.658
 3257W        W 7001   5.990   5.093   2.772
 3258W        W 7002   3.609   7.902   3.049
 3259W        W 7003   2.749   0.271   3.149
 3260W        W 7004   9.373   1.198   1.558
 3261W        W 7005   7.939   3.267   9.974
 3262W        W 7006   8.198   1.010   1.325
 3263W        W 7007   3.161   5.001   2.358
 3264W        W 7008   6.626   1.005   2.985
 3265W        W 7009   6.085   8.129  10.543
 3266W        W 7010   1.918   5.595   3.237
 3267W        W 7011   7.213   5.428   9.793
 3268W        W 7012  10.498   5.301   1.037
 3269W        W 7013   0.699   5.287  11.662
 3270W        W 7014   9.110  10.301   0.406
 3271W        W 7015   8.664   4.645  10.299
 3272W        W 7016  10.090   0.308   3.557
 3273W        W 7017   5.312   8.401   9.588
 3274W        W 7018   9.613   6.706  11.283
 3275W        W 7019   7.867   4.230  10.470
 3276W        W 7020   8.452   6.943   9.573
 3277W        W 7021   7.359   6.257   3.758
 3278W        W 7022   5.535   3.795   2.952
 3279W        W 7023   5.788   5.790   0.262
 3280W        W 7024   3.104   2.714   1.573
 3281W        W 7025   5.092   6.730   8.946
 3282W        W 7026   7.871   4.209   9.591
 3283W        W 7027   2.723   6.675   9.006
 3284W        W 7028   3.580   9.495  11.295
 3285W        W 7029   7.906   0.393  11.513
 3286W        W 7030   7.690   5.579   8.109
 3287W        W 7031   8.572   5.428   9.307
 3288W        W 7032   8.223   0.554   3.686
 3289W        W 7033   2.765   6.503   2.652
 3290W        W 7034   5.314   5.585   3.139
 3291W        W 7035   7.350   0.567   3.536
 3292W        W 7036   3.762   9.174   1.832
 3293W        W 7037   6.595   6.003   9.278
 3294W        W 7038   6.453   8.634   2.210
 3295W        W 7039   0.122   8.432  11.553
 3296W        W 7040   5.920   7.109   8.179
 3297W        W 7041   1.418   2.412  10.474
 3298W        W 7042   7.434   3.427   0.827
 3299W        W 7043   1.018   1.834   2.054
 3300W        W 7044   7.363  10.338  11.715
 3301W        W 7045   6.175   3.246   1.944
 3302W        W 7046   7.889   4.726   9.006
 3303W        W 7047   4.237   9.623   0.323
 3304W        W 7048  10.044   5.475  10.828
 3305W        W 7049   6.420   8.103   2.252
 3306W        W 7050   0.018   7.463  10.976
 3307W        W 7051   1.181   0.468   9.956
 3308W        W 7052   1.654   1.759   9.301
 3309W        W 7053   5.745   1.863   2.017
 3310W        W 7054   3.009   2.804  10.788
 3311W        W 7055   9.911   5.230   2.357
 3312W        W 7056   8.576   9.801   2.068
 3313W        W 7057  10.388   9.874   1.170
 3314W        W 7058   4.322   7.137   2.969
 3315W        W 7059   3.986   6.407   3.326
 3316W        W 7060   4.316   1.402   2.316
 3317W        W 7061   9.997   9.784   0.220
 3318W        W 7062   5.237   4.768   9.280
 3319W        W 7063   2.249  10.322   8.523
 3320W        W 7064   4.709   7.499   8.596
 3321W        W 7065   3.669   7.850   0.729
 3322W        W 7066   7.401   7.653   1.301
 3323W        W 7067   8.766   9.950   3.534
 3324W        W 7068   2.707   4.978   9.037
 3325W        W 7069   6.490   9.253  11.683
 3326W        W 7070   1.897   2.624  10.428
 3327W        W 7071   8.541   1.068   3.494
 3328W        W 7072   8.189   1.225   0.042
 3329W        W 7073   5.558   3.626   0.453
 3330W        W 7074   7.009   4.500   1.053
 3331W        W 7075   2.345   0.436  10.464
 3332W        W 7076   2.887   9.546   3.465
 3333W        W 7077   0.671   0.430  10.040
 3334W        W 7078   9.330   7.459   1.245
 3335W        W 7079  10.262   7.066   0.689
 3336W        W 7080   4.725   7.677   9.212
 3337W        W 7081   0.162   8.093   9.922
 3338W        W 7082   8.124   7.554  10.123
 3339W        W 7083   9.111   0.311   0.450
 3340W        W 7084   8.972   9.438   8.769
 3341W        W 7085   1.764   1.236   0.895
 3342W        W 7086   5.677   3.635   0.948
 3343W        W 7087   7.311   1.771   9.426
 3344W        W 7088   3.998  10.344   3.220
 3345W        W 7089   1.843   2.206   8.973
 3346W        W 7090   3.634   0.521  10.955
 3347W        W 7091   3.407   4.554   0.036
 3348W        W 7092   2.415   1.927  10.357
 3349W        W 7093   1.279   5.088   2.391
 3350W        W 7094   1.020   5.197   8.602
 3351W        W 7095   4.348   3.666  10.825
 3352W        W 7096   0.300   3.375   2.393
 3353W        W 7097   8.960   7.963   2.323
 3354W        W 7098   4.587   8.334   0.906
 3355W        W 7099   3.930   4.617   8.685
 3356W        W 7100   2.979  10.307   0.855
 3357W        W 7101   8.329   4.962   9.133
 3358W        W 7102   2.434   8.629   3.324
 3359W        W 7103   5.344   0.738   1.668
 3360W        W 7104   8.406   6.075   0.369
 3361W        W 7105   5.129   3.338   0.852
 3362W        W 7106   6.987   9.985   2.188
 3363W        W 7107   2.107   8.918  10.054
 3364W        W 7108   0.790   5.187   2.264
 3365W        W 7109   5.690   9.898  11.959
 3366W        W 7110   8.137   3.659   1.335
 3367W        W 7111   5.703   7.576   3.354
 3368W        W 7112   6.759   2.846   9.933
 3369W        W 7113   5.843   4.484   0.240
 3370W        W 7114   0.024   9.467   8.522
 3371W        W 7115   5.417   2.145   9.833
 3372W        W 7116   8.801   2.716   3.219
 3373W        W 7117   4.227   8.431   1.805
 3374W        W 7118   9.968   0.007   3.168
 3375W        W 7119   4.965   7.675   1.398
 3376W        W 7120   1.823   2.821   0.736
 3377W        W 7121   5.728   7.831  10.835
 3378W        W 7122   3.821   0.536  11.501
 3379W        W 7123   6.632   8.570   8.901
 3380W        W 7124   9.600   2.787   0.940
 3381W        W 7125   9.462   8.911  10.171
 3382W        W 7126   6.239   2.684   3.718
 3383W        W 7127   3.590   8.911  10.801
 3384W        W 7128   3.132   7.759   0.411
 3385W        W 7129   4.077   4.020   0.969
 3386W        W 7130   1.365   5.485   0.485
 3387W        W 7131   7.703   8.149   2.622
 3388W        W 7132   5.099   9.931   1.347
 3389W        W 7133   3.242   6.929   9.053
 3390W        W 7134   8.112   5.439   3.084
 3391W        W 7135   9.363   0.463   1.046
 3392W        W 7136   8.831   3.240  10.047
 3393W        W 7137   9.034   9.344  11.333
 3394W        W 7138   5.722   2.683   3.785
 3395W        W 7139   1.771   5.519  10.722
 3396W        W 7140   6.934   4.268  11.394
 3397W        W 7141   4.274   3.884   0.183
 3398W        W 7142   2.189   8.099  11.073
 3399W        W 7143   6.174   7.659   8.620
 3400W        W 7144   1.773   1.236   9.737
 3401W        W 7145   5.410   6.485   0.010
 3402W        W 7146   1.313   7.141  10.117
 3403W        W 7147   8.911   3.575  11.766
 3404W        W 7148   6.041   5.174  11.627
 3405W        W 7149   0.515   7.853  10.458
 3406W        W 7150   7.432   6.520  11.382
 3407W        W 7151   8.151   7.878   2.748
 3408W        W 7152   2.524   0.164   1.921
 3409W        W 7153  10.171   0.552  10.941
 3410W        W 7154   6.375  10.461   2.239
 3411W        W 7155   2.749   5.115   4.052
 3412W        W 7156   8.377  10.303  10.311
 3413W        W 7157   9.022   3.536   8.666
 3414W        W 7158   7.176   3.695   0.467
 3415W        W 7159   8.196   7.971   9.803
 3416W        W 7160   0.688   1.209  10.446
 3417W        W 7161   6.762   9.282   9.424
 3418W        W 7162   1.145   0.469   1.892
 3419W        W 7163   4.210   9.350  11.129
 3420W        W 7164   4.976   7.417  10.596
 3421W        W 7165   8.187   6.929   0.278
 3422W        W 7166   4.707   5.439   9.846
 3423W        W 7167   4.020   6.585  11.082
 3424W        W 7168   7.076   8.318   3.445
 3425W        W 7169   3.856   1.940   3.466
 3426W        W 7170   7.374   6.325   0.775
 3427W        W 7171   4.235   3.191   8.907
 3428W        W 7172   0.956   0.409   2.390
 3429W        W 7173   4.294   0.915   0.384
 3430W        W 7174   5.245   1.262   0.988
 3431W        W 7175   7.490   4.763   0.896
 3432W        W 7176   6.935   3.737  10.914
 3433W        W 7177   7.126   1.702   0.939
 3434W        W 7178   5.485   4.886   0.906
 3435W        W 7179   7.581   0.246   9.074
 3436W        W 7180   1.903   6.230   9.041
 3437W        W 7181   6.086   6.802   3.232
 3438W        W 7182   6.481   4.815  10.236
 3439W        W 7183   2.120   9.941   8.835
 3440W        W 7184   3.598   0.843  11.858
 3441W        W 7185   6.538   6.282   3.527
 3442W        W 7186   3.620   9.945  10.541
 3443W        W 7187   7.570   9.091   2.968
 3444W        W 7188   6.480   8.273   9.345
 3445W        W 7189   0.280   1.557   9.366
 3446W        W 7190   9.395   4.860   9.661
 3447W        W 7191   6.095   2.860   0.684
 3448W        W 7192   1.163   4.257   2.454
 3449W        W 7193   8.915   4.878   2.408
 3450W        W 7194   9.508   3.567   1.629
 3451W        W 7195   4.344   2.803   2.316
 3452W        W 7196   0.699   9.201  10.452
 3453W        W 7197   3.843   8.527   1.271
 3454W        W 7198   1.043   2.831   8.807
 3455W        W 7199   4.755   3.041   4.071
 3456W        W 7200   7.046   1.906   0.002
 3457W        W 7201   0.632   6.657   8.504
 3458W        W 7202   1.727   6.060   2.520
 3459W        W 7203   6.966   7.929   3.145
 3460W        W 7204   5.167   8.333   2.832
 3461W        W 7205   5.363   8.842   0.409
 3462W        W 7206   8.850   5.517   8.803
 3463W        W 7207   7.001   9.251  11.835
 3464W        W 7208  10.398  10.210   0.233
 3465W        W 7209   1.474   3.270   0.695
 3466W        W 7210   7.053   6.642   1.033
 3467W        W 7211  10.352   0.675   0.210
 3468W        W 7212   9.936   4.172   9.615
 3469W        W 7213   3.300   4.998  11.317
 3470W        W 7214   7.876   6.916   2.936
 3471W        W 7215   4.705   3.038   1.005
 3472W        W 7216   4.126   4.143  11.742
 3473W        W 7217   9.437   8.316   1.803
 3474W        W 7218   0.880   2.857   0.962
 3475W        W 7219   2.918   5.195   1.944
 3476W        W 7220   0.951   2.334   9.067
 3477W        W 7221   9.891   7.112  11.409
 3478W        W 7222   5.708   7.121  11.340
 3479W        W 7223  10.115   4.556   0.341
 3480W        W 7224   5.444  10.055   3.300
 3481W        W 7225   5.152   1.248   9.507
 3482W        W 7226   1.222   4.214   2.956
 3483W        W 7227   9.711   3.974   9.192
 3484W        W 7228   3.737   8.204  11.372
 3485W        W 7229   0.425   8.635  11.199
 3486W        W 7230  10.217   2.153   0.592
 3487W        W 7231   5.105   0.684  11.775
 3488W        W 7232   7.220   1.884  10.529
 3489W        W 7233   3.825   8.822   9.942
 3490W        W 7234   8.069   3.242   0.202
 3491W        W 7235   1.856   7.884   0.760
 3492W        W 7236   5.537   8.816   1.174
 3493W        W 7237   1.283   8.135  11.444
 3494W        W 7238   9.935   4.703   3.437
 3495W        W 7239   2.684   2.975   1.262
 3496W        W 7240   6.522   8.980   1.128
 3497W        W 7241   1.997   3.495   2.804
 3498W        W 7242   8.700   0.517  10.118
 3499W        W 7243   6.621   6.734   1.373
 3500W        W 7244   5.627   9.971  10.078
 3501W        W 7245   8.792   3.623  10.995
 3502W        W 7246  10.009   0.278   0.300
 3503W        W 7247   9.842   8.305   2.840
 3504W        W 7248   3.169   1.338   1.468
 3505W        W 7249   5.636   6.300   3.719
 3506W        W 7250   4.480   7.635   8.104
 3507W        W 7251   2.844   8.095  10.397
 3508W        W 7252   6.706   5.928  11.258
 3509W        W 7253   2.695  10.323   3.539
 3510W        W 7254   1.377  10.085  11.126
 3511W        W 7255   1.883   6.982   1.924
 3512W        W 7256   3.191   4.770   1.685
 3513W        W 7257   7.115   0.270   3.149
 3514W        W 7258   7.925   0.802  10.698
 3515W        W 7259   2.305   2.885   0.446
 3516W        W 7260   3.063   1.868  10.778
 3517W        W 7261   1.323   3.095   3.511
 3518W        W 7262   8.046   3.509   3.371
 3519W        W 7263  10.244   9.417   2.985
 3520W        W 7264   2.934   1.190  10.837
 3521W        W 7265   0.260   4.297   1.894
 3522W        W 7266   9.663  10.313   9.589
 3523W        W 7267   1.329   1.809  10.243
 3524W        W 7268   7.267   7.896   9.638
 3525W        W 7269   4.481   0.776   2.738
 3526W        W 7270   5.755   8.069   1.609
 3527W        W 7271   1.200   4.287  11.920
 3528W        W 7272   3.105   9.925  10.443
 3529W        W 7273   6.594   0.181   1.845
 3530W        W 7274   5.392   0.477   3.502
 3531W        W 7275   5.095   9.994   2.506
 3532W        W 7276   0.607   0.232  11.931
 3533W        W 7277   6.575   4.495  11.093
 3534W        W 7278   0.736   0.416  11.054
 3535W        W 7279   2.931   1.636  10.300
 3536W        W 7280   3.168   7.853   0.937
 3537W        W 7281   2.647   4.258  11.951
 3538W        W 7282   2.282   1.655  11.221
 3539W        W 7283   4.684   9.630   9.079
 3540W        W 7284   3.713   0.326   0.995
 3541W        W 7285   4.987   6.071   0.876
 3542W        W 7286   3.344   2.682  11.769
 3543W        W 7287   0.477   4.011   1.533
 3544W        W 7288   7.596   7.409  10.764
 3545W        W 7289   7.108   6.232  11.077
 3546W        W 7290   8.431   8.955   0.987
 3547W        W 7291   0.588   2.510   3.488
 3548W        W 7292   0.390   7.447  11.860
 3549W        W 7293   3.554   4.961  10.744
 3550W        W 7294   7.089   8.843   9.602
 3551W        W 7295   9.768   4.291   3.176
 3552W        W 7296   3.638   8.508  11.801
 3553W        W 7297   3.991   0.049   2.188
 3554W        W 7298   6.867   7.886   2.052
 3555W        W 7299   1.372   4.973  11.349
 3556W        W 7300   0.334   5.288  11.311
 3557W        W 7301   7.521   3.202   9.682
 3558W        W 7302  10.009   9.114   9.413
 3559W        W 7303   7.129   0.402   1.177
 3560W        W 7304   0.543   1.304   9.014
 3561W        W 7305   5.712   6.396   1.430
 3562W        W 7306   8.839   0.525  10.648
 3563W        W 7307   0.815   7.024  10.077
 3564W        W 7308   4.550   7.645  10.768
 3565W        W 7309   2.340   6.893   8.153
 3566W        W 7310   4.729   6.834   3.142
 3567W        W 7311   2.855   3.178  11.408
 3568W        W 7312  10.348   2.964   1.291
 3569W        W 7313   0.535   7.023   8.920
 3570W        W 7314   9.957   9.517   9.079
 3571W        W 7315   4.267   3.661   2.704
 3572W        W 7316   8.560   6.660   3.428
 3573W        W 7317   0.810   7.793   9.119
 3574W        W 7318   1.917   2.165   9.501
 3575W        W 7319   7.171   9.418   2.816
 3576W        W 7320   1.466   7.973   9.548
 3577W        W 7321   6.686   7.019  10.928
 3578W        W 7322   4.595   0.758  11.798
 3579W        W 7323   1.291   1.028  11.549
 3580W        W 7324   5.206   4.280   9.132
 3581W        W 7325   6.723   7.377  10.005
 3582W        W 7326   3.996   3.117   1.401
 3583W        W 7327   4.718   6.953   2.137
 3584W        W 7328   5.559   2.554  10.459
 3585W        W 7329   6.252   8.674   8.570
 3586W        W 7330   4.056   8.046   8.697
 3587W        W 7331   2.238   6.595   9.203
 3588W        W 7332  10.246   7.989   2.890
 3589W        W 7333   3.091   1.925   3.190
 3590W        W 7334  10.430   0.900  11.758
 3591W        W 7335   7.492  10.087   1.548
 3592W        W 7336   1.203   3.308   2.621
 3593W        W 7337   3.369   6.116   1.859
 3594W        W 7338   0.897   4.694   2.450
 3595W        W 7339   6.064   2.007  11.746
 3596W        W 7340   8.621   9.389   1.287
 3597W        W 7341   6.556   2.318   3.019
 3598W        W 7342   6.922   6.465  11.501
 3599W        W 7343   4.548   1.092   9.250
 3600W        W 7344   0.799   8.472   2.711
 3601W        W 7345  10.139   0.817   3.571
 3602W        W 7346   4.291   9.426  10.609
 3603W        W 7347   0.501   2.894   8.726
 3604W        W 7348   4.176   4.188   3.596
 3605W        W 7349   4.570   9.973   0.476
 3606W        W 7350   2.217   3.767   9.778
 3607W        W 7351   5.597   5.112   9.845
 3608W        W 7352   5.492   9.873  11.071
 3609W        W 7353   9.298   9.024   8.718
 3610W        W 7354   1.424   9.260   0.633
 3611W        W 7355   9.376   8.084  11.957
 3612W        W 7356   1.358   9.980   2.848
 3613W        W 7357   2.468   1.797   0.013
 3614W        W 7358   5.962   7.919   9.961
 3615W        W 7359   0.783  10.208   2.884
 3616W        W 7360   1.262   2.886   2.913
 3617W        W 7361   5.692   3.571   4.264
 3618W        W 7362   0.385   8.956  11.581
 3619W        W 7363   2.643   7.537  11.493
 3620W        W 7364   7.456  10.095  11.274
 3621W        W 7365   1.791   2.810   1.729
 3622W        W 7366   1.728   9.320   9.962
 3623W        W 7367  10.349   5.963   8.560
 3624W        W 7368   2.033   7.152   8.500
 3625W        W 7369  10.016   7.909  10.315
 3626W        W 7370   1.252   3.638  11.566
 3627W        W 7371   7.234   0.123   3.743
 3628W        W 7372   3.988   0.903  10.931
 3629W        W 7373   7.771   6.149  10.440
 3630W        W 7374   7.672   1.975   9.742
 3631W        W 7375   7.879   7.853   3.171
 3632W        W 7376   1.703   5.203  11.869
 3633W        W 7377   5.071   4.091   8.179
 3634W        W 7378   8.072   2.000  11.387
 3635W        W 7379   5.340   4.433   0.690
 3636W        W 7380   8.740   2.615   0.689
 3637W        W 7381   6.855   1.759   9.669
 3638W        W 7382   6.952   4.037  10.490
 3639W        W 7383   1.357   4.329   9.881
 3640W        W 7384   5.299   6.655   8.483
 3641W        W 7385  10.034   2.237  11.212
 3642W        W 7386   2.448   1.275   3.541
 3643W        W 7387   5.758   5.106   2.158
 3644W        W 7388   6.958   0.177   0.749
 3645W        W 7389  10.342   8.985   3.258
 3646W        W 7390   9.970   2.809   2.772
 3647W        W 7391   4.703   3.110  11.579
 3648W        W 7392   2.239   9.901   2.936
 3649W        W 7393  10.269   3.083  10.858
 3650W        W 7394   9.496   1.112  11.948
 3651W        W 7395   4.424   8.889  11.128
 3652W        W 7396   0.906   6.675   2.605
 3653W        W 7397   7.962   4.095   2.180
 3654W        W 7398   6.561   9.111   8.962
 3655W        W 7399   5.239   8.375   8.890
 3656W        W 7400   4.998  10.441   9.732
 3657W        W 7401   4.493   9.589   2.332
 3658W        W 7402   1.141   0.481   0.739
 3659W        W 7403   4.875   0.268  10.523
 3660W        W 7404   3.887   9.879   1.183
 3661W        W 7405   4.193   7.900  10.303
 3662W        W 7406   3.737   1.932  11.509
 3663W        W 7407  10.283   8.458   1.650
 3664W        W 7408   7.624   1.835   1.654
 3665W        W 7409   7.505   9.965  10.757
 3666W        W 7410   8.834   9.025   1.770
 3667W        W 7411   1.779   8.082  11.486
 3668W        W 7412   1.018   5.477   3.284
 3669W        W 7413   9.408   7.880   3.477
 3670W        W 7414   9.396   8.591  11.862
 3671W        W 7415   8.600   4.294  11.778
 3672W        W 7416   3.514  10.289   3.037
 3673W        W 7417   4.173   4.379  11.251
 3674W        W 7418   9.738   0.986   1.838
 3675W        W 7419   7.609   8.929   4.039
 3676W        W 7420   2.590   2.388   0.408
 3677W        W 7421   9.857   9.787  11.700
 3678W        W 7422   4.448   3.598   9.126
 3679W        W 7423   9.358   2.226   2.675
 3680W        W 7424   4.217   6.559   9.922
 3681W        W 7425   1.011   2.390   0.763
 3682W        W 7426   6.247   0.772   1.143
 3683W        W 7427   5.981   5.689  11.375
 3684W        W 7428   4.228   8.922  10.306
 3685W        W 7429   8.503   8.004   1.036
 3686W        W 7430   0.490   5.107   0.121
 3687W        W 7431   7.814   9.350   0.339
 3688W        W 7432   2.807   9.027   3.363
 3689W        W 7433   2.189   1.224   1.174
 3690W        W 7434   9.864   2.293   2.763
 3691W        W 7435   1.808   1.423   1.438
 3692W        W 7436   0.290   4.921  11.676
 3693W        W 7437   8.929   7.996   2.854
 3694W        W 7438   8.954   1.753   9.322
 3695W        W 7439   4.567   9.080   2.451
 3696W        W 7440   8.341   2.369   2.535
 3697W        W 7441   3.620   1.380   0.406
 3698W        W 7442   8.280   6.318   3.728
 3699W        W 7443   1.829   4.807  11.565
 3700W        W 7444   6.755   6.729   9.074
 3701W        W 7445   7.636   0.913   0.716
 3702W        W 7446   8.569   1.453  10.967
 3703W        W 7447   2.080   9.314  10.349
 3704W        W 7448   9.846   4.629   9.906
 3705W        W 7449   3.789   9.144  10.381
 3706W        W 7450   0.654   9.392   2.247
 3707W        W 7451   2.637   2.268  11.902
 3708W        W 7452   2.820   3.060   3.259
 3709W        W 7453   9.948   6.398   1.843
 3710W        W 7454   1.468   3.634   8.688
 3711W        W 7455   9.429   3.951  11.552
 3712W        W 7456   8.321  10.057  10.768
 3713W        W 7457   1.994   4.912   3.690
 3714W        W 7458   0.737   6.536   2.105
 3715W        W 7459   0.642   0.348   1.962
 3716W        W 7460   9.640   4.268   8.763
 3717W        W 7461   0.870   2.745  11.858
 3718W        W 7462   8.118   7.948  11.778
 3719W        W 7463   6.480   8.502  10.882
 3720W        W 7464   3.612   7.593   9.325
 3721W        W 7465   3.287   3.806   2.658
 3722W        W 7466   6.011   6.089  10.015
 3723W        W 7467  10.395   8.170  11.927
 3724W        W 7468   9.781   4.994   0.790
 3725W        W 7469   7.476   4.581  11.014
 3726W        W 7470   5.181   8.372  10.078
 3727W        W 7471  10.327   5.111  10.561
 3728W        W 7472  10.291   7.055   1.204
 3729W        W 7473   7.143   7.214  10.808
 3730W        W 7474   7.627   9.137   9.732
 3731W        W 7475   8.597   9.235   9.576
 3732W        W 7476   9.577   3.492   9.377
 3733W        W 7477   0.046   0.877   9.739
 3734W        W 7478   9.900   9.319   9.911
 3735W        W 7479   9.883   6.128   9.480
 3736W        W 7480   6.918  10.161  11.882
 3737W        W 7481   5.435   9.968   1.716
 3738W        W 7482   5.503   3.319   9.836
 3739W        W 7483   9.555   6.656   1.677
 3740W        W 7484   5.061   8.508  11.550
 3741W        W 7485   3.736  10.486  10.823
 3742W        W 7486   9.328   9.491   0.501
 3743W        W 7487   4.801   8.670   8.860
 3744W        W 7488   9.337  10.318  11.860
 3745W        W 7489   3.746   8.653   1.754
 3746W        W 7490  10.349   5.547   9.961
 3747W        W 7491   1.523   3.669   2.769
 3748W        W 7492   6.639   8.464   1.322
 3749W        W 7493   2.883   7.430   2.304
 3750W        W 7494   3.076   5.097  10.873
 3751W        W 7495   5.257   9.664   0.056
 3752W        W 7496   0.034   3.203   9.922
 3753W        W 7497   9.386   3.283   0.288
 3754W        W 7498   8.904   8.346   1.077
 3755W        W 7499   4.278   6.841   3.400
 3756W        W 7500   9.986   8.818   0.545
 3757W        W 7501   2.417   3.401   0.367
 3758W        W 7502   7.400   2.446   0.937
 3759W        W 7503   6.728   0.312   8.752
 3760W        W 7504   2.690   6.934   8.529
 3761W        W 7505   0.255   3.364   0.338
 3762W        W 7506   9.380   6.237   3.108
 3763W        W 7507   7.615   0.024   9.945
 3764W        W 7508   3.042   6.605   3.081
 3765W        W 7509   1.469   8.174   3.188
 3766W        W 7510   2.801   2.811   0.239
 3767W        W 7511   1.318   9.762   8.476
 3768W        W 7512   5.771   4.246   3.583
 3769W        W 7513   0.218   4.175   2.816
 3770W        W 7514   9.760   5.871  11.021
 3771W        W 7515   6.011  10.395   9.914
 3772W        W 7516   4.224   7.338   0.453
 3773W        W 7517   7.341   9.023   0.218
 3774W        W 7518  10.296   9.469   2.482
 3775W        W 7519   3.255   7.081  11.755
 3776W        W 7520   2.469   7.822  11.871
 3777W        W 7521   5.700   0.707  11.423
 3778W        W 7522   9.169   2.263   3.159
 3779W        W 7523   3.747   3.166  11.170
 3780W        W 7524   4.719   3.155   3.203
 3781W        W 7525   7.386   6.980   1.637
 3782W        W 7526   2.397   9.940   9.635
 3783W        W 7527   8.323   3.787  11.050
 3784W        W 7528   5.657   9.094   0.758
 3785W        W 7529   3.841   9.445   2.913
 3786W        W 7530   1.718   9.450  11.296
 3787W        W 7531   1.813   6.492   2.963
 3788W        W 7532   3.355   7.393   8.944
 3789W        W 7533   0.267   1.615   8.321
 3790W        W 7534   6.539   0.180  11.498
 3791W        W 7535   4.713   4.572  11.195
 3792W        W 7536   8.232   2.654   0.738
 3793W        W 7537   6.200   8.210   1.384
 3794W        W 7538   0.807   9.297  11.541
 3795W        W 7539   5.136   6.049   2.436
 3796W        W 7540   2.661   8.097  10.863
 3797W        W 7541   6.140   4.258   1.242
 3798W        W 7542   4.752   8.566  10.279
 3799W        W 7543   5.613   9.036  10.531
 3800W        W 7544   7.476   0.086  10.434
 3801W        W 7545   4.503   4.725  10.356
 3802W        W 7546   7.114   4.942   3.353
 3803W        W 7547   4.939   7.370   8.131
 3804W        W 7548   8.030   3.204   1.582
 3805W        W 7549   5.480  10.448   9.930
 3806W        W 7550   9.171   6.694   0.130
 3807W        W 7551   9.602   8.962   9.697
 3808W        W 7552   2.254   0.745   9.634
 3809W        W 7553   8.052   6.611  10.237
 3810W        W 7554   5.253   7.126   4.189
 3811W        W 7555   7.372   7.127  10.343
 3812W        W 7556   3.060   6.626  11.766
 3813W        W 7557   0.307   2.917   9.579
 3814W        W 7558   6.238   7.046   3.997
 3815W        W 7559   1.798   6.702   1.502
 3816W        W 7560   1.124   5.264   1.049
 3817W        W 7561   8.706   7.421   3.546
 3818W        W 7562   1.319   7.070  10.647
 3819W        W 7563   8.814  10.285   0.891
 3820W        W 7564   7.006   7.088   8.797
 3821W        W 7565   1.812   4.946   2.310
 3822W        W 7566   4.225   5.206  10.089
 3823W        W 7567   6.182   8.351   2.828
 3824W        W 7568   5.080   3.361   0.353
 3825W        W 7569   3.155   1.001   2.838
 3826W        W 7570  10.433   0.647   1.383
 3827W        W 7571   1.485   7.830   2.417
 3828W        W 7572   6.882   6.257   8.161
 3829W        W 7573   5.948   9.638  11.022
 3830W        W 7574   4.456   1.699   2.807
 3831W        W 7575   8.157   2.779   2.817
 3832W        W 7576   8.589   6.782   0.938
 3833W        W 7577   4.818   1.323   2.114
 3834W        W 7578   9.380  10.155   2.093
 3835W        W 7579   9.975  10.121   0.970
 3836W        W 7580   7.659   8.143   0.034
 3837W        W 7581   3.313   5.976   9.171
 3838W        W 7582   2.282   5.980  11.889
 3839W        W 7583   8.373   6.939  10.476
 3840W        W 7584   0.225   7.154   0.957
 3841W        W 7585   8.549   2.826   9.979
 3842W        W 7586   5.149   6.493   2.146
 3843W        W 7587   1.362   6.852   8.854
 3844W        W 7588   5.661   3.334   2.775
 3845W        W 7589   8.134   6.525   3.163
 3846W        W 7590   4.675   9.857  10.812
 3847W        W 7591   9.001   4.736   1.536
 3848W        W 7592   1.757   2.875   9.987
 3849W        W 7593   7.063   8.927   2.849
 3850W        W 7594   6.138   6.497  10.840
 3851W        W 7595   1.346   3.290   2.148
 3852W        W 7596   7.054   2.738  11.540
 3853W        W 7597   9.864  10.236  11.963
 3854W        W 7598   3.743   8.071   9.502
 3855W        W 7599   3.152   1.445   1.975
 3856W        W 7600   6.479   0.218   0.462
 3857W        W 7601   5.074   1.787  10.758
 3858W        W 7602   2.287   5.571  11.497
 3859W        W 7603   5.359   5.705   8.584
 3860W        W 7604   2.196   7.379   9.664
 3861W        W 7605   6.137   8.093  11.074
 3862W        W 7606   2.184   7.793   9.332
 3863W        W 7607   6.938   3.497   2.533
 3864W        W 7608   1.887   4.517   1.409
 3865W        W 7609   0.318   0.958   2.706
 3866W        W 7610   0.917   5.067   9.958
 3867W        W 7611   0.454   4.848  10.055
 3868W        W 7612   4.628   5.377  11.192
 3869W        W 7613   5.129   3.808   0.136
 3870W        W 7614   4.317   4.601  10.821
 3871W        W 7615   5.582   3.324   2.272
 3872W        W 7616   2.092   9.763  10.575
 3873W        W 7617   7.632   9.601   1.660
 3874W        W 7618   4.093   6.057   0.999
 3875W        W 7619  10.324   1.789  11.457
 3876W        W 7620   8.961   2.861   1.459
 3877W        W 7621   0.590   5.916   1.454
 3878W        W 7622   7.409   0.549   9.474
 3879W        W 7623   8.497   3.926   3.348
 3880W        W 7624   9.070   2.239  11.466
 3881W        W 7625   9.352   4.606  10.101
 3882W        W 7626   1.963   9.121   2.819
 3883W        W 7627   1.795   0.864   9.344
 3884W        W 7628   9.434   1.278  10.925
 3885W        W 7629   8.574   4.600  11.310
 3886W        W 7630   8.500   2.716   8.937
 3887W        W 7631   8.815   1.902   3.211
 3888W        W 7632   7.094   7.850   8.525
 3889W        W 7633   1.953   7.737   2.631
 3890W        W 7634   9.894   0.663   0.972
 3891W        W 7635   1.183   4.042   1.444
 3892W        W 7636   5.751   1.270  10.755
 3893W        W 7637   8.072   7.850  11.267
 3894W        W 7638   2.284   5.272   3.464
 3895W        W 7639   7.986   9.811   9.276
 3896W        W 7640   2.691   8.962  10.980
 3897W        W 7641  10.494   1.831  11.954
 3898W        W 7642   9.442   8.620   2.780
 3899W        W 7643   3.210   4.715   3.602
 3900W        W 7644   9.746   0.864  11.004
 3901W        W 7645   7.152   6.695  10.726
 3902W        W 7646   9.051   0.728   0.745
 3903W        W 7647   9.963   9.992  10.813
 3904W        W 7648   5.247   9.712  10.365
 3905W        W 7649   7.487   8.609   3.165
 3906W        W 7650   5.711   6.455   0.932
 3907W        W 7651   1.396   9.556  10.896
 3908W        W 7652   9.776   3.705   9.811
 3909W        W 7653   7.074   0.067   9.069
 3910W        W 7654   6.474   6.647  11.223
 3911W        W 7655   1.749   6.182  11.844
 3912W        W 7656   5.257   4.465  11.016
 3913W        W 7657   5.686   4.219   2.151
 3914W        W 7658   5.579   5.095   3.118
 3915W        W 7659   1.925   3.239   9.668
 3916W        W 7660   6.156   3.339  11.426
 3917W        W 7661   6.369   7.741   1.281
 3918W        W 7662   5.645   0.271   0.422
 3919W        W 7663   3.257   4.988   4.033
 3920W        W 7664   8.194   6.694   2.215
 3921W        W 7665   1.079   3.535   1.475
 3922W        W 7666   4.800   9.459   3.177
 3923W        W 7667  10.464  10.485  10.204
 3924W        W 7668   9.289   4.053   2.505
 3925W        W 7669   8.337   1.880   2.394
 3926W        W 7670   3.678   4.017   1.378
 3927W        W 7671   1.071   7.097   9.642
 3928W        W 7672   9.654   4.738  10.481
 3929W        W 7673   2.762   1.217   0.787
 3930W        W 7674   2.227   8.312  11.563
 3931W        W 7675   8.032   8.449  11.770
 3932W        W 7676   1.824  10.040   1.635
 3933W        W 7677   6.543   9.354  10.352
 3934W        W 7678   9.624   3.797  10.611
 3935W        W 7679  10.492   0.817  11.242
 3936W        W 7680   1.260   1.418   2.256
 3937W        W 7681   9.442   2.676   1.503
 3938W        W 7682   4.876  10.237   2.968
 3939W        W 7683   4.107   2.685   9.079
 3940W        W 7684   9.316  10.041   2.580
 3941W        W 7685   5.607   6.642   8.936
 3942W        W 7686   8.074   2.882  10.719
 3943W        W 7687   1.772   2.789  11.805
 3944W        W 7688   3.585   0.891   2.584
 3945W        W 7689   8.488   8.916  10.279
 3946W        W 7690   0.260   4.213   9.225
 3947W        W 7691   1.545   1.392   8.922
 3948W        W 7692   4.950   2.237  11.881
 3949W        W 7693   8.617   0.007  10.891
 3950W        W 7694   2.145   1.063  10.056
 3951W        W 7695   0.961   7.001   2.118
 3952W        W 7696   8.065   0.670   1.730
 3953W        W 7697   7.282   6.245  10.373
 3954W        W 7698   9.296   0.728   3.514
 3955W        W 7699  10.497   5.101   9.724
 3956W        W 7700   8.816   5.090  10.499
 3957W        W 7701   8.980   4.580   8.862
 3958W        W 7702   4.890   3.680   8.423
 3959W        W 7703   4.975   5.686   0.293
 3960W        W 7704   2.385   0.287   2.792
 3961W        W 7705   9.806   9.053   3.463
 3962W        W 7706  10.473   8.586  10.085
 3963W        W 7707   6.344  10.326   2.741
 3964W        W 7708   4.250   5.348  10.581
 3965W        W 7709   7.071   3.358  11.229
 3966W        W 7710   1.449   1.666   0.205
 3967W        W 7711   7.436   5.189   9.358
 3968W        W 7712   3.266   0.472   1.289
 3969W        W 7713   1.247   3.663   1.015
 3970W        W 7714   7.078   6.081   9.100
 3971W        W 7715   5.979   2.107   9.145
 3972W        W 7716   9.861   1.850   9.391
 3973W        W 7717   0.861   1.695   2.507
 3974W        W 7718   3.321   9.571  11.798
 3975W        W 7719   6.586   0.505   0.877
 3976W        W 7720   3.335   3.951   3.130
 3977W        W 7721   3.409   5.412   3.217
 3978W        W 7722   7.228   4.116  11.818
 3979W        W 7723   1.217   6.119  11.882
 3980W        W 7724   0.836   9.643   9.552
 3981W        W 7725   7.164   7.518   2.374
 3982W        W 7726   9.379   3.640   1.134
 3983W        W 7727   3.929   9.717   0.703
 3984W        W 7728   5.511   1.667   3.007
 3985W        W 7729   3.274   4.898   0.541
 3986W        W 7730   5.074   4.071  10.747
 3987W        W 7731   8.041   5.389   1.256
 3988W        W 7732   4.518   4.136   9.406
 3989W        W 7733   5.341   9.756  11.555
 3990W        W 7734   7.494   9.615  10.057
 3991W        W 7735   6.880   9.386  10.730
 3992W        W 7736   0.190   6.187   0.826
 3993W        W 7737   2.648   5.644   9.927
 3994W        W 7738   3.169   4.211   1.243
 3995W        W 7739  10.177   6.908   9.371
 3996W        W 7740   9.626   7.423   0.830
 3997W        W 7741   7.064   5.237   0.282
 3998W        W 7742   5.945   0.808   9.967
 3999W        W 7743   8.125   8.446   2.608
 4000W        W 7744   6.583   6.672   2.248
 4001W        W 7745   6.948   4.886   9.941
 4002W        W 7746   3.842   3.070   9.241
 4003W        W 7747   1.730   2.230  11.346
 4004W        W 7748   6.830  10.334   2.529
 4005W        W 7749   1.390  10.375  10.259
 4006W        W 7750   5.956   4.740  10.334
 4007W        W 7751   4.959   7.871   8.267
 4008W        W 7752   8.404   3.599   8.472
 4009W        W 7753  10.298   0.759   8.726
 4010W        W 7754   8.984   2.494   1.837
 4011W        W 7755   2.883   4.616   4.116
 4012W        W 7756   4.666   6.474   2.312
 4013W        W 7757   5.059   7.153   1.339
 4014W        W 7758   0.701   6.171   0.915
 4015W        W 7759   9.547   0.059   0.271
 4016W        W 7760   2.906   3.707  10.553
 4017W        W 7761   3.231   8.325  11.514
 4018W        W 7762   7.877   2.419  10.501
 4019W        W 7763   0.845   1.361   0.912
 4020W        W 7764   9.486   1.840   0.937
 4021W        W 7765   7.197   2.647   2.565
 4022W        W 7766   1.459   8.431   1.045
 4023W        W 7767   3.058   2.520   0.596
 4024W        W 7768   7.561   6.101   2.735
 4025W        W 7769   5.650   1.158   1.282
 4026W        W 7770   7.026   9.650   0.825
 4027W        W 7771   9.560   7.181  10.067
 4028W        W 7772   5.960   6.731   4.298
 4029W        W 7773   4.605   3.225  10.816
 4030W        W 7774  10.060   1.006   1.417
 4031W        W 7775   0.404   8.939   1.546
 4032W        W 7776   2.700   7.913   1.221
 4033W        W 7777  10.370   8.517   0.736
 4034W        W 7778   9.958   5.446   1.773
 4035W        W 7779   6.662   5.287  11.980
 4036W        W 7780   5.072   7.889  10.285
 4037W        W 7781   9.943   4.962  10.878
 4038W        W 7782   9.842   1.445  10.185
 4039W        W 7783   4.246   4.436   9.084
 4040W        W 7784   5.594   9.498  10.713
 4041W        W 7785   4.503   6.002   0.704
 4042W        W 7786   7.654   5.562   3.982
 4043W        W 7787   2.164   0.385   9.987
 4044W        W 7788   6.482   9.980   2.402
 4045W        W 7789   5.233   9.440   0.653
 4046W        W 7790   9.665   9.813  11.211
 4047W        W 7791   7.933   0.296  10.558
 4048W        W 7792   0.813   7.905  11.495
 4049W        W 7793  10.312  10.309   1.929
 4050W        W 7794   5.699   3.583  10.921
 4051W        W 7795   2.303   5.060  11.633
 4052W        W 7796  10.067   5.700   2.202
 4053W        W 7797   4.701   2.759   9.806
 4054W        W 7798   6.050   7.208   3.550
 4055W        W 7799   7.611   6.676  10.480
 4056W        W 7800   1.650   8.562  11.530
 4057W        W 7801   5.983   7.131   1.885
 4058W        W 7802   8.788   1.505   3.515
 4059W        W 7803   4.511   7.957   8.496
 4060W        W 7804   8.410   6.193   9.121
 4061W        W 7805   3.400   4.665   8.657
 4062W        W 7806   8.372   9.262   0.056
 4063W        W 7807   1.345   6.371   2.654
 4064W        W 7808  10.197   4.173   2.908
 4065W        W 7809   7.463   5.830   0.810
 4066W        W 7810  10.487   1.712   2.512
 4067W        W 7811   2.926   2.061   9.476
 4068W        W 7812   0.073   1.601   1.825
 4069W        W 7813   4.059   6.920  10.304
 4070W        W 7814   6.746   4.592   3.269
 4071W        W 7815   7.181   2.663   1.371
 4072W        W 7816   4.863   2.835   2.306
 4073W        W 7817   4.872   9.510   2.669
 4074W        W 7818   5.140   4.681  11.480
 4075W        W 7819   8.969   0.396   1.437
 4076W        W 7820   4.005   7.536   3.033
 4077W        W 7821   1.830   3.239   2.019
 4078W        W 7822   1.629   9.519   2.965
 4079W        W 7823   7.096   7.876  11.469
 4080W        W 7824   1.267   4.258   0.431
 4081W        W 7825   9.356   8.582   8.978
 4082W        W 7826   0.823   3.848  11.781
 4083W        W 7827   0.728   7.100   0.747
 4084W        W 7828   3.339   8.875   3.278
 4085W        W 7829   9.553  10.285   3.354
 4086W        W 7830   1.191   2.873   0.528
 4087W        W 7831   6.934   9.961  11.370
 4088W        W 7832   2.328   3.852   2.667
 4089W        W 7833   4.937   4.229   0.925
 4090W        W 7834   4.645   4.945   9.902
 4091W        W 7835   2.775   1.127   3.174
 4092W        W 7836   9.003   8.426   2.582
 4093W        W 7837   3.302   2.386  10.123
 4094W        W 7838   1.805   6.273  11.310
 4095W        W 7839   4.633   7.621  10.270
 4096W        W 7840   6.487   3.034  10.502
 4097W        W 7841   7.342   1.051   9.407
 4098W        W 7842   7.065   7.453   9.416
 4099W        W 7843   4.080  10.101   0.352
 4100W        W 7844   8.386   1.981  10.963
 4101W        W 7845   5.669   1.147   0.734
 4102W        W 7846   8.180   6.632   1.621
 4103W        W 7847   9.413   3.103  11.262
 4104W        W 7848   0.283   7.807   0.253
 4105W        W 7849   0.310   1.739   8.880
 4106W        W 7850   4.469   1.026  10.985
 4107W        W 7851   7.471   2.764   1.801
 4108W        W 7852   8.337   0.924   9.224
 4109W        W 7853   4.689   3.022   0.109
 4110W        W 7854   5.870   2.389   0.044
 4111W        W 7855   7.374   5.025  11.369
 4112W        W 7856   7.455   3.273   1.895
 4113W        W 7857   1.219   7.453   2.184
 4114W        W 7858   4.174   0.785  10.394
 4115W        W 7859   6.744   1.466  11.951
 4116W        W 7860   2.599   3.879  11.441
 4117W        W 7861   6.951   0.974   0.272
 4118W        W 7862   1.437   8.664  10.503
 4119W        W 7863   8.312   9.807  10.206
 4120W        W 7864   8.040   6.019   0.003
 4121W        W 7865   1.901   8.534  11.082
 4122W        W 7866   9.771   9.861   9.832
 4123W        W 7867   3.784   1.830   9.035
 4124W        W 7868   4.445   8.090   0.083
 4125W        W 7869   5.199   9.453   1.157
 4126W        W 7870   1.332  10.294   9.761
 4127W        W 7871   6.517   3.653   3.205
 4128W        W 7872   2.814   8.545  10.648
 4129W        W 7873   5.531   6.403  11.120
 4130W        W 7874   7.050   8.661   1.113
 4131W        W 7875   5.138   8.964   0.876
 4132W        W 7876  10.174  10.291   1.419
 4133W        W 7877   1.444   9.081   2.737
 4134W        W 7878   4.640   5.454   1.849
 4135W        W 7879   1.270   8.441   8.744
 4136W        W 7880   4.482  10.449  11.416
 4137W        W 7881  10.398   3.622   2.149
 4138W        W 7882   8.076   7.509   9.592
 4139W        W 7883   4.048   6.819  11.526
 4140W        W 7884   7.425   7.610   3.225
 4141W        W 7885  10.073   6.856   2.409
 4142W        W 7886   2.824   4.549  10.475
 4143W        W 7887   6.104   0.196  11.765
 4144W        W 7888   0.453   0.404   2.446
 4145W        W 7889   2.774   5.522   0.753
 4146W        W 7890   4.595  10.344  10.538
 4147W        W 7891   6.221   0.288   8.861
 4148W        W 7892   5.604  10.376   1.437
 4149W        W 7893   6.916   3.814  10.041
 4150W        W 7894   2.904   8.914   2.835
 4151W        W 7895   7.571   5.265   1.389
 4152W        W 7896   2.309   5.651   0.501
 4153W        W 7897   9.353   7.588  11.049
 4154W        W 7898   7.415   9.093   2.461
 4155W        W 7899   8.663   2.408  11.876
 4156W        W 7900   8.794   6.138   9.924
 4157W        W 7901   8.957  10.044   1.786
 4158W        W 7902   3.745   8.093  10.464
 4159W        W 7903   3.290   2.167   0.895
 4160W        W 7904   0.025   2.903   0.799
 4161W        W 7905   0.721   2.919   1.477
 4162W        W 7906   4.154   8.846   9.427
 4163W        W 7907   3.622   8.069   9.012
 4164W        W 7908   1.649   2.268   2.317
 4165W        W 7909   0.284   6.027   3.189
 4166W        W 7910   4.781  10.356  10.998
 4167W        W 7911   0.252   6.062   2.670
 4168W        W 7912   0.919   5.522   9.748
 4169W        W 7913   5.055   6.511   2.650
 4170W        W 7914   1.807   9.935   9.330
 4171W        W 7915   8.015   8.829   9.572
 4172W        W 7916   5.125   1.274  10.012
 4173W        W 7917   4.791   2.035   0.994
 4174W        W 7918   6.635   4.255   2.315
 4175W        W 7919   2.758   0.689   1.484
 4176W        W 7920   3.303   8.582   2.856
 4177W        W 7921   6.125   0.453  11.293
 4178W        W 7922   7.776   0.415  11.020
 4179W        W 7923   2.523   6.972   0.850
 4180W        W 7924   9.967   5.525   8.916
 4181W        W 7925   8.112   3.033  11.708
 4182W        W 7926   5.472   0.822   2.441
 4183W        W 7927   5.553   7.302   0.667
 4184W        W 7928   2.214   8.619   2.832
 4185W        W 7929   3.290   3.716   1.195
 4186W        W 7930   7.225   3.888   8.942
 4187W        W 7931   2.788   8.493   9.695
 4188W        W 7932   6.074   3.846  10.692
 4189W        W 7933   7.658   4.238   3.522
 4190W        W 7934   2.423   4.800   3.150
 4191W        W 7935   0.317   1.240  11.259
 4192W        W 7936   8.016   7.397  11.043
 4193W        W 7937   6.515   5.835  10.387
 4194W        W 7938   0.278   9.530  10.064
 4195W        W 7939   5.042   6.649  11.248
 4196W        W 7940   2.166   6.078   2.791
 4197W        W 7941   9.236   9.037   0.942
 4198W        W 7942   0.054   3.762   9.418
 4199W        W 7943   2.215   3.318   2.367
 4200W        W 7944   7.063   1.211   3.417
 4201W        W 7945   3.189   7.700   2.717
 4202W        W 7946   9.435   5.048   2.325
 4203W        W 7947   8.707   1.758  10.602
 4204W        W 7948   3.175   5.590  11.002
 4205W        W 7949   1.781   0.280   2.581
 4206W        W 7950   9.965   2.762   2.237
 4207W        W 7951   6.742   4.836   1.304
 4208W        W 7952   3.030   8.802  11.459
 4209W        W 7953   8.802   8.905  11.476
 4210W        W 7954   2.156   8.981  10.933
 4211W        W 7955   5.878   7.668   0.539
 4212W        W 7956   8.484   8.134   3.099
 4213W        W 7957   3.631   5.630   0.313
 4214W        W 7958   4.973   6.887   0.866
 4215W        W 7959   2.295   9.362   1.646
 4216W        W 7960   2.589   2.390  11.411
 4217W        W 7961   2.867   5.101   9.851
 4218W        W 7962   8.006   2.345   9.530
 4219W        W 7963   6.708   2.324   9.767
 4220W        W 7964   0.988   8.372   3.197
 4221W        W 7965   8.907   4.628   9.830
 4222W        W 7966   1.935   6.517   0.579
 4223W        W 7967   3.421   8.179   1.838
 4224W        W 7968   4.288  10.286   1.855
 4225W        W 7969   3.364   5.763  10.554
 4226W        W 7970   6.024   1.715  10.274
 4227W        W 7971   1.385   3.717   1.854
 4228W        W 7972   3.426   9.583   0.668
 4229W        W 7973   7.123   6.565   3.288
 4230W        W 7974   5.408   2.043   1.687
 4231W        W 7975   2.111   4.665   0.530
 4232W        W 7976   4.958   1.471   3.430
 4233W        W 7977   9.251   8.503  10.408
 4234W        W 7978   8.567   8.072   1.529
 4235W        W 7979   3.787   3.201   1.874
 4236W        W 7980   0.249   6.457   9.423
 4237W        W 7981   5.995   1.733  10.776
 4238W        W 7982   3.701   4.889   3.131
 4239W        W 7983   2.113   1.334   0.190
 4240W        W 7984   2.747   2.369  10.776
 4241W        W 7985   7.966   1.341   0.487
 4242W        W 7986   6.975   4.188   0.267
 4243W        W 7987   5.632   0.472  11.914
 4244W        W 7988   2.279   6.707   1.304
 4245W        W 7989   9.783   9.277   0.351
 4246W        W 7990   4.083   8.999  10.778
 4247W        W 7991   7.174   1.848   2.951
 4248W        W 7992   6.978   8.419   9.288
 4249W        W 7993   8.853   4.049  11.403
 4250W        W 7994   2.253   4.456  10.330
 4251W        W 7995  10.042   5.539   0.883
 4252W        W 7996   6.928   7.132   1.466
 4253W        W 7997   3.094   5.008   9.377
 4254W        W 7998   8.074   8.916   2.840
 4255W        W 7999   9.195   0.564   2.294
 4256W        W 8000   5.698   0.379   9.212
 4257W        W 8001   2.712   3.593   9.136
 4258W        W 8002   8.944   1.458  10.219
 4259W        W 8003   0.701   9.347   2.746
 4260W        W 8004   7.836   5.041   3.275
 4261W        W 8005   0.775   1.893   1.275
 4262W        W 8006   6.634   8.570   3.210
 4263W        W 8007   7.452   3.445   2.413
 4264W        W 8008  10.485   5.571   0.215
 4265W        W 8009   4.726   5.465   1.348
 4266W        W 8010   3.172   5.118  11.916
 4267W        W 8011   3.266   0.498   9.558
 4268W        W 8012   7.622   4.752  10.327
 4269W        W 8013   4.352   4.913  11.290
 4270W        W 8014   1.590   8.851  10.044
 4271W        W 8015   6.007   6.602  10.327
 4272W        W 8016   4.299   1.763  10.646
 4273W        W 8017   8.482   6.664  10.948
 4274W        W 8018   0.313   8.641  11.982
 4275W        W 8019   7.389  10.489   0.987
 4276W        W 8020   6.587   9.913   9.229
 4277W        W 8021   7.205   0.910   9.977
 4278W        W 8022   6.252   2.862   2.338
 4279W        W 8023   3.719   8.225   0.266
 4280W        W 8024   8.432   3.212   9.213
 4281W        W 8025  10.452   0.316   2.601
 4282W        W 8026   4.026   4.271   9.540
 4283W        W 8027   4.171   3.542   1.726
 4284W        W 8028   6.753   3.715   9.031
 4285W        W 8029   9.600   7.605  11.868
 4286W        W 8030   3.829   2.818   2.282
 4287W        W 8031   0.522   9.315   1.223
 4288W        W 8032   6.232   3.209   3.249
 4289W        W 8033   9.868   4.263  10.509
 4290W        W 8034   7.721   2.741  11.881
 4291W        W 8035   3.609   6.890   2.303
 4292W        W 8036   1.263   8.774   1.819
 4293W        W 8037   4.172   3.969   1.473
 4294W        W 8038   4.063   9.928   2.906
 4295W        W 8039   2.626   5.949  10.848
 4296W        W 8040   8.403   0.570   2.712
 4297W        W 8041   5.701   0.322   1.697
 4298W        W 8042   0.999   7.479  10.774
 4299W        W 8043   6.607   0.501   3.121
 4300W        W 8044   6.138   8.166   3.663
 4301W        W 8045   2.859   8.781   0.792
 4302W        W 8046   2.259   7.688   3.514
 4303W        W 8047   5.965   7.199   0.362
 4304W        W 8048   6.709   9.630   3.469
 4305W        W 8049   4.277   9.936  10.487
 4306W        W 8050   9.402   7.807   8.988
 4307W        W 8051   4.206   3.097  11.744
 4308W        W 8052   6.470   4.061   1.846
 4309W        W 8053   6.233   7.928  11.597
 4310W        W 8054   3.261   0.197   3.197
 4311W        W 8055   4.229   8.118  11.297
 4312W        W 8056   1.344   5.799  10.473
 4313W        W 8057   5.841   1.887   1.429
 4314W        W 8058   2.124   5.145  10.764
 4315W        W 8059   7.953   2.288   0.446
 4316W        W 8060   5.740   9.343   3.546
 4317W        W 8061   8.505   2.740   1.686
 4318W        W 8062   4.128  10.421  11.938
 4319W        W 8063   8.764   6.589  11.790
 4320W        W 8064   6.929   0.444   0.278
 4321W        W 8065   0.376   1.454   2.714
 4322W        W 8066   0.181   6.039   8.996
 4323W        W 8067   2.789   0.327   1.071
 4324W        W 8068   3.877   3.896   0.501
 4325W        W 8069   2.962   7.915  11.703
 4326W        W 8070   3.978   8.303  10.038
 4327W        W 8071   2.744   6.884  10.734
 4328W        W 8072   4.089   0.075   9.951
 4329W        W 8073   3.777   9.565   9.006
 4330W        W 8074   2.783   8.036   0.191
 4331W        W 8075   4.669   2.036   9.520
 4332W        W 8076   6.003   4.997   0.949
 4333W        W 8077   2.661   6.609  11.429
 4334W        W 8078   6.618   0.268   2.625
 4335W        W 8079   2.685   2.279   9.061
 4336W        W 8080   0.420   1.709   2.201
 4337W        W 8081   9.821   7.956   0.189
 4338W        W 8082   2.603   8.027  11.370
 4339W        W 8083   9.890   7.965   3.273
 4340W        W 8084   4.448   2.387  11.043
 4341W        W 8085  10.422   8.963   1.756
 4342W        W 8086   2.769   5.916   3.915
 4343W        W 8087   8.858   8.752   0.762
 4344W        W 8088   4.086   7.993   2.830
 4345W        W 8089   5.695   6.244   1.911
 4346W        W 8090  10.464   6.561  10.143
 4347W        W 8091   9.885   3.716   2.154
 4348W        W 8092   3.852   5.074   9.778
 4349W        W 8093   0.804   4.184   9.045
 4350W        W 8094   3.315   8.922   1.911
 4351W        W 8095   8.543   6.695   8.945
 4352W        W 8096   9.424   9.380  11.019
 4353W        W 8097   6.027  10.018   0.356
 4354W        W 8098   3.173  10.459  11.898
 4355W        W 8099   9.772   7.446   8.897
 4356W        W 8100   6.102   9.310   9.151
 4357W        W 8101   1.945   1.782   0.034
 4358W        W 8102   2.546   8.533   1.833
 4359W        W 8103   7.600   5.671  10.336
 4360W        W 8104   5.152   5.235  10.062
 4361W        W 8105  10.330   0.929   0.957
 4362W        W 8106   8.094   3.167   0.702
 4363W        W 8107   9.119   8.605   0.305
 4364W        W 8108   3.606   4.226   2.735
 4365W        W 8109   0.535   1.333   1.362
 4366W        W 8110   0.985   6.186  10.355
 4367W        W 8111   9.346   4.939  11.402
 4368W        W 8112   0.878   9.611   1.839
 4369W        W 8113   0.464   9.817   3.156
 4370W        W 8114   2.760   4.727  11.739
 4371W        W 8115   5.250   7.674   0.489
 4372W        W 8116   9.348   9.543   1.022
 4373W        W 8117   2.776   3.642   9.631
 4374W        W 8118   1.749   2.941   1.240
 4375W        W 8119   1.376   2.695   0.991
 4376W        W 8120   4.649   0.093   9.027
 4377W        W 8121   9.830   3.549   0.228
 4378W        W 8122   2.811   7.223   1.816
 4379W        W 8123   1.157   2.838  11.216
 4380W        W 8124   1.839   9.550   1.484
 4381W        W 8125   7.615   2.307   1.380
 4382W        W 8126   4.941   2.237  10.973
 4383W        W 8127  10.239   8.044   0.927
 4384W        W 8128   8.348   7.094   3.632
 4385W        W 8129   5.922   3.960   0.267
 4386W        W 8130   7.502   8.453   0.970
 4387W        W 8131   3.706   4.520   3.578
 4388W        W 8132   9.016   5.504  10.770
 4389W        W 8133   0.547   5.765  11.535
 4390W        W 8134   6.092   2.863   0.169
 4391W        W 8135   1.628   4.141  10.271
 4392W        W 8136   4.340   2.196   1.891
 4393W        W 8137   3.392  10.067   9.530
 4394W        W 8138   3.833   2.635   1.411
 4395W        W 8139   9.692   0.181  11.765
 4396W        W 8140   9.883   8.856   3.002
 4397W        W 8141   5.478   7.257   1.970
 4398W        W 8142   2.115   3.960  10.243
 4399W        W 8143   7.983   5.617   0.338
 4400W        W 8144   2.344   7.873  10.546
 4401W        W 8145   2.292   5.536  10.454
 4402W        W 8146   8.595   5.777   2.204
 4403W        W 8147   4.824   0.759   3.118
 4404W        W 8148   0.452   2.209   3.090
 4405W        W 8149   8.174   4.732   0.677
 4406W        W 8150   3.670   1.446   2.000
 4407W        W 8151   0.871   0.023   3.443
 4408W        W 8152   8.112   8.512   2.113
 4409W        W 8153   2.849   4.521   2.413
 4410W        W 8154   0.748   3.116   0.292
 4411W        W 8155   2.819   3.799   2.857
 4412W        W 8156   9.501   9.014   2.335
 4413W        W 8157   8.686   6.734   2.355
 4414W        W 8158   6.441   4.134   9.182
 4415W        W 8159   7.206   9.251   8.739
 4416W        W 8160   9.871   5.059   9.596
 4417W        W 8161   3.189  10.493   2.682
 4418W        W 8162   6.898   5.517   2.540
 4419W        W 8163   3.599   1.293   2.937
 4420W        W 8164   3.847   9.041   9.035
 4421W        W 8165   7.002   3.123   1.704
 4422W        W 8166   0.804   8.930   9.890
 4423W        W 8167   3.403   3.116  11.526
 4424W        W 8168   4.024   7.527   1.772
 4425W        W 8169   0.334   6.609   1.803
 4426W        W 8170   9.395   4.404  11.359
 4427W        W 8171   3.192   5.398   0.444
 4428W        W 8172   6.220   3.958   3.527
 4429W        W 8173   4.710   7.084   0.136
 4430W        W 8174   4.718   3.507  11.960
 4431W        W 8175   5.636   1.748   9.006
 4432W        W 8176   8.877   4.764   3.391
 4433W        W 8177   1.385   5.218   9.813
 4434W        W 8178   8.391   3.255   9.737
 4435W        W 8179   7.961   9.135  11.066
 4436W        W 8180   0.815   1.236   2.808
 4437W        W 8181   3.249   8.805   9.265
 4438W        W 8182   7.555   2.015   0.674
 4439W        W 8183   7.472   8.182   8.585
 4440W        W 8184   7.435   7.889   0.434
 4441W        W 8185   8.500   6.438  10.433
 4442W        W 8186   0.681   6.843   9.411
 4443W        W 8187   5.654   5.067   9.332
 4444W        W 8188   5.920   1.291   3.195
 4445W        W 8189   5.103   0.825   8.745
 4446W        W 8190   5.639   0.020   3.412
 4447W        W 8191   5.943   7.327   0.971
 4448W        W 8192   1.253   9.972   1.832
 4449W        W 8193   6.902   5.175   2.929
 4450W        W 8194   7.945   9.738   9.808
 4451W        W 8195   6.401   6.953   0.514
 4452W        W 8196   9.496   9.981   8.951
 4453W        W 8197   9.801   4.685  11.422
 4454W        W 8198   5.924   2.755   3.306
 4455W        W 8199   4.642  10.095   8.870
 4456W        W 8200   4.404   3.644   8.621
 4457W        W 8201   8.971   6.585   3.130
 4458W        W 8202   4.680   6.899   2.640
 4459W        W 8203   2.695   7.518   3.315
 4460W        W 8204   5.643   0.793   0.337
 4461W        W 8205   3.298   5.981   4.071
 4462W        W 8206   9.697   5.695   1.389
 4463W        W 8207   1.786   4.616  10.212
 4464W        W 8208   9.170   9.804  11.160
 4465W        W 8209   7.932   8.967   2.322
 4466W        W 8210   6.989   2.176   9.331
 4467W        W 8211   4.795   1.776   0.499
 4468W        W 8212   4.800   7.323   2.945
 4469W        W 8213   1.359   1.267   9.386
 4470W        W 8214   9.849   0.006   1.744
 4471W        W 8215  10.243   5.121   8.739
 4472W        W 8216   7.614   6.606   9.533
 4473W        W 8217   2.197   2.227   0.125
 4474W        W 8218   8.472   2.902   0.334
 4475W        W 8219   8.310   6.539   0.580
 4476W        W 8220   5.630   5.664   2.743
 4477W        W 8221   5.175   4.362  10.350
 4478W        W 8222   6.404   2.196   8.853
 4479W        W 8223   3.276   9.109   0.779
 4480W        W 8224   4.329   3.392  10.392
 4481W        W 8225   4.881   1.538   1.196
 4482W        W 8226   7.538   1.845  11.803
 4483W        W 8227   8.064   3.967   3.621
 4484W        W 8228   3.601   2.729   9.525
 4485W        W 8229   2.788   4.330  11.431
 4486W        W 8230   9.422   1.882   9.072
 4487W        W 8231   3.389   4.450   4.007
 4488W        W 8232   9.268   3.267  10.356
 4489W        W 8233   7.752   3.213  10.978
 4490W        W 8234   1.379   5.582   1.963
 4491W        W 8235   1.859   8.155   2.291
 4492W        W 8236   7.910   3.679  10.811
 4493W        W 8237   5.299   4.677   2.671
 4494W        W 8238   1.867   7.095   0.039
 4495W        W 8239   6.931   1.299   1.270
 4496W        W 8240   5.433   7.418  11.675
 4497W        W 8241   1.753   4.596   9.188
 4498W        W 8242   8.638   4.191  10.022
 4499W        W 8243   5.161   8.009  11.351
 4500W        W 8244  10.214   6.710   2.902
 4501W        W 8245   4.704  10.236   1.202
 4502W        W 8246  10.257   7.280   2.134
 4503W        W 8247   4.624   3.258   0.566
 4504W        W 8248   1.879   4.752   2.825
 4505W        W 8249   0.265   7.434   3.330
 4506W        W 8250   3.944   9.920  11.889
 4507W        W 8251   8.103   8.259   1.671
 4508W        W 8252   9.389   7.121   8.704
 4509W        W 8253   3.183   0.920   9.271
 4510W        W 8254   1.972   3.268   0.554
 4511W        W 8255   5.906   2.104   9.653
 4512W        W 8256   5.225   7.525   8.544
 4513W        W 8257   6.784   8.896  11.456
 4514W        W 8258   9.033   3.180   3.408
 4515W        W 8259  10.095   2.214   1.125
 4516W        W 8260   1.341   7.116   0.884
 4517W        W 8261   8.609   2.187   8.749
 4518W        W 8262   7.311   2.236   1.770
 4519W        W 8263   8.510   0.240   1.266
 4520W        W 8264  10.379   0.857   9.218
 4521W        W 8265   0.789   2.979   3.661
 4522W        W 8266   9.880   6.619   3.305
 4523W        W 8267   3.862   5.673   2.714
 4524W        W 8268   8.474  10.241   1.825
 4525W        W 8269   8.637   4.169  10.940
 4526W        W 8270   4.153   9.890   8.859
 4527W        W 8271   1.155   2.321   2.210
 4528W        W 8272   6.923   7.599   8.942
 4529W        W 8273   1.410   3.133   9.578
 4530W        W 8274   2.807  10.410  11.073
 4531W        W 8275   8.237   5.973  10.428
 4532W        W 8276   6.667   1.548   1.709
 4533W        W 8277   3.806   8.614  10.436
 4534W        W 8278   4.373   0.014   0.820
 4535W        W 8279   2.461   7.648  11.006
 4536W        W 8280   3.176   2.959   2.915
 4537W        W 8281   1.756   0.221   2.084
 4538W        W 8282   8.477   6.316   8.586
 4539W        W 8283   7.504   2.162   0.198
 4540W        W 8284   6.935   7.436  11.713
 4541W        W 8285   3.281   6.514   9.974
 4542W        W 8286   6.053   3.788  11.735
 4543W        W 8287   2.099   4.796  11.149
 4544W        W 8288   2.430   5.106   1.918
 4545W        W 8289   3.287   7.866  10.358
 4546W        W 8290   0.732   7.891   0.524
 4547W        W 8291  10.233   6.982  10.306
 4548W        W 8292   2.027   5.030   9.477
 4549W        W 8293   4.640   5.046   1.098
 4550W        W 8294   2.319   0.702  11.517
 4551W        W 8295   4.066   9.087   2.586
 4552W        W 8296   7.154   9.341   9.770
 4553W        W 8297   9.804   6.115   3.374
 4554W        W 8298   9.689  10.476   9.088
 4555W        W 8299   7.424   7.409   8.953
 4556W        W 8300   5.713   4.162  11.842
 4557W        W 8301   6.590   7.596   3.175
 4558W        W 8302  10.098   5.619  11.303
 4559W        W 8303   8.986   8.884   2.832
 4560W        W 8304   2.385   3.666  10.583
 4561W        W 8305   5.662   0.320   2.233
 4562W        W 8306   0.240  10.428  11.705
 4563W        W 8307  10.343   1.643   3.446
 4564W        W 8308   0.307   0.141   0.706
 4565W        W 8309   3.296   3.805   1.697
 4566W        W 8310   7.128   9.014  10.465
 4567W        W 8311   7.370   7.157   1.140
 4568W        W 8312   4.573   6.210   2.734
 4569W        W 8313   8.672   6.970  11.390
 4570W        W 8314   5.951   8.601  11.010
 4571W        W 8315   1.254   3.170   1.152
 4572W        W 8316   8.212   9.420   2.246
 4573W        W 8317   6.477   4.072   0.338
 4574W        W 8318   3.158   9.809   1.884
 4575W        W 8319   2.641   7.684   9.062
 4576W        W 8320   0.715   4.344  11.718
 4577W        W 8321   4.234   9.086  11.591
 4578W        W 8322   7.949   7.549   9.056
 4579W        W 8323   3.312   1.256  11.968
 4580W        W 8324   8.083   6.709   8.714
 4581W        W 8325   3.554   1.434  11.542
 4582W        W 8326   3.920   9.618  10.289
 4583W        W 8327   1.672   2.758  11.296
 4584W        W 8328   5.347   9.558   2.473
 4585W        W 8329   9.216  10.318   9.260
 4586W        W 8330   7.278   8.487   0.281
 4587W        W 8331   8.046  10.107   0.857
 4588W        W 8332   9.519   2.798  10.378
 4589W        W 8333   5.161   0.350  10.096
 4590W        W 8334   7.349   8.529   2.293
 4591W        W 8335   7.159   5.038   2.505
 4592W        W 8336   3.138  10.449  10.455
 4593W        W 8337   2.425   3.294   9.807
 4594W        W 8338   2.456   5.564   2.711
 4595W        W 8339   7.870   5.513   3.529
 4596W        W 8340  10.448   6.600   3.394
 4597W        W 8341   7.819   8.788  11.449
 4598W        W 8342   7.870   3.154   2.608
 4599W        W 8343   2.312   0.229   0.358
 4600W        W 8344   0.809   3.979   0.680
 4601W        W 8345   3.866   4.079  10.009
 4602W        W 8346   1.359   6.509  11.547
 4603W        W 8347   6.677   2.302   1.233
 4604W        W 8348   1.231   1.538  11.697
 4605W        W 8349   2.218   9.970   3.445
 4606W        W 8350   9.506   7.048   0.474
 4607W        W 8351   1.345   2.326   1.741
 4608W        W 8352  10.292   9.229   0.398
 4609W        W 8353   0.202   1.758   3.090
 4610W        W 8354   4.663   3.604  11.469
 4611W        W 8355   5.088   1.742   9.755
 4612W        W 8356   7.703   3.591   1.586
 4613W        W 8357   1.165   0.578  11.910
 4614W        W 8358   5.416   7.957   9.108
 4615W        W 8359   9.595   2.320   8.825
 4616W        W 8360   2.200   6.696   3.409
 4617W        W 8361   2.736   7.063  11.645
 4618W        W 8362   6.104   6.574   2.401
 4619W        W 8363   4.450   4.371   0.193
 4620W        W 8364   6.917   0.702   2.676
 4621W        W 8365   5.240   3.021   1.611
 4622W        W 8366   1.329   2.389   2.737
 4623W        W 8367   0.155   5.191   0.543
 4624W        W 8368   6.997   2.683   9.514
 4625W        W 8369   3.539   6.389   3.077
 4626W        W 8370   0.068   7.953   9.425
 4627W        W 8371   1.446   8.868   1.354
 4628W        W 8372   1.671   4.053   0.180
 4629W        W 8373   6.702   7.520  10.752
 4630W        W 8374  10.036   2.641   8.854
 4631W        W 8375   9.975  10.057   8.751
 4632W        W 8376   8.981   9.609  10.303
 4633W        W 8377   3.686   3.130   0.957
 4634W        W 8378   0.859   4.079   9.936
 4635W        W 8379   2.310   4.307  11.244
 4636W        W 8380   1.901   6.385   1.106
 4637W        W 8381   9.084   5.021   1.949
 4638W        W 8382   0.735   1.364  11.545
 4639W        W 8383   3.355   9.246   9.046
 4640W        W 8384   5.421   7.581  11.194
 4641W        W 8385   6.976   2.362  11.183
 4642W        W 8386   5.406   8.539   2.415
 4643W        W 8387   9.326  10.279  11.326
 4644W        W 8388   3.801   1.358   2.474
 4645W        W 8389   5.341   3.619   8.157
 4646W        W 8390   6.424   9.493   2.383
 4647W        W 8391   2.882   3.208   2.121
 4648W        W 8392   5.724   8.809   3.529
 4649W        W 8393   8.547   6.085  11.321
 4650W        W 8394   1.015   1.345   0.410
 4651W        W 8395  10.486   9.605   0.112
 4652W        W 8396   0.207   1.109  10.264
 4653W        W 8397   3.955   6.620   1.986
 4654W        W 8398   3.423   5.183   1.934
 4655W        W 8399   2.722   7.196  10.310
 4656W        W 8400   6.265   1.749   1.126
 4657W        W 8401   6.642   9.095   3.180
 4658W        W 8402   4.102   9.167   0.175
 4659W        W 8403   2.350   1.241   9.580
 4660W        W 8404   4.291   0.338  11.697
 4661W        W 8405   7.427   4.963   4.049
 4662W        W 8406   7.849  10.305   9.077
 4663W        W 8407   0.674   6.796   0.326
 4664W        W 8408   8.054   6.129  11.505
 4665W        W 8409   6.247   7.043  11.985
 4666W        W 8410   7.178   1.405  10.286
 4667W        W 8411   0.804   2.610   0.334
 4668W        W 8412   0.935   4.806  10.444
 4669W        W 8413   9.407   8.975  10.661
 4670W        W 8414   6.058   2.876  11.241
 4671W        W 8415   3.161   1.865   2.647
 4672W        W 8416   6.438   5.470  11.295
 4673W        W 8417   3.897   3.159  10.272
 4674W        W 8418   2.860   8.277   0.899
 4675W        W 8419   4.539   3.174   8.441
 4676W        W 8420   4.568   4.083   8.392
 4677W        W 8421   7.972   6.064  10.996
 4678W        W 8422   8.226   7.447  11.903
 4679W        W 8423   8.158   1.174   9.640
 4680W        W 8424   9.372   6.299   2.472
 4681W        W 8425   7.396   3.595   9.362
 4682W        W 8426   1.198   8.878   9.084
 4683W        W 8427   0.701   4.352  11.212
 4684W        W 8428   8.365   8.962   2.016
 4685W        W 8429   7.837   0.911   0.243
 4686W        W 8430  10.478   7.082   2.639
 4687W        W 8431   4.010   1.658   0.809
 4688W        W 8432   4.384   3.974   4.037
 4689W        W 8433   8.689   9.964   0.501
 4690W        W 8434   9.433   3.286   8.923
 4691W        W 8435   0.201   1.442   0.279
 4692W        W 8436   8.405   4.777   1.173
 4693W        W 8437   3.226   9.345   1.637
 4694W        W 8438   2.506   9.124   8.582
 4695W        W 8439   5.156   6.965   2.859
 4696W        W 8440   9.560   1.043   9.454
 4697W        W 8441   4.102   8.718  11.944
 4698W        W 8442   7.641   3.071  11.466
 4699W        W 8443   6.339   6.929   1.008
 4700W        W 8444   5.256   8.043   1.775
 4701W        W 8445   0.058   6.875   2.188
 4702W        W 8446   9.695   5.942   0.931
 4703W        W 8447   3.681   4.338  11.511
 4704W        W 8448   9.868   3.876  11.830
 4705W        W 8449   4.602   2.664   8.307
 4706W        W 8450   7.714   5.378   9.943
 4707W        W 8451   7.605   7.898  11.563
 4708W        W 8452   8.382  10.220  11.281
 4709W        W 8453   0.925   2.101  10.979
 4710W        W 8454   7.561   6.061   1.748
 4711W        W 8455   4.878   8.183   1.387
 4712W        W 8456   4.029   1.584   3.132
 4713W        W 8457   1.624   0.319  11.715
 4714W        W 8458   4.210   5.764   1.841
 4715W        W 8459   7.475   1.764  10.984
 4716W        W 8460   7.731   6.313   9.952
 4717W        W 8461   7.060   3.229   8.438
 4718W        W 8462   3.701   6.027   9.932
 4719W        W 8463   1.363   2.905  10.318
 4720W        W 8464   2.400   8.350   0.047
 4721W        W 8465   8.137   7.638   0.822
 4722W        W 8466   3.592   6.383   2.250
 4723W        W 8467   2.553   6.452   3.136
 4724W        W 8468   5.272   0.424  11.359
 4725W        W 8469   0.381   8.427   2.367
 4726W        W 8470   3.746   2.337  10.852
 4727W        W 8471   5.109   8.473   1.986
 4728W        W 8472   5.234   0.369   2.510
 4729W        W 8473   4.174   5.622   9.779
 4730W        W 8474   3.758   5.433  10.662
 4731W        W 8475   0.447   2.945   2.638
 4732W        W 8476   9.302   4.366   2.945
 4733W        W 8477   2.144   6.164   3.292
 4734W        W 8478   8.993   4.569  11.587
 4735W        W 8479   7.034   5.197  11.042
 4736W        W 8480   7.984   5.503  11.827
 4737W        W 8481   2.636   9.970  11.405
 4738W        W 8482  10.026  10.308   3.628
 4739W        W 8483   8.993   9.875   9.052
 4740W        W 8484   4.666  10.059   2.194
 4741W        W 8485   5.566   9.375  11.242
 4742W        W 8486   3.173   8.673  10.963
 4743W        W 8487   9.560   6.566   0.652
 4744W        W 8488   2.655  10.415  10.556
 4745W        W 8489   2.118   2.580   1.114
 4746W        W 8490   6.971   1.382   2.913
 4747W        W 8491   8.420   9.403   1.765
 4748W        W 8492   4.781   4.483  10.003
 4749W        W 8493   9.387   7.933   1.485
 4750W        W 8494   3.605   7.947   9.961
 4751W        W 8495   5.956   4.169   1.711
 4752W        W 8496   9.868   2.990  11.571
 4753W        W 8497   6.880   3.224  10.778
 4754W        W 8498   8.919   9.953   8.548
 4755W        W 8499  10.411   6.082  10.318
 4756W        W 8500   2.279   0.327   0.912
 4757W        W 8501   0.700   6.005  11.963
 4758W        W 8502   6.003   5.211  11.135
 4759W        W 8503  10.299   3.660   9.861
 4760W        W 8504   5.773   8.936  11.460
 4761W        W 8505   9.861   6.423   9.971
 4762W        W 8506   4.896   1.176  11.741
 4763W        W 8507   9.917   4.394  11.895
 4764W        W 8508   8.839   7.247   9.424
 4765W        W 8509   4.727   0.327   0.548
 4766W        W 8510   7.414   5.299   3.069
 4767W        W 8511   3.918  10.083   9.574
 4768W        W 8512   8.754   0.927  10.973
 4769W        W 8513   1.401   5.527   1.401
 4770W        W 8514   6.655   1.500   0.841
 4771W        W 8515   0.970   7.694   1.361
 4772W        W 8516  10.266   7.510  11.425
 4773W        W 8517   3.610   9.904   2.654
 4774W        W 8518   5.910   2.422   0.903
 4775W        W 8519   2.167   4.048  11.660
 4776W        W 8520   3.147   8.090   1.406
 4777W        W 8521   1.292   2.814   2.429
 4778W        W 8522   7.055   8.422   2.923
 4779W        W 8523   2.224   3.053   0.973
 4780W        W 8524   7.888   9.943   0.303
 4781W        W 8525   7.015   8.583  10.192
 4782W        W 8526   6.142   8.842   0.775
 4783W        W 8527   9.457   3.797   8.741
 4784W        W 8528   3.224   3.611   2.165
 4785W        W 8529   8.516   9.765  11.946
 4786W        W 8530   5.670   8.535  10.471
 4787W        W 8531   9.087   9.305   2.536
 4788W        W 8532   2.559   0.949  11.927
 4789W        W 8533   1.327  10.267   3.280
 4790W        W 8534   5.645   5.992   2.350
 4791W        W 8535   1.476   8.134  10.536
 4792W        W 8536   9.495   4.564   1.478
 4793W        W 8537   5.960   8.438   2.336
 4794W        W 8538   5.868   8.895   0.337
 4795W        W 8539   4.295   1.888   0.453
 4796W        W 8540   6.056   9.814   9.125
 4797W        W 8541   8.885   1.213   0.768
 4798W        W 8542   4.657   4.989   2.129
 4799W        W 8543   6.726   1.134  10.568
 4800W        W 8544   3.399   3.244   9.068
 4801W        W 8545   8.143   9.371   8.783
 4802W        W 8546   3.758   2.314  10.325
 4803W        W 8547   7.398   7.085   2.156
 4804W        W 8548   8.973   3.704   3.356
 4805W        W 8549   5.072   9.431  11.240
 4806W        W 8550   7.430  10.328   8.266
 4807W        W 8551   0.786   3.834   1.169
 4808W        W 8552   5.462   6.889  10.117
 4809W        W 8553   2.934   7.721  11.110
 4810W        W 8554   9.873   0.298   9.556
 4811W        W 8555   6.785   3.704   0.143
 4812W        W 8556   4.989   7.407   1.830
 4813W        W 8557   9.358   6.038   3.597
 4814W        W 8558   7.395   9.740   2.486
 4815W        W 8559  10.131   8.440  11.410
 4816W        W 8560   5.496   2.173   9.324
 4817W        W 8561   3.310   5.483   2.357
 4818W        W 8562   1.460   4.654   3.166
 4819W        W 8563   7.721   5.640   9.503
 4820W        W 8564   0.723   8.303  10.356
 4821W        W 8565  10.295   1.147   0.420
 4822W        W 8566   4.739   9.619   0.131
 4823W        W 8567   8.960   6.519  10.219
 4824W        W 8568   0.249  10.164   0.889
 4825W        W 8569   6.384   2.723   8.982
 4826W        W 8570   4.966   6.631  11.766
 4827W        W 8571   2.616   7.700   9.597
 4828W        W 8572   5.608   0.786   9.532
 4829W        W 8573  10.018   7.371  10.982
 4830W        W 8574   6.797   4.213   8.806
 4831W        W 8575  10.346   9.540  11.623
 4832W        W 8576   3.137   8.102   3.064
 4833W        W 8577   8.514   9.760   8.814
 4834W        W 8578   3.229   5.483  11.512
 4835W        W 8579   0.545   7.638   2.666
 4836W        W 8580   9.370   5.369   2.718
 4837W        W 8581   3.371   9.450  10.416
 4838W        W 8582   7.704   1.972   8.472
 4839W        W 8583   5.469   6.714  11.536
 4840W        W 8584   6.913   6.971   9.490
 4841W        W 8585   0.395   1.597   0.927
 4842W        W 8586  10.210   0.678   1.844
 4843W        W 8587   1.893   8.629   1.306
 4844W        W 8588   3.096   5.213   3.589
 4845W        W 8589   3.810   1.869  10.586
 4846W        W 8590   0.873   9.448  10.878
 4847W        W 8591   0.155   0.442   9.989
 4848W        W 8592   4.285   1.699  11.983
 4849W        W 8593   5.450   7.798   9.953
 4850W        W 8594   0.420   8.739  10.469
 4851W        W 8595   7.121   5.962  11.559
 4852W        W 8596   0.353   9.485  10.829
 4853W        W 8597   3.552   0.786   3.094
 4854W        W 8598   0.104   8.278   1.228
 4855W        W 8599   4.148   5.548  11.048
 4856W        W 8600   9.867   1.814   3.522
 4857W        W 8601   7.613   2.736  10.856
 4858W        W 8602   5.567   3.131   0.706
 4859W        W 8603   3.235   2.990   0.720
 4860W        W 8604   3.607   4.897  11.713
 4861W        W 8605   2.371   9.486   3.266
 4862W        W 8606   5.704   3.423  10.300
 4863W        W 8607   0.797   9.743  11.778
 4864W        W 8608   8.532   2.868  10.993
 4865W        W 8609   4.822   2.551   0.243
 4866W        W 8610   9.958   3.799   3.136
 4867W        W 8611   5.445   1.324   3.384
 4868W        W 8612   4.199   4.997   3.005
 4869W        W 8613   3.609   8.156   2.599
 4870W        W 8614   0.844  10.340   9.019
 4871W        W 8615   7.468   0.949   2.038
 4872W        W 8616   9.364   8.791   3.264
 4873W        W 8617  10.151   9.881  11.302
 4874W        W 8618   0.447   3.927   9.680
 4875W        W 8619   1.259   1.467   2.765
 4876W        W 8620   0.990   7.515   0.901
 4877W        W 8621   5.625   3.826  11.442
 4878W        W 8622   7.074   8.321   0.723
 4879W        W 8623   3.844   0.370  12.000
 4880W        W 8624   6.054   0.182  10.378
 4881W        W 8625   6.314   5.143   1.337
 4882W        W 8626   7.912   2.373  11.038
 4883W        W 8627   8.913   0.944  10.354
 4884W        W 8628   3.605   5.258   0.717
 4885W        W 8629   3.742   7.902  10.953
 4886W        W 8630   4.933   9.348   2.200
 4887W        W 8631   1.095   4.141   9.482
 4888W        W 8632   4.179   9.251   2.111
 4889W        W 8633   6.524   6.501   0.287
 4890W        W 8634   7.015   3.028  10.329
 4891W        W 8635   3.117  10.278   0.369
 4892W        W 8636   4.928   4.229   0.378
 4893W        W 8637   5.180  10.438   9.230
 4894W        W 8638   0.827   2.434   1.250
 4895W        W 8639   0.519   3.463  11.435
 4896W        W 8640   2.444   9.043   3.010
 4897W        W 8641   0.657   2.171   2.225
 4898W        W 8642   5.381   0.307   1.267
 4899W        W 8643   0.162   2.249   9.840
 4900W        W 8644   0.161   3.125   3.399
 4901W        W 8645   6.280   4.750  10.739
 4902W        W 8646   4.389   5.368  11.650
 4903W        W 8647   2.406   0.270   1.425
 4904W        W 8648   3.798   2.169   0.872
 4905W        W 8649   2.881   8.531   0.323
 4906W        W 8650   6.570   3.245   2.311
 4907W        W 8651   2.325   7.904   1.582
 4908W        W 8652   9.686   7.494   3.243
 4909W        W 8653   8.118   5.492  10.252
 4910W        W 8654   2.426   2.262   3.292
 4911W        W 8655   1.955   1.152   2.979
 4912W        W 8656   4.398   0.312  10.314
 4913W        W 8657   9.404   6.243   1.962
 4914W        W 8658   4.802   1.754  11.978
 4915W        W 8659   9.139   9.916   0.749
 4916W        W 8660   6.422   7.241   1.386
 4917W        W 8661   3.795   5.650   0.954
 4918W        W 8662   8.375   5.676  11.033
 4919W        W 8663   6.605   8.783   9.366
 4920W        W 8664   0.498   3.093  11.855
 4921W        W 8665   3.726   6.478   0.944
 4922W        W 8666   0.904   5.822  11.168
 4923W        W 8667   9.502   3.044   3.262
 4924W        W 8668   7.589   4.507   1.794
 4925W        W 8669   9.573   0.621   9.818
 4926W        W 8670   0.307   8.985  10.026
 4927W        W 8671   7.452   8.345  10.992
 4928W        W 8672   1.836   5.434   9.184
 4929W        W 8673   1.793   3.635   2.334
 4930W        W 8674   5.212   0.180  11.817
 4931W        W 8675   1.914   5.622   2.728
 4932W        W 8676   7.637   6.979  11.438
 4933W        W 8677   8.348   1.907   3.440
 4934W        W 8678  10.357   5.150  11.101
 4935W        W 8679   2.289   7.355  10.590
 4936W        W 8680   8.990   1.985   1.725
 4937W        W 8681   5.993   3.301  11.908
 4938W        W 8682   7.151   2.137   1.241
 4939W        W 8683   4.571   2.223   9.026
 4940W        W 8684   6.108  10.369  11.344
 4941W        W 8685   2.617  10.214   2.147
 4942W        W 8686   3.351   7.871  11.332
 4943W        W 8687   4.342   6.273   1.966
 4944W        W 8688   1.501   7.740   3.468
 4945W        W 8689   9.876   0.904   9.048
 4946W        W 8690   4.585   8.866   0.853
 4947W        W 8691   2.773   8.394  11.712
 4948W        W 8692   7.965   0.227   1.983
 4949W        W 8693   3.210   5.756   3.589
 4950W        W 8694   0.235   6.672   2.867
 4951W        W 8695   7.314   2.635   9.123
 4952W        W 8696   5.458   3.905   3.956
 4953W        W 8697   1.917   0.394   1.304
 4954W        W 8698   4.276   6.369  11.475
 4955W        W 8699   9.078   2.677  11.755
 4956W        W 8700   0.488   4.660   9.086
 4957W        W 8701   0.036   7.507   0.618
 4958W        W 8702   7.717   1.615  11.402
 4959W        W 8703   3.535   4.866   9.100
 4960W        W 8704   8.889   1.379   3.027
 4961W        W 8705   1.872   3.359   8.910
 4962W        W 8706   2.705   0.739   9.377
 4963W        W 8707   7.104   9.806   3.157
 4964W        W 8708   4.184  10.343   1.307
 4965W        W 8709   8.371   0.512   2.200
 4966W        W 8710   2.396   7.245   2.157
 4967W        W 8711   9.246   6.514  11.621
 4968W        W 8712  10.403   8.866  11.360
 4969W        W 8713   4.100   0.803  11.854
 4970W        W 8714   2.286   3.796   2.157
 4971W        W 8715   3.123   5.705   8.760
 4972W        W 8716   0.448   5.966   9.476
 4973W        W 8717   0.848   6.576   3.353
 4974W        W 8718   5.632   2.369   1.349
 4975W        W 8719   2.107   0.203   8.997
 4976W        W 8720   9.007   9.944   0.048
 4977W        W 8721   0.935   6.605   9.814
 4978W        W 8722  10.483   6.617   1.037
 4979W        W 8723   9.459   4.635  11.842
 4980W        W 8724   5.935   6.064  11.037
 4981W        W 8725   6.605   5.027   1.738
 4982W        W 8726   8.528   7.910  11.461
 4983W        W 8727   5.674   0.224   2.756
 4984W        W 8728   6.175   1.751   3.225
 4985W        W 8729   0.662   3.055   3.150
 4986W        W 8730   6.574  10.248  10.617
 4987W        W 8731   5.551   3.831   9.941
 4988W        W 8732   9.882   8.208   2.345
 4989W        W 8733   5.993   6.416   2.885
 4990W        W 8734   5.222  10.357   1.057
 4991W        W 8735   5.553   1.759  11.032
 4992W        W 8736   5.288   8.884   8.875
 4993W        W 8737   8.301   0.507  10.914
 4994W        W 8738   5.066   8.850   9.865
 4995W        W 8739   8.847   1.864  11.152
 4996W        W 8740   3.191  10.084   2.344
 4997W        W 8741   9.561   0.991  10.489
 4998W        W 8742   1.655   7.184   1.371
 4999W        W 8743   5.715   7.560   8.362
 5000W        W 8744   4.713   4.104  11.399
 5001W        W 8745   1.227  10.248   1.397
 5002W        W 8746   3.485  10.445   0.732
 5003W        W 8747   6.615   9.115   2.647
 5004W        W 8748   5.851  10.303   2.991
 5005W        W 8749   4.891   8.308   8.523
 5006W        W 8750   2.652   1.581   1.775
 5007W        W 8751   1.887   2.606   0.255
 5008W        W 8752   1.697   8.908   0.896
 5009W        W 8753   2.308   8.482   9.910
 5010W        W 8754   7.560   6.022  11.301
 5011W        W 8755   8.879   3.734  10.108
 5012W        W 8756   0.896   6.553  10.713
 5013W        W 8757   5.167   8.532   3.300
 5014W        W 8758   4.563   3.267   2.270
 5015W        W 8759   7.638   6.461   8.549
 5016W        W 8760   0.266   4.261  10.932
 5017W        W 8761   0.404   3.423   9.587
 5018W        W 8762   5.512   8.527  11.319
 5019W        W 8763   5.317   1.146   2.000
 5020W        W 8764   6.437   6.790   3.608
 5021W        W 8765   4.219   3.848   3.205
 5022W        W 8766   5.243   1.881  11.727
 5023W        W 8767   1.811   8.202   2.805
 5024W        W 8768   6.457   7.820   9.057
 5025W        W 8769   8.870   5.251   2.791
 5026W        W 8770  10.298   8.841  10.492
 5027W        W 8771   0.641   9.847   0.764
 5028W        W 8772   1.205  10.470   2.704
 5029W        W 8773   7.968   2.484  11.527
 5030W        W 8774   5.140   7.710   2.198
 5031W        W 8775   2.787   6.377   9.423
 5032W        W 8776   2.844   0.337   2.482
 5033W        W 8777   7.445   2.155   2.601
 5034W        W 8778   5.139   9.387   8.991
 5035W        W 8779   1.345   4.836   8.858
 5036W        W 8780   9.416   3.849   2.069
 5037W        W 8781   1.369   7.602  10.323
 5038W        W 8782   9.465   8.541  10.881
 5039W        W 8783   5.110   3.023   9.907
 5040W        W 8784   9.811   5.036   9.049
 5041W        W 8785   0.661   4.378   9.504
 5042W        W 8786   7.829   0.882   9.373
 5043W        W 8787   8.916   8.001   0.723
 5044W        W 8788   9.870   1.347  11.692
 5045W        W 8789   0.014   7.818  10.335
 5046W        W 8790   3.098   1.479   2.976
 5047W        W 8791   8.639   8.690  11.018
 5048W        W 8792  10.432   7.663  11.898
 5049W        W 8793   4.250   7.246  11.943
 5050W        W 8794   5.348   2.398   0.147
 5051W        W 8795   0.269   2.561  11.290
 5052W        W 8796   6.216   8.365   0.906
 5053W        W 8797   6.967   6.874   1.943
 5054W        W 8798   4.791   1.311   0.240
 5055W        W 8799   3.242   8.202   0.040
 5056W        W 8800   0.459   4.625   2.998
 5057W        W 8801   4.791   0.245   1.063
 5058W        W 8802   2.157   0.673  11.033
 5059W        W 8803   9.790   3.127   0.561
 5060W        W 8804   0.559   8.883   2.562
 5061W        W 8805   6.133   2.416   0.449
 5062W        W 8806   2.623   9.116  11.510
 5063W        W 8807   5.706   6.359   0.421
 5064W        W 8808   0.189   7.928  10.842
 5065W        W 8809   0.945   9.943  10.886
 5066W        W 8810   6.163   9.359   2.816
 5067W        W 8811   6.977   7.001   2.997
 5068W        W 8812  10.309   6.265  11.743
 5069W        W 8813   3.242   7.366  11.293
 5070W        W 8814   1.697   1.257   2.527
 5071W        W 8815   0.371   2.626   2.176
 5072W        W 8816   7.450   0.436   0.765
 5073W        W 8817  10.070   7.383   2.608
 5074W        W 8818   8.900   3.824   1.228
 5075W        W 8819   6.895   9.554   9.004
 5076W        W 8820   1.216   0.423  10.900
 5077W        W 8821   6.744   4.167   3.563
 5078W        W 8822   9.824   6.686  10.428
 5079W        W 8823   9.805   3.197   2.476
 5080W        W 8824   1.895   9.453   0.827
 5081W        W 8825   9.987   2.723  10.593
 5082W        W 8826   0.937  10.482  10.030
 5083W        W 8827   6.128   0.177   3.500
 5084W        W 8828   9.355   8.039   0.470
 5085W        W 8829   1.819  10.256  10.006
 5086W        W 8830   3.142   4.952  10.381
 5087W        W 8831   2.577   9.406  10.236
 5088W        W 8832   3.647   4.117  10.494
 5089W        W 8833   2.401   8.588   0.934
 5090W        W 8834   6.101   3.911   2.166
 5091W        W 8835   3.165   8.150  10.937
 5092W        W 8836  10.183   9.435   3.501
 5093W        W 8837   3.761   1.404   8.744
 5094W        W 8838   5.997   5.496   2.410
 5095W        W 8839   5.992   3.245   1.429
 5096W        W 8840   4.100   6.082  11.086
 5097W        W 8841   4.743   8.946  11.520
 5098W        W 8842   2.160   4.436   9.458
 5099W        W 8843   7.451   3.754   8.486
 5100W        W 8844   4.769   7.385   2.404
 5101W        W 8845   8.402   5.519   2.629
 5102W        W 8846   5.037   8.848  11.931
 5103W        W 8847   7.087   3.178   9.405
 5104W        W 8848   0.407   7.907   3.207
 5105W        W 8849   4.352   2.780  11.374
 5106W        W 8850   9.890   3.197   1.472
 5107W        W 8851   3.732   3.625   3.379
 5108W        W 8852   2.974   9.797   0.773
 5109W        W 8853   2.515   4.874   9.529
 5110W        W 8854   2.728   1.314   2.234
 5111W        W 8855   6.195   1.353  11.045
 5112W        W 8856   2.599   3.241  10.334
 5113W        W 8857   4.325   7.501   8.942
 5114W        W 8858   6.535   7.350   3.668
 5115W        W 8859   1.342   6.065   2.175
 5116W        W 8860   9.207   5.964  10.240
 5117W        W 8861   5.094   9.457   1.664
 5118W        W 8862   3.847   1.126   3.376
 5119W        W 8863   3.630   9.619   9.500
 5120W        W 8864   9.700   0.474   2.351
 5121W        W 8865   5.174   2.321  11.406
 5122W        W 8866   1.947   1.711   1.018
 5123W        W 8867   6.961   9.406   2.365
 5124W        W 8868   9.259  10.385   8.731
 5125W        W 8869   5.105   5.616   1.657
 5126W        W 8870   1.479   7.111   9.345
 5127W        W 8871   8.802   0.905   0.343
 5128W        W 8872   9.394   7.547   9.674
 5129W        W 8873   9.087   0.884   1.235
 5130W        W 8874   6.579   6.212   1.323
 5131W        W 8875   0.848   4.828  11.824
 5132W        W 8876   6.585   3.562  11.232
 5133W        W 8877   8.839   7.203   1.137
 5134W        W 8878   6.490   8.356  11.365
 5135W        W 8879   4.332   0.414   8.720
 5136W        W 8880   9.381   3.648  11.949
 5137W        W 8881   2.458   0.906   0.498
 5138W        W 8882   1.239   0.044   2.192
 5139W        W 8883   8.277  10.493   9.277
 5140W        W 8884   8.216   1.424   2.694
 5141W        W 8885   4.114   7.441   8.475
 5142W        W 8886   2.409   6.502  10.593
 5143W        W 8887   5.739   6.522   9.898
 5144W        W 8888   3.334   6.445   0.596
 5145W        W 8889   4.699   1.139   9.750
 5146W        W 8890   6.707   6.466  10.789
 5147W        W 8891   2.290   6.951  10.944
 5148W        W 8892   3.600   7.686   0.251
 5149W        W 8893   5.194   4.174  11.754
 5150W        W 8894   0.420   6.916   3.310
 5151W        W 8895   6.545   0.710  11.488
 5152W        W 8896   2.739   5.552   0.259
 5153W        W 8897   3.802   0.599   8.775
 5154W        W 8898   4.585   7.838   1.074
 5155W        W 8899   8.598   2.900  11.824
 5156W        W 8900   8.969   7.226   8.376
 5157W        W 8901   4.577   6.288   9.446
 5158W        W 8902  10.078  10.271   9.925
 5159W        W 8903   1.918   5.260  11.338
 5160W        W 8904  10.083   3.991   0.867
 5161W        W 8905   8.030   5.904   1.898
 5162W        W 8906   1.997   0.031   1.667
 5163W        W 8907   6.163   0.770   1.651
 5164W        W 8908   4.305   7.210   2.443
 5165W        W 8909   2.174   1.115   2.368
 5166W        W 8910   7.685   5.973   8.425
 5167W        W 8911   7.661   4.613   0.265
 5168W        W 8912   2.727   8.137   8.844
 5169W        W 8913   6.943   5.891   1.455
 5170W        W 8914   9.069   9.426   9.304
 5171W        W 8915   7.465   2.590   0.458
 5172W        W 8916   5.597   1.201   2.803
 5173W        W 8917   0.168   6.095  10.784
 5174W        W 8918   4.187   2.412  10.615
 5175W        W 8919   3.179  10.009   3.449
 5176W        W 8920   6.114   7.855   9.447
 5177W        W 8921   1.441   7.576   0.624
 5178W        W 8922   8.139   6.990  11.344
 5179W        W 8923   5.166   2.696  11.766
 5180W        W 8924   0.392   3.606  11.900
 5181W        W 8925   4.586   7.553   3.854
 5182W        W 8926   9.034   2.633   2.341
 5183W        W 8927   2.707   5.454  10.782
 5184W        W 8928   6.938   2.665   3.040
 5185W        W 8929   0.353   7.979  11.761
 5186W        W 8930  10.251   1.667   0.411
 5187W        W 8931   1.399   6.239   1.184
 5188W        W 8932   2.451   3.785   0.019
 5189W        W 8933   2.686   3.218   0.807
 5190W        W 8934   8.535   8.136   2.043
 5191W        W 8935   6.544   0.461   9.242
 5192W        W 8936   3.103   3.133  11.923
 5193W        W 8937   2.391   2.970  11.518
 5194W        W 8938   0.320   2.355   0.199
 5195W        W 8939   4.871   8.835   0.435
 5196W        W 8940   6.689   7.720   2.493
 5197W        W 8941   4.784   0.806  11.320
 5198W        W 8942   1.939   1.382  10.900
 5199W        W 8943   9.577   4.214  10.933
 5200W        W 8944   3.764   1.872  10.057
 5201W        W 8945   0.941  10.289  10.509
 5202W        W 8946   7.440   1.345   1.197
 5203W        W 8947   5.143   8.806  10.529
 5204W        W 8948   5.766   8.404   8.695
 5205W        W 8949   8.162   0.895   0.682
 5206W        W 8950   4.521   4.252   3.203
 5207W        W 8951   8.425  10.008   2.507
 5208W        W 8952  10.445   8.771   0.297
 5209W        W 8953   1.943   9.028   2.300
 5210W        W 8954   5.761   6.895  11.909
 5211W        W 8955   4.645   2.325   1.494
 5212W        W 8956   5.132   4.796   9.785
 5213W        W 8957   3.371   8.876  10.301
 5214W        W 8958   2.967   0.940   9.761
 5215W        W 8959   6.975   3.762  11.531
 5216W        W 8960   1.402   2.455   8.853
 5217W        W 8961   3.768   7.041   1.757
 5218W        W 8962  10.331   9.941   0.658
 5219W        W 8963   2.677  10.358   1.260
 5220W        W 8964   3.638   9.638   2.002
 5221W        W 8965   5.470   4.599  11.875
 5222W        W 8966   1.665   4.094   2.153
 5223W        W 8967  10.447   5.562   1.864
 5224W        W 8968   0.452   7.163   9.773
 5225W        W 8969   2.466   7.419   8.632
 5226W        W 8970   2.612   4.965  10.717
 5227W        W 8971   5.342   0.332   9.598
 5228W        W 8972   0.781   8.779  10.846
 5229W        W 8973   9.488   0.967   2.451
 5230W        W 8974   4.252   0.412   9.232
 5231W        W 8975   9.747   1.831   1.958
 5232W        W 8976   8.090   6.640   1.086
 5233W        W 8977   6.539   6.708  11.748
 5234W        W 8978   0.458   5.579   8.838
 5235W        W 8979   3.278   1.993   0.397
 5236W        W 8980   5.451   8.890  10.983
 5237W        W 8981   1.048   8.900   8.597
 5238W        W 8982   9.330   8.938  11.510
 5239W        W 8983   6.095   0.875   0.651
 5240W        W 8984   6.101   6.608   1.739
 5241W        W 8985   1.153   1.790   9.324
 5242W        W 8986   5.455   7.991   8.589
 5243W        W 8987   4.804   3.140   1.826
 5244W        W 8988   0.002   1.310   8.994
 5245W        W 8989   2.914   5.716   2.592
 5246W        W 8990   9.403   7.043   1.951
 5247W        W 8991   0.076   7.575   2.835
 5248W        W 8992   0.340  10.495   2.704
 5249W        W 8993   2.423   8.904  10.482
 5250W        W 8994   9.610   9.434   9.481
 5251W        W 8995   7.700   8.031   9.430
 5252W        W 8996   6.376   3.898   8.714
 5253W        W 8997   8.863   2.350  10.073
 5254W        W 8998   2.933   3.767   0.192
 5255W        W 8999   3.496   3.003   1.406
 5256W        W 9000   7.568   0.092   3.326
 5257W        W 9001   1.389   3.793   3.227
 5258W        W 9002   8.708   0.867   9.559
 5259W        W 9003   4.637   5.960   2.270
 5260W        W 9004   2.684   5.346   9.449
 5261W        W 9005   6.467   1.788  10.988
 5262W        W 9006   5.669   9.980  10.598
 5263W        W 9007   1.694   9.894   2.126
 5264W        W 9008   4.243   5.273   2.084
 5265W        W 9009   5.501   8.815  10.094
 5266W        W 9010   5.406   7.131   8.263
 5267W        W 9011   5.538   8.900  11.918
 5268W        W 9012   3.088   4.253   1.845
 5269W        W 9013   1.666   6.011   3.017
 5270W        W 9014   3.017   7.455   9.369
 5271W        W 9015   3.559   6.180   3.584
 5272W        W 9016   9.416   8.893   1.415
 5273W        W 9017   0.389  10.245   9.541
 5274W        W 9018   1.502   7.354   2.623
 5275W        W 9019   8.827   2.231   2.736
 5276W        W 9020   6.589   1.048   2.465
 5277W        W 9021   6.191  10.166   9.476
 5278W        W 9022   8.361   9.049  10.751
 5279W        W 9023   0.587   8.219   0.151
 5280W        W 9024   2.319   1.687   1.363
 5281W        W 9025  10.488   6.737   0.081
 5282W        W 9026   4.342   6.074   0.238
 5283W        W 9027   2.908   9.907   9.539
 5284W        W 9028   7.036   5.808   2.145
 5285W        W 9029   9.081   5.064  10.050
 5286W        W 9030  10.281   4.861   0.853
 5287W        W 9031   2.502   9.924   0.961
 5288W        W 9032   4.288   2.092   0.937
 5289W        W 9033   0.820   1.855   8.904
 5290W        W 9034   6.488   3.231   1.504
 5291W        W 9035   5.302   3.315   8.571
 5292W        W 9036   5.441   9.854   3.800
 5293W        W 9037   5.120   9.014   1.425
 5294W        W 9038   5.228   2.860   3.903
 5295W        W 9039   7.901   1.801   0.274
 5296W        W 9040   7.865   6.379   2.015
 5297W        W 9041   1.657   6.041  10.862
 5298W        W 9042   0.290   0.876   8.902
 5299W        W 9043   5.760   2.864   1.106
 5300W        W 9044   8.671   5.816   8.411
 5301W        W 9045   0.550   5.497   0.454
 5302W        W 9046   7.505   4.721   3.589
 5303W        W 9047   7.967   5.714   0.863
 5304W        W 9048   7.887   2.313   0.964
 5305W        W 9049   0.274  10.396  11.177
 5306W        W 9050   8.201   5.879   3.361
 5307W        W 9051   6.999   8.058  10.467
 5308W        W 9052   7.950  10.262   1.746
 5309W        W 9053   6.115  10.394   0.697
 5310W        W 9054   7.321   4.520   9.988
 5311W        W 9055   3.552   2.626   0.965
 5312W        W 9056   4.713   2.265   3.434
 5313W        W 9057   3.909   3.949   2.412
 5314W        W 9058   2.268   7.081  10.063
 5315W        W 9059   7.467  10.047   9.780
 5316W        W 9060   1.329   1.904   2.483
 5317W        W 9061   5.789   4.652   1.896
 5318W        W 9062   9.503   2.647  11.470
 5319W        W 9063   3.187   3.496   0.740
 5320W        W 9064   9.506   3.875   2.929
 5321W        W 9065   5.750   4.664   2.413
 5322W        W 9066   0.498   3.815   2.566
 5323W        W 9067   4.139   7.314  11.461
 5324W        W 9068   8.421   4.289   2.331
 5325W        W 9069   0.016   5.691   0.697
 5326W        W 9070   0.896   0.135   9.530
 5327W        W 9071   8.505   5.744  10.061
 5328W        W 9072  10.489   2.633  10.433
 5329W        W 9073   5.599   1.480   1.714
 5330W        W 9074   8.961   6.550   8.668
 5331W        W 9075   7.917   4.932   1.090
 5332W        W 9076   7.562   4.447   4.007
 5333W        W 9077   3.786   5.403   2.230
 5334W        W 9078  10.290   1.369  11.967
 5335W        W 9079   8.990   8.398   2.067
 5336W        W 9080   5.547   3.930   9.071
 5337W        W 9081   8.080   9.367   1.352
 5338W        W 9082   8.915   4.191   9.564
 5339W        W 9083   9.032   8.575   9.939
 5340W        W 9084   3.761   3.094   8.712
 5341W        W 9085   7.016   6.948   2.473
 5342W        W 9086   5.408   9.994   8.606
 5343W        W 9087   7.648   9.266  11.440
 5344W        W 9088   9.213   7.001   1.466
 5345W        W 9089   0.152   5.052   2.887
 5346W        W 9090   6.754   6.553   9.776
 5347W        W 9091   9.758   9.460   3.135
 5348W        W 9092   9.552   6.952   2.587
 5349W        W 9093   4.210   6.375  10.631
 5350W        W 9094   3.783   0.510   2.022
 5351W        W 9095   5.840   3.268   8.555
 5352W        W 9096   8.543   4.321   0.296
 5353W        W 9097   8.591   5.194  10.940
 5354W        W 9098   0.288   5.122   9.299
 5355W        W 9099   5.519   6.176   9.234
 5356W        W 9100   9.265   0.060   2.455
 5357W        W 9101   7.150   8.960   1.504
 5358W        W 9102   9.444   4.718   3.299
 5359W        W 9103   5.050   6.007  10.583
 5360W        W 9104   1.386   4.604   1.651
 5361W        W 9105   9.207  10.485   1.158
 5362W        W 9106   0.277   3.196   1.394
 5363W        W 9107   6.997   0.704  11.826
 5364W        W 9108   0.297   3.670   1.196
 5365W        W 9109   0.888   6.529  11.926
 5366W        W 9110   0.514   3.586   0.745
 5367W        W 9111   0.554   9.622  11.265
 5368W        W 9112   3.325   1.817   9.284
 5369W        W 9113   1.422  10.477  10.755
 5370W        W 9114   4.976   1.960   1.457
 5371W        W 9115   4.890   8.074   3.173
 5372W        W 9116   3.211   2.316   9.135
 5373W        W 9117   5.405   5.615  10.496
 5374W        W 9118  10.385   4.007   1.293
 5375W        W 9119   7.581   5.324   0.885
 5376W        W 9120   1.985   6.379  10.277
 5377W        W 9121   6.993   4.702  10.889
 5378W        W 9122   0.802   9.990   1.518
 5379W        W 9123   5.646   3.618   9.469
 5380W        W 9124  10.321   0.349  11.397
 5381W        W 9125   6.476   1.135   1.438
 5382W        W 9126   3.714   8.588   9.466
 5383W        W 9127   6.446   0.919  10.999
 5384W        W 9128   0.973   1.859   0.802
 5385W        W 9129   1.295   2.691   9.831
 5386W        W 9130   6.151   6.409   0.697
 5387W        W 9131   2.774   6.525   1.198
 5388W        W 9132   3.137   3.212   3.631
 5389W        W 9133  10.334   1.289  11.450
 5390W        W 9134   9.176   6.213   0.478
 5391W        W 9135  10.078   1.108   3.099
 5392W        W 9136   8.565   5.229  10.069
 5393W        W 9137   3.733   7.386  11.021
 5394W        W 9138   8.004   0.859  11.743
 5395W        W 9139   8.890   4.050   2.158
 5396W        W 9140   7.955  10.236   3.195
 5397W        W 9141   3.602  10.427   9.803
 5398W        W 9142   0.888   7.179   0.003
 5399W        W 9143   7.426   8.437   9.571
 5400W        W 9144   3.681   4.570   9.782
 5401W        W 9145   9.016   1.357  11.206
 5402W        W 9146   7.653   8.665   2.681
 5403W        W 9147   1.878   6.870   0.970
 5404W        W 9148   3.840   0.381  10.302
 5405W        W 9149   9.153   3.982  11.004
 5406W        W 9150   9.824   9.655  10.299
 5407W        W 9151   5.020   6.019   2.935
 5408W        W 9152   3.714   9.198   0.515
 5409W        W 9153   8.471   7.921   0.465
 5410W        W 9154   9.756   4.605   9.386
 5411W        W 9155   7.500   2.455   2.201
 5412W        W 9156   7.818   4.376  11.333
 5413W        W 9157   8.455   4.761   2.135
 5414W        W 9158   8.879   1.788   2.335
 5415W        W 9159   1.590   4.172   9.441
 5416W        W 9160   5.550   5.379   1.761
 5417W        W 9161   5.431   4.183   0.258
 5418W        W 9162   8.974   1.300  10.700
 5419W        W 9163   3.086   6.878  11.276
 5420W        W 9164   9.791   7.781   2.787
 5421W        W 9165   4.169   3.554   1.181
 5422W        W 9166   1.334   4.808  10.124
 5423W        W 9167   2.348   9.190   0.221
 5424W        W 9168   5.675   2.719   0.407
 5425W        W 9169   3.113   5.186   0.948
 5426W        W 9170   8.773   6.317   0.815
 5427W        W 9171   7.644  10.060   2.796
 5428W        W 9172   1.819   5.471   9.690
 5429W        W 9173   8.737   8.346   3.587
 5430W        W 9174   9.221   0.305  11.940
 5431W        W 9175   4.191   1.224   2.801
 5432W        W 9176   0.750   9.992   0.268
 5433W        W 9177   7.929   0.478   0.519
 5434W        W 9178   1.847  10.399  11.009
 5435W        W 9179   0.382   2.439   2.650
 5436W        W 9180   4.306   5.516   0.937
 5437W        W 9181   5.508   8.876   9.588
 5438W        W 9182   5.616   5.435   8.964
 5439W        W 9183   3.417   4.078   2.260
 5440W        W 9184   6.607   7.857  11.258
 5441W        W 9185   7.788   5.205  10.497
 5442W        W 9186   3.250   9.511   1.150
 5443W        W 9187   1.669   0.240   9.999
 5444W        W 9188   4.934   5.774  11.404
 5445W        W 9189   6.463   8.096   3.266
 5446W        W 9190   2.329   4.641   1.666
 5447W        W 9191   9.981   0.962  11.998
 5448W        W 9192   4.967   7.587  11.583
 5449W        W 9193   5.373   1.671   1.303
 5450W        W 9194   2.831   3.396   1.572
 5451W        W 9195   1.393   0.374  10.417
 5452W        W 9196   4.670   8.081  10.532
 5453W        W 9197   1.614   3.022   0.249
 5454W        W 9198   5.535   8.286  10.880
 5455W        W 9199   7.627   7.409   1.712
 5456W        W 9200   2.662   8.449   2.346
 5457W        W 9201   1.806   2.208   0.975
 5458W        W 9202   3.395   3.831   0.385
 5459W        W 9203   8.494   2.293   9.253
 5460W        W 9204   1.626   1.337  11.321
 5461W        W 9205   3.577   1.891   3.001
 5462W        W 9206   1.148   9.542  10.444
 5463W        W 9207   1.800   0.102   8.568
 5464W        W 9208   0.180   9.204  10.462
 5465W        W 9209   3.880  10.398   2.680
 5466W        W 9210   4.420   7.601   2.734
 5467W        W 9211   0.720   3.321   1.153
 5468W        W 9212   3.651   5.701   1.724
 5469W        W 9213   4.084   9.352   9.372
 5470W        W 9214   4.069   7.507  10.626
 5471W        W 9215   1.978   1.465   3.389
 5472W        W 9216   4.948   9.964   3.467
 5473W        W 9217   0.214   7.408   2.321
 5474W        W 9218   1.812   5.451   2.177
 5475W        W 9219   4.685   0.634   9.045
 5476W        W 9220   0.480   3.818   3.071
 5477W        W 9221   4.315   5.141   9.568
 5478W        W 9222   1.899   2.816   8.412
 5479W        W 9223   8.178   5.041  11.799
 5480W        W 9224   8.072   8.642   0.769
 5481W        W 9225   3.228   7.353  10.365
 5482W        W 9226   7.038   0.770   3.186
 5483W        W 9227   0.711   3.089  10.918
 5484W        W 9228  10.463   9.429   1.992
 5485W        W 9229   6.165   9.048   3.376
 5486W        W 9230   1.111   0.449   9.160
 5487W        W 9231   6.187   6.196   2.054
 5488W        W 9232   4.035   9.902   3.464
 5489W        W 9233   7.036   4.585   3.755
 5490W        W 9234   9.252   3.401   9.795
 5491W        W 9235   4.576   4.148  10.902
 5492W        W 9236   5.042   2.388   9.499
 5493W        W 9237   1.209   4.236  11.020
 5494W        W 9238   8.584   7.158   8.720
 5495W        W 9239   9.350   0.883   8.956
 5496W        W 9240   8.912   1.750   8.809
 5497W        W 9241   5.070   6.108   9.552
 5498W        W 9242   6.116   1.959   0.241
 5499W        W 9243   0.860   6.279   2.951
 5500W        W 9244   4.225   3.617  11.735
 5501W        W 9245   3.304   6.166   8.586
 5502W        W 9246   0.668   8.861   9.090
 5503W        W 9247   6.288   1.387   8.436
 5504W        W 9248   4.577   9.260   0.461
 5505W        W 9249   0.966   1.754   0.104
 5506W        W 9250  10.404   4.485   2.580
 5507W        W 9251   8.633   7.563   0.825
 5508W        W 9252   9.377   1.523   9.532
 5509W        W 9253   9.878   1.351  11.189
 5510W        W 9254   4.293   3.127   2.739
 5511W        W 9255   2.887   2.152  10.340
 5512W        W 9256   4.275   5.227   1.407
 5513W        W 9257   7.619   8.805   0.580
 5514W        W 9258   4.747   1.719  10.366
 5515W        W 9259   6.161   7.564   8.092
 5516W        W 9260   9.278   6.229   0.965
 5517W        W 9261   8.475   6.057   2.644
 5518W        W 9262   3.206   7.132   1.187
 5519W        W 9263   2.785   9.744   2.228
 5520W        W 9264   9.436   3.549   2.500
 5521W        W 9265   6.434   2.300  10.972
 5522W        W 9266   6.173   9.663  11.837
 5523W        W 9267   6.464   2.161  11.456
 5524W        W 9268   5.963   4.654  11.746
 5525W        W 9269   7.205   6.635   8.338
 5526W        W 9270   7.135   1.970  11.493
 5527W        W 9271   1.454   7.913   1.920
 5528W        W 9272   9.076   6.990  11.723
 5529W        W 9273   9.177   2.248  10.942
 5530W        W 9274   0.437   6.936  11.890
 5531W        W 9275   7.384   8.000   2.218
 5532W        W 9276   1.202  10.004   0.510
 5533W        W 9277   0.433   7.632   1.865
 5534W        W 9278   3.388   3.654  10.884
 5535W        W 9279   5.741  10.337  10.978
 5536W        W 9280   2.636   8.819  11.956
 5537W        W 9281   1.278   0.971   2.625
 5538W        W 9282   4.608  10.368   3.361
 5539W        W 9283   9.111   8.893  11.058
 5540W        W 9284   2.209   2.488   9.232
 5541W        W 9285   9.390   8.194   3.076
 5542W        W 9286   6.395   5.342  10.437
 5543W        W 9287   6.547   1.736   0.388
 5544W        W 9288   3.273   2.361  10.640
 5545W        W 9289   5.671   8.348   9.960
 5546W        W 9290   7.432   1.483   2.686
 5547W        W 9291   7.910   8.001  10.239
 5548W        W 9292  10.240   2.749   9.343
 5549W        W 9293   1.667   5.034  10.955
 5550W        W 9294   7.182   9.667   3.665
 5551W        W 9295   1.247   4.171   0.934
 5552W        W 9296   9.771   2.799   9.548
 5553W        W 9297   0.856   0.429   1.447
 5554W        W 9298   6.506   0.781   8.811
 5555W        W 9299   4.761  10.096   1.697
 5556W        W 9300   7.522   9.101   3.472
 5557W        W 9301   9.225   1.231   3.399
 5558W        W 9302   8.055   8.021   2.259
 5559W        W 9303   5.609   2.650   2.449
 5560W        W 9304   2.058   9.028   3.338
 5561W        W 9305   7.160   9.735  11.974
 5562W        W 9306   0.688   0.054  11.426
 5563W        W 9307   8.534   3.189   1.392
 5564W        W 9308   9.025   6.047  11.471
 5565W        W 9309   8.326   2.451  10.762
 5566W        W 9310   3.261   7.302   0.218
 5567W        W 9311   8.309   7.147   0.727
 5568W        W 9312   4.199   0.342   1.749
 5569W        W 9313   0.797   4.776   1.502
 5570W        W 9314   0.986  10.159   8.513
 5571W        W 9315   3.414  10.000   0.964
 5572W        W 9316   5.652   4.121   1.206
 5573W        W 9317   7.370   3.157  10.674
 5574W        W 9318   3.641   3.521   2.440
 5575W        W 9319   8.146   9.828   3.463
 5576W        W 9320   9.836   4.718   2.401
 5577W        W 9321   6.536   6.076   0.652
 5578W        W 9322   9.994   4.480  10.990
 5579W        W 9323  10.325   6.125  11.211
 5580W        W 9324   4.214   0.862   8.942
 5581W        W 9325   1.824   7.366   0.901
 5582W        W 9326   4.260   9.493   1.089
 5583W        W 9327   0.874   2.252  11.971
 5584W        W 9328   5.632   7.248   2.822
 5585W        W 9329   4.725   6.464  10.810
 5586W        W 9330   5.552   2.696  11.393
 5587W        W 9331   7.481   8.952   1.053
 5588W        W 9332   2.826   9.059   0.377
 5589W        W 9333   8.094   4.216   3.174
 5590W        W 9334   8.101   5.105   2.581
 5591W        W 9335   6.562   2.658  11.351
 5592W        W 9336   8.108   4.982   1.573
 5593W        W 9337   1.421   1.673   1.181
 5594W        W 9338   9.723   2.247   2.251
 5595W        W 9339   8.378   2.422  10.265
 5596W        W 9340   3.706   0.433   9.809
 5597W        W 9341   8.855   3.142   2.445
 5598W        W 9342   4.048   9.448   8.444
 5599W        W 9343   7.510   1.941   2.141
 5600W        W 9344   8.946   2.640   0.238
 5601W        W 9345   7.067   6.939  11.714
 5602W        W 9346   5.058   2.365  10.492
 5603W        W 9347   5.981   7.917   2.421
 5604W        W 9348   0.040   2.408   0.934
 5605W        W 9349   6.247   4.650   1.605
 5606W        W 9350   2.488   3.407   2.924
 5607W        W 9351   1.973   4.604   3.294
 5608W        W 9352   7.681   6.447   3.405
 5609W        W 9353   7.084  10.186  10.926
 5610W        W 9354   2.205  10.261   9.260
 5611W        W 9355   7.884   0.240   9.512
 5612W        W 9356   2.956   8.530   3.283
 5613W        W 9357   3.121   0.685  10.923
 5614W        W 9358   2.397  10.236   1.680
 5615W        W 9359   8.579   9.328   9.079
 5616W        W 9360   0.726  10.075  11.333
 5617W        W 9361   7.590   2.817  10.353
 5618W        W 9362   8.525   6.422   9.555
 5619W        W 9363   6.956  10.422   1.221
 5620W        W 9364   4.540   0.312  11.031
 5621W        W 9365   0.369   4.510   1.431
 5622W        W 9366   0.717  10.249  11.827
 5623W        W 9367   2.748   8.562   9.181
 5624W        W 9368   3.044   4.243   0.345
 5625W        W 9369   4.582   0.112   1.521
 5626W        W 9370   0.427   9.382   1.776
 5627W        W 9371   0.985   4.664   9.184
 5628W        W 9372  10.200   2.248  10.644
 5629W        W 9373   7.029   9.899  10.001
 5630W        W 9374   4.618   7.210  11.591
 5631W        W 9375   5.551   3.069  10.630
 5632W        W 9376  10.285   1.563   1.328
 5633W        W 9377   4.092   2.599   0.954
 5634W        W 9378   0.937   2.214   3.196
 5635W        W 9379   1.751   0.740  11.395
 5636W        W 9380   3.183   8.701  11.941
 5637W        W 9381   5.826   8.070   4.049
 5638W        W 9382   8.442   8.500   1.245
 5639W        W 9383   8.630   5.290  11.803
 5640W        W 9384   2.282   4.549  11.693
 5641W        W 9385   9.368   4.220  10.473
 5642W        W 9386   2.398   2.896   8.532
 5643W        W 9387   5.607   7.552   9.377
 5644W        W 9388   6.510   3.420   1.028
 5645W        W 9389   8.069   1.649   9.784
 5646W        W 9390   3.277   3.268   1.772
 5647W        W 9391   4.844  10.339   0.715
 5648W        W 9392   1.781   4.702   0.940
 5649W        W 9393   2.608   4.283   2.860
 5650W        W 9394   1.381   1.923   8.872
 5651W        W 9395   4.732   0.431   2.426
 5652W        W 9396   5.804   5.988   3.124
 5653W        W 9397   1.750   4.351  11.769
 5654W        W 9398   4.706   8.022  11.082
 5655W        W 9399   0.855   5.716  10.215
 5656W        W 9400   0.427  10.219  10.400
 5657W        W 9401   2.381   6.972   1.723
 5658W        W 9402   9.774   8.597  10.443
 5659W        W 9403   3.847  10.027   1.673
 5660W        W 9404   5.090   2.586   2.713
 5661W        W 9405   5.198   1.646   8.711
 5662W        W 9406   8.313   0.689   3.204
 5663W        W 9407   6.999   1.193   1.926
 5664W        W 9408   9.094   2.186  11.986
 5665W        W 9409   2.302   9.417   2.224
 5666W        W 9410   3.441   0.999   8.706
 5667W        W 9411   5.309   8.486   1.496
 5668W        W 9412   2.486   6.151   0.463
 5669W        W 9413   3.099   0.793  11.921
 5670W        W 9414   7.449   0.656  11.388
 5671W        W 9415   0.519   6.038   2.204
 5672W        W 9416   7.338   6.116   3.202
 5673W        W 9417   5.634   4.093  10.974
 5674W        W 9418   4.364   8.578   1.317
 5675W        W 9419  10.371   7.030  11.235
 5676W        W 9420   5.896   7.085  10.458
 5677W        W 9421   4.998   8.002   0.822
 5678W        W 9422   6.450   3.655   9.910
 5679W        W 9423   1.693   3.565   9.345
 5680W        W 9424   2.773   1.924   0.414
 5681W        W 9425   2.881   6.960   9.401
 5682W        W 9426   0.893   6.626   8.948
 5683W        W 9427   7.978   2.695   2.339
 5684W        W 9428   4.033   2.661   2.721
 5685W        W 9429   0.923   6.185   2.444
 5686W        W 9430  10.290   7.912   0.412
 5687W        W 9431   8.545   0.241   3.222
 5688W        W 9432   0.093   0.759   3.328
 5689W        W 9433   3.464   0.528   3.514
 5690W        W 9434   4.618   4.111   7.882
 5691W        W 9435   7.362   6.542   0.318
 5692W        W 9436   3.173   9.898   2.935
 5693W        W 9437   6.933   9.860   2.674
 5694W        W 9438   7.677   1.852   2.937
 5695W        W 9439  10.394   8.891   9.683
 5696W        W 9440   3.827   2.762  10.551
 5697W        W 9441   9.368   9.088   0.033
 5698W        W 9442   0.026   2.631   8.641
 5699W        W 9443   8.858   5.829   0.329
 5700W        W 9444   4.999   0.829   2.642
 5701W        W 9445   6.619   6.455   1.797
 5702W        W 9446   8.956   7.439   1.571
 5703W        W 9447   5.364   2.758   3.420
 5704W        W 9448  10.018   0.837   9.580
 5705W        W 9449   2.407   5.694   3.183
 5706W        W 9450   6.477   1.118   1.966
 5707W        W 9451   2.684   8.432   2.871
 5708W        W 9452   7.873   7.440  11.518
 5709W        W 9453   6.199   2.035   2.817
 5710W        W 9454   4.165   7.133   1.459
 5711W        W 9455   8.860   8.894   3.363
 5712W        W 9456   3.388   2.685   2.539
 5713W        W 9457   2.929   1.090   8.279
 5714W        W 9458   9.326   3.041   9.404
 5715W        W 9459   8.818   7.520   3.065
 5716W        W 9460   5.128   5.256   9.054
 5717W        W 9461   9.733   5.602  11.673
 5718W        W 9462  10.089   2.077   3.162
 5719W        W 9463  10.464   2.728   2.612
 5720W        W 9464   6.425   6.056  10.851
 5721W        W 9465   7.296   9.872   8.552
 5722W        W 9466   8.615   4.496   0.790
 5723W        W 9467   4.204   3.121   0.894
 5724W        W 9468   4.359   9.514   2.818
 5725W        W 9469   6.132   8.540   3.324
 5726W        W 9470   7.429  10.314   8.789
 5727W        W 9471   9.386   7.948   0.974
 5728W        W 9472   4.753   4.528   9.075
 5729W        W 9473   2.877   6.692  10.294
 5730W        W 9474   3.554   2.397   0.488
 5731W        W 9475   1.406   8.648   0.138
 5732W        W 9476  10.044   6.482   0.131
 5733W        W 9477   6.194  10.042  10.893
 5734W        W 9478   1.749   8.209   3.591
 5735W        W 9479   4.583   9.074   1.353
 5736W        W 9480   9.033   9.091   0.445
 5737W        W 9481   7.388   3.234   1.359
 5738W        W 9482   5.942   2.599   9.410
 5739W        W 9483   3.681   6.259   8.944
 5740W        W 9484   8.077   2.828   9.727
 5741W        W 9485   0.226   3.039  11.431
 5742W        W 9486   2.100   3.441  10.172
 5743W        W 9487   0.875   2.378  11.440
 5744W        W 9488   1.825   3.385   1.040
 5745W        W 9489   1.716   4.137   1.130
 5746W        W 9490   9.736   4.272   2.141
 5747W        W 9491   0.997   0.471   3.241
 5748W        W 9492   2.667   5.876   8.563
 5749W        W 9493   6.144   1.736   8.801
 5750W        W 9494   9.425   5.502   8.858
 5751W        W 9495   4.068   0.928   2.372
 5752W        W 9496   2.400   4.256   2.379
 5753W        W 9497   8.909   9.955   9.541
 5754W        W 9498   8.710   2.372  11.072
 5755W        W 9499   6.009   3.866   9.237
 5756W        W 9500   1.580   0.753   3.222
 5757W        W 9501   1.446   4.601   2.180
 5758W        W 9502   2.260   2.332  10.647
 5759W        W 9503   6.158   9.392  10.022
 5760W        W 9504   8.983   8.874   2.292
 5761W        W 9505   9.401   7.292  11.490
 5762W        W 9506   1.135   7.923   9.993
 5763W        W 9507   9.278   5.063   0.745
 5764W        W 9508   3.719   3.637   0.924
 5765W        W 9509   9.929   9.541   2.125
 5766W        W 9510   9.593   4.846   3.800
 5767W        W 9511   6.916   6.540   3.750
 5768W        W 9512   9.473   4.824   2.786
 5769W        W 9513   3.335   3.224   9.582
 5770W        W 9514   7.460   2.324   3.082
 5771W        W 9515   4.079   8.241  11.777
 5772W        W 9516   9.016   7.467   8.822
 5773W        W 9517   2.554   0.743  10.067
 5774W        W 9518   9.440   9.125   2.878
 5775W        W 9519   0.213   9.522   2.798
 5776W        W 9520   8.289   6.221   9.980
 5777W        W 9521  10.022   4.553   8.956
 5778W        W 9522   8.404   6.996   1.886
 5779W        W 9523  10.269   4.070   1.894
 5780W        W 9524   1.747   0.768   2.719
 5781W        W 9525   1.047   9.992   1.016
 5782W        W 9526   5.821   0.323   9.719
 5783W        W 9527   3.715   2.257   2.663
 5784W        W 9528   2.366   6.226   1.306
 5785W        W 9529   2.279   2.973   9.391
 5786W        W 9530   9.731   7.653  10.656
 5787W        W 9531   4.612   1.349   1.579
 5788W        W 9532   2.412   9.374  10.738
 5789W        W 9533   9.364   5.875   2.735
 5790W        W 9534   9.463   0.285   1.500
 5791W        W 9535   5.923   6.870   0.742
 5792W        W 9536   7.584   4.596   8.635
 5793W        W 9537   3.129   7.039   9.973
 5794W        W 9538   1.827   9.413   1.970
 5795W        W 9539   5.577   9.929   2.205
 5796W        W 9540   9.113   7.209   0.186
 5797W        W 9541   5.116   5.572   2.660
 5798W        W 9542   6.543   0.296  10.476
 5799W        W 9543   2.255   4.970  10.311
 5800W        W 9544   8.532   8.385   0.696
 5801W        W 9545   9.858   2.661   0.397
 5802W        W 9546   9.604   0.770   1.383
 5803W        W 9547   8.336   0.481  11.784
 5804W        W 9548   7.555   0.590  10.370
 5805W        W 9549   8.174   7.951   9.281
 5806W        W 9550   2.253   0.195  10.898
 5807W        W 9551   2.299   1.581   2.187
 5808W        W 9552   1.872   9.546   3.429
 5809W        W 9553   1.162   9.076  10.682
 5810W        W 9554   6.468   7.804  10.305
 5811W        W 9555   3.602   5.106   0.217
 5812W        W 9556   8.037   6.935  10.847
 5813W        W 9557   6.527   3.233   9.127
 5814W        W 9558   9.035   4.106   8.655
 5815W        W 9559   4.185   5.729   2.334
 5816W        W 9560   0.746   7.479   3.136
 5817W        W 9561   0.700   2.131   0.446
 5818W        W 9562   7.591   1.836   1.146
 5819W        W 9563   3.260   4.211   3.568
 5820W        W 9564   5.939   8.041   8.365
 5821W        W 9565   9.607   5.058  10.055
 5822W        W 9566   8.693   5.783   3.538
 5823W        W 9567   4.892   9.508   9.955
 5824W        W 9568   9.748   3.335  10.188
 5825W        W 9569   4.479   1.838   1.378
 5826W        W 9570   4.279   0.674  11.313
 5827W        W 9571   4.136   7.742  11.808
 5828W        W 9572   2.572   1.696   9.476
 5829W        W 9573   8.111   4.618   9.444
 5830W        W 9574   0.477   5.564   2.439
 5831W        W 9575   6.421   7.446  11.703
 5832W        W 9576   3.289   9.429   3.167
 5833W        W 9577   0.864   8.318   9.067
 5834W        W 9578   8.510   9.898   1.012
 5835W        W 9579   9.068   5.019  11.838
 5836W        W 9580   8.129   4.204   9.113
 5837W        W 9581   3.486   8.445  10.021
 5838W        W 9582   9.424   5.841   9.557
 5839W        W 9583   9.622   9.370   1.428
 5840W        W 9584   6.031   2.999   2.828
 5841W        W 9585   5.750   7.823  11.756
 5842W        W 9586   1.462   3.241  11.338
 5843W        W 9587   9.141   6.637   2.142
 5844W        W 9588   5.226   1.902   0.260
 5845W        W 9589   0.732   4.243   2.750
 5846W        W 9590  10.153   9.078  10.923
 5847W        W 9591   0.385   0.301   9.536
 5848W        W 9592   3.187   7.142   2.630
 5849W        W 9593   7.846   6.934   1.905
 5850W        W 9594   9.071   0.354   3.191
 5851W        W 9595   8.927   3.662   2.504
 5852W        W 9596   4.082   0.916   9.499
 5853W        W 9597   4.479   7.186  10.513
 5854W        W 9598   3.351   3.618  11.899
 5855W        W 9599   2.717   9.854   2.710
 5856W        W 9600   3.622   9.817   3.187
 5857W        W 9601   6.414   9.612   8.810
 5858W        W 9602   3.149   9.773   0.280
 5859W        W 9603   0.210   8.049   1.675
 5860W        W 9604   4.394   5.715   2.795
 5861W        W 9605   6.193   1.419   3.604
 5862W        W 9606   1.840   7.772  10.434
 5863W        W 9607   9.368   2.506   9.425
 5864W        W 9608   7.965   7.788   8.548
 5865W        W 9609   2.671   6.391   4.113
 5866W        W 9610   5.483   5.522   2.255
 5867W        W 9611   6.149  10.183   3.731
 5868W        W 9612   3.189   9.373   2.146
 5869W        W 9613   0.247   5.439  11.811
 5870W        W 9614   0.064   2.654   3.548
 5871W        W 9615   5.429  10.393   2.424
 5872W        W 9616   1.016   0.888   2.205
 5873W        W 9617   0.821   3.577   9.866
 5874W        W 9618   8.285   1.418   2.184
 5875W        W 9619   3.788   4.131   3.245
 5876W        W 9620   8.791  10.327   1.404
 5877W        W 9621   4.073   6.229   2.394
 5878W        W 9622   7.524   3.141   8.652
 5879W        W 9623   4.113   4.126   8.667
 5880W        W 9624   6.942   8.941  10.967
 5881W        W 9625   5.458   2.675   9.653
 5882W        W 9626   3.195   9.329   9.535
 5883W        W 9627   8.916   7.920  11.131
 5884W        W 9628   6.467   5.157   9.856
 5885W        W 9629   1.197  10.031   2.359
 5886W        W 9630   1.183   6.679   9.359
 5887W        W 9631   6.508   7.541   9.554
 5888W        W 9632   8.556   3.052   0.884
 5889W        W 9633   7.390   4.995  10.731
 5890W        W 9634  10.110   2.422   3.556
 5891W        W 9635   3.077   7.139   3.157
 5892W        W 9636   7.148   4.707   2.902
 5893W        W 9637  10.303   6.561   0.559
 5894W        W 9638   0.373   8.460   0.835
 5895W        W 9639   1.912   8.683   3.721
 5896W        W 9640   7.021   7.497   2.872
 5897W        W 9641   6.074  10.056   2.059
 5898W        W 9642   1.649   8.987  11.830
 5899W        W 9643   4.830   6.972  10.838
 5900W        W 9644   0.567   3.130   9.983
 5901W        W 9645   0.250   8.533   1.827
 5902W        W 9646   5.141   3.672  11.655
 5903W        W 9647   5.668   2.822  11.868
 5904W        W 9648   2.280   6.014  11.268
 5905W        W 9649   4.704   5.560  10.710
 5906W        W 9650   4.281   3.357   0.196
 5907W        W 9651   5.449   9.613   9.323
 5908W        W 9652   3.882   5.263   1.731
 5909W        W 9653   4.164   7.478   3.557
 5910W        W 9654   4.133   7.904   9.213
 5911W        W 9655   0.835   1.884  11.618
 5912W        W 9656   5.539   2.919  10.129
 5913W        W 9657   3.469   2.188  11.870
 5914W        W 9658   9.098   7.160   9.860
 5915W        W 9659   3.853   7.144   9.368
 5916W        W 9660   6.751   7.983   1.524
 5917W        W 9661   6.182   9.350   0.824
 5918W        W 9662   0.982   7.457   0.409
 5919W        W 9663   8.607   8.686   0.290
 5920W        W 9664   2.677  10.418   0.099
 5921W        W 9665   8.801   3.292  10.564
 5922W        W 9666   1.267   7.757  11.791
 5923W        W 9667   7.384   5.615   2.606
 5924W        W 9668   8.369  10.212   9.775
 5925W        W 9669   6.708  10.500   3.049
 5926W        W 9670   5.590   9.154   9.180
 5927W        W 9671   3.952   0.608   3.397
 5928W        W 9672   2.082   1.120  11.306
 5929W        W 9673   3.931  10.244   0.821
 5930W        W 9674   6.831   7.917   9.398
 5931W        W 9675   8.825   5.040  11.392
 5932W        W 9676   6.121   0.858   2.288
 5933W        W 9677  10.466   3.734   2.669
 5934W        W 9678  10.021   0.972   2.259
 5935W        W 9679   9.369   1.610   8.602
 5936W        W 9680   2.770   4.069   8.974
 5937W        W 9681   2.787   5.087   0.503
 5938W        W 9682   0.827   3.150  10.426
 5939W        W 9683   8.932   6.425  10.728
 5940W        W 9684   4.782   8.978   3.381
 5941W        W 9685   0.844   2.303  10.518
 5942W        W 9686   0.934   9.727   2.987
 5943W        W 9687   7.576  10.445  10.914
 5944W        W 9688   2.570   0.798   1.015
 5945W        W 9689   0.944   8.906   2.923
 5946W        W 9690   1.852   7.398   3.004
 5947W        W 9691  10.365   0.450   9.530
 5948W        W 9692   2.834   0.348  10.293
 5949W        W 9693   8.865   9.767   2.607
 5950W        W 9694   6.126   8.477   9.049
 5951W        W 9695   5.571   5.374  11.380
 5952W        W 9696   2.257   2.411   8.703
 5953W        W 9697   0.432  10.490   9.970
 5954W        W 9698   2.771   3.155   9.441
 5955W        W 9699   5.052   1.814  11.264
 5956W        W 9700   5.758   5.538  11.825
 5957W        W 9701   2.219   0.245   2.310
 5958W        W 9702   7.507   6.565   2.954
 5959W        W 9703   5.211   9.217  10.223
 5960W        W 9704   5.571   5.591   9.456
 5961W        W 9705   6.988   8.412  11.460
 5962W        W 9706   7.054   1.627   8.977
 5963W        W 9707   5.600   1.242   9.765
 5964W        W 9708   2.348   6.910  11.984
 5965W        W 9709   7.527   9.407  11.921
 5966W        W 9710   0.905   3.745   3.299
 5967W        W 9711   4.025   3.576  10.020
 5968W        W 9712   3.651   5.147  10.252
 5969W        W 9713   8.865   9.453   0.820
 5970W        W 9714   4.969   8.184   9.269
 5971W        W 9715   0.905   5.571  10.713
 5972W        W 9716   1.876   6.528  10.755
 5973W        W 9717   9.787   7.652   1.313
 5974W        W 9718   6.622   7.246   9.152
 5975W        W 9719   2.663   5.141  11.993
 5976W        W 9720   7.534   7.527   8.451
 5977W        W 9721   3.565   0.002   0.227
 5978W        W 9722  10.268   8.666  11.843
 5979W        W 9723   4.257   7.237   0.982
 5980W        W 9724   0.974   3.332  11.275
 5981W        W 9725   2.144   4.933   1.297
 5982W        W 9726   4.314   8.842   8.924
 5983W        W 9727   9.543   2.192  11.275
 5984W        W 9728   1.835   5.981   2.036
 5985W        W 9729   5.608  10.042   9.089
 5986W        W 9730   0.214   8.275  10.410
 5987W        W 9731   0.782   7.388  11.540
 5988W        W 9732   9.219   2.153   2.180
 5989W        W 9733   8.570   1.946  10.142
 5990W        W 9734   7.905   1.445   1.470
 5991W        W 9735   3.383   4.716   2.710
 5992W        W 9736   7.875   7.092  11.894
 5993W        W 9737   8.613   3.885   0.568
 5994W        W 9738   5.560   5.877   1.557
 5995W        W 9739   0.458   6.651   0.842
 5996W        W 9740   6.081   4.789   9.833
 5997W        W 9741   6.419   7.006   9.587
 5998W        W 9742   8.824   3.680   9.590
 5999W        W 9743   7.104   3.615   1.565
 6000W        W 9744   2.459   0.685   2.427
 6001W        W 9745   9.893   8.716   2.513
 6002W        W 9746   8.741   8.390  10.352
 6003W        W 9747   4.084   5.580   0.053
 6004W        W 9748   1.391   0.876   9.012
 6005W        W 9749   8.350   3.265   2.417
 6006W        W 9750   2.869   2.590   2.714
 6007W        W 9751   4.699   8.488   3.549
 6008W        W 9752   4.787   2.115  10.037
 6009W        W 9753   9.979   7.467   0.406
 6010W        W 9754   7.505  10.049   3.311
 6011W        W 9755   0.690  10.425   1.289
 6012W        W 9756   3.961   4.758   9.382
 6013W        W 9757   0.724   5.428   1.306
 6014W        W 9758   0.348   3.863   0.349
 6015W        W 9759   6.614   1.005   0.831
 6016W        W 9760   9.524   9.401  11.545
 6017W        W 9761   7.455   9.082  10.884
 6018W        W 9762   3.341   6.066   0.246
 6019W        W 9763   8.962   1.269   9.755
 6020W        W 9764   3.238   0.181  10.893
 6021W        W 9765   4.695   4.984   1.615
 6022W        W 9766   0.428   5.737   0.993
 6023W        W 9767   4.935   8.898  11.045
 6024W        W 9768   9.971   6.906   9.885
 6025W        W 9769   8.599   7.787  11.973
 6026W        W 9770   5.813   4.335   9.999
 6027W        W 9771   8.116   4.286  10.920
 6028W        W 9772   0.368   8.958   3.484
 6029W        W 9773  10.236   2.281  10.117
 6030W        W 9774   0.931   9.057   0.465
 6031W        W 9775   8.393   8.969   1.495
 6032W        W 9776   3.930   4.517   1.034
 6033W        W 9777   1.187   1.878   3.520
 6034W        W 9778  10.237   3.661   0.502
 6035W        W 9779   6.822   0.800   1.240
 6036W        W 9780   3.015   1.705   0.810
 6037W        W 9781   4.303   8.733   3.333
 6038W        W 9782   3.063   9.220  10.045
 6039W        W 9783   0.054   5.484   8.511
 6040W        W 9784   1.574   3.358  11.844
 6041W        W 9785   7.578   1.286   9.014
 6042W        W 9786   5.231   3.589  10.715
 6043W        W 9787   4.826   3.700  11.008
 6044W        W 9788   1.040   5.867   1.236
 6045W        W 9789   1.930   1.802   3.796
 6046W        W 9790   7.884   5.594   2.661
 6047W        W 9791   1.354   6.014  11.354
 6048W        W 9792   0.558   3.895   3.628
 6049W        W 9793   0.966   3.336   0.706
 6050W        W 9794   5.259   8.425   0.978
 6051W        W 9795   4.409   1.144  11.475
 6052W        W 9796   3.097   3.982   0.785
 6053W        W 9797   2.805   8.937   1.645
 6054W        W 9798   0.326   1.089   0.977
 6055W        W 9799   7.647   6.817   9.997
 6056W        W 9800   6.927   3.757   8.543
 6057W        W 9801   8.322   7.574   3.217
 6058W        W 9802   5.711   9.236   2.612
 6059W        W 9803   1.114   0.039   1.001
 6060W        W 9804   0.058   1.153   1.408
 6061W        W 9805   0.676   5.241  10.372
 6062W        W 9806   6.203   5.602  10.852
 6063W        W 9807   3.176   9.183  10.896
 6064W        W 9808   9.152   6.924  11.217
 6065W        W 9809   9.775  10.447   2.246
 6066W        W 9810   3.185   7.106   8.554
 6067W        W 9811   4.978   6.612   9.438
 6068W        W 9812  10.137   4.082   2.402
 6069W        W 9813   0.087   3.711   1.666
 6070W        W 9814   7.873   7.329   3.228
 6071W        W 9815   1.331   6.438   3.137
 6072W        W 9816   0.884   4.468   0.716
 6073W        W 9817   7.918   2.128   3.314
 6074W        W 9818   7.797   8.037   8.945
 6075W        W 9819   3.609   8.065   1.194
 6076W        W 9820   7.657   5.240   2.345
 6077W        W 9821   6.116   2.286   3.267
 6078W        W 9822   2.444   2.432  10.179
 6079W        W 9823   8.582   7.334   9.931
 6080W        W 9824   4.547   8.051   9.501
 6081W        W 9825   3.646   4.074  11.982
 6082W        W 9826   2.607   2.784  11.098
 6083W        W 9827   3.375   4.143   9.849
 6084W        W 9828   0.402   8.126  11.269
 6085W        W 9829   6.620   4.344   1.429
 6086W        W 9830   3.043   6.794   1.605
 6087W        W 9831   1.190   9.892  10.059
 6088W        W 9832   0.705   1.457   8.555
 6089W        W 9833   1.498  10.237   0.859
 6090W        W 9834   8.926   4.843   1.046
 6091W        W 9835   5.302   4.290   9.868
 6092W        W 9836   4.598   2.269   0.580
 6093W        W 9837   3.358   6.667   3.477
 6094W        W 9838   8.920   2.237   9.563
 6095W        W 9839  10.174   1.723  10.960
 6096W        W 9840   1.117   7.396   3.542
 6097W        W 9841   8.374   4.210  10.481
 6098W        W 9842   0.417   9.958   9.118
 6099W        W 9843   6.203   7.649  10.815
 6100W        W 9844   0.276   7.552   9.083
 6101W        W 9845   6.258   7.816   2.851
 6102W        W 9846   8.833   1.775   0.183
 6103W        W 9847   2.597   5.071   1.010
 6104W        W 9848   8.843   6.249   2.316
 6105W        W 9849   2.720   7.211  11.120
 6106W        W 9850   4.491   0.672   1.438
 6107W        W 9851   1.930   4.649  10.697
 6108W        W 9852   0.729   5.054   3.260
 6109W        W 9853   9.379   4.048   3.422
 6110W        W 9854   0.902   5.654   0.788
 6111W        W 9855   8.650   2.725   2.705
 6112W        W 9856   1.664   6.462   1.950
 6113W        W 9857   3.756   6.598   0.370
 6114W        W 9858   8.906   4.256   3.328
 6115W        W 9859   2.396   3.391   1.317
 6116W        W 9860   7.589   9.610   3.034
 6117W        W 9861   9.713   9.565   3.658
 6118W        W 9862   6.596  10.013   9.753
 6119W        W 9863   3.136   4.106  11.844
 6120W        W 9864   8.875   1.008   1.678
 6121W        W 9865   7.842  10.327   2.276
 6122W        W 9866   6.189   0.240   2.986
 6123W        W 9867   5.953   3.141   3.677
 6124W        W 9868   9.923   0.808   0.481
 6125W        W 9869   3.281   8.845   9.777
 6126W        W 9870   7.578   9.945   2.046
 6127W        W 9871   8.785   2.211   0.988
 6128W        W 9872   0.472   8.507   9.982
 6129W        W 9873   3.284   3.586  11.393
 6130W        W 9874   1.419   4.658  10.636
 6131W        W 9875   3.845   1.833   1.250
 6132W        W 9876   5.885   3.657   3.782
 6133W        W 9877   1.318   5.060   0.216
 6134W        W 9878   1.312   3.301   9.083
 6135W        W 9879   7.646   7.526   0.757
 6136W        W 9880   3.820   4.433   2.257
 6137W        W 9881   6.192   7.699   3.469
 6138W        W 9882   6.578   9.459   0.157
 6139W        W 9883   8.074   0.713  10.206
 6140W        W 9884   4.162   7.655  11.094
 6141W        W 9885   6.684   0.712   1.733
 6142W        W 9886   7.711   8.657   0.097
 6143W        W 9887   7.428   8.409   9.046
 6144W        W 9888   8.322   2.909   3.295
 6145W        W 9889   9.304   5.713  11.154
 6146W        W 9890   3.743   4.356   9.073
 6147W        W 9891   3.360   8.491   2.268
 6148W        W 9892   1.784   8.958   1.740
 6149W        W 9893   9.811   8.992   8.935
 6150W        W 9894   5.616   0.614   0.825
 6151W        W 9895   3.717   8.361   0.770
 6152W        W 9896   8.462   2.376   9.762
 6153W        W 9897   2.340   9.801  11.024
 6154W        W 9898   8.601   1.186  11.413
 6155W        W 9899   3.993   0.746   2.873
 6156W        W 9900   6.957   7.464   0.227
 6157W        W 9901   6.512   8.305  11.873
 6158W        W 9902   4.107   4.167   2.840
 6159W        W 9903   3.325   4.573   2.164
 6160W        W 9904   7.349  10.282   2.410
 6161W        W 9905   6.043   6.685   0.275
 6162W        W 9906   3.375   4.481   9.401
 6163W        W 9907   6.562   1.744   9.160
 6164W        W 9908   5.788   5.969   0.732
 6165W        W 9909   0.243   3.373   2.940
 6166W        W 9910  10.004   1.742   0.932
 6167W        W 9911   8.391   1.462   3.177
 6168W        W 9912   6.752   0.747  10.228
 6169W        W 9913   8.834   9.382   3.531
 6170W        W 9914   4.888   2.674   3.170
 6171W        W 9915   0.545   9.546   0.181
 6172W        W 9916   4.826   2.801   1.434
 6173W        W 9917   7.581   3.739   3.397
 6174W        W 9918   6.083   0.696  11.786
 6175W        W 9919   5.958   9.364   2.186
 6176W        W 9920   8.767   2.259  10.573
 6177W        W 9921   7.629   4.099  10.898
 6178W        W 9922   9.062   8.453  11.340
 6179W        W 9923   7.436   6.158   2.245
 6180W        W 9924   2.559   7.480   1.450
 6181W        W 9925   5.261   6.459   0.669
 6182W        W 9926   1.607   9.873  11.532
 6183W        W 9927   0.871   7.536   9.787
 6184W        W 9928  10.013   5.353   0.030
 6185W        W 9929  10.332   2.300   0.038
 6186W        W 9930   6.846   6.139  10.100
 6187W        W 9931   2.463  10.372   0.739
 6188W        W 9932   3.357   2.818  10.418
 6189W        W 9933   0.349   0.293   1.452
 6190W        W 9934   5.251   6.258  11.533
 6191W        W 9935   1.735   1.619   2.902
 6192W        W 9936   3.268   7.869   9.551
 6193W        W 9937   5.329   6.051   0.338
 6194W        W 9938   1.081   3.151   9.969
 6195W        W 9939   7.349  10.174   0.189
 6196W        W 9940   7.431   0.720   2.498
 6197W        W 9941   3.666  10.431  11.727
 6198W        W 9942   0.427   6.137  10.305
 6199W        W 9943   2.739   0.789  10.552
 6200W        W 9944   4.044   5.072  11.967
 6201W        W 9945   1.159   9.767   3.813
 6202W        W 9946  10.033   8.980   1.389
 6203W        W 9947   5.786   1.576   1.008
 6204W        W 9948   1.504   5.991   0.293
 6205W        W 9949   9.562   8.128  10.266
 6206W        W 9950   4.702   4.092   3.655
 6207W        W 9951   7.289   2.809   9.938
 6208W        W 9952   5.740   7.330  10.870
 6209W        W 9953   1.170   6.129   0.721
 6210W        W 9954   2.739   5.553   3.539
 6211W        W 9955  10.275   4.258   3.424
 6212W        W 9956   2.337   5.233   9.861
 6213W        W 9957   6.772   0.286  10.013
 6214W        W 9958   5.146   3.867  10.266
 6215W        W 9959   3.777   3.749   2.884
 6216W        W 9960   0.310   6.478   2.377
 6217W        W 9961   8.782   1.368   2.034
 6218W        W 9962  10.190   1.621   2.942
 6219W        W 9963   7.007   6.531   2.784
 6220W        W 9964   9.497   1.369   9.043
 6221W        W 9965   3.782   2.667   3.510
 6222W        W 9966   6.485   8.808  11.926
 6223W        W 9967   2.076   1.696   9.585
 6224W        W 9968   3.287   8.569   0.962
 6225W        W 9969  10.380   7.726   1.907
 6226W        W 9970   1.207   2.129   0.345
 6227W        W 9971   6.212   4.172   2.614
 6228W        W 9972   9.603   8.492  11.380
 6229W        W 9973   8.452   2.629  11.436
 6230W        W 9974   9.322   7.341  10.591
 6231W        W 9975   3.702   9.247   3.416
 6232W        W 9976   5.933   8.069   3.203
 6233W        W 9977   3.515   4.854   1.006
 6234W        W 9978   4.302   9.822   9.356
 6235W        W 9979   2.250   3.493   9.354
 6236W        W 9980   7.476   1.924   3.452
 6237W        W 9981   2.354   8.829   8.980
 6238W        W 9982   9.453   1.735  10.004
 6239W        W 9983   5.921   7.355  11.766
 6240W        W 9984   7.888  10.378  11.430
 6241W        W 9985   0.608   8.199   1.979
 6242W        W 9986  10.344   7.806   2.427
 6243W        W 9987   9.015   4.528   0.094
 6244W        W 9988   3.864   6.161   1.803
 6245W        W 9989   0.819   2.606   2.445
 6246W        W 9990  10.344   9.556  10.967
 6247W        W 9991   2.835   1.090   1.784
 6248W        W 9992   9.657   5.966   9.994
 6249W        W 9993   9.451   1.188  11.431
 6250W        W 9994   1.490   5.508   3.492
 6251W        W 9995   1.456   3.212   1.633
 6252W        W 9996   5.988   9.770   2.479
 6253W        W 9997   5.795   8.735   2.703
 6254W        W 9998   7.193   0.844   1.607
 6255W        W 9999   6.972   5.633   9.375
 6256W        W10000   7.616   1.563  10.543
 6257W        W10001   2.039   3.022   2.992
 6258W        W10002   8.872  10.202   2.277
 6259W        W10003   1.014   7.918  10.500
 6260W        W10004   0.415   6.658   9.843
 6261W        W10005   4.083   7.021  10.830
 6262W        W10006  10.000   0.886  11.452
 6263W        W10007   5.176   1.677   9.236
 6264W        W10008   5.057   6.079  10.068
 6265W        W10009   2.822   7.615  10.611
 6266W        W10010   3.455   7.603   8.488
 6267W        W10011   6.436   4.176   3.121
 6268W        W10012   5.917  10.311   2.468
 6269W        W10013  10.232   4.115   9.191
 6270W        W10014   9.778   5.195   2.968
 6271W        W10015   9.922   3.226   1.985
 6272W        W10016   1.781   9.444   9.455
 6273W        W10017   0.401   0.850  11.561
 6274W        W10018  10.306   3.251   2.524
 6275W        W10019   9.309   6.584   3.544
 6276W        W10020  10.483   4.746   9.080
 6277W        W10021   0.780   1.449   9.465
 6278W        W10022   8.082   7.895   1.309
 6279W        W10023   6.286   7.889   1.770
 6280W        W10024   9.243   0.740  10.965
 6281W        W10025   6.515   6.917  10.076
 6282W        W10026   7.080  10.320   3.367
 6283W        W10027   4.300   4.288   2.391
 6284W        W10028   0.907   0.811  10.752
 6285W        W10029   0.939   4.659   3.497
 6286W        W10030   8.480   7.713   2.312
 6287W        W10031   0.456   2.563   0.687
 6288W        W10032   8.579   7.469   1.874
 6289W        W10033   2.204   1.492   2.712
 6290W        W10034   9.555   1.940  10.482
 6291W        W10035   9.092   7.627  11.887
 6292W        W10036   9.378   8.405   1.264
 6293W        W10037   1.345   8.025   1.414
 6294W        W10038   4.425   9.046   2.967
 6295W        W10039   6.744   1.357  11.035
 6296W        W10040   0.412   3.763   2.045
 6297W        W10041   9.367   6.657   8.946
 6298W        W10042  10.447   2.265  11.554
 6299W        W10043   1.611   0.819  11.897
 6300W        W10044   5.211   3.331  10.297
 6301W        W10045   3.774   7.395  11.882
 6302W        W10046  10.472   3.587  10.424
 6303W        W10047   1.926   0.048   0.044
 6304W        W10048   7.417   1.668   0.262
 6305W        W10049   7.420   9.287   0.681
 6306W        W10050   0.007   9.596   9.094
 6307W        W10051   7.822   6.988   2.417
 6308W        W10052   2.626   1.646   3.165
 6309W        W10053   7.052   0.664   2.131
 6310W        W10054  10.225   4.678   9.529
 6311W        W10055   7.936   5.653  11.300
 6312W        W10056   5.723   0.763   1.989
 6313W        W10057  10.050   5.526   8.402
 6314W        W10058   1.734   1.193  10.354
 6315W        W10059   9.434   1.601  11.806
 6316W        W10060   8.161   4.546  11.682
 6317W        W10061   1.610   8.954  10.925
 6318W        W10062   7.373   4.318  10.485
 6319W        W10063  10.489   1.910   0.987
 6320W        W10064   2.362   9.205   9.422
 6321W        W10065   6.786   5.070  10.612
 6322W        W10066   7.424   3.620  10.945
 6323W        W10067   8.921   7.463  11.390
 6324W        W10068   7.894   5.062   9.566
 6325W        W10069   7.430   4.225   2.164
 6326W        W10070   1.925   8.430   0.839
 6327W        W10071   4.551   0.687   9.559
 6328W        W10072   9.964   1.779  11.957
 6329W        W10073   3.660   9.092   9.508
 6330W        W10074   2.206   9.933  10.111
 6331W        W10075   4.840   1.748   2.440
 6332W        W10076   9.047   3.699   0.757
 6333W        W10077   0.441   3.139   1.951
 6334W        W10078  10.460   5.070   0.075
 6335W        W10079   8.874   6.488  11.248
 6336W        W10080   8.830   8.474   8.897
 6337W        W10081   1.489   7.007   2.267
 6338W        W10082   2.643   7.340   8.168
 6339W        W10083   0.295   7.631  11.383
 6340W        W10084   2.224  10.216   0.287
 6341W        W10085   4.073   1.802   1.698
 6342W        W10086   5.663   2.155   2.431
 6343W        W10087   7.581   7.507   9.437
 6344W        W10088   5.080   2.116   9.018
 6345W        W10089   9.048   6.190  11.982
 6346W        W10090   5.323   6.778   3.604
 6347W        W10091   9.322   3.869   9.621
 6348W        W10092   5.356   4.763  10.628
 6349W        W10093   2.179   9.806   1.918
 6350W        W10094   3.457   6.643   1.844
 6351W        W10095   6.634   3.271   9.622
 6352W        W10096   6.048   0.731   9.046
 6353W        W10097   1.691   1.900   3.337
 6354W        W10098   4.290  10.406   8.665
 6355W        W10099   4.601   7.610  11.968
 6356W        W10100   2.258   6.484  11.104
 6357W        W10101   1.007  10.441  11.048
 6358W        W10102   2.188   2.035  11.630
 6359W        W10103   2.387   3.335   1.861
 6360W        W10104   6.539   2.074   3.494
 6361W        W10105   5.119   6.910   1.821
 6362W        W10106   5.439   2.553   0.828
 6363W        W10107   1.871   6.735   8.860
 6364W        W10108   5.588   9.761   0.457
 6365W        W10109   1.862   2.299   1.858
 6366W        W10110   6.491   4.038  11.370
 6367W        W10111   5.064  10.365  10.270
 6368W        W10112   8.013   4.600   3.472
 6369W        W10113   8.567   3.196   8.725
 6370W        W10114   1.333  10.459   8.742
 6371W        W10115  10.380  10.029   9.557
 6372W        W10116   0.787   0.732   2.734
 6373W        W10117   5.986   9.058   1.215
 6374W        W10118   4.316   0.441   0.204
 6375W        W10119   1.063   4.731  10.992
 6376W        W10120   7.559   6.383  10.885
 6377W        W10121   0.430   5.666  10.500
 6378W        W10122   7.689   5.751   3.115
 6379W        W10123   3.994   9.614   2.451
 6380W        W10124   1.780   5.070   0.428
 6381W        W10125   1.701   7.575   9.293
 6382W        W10126   6.176   2.790   1.674
 6383W        W10127   3.188  10.189  10.013
 6384W        W10128   6.638   8.882  10.545
 6385W        W10129   8.907  10.378   3.295
 6386W        W10130   6.279   7.066   2.307
 6387W        W10131   1.414   2.332   3.255
 6388W        W10132   8.772   9.989  10.022
 6389W        W10133   1.572   1.193   0.394
 6390W        W10134   3.638   8.965   0.067
 6391W        W10135   5.925   7.171   8.692
 6392W        W10136   8.321   4.172  11.369
 6393W        W10137   7.552   6.918  10.943
 6394W        W10138  10.490   8.422   9.573
 6395W        W10139   8.267   0.975   2.438
 6396W        W10140   9.767   7.603  11.360
 6397W        W10141  10.241   2.246   9.563
 6398W        W10142   4.027   0.944   8.442
 6399W        W10143   6.560   0.424  11.043
 6400W        W10144   7.550   1.804   8.961
 6401W        W10145   8.471   1.787   9.107
 6402W        W10146   2.690   6.104  11.548
 6403W        W10147   0.873   6.978   3.047
 6404W        W10148  10.229   5.373   2.801
 6405W        W10149   3.563   0.948   9.606
 6406W        W10150   9.908   4.949   1.688
 6407W        W10151   8.157   7.056   9.990
 6408W        W10152   7.328   8.753  11.266
 6409W        W10153   1.892  10.006  11.946
 6410W        W10154   7.999   7.550   8.099
 6411W        W10155   4.617   8.491  10.831
 6412W        W10156   3.037   8.505   1.869
 6413W        W10157   9.786   6.524   2.702
 6414W        W10158   0.813   3.769  10.353
 6415W        W10159   1.343   6.746   1.262
 6416W        W10160   5.225   1.379   0.500
 6417W        W10161  10.423   4.154   0.307
 6418W        W10162   0.701   1.685  11.165
 6419W        W10163   3.668   4.620  10.276
 6420W        W10164   4.405   2.364   9.825
 6421W        W10165   3.931   2.315   3.114
 6422W        W10166   1.154   6.682  10.285
 6423W        W10167   8.903   7.953   8.813
 6424W        W10168   0.660   8.031   9.943
 6425W        W10169   8.479  10.017   9.268
 6426W        W10170   1.311   8.723   0.618
 6427W        W10171   5.545   2.857   8.681
 6428W        W10172   4.374   8.073   1.464
 6429W        W10173   8.262   3.276   2.930
 6430W        W10174  10.354   5.167   1.514
 6431W        W10175   3.555   1.839   1.699
 6432W        W10176   0.987   6.901  11.588
 6433W        W10177   8.330   2.160   0.811
 6434W        W10178   4.611   5.989  10.957
 6435W        W10179   8.313   8.886  11.348
 6436W        W10180   1.824   9.910   2.642
 6437W        W10181   7.198   1.348  10.799
 6438W        W10182   4.630   9.627   1.849
 6439W        W10183   7.623   0.072   2.781
 6440W        W10184   6.953   6.304   0.496
 6441W        W10185   2.982   6.436   0.236
 6442W        W10186   5.112   7.154   3.320
 6443W        W10187   4.260  10.316  10.939
 6444W        W10188   0.763  10.434   2.399
 6445W        W10189   5.335   8.807   2.898
 6446W        W10190   6.068   4.205   8.392
 6447W        W10191   3.333   0.524   8.994
 6448W        W10192   0.840   4.354   1.221
 6449W        W10193   1.685   1.344  11.867
 6450W        W10194   0.563   6.643  11.480
 6451W        W10195   0.488   2.433   9.481
 6452W        W10196   8.136  10.037  11.728
 6453W        W10197   5.121   2.852  10.429
 6454W        W10198  10.475   3.781  10.934
 6455W        W10199   8.055   1.950   1.356
 6456W        W10200   6.728   2.710  10.850
 6457W        W10201   2.299   8.083   0.950
 6458W        W10202   3.189   6.619  10.822
 6459W        W10203   1.883   8.981  11.366
 6460W        W10204   6.690   9.846  10.922
 6461W        W10205   4.245   2.010  11.576
 6462W        W10206   1.649   7.003   0.499
 6463W        W10207   8.970   3.127  11.532
 6464W        W10208   1.332   0.234   1.446
 6465W        W10209   4.667   3.543   3.945
 6466W        W10210   2.345   8.739  11.335
 6467W        W10211   2.801   2.360   1.926
 6468W        W10212   1.399   5.705   0.927
 6469W        W10213   9.137   4.158  10.024
 6470W        W10214   9.854   2.365   9.254
 6471W        W10215   0.554   2.726  10.522
 6472W        W10216   0.886   2.165   2.691
 6473W        W10217   0.945   5.704   2.232
 6474W        W10218   4.869   8.649   1.203
 6475W        W10219   7.561   0.494   1.789
 6476W        W10220   2.162   6.009   0.862
 6477W        W10221   9.282   6.856   9.405
 6478W        W10222   7.043   9.754   9.480
 6479W        W10223   3.262   5.775   1.397
 6480W        W10224   8.438   4.099   1.854
 6481W        W10225   2.281   0.934   9.153
 6482W        W10226   2.420   4.524  10.808
 6483W        W10227   1.794   9.502  11.863
 6484W        W10228   4.381   8.457   8.553
 6485W        W10229   6.024   2.501   2.743
 6486W        W10230   7.283   0.382  10.913
 6487W        W10231   0.179  10.268   1.396
 6488W        W10232   0.329  10.198   2.239
 6489W        W10233   1.333   4.769   0.653
 6490W        W10234   8.071   9.775   1.887
 6491W        W10235   8.911   2.988   1.956
 6492W        W10236   7.433   9.475   1.170
 6493W        W10237   6.277   9.625   9.549
 6494W        W10238   3.595   9.346   9.948
 6495W        W10239   1.671   2.468   1.380
 6496W        W10240   7.393   7.066   9.631
 6497W        W10241   4.259   7.472   9.474
 6498W        W10242   1.935   7.286   2.370
 6499W        W10243   6.402   7.413   0.894
 6500W        W10244   1.384   9.308   8.725
 6501W        W10245   4.609   4.134   1.711
 6502W        W10246   6.659   9.516   9.874
 6503W        W10247   0.515   5.582   3.326
 6504W        W10248   2.274  10.305  11.759
 6505W        W10249   6.053   1.421   1.447
 6506W        W10250   6.205   5.198   0.511
 6507W        W10251   5.285   6.123   8.244
 6508W        W10252   0.911   3.878  11.265
 6509W        W10253   3.064   7.580   1.395
 6510W        W10254   7.505   5.270  11.928
 6511W        W10255   5.724   1.297  11.267
 6512W        W10256   7.815   2.278   1.836
 6513W        W10257   4.496   7.707   3.205
 6514W        W10258   3.811   4.524  10.777
 6515W        W10259   9.530   5.645  10.632
 6516W        W10260   5.987   2.250   1.757
 6517W        W10261   2.122   7.442   8.992
 6518W        W10262   0.196   7.328   1.528
 6519W        W10263   2.004   6.033   0.346
 6520W        W10264   5.665   4.365  10.519
 6521W        W10265   2.280   8.179   3.073
 6522W        W10266   7.432   1.445   2.184
 6523W        W10267   2.385   3.247   8.934
 6524W        W10268   6.442   5.698   1.398
 6525W        W10269   5.089   9.970   0.427
 6526W        W10270   4.639   2.355   2.367
 6527W        W10271  10.052   9.544   0.691
 6528W        W10272   4.146   7.694   2.344
 6529W        W10273   8.939   6.673   9.725
 6530W        W10274   7.879   8.458  10.393
 6531W        W10275   8.136   3.650   1.912
 6532W        W10276   8.347   5.247  11.372
 6533W        W10277   3.297   2.297   1.802
 6534W        W10278   0.348   9.466  11.723
 6535W        W10279   5.965   3.300   0.424
 6536W        W10280   3.818   6.555   1.463
 6537W        W10281   5.606   7.551   2.373
 6538W        W10282   7.457   6.051   0.335
 6539W        W10283   6.568   9.861  10.275
 6540W        W10284   7.391   0.652   0.313
 6541W        W10285   0.837   7.332   1.731
 6542W        W10286   5.072   3.730   3.679
 6543W        W10287   1.017   9.495   0.850
 6544W        W10288   5.049   5.132   2.409
 6545W        W10289   5.144   6.535   3.150
 6546W        W10290   4.751   6.257  11.390
 6547W        W10291   9.152   7.437   3.875
 6548W        W10292  10.313   4.118  11.722
 6549W        W10293   3.548   2.720   8.991
 6550W        W10294   2.099   5.118   0.833
 6551W        W10295   6.856   0.431   3.555
 6552W        W10296   1.779   9.983   3.160
 6553W        W10297   6.709   1.712  11.453
 6554W        W10298   1.207   5.158  10.766
 6555W        W10299   9.878   0.832   2.720
 6556W        W10300   0.678   9.326   3.250
 6557W        W10301   6.099   9.166  10.498
 6558W        W10302   7.409   1.170   0.339
 6559W        W10303   9.913   2.668   1.325
 6560W        W10304   9.733   4.280   2.663
 6561W        W10305   9.074   6.534   1.646
 6562W        W10306   8.773   3.146   2.956
 6563W        W10307   3.713   2.310   9.246
 6564W        W10308   1.299   6.274   9.976
 6565W        W10309   0.237  10.012   2.723
 6566W        W10310   8.969   0.732   8.505
 6567W        W10311   8.501   3.194  11.385
 6568W        W10312  10.356   0.400  10.486
 6569W        W10313   5.088   5.092   2.919
 6570W        W10314   6.472   0.857   9.816
 6571W        W10315   9.408   9.028   9.238
 6572W        W10316   8.946   5.527  10.253
 6573W        W10317  10.490   7.161  11.720
 6574W        W10318   3.870   1.904   2.164
 6575W        W10319   4.408   8.236   3.175
 6576W        W10320   7.952   8.381   1.198
 6577W        W10321   5.568   2.706   2.946
 6578W        W10322   5.188   4.012  11.249
 6579W        W10323   7.968   7.887   0.361
 6580W        W10324   7.169   9.673  11.024
 6581W        W10325   7.624   4.938   2.756
 6582W        W10326   5.705  10.408   9.438
 6583W        W10327   0.052   7.664   1.113
 6584W        W10328   6.212   1.584  11.497
 6585W        W10329   0.479   9.277   9.660
 6586W        W10330   0.470  10.397   1.784
 6587W        W10331   5.640   2.290   3.453
 6588W        W10332   8.379   4.935   3.428
 6589W        W10333   0.808   4.861   1.011
 6590W        W10334   4.600   1.308   3.120
 6591W        W10335   5.551   0.839   9.002
 6592W        W10336   5.094   7.603   4.001
 6593W        W10337   6.135   1.916   2.335
 6594W        W10338   2.246   2.383   2.802
 6595W        W10339   5.245   1.896   3.371
 6596W        W10340   8.689   6.920   0.189
 6597W        W10341   9.432   0.489   2.792
 6598W        W10342   9.399   3.086  11.785
 6599W        W10343   0.878   4.156   8.464
 6600W        W10344   4.792   5.597   0.796
 6601W        W10345   2.406   8.202   9.503
 6602W        W10346   5.006   5.622   2.157
 6603W        W10347  10.017   7.893  11.697
 6604W        W10348  10.190   8.685   8.704
 6605W        W10349   6.708   8.054   0.987
 6606W        W10350   1.279   9.449   9.742
 6607W        W10351   0.654   4.324  10.350
 6608W        W10352   5.641   3.097   4.089
 6609W        W10353   1.486   6.310  10.464
 6610W        W10354   8.185   4.210   8.160
 6611W        W10355   6.913   4.793  11.372
 6612W        W10356   0.058   8.807   1.208
 6613W        W10357   7.669   4.114   8.846
 6614W        W10358   9.031   5.259   1.468
 6615W        W10359   0.909   9.292   8.918
 6616W        W10360   6.953   8.865   2.351
 6617W        W10361   3.099   3.663   8.807
 6618W        W10362   4.133   2.639  10.140
 6619W        W10363   4.360   1.918   2.339
 6620W        W10364   0.308   9.059   2.974
 6621W        W10365   1.851   4.110  11.227
 6622W        W10366   9.297   7.037   0.946
 6623W        W10367   6.126   0.401   1.992
 6624W        W10368   7.452   3.778   1.202
 6625W        W10369   0.773   8.123   1.520
 6626W        W10370   5.589   3.874  10.502
 6627W        W10371  10.280   8.735   9.209
 6628W        W10372   8.080  10.313   2.716
 6629W        W10373   2.299   5.269   9.093
 6630W        W10374   8.557   6.109  11.837
 6631W        W10375   4.765   7.909   1.825
 6632W        W10376   2.387   4.954   8.617
 6633W        W10377   0.334   2.135  10.303
 6634W        W10378   6.418   6.507   9.386
 6635W        W10379   6.096  10.186  10.405
 6636W        W10380   8.885   0.383   9.659
 6637W        W10381   1.907   7.883   3.210
 6638W        W10382   2.614   6.075   2.390
 6639W        W10383   5.213   2.898   1.115
 6640W        W10384   2.802   1.515  11.202
 6641W        W10385   3.484   1.038  10.948
 6642W        W10386   5.508   3.839   3.447
 6643W        W10387  10.075   3.411  11.797
 6644W        W10388   3.093   8.992   1.235
 6645W        W10389   1.683   8.062  10.997
 6646W        W10390   8.758   5.994  10.455
 6647W        W10391   7.938   5.855   9.954
 6648W        W10392   3.523   1.924  11.033
 6649W        W10393   5.297   9.047   3.383
 6650W        W10394   9.346   9.870  11.639
 6651W        W10395   4.974   9.722   9.497
 6652W        W10396   3.389   5.938  11.348
 6653W        W10397   8.503   0.978  10.019
 6654W        W10398   5.250   2.632  10.928
 6655W        W10399   7.973   9.867   1.352
 6656W        W10400   4.881   7.783   2.759
 6657W        W10401   1.426   1.332  10.792
 6658W        W10402   4.236   8.725   2.231
 6659W        W10403   6.524   2.743   0.400
 6660W        W10404   2.231   5.622  10.951
 6661W        W10405   5.971   5.153  10.648
 6662W        W10406   1.469   9.733   0.844
 6663W        W10407   7.390   2.833   3.220
 6664W        W10408   1.910   5.391   1.247
 6665W        W10409   4.603   9.452  11.443
 6666W        W10410  10.090   0.023  10.978
 6667W        W10411   7.411   0.342  11.831
 6668W        W10412   3.681   5.841  10.949
 6669W        W10413   0.762   0.811   1.772
 6670W        W10414   3.968   1.802   2.666
 6671W        W10415  10.064   3.645   9.391
 6672W        W10416   9.456   6.023  11.744
 6673W        W10417   4.015   0.092   0.440
 6674W        W10418   7.963   9.226   1.845
 6675W        W10419   7.493   3.557  11.478
 6676W        W10420   6.222   4.676   2.579
 6677W        W10421  10.232   7.474   1.456
 6678W        W10422   8.036   1.300  10.627
 6679W        W10423   6.706   3.900   2.788
 6680W        W10424   2.570   9.891  10.500
 6681W        W10425   9.401   2.031   9.588
 6682W        W10426   0.219   0.644   1.839
 6683W        W10427   8.932   6.069   1.841
 6684W        W10428   4.608   5.955   9.841
 6685W        W10429   7.050   6.039   2.612
 6686W        W10430   1.429   6.221   9.490
 6687W        W10431   2.829   1.855   2.182
 6688W        W10432   7.296   2.333  10.254
 6689W        W10433   3.343   6.308  10.440
 6690W        W10434   0.799   4.088  10.770
 6691W        W10435   9.643   5.906   9.083
 6692W        W10436   8.544   6.576   2.824
 6693W        W10437   2.131   0.483   1.820
 6694W        W10438   9.375  10.292   1.608
 6695W        W10439   9.805   8.142   1.213
 6696W        W10440   6.336   9.116   9.641
 6697W        W10441   3.192   8.794   8.741
 6698W        W10442   1.775   2.641   2.738
 6699W        W10443   9.322   8.469   0.763
 6700W        W10444   4.302   0.268   3.237
 6701W        W10445   2.212   5.246   2.402
 6702W        W10446   1.782   0.714   9.833
 6703W        W10447   3.047   2.292  11.606
 6704W        W10448   2.540   4.042   8.516
 6705W        W10449   8.012   9.592  11.933
 6706W        W10450   5.050   0.802  10.388
 6707W        W10451   9.340   3.051   2.289
 6708W        W10452   1.490   8.451   9.753
 6709W        W10453   2.687   4.181   1.013
 6710W        W10454  10.367   1.271   9.487
 6711W        W10455   7.154   0.247   2.638
 6712W        W10456   1.385   6.995  11.224
 6713W        W10457   5.899   5.748   1.960
 6714W        W10458   2.703   7.020   1.319
 6715W        W10459   2.183   1.446  10.458
 6716W        W10460   4.949   4.582  11.964
 6717W        W10461   4.251   3.272   9.476
 6718W        W10462   8.076   0.177  10.087
 6719W        W10463   8.976   8.406   1.569
 6720W        W10464   6.671   2.747   1.462
 6721W        W10465   4.378   8.770   0.378
 6722W        W10466   2.423   8.960   2.509
 6723W        W10467   1.250   0.928   1.635
 6724W        W10468   7.138   5.703  11.109
 6725W        W10469   8.379   2.364   3.055
 6726W        W10470  10.161  10.454   9.324
 6727W        W10471   1.203   9.526   2.619
 6728W        W10472   2.627   2.842   9.900
 6729W        W10473   3.335   7.633  10.808
 6730W        W10474   0.992   1.075   9.744
 6731W        W10475   3.878   8.711   0.426
 6732W        W10476   6.083  10.182  11.836
 6733W        W10477   5.252   9.043   2.454
 6734W        W10478   5.158   2.404   2.252
 6735W        W10479   7.070   6.200   1.841
 6736W        W10480   1.466   0.255   3.277
 6737W        W10481   4.974   7.637   3.495
 6738W        W10482   5.214   5.676   9.817
 6739W        W10483   7.642   3.243   3.591
 6740W        W10484  10.157   0.278   2.164
 6741W        W10485   6.525   9.264   1.560
 6742W        W10486   5.095   9.980   9.945
 6743W        W10487   3.767   0.513   1.485
 6744W        W10488   5.726   5.042   0.005
 6745W        W10489   4.205   1.900   9.758
 6746W        W10490   8.054   5.238   0.691
 6747W        W10491   2.180   4.271   8.967
 6748W        W10492   7.045   3.312   9.906
 6749W        W10493   7.021   0.590   9.099
 6750W        W10494   5.675   7.362  10.069
 6751W        W10495   5.934   0.883  11.014
 6752W        W10496   4.961   7.052   8.533
 6753W        W10497   1.868   0.472   3.543
 6754W        W10498   5.535   5.996  11.879
 6755W        W10499   7.420   5.909   9.884
 6756W        W10500   9.258   4.202   9.135
 6757W        W10501   4.793   2.731   3.659
 6758W        W10502   5.157   5.171   3.429
 6759W        W10503   3.423   3.316   0.317
 6760W        W10504   0.879   4.571   9.961
 6761W        W10505   2.834   6.214  10.002
 6762W        W10506   8.298   5.075  10.513
 6763W        W10507   2.345   9.447   1.105
 6764W        W10508   6.171   0.828   3.172
 6765W        W10509   7.944   4.061   1.655
 6766W        W10510   1.856   7.373   3.521
 6767W        W10511   8.925   8.947   9.110
 6768W        W10512   5.139   4.016   1.894
 6769W        W10513  10.257   0.049  11.860
 6770W        W10514   7.921   6.101   0.521
 6771W        W10515   1.851   4.671   1.885
 6772W        W10516   9.945   8.593   2.019
 6773W        W10517   0.625   5.510   9.328
 6774W        W10518   4.036   2.760  10.997
 6775W        W10519   4.718   1.536   9.413
 6776W        W10520   8.744   0.006  10.008
 6777W        W10521   1.371   5.883   9.060
 6778W        W10522   0.428   3.973  11.469
 6779W        W10523   1.308   7.505   1.664
 6780W        W10524   8.056   2.782   9.227
 6781W        W10525   4.949   1.004  10.847
 6782W        W10526   4.096  10.423  10.451
 6783W        W10527   2.680   2.900   1.771
 6784W        W10528   3.216   3.655   9.321
 6785W        W10529   3.683   3.086   2.717
 6786W        W10530   6.561   8.017  10.762
 6787W        W10531   0.301   5.029   2.372
 6788W        W10532   7.028   6.458   2.281
 6789W        W10533   8.308   8.398  10.084
 6790W        W10534   0.415   3.745   9.037
 6791W        W10535   9.708   2.318  10.804
 6792W        W10536   2.217   2.940  10.187
 6793W        W10537   0.724   4.878  11.340
 6794W        W10538   2.248   1.958   2.541
 6795W        W10539   1.001   5.437   2.697
 6796W        W10540   3.596   5.340   1.289
 6797W        W10541   5.755   0.456   8.699
 6798W        W10542   5.656   0.399  10.175
 6799W        W10543   5.539   7.995   0.774
 6800W        W10544   5.254   0.787   1.167
 6801W        W10545   1.266   4.668   1.156
 6802W        W10546   1.472   6.588   0.786
 6803W        W10547   5.616   8.554   9.186
 6804W        W10548   4.290   2.209   2.762
 6805W        W10549   9.583   5.132  11.834
 6806W        W10550   0.697   0.327   0.971
 6807W        W10551   9.464   1.407   0.618
 6808W        W10552   6.430   3.677   9.410
 6809W        W10553   5.033   8.167   2.374
 6810W        W10554   9.384   1.366   2.889
 6811W        W10555   3.280   7.382   0.730
 6812W        W10556   7.970   3.865   8.501
 6813W        W10557   5.735   1.757   3.499
 6814W        W10558   8.437   0.826  10.541
 6815W        W10559   0.179   2.044   9.371
 6816W        W10560   3.825   7.622   8.867
 6817W        W10561   0.985   6.578  11.200
 6818W        W10562   6.371   8.771   1.651
 6819W        W10563   6.973   8.142  11.034
 6820W        W10564   0.314   9.748   9.589
 6821W        W10565   8.377   4.602   9.873
 6822W        W10566   2.122  10.350   2.648
 6823W        W10567   5.547   1.670  10.027
 6824W        W10568   0.400  10.342   3.204
 6825W        W10569   5.070   7.459   0.061
 6826W        W10570   2.660  10.358   9.478
 6827W        W10571   3.741   7.160   0.331
 6828W        W10572   4.053   5.688   1.376
 6829W        W10573   4.059   5.791   0.554
 6830W        W10574   1.425   0.476   8.627
 6831W        W10575   4.738   8.598   3.028
 6832W        W10576   9.051   5.376   2.332
 6833W        W10577   4.731   6.456   9.922
 6834W        W10578   8.495   9.842   1.523
 6835W        W10579   1.395   4.668   2.673
 6836W        W10580   1.681   5.504  10.188
 6837W        W10581   6.376   4.639   1.011
 6838W        W10582   3.025   7.703   8.156
 6839W        W10583   7.357   6.187   1.286
 6840W        W10584   6.895   1.317   9.358
 6841W        W10585   0.870   8.814  11.382
 6842W        W10586   3.066   0.305  11.342
 6843W        W10587   5.097   5.223  10.603
 6844W        W10588   3.496   0.041   2.280
 6845W        W10589   3.680  10.356   1.250
 6846W        W10590   8.990   2.721   9.722
 6847W        W10591   7.049   9.417   0.356
 6848W        W10592   7.656   8.373   1.912
 6849W        W10593   2.847   6.415   0.721
 6850W        W10594   5.747   0.894   3.520
 6851W        W10595   3.117   5.510   9.229
 6852W        W10596   6.195   3.465  10.346
 6853W        W10597   2.149   6.307   2.323
 6854W        W10598   6.487   9.716   0.602
 6855W        W10599   1.902   3.635   3.290
 6856W        W10600   2.667   9.993   0.420
 6857W        W10601   1.779   0.912  10.812
 6858W        W10602   4.177   1.429   1.282
 6859W        W10603   3.463   9.048  11.616
 6860W        W10604   1.063   2.747  10.698
 6861W        W10605   0.703   6.027   9.011
 6862W        W10606   0.530   8.714   0.442
 6863W        W10607   7.738   7.870   1.877
 6864W        W10608   8.943   9.369   3.026
 6865W        W10609   6.313   7.566   2.157
 6866W        W10610   0.397   6.379   1.295
 6867W        W10611   9.800   4.929   0.256
 6868W        W10612  10.232  10.064  10.387
 6869W        W10613   6.488   3.191   0.045
 6870W        W10614   0.687   1.282   2.309
 6871W        W10615   6.945   2.238   2.717
 6872W        W10616   6.728   5.230   2.170
 6873W        W10617   7.895   8.474   8.704
 6874W        W10618   3.227   4.469   0.788
 6875W        W10619   0.764   6.288   0.394
 6876W        W10620   1.507   2.457   0.583
 6877W        W10621   7.086   4.734   8.607
 6878W        W10622   6.834   7.089  10.436
 6879W        W10623   1.405   6.379   8.997
 6880W        W10624   2.344   8.966   2.001
 6881W        W10625   9.829   4.235   1.240
 6882W        W10626   9.580   8.482   9.923
 6883W        W10627   8.812   0.436  11.139
 6884W        W10628   2.102   6.883  10.481
 6885W        W10629   3.865   5.720  11.432
 6886W        W10630   1.982   7.661  10.896
 6887W        W10631   9.858   8.361   0.744
 6888W        W10632   4.499   4.526   1.994
 6889W        W10633   4.927  10.461   2.503
 6890W        W10634   9.745   7.904   9.835
 6891W        W10635   7.695   1.338  11.940
 6892W        W10636   7.594   9.147  10.254
 6893W        W10637  10.390   2.495   1.426
 6894W        W10638   0.492   0.724  10.458
 6895W        W10639   2.115   6.471   0.106
 6896W        W10640   4.157   9.779   1.986
 6897W        W10641   8.007   8.841  10.089
 6898W        W10642   2.252   6.899  11.484
 6899W        W10643   7.088   4.496   2.430
 6900W        W10644   4.621   4.083   2.732
 6901W        W10645   8.905   0.488   2.733
 6902W        W10646   9.037   1.846   1.205
 6903W        W10647   9.428   2.737  10.894
 6904W        W10648   0.372   7.115  11.391
 6905W        W10649   6.983   3.631   1.059
 6906W        W10650   3.046   0.151   8.762
 6907W        W10651   9.807   9.950   2.415
 6908W        W10652   9.606   8.148   9.375
 6909W        W10653   5.026   4.112   1.418
 6910W        W10654   9.710   9.227   0.867
 6911W        W10655   6.513   1.235   0.389
 6912W        W10656   1.427   7.367   0.156
 6913W        W10657  10.114   9.070   2.191
 6914W        W10658  10.422   6.923   1.695
 6915W        W10659   2.542   0.505   8.939
 6916W        W10660   0.406   1.182   1.830
 6917W        W10661   3.324   7.580  11.771
 6918W        W10662   8.778   0.866   2.324
 6919W        W10663   4.088   4.540   3.212
 6920W        W10664   9.036   1.130   3.882
 6921W        W10665   2.811   5.561   1.244
 6922W        W10666   8.457   6.157  10.843
 6923W        W10667   9.425   7.501   1.744
 6924W        W10668   1.665   5.070  10.456
 6925W        W10669   5.568   2.260  11.693
 6926W        W10670   2.713  10.420  10.009
 6927W        W10671   9.063   9.009   9.638
 6928W        W10672   7.240   4.069   3.763
 6929W        W10673   3.882   1.044  11.428
 6930W        W10674   2.617   1.631  10.717
 6931W        W10675   0.673   5.805   2.870
 6932W        W10676   7.623   9.125   1.503
 6933W        W10677   5.940   9.945   8.625
 6934W        W10678   6.829   6.151   3.082
 6935W        W10679   6.399   2.335   9.349
 6936W        W10680   6.323   4.344  10.018
 6937W        W10681   7.171   0.914  10.486
 6938W        W10682   7.895   0.847  11.237
 6939W        W10683   3.114   3.223   1.168
 6940W        W10684   8.382   1.379   1.675
 6941W        W10685   9.108   0.793  11.943
 6942W        W10686   7.894   1.249   0.997
 6943W        W10687   5.328   5.689   0.683
 6944W        W10688   4.553   5.150   0.623
 6945W        W10689   9.692   3.154  10.677
 6946W        W10690   3.869   4.907   1.370
 6947W        W10691   8.813   0.403  11.637
 6948W        W10692   2.586   2.479   1.302
 6949W        W10693   9.443  10.018   1.169
 6950W        W10694   5.270   7.002  11.983
 6951W        W10695   5.844   6.768   3.688
 6952W        W10696   9.431   2.944   9.907
 6953W        W10697   9.037   4.055  11.884
 6954W        W10698   6.919   2.422   0.765
 6955W        W10699   4.853   2.128   1.937
 6956W        W10700   2.465   8.331   8.242
 6957W        W10701  10.004   6.856  10.907
 6958W        W10702   1.754   7.678   1.513
 6959W        W10703   2.842   9.930  10.923
 6960W        W10704   1.118   7.195   1.325
 6961W        W10705   1.921   7.445   0.408
 6962W        W10706  10.202   3.135  10.337
 6963W        W10707   4.588   1.641  11.527
 6964W        W10708   3.569   6.343  11.035
 6965W        W10709   7.203   6.547   8.861
 6966W        W10710   2.354   8.722   0.401
 6967W        W10711   0.258   9.698   2.306
 6968W        W10712   2.328   7.452   0.746
 6969W        W10713   0.184   2.680  11.806
 6970W        W10714   6.022   8.189  11.998
 6971W        W10715   9.321   1.737  11.326
 6972W        W10716   5.004   0.515  10.949
 6973W        W10717   9.726   6.705   8.585
 6974W        W10718   1.692   7.857   0.265
 6975W        W10719   7.939   9.837   2.418
 6976W        W10720   4.775   1.620   8.349
 6977W        W10721   9.972   1.432   1.722
 6978W        W10722   6.456   8.028   9.811
 6979W        W10723  10.433   5.606  10.499
 6980W        W10724   7.081   9.921   1.275
 6981W        W10725   3.057   4.606   9.024
 6982W        W10726   5.322   2.876   2.075
 6983W        W10727   1.194   8.001   0.853
 6984W        W10728   8.993   3.976   2.914
 6985W        W10729   1.268   1.942  11.330
 6986W        W10730   7.104   1.138   2.437
 6987W        W10731   5.971   1.594   2.762
 6988W        W10732   5.747   9.066   3.091
 6989W        W10733   0.487   3.084   0.736
 6990W        W10734   8.596   2.258   1.549
 6991W        W10735   4.387   1.207  11.967
 6992W        W10736   8.976   6.983   8.999
 6993W        W10737   5.197   3.055   3.042
 6994W        W10738   5.822   1.387  11.767
 6995W        W10739   3.239   6.654   1.046
 6996W        W10740   0.398   7.609  10.018
 6997W        W10741   8.945   7.824   1.225
 6998W        W10742   0.601   0.832   3.220
 6999W        W10743   7.108   1.783   2.452
 7000W        W10744   0.172   9.928  11.410
 7001W        W10745   0.775   4.167   0.205
 7002W        W10746  10.467   2.933   2.141
 7003W        W10747   8.076   3.755  10.323
 7004W        W10748   7.009  10.370  10.398
 7005W        W10749   7.950   5.652  10.713
 7006W        W10750   7.673   3.592   0.355
 7007W        W10751   9.816   7.866   0.695
 7008W        W10752   3.277   9.275   0.272
 7009W        W10753   0.020   3.212  11.880
 7010W        W10754   9.501  10.024   0.262
 7011W        W10755   3.166   4.603   8.179
 7012W        W10756   3.407   4.471   3.158
 7013W        W10757   1.002   3.788   2.782
 7014W        W10758   9.173  10.326   9.799
 7015W        W10759   2.628   6.486   1.674
 7016W        W10760   1.407   9.786   1.372
 7017W        W10761   4.257   0.476   2.253
 7018W        W10762   9.996   6.699   1.414
 7019W        W10763   4.931   7.147   3.792
 7020W        W10764   3.838   9.054  11.245
 7021W        W10765   4.592   0.899   2.258
 7022W        W10766   0.662   9.989   9.959
 7023W        W10767   3.177   7.144  10.826
 7024W        W10768   5.781   4.690  10.909
 7025W        W10769   7.327   0.860   1.115
 7026W        W10770   4.667   6.482   0.792
 7027W        W10771   5.424   5.417   0.221
 7028W        W10772  10.323   0.793  10.181
 7029W        W10773   6.935  10.265   9.466
 7030W        W10774   3.793   1.454  10.897
 7031W        W10775   9.892   4.068   0.386
 7032W        W10776   2.819   6.688   9.805
 7033W        W10777   2.360   8.530  10.860
 7034W        W10778   9.769   3.601   0.761
 7035W        W10779   5.146   9.809   2.975
 7036W        W10780   9.202   7.420   3.383
 7037W        W10781   4.721   3.614   2.954
 7038W        W10782   9.849   6.365  10.930
 7039W        W10783   2.691   1.649   2.636
 7040W        W10784   0.370   3.583  10.104
 7041W        W10785   7.555   4.429   2.647
 7042W        W10786   2.204   2.901   2.041
 7043W        W10787   1.578   3.672   1.392
 7044W        W10788   8.979   8.345  10.826
 7045W        W10789   1.771   3.151  10.462
 7046W        W10790   7.279   3.354   3.228
 7047W        W10791   1.901   8.973   9.599
 7048W        W10792   7.359   4.534  11.518
 7049W        W10793   2.226   5.563   1.908
 7050W        W10794   8.083   1.584  11.049
 7051W        W10795   2.643   4.682  10.034
 7052W        W10796   2.915  10.228   1.704
 7053W        W10797   8.964   1.792   9.828
 7054W        W10798   6.086   3.297   9.415
 7055W        W10799  10.080   0.428   9.092
 7056W        W10800   6.229   0.641   3.638
 7057W        W10801  10.332   1.394  10.472
 7058W        W10802   3.579   9.951  11.528
 7059W        W10803   5.005   9.943  11.204
 7060W        W10804   7.568   5.032   1.847
 7061W        W10805   8.658   3.653   9.007
 7062W        W10806   6.277   0.868  10.387
 7063W        W10807   2.510   4.011   9.420
 7064W        W10808   8.507   3.365  11.978
 7065W        W10809   3.762   0.284   3.041
 7066W        W10810   9.702   0.366  10.803
 7067W        W10811   6.936   5.983  10.663
 7068W        W10812   0.883   3.852   1.838
 7069W        W10813   8.140   4.628  10.326
 7070W        W10814   1.286   3.784   2.340
 7071W        W10815   6.981   8.295   9.775
 7072W        W10816  10.044   1.825  10.442
 7073W        W10817  10.255   6.002   1.753
 7074W        W10818   5.843   0.696   2.759
 7075W        W10819   0.952   8.905   3.447
 7076W        W10820   4.081   4.090  10.799
 7077W        W10821   4.717   8.638   1.691
 7078W        W10822  10.485   3.837   3.180
 7079W        W10823   1.668   1.970   1.484
 7080W        W10824   6.632   6.216   4.032
 7081W        W10825   8.612   1.739   0.905
 7082W        W10826   0.163   0.835   0.570
 7083W        W10827   0.995   4.661   0.264
 7084W        W10828   0.151   2.154   2.303
 7085W        W10829   1.811   7.156  10.853
 7086W        W10830   8.944   7.522  10.314
 7087W        W10831   8.554   2.131  11.481
 7088W        W10832   6.545   0.976  11.941
 7089W        W10833   9.678   8.954  11.104
 7090W        W10834   2.788   9.570  11.661
 7091W        W10835   7.804   6.581   0.663
 7092W        W10836   8.474   3.707  11.538
 7093W        W10837   0.359   5.029   1.369
 7094W        W10838   3.637   4.089  11.037
 7095W        W10839   6.156   7.020  10.952
 7096W        W10840   0.808   2.202   1.721
 7097W        W10841   2.375   3.794   1.654
 7098W        W10842   0.675   1.883   3.470
 7099W        W10843   8.396   7.422  11.418
 7100W        W10844   7.610   3.755   2.047
 7101W        W10845   6.605   1.224  11.504
 7102W        W10846   2.771   7.402   2.814
 7103W        W10847   0.620   4.597  10.783
 7104W        W10848   0.788   0.949   8.719
 7105W        W10849   6.252   4.948   0.050
 7106W        W10850   3.956   2.092  11.987
 7107W        W10851   2.944  10.315   3.089
 7108W        W10852   5.800   0.467   3.214
 7109W        W10853   2.187   8.720   8.477
 7110W        W10854   1.502   1.247   3.158
 7111W        W10855   0.149   8.932  10.891
 7112W        W10856   1.103   0.939   3.103
 7113W        W10857   3.282   4.135   9.004
 7114W        W10858   8.578   1.356   0.368
 7115W        W10859   6.601   6.515   0.883
 7116W        W10860   7.407   2.258  10.859
 7117W        W10861   3.398  10.272   1.851
 7118W        W10862   9.337   1.815   0.256
 7119W        W10863   6.266   7.876   0.790
 7120W        W10864   2.698   0.562   0.221
 7121W        W10865   5.770   4.919   0.493
 7122W        W10866   6.425   8.996  11.007
 7123W        W10867   6.274   0.381   9.960
 7124W        W10868   3.112   9.298  11.380
 7125W        W10869   6.562  10.435   9.123
 7126W        W10870   6.839   4.365  10.082
 7127W        W10871  10.059   2.125   8.797
 7128W        W10872   7.558   2.218   9.294
 7129W        W10873   1.305   7.949   9.059
 7130W        W10874   8.586   1.281   8.943
 7131W        W10875   7.855   3.801   9.302
 7132W        W10876   4.287   1.802   9.257
 7133W        W10877  10.418   4.777   3.542
 7134W        W10878   9.997   1.863   2.507
 7135W        W10879   2.583   8.997   1.162
 7136W        W10880   3.705   7.575  10.279
 7137W        W10881   8.408   3.733   9.931
 7138W        W10882   2.864   2.385   9.866
 7139W        W10883  10.354   1.625   8.620
 7140W        W10884   6.576   1.945   2.067
 7141W        W10885   4.080   7.818   0.318
 7142W        W10886   0.808   3.272   8.980
 7143W        W10887   3.592   5.514   9.891
 7144W        W10888   1.767  10.403   9.517
 7145W        W10889   9.903   0.163   0.823
 7146W        W10890   6.044   0.940   8.587
 7147W        W10891   7.271   7.762  11.955
 7148W        W10892   6.754   2.692   2.323
 7149W        W10893   3.686   0.820  10.531
 7150W        W10894   2.262   8.220   3.581
 7151W        W10895   8.333   3.675   9.423
 7152W        W10896   7.926   3.211   2.098
 7153W        W10897   0.957   3.200   1.832
 7154W        W10898   7.441   8.630  10.556
 7155W        W10899   0.814   0.627   9.593
 7156W        W10900   9.081   1.938  10.307
 7157W        W10901   9.109   9.286   1.382
 7158W        W10902   4.336   2.898  10.518
 7159W        W10903   8.670   1.255   1.249
 7160W        W10904   6.803   2.551   3.548
 7161W        W10905   4.124   6.124   9.638
 7162W        W10906   2.308  10.329  11.253
 7163W        W10907   2.932   3.248   9.943
 7164W        W10908   9.032   1.268  11.725
 7165W        W10909   1.866   0.187  10.533
 7166W        W10910   1.058   2.716   3.326
 7167W        W10911   9.542   2.618  11.984
 7168W        W10912   7.131   4.200   2.861
 7169W        W10913   0.687   6.036  10.728
 7170W        W10914   6.539   1.936  11.914
 7171W        W10915   2.640   4.070  10.933
 7172W        W10916   8.284   6.976   2.618
 7173W        W10917   0.943   8.501   0.928
 7174W        W10918   1.409   0.268   9.556
 7175W        W10919   1.535   5.042   9.335
 7176W        W10920   4.079   4.359   0.569
 7177W        W10921   4.148   8.360   3.626
 7178W        W10922   6.455   6.090   9.760
 7179W        W10923   8.099   2.106   9.991
 7180W        W10924   3.235   8.951   2.439
 7181W        W10925   8.067   0.144   3.463
 7182W        W10926   3.098   3.720  10.006
 7183W        W10927   4.022  10.218  11.415
 7184W        W10928   1.184   5.917   2.795
 7185W        W10929   0.934   1.282   1.870
 7186W        W10930   8.824   8.549   9.438
 7187W        W10931   4.296   6.621   2.911
 7188W        W10932   7.545   6.080   8.913
 7189W        W10933   0.674   1.961   9.378
 7190W        W10934   3.768   0.966   1.780
 7191W        W10935   7.026   0.123   2.150
 7192W        W10936   5.833   2.893   2.071
 7193W        W10937   9.828   8.838   0.064
 7194W        W10938   1.806  10.180  10.513
 7195W        W10939   3.110   2.288   2.353
 7196W        W10940   0.661   1.354   0.055
 7197W        W10941   2.138   2.401   0.631
 7198W        W10942   7.460   4.122   9.327
 7199W        W10943   3.365   0.755  11.383
 7200W        W10944   2.667  10.369   2.641
 7201W        W10945  10.475   5.560   9.022
 7202W        W10946   4.959   1.695   2.960
 7203W        W10947   3.924   4.509   0.103
 7204W        W10948   9.325   4.539   2.373
 7205W        W10949   9.203  10.134  10.359
 7206W        W10950   9.374   0.924   0.404
 7207W        W10951   1.221   2.732   9.302
 7208W        W10952   2.590   4.203   1.907
 7209W        W10953   3.113   5.548   9.726
 7210W        W10954   2.822   8.977   9.513
 7211W        W10955   5.524   6.055  10.747
 7212W        W10956   7.709   7.787   9.852
 7213W        W10957   3.040   2.680   8.818
 7214W        W10958   5.050  10.389   8.720
 7215W        W10959   6.508  10.461   0.014
 7216W        W10960   3.822   3.171   9.755
 7217W        W10961   7.833   6.470   0.170
 7218W        W10962   6.045   2.172   8.474
 7219W        W10963   3.212   3.200  11.039
 7220W        W10964   4.742  10.164   9.367
 7221W        W10965   4.123   7.047   9.783
 7222W        W10966  10.221   9.900   2.744
 7223W        W10967   4.087   2.646   1.873
 7224W        W10968   0.498   0.837   2.219
 7225W        W10969   1.341   1.465   0.747
 7226W        W10970   2.030   1.775   1.779
 7227W        W10971   3.742  10.095   2.189
 7228W        W10972   5.637   4.871  11.393
 7229W        W10973   9.872   7.720   2.266
 7230ION    NA+10974   7.818   7.047   9.025
 7231ION    NA+10975   8.838  10.449  11.965
 7232ION    NA+10976   0.422   6.539   3.652
 7233ION    NA+10977   6.662   1.817   3.080
 7234ION    NA+10978   0.002   3.686  11.504
 7235ION    NA+10979   1.384   8.617   2.971
 7236ION    NA+10980   9.975   6.479   0.951
 7237ION    NA+10981   4.890   0.338   9.405
 7238ION    NA+10982   2.953   4.716   0.198
 7239ION    NA+10983   0.100   0.423   9.078
 7240ION    NA+10984   7.390   4.668   8.170
 7241ION    NA+10985   0.182   9.071   9.262
 7242ION    NA+10986   5.285   7.093  11.053
 7243ION    NA+10987   5.213   3.068   9.038
 7244ION    NA+10988   6.376   8.918  10.116
 7245ION    NA+10989   1.439   6.744   9.803
 7246ION    NA+10990   4.061   1.972  11.069
 7247ION    NA+10991   1.577   0.266   0.936
 7248ION    NA+10992   2.748   0.348  10.814
 7249ION    NA+10993   2.330   2.515   1.750
 7250ION    NA+10994   9.390   0.178   1.987
 7251ION    NA+10995   0.478   7.719   1.359
 7252ION    NA+10996   7.717   0.828   3.814
 7253ION    NA+10997   7.911   3.743   9.807
 7254ION    NA+10998   0.240   5.311  10.808
 7255ION    NA+10999   3.807   4.785  11.220
 7256ION    NA+11000   7.051   1.984   0.513
 7257ION    NA+11001   3.637   9.270   2.371
 7258ION    NA+11002   6.644   3.520   1.881
 7259ION    NA+11003   3.250   6.612   9.476
 7260ION    NA+11004   1.629   4.980   1.376
 7261ION    NA+11005  10.418  10.347   2.964
 7262ION    NA+11006   2.673   1.987  11.108
 7263ION    NA+11007   7.063  10.044   9.041
 7264ION    NA+11008   9.364   3.261   0.793
 7265ION    NA+11009   1.692   1.795  11.066
 7266ION    NA+11010   1.686   2.965   9.196
 7267ION    NA+11011   4.534   6.795   9.597
 7268ION    NA+11012   1.783   7.157  11.535
 7269ION    NA+11013   3.849   0.944   0.623
 7270ION    NA+11014   0.291   9.155   0.331
 7271ION    NA+11015   9.397   1.463  10.439
 7272ION    NA+11016   7.588   2.114  11.346
 7273ION    NA+11017   9.635   5.236   3.458
 7274ION    NA+11018   4.534   5.157   0.093
 7275ION    NA+11019   0.922   5.398   0.118
 7276ION    NA+11020  10.097   9.615   9.550
 7277ION    NA+11021   3.308   6.627   2.632
 7278ION    NA+11022   2.725   9.337   1.934
 7279ION    NA+11023   5.920   9.121  10.982
 7280ION    NA+11024   4.933   3.274   8.100
 7281ION    NA+11025   5.390   4.870   1.639
 7282ION    NA+11026   9.650   3.724  11.132
 7283ION    NA+11027   0.240   5.159   1.871
 7284ION    NA+11028   1.153  10.076  11.627
 7285ION    NA+11029   1.716   0.406  10.982
 7286ION    NA+11030   4.113   8.149   1.026
 7287ION    NA+11031   5.109   2.393   1.200
 7288ION    NA+11032   1.074   9.020  11.846
 7289ION    NA+11033   0.241   8.080   2.747
 7290ION    NA+11034   6.289   9.615   1.876
 7291ION    NA+11035   4.980   4.750   0.890
 7292ION    NA+11036   0.673   0.783   0.756
 7293ION    NA+11037   1.351   9.741   3.343
 7294ION    NA+11038   3.807   0.895  10.045
 7295ION    NA+11039   1.885   7.753   9.750
 7296ION    NA+11040   5.255   5.585  11.754
 7297ION    NA+11041   3.925   0.082   9.461
 7298ION    NA+11042   2.807   0.183   0.537
 7299ION    NA+11043   7.879   0.694   2.215
 7300ION    NA+11044   2.020   0.544   0.011
 7301ION    NA+11045   4.754   3.654   1.928
 7302ION    NA+11046   1.018   8.202  11.881
 7303ION    NA+11047   6.808   7.586   0.702
 7304ION    NA+11048   2.758   7.935   2.312
 7305ION    NA+11049   4.372   8.631   9.926
 7306ION    CL-11050   5.132   4.953   1.273
 7307ION    CL-11051   4.868   5.387  11.884
 7308ION    CL-11052   9.019   2.803  10.235
 7309ION    CL-11053   8.573   1.391   9.440
 7310ION    CL-11054  10.407   3.239   1.745
 7311ION    CL-11055   5.471   6.852   1.453
 7312ION    CL-11056   1.690  10.092   8.587
 7313ION    CL-11057   8.534   8.781   9.798
 7314ION    CL-11058   9.208   0.213  10.894
 7315ION    CL-11059   3.233   2.763   3.403
 7316ION    CL-11060   1.926   8.189   9.660
 7317ION    CL-11061   2.796   3.637   1.092
 7318ION    CL-11062   7.440  10.085   9.287
 7319ION    CL-11063   0.626   7.309   1.253
 7320ION    CL-11064   2.682   1.881  11.542
 7321ION    CL-11065   1.180   8.586  11.700
 7322ION    CL-11066   1.299   2.958  11.724
 7323ION    CL-11067   3.733   8.861   2.224
 7324ION    CL-11068   4.655   0.506   1.915
 7325ION    CL-11069   9.173   2.588   8.713
 7326ION    CL-11070   2.842   0.557   2.002
 7327ION    CL-11071   3.936   0.807   1.042
 7328ION    CL-11072   6.795   9.025  10.007
 7329ION    CL-11073   8.529   9.147   0.528
 7330ION    CL-11074   9.409   4.356   9.638
 7331ION    CL-11075   6.734   9.565   1.944
 7332ION    CL-11076   9.351   3.478  10.894
 7333ION    CL-11077   7.883   8.917  10.607
 7334ION    CL-11078   2.892   4.535   3.235
 7335ION    CL-11079   2.667   1.258   1.311
 7336ION    CL-11080   0.632   9.057   0.015
 7337ION    CL-11081   0.158   8.949   0.720
 7338ION    CL-11082   2.088   3.815   0.409
 7339ION    CL-11083   1.555   2.930   8.763
 7340ION    CL-11084   4.438  10.008  11.972
 7341ION    CL-11085   1.274   8.638   2.529
 7342ION    CL-11086   2.451   7.652   2.473
 7343ION    CL-11087   5.105   9.224   9.501
 7344ION    CL-11088   4.750   9.919  10.297
 7345ION    CL-11089   8.324   5.338   8.809
 7346ION    CL-11090   6.608   1.414   3.289
 7347ION    CL-11091  10.074   3.721  11.350
 7348ION    CL-11092   9.898   8.057   1.834
 7349ION    CL-11093   6.825   7.173   0.928
 7350ION    CL-11094   2.256   1.882   0.501
 7351ION    CL-11095   5.063   2.899   9.421
 7352ION    CL-11096  10.468   9.361   9.537
 7353ION    CL-11097   4.177   3.646   3.678
 7354ION    CL-11098   5.857   7.816   1.140
 7355ION    CL-11099   2.508   4.698   0.201
 7356ION    CL-11100   3.157   5.153   8.866
 7357ION    CL-11101   4.850   4.561  10.702
 7358ION    CL-11102   7.157   8.421   1.766
 7359ION    CL-11103   4.009   2.352  11.298
 7360ION    CL-11104   1.193   9.141  10.141
 7361ION    CL-11105   6.813   9.962   8.665
 7362ION    CL-11106   7.981   4.506   1.386
 7363ION    CL-11107   0.268   9.892   0.426
 7364ION    CL-11108   2.594   6.467  11.920
 7365ION    CL-11109   8.010   6.162   9.504
 7366ION    CL-11110   1.371   8.584   3.465
 7367ION    CL-11111   9.274   5.038   8.715
 7368ION    CL-11112   0.645   5.138  10.885
 7369ION    CL-11113   5.172   3.430   4.092
 7370ION    CL-11114   6.911   7.935   0.425
 7371ION    CL-11115   5.844   9.671   1.798
 7372ION    CL-11116   4.019   5.062  10.943
 7373ION    CL-11117   3.481   6.873   2.961
 7374ION    CL-11118   0.557   1.147   0.525
 7375ION    CL-11119   8.466   8.202  10.996
 7376ION    CL-11120   8.915   6.942  10.762
 7377ION    CL-11121   8.485  10.130   3.003
 7378ION    CL-11122   4.192   2.278   9.385
 7379ION    CL-11123   3.193   0.621   8.480
 7380ION    CL-11124   2.243   2.881   1.507
 7381ION    CL-11125   1.307   9.790  11.939
  10.50000  10.50000  12.00000
