Protein in INSANE! Membrane UpperLeaflet>POPC=1.0 LowerLeaflet>POPC=1.0
12676
    1AU     AUC    1   5.749   5.857   6.007
    1AU     AUC    2   6.013   5.853   5.848
    1AU     AUC    3   6.004   5.847   6.155
    1AU     AUC    4   5.503   5.858   5.846
    1AU     AUC    5   5.486   5.881   6.152
    1AU     AUC    6   5.606   6.119   6.005
    1AU     AUC    7   5.915   6.110   5.983
    1AU     AUC    8   5.590   5.604   6.021
    1AU     AUC    9   5.884   5.598   6.036
    1AU     AUC   10   5.737   5.713   6.272
    1AU     AUC   11   5.775   6.025   6.256
    1AU     AUC   12   5.750   5.689   5.753
    1AU     AUC   13   5.740   5.991   5.741
    1AU     AUC   14   6.259   5.840   5.683
    1AU     AUC   15   6.271   5.852   5.992
    1AU     AUC   16   6.263   5.848   6.302
    1AU     AUC   17   5.243   5.847   5.689
    1AU     AUC   18   5.230   5.882   5.990
    1AU     AUC   19   5.239   5.907   6.315
    1AU     AUC   20   5.468   6.391   6.002
    1AU     AUC   21   5.773   6.384   5.993
    1AU     AUC   22   6.064   6.374   5.991
    1AU     AUC   23   5.402   5.354   6.035
    1AU     AUC   24   5.722   5.332   6.021
    1AU     AUC   25   6.037   5.332   6.045
    1AU     AUC   26   5.714   5.562   6.525
    1AU     AUC   27   5.752   5.874   6.536
    1AU     AUC   28   5.779   6.185   6.521
    1AU     AUC   29   5.750   5.509   5.519
    1AU     AUC   30   5.760   5.827   5.482
    1AU     AUC   31   5.742   6.139   5.474
    1AU     AUC   32   6.016   5.708   6.433
    1AU     AUC   33   6.024   6.004   6.422
    1AU     AUC   34   6.019   5.677   5.590
    1AU     AUC   35   6.020   5.987   5.573
    1AU     AUC   36   5.478   5.739   6.437
    1AU     AUC   37   5.498   6.047   6.432
    1AU     AUC   38   5.500   5.683   5.580
    1AU     AUC   39   5.491   5.996   5.578
    1AU     AUC   40   6.170   6.116   5.822
    1AU     AUC   41   6.184   6.096   6.141
    1AU     AUC   42   5.338   6.122   5.847
    1AU     AUC   43   5.346   6.150   6.167
    1AU     AUC   44   6.158   5.583   5.861
    1AU     AUC   45   6.162   5.589   6.178
    1AU     AUC   46   5.321   5.604   5.852
    1AU     AUC   47   5.322   5.630   6.190
    1AU     AUC   48   5.610   6.287   6.270
    1AU     AUC   49   5.932   6.284   6.241
    1AU     AUC   50   5.564   5.445   6.276
    1AU     AUC   51   5.885   5.444   6.298
    1AU     AUC   52   5.596   6.271   5.735
    1AU     AUC   53   5.914   6.255   5.721
    1AU     AUC   54   5.571   5.441   5.760
    1AU     AUC   55   5.900   5.421   5.778
    1AU    AUSL   56   6.090   5.805   6.599
    1AU    AUSL   57   6.050   5.377   6.655
    1AU     AUL   58   6.280   5.461   6.912
    1AU       S   59   6.317   5.090   6.594
    1AU     LIG   60   6.177   4.820   6.909
    1AU     LIG   61   6.318   4.460   7.149
    1AU     LIG   62   6.581   4.202   7.450
    1AU     LIG   63   6.666   3.939   7.843
    1AU     LIG   64   6.720   3.773   8.293
    1AU     LIG   65   6.934   3.600   8.674
    1AU       S   66   6.158   5.831   7.161
    1AU     LIG   67   6.311   5.640   7.530
    1AU     LIG   68   6.623   5.447   7.808
    1AU     LIG   69   6.959   5.512   8.124
    1AU     LIG   70   7.319   5.489   8.419
    1AU     LIG   71   7.657   5.604   8.715
    1AU     LIG   72   7.910   5.593   9.099
    1AU    AUSL   73   5.813   5.653   6.879
    1AU    AUSL   74   5.700   6.057   6.794
    1AU     AUL   75   5.757   6.028   7.216
    1AU       S   76   5.887   5.655   7.014
    1AU     LIG   77   5.988   5.301   7.299
    1AU     LIG   78   6.183   5.154   7.737
    1AU     LIG   79   6.248   4.951   8.200
    1AU     LIG   80   6.269   4.754   8.665
    1AU     LIG   81   6.419   4.654   9.119
    1AU     LIG   82   6.553   4.829   9.543
    1AU       S   83   5.396   5.769   7.152
    1AU     LIG   84   5.306   5.676   7.623
    1AU     LIG   85   5.105   5.611   8.049
    1AU     LIG   86   5.027   5.747   8.497
    1AU     LIG   87   5.102   6.020   8.891
    1AU     LIG   88   4.977   6.271   9.273
    1AU     LIG   89   4.700   6.458   9.615
    1AU    AUSL   90   6.095   6.178   6.785
    1AU    AUSL   91   6.421   6.036   6.474
    1AU     AUL   92   6.390   5.900   6.784
    1AU       S   93   6.110   6.209   6.981
    1AU     LIG   94   6.375   6.254   7.356
    1AU     LIG   95   6.445   6.452   7.787
    1AU     LIG   96   6.486   6.660   8.220
    1AU     LIG   97   6.521   6.789   8.692
    1AU     LIG   98   6.641   6.849   9.168
    1AU     LIG   99   6.596   6.823   9.646
    1AU       S  100   6.705   6.104   6.513
    1AU     LIG  101   6.964   6.101   6.898
    1AU     LIG  102   7.206   6.338   7.233
    1AU     LIG  103   7.479   6.645   7.481
    1AU     LIG  104   7.753   6.767   7.866
    1AU     LIG  105   8.171   6.837   8.120
    1AU     LIG  106   8.547   7.019   8.369
    1AU    AUSL  107   6.288   5.877   5.373
    1AU    AUSL  108   6.061   6.273   5.322
    1AU     AUL  109   6.408   6.200   4.948
    1AU       S  110   6.346   5.893   5.237
    1AU     LIG  111   6.605   5.769   4.846
    1AU     LIG  112   6.650   5.592   4.428
    1AU     LIG  113   6.795   5.481   3.987
    1AU     LIG  114   7.186   5.525   3.691
    1AU     LIG  115   7.575   5.656   3.421
    1AU     LIG  116   7.716   5.723   2.965
    1AU       S  117   6.059   6.324   5.169
    1AU     LIG  118   6.350   6.677   5.058
    1AU     LIG  119   6.707   6.739   4.743
    1AU     LIG  120   7.030   6.873   4.391
    1AU     LIG  121   7.224   7.066   3.989
    1AU     LIG  122   7.390   7.423   3.705
    1AU     LIG  123   7.491   7.899   3.625
    1AU    AUSL  124   6.024   5.557   5.213
    1AU    AUSL  125   6.366   5.490   5.507
    1AU     AUL  126   6.379   5.468   5.160
    1AU       S  127   6.492   5.068   5.376
    1AU     LIG  128   6.608   4.873   4.975
    1AU     LIG  129   6.847   4.522   4.769
    1AU     LIG  130   7.089   4.296   4.428
    1AU     LIG  131   7.488   4.374   4.161
    1AU     LIG  132   7.853   4.477   3.863
    1AU     LIG  133   8.213   4.301   3.605
    1AU       S  134   6.106   5.795   4.948
    1AU     LIG  135   6.205   5.426   4.686
    1AU     LIG  136   6.329   5.227   4.262
    1AU     LIG  137   6.396   5.179   3.788
    1AU     LIG  138   6.375   5.079   3.306
    1AU     LIG  139   6.396   5.025   2.814
    1AU     LIG  140   6.618   5.001   2.373
    1AU    AUSL  141   5.868   5.916   5.385
    1AU    AUSL  142   5.615   5.655   5.166
    1AU     AUL  143   5.825   5.442   5.073
    1AU       S  144   5.574   5.748   4.824
    1AU     LIG  145   5.489   5.467   4.461
    1AU     LIG  146   5.250   5.218   4.119
    1AU     LIG  147   5.067   4.924   3.766
    1AU     LIG  148   4.989   4.777   3.307
    1AU     LIG  149   4.812   4.907   2.877
    1AU     LIG  150   4.675   5.124   2.460
    1AU       S  151   6.010   5.886   5.012
    1AU     LIG  152   6.200   5.904   4.493
    1AU     LIG  153   6.312   5.703   4.056
    1AU     LIG  154   6.466   5.653   3.603
    1AU     LIG  155   6.529   5.816   3.163
    1AU     LIG  156   6.726   6.173   2.915
    1AU     LIG  157   6.837   6.382   2.508
    1AU    AUSL  158   5.306   5.938   6.728
    1AU    AUSL  159   5.448   6.350   6.635
    1AU     AUL  160   5.484   6.246   6.924
    1AU       S  161   5.227   5.941   7.177
    1AU     LIG  162   4.916   5.600   7.293
    1AU     LIG  163   4.756   5.411   7.721
    1AU     LIG  164   4.525   5.322   8.160
    1AU     LIG  165   4.196   5.301   8.545
    1AU     LIG  166   3.983   5.460   8.967
    1AU     LIG  167   3.624   5.741   9.168
    1AU       S  168   5.033   6.319   6.861
    1AU     LIG  169   5.020   6.579   7.262
    1AU     LIG  170   4.944   6.851   7.655
    1AU     LIG  171   4.822   6.957   8.105
    1AU     LIG  172   4.764   7.268   8.457
    1AU     LIG  173   4.567   7.639   8.689
    1AU     LIG  174   4.320   8.053   8.752
    1AU    AUSL  175   5.609   5.731   6.530
    1AU    AUSL  176   5.067   5.669   6.516
    1AU     AUL  177   5.115   5.787   6.757
    1AU       S  178   4.908   5.357   6.733
    1AU     LIG  179   4.484   5.152   6.586
    1AU     LIG  180   4.086   4.912   6.703
    1AU     LIG  181   3.910   4.633   7.052
    1AU     LIG  182   3.734   4.340   7.381
    1AU     LIG  183   3.443   4.165   7.706
    1AU     LIG  184   3.143   4.272   8.065
    1AU       S  185   5.408   5.655   7.107
    1AU     LIG  186   5.306   5.264   7.317
    1AU     LIG  187   5.208   5.168   7.776
    1AU     LIG  188   5.006   5.119   8.213
    1AU     LIG  189   4.859   4.892   8.618
    1AU     LIG  190   4.846   4.746   9.078
    1AU     LIG  191   4.737   4.922   9.497
    1AU    AUSL  192   5.354   5.802   5.457
    1AU    AUSL  193   5.500   5.379   5.451
    1AU     AUL  194   5.322   5.489   5.149
    1AU       S  195   5.329   5.830   4.820
    1AU     LIG  196   5.025   5.685   4.487
    1AU     LIG  197   4.820   5.495   4.083
    1AU     LIG  198   4.601   5.204   3.755
    1AU     LIG  199   4.229   5.106   3.450
    1AU     LIG  200   3.944   5.217   3.080
    1AU     LIG  201   3.806   5.546   2.749
    1AU       S  202   5.037   5.089   5.309
    1AU     LIG  203   4.740   4.745   5.275
    1AU     LIG  204   4.399   4.512   5.068
    1AU     LIG  205   4.160   4.293   4.720
    1AU     LIG  206   4.234   4.086   4.275
    1AU     LIG  207   4.313   3.794   3.882
    1AU     LIG  208   4.149   3.449   3.579
    1AU    AUSL  209   5.551   6.087   5.171
    1AU    AUSL  210   5.117   6.146   5.447
    1AU     AUL  211   5.145   5.931   5.221
    1AU       S  212   5.049   6.391   5.227
    1AU     LIG  213   4.683   6.618   4.982
    1AU     LIG  214   4.513   6.703   4.528
    1AU     LIG  215   4.430   6.865   4.075
    1AU     LIG  216   4.110   7.025   3.759
    1AU     LIG  217   3.652   7.154   3.741
    1AU     LIG  218   3.405   7.542   3.663
    1AU       S  219   5.550   6.007   4.959
    1AU     LIG  220   5.518   6.001   4.407
    1AU     LIG  221   5.286   5.759   4.049
    1AU     LIG  222   5.066   5.826   3.626
    1AU     LIG  223   5.092   6.073   3.200
    1AU     LIG  224   5.126   6.223   2.734
    1AU     LIG  225   4.946   6.289   2.288
    1AU    AUSL  226   6.375   6.477   5.936
    1AU    AUSL  227   6.405   6.221   5.585
    1AU     AUL  228   6.528   6.673   5.736
    1AU       S  229   6.535   6.330   5.376
    1AU     LIG  230   6.877   6.327   5.043
    1AU     LIG  231   7.156   6.459   4.676
    1AU     LIG  232   7.488   6.599   4.358
    1AU     LIG  233   7.930   6.578   4.158
    1AU     LIG  234   8.297   6.837   4.001
    1AU     LIG  235   8.481   7.029   3.593
    1AU       S  236   6.825   6.330   5.857
    1AU     LIG  237   7.301   6.451   5.993
    1AU     LIG  238   7.810   6.507   6.006
    1AU     LIG  239   8.304   6.595   6.001
    1AU     LIG  240   8.701   6.913   6.010
    1AU     LIG  241   8.995   7.323   6.005
    1AU     LIG  242   9.216   7.726   6.174
    1AU    AUSL  243   6.598   5.886   5.731
    1AU    AUSL  244   6.596   5.735   6.156
    1AU     AUL  245   6.867   5.674   5.927
    1AU       S  246   6.835   6.103   5.751
    1AU     LIG  247   7.300   5.978   5.814
    1AU     LIG  248   7.795   6.046   5.775
    1AU     LIG  249   8.280   6.142   5.711
    1AU     LIG  250   8.764   6.079   5.666
    1AU     LIG  251   9.202   6.284   5.660
    1AU     LIG  252   9.566   6.590   5.490
    1AU       S  253   6.897   5.268   6.170
    1AU     LIG  254   7.292   5.039   6.220
    1AU     LIG  255   7.699   4.806   6.237
    1AU     LIG  256   8.088   4.562   6.264
    1AU     LIG  257   8.512   4.411   6.218
    1AU     LIG  258   8.881   4.341   6.474
    1AU     LIG  259   9.208   4.430   6.813
    1AU    AUSL  260   6.384   6.076   6.059
    1AU    AUSL  261   6.280   6.410   6.342
    1AU     AUL  262   6.524   6.415   6.206
    1AU       S  263   6.578   6.307   6.636
    1AU     LIG  264   6.981   6.542   6.635
    1AU     LIG  265   7.199   6.788   6.985
    1AU     LIG  266   7.383   7.127   7.271
    1AU     LIG  267   7.598   7.578   7.281
    1AU     LIG  268   7.842   8.003   7.346
    1AU     LIG  269   8.098   8.379   7.510
    1AU       S  270   6.842   6.139   6.043
    1AU     LIG  271   7.180   6.072   6.323
    1AU     LIG  272   7.649   6.091   6.270
    1AU     LIG  273   8.136   6.125   6.199
    1AU     LIG  274   8.626   6.191   6.146
    1AU     LIG  275   9.108   6.315   6.175
    1AU     LIG  276   9.455   6.585   6.390
    1AU    AUSL  277   5.097   6.432   6.073
    1AU    AUSL  278   5.140   6.160   6.419
    1AU     AUL  279   5.105   6.608   6.341
    1AU       S  280   4.931   6.238   6.614
    1AU     LIG  281   4.583   6.436   6.988
    1AU     LIG  282   4.524   6.655   7.425
    1AU     LIG  283   4.385   6.738   7.899
    1AU     LIG  284   4.043   6.817   8.263
    1AU     LIG  285   3.603   7.016   8.400
    1AU     LIG  286   3.213   7.271   8.550
    1AU       S  287   4.733   6.475   6.115
    1AU     LIG  288   4.627   6.916   6.271
    1AU     LIG  289   4.383   7.359   6.143
    1AU     LIG  290   4.001   7.696   6.146
    1AU     LIG  291   3.541   7.891   6.060
    1AU     LIG  292   3.108   8.129   6.133
    1AU     LIG  293   2.696   8.150   6.422
    1AU    AUSL  294   5.175   6.086   5.850
    1AU    AUSL  295   5.263   6.495   5.687
    1AU     AUL  296   4.996   6.420   5.709
    1AU       S  297   4.610   6.383   5.973
    1AU     LIG  298   4.457   6.518   5.549
    1AU     LIG  299   4.029   6.752   5.426
    1AU     LIG  300   3.526   6.801   5.328
    1AU     LIG  301   3.050   6.934   5.245
    1AU     LIG  302   2.585   6.760   5.219
    1AU     LIG  303   2.126   6.917   5.115
    1AU       S  304   5.094   6.670   5.315
    1AU     LIG  305   4.982   7.039   5.027
    1AU     LIG  306   4.910   7.439   4.788
    1AU     LIG  307   4.531   7.693   4.783
    1AU     LIG  308   4.391   8.088   4.600
    1AU     LIG  309   4.023   8.328   4.416
    1AU     LIG  310   3.798   8.729   4.282
    1AU    AUSL  311   4.876   6.019   6.143
    1AU    AUSL  312   4.928   5.760   5.795
    1AU     AUL  313   4.777   6.018   5.755
    1AU       S  314   4.576   5.579   5.922
    1AU     LIG  315   4.226   5.490   6.269
    1AU     LIG  316   3.752   5.370   6.353
    1AU     LIG  317   3.306   5.204   6.230
    1AU     LIG  318   2.903   5.045   5.932
    1AU     LIG  319   2.400   5.031   5.881
    1AU     LIG  320   1.977   4.928   5.650
    1AU       S  321   4.687   6.086   6.223
    1AU     LIG  322   4.436   6.388   6.501
    1AU     LIG  323   4.038   6.575   6.706
    1AU     LIG  324   3.550   6.691   6.741
    1AU     LIG  325   3.066   6.801   6.711
    1AU     LIG  326   2.647   7.039   6.763
    1AU     LIG  327   2.204   6.887   6.828
    1AU    AUSL  328   6.442   5.338   6.084
    1AU    AUSL  329   6.392   5.555   6.467
    1AU     AUL  330   6.693   5.602   6.416
    1AU       S  331   6.591   5.078   6.058
    1AU     LIG  332   6.839   4.764   6.271
    1AU     LIG  333   7.248   4.528   6.151
    1AU     LIG  334   7.679   4.335   6.007
    1AU     LIG  335   8.132   4.147   5.959
    1AU     LIG  336   8.489   3.897   6.167
    1AU     LIG  337   8.858   3.822   6.506
    1AU       S  338   6.427   5.231   6.545
    1AU     LIG  339   6.705   4.856   6.784
    1AU     LIG  340   6.842   4.544   7.133
    1AU     LIG  341   7.100   4.295   7.463
    1AU     LIG  342   7.455   4.230   7.792
    1AU     LIG  343   7.802   4.250   8.141
    1AU     LIG  344   8.224   4.243   8.382
    1AU    AUSL  345   6.283   5.667   5.872
    1AU    AUSL  346   6.204   5.196   5.773
    1AU     AUL  347   6.549   5.403   5.701
    1AU       S  348   6.639   5.248   6.109
    1AU     LIG  349   6.997   4.959   5.800
    1AU     LIG  350   7.481   4.799   5.771
    1AU     LIG  351   7.978   4.688   5.779
    1AU     LIG  352   8.428   4.494   5.706
    1AU     LIG  353   8.834   4.439   5.473
    1AU     LIG  354   9.215   4.693   5.530
    1AU       S  355   6.432   4.953   5.590
    1AU     LIG  356   6.433   4.544   5.328
    1AU     LIG  357   6.629   4.169   5.083
    1AU     LIG  358   6.856   3.783   4.880
    1AU     LIG  359   7.082   3.328   4.870
    1AU     LIG  360   7.502   3.096   4.765
    1AU     LIG  361   7.979   3.109   4.640
    1AU    AUSL  362   5.015   5.381   5.990
    1AU    AUSL  363   5.111   5.479   5.559
    1AU     AUL  364   4.848   5.583   5.533
    1AU       S  365   5.012   5.151   5.554
    1AU     LIG  366   4.540   5.164   5.511
    1AU     LIG  367   4.224   4.996   5.237
    1AU     LIG  368   3.975   4.766   4.930
    1AU     LIG  369   3.684   4.502   4.691
    1AU     LIG  370   3.408   4.429   4.312
    1AU     LIG  371   3.155   4.431   3.903
    1AU       S  372   4.729   5.364   5.925
    1AU     LIG  373   4.396   5.084   6.016
    1AU     LIG  374   3.959   5.031   6.040
    1AU     LIG  375   3.627   4.814   6.276
    1AU     LIG  376   3.159   4.685   6.202
    1AU     LIG  377   2.741   4.433   6.085
    1AU     LIG  378   2.515   4.027   5.930
    1AU    AUSL  379   5.190   5.749   6.137
    1AU    AUSL  380   5.275   5.356   6.321
    1AU     AUL  381   4.891   5.550   6.309
    1AU       S  382   4.995   5.168   6.539
    1AU     LIG  383   4.791   4.889   6.271
    1AU     LIG  384   4.379   4.659   6.368
    1AU     LIG  385   4.101   4.362   6.662
    1AU     LIG  386   3.844   4.058   6.967
    1AU     LIG  387   3.651   3.714   7.271
    1AU     LIG  388   3.558   3.231   7.357
    1AU       S  389   4.616   5.642   5.965
    1AU     LIG  390   4.133   5.453   5.768
    1AU     LIG  391   3.643   5.420   5.845
    1AU     LIG  392   3.151   5.498   5.858
    1AU     LIG  393   2.848   5.421   6.250
    1AU     LIG  394   2.370   5.365   6.315
    1AU     LIG  395   1.941   5.242   6.499
    1AU    AUSL  396   5.804   6.548   6.536
    1AU    AUSL  397   5.471   6.329   6.220
    1AU     AUL  398   5.504   6.628   6.613
    1AU       S  399   5.102   6.460   6.766
    1AU     LIG  400   4.868   6.836   6.833
    1AU     LIG  401   4.766   7.105   7.220
    1AU     LIG  402   4.684   7.561   7.403
    1AU     LIG  403   4.571   8.048   7.427
    1AU     LIG  404   4.291   8.437   7.500
    1AU     LIG  405   3.855   8.565   7.646
    1AU       S  406   5.859   6.933   6.494
    1AU     LIG  407   5.994   7.108   6.876
    1AU     LIG  408   6.054   7.543   7.035
    1AU     LIG  409   6.105   7.878   7.376
    1AU     LIG  410   6.082   8.157   7.776
    1AU     LIG  411   5.929   8.495   8.087
    1AU     LIG  412   5.863   8.950   8.219
    1AU    AUSL  413   5.548   6.728   6.169
    1AU    AUSL  414   6.000   6.699   5.754
    1AU     AUL  415   5.690   6.956   5.917
    1AU       S  416   5.695   7.006   6.375
    1AU     LIG  417   5.792   7.450   6.547
    1AU     LIG  418   5.752   7.873   6.745
    1AU     LIG  419   5.506   8.275   6.805
    1AU     LIG  420   5.389   8.736   6.896
    1AU     LIG  421   5.322   9.214   7.029
    1AU     LIG  422   5.162   9.660   7.121
    1AU       S  423   6.025   7.039   5.580
    1AU     LIG  424   6.372   7.279   5.379
    1AU     LIG  425   6.482   7.736   5.256
    1AU     LIG  426   6.776   8.142   5.222
    1AU     LIG  427   6.860   8.625   5.228
    1AU     LIG  428   6.882   9.099   5.203
    1AU     LIG  429   6.854   9.572   5.121
    1AU    AUSL  430   5.950   6.559   6.144
    1AU    AUSL  431   5.936   6.181   6.409
    1AU     AUL  432   6.133   6.569   6.543
    1AU       S  433   6.514   6.354   6.736
    1AU     LIG  434   6.739   6.533   7.103
    1AU     LIG  435   6.973   6.756   7.460
    1AU     LIG  436   7.214   6.900   7.859
    1AU     LIG  437   7.258   7.128   8.292
    1AU     LIG  438   7.296   7.534   8.565
    1AU     LIG  439   7.446   7.871   8.883
    1AU       S  440   6.039   6.880   6.216
    1AU     LIG  441   6.258   7.256   6.451
    1AU     LIG  442   6.355   7.713   6.632
    1AU     LIG  443   6.664   8.128   6.682
    1AU     LIG  444   6.830   8.610   6.728
    1AU     LIG  445   6.672   9.066   6.715
    1AU     LIG  446   6.733   9.532   6.837
    1AU    AUSL  447   5.702   5.293   6.444
    1AU    AUSL  448   6.065   5.413   6.237
    1AU     AUL  449   5.888   5.179   6.706
    1AU       S  450   5.775   4.753   6.577
    1AU     LIG  451   5.808   4.382   6.818
    1AU     LIG  452   5.464   4.076   6.825
    1AU     LIG  453   5.358   3.631   6.877
    1AU     LIG  454   5.347   3.281   7.194
    1AU     LIG  455   5.376   3.099   7.642
    1AU     LIG  456   5.445   2.803   8.012
    1AU       S  457   6.347   5.053   6.458
    1AU     LIG  458   6.370   4.589   6.494
    1AU     LIG  459   6.605   4.273   6.763
    1AU     LIG  460   6.891   4.013   7.070
    1AU     LIG  461   7.204   3.674   7.263
    1AU     LIG  462   7.519   3.292   7.355
    1AU     LIG  463   7.909   3.011   7.364
    1AU    AUSL  464   5.510   5.049   6.169
    1AU    AUSL  465   5.415   5.425   6.719
    1AU     AUL  466   5.441   5.082   6.532
    1AU       S  467   5.592   4.657   6.450
    1AU     LIG  468   5.410   4.264   6.324
    1AU     LIG  469   5.222   3.837   6.414
    1AU     LIG  470   5.019   3.421   6.530
    1AU     LIG  471   4.746   3.026   6.539
    1AU     LIG  472   4.614   2.644   6.777
    1AU     LIG  473   4.673   2.210   6.904
    1AU       S  474   5.148   5.300   6.812
    1AU     LIG  475   4.835   4.905   6.929
    1AU     LIG  476   4.453   4.621   6.945
    1AU     LIG  477   4.246   4.269   7.201
    1AU     LIG  478   4.051   3.951   7.507
    1AU     LIG  479   4.034   3.684   7.908
    1AU     LIG  480   4.037   3.616   8.382
    1AU    AUSL  481   5.959   5.013   6.225
    1AU    AUSL  482   5.470   5.039   5.750
    1AU     AUL  483   5.649   4.804   6.022
    1AU       S  484   5.394   4.713   5.626
    1AU     LIG  485   5.088   4.414   5.540
    1AU     LIG  486   5.079   3.948   5.633
    1AU     LIG  487   5.095   3.478   5.524
    1AU     LIG  488   4.847   3.063   5.436
    1AU     LIG  489   4.662   2.644   5.270
    1AU     LIG  490   4.634   2.226   5.061
    1AU       S  491   5.911   4.824   6.393
    1AU     LIG  492   5.939   4.326   6.322
    1AU     LIG  493   5.748   3.886   6.442
    1AU     LIG  494   5.683   3.407   6.522
    1AU     LIG  495   5.919   2.962   6.525
    1AU     LIG  496   6.127   2.560   6.715
    1AU     LIG  497   6.285   2.155   6.913
    1AU    AUSL  498   5.743   6.516   5.438
    1AU    AUSL  499   6.046   6.287   5.766
    1AU     AUL  500   6.124   6.600   5.505
    1AU       S  501   5.790   6.805   5.253
    1AU     LIG  502   6.055   7.090   5.025
    1AU     LIG  503   6.168   7.515   4.889
    1AU     LIG  504   6.107   7.800   4.511
    1AU     LIG  505   6.049   8.109   4.153
    1AU     LIG  506   6.015   8.535   3.967
    1AU     LIG  507   6.036   8.866   3.630
    1AU       S  508   6.485   6.303   5.469
    1AU     LIG  509   6.788   6.738   5.321
    1AU     LIG  510   7.126   6.860   5.008
    1AU     LIG  511   7.383   7.140   4.720
    1AU     LIG  512   7.623   7.573   4.695
    1AU     LIG  513   7.821   8.005   4.581
    1AU     LIG  514   7.834   8.415   4.325
    1AU    AUSL  515   5.644   6.489   5.846
    1AU    AUSL  516   5.528   6.192   5.565
    1AU     AUL  517   5.476   6.679   5.588
    1AU       S  518   5.827   6.975   5.481
    1AU     LIG  519   5.886   7.461   5.339
    1AU     LIG  520   5.950   7.912   5.166
    1AU     LIG  521   5.777   8.369   5.072
    1AU     LIG  522   5.454   8.743   4.981
    1AU     LIG  523   5.411   9.221   4.850
    1AU     LIG  524   4.996   9.418   4.740
    1AU       S  525   5.325   6.487   5.187
    1AU     LIG  526   5.148   6.631   4.762
    1AU     LIG  527   4.952   6.945   4.431
    1AU     LIG  528   4.904   7.033   3.943
    1AU     LIG  529   4.872   7.368   3.598
    1AU     LIG  530   4.553   7.681   3.441
    1AU     LIG  531   4.235   7.898   3.146
    1AU    AUSL  532   5.827   5.128   5.488
    1AU    AUSL  533   5.405   5.428   5.861
    1AU     AUL  534   5.468   5.132   5.444
    1AU       S  535   5.018   5.027   5.687
    1AU     LIG  536   4.678   4.736   5.775
    1AU     LIG  537   4.266   4.605   5.562
    1AU     LIG  538   3.937   4.369   5.253
    1AU     LIG  539   3.692   4.040   4.974
    1AU     LIG  540   3.416   3.620   4.873
    1AU     LIG  541   3.259   3.303   4.545
    1AU       S  542   5.723   4.754   5.409
    1AU     LIG  543   5.477   4.475   5.160
    1AU     LIG  544   5.307   4.061   5.189
    1AU     LIG  545   5.341   3.613   5.087
    1AU     LIG  546   5.372   3.288   4.749
    1AU     LIG  547   5.355   3.129   4.292
    1AU     LIG  548   5.473   2.835   3.941
    1AU    AUSL  549   5.812   5.226   5.906
    1AU    AUSL  550   5.942   5.502   5.607
    1AU     AUL  551   5.988   4.983   5.718
    1AU       S  552   5.628   4.707   5.585
    1AU     LIG  553   5.573   4.232   5.622
    1AU     LIG  554   5.554   3.763   5.543
    1AU     LIG  555   5.643   3.312   5.418
    1AU     LIG  556   5.988   2.956   5.431
    1AU     LIG  557   6.278   2.591   5.321
    1AU     LIG  558   6.496   2.205   5.119
    1AU       S  559   6.240   5.060   5.318
    1AU     LIG  560   6.092   4.785   5.022
    1AU     LIG  561   6.324   4.460   4.780
    1AU     LIG  562   6.586   4.132   4.551
    1AU     LIG  563   6.745   3.936   4.154
    1AU     LIG  564   6.927   3.718   3.781
    1AU     LIG  565   7.223   3.569   3.457
    2POPC   NC3  566   1.387   2.491   7.922
    2POPC   PO4  567   1.140   3.069   8.136
    2POPC   GL1  568   1.226   2.968   7.718
    2POPC   GL2  569   0.898   2.813   7.688
    2POPC   C1A  570   1.257   2.699   7.320
    2POPC   D2A  571   1.481   2.705   6.949
    2POPC   C3A  572   1.355   2.746   6.544
    2POPC   C4A  573   1.650   2.974   6.300
    2POPC   C1B  574   0.889   3.034   7.288
    2POPC   C2B  575   1.001   3.061   6.856
    2POPC   C3B  576   0.860   2.872   6.472
    2POPC   C4B  577   1.104   2.770   6.087
    3POPC   NC3  578   2.748   1.961   8.088
    3POPC   PO4  579   3.229   2.304   7.715
    3POPC   GL1  580   3.009   1.906   7.600
    3POPC   GL2  581   2.668   1.735   7.640
    3POPC   C1A  582   3.041   1.904   7.174
    3POPC   D2A  583   3.149   1.995   6.778
    3POPC   C3A  584   2.992   1.874   6.465
    3POPC   C4A  585   3.062   1.960   6.099
    3POPC   C1B  586   2.560   1.980   7.290
    3POPC   C2B  587   2.604   2.114   6.862
    3POPC   C3B  588   2.499   2.038   6.450
    3POPC   C4B  589   2.608   2.157   6.021
    4POPC   NC3  590   8.563   5.211   8.178
    4POPC   PO4  591   9.052   5.467   8.233
    4POPC   GL1  592   8.935   5.277   7.805
    4POPC   GL2  593   8.954   4.917   7.683
    4POPC   C1A  594   8.953   5.287   7.315
    4POPC   D2A  595   9.195   5.185   6.903
    4POPC   C3A  596   9.053   5.250   6.449
    4POPC   C4A  597   8.796   5.286   6.060
    4POPC   C1B  598   8.994   4.784   7.199
    4POPC   C2B  599   8.869   4.821   6.734
    4POPC   C3B  600   8.849   4.809   6.283
    4POPC   C4B  601   8.936   4.524   5.958
    5POPC   NC3  602   1.402   0.517   8.089
    5POPC   PO4  603   0.839   0.818   7.979
    5POPC   GL1  604   1.021   0.467   7.714
    5POPC   GL2  605   1.238   0.155   7.766
    5POPC   C1A  606   0.926   0.361   7.284
    5POPC   D2A  607   0.830   0.534   6.880
    5POPC   C3A  608   0.848   0.172   6.612
    5POPC   C4A  609   0.860  11.485   6.226
    5POPC   C1B  610   1.433   0.378   7.399
    5POPC   C2B  611   1.342   0.532   6.961
    5POPC   C3B  612   1.218   0.518   6.516
    5POPC   C4B  613   1.277   0.259   6.163
    6POPC   NC3  614   7.823   2.574   7.963
    6POPC   PO4  615   7.594   3.143   8.028
    6POPC   GL1  616   7.491   2.849   7.659
    6POPC   GL2  617   7.134   2.744   7.673
    6POPC   C1A  618   7.488   2.769   7.186
    6POPC   D2A  619   7.364   2.871   6.735
    6POPC   C3A  620   7.593   2.765   6.332
    6POPC   C4A  621   7.649   2.907   5.889
    6POPC   C1B  622   7.164   2.426   7.372
    6POPC   C2B  623   7.164   2.418   6.918
    6POPC   C3B  624   7.099   2.508   6.466
    6POPC   C4B  625   7.270   2.472   6.049
    7POPC   NC3  626   2.117   5.677   8.154
    7POPC   PO4  627   1.641   6.102   8.058
    7POPC   GL1  628   1.640   5.940   7.667
    7POPC   GL2  629   1.999   5.920   7.658
    7POPC   C1A  630   1.632   6.119   7.245
    7POPC   D2A  631   1.830   6.033   6.870
    7POPC   C3A  632   1.681   6.062   6.452
    7POPC   C4A  633   1.731   5.691   6.239
    7POPC   C1B  634   1.868   5.669   7.292
    7POPC   C2B  635   2.032   5.570   6.884
    7POPC   C3B  636   2.135   5.807   6.513
    7POPC   C4B  637   2.189   5.784   6.061
    8POPC   NC3  638   0.376   5.421   8.150
    8POPC   PO4  639   0.038   4.844   8.135
    8POPC   GL1  640   0.203   5.000   7.809
    8POPC   GL2  641   0.540   5.025   7.861
    8POPC   C1A  642   0.089   4.824   7.384
    8POPC   D2A  643   0.166   4.617   6.979
    8POPC   C3A  644   0.012   4.781   6.591
    8POPC   C4A  645   0.213   4.860   6.234
    8POPC   C1B  646   0.518   5.154   7.449
    8POPC   C2B  647   0.476   5.025   7.028
    8POPC   C3B  648   0.448   5.151   6.567
    8POPC   C4B  649   0.619   5.168   6.146
    9POPC   NC3  650  11.178   5.273   8.128
    9POPC   PO4  651  10.993   4.741   8.384
    9POPC   GL1  652  11.080   4.837   7.854
    9POPC   GL2  653  11.247   5.132   7.667
    9POPC   C1A  654  11.038   4.833   7.360
    9POPC   D2A  655  11.029   5.108   6.971
    9POPC   C3A  656  10.971   4.931   6.570
    9POPC   C4A  657  11.089   4.835   6.172
    9POPC   C1B  658  11.404   5.292   7.286
    9POPC   C2B  659   0.034   5.208   6.858
    9POPC   C3B  660  11.408   5.262   6.382
    9POPC   C4B  661  11.179   5.298   5.951
   10POPC   NC3  662  11.368   8.182   7.902
   10POPC   PO4  663  10.659   8.326   8.045
   10POPC   GL1  664  10.949   8.331   7.638
   10POPC   GL2  665  11.322   8.415   7.482
   10POPC   C1A  666  10.890   8.344   7.191
   10POPC   D2A  667  10.884   8.498   6.794
   10POPC   C3A  668  11.043   8.194   6.584
   10POPC   C4A  669  10.984   8.049   6.197
   10POPC   C1B  670  11.338   8.039   7.244
   10POPC   C2B  671  11.470   8.084   6.838
   10POPC   C3B  672  11.472   7.980   6.443
   10POPC   C4B  673  11.406   8.307   6.184
   11POPC   NC3  674   3.536   2.429   8.039
   11POPC   PO4  675   4.193   2.540   8.291
   11POPC   GL1  676   3.960   2.527   7.802
   11POPC   GL2  677   3.613   2.753   7.650
   11POPC   C1A  678   3.847   2.431   7.358
   11POPC   D2A  679   3.648   2.683   7.084
   11POPC   C3A  680   3.763   2.545   6.697
   11POPC   C4A  681   3.757   2.811   6.372
   11POPC   C1B  682   3.215   2.829   7.336
   11POPC   C2B  683   3.101   2.950   6.897
   11POPC   C3B  684   3.215   2.842   6.454
   11POPC   C4B  685   3.425   3.165   6.195
   12POPC   NC3  686   4.796   7.987   8.043
   12POPC   PO4  687   5.154   7.577   7.956
   12POPC   GL1  688   5.051   7.878   7.595
   12POPC   GL2  689   5.112   8.218   7.694
   12POPC   C1A  690   4.967   7.902   7.120
   12POPC   D2A  691   5.134   7.905   6.681
   12POPC   C3A  692   4.799   7.960   6.351
   12POPC   C4A  693   4.414   8.078   6.094
   12POPC   C1B  694   5.213   8.319   7.248
   12POPC   C2B  695   5.006   8.388   6.829
   12POPC   C3B  696   5.179   8.319   6.380
   12POPC   C4B  697   5.248   7.954   6.088
   13POPC   NC3  698   8.482   0.944   8.061
   13POPC   PO4  699   7.761   1.052   8.156
   13POPC   GL1  700   8.038   1.066   7.780
   13POPC   GL2  701   7.842   1.292   7.558
   13POPC   C1A  702   8.181   0.931   7.362
   13POPC   D2A  703   7.976   1.016   6.944
   13POPC   C3A  704   8.241   0.951   6.592
   13POPC   C4A  705   8.289   1.092   6.177
   13POPC   C1B  706   8.136   1.418   7.222
   13POPC   C2B  707   8.243   1.464   6.799
   13POPC   C3B  708   7.955   1.360   6.466
   13POPC   C4B  709   7.749   1.631   6.177
   14POPC   NC3  710   1.113   9.563   8.101
   14POPC   PO4  711   0.856  10.185   8.145
   14POPC   GL1  712   1.030   9.939   7.763
   14POPC   GL2  713   1.403   9.866   7.763
   14POPC   C1A  714   0.866   9.938   7.344
   14POPC   D2A  715   1.126   9.910   6.969
   14POPC   C3A  716   1.061   9.639   6.605
   14POPC   C4A  717   1.137   9.862   6.233
   14POPC   C1B  718   1.316   9.652   7.380
   14POPC   C2B  719   1.509   9.536   6.976
   14POPC   C3B  720   1.579   9.644   6.568
   14POPC   C4B  721   1.477   9.484   6.175
   15POPC   NC3  722   1.268  10.553   8.200
   15POPC   PO4  723   0.735  10.684   7.833
   15POPC   GL1  724   0.984  10.430   7.652
   15POPC   GL2  725   1.346  10.404   7.697
   15POPC   C1A  726   1.070  10.389   7.240
   15POPC   D2A  727   1.315  10.482   6.911
   15POPC   C3A  728   1.138  10.271   6.566
   15POPC   C4A  729   0.910  10.323   6.192
   15POPC   C1B  730   1.543  10.210   7.309
   15POPC   C2B  731   1.605  10.055   6.866
   15POPC   C3B  732   1.613  10.133   6.402
   15POPC   C4B  733   1.396  10.360   6.091
   16POPC   NC3  734   3.603   9.376   8.260
   16POPC   PO4  735   3.064   9.219   7.989
   16POPC   GL1  736   3.426   9.465   7.767
   16POPC   GL2  737   3.661   9.761   7.825
   16POPC   C1A  738   3.442   9.556   7.320
   16POPC   D2A  739   3.332   9.731   6.906
   16POPC   C3A  740   3.304   9.538   6.470
   16POPC   C4A  741   3.201   9.516   6.030
   16POPC   C1B  742   3.728   9.974   7.391
   16POPC   C2B  743   3.819   9.949   6.918
   16POPC   C3B  744   3.790   9.733   6.483
   16POPC   C4B  745   3.677   9.731   6.020
   17POPC   NC3  746  10.444   1.232   8.292
   17POPC   PO4  747  10.351   1.779   7.949
   17POPC   GL1  748  10.282   1.483   7.650
   17POPC   GL2  749  10.411   1.153   7.733
   17POPC   C1A  750  10.540   1.396   7.264
   17POPC   D2A  751  10.681   1.236   6.872
   17POPC   C3A  752  10.629   1.567   6.612
   17POPC   C4A  753  10.507   1.558   6.212
   17POPC   C1B  754  10.127   1.109   7.353
   17POPC   C2B  755  10.209   1.029   6.936
   17POPC   C3B  756  10.238   1.211   6.536
   17POPC   C4B  757  10.246   1.065   6.093
   18POPC   NC3  758   3.818  11.337   8.161
   18POPC   PO4  759   3.277   0.055   7.842
   18POPC   GL1  760   3.630  11.396   7.680
   18POPC   GL2  761   3.553  11.054   7.685
   18POPC   C1A  762   3.761  11.341   7.274
   18POPC   D2A  763   3.717  11.041   6.953
   18POPC   C3A  764   3.680  11.192   6.579
   18POPC   C4A  765   3.723   0.010   6.294
   18POPC   C1B  766   3.292  11.073   7.288
   18POPC   C2B  767   3.228  10.923   6.848
   18POPC   C3B  768   3.265  10.998   6.395
   18POPC   C4B  769   3.590  11.001   6.072
   19POPC   NC3  770  11.333   6.261   8.113
   19POPC   PO4  771  11.269   6.937   7.991
   19POPC   GL1  772  11.255   6.704   7.629
   19POPC   GL2  773  11.282   6.349   7.621
   19POPC   C1A  774  11.190   6.819   7.203
   19POPC   D2A  775  11.103   7.007   6.790
   19POPC   C3A  776  11.204   6.809   6.330
   19POPC   C4A  777  10.884   6.957   5.955
   19POPC   C1B  778  11.240   6.320   7.198
   19POPC   C2B  779  11.040   6.502   6.837
   19POPC   C3B  780  11.056   6.316   6.450
   19POPC   C4B  781  11.470   6.221   6.276
   20POPC   NC3  782  10.430   0.241   8.426
   20POPC   PO4  783  10.969   0.042   8.124
   20POPC   GL1  784  10.751   0.228   7.743
   20POPC   GL2  785  10.395   0.354   7.770
   20POPC   C1A  786  10.589   0.245   7.292
   20POPC   D2A  787  10.504  11.498   6.921
   20POPC   C3A  788  10.566   0.220   6.537
   20POPC   C4A  789  10.684   0.180   6.113
   20POPC   C1B  790  10.252   0.605   7.369
   20POPC   C2B  791  10.397   0.559   6.924
   20POPC   C3B  792  10.252   0.680   6.517
   20POPC   C4B  793  10.220   0.417   6.181
   21POPC   NC3  794   6.944   1.114   7.972
   21POPC   PO4  795   6.257   1.161   8.050
   21POPC   GL1  796   6.503   0.972   7.690
   21POPC   GL2  797   6.283   0.751   7.491
   21POPC   C1A  798   6.847   1.057   7.352
   21POPC   D2A  799   6.788   1.230   6.954
   21POPC   C3A  800   6.553   0.972   6.700
   21POPC   C4A  801   6.545   1.194   6.333
   21POPC   C1B  802   6.338   1.098   7.190
   21POPC   C2B  803   6.292   1.466   6.902
   21POPC   C3B  804   6.356   1.671   6.483
   21POPC   C4B  805   6.207   1.488   6.097
   22POPC   NC3  806   8.968  11.103   7.985
   22POPC   PO4  807   9.308  10.512   7.960
   22POPC   GL1  808   9.173  10.815   7.611
   22POPC   GL2  809   9.102  11.207   7.528
   22POPC   C1A  810   8.946  10.822   7.223
   22POPC   D2A  811   8.642  10.764   6.895
   22POPC   C3A  812   8.683  10.980   6.518
   22POPC   C4A  813   8.970  10.995   6.246
   22POPC   C1B  814   8.708  11.260   7.329
   22POPC   C2B  815   8.793  11.295   6.909
   22POPC   C3B  816   8.690   0.011   6.532
   22POPC   C4B  817   8.741  11.437   6.095
   23POPC   NC3  818   0.468   1.073   7.866
   23POPC   PO4  819   0.790   1.610   7.988
   23POPC   GL1  820   0.696   1.467   7.611
   23POPC   GL2  821   0.303   1.485   7.630
   23POPC   C1A  822   0.603   1.552   7.188
   23POPC   D2A  823   0.497   1.316   6.832
   23POPC   C3A  824   0.476   1.601   6.498
   23POPC   C4A  825   0.297   1.551   6.098
   23POPC   C1B  826   0.152   1.246   7.271
   23POPC   C2B  827  11.470   1.089   6.912
   23POPC   C3B  828   0.086   1.236   6.506
   23POPC   C4B  829   0.472   1.068   6.316
   24POPC   NC3  830   4.231   8.601   8.189
   24POPC   PO4  831   4.047   9.224   8.171
   24POPC   GL1  832   4.070   9.012   7.792
   24POPC   GL2  833   4.385   8.883   7.743
   24POPC   C1A  834   4.051   8.922   7.331
   24POPC   D2A  835   4.176   8.601   7.013
   24POPC   C3A  836   4.131   8.705   6.552
   24POPC   C4A  837   4.082   8.493   6.157
   24POPC   C1B  838   4.548   8.864   7.293
   24POPC   C2B  839   4.426   9.014   6.854
   24POPC   C3B  840   4.539   8.969   6.403
   24POPC   C4B  841   4.691   9.157   6.033
   25POPC   NC3  842   3.538   1.354   8.174
   25POPC   PO4  843   3.209   0.704   8.057
   25POPC   GL1  844   3.252   0.886   7.647
   25POPC   GL2  845   3.518   1.131   7.564
   25POPC   C1A  846   3.149   1.035   7.232
   25POPC   D2A  847   3.350   1.079   6.827
   25POPC   C3A  848   3.147   1.103   6.423
   25POPC   C4A  849   3.164   1.470   6.139
   25POPC   C1B  850   3.822   1.395   7.284
   25POPC   C2B  851   3.986   1.521   6.860
   25POPC   C3B  852   3.913   1.464   6.417
   25POPC   C4B  853   3.622   1.184   6.339
   26POPC   NC3  854   5.636   9.706   8.254
   26POPC   PO4  855   6.080  10.157   8.224
   26POPC   GL1  856   6.123   9.861   7.814
   26POPC   GL2  857   5.809   9.667   7.750
   26POPC   C1A  858   6.017   9.888   7.320
   26POPC   D2A  859   6.183   9.766   6.890
   26POPC   C3A  860   5.953   9.832   6.495
   26POPC   C4A  861   6.010   9.884   6.055
   26POPC   C1B  862   5.638   9.534   7.330
   26POPC   C2B  863   5.628   9.649   6.880
   26POPC   C3B  864   5.498   9.547   6.446
   26POPC   C4B  865   5.710   9.467   6.032
   27POPC   NC3  866  11.129  10.414   8.016
   27POPC   PO4  867  10.757   9.911   7.778
   27POPC   GL1  868  11.116  10.090   7.604
   27POPC   GL2  869  11.135  10.465   7.519
   27POPC   C1A  870  11.218  10.037   7.183
   27POPC   D2A  871  10.946  10.076   6.822
   27POPC   C3A  872  11.185  10.265   6.537
   27POPC   C4A  873  11.220  10.117   6.123
   27POPC   C1B  874  10.844  10.755   7.297
   27POPC   C2B  875  11.010  10.650   6.914
   27POPC   C3B  876  11.111  10.829   6.527
   27POPC   C4B  877  11.324  10.628   6.219
   28POPC   NC3  878   5.444   0.130   7.915
   28POPC   PO4  879   5.009   0.588   8.235
   28POPC   GL1  880   5.205   0.547   7.777
   28POPC   GL2  881   5.123   0.276   7.543
   28POPC   C1A  882   5.362   0.620   7.288
   28POPC   D2A  883   5.086   0.362   6.995
   28POPC   C3A  884   5.159   0.337   6.557
   28POPC   C4A  885   5.282   0.651   6.291
   28POPC   C1B  886   4.873   0.648   7.395
   28POPC   C2B  887   4.635   0.680   7.028
   28POPC   C3B  888   4.765   0.686   6.592
   28POPC   C4B  889   4.797   0.973   6.252
   29POPC   NC3  890   8.668   2.540   8.005
   29POPC   PO4  891   8.183   2.877   7.944
   29POPC   GL1  892   8.560   2.879   7.619
   29POPC   GL2  893   8.813   2.574   7.521
   29POPC   C1A  894   8.834   3.024   7.267
   29POPC   D2A  895   8.935   3.342   6.943
   29POPC   C3A  896   8.980   3.196   6.517
   29POPC   C4A  897   8.691   3.037   6.168
   29POPC   C1B  898   9.119   2.604   7.169
   29POPC   C2B  899   8.993   2.696   6.750
   29POPC   C3B  900   9.058   2.715   6.318
   29POPC   C4B  901   9.055   2.554   5.898
   30POPC   NC3  902   7.386  10.609   8.212
   30POPC   PO4  903   7.717  10.786   7.668
   30POPC   GL1  904   7.355  10.564   7.568
   30POPC   GL2  905   7.397  10.261   7.776
   30POPC   C1A  906   7.270  10.399   7.159
   30POPC   D2A  907   6.995  10.431   6.827
   30POPC   C3A  908   7.150  10.624   6.471
   30POPC   C4A  909   7.505  10.656   6.218
   30POPC   C1B  910   7.681  10.161   7.441
   30POPC   C2B  911   7.617  10.058   7.013
   30POPC   C3B  912   7.518  10.258   6.622
   30POPC   C4B  913   7.480  10.125   6.197
   31POPC   NC3  914  10.276   4.505   7.583
   31POPC   PO4  915  10.214   4.017   7.929
   31POPC   GL1  916  10.029   4.062   7.517
   31POPC   GL2  917   9.774   4.296   7.512
   31POPC   C1A  918  10.033   4.231   7.051
   31POPC   D2A  919  10.168   4.627   6.786
   31POPC   C3A  920  10.055   4.591   6.344
   31POPC   C4A  921   9.783   4.258   6.213
   31POPC   C1B  922   9.518   4.106   7.167
   31POPC   C2B  923   9.328   3.911   6.784
   31POPC   C3B  924   9.327   4.125   6.403
   31POPC   C4B  925   9.331   4.586   6.326
   32POPC   NC3  926   0.329   2.058   7.966
   32POPC   PO4  927   0.961   2.348   7.922
   32POPC   GL1  928   0.854   2.027   7.624
   32POPC   GL2  929   0.516   1.932   7.528
   32POPC   C1A  930   0.780   2.161   7.192
   32POPC   D2A  931   0.486   1.982   6.901
   32POPC   C3A  932   0.705   2.073   6.542
   32POPC   C4A  933   0.853   1.920   6.161
   32POPC   C1B  934   0.149   1.820   7.283
   32POPC   C2B  935   0.087   1.615   6.891
   32POPC   C3B  936  11.483   1.768   6.471
   32POPC   C4B  937   0.282   2.046   6.261
   33POPC   NC3  938   9.445   5.676   8.257
   33POPC   PO4  939   9.924   6.059   8.136
   33POPC   GL1  940  10.013   5.852   7.722
   33POPC   GL2  941  10.082   6.136   7.558
   33POPC   C1A  942   9.908   5.703   7.295
   33POPC   D2A  943   9.845   5.824   6.856
   33POPC   C3A  944   9.739   5.602   6.483
   33POPC   C4A  945   9.866   5.682   6.071
   33POPC   C1B  946   9.779   6.200   7.217
   33POPC   C2B  947   9.681   6.296   6.767
   33POPC   C3B  948   9.695   6.103   6.359
   33POPC   C4B  949   9.437   5.935   6.036
   34POPC   NC3  950   5.067   1.079   8.174
   34POPC   PO4  951   5.655   0.718   8.108
   34POPC   GL1  952   5.423   0.986   7.745
   34POPC   GL2  953   5.164   1.265   7.712
   34POPC   C1A  954   5.382   1.114   7.290
   34POPC   D2A  955   5.075   0.956   6.985
   34POPC   C3A  956   5.189   1.054   6.578
   34POPC   C4A  957   5.254   1.170   6.135
   34POPC   C1B  958   4.900   1.310   7.328
   34POPC   C2B  959   4.765   1.413   6.903
   34POPC   C3B  960   4.895   1.447   6.460
   34POPC   C4B  961   5.003   1.611   6.046
   35POPC   NC3  962   7.740   9.213   8.092
   35POPC   PO4  963   8.445   9.237   8.052
   35POPC   GL1  964   8.311   9.087   7.661
   35POPC   GL2  965   7.988   9.123   7.647
   35POPC   C1A  966   8.201   8.840   7.269
   35POPC   D2A  967   8.068   8.683   6.816
   35POPC   C3A  968   8.334   8.650   6.406
   35POPC   C4A  969   8.329   8.772   5.958
   35POPC   C1B  970   7.822   9.179   7.250
   35POPC   C2B  971   7.996   9.186   6.849
   35POPC   C3B  972   8.005   9.050   6.410
   35POPC   C4B  973   7.859   8.984   5.959
   36POPC   NC3  974   8.876  10.397   8.085
   36POPC   PO4  975   8.494  11.025   7.989
   36POPC   GL1  976   8.622  10.657   7.643
   36POPC   GL2  977   8.909  10.367   7.590
   36POPC   C1A  978   8.562  10.406   7.234
   36POPC   D2A  979   8.613  10.256   6.801
   36POPC   C3A  980   8.382  10.551   6.488
   36POPC   C4A  981   8.544  10.735   6.078
   36POPC   C1B  982   9.076  10.325   7.159
   36POPC   C2B  983   9.103  10.594   6.793
   36POPC   C3B  984   8.885  10.505   6.418
   36POPC   C4B  985   8.967  10.113   6.281
   37POPC   NC3  986   7.120   8.829   7.953
   37POPC   PO4  987   7.803   8.619   8.184
   37POPC   GL1  988   7.765   8.670   7.752
   37POPC   GL2  989   7.550   8.888   7.699
   37POPC   C1A  990   7.720   8.661   7.271
   37POPC   D2A  991   7.582   8.887   6.891
   37POPC   C3A  992   7.426   8.653   6.560
   37POPC   C4A  993   7.787   8.603   6.311
   37POPC   C1B  994   7.332   9.003   7.325
   37POPC   C2B  995   7.126   9.098   6.942
   37POPC   C3B  996   7.143   9.099   6.495
   37POPC   C4B  997   7.394   8.992   6.156
   38POPC   NC3  998   0.578  11.024   8.087
   38POPC   PO4  999   1.140  10.959   8.441
   38POPC   GL1 1000   1.185  10.956   7.904
   38POPC   GL2 1001   0.951  11.188   7.731
   38POPC   C1A 1002   1.243  10.863   7.406
   38POPC   D2A 1003   1.208  11.052   6.956
   38POPC   C3A 1004   1.209  10.823   6.545
   38POPC   C4A 1005   0.951  10.863   6.186
   38POPC   C1B 1006   1.157  11.381   7.356
   38POPC   C2B 1007   1.445   0.019   7.031
   38POPC   C3B 1008   1.365   0.036   6.615
   38POPC   C4B 1009   1.303  11.261   6.278
   39POPC   NC3 1010   9.335   8.531   8.100
   39POPC   PO4 1011   9.245   7.863   8.060
   39POPC   GL1 1012   9.541   8.044   7.717
   39POPC   GL2 1013   9.718   8.354   7.740
   39POPC   C1A 1014   9.691   8.025   7.268
   39POPC   D2A 1015   9.836   7.759   6.901
   39POPC   C3A 1016   9.642   7.821   6.464
   39POPC   C4A 1017   9.705   7.808   6.014
   39POPC   C1B 1018   9.646   8.533   7.350
   39POPC   C2B 1019   9.531   8.435   6.923
   39POPC   C3B 1020   9.702   8.454   6.500
   39POPC   C4B 1021   9.546   8.262   6.123
   40POPC   NC3 1022   1.142   1.290   7.997
   40POPC   PO4 1023   1.718   0.861   8.093
   40POPC   GL1 1024   1.486   0.941   7.739
   40POPC   GL2 1025   1.527   1.275   7.650
   40POPC   C1A 1026   1.591   0.869   7.296
   40POPC   D2A 1027   1.744   0.844   6.858
   40POPC   C3A 1028   1.404   0.986   6.574
   40POPC   C4A 1029   1.027   0.962   6.294
   40POPC   C1B 1030   1.252   1.272   7.307
   40POPC   C2B 1031   1.282   1.390   6.870
   40POPC   C3B 1032   0.944   1.379   6.568
   40POPC   C4B 1033   0.808   1.411   6.143
   41POPC   NC3 1034   8.018   3.301   8.026
   41POPC   PO4 1035   8.347   3.796   7.950
   41POPC   GL1 1036   8.349   3.414   7.667
   41POPC   GL2 1037   8.006   3.475   7.536
   41POPC   C1A 1038   8.385   3.266   7.247
   41POPC   D2A 1039   8.440   3.558   6.902
   41POPC   C3A 1040   8.522   3.428   6.495
   41POPC   C4A 1041   8.321   3.386   6.112
   41POPC   C1B 1042   7.937   3.444   7.070
   41POPC   C2B 1043   8.041   3.291   6.638
   41POPC   C3B 1044   7.833   3.244   6.230
   41POPC   C4B 1045   7.477   3.385   5.958
   42POPC   NC3 1046  11.140   9.759   8.016
   42POPC   PO4 1047  10.818   9.207   7.825
   42POPC   GL1 1048  11.014   9.524   7.554
   42POPC   GL2 1049  11.369   9.632   7.577
   42POPC   C1A 1050  10.820   9.680   7.171
   42POPC   D2A 1051  10.649   9.458   6.805
   42POPC   C3A 1052  10.652   9.678   6.430
   42POPC   C4A 1053  10.850   9.770   6.035
   42POPC   C1B 1054  11.406   9.560   7.149
   42POPC   C2B 1055  11.157   9.592   6.802
   42POPC   C3B 1056  11.178   9.699   6.414
   42POPC   C4B 1057  11.313   9.553   6.024
   43POPC   NC3 1058  11.133   7.283   8.272
   43POPC   PO4 1059  11.119   7.786   7.857
   43POPC   GL1 1060  11.196   7.316   7.634
   43POPC   GL2 1061  10.943   7.101   7.563
   43POPC   C1A 1062  11.467   7.227   7.257
   43POPC   D2A 1063   0.097   6.943   6.907
   43POPC   C3A 1064  11.498   7.175   6.519
   43POPC   C4A 1065  11.353   7.533   6.266
   43POPC   C1B 1066  10.984   7.454   7.222
   43POPC   C2B 1067  11.039   7.765   6.898
   43POPC   C3B 1068  10.881   7.670   6.502
   43POPC   C4B 1069  10.951   7.246   6.369
   44POPC   NC3 1070   1.529   8.043   8.180
   44POPC   PO4 1071   0.889   8.130   8.237
   44POPC   GL1 1072   1.155   8.190   7.819
   44POPC   GL2 1073   1.134   8.548   7.673
   44POPC   C1A 1074   1.401   8.155   7.403
   44POPC   D2A 1075   1.520   8.319   6.968
   44POPC   C3A 1076   1.611   8.198   6.558
   44POPC   C4A 1077   1.372   8.112   6.192
   44POPC   C1B 1078   0.944   8.380   7.300
   44POPC   C2B 1079   1.063   8.118   7.007
   44POPC   C3B 1080   1.096   8.211   6.617
   44POPC   C4B 1081   0.882   8.288   6.246
   45POPC   NC3 1082   3.317   3.405   8.034
   45POPC   PO4 1083   2.677   3.235   8.066
   45POPC   GL1 1084   2.673   3.204   7.641
   45POPC   GL2 1085   2.477   3.507   7.601
   45POPC   C1A 1086   2.898   3.294   7.236
   45POPC   D2A 1087   2.778   3.374   6.789
   45POPC   C3A 1088   2.949   3.363   6.359
   45POPC   C4A 1089   2.952   3.812   6.164
   45POPC   C1B 1090   2.341   3.299   7.245
   45POPC   C2B 1091   2.140   3.504   6.934
   45POPC   C3B 1092   2.358   3.624   6.609
   45POPC   C4B 1093   2.431   3.278   6.376
   46POPC   NC3 1094  10.757   8.838   8.087
   46POPC   PO4 1095  11.317   9.340   8.164
   46POPC   GL1 1096  11.335   9.130   7.750
   46POPC   GL2 1097  11.179   8.806   7.788
   46POPC   C1A 1098  11.470   9.071   7.322
   46POPC   D2A 1099  11.242   9.094   6.917
   46POPC   C3A 1100  11.453   9.193   6.515
   46POPC   C4A 1101  11.212   9.060   6.165
   46POPC   C1B 1102  11.047   8.798   7.342
   46POPC   C2B 1103  11.340   8.598   7.008
   46POPC   C3B 1104  11.333   8.655   6.553
   46POPC   C4B 1105  10.977   8.589   6.261
   47POPC   NC3 1106   0.623   3.002   8.105
   47POPC   PO4 1107   0.165   2.473   8.081
   47POPC   GL1 1108   0.384   2.701   7.766
   47POPC   GL2 1109   0.537   2.433   7.643
   47POPC   C1A 1110   0.425   2.822   7.325
   47POPC   D2A 1111   0.497   2.994   6.933
   47POPC   C3A 1112   0.209   2.997   6.605
   47POPC   C4A 1113   0.419   2.946   6.218
   47POPC   C1B 1114   0.297   2.325   7.288
   47POPC   C2B 1115   0.347   2.492   6.893
   47POPC   C3B 1116   0.347   2.506   6.479
   47POPC   C4B 1117   0.683   2.453   6.206
   48POPC   NC3 1118   5.415   0.402   8.346
   48POPC   PO4 1119   5.958   0.215   7.924
   48POPC   GL1 1120   5.693   0.364   7.587
   48POPC   GL2 1121   5.770   0.623   7.604
   48POPC   C1A 1122   5.537   0.159   7.212
   48POPC   D2A 1123   5.647   0.381   6.839
   48POPC   C3A 1124   5.635   0.147   6.491
   48POPC   C4A 1125   5.403  11.415   6.217
   48POPC   C1B 1126   6.011   0.407   7.228
   48POPC   C2B 1127   6.191   0.649   6.960
   48POPC   C3B 1128   6.101   0.725   6.580
   48POPC   C4B 1129   5.875   0.510   6.223
   49POPC   NC3 1130  10.632   4.891   8.162
   49POPC   PO4 1131  10.765   5.519   8.104
   49POPC   GL1 1132  10.722   5.212   7.716
   49POPC   GL2 1133  10.420   5.009   7.709
   49POPC   C1A 1134  10.603   5.025   7.244
   49POPC   D2A 1135  10.510   5.077   6.818
   49POPC   C3A 1136  10.454   4.914   6.434
   49POPC   C4A 1137  10.656   5.093   6.127
   49POPC   C1B 1138  10.270   5.349   7.421
   49POPC   C2B 1139  10.186   5.431   6.954
   49POPC   C3B 1140  10.184   5.345   6.479
   49POPC   C4B 1141   9.856   5.177   6.167
   50POPC   NC3 1142   8.106  10.696   7.898
   50POPC   PO4 1143   8.501  10.210   7.897
   50POPC   GL1 1144   8.215  10.273   7.584
   50POPC   GL2 1145   8.110  10.567   7.404
   50POPC   C1A 1146   8.141  10.091   7.194
   50POPC   D2A 1147   8.049  10.253   6.810
   50POPC   C3A 1148   8.235  10.018   6.568
   50POPC   C4A 1149   8.451  10.118   6.226
   50POPC   C1B 1150   7.761  10.546   7.103
   50POPC   C2B 1151   7.542  10.740   6.814
   50POPC   C3B 1152   7.875  10.696   6.554
   50POPC   C4B 1153   7.948  10.345   6.289
   51POPC   NC3 1154   9.902   1.694   7.967
   51POPC   PO4 1155   9.292   1.624   8.278
   51POPC   GL1 1156   9.439   1.955   7.829
   51POPC   GL2 1157   9.787   2.119   7.700
   51POPC   C1A 1158   9.430   1.973   7.328
   51POPC   D2A 1159   9.721   1.890   6.936
   51POPC   C3A 1160   9.528   1.950   6.525
   51POPC   C4A 1161   9.333   1.788   6.148
   51POPC   C1B 1162   9.867   2.262   7.270
   51POPC   C2B 1163   9.540   2.378   6.951
   51POPC   C3B 1164   9.513   2.467   6.503
   51POPC   C4B 1165   9.865   2.258   6.254
   52POPC   NC3 1166  10.463   2.218   8.170
   52POPC   PO4 1167  10.759   1.652   8.321
   52POPC   GL1 1168  10.785   2.022   7.838
   52POPC   GL2 1169  10.410   2.096   7.592
   52POPC   C1A 1170  10.823   2.134   7.347
   52POPC   D2A 1171  10.591   1.899   7.005
   52POPC   C3A 1172  10.548   2.078   6.560
   52POPC   C4A 1173  10.544   2.063   6.101
   52POPC   C1B 1174  10.140   1.822   7.307
   52POPC   C2B 1175  10.139   1.544   6.955
   52POPC   C3B 1176  10.126   1.730   6.561
   52POPC   C4B 1177  10.094   1.822   6.135
   53POPC   NC3 1178   2.857   5.776   8.238
   53POPC   PO4 1179   3.264   6.150   8.062
   53POPC   GL1 1180   2.892   5.995   7.775
   53POPC   GL2 1181   2.586   5.712   7.720
   53POPC   C1A 1182   2.894   5.860   7.350
   53POPC   D2A 1183   2.963   6.044   6.970
   53POPC   C3A 1184   3.025   5.759   6.626
   53POPC   C4A 1185   3.109   5.878   6.199
   53POPC   C1B 1186   2.412   5.699   7.236
   53POPC   C2B 1187   2.546   5.585   6.763
   53POPC   C3B 1188   2.605   5.832   6.343
   53POPC   C4B 1189   2.484   6.203   6.189
   54POPC   NC3 1190   8.943   9.286   8.116
   54POPC   PO4 1191   8.928   9.955   8.217
   54POPC   GL1 1192   8.840   9.849   7.742
   54POPC   GL2 1193   8.789   9.494   7.673
   54POPC   C1A 1194   8.751   9.931   7.286
   54POPC   D2A 1195   8.954   9.845   6.847
   54POPC   C3A 1196   8.683   9.729   6.469
   54POPC   C4A 1197   8.686   9.620   5.990
   54POPC   C1B 1198   9.107   9.561   7.323
   54POPC   C2B 1199   9.191   9.321   6.950
   54POPC   C3B 1200   9.179   9.325   6.526
   54POPC   C4B 1201   9.124   9.629   6.220
   55POPC   NC3 1202   9.758   0.243   7.956
   55POPC   PO4 1203   9.223  11.468   8.091
   55POPC   GL1 1204   9.314   0.135   7.703
   55POPC   GL2 1205   9.343   0.486   7.604
   55POPC   C1A 1206   9.503   0.039   7.310
   55POPC   D2A 1207   9.464   0.294   6.941
   55POPC   C3A 1208   9.334   0.106   6.583
   55POPC   C4A 1209   9.323   0.294   6.186
   55POPC   C1B 1210   9.737   0.509   7.322
   55POPC   C2B 1211   9.845   0.647   6.873
   55POPC   C3B 1212   9.742   0.443   6.465
   55POPC   C4B 1213   9.761   0.490   6.007
   56POPC   NC3 1214   0.139   8.177   8.412
   56POPC   PO4 1215   0.247   7.875   7.865
   56POPC   GL1 1216   0.300   8.181   7.584
   56POPC   GL2 1217   0.639   8.268   7.681
   56POPC   C1A 1218   0.349   8.140   7.160
   56POPC   D2A 1219   0.604   8.204   6.841
   56POPC   C3A 1220   0.394   8.276   6.503
   56POPC   C4A 1221   0.362   8.084   6.137
   56POPC   C1B 1222   0.743   7.904   7.361
   56POPC   C2B 1223   0.752   7.715   6.908
   56POPC   C3B 1224   0.734   7.863   6.453
   56POPC   C4B 1225   0.753   7.871   5.930
   57POPC   NC3 1226   0.562   4.093   7.939
   57POPC   PO4 1227   0.386   3.411   8.089
   57POPC   GL1 1228   0.447   3.574   7.711
   57POPC   GL2 1229   0.583   3.248   7.622
   57POPC   C1A 1230   0.438   3.791   7.322
   57POPC   D2A 1231   0.668   3.855   6.925
   57POPC   C3A 1232   0.488   3.838   6.543
   57POPC   C4A 1233   0.651   3.719   6.127
   57POPC   C1B 1234   0.247   3.306   7.305
   57POPC   C2B 1235   0.332   3.471   6.899
   57POPC   C3B 1236   0.582   3.345   6.534
   57POPC   C4B 1237   0.229   3.442   6.242
   58POPC   NC3 1238   5.180  10.956   8.123
   58POPC   PO4 1239   4.972   0.057   7.979
   58POPC   GL1 1240   4.830  11.357   7.619
   58POPC   GL2 1241   4.951  11.064   7.676
   58POPC   C1A 1242   5.082  11.368   7.239
   58POPC   D2A 1243   5.271  11.374   6.829
   58POPC   C3A 1244   4.917  11.391   6.533
   58POPC   C4A 1245   4.910  11.468   6.103
   58POPC   C1B 1246   5.099  10.864   7.301
   58POPC   C2B 1247   5.241  10.819   6.879
   58POPC   C3B 1248   5.231  10.995   6.453
   58POPC   C4B 1249   5.217  10.969   5.986
   59POPC   NC3 1250   2.926   0.283   8.081
   59POPC   PO4 1251   2.461   0.814   7.955
   59POPC   GL1 1252   2.780   0.645   7.697
   59POPC   GL2 1253   2.591   0.347   7.674
   59POPC   C1A 1254   2.999   0.544   7.317
   59POPC   D2A 1255   2.912   0.297   6.951
   59POPC   C3A 1256   2.903   0.443   6.538
   59POPC   C4A 1257   2.875   0.237   6.155
   59POPC   C1B 1258   2.478   0.446   7.237
   59POPC   C2B 1259   2.290   0.724   6.905
   59POPC   C3B 1260   2.202   0.759   6.467
   59POPC   C4B 1261   2.491   0.727   6.057
   60POPC   NC3 1262   8.962   1.367   8.068
   60POPC   PO4 1263   8.344   1.384   8.067
   60POPC   GL1 1264   8.572   1.278   7.657
   60POPC   GL2 1265   8.913   1.151   7.621
   60POPC   C1A 1266   8.628   1.265   7.196
   60POPC   D2A 1267   8.876   1.270   6.804
   60POPC   C3A 1268   8.614   1.387   6.453
   60POPC   C4A 1269   8.668   1.343   5.974
   60POPC   C1B 1270   9.143   1.143   7.238
   60POPC   C2B 1271   9.240   0.812   6.955
   60POPC   C3B 1272   9.242   0.986   6.580
   60POPC   C4B 1273   9.078   1.290   6.277
   61POPC   NC3 1274   2.322  10.408   7.944
   61POPC   PO4 1275   1.719  10.689   8.116
   61POPC   GL1 1276   1.857  10.518   7.724
   61POPC   GL2 1277   1.869  10.137   7.738
   61POPC   C1A 1278   1.798  10.669   7.314
   61POPC   D2A 1279   1.677  10.849   6.932
   61POPC   C3A 1280   1.906  10.719   6.581
   61POPC   C4A 1281   1.815  10.651   6.179
   61POPC   C1B 1282   2.067  10.223   7.340
   61POPC   C2B 1283   1.993  10.371   6.933
   61POPC   C3B 1284   2.109  10.207   6.511
   61POPC   C4B 1285   2.033  10.231   6.057
   62POPC   NC3 1286   0.327   4.539   8.327
   62POPC   PO4 1287   0.063   4.093   8.006
   62POPC   GL1 1288   0.085   4.406   7.724
   62POPC   GL2 1289   0.363   4.532   7.769
   62POPC   C1A 1290   0.248   4.267   7.329
   62POPC   D2A 1291   0.204   4.055   6.950
   62POPC   C3A 1292   0.167   4.266   6.580
   62POPC   C4A 1293   0.236   4.069   6.188
   62POPC   C1B 1294   0.572   4.644   7.395
   62POPC   C2B 1295   0.676   4.509   6.971
   62POPC   C3B 1296   0.518   4.636   6.593
   62POPC   C4B 1297   0.552   4.462   6.190
   63POPC   NC3 1298   1.177   8.847   8.088
   63POPC   PO4 1299   1.557   9.473   8.100
   63POPC   GL1 1300   1.386   9.260   7.728
   63POPC   GL2 1301   1.054   9.100   7.668
   63POPC   C1A 1302   1.360   9.150   7.278
   63POPC   D2A 1303   1.104   9.211   6.925
   63POPC   C3A 1304   1.343   9.169   6.584
   63POPC   C4A 1305   1.197   9.084   6.201
   63POPC   C1B 1306   0.929   8.886   7.301
   63POPC   C2B 1307   1.171   8.697   6.943
   63POPC   C3B 1308   1.089   8.703   6.509
   63POPC   C4B 1309   0.785   8.770   6.163
   64POPC   NC3 1310   9.825  10.846   8.092
   64POPC   PO4 1311  10.163   0.023   8.111
   64POPC   GL1 1312   9.947  11.246   7.768
   64POPC   GL2 1313   9.589  11.152   7.694
   64POPC   C1A 1314   9.938  11.148   7.302
   64POPC   D2A 1315   9.744  11.298   6.886
   64POPC   C3A 1316   9.915  11.103   6.495
   64POPC   C4A 1317   9.843  10.751   6.235
   64POPC   C1B 1318   9.453  11.014   7.232
   64POPC   C2B 1319   9.270  11.091   6.801
   64POPC   C3B 1320   9.423  11.162   6.369
   64POPC   C4B 1321   9.244  11.319   5.967
   65POPC   NC3 1322   0.745   7.737   7.995
   65POPC   PO4 1323   1.408   7.677   7.921
   65POPC   GL1 1324   1.108   7.560   7.671
   65POPC   GL2 1325   1.148   7.223   7.815
   65POPC   C1A 1326   1.179   7.670   7.246
   65POPC   D2A 1327   1.448   7.800   6.935
   65POPC   C3A 1328   1.241   7.728   6.585
   65POPC   C4A 1329   1.121   7.652   6.207
   65POPC   C1B 1330   1.202   7.167   7.355
   65POPC   C2B 1331   0.961   7.124   6.939
   65POPC   C3B 1332   1.013   7.205   6.482
   65POPC   C4B 1333   1.455   7.281   6.337
   66POPC   NC3 1334   8.915   0.322   8.171
   66POPC   PO4 1335   9.081   0.917   8.093
   66POPC   GL1 1336   8.852   0.655   7.754
   66POPC   GL2 1337   8.746   0.285   7.701
   66POPC   C1A 1338   8.860   0.723   7.300
   66POPC   D2A 1339   8.649   0.827   6.892
   66POPC   C3A 1340   8.731   0.896   6.409
   66POPC   C4A 1341   8.627   0.807   5.935
   66POPC   C1B 1342   8.967   0.208   7.328
   66POPC   C2B 1343   8.847   0.334   6.940
   66POPC   C3B 1344   9.002   0.501   6.591
   66POPC   C4B 1345   8.813   0.428   6.219
   67POPC   NC3 1346   4.299   3.002   8.237
   67POPC   PO4 1347   3.671   3.131   8.061
   67POPC   GL1 1348   4.026   3.053   7.762
   67POPC   GL2 1349   4.347   2.830   7.706
   67POPC   C1A 1350   4.015   2.940   7.328
   67POPC   D2A 1351   4.148   2.772   6.933
   67POPC   C3A 1352   4.233   2.935   6.507
   67POPC   C4A 1353   4.415   3.090   6.120
   67POPC   C1B 1354   4.343   2.481   7.336
   67POPC   C2B 1355   4.166   2.274   6.933
   67POPC   C3B 1356   4.230   2.421   6.515
   67POPC   C4B 1357   4.574   2.587   6.262
   68POPC   NC3 1358   9.942   9.326   8.108
   68POPC   PO4 1359   9.779   8.708   8.084
   68POPC   GL1 1360   9.725   8.948   7.713
   68POPC   GL2 1361   9.358   8.901   7.682
   68POPC   C1A 1362   9.968   9.008   7.325
   68POPC   D2A 1363   9.928   8.758   6.920
   68POPC   C3A 1364   9.904   8.933   6.462
   68POPC   C4A 1365  10.004   9.160   6.027
   68POPC   C1B 1366   9.387   8.931   7.210
   68POPC   C2B 1367   9.448   8.912   6.738
   68POPC   C3B 1368   9.401   8.865   6.345
   68POPC   C4B 1369   9.178   8.469   6.397
   69POPC   NC3 1370  11.458   3.639   8.094
   69POPC   PO4 1371  10.788   3.465   7.943
   69POPC   GL1 1372  10.890   3.526   7.545
   69POPC   GL2 1373  11.238   3.432   7.629
   69POPC   C1A 1374  10.878   3.760   7.179
   69POPC   D2A 1375  10.934   3.640   6.753
   69POPC   C3A 1376  10.750   3.876   6.431
   69POPC   C4A 1377  10.971   3.722   6.039
   69POPC   C1B 1378  11.244   3.127   7.309
   69POPC   C2B 1379  11.327   3.246   6.875
   69POPC   C3B 1380  11.260   3.276   6.415
   69POPC   C4B 1381  11.043   3.034   6.094
   70POPC   NC3 1382   1.199   5.953   7.948
   70POPC   PO4 1383   0.850   5.426   8.095
   70POPC   GL1 1384   0.979   5.579   7.685
   70POPC   GL2 1385   1.331   5.522   7.706
   70POPC   C1A 1386   0.866   5.462   7.252
   70POPC   D2A 1387   0.670   5.484   6.864
   70POPC   C3A 1388   0.925   5.378   6.488
   70POPC   C4A 1389   1.056   5.460   6.048
   70POPC   C1B 1390   1.291   5.742   7.295
   70POPC   C2B 1391   1.221   5.589   6.869
   70POPC   C3B 1392   1.251   5.759   6.444
   70POPC   C4B 1393   1.331   5.916   6.043
   71POPC   NC3 1394   9.870   6.556   8.044
   71POPC   PO4 1395  10.513   6.377   7.902
   71POPC   GL1 1396  10.556   6.294   7.540
   71POPC   GL2 1397  10.822   6.468   7.497
   71POPC   C1A 1398  10.461   6.307   7.144
   71POPC   D2A 1399  10.573   6.335   6.738
   71POPC   C3A 1400  10.266   6.561   6.550
   71POPC   C4A 1401   9.972   6.536   6.257
   71POPC   C1B 1402  10.697   6.747   7.242
   71POPC   C2B 1403  10.626   6.824   6.837
   71POPC   C3B 1404  10.721   6.729   6.411
   71POPC   C4B 1405  10.420   6.759   6.084
   72POPC   NC3 1406   2.861   1.028   8.034
   72POPC   PO4 1407   3.066   1.601   8.077
   72POPC   GL1 1408   3.010   1.357   7.673
   72POPC   GL2 1409   2.694   1.174   7.599
   72POPC   C1A 1410   2.860   1.440   7.224
   72POPC   D2A 1411   2.732   1.637   6.876
   72POPC   C3A 1412   2.776   1.431   6.520
   72POPC   C4A 1413   2.628   1.639   6.177
   72POPC   C1B 1414   2.630   0.949   7.246
   72POPC   C2B 1415   2.840   0.826   6.878
   72POPC   C3B 1416   2.686   0.919   6.487
   72POPC   C4B 1417   2.390   1.193   6.302
   73POPC   NC3 1418   9.638   7.621   8.039
   73POPC   PO4 1419   9.728   6.991   7.985
   73POPC   GL1 1420   9.624   7.313   7.625
   73POPC   GL2 1421   9.814   7.634   7.560
   73POPC   C1A 1422   9.482   7.478   7.192
   73POPC   D2A 1423   9.471   7.416   6.715
   73POPC   C3A 1424   9.324   7.096   6.372
   73POPC   C4A 1425   9.364   6.858   5.947
   73POPC   C1B 1426   9.971   7.335   7.229
   73POPC   C2B 1427  10.017   7.296   6.772
   73POPC   C3B 1428   9.821   7.254   6.375
   73POPC   C4B 1429   9.871   7.003   6.012
   74POPC   NC3 1430  10.666   3.899   8.047
   74POPC   PO4 1431  10.647   4.561   7.842
   74POPC   GL1 1432  10.749   4.396   7.476
   74POPC   GL2 1433  10.640   4.077   7.571
   74POPC   C1A 1434  10.773   4.286   7.087
   74POPC   D2A 1435  10.673   4.588   6.818
   74POPC   C3A 1436  10.645   4.456   6.432
   74POPC   C4A 1437  10.642   4.608   6.016
   74POPC   C1B 1438  10.415   3.933   7.243
   74POPC   C2B 1439  10.477   3.932   6.853
   74POPC   C3B 1440  10.256   4.150   6.587
   74POPC   C4B 1441  10.313   4.160   6.199
   75POPC   NC3 1442   4.907  10.354   8.148
   75POPC   PO4 1443   5.482  10.007   7.957
   75POPC   GL1 1444   5.283  10.280   7.668
   75POPC   GL2 1445   5.078  10.572   7.725
   75POPC   C1A 1446   5.175  10.223   7.217
   75POPC   D2A 1447   5.040  10.229   6.772
   75POPC   C3A 1448   4.982   9.941   6.382
   75POPC   C4A 1449   4.984   9.969   5.891
   75POPC   C1B 1450   4.751  10.497   7.385
   75POPC   C2B 1451   4.650  10.627   6.937
   75POPC   C3B 1452   4.874  10.642   6.545
   75POPC   C4B 1453   5.014  10.420   6.165
   76POPC   NC3 1454   7.611   8.225   8.014
   76POPC   PO4 1455   7.031   8.386   7.880
   76POPC   GL1 1456   7.230   8.534   7.526
   76POPC   GL2 1457   7.470   8.315   7.534
   76POPC   C1A 1458   7.242   8.543   7.073
   76POPC   D2A 1459   7.180   8.223   6.762
   76POPC   C3A 1460   7.059   8.327   6.365
   76POPC   C4A 1461   7.061   8.615   6.029
   76POPC   C1B 1462   7.347   8.043   7.219
   76POPC   C2B 1463   7.549   7.884   6.841
   76POPC   C3B 1464   7.412   7.916   6.389
   76POPC   C4B 1465   7.510   7.800   5.940
   77POPC   NC3 1466   2.427  11.232   8.490
   77POPC   PO4 1467   3.051  11.390   8.308
   77POPC   GL1 1468   2.777  11.390   7.820
   77POPC   GL2 1469   2.551  11.118   7.794
   77POPC   C1A 1470   2.776  11.494   7.354
   77POPC   D2A 1471   2.893  11.297   6.942
   77POPC   C3A 1472   2.708  11.454   6.547
   77POPC   C4A 1473   2.440  11.426   6.182
   77POPC   C1B 1474   2.743  10.986   7.377
   77POPC   C2B 1475   2.692  10.845   6.957
   77POPC   C3B 1476   2.785  10.954   6.539
   77POPC   C4B 1477   2.623  10.928   6.121
   78POPC   NC3 1478   7.812   0.619   8.010
   78POPC   PO4 1479   8.481   0.493   8.134
   78POPC   GL1 1480   8.311   0.581   7.746
   78POPC   GL2 1481   8.138   0.292   7.765
   78POPC   C1A 1482   8.424   0.476   7.330
   78POPC   D2A 1483   8.216   0.561   6.961
   78POPC   C3A 1484   8.438   0.466   6.589
   78POPC   C4A 1485   8.233   0.570   6.220
   78POPC   C1B 1486   7.908   0.397   7.391
   78POPC   C2B 1487   7.858   0.193   7.012
   78POPC   C3B 1488   7.846   0.425   6.608
   78POPC   C4B 1489   7.726   0.169   6.280
   79POPC   NC3 1490   2.036   0.515   8.006
   79POPC   PO4 1491   2.453   0.060   8.176
   79POPC   GL1 1492   2.174   0.045   7.785
   79POPC   GL2 1493   1.908   0.266   7.588
   79POPC   C1A 1494   2.227  11.475   7.345
   79POPC   D2A 1495   2.418  11.496   6.958
   79POPC   C3A 1496   2.175   0.090   6.582
   79POPC   C4A 1497   2.154   0.345   6.203
   79POPC   C1B 1498   1.920   0.443   7.176
   79POPC   C2B 1499   1.775   0.341   6.759
   79POPC   C3B 1500   1.711   0.574   6.379
   79POPC   C4B 1501   1.693   0.441   5.956
   80POPC   NC3 1502  10.809   3.388   8.387
   80POPC   PO4 1503  10.163   3.336   8.244
   80POPC   GL1 1504  10.317   3.330   7.741
   80POPC   GL2 1505  10.389   3.634   7.644
   80POPC   C1A 1506  10.635   3.072   7.447
   80POPC   D2A 1507  10.814   3.257   7.078
   80POPC   C3A 1508  10.815   3.111   6.653
   80POPC   C4A 1509  10.736   3.384   6.330
   80POPC   C1B 1510  10.335   3.429   7.236
   80POPC   C2B 1511  10.196   3.510   6.823
   80POPC   C3B 1512  10.280   3.655   6.401
   80POPC   C4B 1513  10.478   3.725   6.009
   81POPC   NC3 1514  10.859   6.694   7.991
   81POPC   PO4 1515  10.713   7.335   8.107
   81POPC   GL1 1516  10.473   7.198   7.727
   81POPC   GL2 1517  10.128   7.297   7.779
   81POPC   C1A 1518  10.516   7.214   7.250
   81POPC   D2A 1519  10.686   7.322   6.830
   81POPC   C3A 1520  10.438   7.156   6.490
   81POPC   C4A 1521  10.529   7.289   6.112
   81POPC   C1B 1522  10.308   7.618   7.476
   81POPC   C2B 1523  10.333   7.632   7.007
   81POPC   C3B 1524  10.360   7.658   6.560
   81POPC   C4B 1525  10.129   7.585   6.169
   82POPC   NC3 1526   0.551   9.909   7.933
   82POPC   PO4 1527   0.795   9.218   8.086
   82POPC   GL1 1528   0.701   9.458   7.729
   82POPC   GL2 1529   0.329   9.472   7.745
   82POPC   C1A 1530   0.844   9.441   7.292
   82POPC   D2A 1531   0.656   9.696   6.919
   82POPC   C3A 1532   0.511   9.555   6.503
   82POPC   C4A 1533   0.809   9.459   6.171
   82POPC   C1B 1534   0.376   9.661   7.352
   82POPC   C2B 1535   0.257   9.988   7.079
   82POPC   C3B 1536   0.044   9.930   6.708
   82POPC   C4B 1537   0.155   9.878   6.273
   83POPC   NC3 1538   3.330   1.966   7.994
   83POPC   PO4 1539   3.917   1.640   8.236
   83POPC   GL1 1540   3.636   1.610   7.747
   83POPC   GL2 1541   3.529   1.944   7.512
   83POPC   C1A 1542   3.341   1.533   7.360
   83POPC   D2A 1543   3.477   1.664   6.995
   83POPC   C3A 1544   3.388   1.561   6.600
   83POPC   C4A 1545   3.527   1.818   6.269
   83POPC   C1B 1546   3.453   2.205   7.129
   83POPC   C2B 1547   3.278   2.465   6.815
   83POPC   C3B 1548   3.399   2.317   6.412
   83POPC   C4B 1549   3.810   2.319   6.231
   84POPC   NC3 1550   6.653  10.701   7.975
   84POPC   PO4 1551   7.075  10.251   8.177
   84POPC   GL1 1552   6.873  10.283   7.748
   84POPC   GL2 1553   6.480  10.273   7.719
   84POPC   C1A 1554   6.800  10.495   7.341
   84POPC   D2A 1555   6.521  10.569   6.988
   84POPC   C3A 1556   6.571  10.459   6.545
   84POPC   C4A 1557   6.684  10.787   6.319
   84POPC   C1B 1558   6.467  10.122   7.276
   84POPC   C2B 1559   6.614  10.053   6.841
   84POPC   C3B 1560   6.461   9.965   6.397
   84POPC   C4B 1561   6.503   9.959   5.920
   85POPC   NC3 1562   9.690   2.672   7.966
   85POPC   PO4 1563   9.098   2.445   7.942
   85POPC   GL1 1564   9.284   2.769   7.641
   85POPC   GL2 1565   9.474   2.495   7.520
   85POPC   C1A 1566   9.343   3.075   7.253
   85POPC   D2A 1567   9.450   2.885   6.842
   85POPC   C3A 1568   9.478   3.015   6.423
   85POPC   C4A 1569   9.490   2.775   6.066
   85POPC   C1B 1570   9.716   2.748   7.247
   85POPC   C2B 1571   9.976   2.656   6.888
   85POPC   C3B 1572   9.968   2.714   6.448
   85POPC   C4B 1573   9.950   2.999   6.137
   86POPC   NC3 1574   0.215   9.121   8.093
   86POPC   PO4 1575  11.491   8.551   8.167
   86POPC   GL1 1576   0.218   8.685   7.738
   86POPC   GL2 1577   0.586   8.832   7.767
   86POPC   C1A 1578   0.459   8.610   7.315
   86POPC   D2A 1579   0.662   8.699   6.897
   86POPC   C3A 1580   0.356   8.784   6.571
   86POPC   C4A 1581   0.286   8.632   6.147
   86POPC   C1B 1582   0.472   9.110   7.412
   86POPC   C2B 1583   0.549   9.190   6.958
   86POPC   C3B 1584   0.754   9.112   6.551
   86POPC   C4B 1585   0.427   9.131   6.196
   87POPC   NC3 1586   6.282   2.413   8.089
   87POPC   PO4 1587   6.906   2.417   8.005
   87POPC   GL1 1588   6.752   2.280   7.631
   87POPC   GL2 1589   6.563   2.567   7.591
   87POPC   C1A 1590   6.711   2.287   7.169
   87POPC   D2A 1591   6.658   2.496   6.766
   87POPC   C3A 1592   6.583   2.346   6.359
   87POPC   C4A 1593   6.785   2.619   6.037
   87POPC   C1B 1594   6.476   2.761   7.171
   87POPC   C2B 1595   6.436   2.960   6.743
   87POPC   C3B 1596   6.371   2.807   6.315
   87POPC   C4B 1597   6.133   2.932   5.941
   88POPC   NC3 1598   5.855  10.274   7.842
   88POPC   PO4 1599   5.360  10.539   8.258
   88POPC   GL1 1600   5.564  10.705   7.818
   88POPC   GL2 1601   5.858  10.858   7.606
   88POPC   C1A 1602   5.532  10.596   7.331
   88POPC   D2A 1603   5.609  10.421   6.898
   88POPC   C3A 1604   5.392  10.507   6.483
   88POPC   C4A 1605   5.475  10.531   6.000
   88POPC   C1B 1606   6.096  10.538   7.302
   88POPC   C2B 1607   6.114  10.282   6.933
   88POPC   C3B 1608   6.040  10.449   6.564
   88POPC   C4B 1609   5.791  10.277   6.288
   89POPC   NC3 1610   1.120   1.920   8.050
   89POPC   PO4 1611   1.586   2.332   8.316
   89POPC   GL1 1612   1.589   2.056   7.855
   89POPC   GL2 1613   1.349   1.780   7.639
   89POPC   C1A 1614   1.602   2.094   7.377
   89POPC   D2A 1615   1.314   2.210   7.047
   89POPC   C3A 1616   1.471   2.220   6.623
   89POPC   C4A 1617   1.163   2.311   6.305
   89POPC   C1B 1618   1.115   1.763   7.282
   89POPC   C2B 1619   0.972   1.797   6.887
   89POPC   C3B 1620   1.187   1.824   6.531
   89POPC   C4B 1621   1.286   1.567   6.212
   90POPC   NC3 1622   6.113   0.720   7.990
   90POPC   PO4 1623   6.862   0.640   7.970
   90POPC   GL1 1624   6.757   0.535   7.572
   90POPC   GL2 1625   6.899   0.244   7.459
   90POPC   C1A 1626   6.678   0.636   7.142
   90POPC   D2A 1627   6.607   0.432   6.778
   90POPC   C3A 1628   6.832   0.587   6.459
   90POPC   C4A 1629   6.706   0.787   6.079
   90POPC   C1B 1630   6.486   0.176   7.284
   90POPC   C2B 1631   6.363  11.487   6.908
   90POPC   C3B 1632   6.157   0.224   6.615
   90POPC   C4B 1633   6.380   0.400   6.290
   91POPC   NC3 1634   4.220   2.074   8.302
   91POPC   PO4 1635   3.780   2.049   7.925
   91POPC   GL1 1636   4.029   2.023   7.586
   91POPC   GL2 1637   4.127   1.700   7.561
   91POPC   C1A 1638   3.884   1.925   7.158
   91POPC   D2A 1639   3.738   2.015   6.720
   91POPC   C3A 1640   4.073   1.942   6.422
   91POPC   C4A 1641   4.289   2.178   6.064
   91POPC   C1B 1642   4.385   1.879   7.222
   91POPC   C2B 1643   4.408   1.796   6.784
   91POPC   C3B 1644   4.571   1.834   6.355
   91POPC   C4B 1645   4.542   1.763   5.903
   92POPC   NC3 1646   7.555  11.161   7.878
   92POPC   PO4 1647   6.838  11.160   7.965
   92POPC   GL1 1648   6.955  10.930   7.576
   92POPC   GL2 1649   7.262  11.123   7.475
   92POPC   C1A 1650   7.058  10.865   7.101
   92POPC   D2A 1651   7.223  11.129   6.786
   92POPC   C3A 1652   7.038  11.134   6.406
   92POPC   C4A 1653   7.067  10.864   6.002
   92POPC   C1B 1654   7.585  11.172   7.154
   92POPC   C2B 1655   7.798  11.197   6.776
   92POPC   C3B 1656   7.637  11.135   6.382
   92POPC   C4B 1657   7.369  11.315   6.075
   93POPC   NC3 1658   0.477  10.479   8.147
   93POPC   PO4 1659   0.098   9.921   7.943
   93POPC   GL1 1660   0.135  10.131   7.562
   93POPC   GL2 1661   0.449  10.307   7.611
   93POPC   C1A 1662   0.049  10.441   7.218
   93POPC   D2A 1663   0.248  10.620   6.828
   93POPC   C3A 1664   0.245  10.350   6.493
   93POPC   C4A 1665   0.605  10.057   6.512
   93POPC   C1B 1666   0.561  10.548   7.242
   93POPC   C2B 1667   0.809  10.715   6.925
   93POPC   C3B 1668   0.708  10.599   6.555
   93POPC   C4B 1669   0.514  10.632   6.169
   94POPC   NC3 1670   4.559   0.560   8.091
   94POPC   PO4 1671   4.032   0.161   7.886
   94POPC   GL1 1672   4.276   0.382   7.564
   94POPC   GL2 1673   4.607   0.314   7.656
   94POPC   C1A 1674   4.157   0.449   7.104
   94POPC   D2A 1675   3.849   0.309   6.737
   94POPC   C3A 1676   4.016   0.438   6.301
   94POPC   C4A 1677   4.381   0.691   6.164
   94POPC   C1B 1678   4.644   0.183   7.234
   94POPC   C2B 1679   4.583   0.226   6.791
   94POPC   C3B 1680   4.504   0.193   6.367
   94POPC   C4B 1681   4.427  11.334   6.098
   95POPC   NC3 1682   7.101   2.010   7.937
   95POPC   PO4 1683   7.728   2.141   8.156
   95POPC   GL1 1684   7.547   2.160   7.680
   95POPC   GL2 1685   7.402   1.829   7.542
   95POPC   C1A 1686   7.564   2.170   7.187
   95POPC   D2A 1687   7.408   1.983   6.780
   95POPC   C3A 1688   7.520   2.153   6.381
   95POPC   C4A 1689   7.465   2.001   5.969
   95POPC   C1B 1690   7.092   1.938   7.192
   95POPC   C2B 1691   6.891   2.018   6.745
   95POPC   C3B 1692   6.999   2.038   6.283
   95POPC   C4B 1693   6.750   2.126   5.921
   96POPC   NC3 1694  11.262   4.456   8.137
   96POPC   PO4 1695  11.057   3.779   8.312
   96POPC   GL1 1696  11.118   3.892   7.819
   96POPC   GL2 1697  11.116   4.198   7.737
   96POPC   C1A 1698  11.338   3.885   7.364
   96POPC   D2A 1699  11.206   4.065   6.907
   96POPC   C3A 1700  11.257   3.966   6.429
   96POPC   C4A 1701  10.953   4.206   6.128
   96POPC   C1B 1702  11.249   4.385   7.333
   96POPC   C2B 1703  11.168   4.590   6.938
   96POPC   C3B 1704  11.140   4.445   6.540
   96POPC   C4B 1705  11.405   4.448   6.180
   97POPC   NC3 1706   8.039   1.747   8.114
   97POPC   PO4 1707   8.571   2.099   8.066
   97POPC   GL1 1708   8.503   1.792   7.748
   97POPC   GL2 1709   8.201   1.638   7.662
   97POPC   C1A 1710   8.486   1.790   7.291
   97POPC   D2A 1711   8.291   1.978   6.930
   97POPC   C3A 1712   8.445   1.884   6.509
   97POPC   C4A 1713   8.267   1.649   6.186
   97POPC   C1B 1714   7.914   1.844   7.410
   97POPC   C2B 1715   7.808   1.740   6.990
   97POPC   C3B 1716   7.916   1.863   6.586
   97POPC   C4B 1717   8.077   2.145   6.268
   98POPC   NC3 1718  11.041   5.846   8.263
   98POPC   PO4 1719   0.099   6.005   7.843
   98POPC   GL1 1720  11.307   5.844   7.567
   98POPC   GL2 1721  11.132   5.614   7.747
   98POPC   C1A 1722  11.342   5.786   7.138
   98POPC   D2A 1723  11.202   5.566   6.779
   98POPC   C3A 1724  11.219   5.763   6.377
   98POPC   C4A 1725  11.013   5.989   6.041
   98POPC   C1B 1726  10.931   5.484   7.346
   98POPC   C2B 1727  10.714   5.536   6.963
   98POPC   C3B 1728  10.780   5.404   6.534
   98POPC   C4B 1729  10.783   5.569   6.142
   99POPC   NC3 1730   1.487   6.508   8.228
   99POPC   PO4 1731   0.896   6.329   7.985
   99POPC   GL1 1732   1.192   6.388   7.677
   99POPC   GL2 1733   1.277   6.732   7.729
   99POPC   C1A 1734   1.147   6.248   7.253
   99POPC   D2A 1735   1.307   6.109   6.836
   99POPC   C3A 1736   1.181   6.277   6.424
   99POPC   C4A 1737   1.485   6.402   6.110
   99POPC   C1B 1738   0.986   6.720   7.331
   99POPC   C2B 1739   1.156   6.631   6.895
   99POPC   C3B 1740   1.303   6.777   6.472
   99POPC   C4B 1741   1.079   6.714   6.092
  100POPC   NC3 1742   1.356   4.376   8.023
  100POPC   PO4 1743   0.720   4.599   8.109
  100POPC   GL1 1744   0.917   4.414   7.680
  100POPC   GL2 1745   1.257   4.157   7.576
  100POPC   C1A 1746   0.837   4.157   7.308
  100POPC   D2A 1747   1.103   4.086   6.931
  100POPC   C3A 1748   0.852   4.211   6.563
  100POPC   C4A 1749   1.000   4.149   6.142
  100POPC   C1B 1750   1.293   4.449   7.267
  100POPC   C2B 1751   1.249   4.556   6.843
  100POPC   C3B 1752   1.334   4.347   6.469
  100POPC   C4B 1753   1.399   4.543   6.097
  101POPC   NC3 1754   7.175   9.816   8.105
  101POPC   PO4 1755   7.298   9.257   7.937
  101POPC   GL1 1756   7.535   9.408   7.618
  101POPC   GL2 1757   7.480   9.744   7.683
  101POPC   C1A 1758   7.432   9.493   7.157
  101POPC   D2A 1759   7.527   9.391   6.732
  101POPC   C3A 1760   7.283   9.632   6.428
  101POPC   C4A 1761   7.137   9.437   6.069
  101POPC   C1B 1762   7.218   9.925   7.337
  101POPC   C2B 1763   7.139   9.936   6.854
  101POPC   C3B 1764   6.999  10.100   6.419
  101POPC   C4B 1765   7.029   9.946   5.973
  102POPC   NC3 1766   2.130   8.563   7.982
  102POPC   PO4 1767   1.503   8.511   8.100
  102POPC   GL1 1768   1.663   8.520   7.715
  102POPC   GL2 1769   1.742   8.875   7.746
  102POPC   C1A 1770   1.532   8.676   7.313
  102POPC   D2A 1771   1.673   8.903   6.916
  102POPC   C3A 1772   1.643   8.713   6.482
  102POPC   C4A 1773   1.768   8.453   6.096
  102POPC   C1B 1774   2.020   8.793   7.397
  102POPC   C2B 1775   2.195   8.857   7.038
  102POPC   C3B 1776   2.141   8.865   6.636
  102POPC   C4B 1777   2.115   8.829   6.221
  103POPC   NC3 1778   2.986   6.494   8.054
  103POPC   PO4 1779   2.449   6.001   8.118
  103POPC   GL1 1780   2.437   6.195   7.675
  103POPC   GL2 1781   2.631   6.477   7.668
  103POPC   C1A 1782   2.527   6.194   7.222
  103POPC   D2A 1783   2.492   6.077   6.774
  103POPC   C3A 1784   2.872   6.233   6.511
  103POPC   C4A 1785   2.961   6.393   6.090
  103POPC   C1B 1786   2.636   6.690   7.250
  103POPC   C2B 1787   2.622   6.548   6.834
  103POPC   C3B 1788   2.645   6.661   6.405
  103POPC   C4B 1789   2.862   6.919   6.110
  104POPC   NC3 1790   7.680   1.387   8.463
  104POPC   PO4 1791   7.167   1.541   7.958
  104POPC   GL1 1792   7.302   1.307   7.583
  104POPC   GL2 1793   7.456   0.979   7.722
  104POPC   C1A 1794   7.367   1.473   7.126
  104POPC   D2A 1795   7.488   1.486   6.656
  104POPC   C3A 1796   7.254   1.590   6.237
  104POPC   C4A 1797   7.451   1.491   5.787
  104POPC   C1B 1798   7.551   0.986   7.264
  104POPC   C2B 1799   7.234   0.998   6.932
  104POPC   C3B 1800   7.098   1.088   6.512
  104POPC   C4B 1801   7.487   1.137   6.271
  105POPC   NC3 1802   3.719  10.279   8.029
  105POPC   PO4 1803   3.262   9.842   8.155
  105POPC   GL1 1804   3.278  10.098   7.776
  105POPC   GL2 1805   3.259  10.485   7.796
  105POPC   C1A 1806   3.214  10.032   7.336
  105POPC   D2A 1807   3.359  10.235   6.956
  105POPC   C3A 1808   3.229  10.084   6.548
  105POPC   C4A 1809   3.511  10.156   6.243
  105POPC   C1B 1810   3.510  10.482   7.400
  105POPC   C2B 1811   3.763  10.537   7.015
  105POPC   C3B 1812   3.599  10.621   6.578
  105POPC   C4B 1813   3.843  10.560   6.194
  106POPC   NC3 1814   0.611   6.761   7.928
  106POPC   PO4 1815   0.225   6.407   8.300
  106POPC   GL1 1816   0.202   6.510   7.827
  106POPC   GL2 1817   0.469   6.333   7.640
  106POPC   C1A 1818   0.159   6.615   7.344
  106POPC   D2A 1819   0.155   6.412   6.916
  106POPC   C3A 1820   0.254   6.629   6.524
  106POPC   C4A 1821   0.260   6.621   6.081
  106POPC   C1B 1822   0.605   6.391   7.207
  106POPC   C2B 1823   0.617   6.727   6.904
  106POPC   C3B 1824   0.797   6.687   6.519
  106POPC   C4B 1825   0.690   6.376   6.236
  107POPC   NC3 1826   5.841  10.554   8.293
  107POPC   PO4 1827   5.602  11.220   8.084
  107POPC   GL1 1828   5.442  11.187   7.655
  107POPC   GL2 1829   5.715  11.364   7.581
  107POPC   C1A 1830   5.553  11.097   7.207
  107POPC   D2A 1831   5.904  10.904   7.005
  107POPC   C3A 1832   5.726  10.851   6.637
  107POPC   C4A 1833   5.679  10.933   6.228
  107POPC   C1B 1834   6.007  11.377   7.278
  107POPC   C2B 1835   5.851  11.402   6.896
  107POPC   C3B 1836   5.994  11.258   6.552
  107POPC   C4B 1837   5.962  11.393   6.200
  108POPC   NC3 1838   9.962   3.635   7.962
  108POPC   PO4 1839   9.886   3.049   7.824
  108POPC   GL1 1840   9.840   3.249   7.481
  108POPC   GL2 1841   9.898   3.582   7.452
  108POPC   C1A 1842   9.836   3.221   7.070
  108POPC   D2A 1843   9.874   3.129   6.708
  108POPC   C3A 1844   9.816   3.430   6.400
  108POPC   C4A 1845   9.640   3.386   5.999
  108POPC   C1B 1846   9.509   3.581   7.182
  108POPC   C2B 1847   9.415   3.402   6.762
  108POPC   C3B 1848   9.300   3.585   6.343
  108POPC   C4B 1849   9.470   3.857   6.002
  109POPC   NC3 1850   2.035   4.581   8.060
  109POPC   PO4 1851   2.016   3.983   8.131
  109POPC   GL1 1852   1.784   4.151   7.773
  109POPC   GL2 1853   2.113   4.187   7.642
  109POPC   C1A 1854   1.728   4.165   7.298
  109POPC   D2A 1855   1.630   4.169   6.838
  109POPC   C3A 1856   1.835   4.414   6.467
  109POPC   C4A 1857   1.884   4.779   6.155
  109POPC   C1B 1858   2.193   3.911   7.273
  109POPC   C2B 1859   2.136   4.022   6.841
  109POPC   C3B 1860   2.290   4.131   6.410
  109POPC   C4B 1861   2.014   4.149   6.052
  110POPC   NC3 1862  10.158   8.412   8.044
  110POPC   PO4 1863  10.349   9.091   8.176
  110POPC   GL1 1864  10.236   8.843   7.776
  110POPC   GL2 1865  10.526   8.642   7.682
  110POPC   C1A 1866  10.149   8.536   7.382
  110POPC   D2A 1867  10.414   8.508   6.991
  110POPC   C3A 1868  10.249   8.564   6.564
  110POPC   C4A 1869  10.296   8.761   6.154
  110POPC   C1B 1870  10.522   8.878   7.332
  110POPC   C2B 1871  10.720   8.966   6.969
  110POPC   C3B 1872  10.651   8.888   6.555
  110POPC   C4B 1873  10.713   9.088   6.182
  111POPC   NC3 1874   0.496   0.539   8.129
  111POPC   PO4 1875   0.318  11.403   8.085
  111POPC   GL1 1876   0.548   0.097   7.718
  111POPC   GL2 1877   0.519   0.465   7.603
  111POPC   C1A 1878   0.501   0.049   7.261
  111POPC   D2A 1879   0.389   0.269   6.872
  111POPC   C3A 1880   0.372   0.043   6.443
  111POPC   C4A 1881   0.458   0.140   5.971
  111POPC   C1B 1882   0.382   0.756   7.238
  111POPC   C2B 1883   0.369   0.803   6.783
  111POPC   C3B 1884   0.533   0.558   6.462
  111POPC   C4B 1885   0.824   0.505   6.169
  112POPC   NC3 1886  10.618   9.555   8.037
  112POPC   PO4 1887   9.936   9.777   8.216
  112POPC   GL1 1888  10.201   9.749   7.837
  112POPC   GL2 1889  10.303   9.369   7.704
  112POPC   C1A 1890  10.190   9.816   7.398
  112POPC   D2A 1891  10.007   9.628   7.049
  112POPC   C3A 1892  10.183   9.663   6.657
  112POPC   C4A 1893  10.000   9.686   6.212
  112POPC   C1B 1894  10.384   9.353   7.254
  112POPC   C2B 1895  10.233   9.162   6.856
  112POPC   C3B 1896  10.304   9.249   6.416
  112POPC   C4B 1897  10.416   9.484   6.012
  113POPC   NC3 1898   9.573  10.017   8.385
  113POPC   PO4 1899   9.285   9.593   7.979
  113POPC   GL1 1900   9.667   9.739   7.766
  113POPC   GL2 1901   9.819   9.472   7.634
  113POPC   C1A 1902   9.659   9.887   7.337
  113POPC   D2A 1903   9.508   9.730   6.938
  113POPC   C3A 1904   9.731   9.899   6.600
  113POPC   C4A 1905   9.529   9.908   6.208
  113POPC   C1B 1906   9.592   9.377   7.322
  113POPC   C2B 1907   9.722   9.244   6.953
  113POPC   C3B 1908   9.757   9.393   6.587
  113POPC   C4B 1909   9.580   9.366   6.222
  114POPC   NC3 1910  10.227  10.286   8.114
  114POPC   PO4 1911  10.879  10.106   8.258
  114POPC   GL1 1912  10.682  10.391   7.789
  114POPC   GL2 1913  10.379  10.246   7.637
  114POPC   C1A 1914  10.740  10.267   7.269
  114POPC   D2A 1915  10.523  10.404   6.902
  114POPC   C3A 1916  10.701  10.514   6.529
  114POPC   C4A 1917  10.735  10.170   6.311
  114POPC   C1B 1918  10.362  10.592   7.348
  114POPC   C2B 1919  10.098  10.706   6.997
  114POPC   C3B 1920  10.203  10.641   6.561
  114POPC   C4B 1921  10.361  10.467   6.139
  115POPC   NC3 1922  10.656   7.813   8.002
  115POPC   PO4 1923   9.969   7.961   8.016
  115POPC   GL1 1924  10.124   8.066   7.630
  115POPC   GL2 1925  10.468   8.120   7.624
  115POPC   C1A 1926  10.197   8.066   7.201
  115POPC   D2A 1927   9.997   8.240   6.884
  115POPC   C3A 1928  10.068   8.070   6.503
  115POPC   C4A 1929  10.083   8.287   6.150
  115POPC   C1B 1930  10.688   7.896   7.286
  115POPC   C2B 1931  10.607   8.040   6.857
  115POPC   C3B 1932  10.556   8.170   6.453
  115POPC   C4B 1933  10.518   7.894   6.118
  116POPC   NC3 1934  11.495   7.504   7.953
  116POPC   PO4 1935   0.642   7.222   7.898
  116POPC   GL1 1936   0.343   7.369   7.626
  116POPC   GL2 1937   0.175   7.029   7.671
  116POPC   C1A 1938   0.293   7.622   7.238
  116POPC   D2A 1939   0.049   7.580   6.840
  116POPC   C3A 1940   0.318   7.582   6.459
  116POPC   C4A 1941   0.656   7.444   6.171
  116POPC   C1B 1942   0.460   7.040   7.277
  116POPC   C2B 1943   0.475   7.271   6.881
  116POPC   C3B 1944   0.494   7.087   6.491
  116POPC   C4B 1945   0.661   6.959   6.089
  117POPC   NC3 1946   8.481   9.791   8.101
  117POPC   PO4 1947   7.834   9.611   8.293
  117POPC   GL1 1948   8.069   9.564   7.870
  117POPC   GL2 1949   7.987   9.854   7.747
  117POPC   C1A 1950   8.342   9.597   7.438
  117POPC   D2A 1951   8.440   9.687   6.950
  117POPC   C3A 1952   8.232   9.510   6.544
  117POPC   C4A 1953   8.160   9.711   6.180
  117POPC   C1B 1954   7.860   9.687   7.346
  117POPC   C2B 1955   7.930   9.693   6.912
  117POPC   C3B 1956   7.770   9.793   6.504
  117POPC   C4B 1957   7.718   9.423   6.222
  118POPC   NC3 1958   3.591   0.387   7.925
  118POPC   PO4 1959   3.801   1.035   7.963
  118POPC   GL1 1960   3.790   0.706   7.600
  118POPC   GL2 1961   3.781   0.349   7.459
  118POPC   C1A 1962   3.548   0.721   7.203
  118POPC   D2A 1963   3.347   0.551   6.829
  118POPC   C3A 1964   3.595   0.714   6.508
  118POPC   C4A 1965   3.645   0.754   6.053
  118POPC   C1B 1966   3.412   0.221   7.233
  118POPC   C2B 1967   3.372  11.449   6.909
  118POPC   C3B 1968   3.231   0.022   6.513
  118POPC   C4B 1969   3.356   0.367   6.249
  119POPC   NC3 1970  11.239   2.343   8.170
  119POPC   PO4 1971  10.690   2.644   8.219
  119POPC   GL1 1972  10.876   2.541   7.822
  119POPC   GL2 1973  11.211   2.731   7.843
  119POPC   C1A 1974  10.982   2.662   7.398
  119POPC   D2A 1975  10.837   2.748   7.021
  119POPC   C3A 1976  10.911   2.413   6.767
  119POPC   C4A 1977  10.900   2.401   6.318
  119POPC   C1B 1978  11.469   2.678   7.481
  119POPC   C2B 1979  11.420   2.725   7.036
  119POPC   C3B 1980  11.227   2.792   6.650
  119POPC   C4B 1981  11.402   2.725   6.286
  120POPC   NC3 1982   8.093  11.410   8.123
  120POPC   PO4 1983   7.771  10.874   8.185
  120POPC   GL1 1984   8.038  11.148   7.711
  120POPC   GL2 1985   7.846  11.399   7.535
  120POPC   C1A 1986   8.090  11.050   7.217
  120POPC   D2A 1987   8.301  11.111   6.825
  120POPC   C3A 1988   8.182  11.067   6.378
  120POPC   C4A 1989   7.998  10.821   6.051
  120POPC   C1B 1990   8.252  11.498   7.379
  120POPC   C2B 1991   8.384   0.087   6.982
  120POPC   C3B 1992   8.161   0.038   6.606
  120POPC   C4B 1993   8.245   0.055   6.205
  121POPC   NC3 1994   6.014   1.549   8.085
  121POPC   PO4 1995   5.347   1.575   8.092
  121POPC   GL1 1996   5.676   1.417   7.734
  121POPC   GL2 1997   5.913   1.106   7.685
  121POPC   C1A 1998   5.909   1.446   7.327
  121POPC   D2A 1999   5.765   1.358   6.921
  121POPC   C3A 2000   5.958   1.341   6.514
  121POPC   C4A 2001   5.738   1.310   6.091
  121POPC   C1B 2002   5.852   0.936   7.236
  121POPC   C2B 2003   5.592   0.883   6.863
  121POPC   C3B 2004   5.673   0.942   6.427
  121POPC   C4B 2005   6.099   0.978   6.156
  122POPC   NC3 2006  10.740   1.525   7.884
  122POPC   PO4 2007  11.336   1.894   8.078
  122POPC   GL1 2008  11.296   2.168   7.696
  122POPC   GL2 2009  11.198   1.845   7.559
  122POPC   C1A 2010  11.296   2.261   7.244
  122POPC   D2A 2011  11.490   2.119   6.889
  122POPC   C3A 2012  11.372   2.286   6.541
  122POPC   C4A 2013  11.346   2.242   6.127
  122POPC   C1B 2014  11.136   1.786   7.118
  122POPC   C2B 2015  11.030   1.928   6.712
  122POPC   C3B 2016  10.992   1.864   6.279
  122POPC   C4B 2017  10.903   1.678   5.875
  123POPC   NC3 2018   1.295   3.483   8.009
  123POPC   PO4 2019   1.027   4.054   8.007
  123POPC   GL1 2020   0.951   3.729   7.672
  123POPC   GL2 2021   1.296   3.619   7.519
  123POPC   C1A 2022   0.874   3.535   7.261
  123POPC   D2A 2023   1.147   3.561   6.906
  123POPC   C3A 2024   0.994   3.706   6.528
  123POPC   C4A 2025   1.150   3.659   6.130
  123POPC   C1B 2026   1.365   3.239   7.244
  123POPC   C2B 2027   1.495   3.188   6.786
  123POPC   C3B 2028   1.243   3.242   6.411
  123POPC   C4B 2029   1.324   3.199   5.926
  124POPC   NC3 2030   9.281  10.047   7.897
  124POPC   PO4 2031   9.797  10.404   8.261
  124POPC   GL1 2032   9.781  10.430   7.777
  124POPC   GL2 2033   9.932  10.712   7.592
  124POPC   C1A 2034   9.524  10.505   7.347
  124POPC   D2A 2035   9.580  10.245   6.958
  124POPC   C3A 2036   9.413  10.293   6.528
  124POPC   C4A 2037   9.351  10.671   6.335
  124POPC   C1B 2038   9.972  10.291   7.327
  124POPC   C2B 2039  10.104  10.113   6.939
  124POPC   C3B 2040  10.235  10.133   6.507
  124POPC   C4B 2041   9.912  10.241   6.238
  125POPC   NC3 2042  11.077   0.628   7.971
  125POPC   PO4 2043   0.150   0.849   8.092
  125POPC   GL1 2044   0.038   0.528   7.748
  125POPC   GL2 2045  11.308   0.218   7.746
  125POPC   C1A 2046   0.090   0.352   7.319
  125POPC   D2A 2047  11.430   0.540   6.938
  125POPC   C3A 2048   0.038   0.487   6.528
  125POPC   C4A 2049   0.001   0.255   6.177
  125POPC   C1B 2050  11.090   0.314   7.351
  125POPC   C2B 2051  10.980   0.209   6.930
  125POPC   C3B 2052  11.076   0.256   6.497
  125POPC   C4B 2053  11.062   0.526   6.193
  126POPC   NC3 2054   0.483   6.091   8.085
  126POPC   PO4 2055  11.458   5.619   8.237
  126POPC   GL1 2056   0.136   5.501   7.732
  126POPC   GL2 2057   0.482   5.673   7.732
  126POPC   C1A 2058   0.316   5.589   7.278
  126POPC   D2A 2059   0.333   5.891   6.969
  126POPC   C3A 2060   0.210   5.656   6.619
  126POPC   C4A 2061   0.365   5.633   6.224
  126POPC   C1B 2062   0.711   5.927   7.415
  126POPC   C2B 2063   0.845   5.946   6.983
  126POPC   C3B 2064   0.743   5.893   6.545
  126POPC   C4B 2065   0.815   5.894   6.112
  127POPC   NC3 2066  10.381   5.962   8.052
  127POPC   PO4 2067  10.900   6.288   8.269
  127POPC   GL1 2068  10.896   6.052   7.819
  127POPC   GL2 2069  10.648   5.773   7.684
  127POPC   C1A 2070  10.886   5.992   7.319
  127POPC   D2A 2071  10.960   6.000   6.876
  127POPC   C3A 2072  10.732   5.914   6.519
  127POPC   C4A 2073  10.568   6.235   6.233
  127POPC   C1B 2074  10.411   5.819   7.314
  127POPC   C2B 2075  10.352   5.899   6.885
  127POPC   C3B 2076  10.178   6.044   6.524
  127POPC   C4B 2077  10.323   5.783   6.252
  128POPC   NC3 2078   2.061   6.324   7.984
  128POPC   PO4 2079   1.739   6.859   8.072
  128POPC   GL1 2080   1.802   6.738   7.637
  128POPC   GL2 2081   1.701   6.432   7.647
  128POPC   C1A 2082   1.658   6.637   7.175
  128POPC   D2A 2083   1.650   6.493   6.730
  128POPC   C3A 2084   1.825   6.762   6.400
  128POPC   C4A 2085   2.246   6.947   6.323
  128POPC   C1B 2086   2.059   6.356   7.357
  128POPC   C2B 2087   2.140   6.410   6.957
  128POPC   C3B 2088   2.187   6.425   6.531
  128POPC   C4B 2089   1.998   6.348   6.133
  129POPC   NC3 2090  10.337   2.954   8.048
  129POPC   PO4 2091  10.023   2.359   8.084
  129POPC   GL1 2092  10.292   2.536   7.794
  129POPC   GL2 2093  10.043   2.616   7.595
  129POPC   C1A 2094  10.499   2.549   7.387
  129POPC   D2A 2095  10.432   2.403   6.968
  129POPC   C3A 2096  10.478   2.629   6.557
  129POPC   C4A 2097  10.313   2.520   6.124
  129POPC   C1B 2098  10.188   2.922   7.280
  129POPC   C2B 2099  10.372   3.011   6.914
  129POPC   C3B 2100  10.318   3.131   6.495
  129POPC   C4B 2101  10.470   3.003   6.146
  130POPC   NC3 2102   4.344  10.520   7.926
  130POPC   PO4 2103   3.715  10.728   8.052
  130POPC   GL1 2104   3.906  10.673   7.693
  130POPC   GL2 2105   3.979  10.361   7.596
  130POPC   C1A 2106   3.993  10.890   7.357
  130POPC   D2A 2107   4.215  10.940   6.990
  130POPC   C3A 2108   4.110  10.715   6.646
  130POPC   C4A 2109   4.365  10.637   6.286
  130POPC   C1B 2110   4.230  10.448   7.246
  130POPC   C2B 2111   4.239  10.272   6.852
  130POPC   C3B 2112   4.561  10.255   6.551
  130POPC   C4B 2113   4.574  10.174   6.128
  131POPC   NC3 2114   0.989   4.982   8.103
  131POPC   PO4 2115   1.617   4.760   8.013
  131POPC   GL1 2116   1.248   4.806   7.653
  131POPC   GL2 2117   1.006   5.089   7.624
  131POPC   C1A 2118   0.991   4.843   7.204
  131POPC   D2A 2119   0.905   4.955   6.780
  131POPC   C3A 2120   0.983   4.711   6.426
  131POPC   C4A 2121   1.094   4.974   6.154
  131POPC   C1B 2122   1.315   5.218   7.305
  131POPC   C2B 2123   1.405   5.042   6.908
  131POPC   C3B 2124   1.480   4.893   6.495
  131POPC   C4B 2125   1.470   5.275   6.286
  132POPC   NC3 2126   5.361   2.026   8.048
  132POPC   PO4 2127   6.011   2.037   8.094
  132POPC   GL1 2128   5.938   1.871   7.661
  132POPC   GL2 2129   5.590   1.903   7.610
  132POPC   C1A 2130   5.868   1.923   7.176
  132POPC   D2A 2131   5.918   1.813   6.729
  132POPC   C3A 2132   6.099   2.130   6.441
  132POPC   C4A 2133   5.977   2.500   6.211
  132POPC   C1B 2134   5.404   1.614   7.316
  132POPC   C2B 2135   5.272   1.455   6.896
  132POPC   C3B 2136   5.465   1.513   6.475
  132POPC   C4B 2137   5.792   1.786   6.222
  133POPC   NC3 2138  11.500  11.240   7.788
  133POPC   PO4 2139   0.179  10.857   8.286
  133POPC   GL1 2140   0.247  10.797   7.749
  133POPC   GL2 2141   0.455  11.087   7.619
  133POPC   C1A 2142   0.185  10.930   7.241
  133POPC   D2A 2143  11.478  11.039   6.825
  133POPC   C3A 2144   0.178  10.931   6.395
  133POPC   C4A 2145   0.150  10.807   5.886
  133POPC   C1B 2146   0.707  11.076   7.274
  133POPC   C2B 2147   0.506  11.167   6.886
  133POPC   C3B 2148   0.648  11.109   6.500
  133POPC   C4B 2149   0.530  11.138   6.064
  134POPC   NC3 2150   2.285   3.610   8.076
  134POPC   PO4 2151   1.684   3.256   7.948
  134POPC   GL1 2152   1.924   3.325   7.582
  134POPC   GL2 2153   1.964   3.671   7.650
  134POPC   C1A 2154   1.853   3.134   7.165
  134POPC   D2A 2155   1.997   3.010   6.769
  134POPC   C3A 2156   1.938   3.341   6.478
  134POPC   C4A 2157   1.639   3.497   6.180
  134POPC   C1B 2158   1.730   3.647   7.235
  134POPC   C2B 2159   1.664   3.666   6.790
  134POPC   C3B 2160   1.864   3.855   6.443
  134POPC   C4B 2161   2.192   3.687   6.147
  135POPC   NC3 2162   1.611   2.880   8.198
  135POPC   PO4 2163   2.221   2.455   8.046
  135POPC   GL1 2164   1.889   2.497   7.798
  135POPC   GL2 2165   1.945   2.845   7.774
  135POPC   C1A 2166   1.755   2.573   7.365
  135POPC   D2A 2167   1.837   2.350   6.975
  135POPC   C3A 2168   1.833   2.563   6.579
  135POPC   C4A 2169   1.635   2.475   6.181
  135POPC   C1B 2170   2.181   2.823   7.386
  135POPC   C2B 2171   2.325   2.514   7.060
  135POPC   C3B 2172   2.339   2.518   6.606
  135POPC   C4B 2173   2.165   2.832   6.302
  136POPC   NC3 2174   2.764   8.881   8.035
  136POPC   PO4 2175   2.503   8.421   7.770
  136POPC   GL1 2176   2.459   8.897   7.616
  136POPC   GL2 2177   2.768   9.114   7.568
  136POPC   C1A 2178   2.390   9.237   7.269
  136POPC   D2A 2179   2.585   9.151   6.854
  136POPC   C3A 2180   2.551   9.076   6.417
  136POPC   C4A 2181   2.585   8.862   6.003
  136POPC   C1B 2182   2.697   8.789   7.200
  136POPC   C2B 2183   2.574   8.607   6.773
  136POPC   C3B 2184   2.835   8.653   6.398
  136POPC   C4B 2185   3.057   9.054   6.254
  137POPC   NC3 2186   2.014   2.052   8.167
  137POPC   PO4 2187   1.501   1.587   8.065
  137POPC   GL1 2188   1.844   1.652   7.741
  137POPC   GL2 2189   2.085   1.913   7.694
  137POPC   C1A 2190   1.850   1.630   7.303
  137POPC   D2A 2191   1.603   1.795   6.944
  137POPC   C3A 2192   1.686   1.671   6.525
  137POPC   C4A 2193   1.753   1.947   6.163
  137POPC   C1B 2194   2.103   2.162   7.370
  137POPC   C2B 2195   2.134   1.931   6.971
  137POPC   C3B 2196   2.008   2.076   6.577
  137POPC   C4B 2197   2.125   2.300   6.195
  138POPC   NC3 2198   1.735  11.108   8.349
  138POPC   PO4 2199   1.694   0.185   8.034
  138POPC   GL1 2200   1.674  11.310   7.776
  138POPC   GL2 2201   1.960  11.065   7.815
  138POPC   C1A 2202   1.709  11.186   7.341
  138POPC   D2A 2203   1.927  11.307   6.959
  138POPC   C3A 2204   1.768  11.220   6.560
  138POPC   C4A 2205   1.750   0.023   6.248
  138POPC   C1B 2206   2.206  10.965   7.437
  138POPC   C2B 2207   2.194  10.860   7.002
  138POPC   C3B 2208   2.297  11.090   6.639
  138POPC   C4B 2209   2.142  11.035   6.243
  139POPC   NC3 2210   4.498  11.482   8.047
  139POPC   PO4 2211   4.713  10.777   8.052
  139POPC   GL1 2212   4.446  10.982   7.724
  139POPC   GL2 2213   4.119  11.152   7.782
  139POPC   C1A 2214   4.599  10.985   7.315
  139POPC   D2A 2215   4.649  11.234   6.961
  139POPC   C3A 2216   4.528  11.040   6.581
  139POPC   C4A 2217   4.759  10.987   6.222
  139POPC   C1B 2218   4.269  11.351   7.382
  139POPC   C2B 2219   4.167  11.454   6.971
  139POPC   C3B 2220   4.151  11.384   6.552
  139POPC   C4B 2221   4.054  11.045   6.272
  140POPC   NC3 2222   9.456   1.185   8.101
  140POPC   PO4 2223  10.037   1.255   8.086
  140POPC   GL1 2224   9.767   1.270   7.678
  140POPC   GL2 2225   9.457   1.008   7.629
  140POPC   C1A 2226   9.698   1.492   7.260
  140POPC   D2A 2227   9.357   1.512   6.914
  140POPC   C3A 2228   9.502   1.441   6.492
  140POPC   C4A 2229   9.865   1.402   6.253
  140POPC   C1B 2230   9.643   0.994   7.224
  140POPC   C2B 2231   9.735   1.151   6.826
  140POPC   C3B 2232   9.767   0.945   6.421
  140POPC   C4B 2233   9.417   0.834   6.148
  141POPC   NC3 2234   2.859  10.044   8.283
  141POPC   PO4 2235   2.716  10.673   8.050
  141POPC   GL1 2236   2.732  10.568   7.657
  141POPC   GL2 2237   2.804  10.229   7.612
  141POPC   C1A 2238   2.468  10.530   7.301
  141POPC   D2A 2239   2.492  10.366   6.900
  141POPC   C3A 2240   2.427  10.600   6.555
  141POPC   C4A 2241   2.502  10.416   6.181
  141POPC   C1B 2242   2.970  10.474   7.213
  141POPC   C2B 2243   2.972  10.495   6.739
  141POPC   C3B 2244   3.009  10.548   6.317
  141POPC   C4B 2245   2.962  10.207   6.092
  142POPC   NC3 2246   6.940   0.159   7.959
  142POPC   PO4 2247   7.695   0.126   7.978
  142POPC   GL1 2248   7.389   0.134   7.645
  142POPC   GL2 2249   7.297   0.476   7.721
  142POPC   C1A 2250   7.318   0.111   7.183
  142POPC   D2A 2251   7.444   0.085   6.725
  142POPC   C3A 2252   7.209   0.204   6.357
  142POPC   C4A 2253   7.391   0.294   5.910
  142POPC   C1B 2254   7.185   0.632   7.315
  142POPC   C2B 2255   7.135   0.499   6.886
  142POPC   C3B 2256   7.376   0.644   6.543
  142POPC   C4B 2257   7.213   0.712   6.155
  143POPC   NC3 2258   2.955   9.638   7.862
  143POPC   PO4 2259   2.421   9.977   8.104
  143POPC   GL1 2260   2.361   9.929   7.667
  143POPC   GL2 2261   2.505   9.600   7.596
  143POPC   C1A 2262   2.532   9.991   7.247
  143POPC   D2A 2263   2.874  10.030   6.943
  143POPC   C3A 2264   2.697  10.065   6.516
  143POPC   C4A 2265   2.412   9.895   6.172
  143POPC   C1B 2266   2.822   9.560   7.222
  143POPC   C2B 2267   2.868   9.560   6.764
  143POPC   C3B 2268   2.778   9.569   6.343
  143POPC   C4B 2269   2.715   9.335   5.999
  144POPC   NC3 2270   1.668   7.308   7.979
  144POPC   PO4 2271   1.941   7.818   8.336
  144POPC   GL1 2272   1.880   7.853   7.848
  144POPC   GL2 2273   2.068   8.119   7.731
  144POPC   C1A 2274   1.783   7.806   7.360
  144POPC   D2A 2275   1.927   7.932   6.901
  144POPC   C3A 2276   1.759   7.724   6.486
  144POPC   C4A 2277   1.785   7.868   6.038
  144POPC   C1B 2278   1.916   8.299   7.320
  144POPC   C2B 2279   1.993   8.437   6.881
  144POPC   C3B 2280   2.125   8.364   6.461
  144POPC   C4B 2281   2.226   8.129   6.077
  145POPC   NC3 2282   2.595   2.767   8.060
  145POPC   PO4 2283   3.099   2.327   8.218
  145POPC   GL1 2284   2.814   2.516   7.706
  145POPC   GL2 2285   2.493   2.489   7.586
  145POPC   C1A 2286   2.868   2.396   7.215
  145POPC   D2A 2287   2.791   2.570   6.827
  145POPC   C3A 2288   2.885   2.373   6.465
  145POPC   C4A 2289   3.050   2.467   6.080
  145POPC   C1B 2290   2.662   2.846   7.269
  145POPC   C2B 2291   2.502   2.969   6.836
  145POPC   C3B 2292   2.690   2.855   6.392
  145POPC   C4B 2293   2.524   2.989   5.956
  146POPC   NC3 2294  11.197   1.519   8.320
  146POPC   PO4 2295  10.820   1.029   8.068
  146POPC   GL1 2296  11.037   1.140   7.669
  146POPC   GL2 2297  11.412   1.088   7.701
  146POPC   C1A 2298  11.086   1.279   7.205
  146POPC   D2A 2299  11.145   1.437   6.739
  146POPC   C3A 2300  10.978   1.307   6.365
  146POPC   C4A 2301  10.677   0.990   6.396
  146POPC   C1B 2302  11.302   0.815   7.351
  146POPC   C2B 2303  11.004   0.807   6.982
  146POPC   C3B 2304  11.162   0.866   6.561
  146POPC   C4B 2305  11.446   0.865   6.197
  147POPC   NC3 2306   1.899   1.294   8.098
  147POPC   PO4 2307   2.341   1.721   8.099
  147POPC   GL1 2308   2.273   1.414   7.717
  147POPC   GL2 2309   2.031   1.117   7.652
  147POPC   C1A 2310   2.358   1.480   7.261
  147POPC   D2A 2311   2.396   1.261   6.841
  147POPC   C3A 2312   2.219   1.591   6.542
  147POPC   C4A 2313   1.987   1.509   6.133
  147POPC   C1B 2314   2.051   1.085   7.216
  147POPC   C2B 2315   1.893   1.336   6.877
  147POPC   C3B 2316   1.884   1.166   6.478
  147POPC   C4B 2317   1.600   1.157   6.136
  148POPC   NC3 2318  11.432  11.270   8.344
  148POPC   PO4 2319  11.250  10.853   7.849
  148POPC   GL1 2320  11.219  11.032   7.448
  148POPC   GL2 2321  10.999  11.281   7.664
  148POPC   C1A 2322  11.370  11.398   7.186
  148POPC   D2A 2323  11.447   0.045   6.777
  148POPC   C3A 2324  11.352  11.319   6.398
  148POPC   C4A 2325   0.060  11.281   6.006
  148POPC   C1B 2326  10.852  11.325   7.293
  148POPC   C2B 2327  10.987  11.170   6.951
  148POPC   C3B 2328  10.884  11.301   6.597
  148POPC   C4B 2329  10.882  11.168   6.208
  149POPC   NC3 2330   5.200   8.822   8.087
  149POPC   PO4 2331   4.649   8.429   8.090
  149POPC   GL1 2332   4.847   8.657   7.709
  149POPC   GL2 2333   4.878   9.030   7.727
  149POPC   C1A 2334   5.056   8.792   7.303
  149POPC   D2A 2335   4.919   8.941   6.899
  149POPC   C3A 2336   4.998   8.785   6.505
  149POPC   C4A 2337   4.687   8.464   6.383
  149POPC   C1B 2338   4.863   9.272   7.328
  149POPC   C2B 2339   4.746   9.412   6.916
  149POPC   C3B 2340   4.846   9.392   6.476
  149POPC   C4B 2341   5.106   9.500   6.099
  150POPC   NC3 2342   4.377   9.527   8.074
  150POPC   PO4 2343   4.491  10.111   8.049
  150POPC   GL1 2344   4.178   9.900   7.730
  150POPC   GL2 2345   4.086   9.523   7.661
  150POPC   C1A 2346   4.236   9.890   7.258
  150POPC   D2A 2347   4.556   9.879   6.902
  150POPC   C3A 2348   4.334   9.817   6.487
  150POPC   C4A 2349   4.067  10.074   6.216
  150POPC   C1B 2350   4.336   9.365   7.302
  150POPC   C2B 2351   4.222   9.484   6.877
  150POPC   C3B 2352   4.177   9.331   6.453
  150POPC   C4B 2353   4.135   9.524   6.050
  151POPC   NC3 2354   9.009   1.988   8.099
  151POPC   PO4 2355   9.303   1.480   7.781
  151POPC   GL1 2356   8.984   1.684   7.636
  151POPC   GL2 2357   8.946   2.055   7.604
  151POPC   C1A 2358   8.973   1.656   7.220
  151POPC   D2A 2359   8.769   1.754   6.873
  151POPC   C3A 2360   9.020   1.718   6.551
  151POPC   C4A 2361   8.827   1.767   6.179
  151POPC   C1B 2362   8.866   2.160   7.180
  151POPC   C2B 2363   9.112   2.166   6.789
  151POPC   C3B 2364   9.075   2.203   6.336
  151POPC   C4B 2365   8.665   2.299   6.128
  152POPC   NC3 2366  10.597  11.260   8.011
  152POPC   PO4 2367  10.268  10.740   8.001
  152POPC   GL1 2368  10.387  11.003   7.625
  152POPC   GL2 2369  10.406  11.368   7.576
  152POPC   C1A 2370  10.430  11.065   7.187
  152POPC   D2A 2371  10.570  10.908   6.854
  152POPC   C3A 2372  10.419  11.125   6.567
  152POPC   C4A 2373  10.414  10.954   6.207
  152POPC   C1B 2374  10.097   0.114   7.406
  152POPC   C2B 2375  10.029   0.202   7.007
  152POPC   C3B 2376  10.081   0.083   6.585
  152POPC   C4B 2377  10.231  11.421   6.195
  153POPC   NC3 2378   2.011   9.525   8.174
  153POPC   PO4 2379   2.324   8.982   8.087
  153POPC   GL1 2380   2.100   9.252   7.721
  153POPC   GL2 2381   1.924   9.596   7.691
  153POPC   C1A 2382   1.858   9.259   7.310
  153POPC   D2A 2383   1.989   9.323   6.888
  153POPC   C3A 2384   1.855   9.236   6.455
  153POPC   C4A 2385   2.195   9.334   6.176
  153POPC   C1B 2386   1.821   9.778   7.311
  153POPC   C2B 2387   2.078   9.854   6.958
  153POPC   C3B 2388   2.142   9.689   6.562
  153POPC   C4B 2389   1.917   9.753   6.200
  154POPC   NC3 2390   6.055  11.261   7.923
  154POPC   PO4 2391   6.187  10.643   7.934
  154POPC   GL1 2392   6.383  10.904   7.587
  154POPC   GL2 2393   6.509  11.265   7.596
  154POPC   C1A 2394   6.413  11.037   7.164
  154POPC   D2A 2395   6.661  11.058   6.795
  154POPC   C3A 2396   6.307  10.887   6.630
  154POPC   C4A 2397   6.168  10.854   6.220
  154POPC   C1B 2398   6.840  11.305   7.237
  154POPC   C2B 2399   6.915   0.031   6.854
  154POPC   C3B 2400   6.723   0.048   6.454
  154POPC   C4B 2401   6.458  11.263   6.271
  155POPC   NC3 2402   8.299   8.809   8.151
  155POPC   PO4 2403   8.968   8.816   8.181
  155POPC   GL1 2404   8.799   8.930   7.783
  155POPC   GL2 2405   8.605   8.647   7.703
  155POPC   C1A 2406   8.717   9.033   7.339
  155POPC   D2A 2407   8.582   8.805   6.953
  155POPC   C3A 2408   8.470   9.078   6.646
  155POPC   C4A 2409   8.696   9.238   6.309
  155POPC   C1B 2410   9.000   8.610   7.416
  155POPC   C2B 2411   9.063   8.641   6.950
  155POPC   C3B 2412   8.939   8.873   6.578
  155POPC   C4B 2413   8.808   8.760   6.146
  156POPC   NC3 2414   4.121   1.357   7.933
  156POPC   PO4 2415   4.644   1.001   7.971
  156POPC   GL1 2416   4.492   1.200   7.621
  156POPC   GL2 2417   4.428   0.884   7.465
  156POPC   C1A 2418   4.353   1.354   7.231
  156POPC   D2A 2419   4.362   1.095   6.884
  156POPC   C3A 2420   4.390   1.336   6.559
  156POPC   C4A 2421   4.442   1.354   6.177
  156POPC   C1B 2422   4.043   0.939   7.255
  156POPC   C2B 2423   3.855   1.010   6.862
  156POPC   C3B 2424   4.058   0.948   6.471
  156POPC   C4B 2425   4.041   1.069   6.047
  157POPC   NC3 2426   0.853   8.168   3.977
  157POPC   PO4 2427   1.411   7.769   3.931
  157POPC   GL1 2428   1.398   7.962   4.308
  157POPC   GL2 2429   1.275   8.279   4.250
  157POPC   C1A 2430   1.296   7.837   4.708
  157POPC   D2A 2431   1.213   7.562   5.043
  157POPC   C3A 2432   1.287   7.844   5.377
  157POPC   C4A 2433   1.348   7.759   5.787
  157POPC   C1B 2434   1.004   8.274   4.624
  157POPC   C2B 2435   0.965   8.083   5.021
  157POPC   C3B 2436   0.869   8.138   5.440
  157POPC   C4B 2437   1.093   8.199   5.784
  158POPC   NC3 2438   3.566   1.799   4.120
  158POPC   PO4 2439   4.079   2.258   3.880
  158POPC   GL1 2440   3.819   2.195   4.359
  158POPC   GL2 2441   3.485   2.050   4.549
  158POPC   C1A 2442   3.857   2.244   4.798
  158POPC   D2A 2443   3.534   2.031   5.072
  158POPC   C3A 2444   3.550   2.187   5.481
  158POPC   C4A 2445   3.468   2.195   5.904
  158POPC   C1B 2446   3.458   1.624   4.743
  158POPC   C2B 2447   3.588   1.424   5.131
  158POPC   C3B 2448   3.715   1.661   5.468
  158POPC   C4B 2449   3.345   1.748   5.719
  159POPC   NC3 2450   0.740   5.657   3.957
  159POPC   PO4 2451   0.911   6.275   3.927
  159POPC   GL1 2452   0.607   6.137   4.243
  159POPC   GL2 2453   0.380   5.869   4.233
  159POPC   C1A 2454   0.638   5.966   4.672
  159POPC   D2A 2455   0.774   5.838   5.096
  159POPC   C3A 2456   0.503   5.796   5.451
  159POPC   C4A 2457   0.612   5.553   5.794
  159POPC   C1B 2458   0.333   5.576   4.627
  159POPC   C2B 2459   0.179   5.726   5.047
  159POPC   C3B 2460   0.028   5.566   5.469
  159POPC   C4B 2461  11.463   5.739   5.904
  160POPC   NC3 2462   1.993   4.579   4.105
  160POPC   PO4 2463   1.663   4.181   3.776
  160POPC   GL1 2464   1.592   4.060   4.233
  160POPC   GL2 2465   1.906   4.033   4.440
  160POPC   C1A 2466   1.487   4.278   4.631
  160POPC   D2A 2467   1.767   4.443   4.919
  160POPC   C3A 2468   1.671   4.328   5.341
  160POPC   C4A 2469   1.751   4.456   5.753
  160POPC   C1B 2470   2.183   3.758   4.746
  160POPC   C2B 2471   2.265   3.801   5.210
  160POPC   C3B 2472   2.144   4.110   5.561
  160POPC   C4B 2473   2.270   4.515   5.818
  161POPC   NC3 2474   0.477   1.490   4.190
  161POPC   PO4 2475   0.433   0.994   3.742
  161POPC   GL1 2476   0.395   0.978   4.257
  161POPC   GL2 2477   0.537   1.156   4.562
  161POPC   C1A 2478   0.133   0.896   4.691
  161POPC   D2A 2479   0.249   1.182   5.036
  161POPC   C3A 2480   0.404   1.055   5.431
  161POPC   C4A 2481   0.236   1.102   5.854
  161POPC   C1B 2482   0.615   1.522   4.845
  161POPC   C2B 2483   0.576   1.527   5.285
  161POPC   C3B 2484   0.585   1.438   5.697
  161POPC   C4B 2485   0.731   0.986   5.853
  162POPC   NC3 2486   2.278   1.526   4.113
  162POPC   PO4 2487   2.516   0.877   3.926
  162POPC   GL1 2488   2.391   1.054   4.334
  162POPC   GL2 2489   2.031   1.110   4.342
  162POPC   C1A 2490   2.319   0.902   4.770
  162POPC   D2A 2491   2.040   0.922   5.157
  162POPC   C3A 2492   2.239   1.002   5.541
  162POPC   C4A 2493   2.063   1.000   5.990
  162POPC   C1B 2494   1.931   1.266   4.762
  162POPC   C2B 2495   1.847   1.384   5.204
  162POPC   C3B 2496   1.865   1.342   5.638
  162POPC   C4B 2497   1.571   1.589   5.811
  163POPC   NC3 2498   1.238   3.248   4.039
  163POPC   PO4 2499   0.799   3.679   3.751
  163POPC   GL1 2500   0.854   3.502   4.296
  163POPC   GL2 2501   1.181   3.458   4.486
  163POPC   C1A 2502   0.839   3.388   4.805
  163POPC   D2A 2503   0.988   3.560   5.231
  163POPC   C3A 2504   0.916   3.458   5.691
  163POPC   C4A 2505   0.847   3.228   6.100
  163POPC   C1B 2506   1.475   3.276   4.715
  163POPC   C2B 2507   1.500   3.452   5.079
  163POPC   C3B 2508   1.497   3.368   5.471
  163POPC   C4B 2509   1.370   3.699   5.694
  164POPC   NC3 2510   9.625   7.523   3.844
  164POPC   PO4 2511   9.806   6.994   4.006
  164POPC   GL1 2512   9.716   7.274   4.332
  164POPC   GL2 2513   9.958   7.504   4.376
  164POPC   C1A 2514   9.601   7.296   4.781
  164POPC   D2A 2515   9.336   7.513   5.119
  164POPC   C3A 2516   9.394   7.331   5.545
  164POPC   C4A 2517   9.506   7.354   5.969
  164POPC   C1B 2518  10.146   7.389   4.772
  164POPC   C2B 2519  10.078   7.062   5.086
  164POPC   C3B 2520   9.857   7.080   5.472
  164POPC   C4B 2521   9.931   7.466   5.703
  165POPC   NC3 2522  11.200   3.080   3.997
  165POPC   PO4 2523  10.877   2.423   3.962
  165POPC   GL1 2524  10.985   2.533   4.360
  165POPC   GL2 2525  11.310   2.708   4.360
  165POPC   C1A 2526  11.146   2.431   4.764
  165POPC   D2A 2527  10.907   2.563   5.095
  165POPC   C3A 2528  11.119   2.445   5.430
  165POPC   C4A 2529  11.240   2.629   5.810
  165POPC   C1B 2530  11.482   2.833   4.787
  165POPC   C2B 2531  11.297   2.898   5.188
  165POPC   C3B 2532  11.288   3.085   5.565
  165POPC   C4B 2533   0.029   3.040   5.927
  166POPC   NC3 2534  11.144   8.762   3.728
  166POPC   PO4 2535  10.947   9.087   4.326
  166POPC   GL1 2536  11.027   8.693   4.480
  166POPC   GL2 2537  11.240   8.622   4.223
  166POPC   C1A 2538  11.165   8.671   4.901
  166POPC   D2A 2539  11.263   9.029   5.135
  166POPC   C3A 2540  10.968   8.989   5.435
  166POPC   C4A 2541  10.889   8.797   5.812
  166POPC   C1B 2542  11.428   8.378   4.580
  166POPC   C2B 2543   0.008   8.328   5.059
  166POPC   C3B 2544  11.496   8.652   5.415
  166POPC   C4B 2545  11.377   8.698   5.853
  167POPC   NC3 2546   8.821   5.428   3.929
  167POPC   PO4 2547   8.531   5.981   3.947
  167POPC   GL1 2548   8.683   5.727   4.322
  167POPC   GL2 2549   9.045   5.633   4.346
  167POPC   C1A 2550   8.757   5.680   4.777
  167POPC   D2A 2551   8.691   5.418   5.146
  167POPC   C3A 2552   8.726   5.548   5.595
  167POPC   C4A 2553   8.468   5.722   5.956
  167POPC   C1B 2554   9.269   5.819   4.719
  167POPC   C2B 2555   9.113   5.762   5.166
  167POPC   C3B 2556   9.193   5.762   5.619
  167POPC   C4B 2557   8.970   5.768   6.031
  168POPC   NC3 2558   8.352   3.538   4.028
  168POPC   PO4 2559   8.039   3.950   4.210
  168POPC   GL1 2560   8.143   3.589   4.507
  168POPC   GL2 2561   8.453   3.372   4.498
  168POPC   C1A 2562   8.235   3.469   4.946
  168POPC   D2A 2563   8.539   3.550   5.278
  168POPC   C3A 2564   8.335   3.673   5.689
  168POPC   C4A 2565   7.933   3.669   5.935
  168POPC   C1B 2566   8.488   3.031   4.811
  168POPC   C2B 2567   8.381   3.046   5.262
  168POPC   C3B 2568   8.239   3.109   5.696
  168POPC   C4B 2569   8.155   2.853   6.076
  169POPC   NC3 2570   8.986   9.059   4.097
  169POPC   PO4 2571   8.440   9.170   3.704
  169POPC   GL1 2572   8.534   8.852   4.191
  169POPC   GL2 2573   8.785   8.635   4.306
  169POPC   C1A 2574   8.595   8.906   4.696
  169POPC   D2A 2575   8.706   8.664   5.090
  169POPC   C3A 2576   8.634   8.760   5.529
  169POPC   C4A 2577   8.676   9.110   5.778
  169POPC   C1B 2578   9.055   8.688   4.697
  169POPC   C2B 2579   9.207   8.610   5.128
  169POPC   C3B 2580   9.137   8.825   5.523
  169POPC   C4B 2581   9.253   8.669   5.916
  170POPC   NC3 2582  10.519   1.357   3.888
  170POPC   PO4 2583  10.056   0.797   3.943
  170POPC   GL1 2584  10.080   1.223   4.138
  170POPC   GL2 2585  10.362   1.119   4.321
  170POPC   C1A 2586  10.056   1.495   4.525
  170POPC   D2A 2587  10.189   1.379   4.929
  170POPC   C3A 2588  10.120   1.509   5.347
  170POPC   C4A 2589  10.020   1.420   5.771
  170POPC   C1B 2590  10.594   1.172   4.702
  170POPC   C2B 2591  10.528   1.093   5.161
  170POPC   C3B 2592  10.465   1.224   5.589
  170POPC   C4B 2593  10.710   1.213   5.923
  171POPC   NC3 2594   8.207   8.765   3.829
  171POPC   PO4 2595   8.510   9.342   4.186
  171POPC   GL1 2596   8.192   9.149   4.422
  171POPC   GL2 2597   8.033   8.895   4.272
  171POPC   C1A 2598   8.147   9.102   4.832
  171POPC   D2A 2599   8.292   8.954   5.208
  171POPC   C3A 2600   8.190   9.112   5.591
  171POPC   C4A 2601   8.276   9.267   6.026
  171POPC   C1B 2602   8.187   8.628   4.612
  171POPC   C2B 2603   8.225   8.491   5.028
  171POPC   C3B 2604   8.224   8.461   5.490
  171POPC   C4B 2605   7.954   8.454   5.860
  172POPC   NC3 2606   6.566   0.386   3.696
  172POPC   PO4 2607   7.099   0.609   3.910
  172POPC   GL1 2608   6.926   0.298   4.195
  172POPC   GL2 2609   6.569   0.309   4.198
  172POPC   C1A 2610   6.850   0.244   4.650
  172POPC   D2A 2611   6.879   0.418   5.090
  172POPC   C3A 2612   6.760   0.319   5.533
  172POPC   C4A 2613   6.866   0.325   6.000
  172POPC   C1B 2614   6.341   0.415   4.578
  172POPC   C2B 2615   6.347   0.517   5.025
  172POPC   C3B 2616   6.267   0.415   5.467
  172POPC   C4B 2617   6.264   0.616   5.850
  173POPC   NC3 2618   3.388   8.258   3.520
  173POPC   PO4 2619   2.947   8.074   3.931
  173POPC   GL1 2620   3.029   8.287   4.356
  173POPC   GL2 2621   3.404   8.248   4.384
  173POPC   C1A 2622   3.161   8.351   4.823
  173POPC   D2A 2623   3.355   8.141   5.228
  173POPC   C3A 2624   3.403   8.273   5.687
  173POPC   C4A 2625   3.561   8.412   6.099
  173POPC   C1B 2626   3.457   7.935   4.735
  173POPC   C2B 2627   3.692   7.760   5.106
  173POPC   C3B 2628   3.710   7.848   5.558
  173POPC   C4B 2629   3.949   8.117   5.835
  174POPC   NC3 2630   9.492   9.781   3.892
  174POPC   PO4 2631  10.046   9.368   3.996
  174POPC   GL1 2632   9.762   9.539   4.284
  174POPC   GL2 2633   9.585   9.271   4.413
  174POPC   C1A 2634   9.822   9.833   4.641
  174POPC   D2A 2635   9.820  10.041   5.050
  174POPC   C3A 2636   9.590   9.951   5.422
  174POPC   C4A 2637   9.789  10.000   5.798
  174POPC   C1B 2638   9.606   9.411   4.842
  174POPC   C2B 2639   9.888   9.508   5.200
  174POPC   C3B 2640   9.866   9.507   5.655
  174POPC   C4B 2641   9.444   9.586   5.795
  175POPC   NC3 2642   9.089   0.278   3.966
  175POPC   PO4 2643   8.562   0.659   3.754
  175POPC   GL1 2644   8.837   0.538   4.281
  175POPC   GL2 2645   8.779   0.238   4.376
  175POPC   C1A 2646   8.854   0.691   4.734
  175POPC   D2A 2647   8.655   0.766   5.147
  175POPC   C3A 2648   8.893   0.634   5.508
  175POPC   C4A 2649   9.353   0.681   5.675
  175POPC   C1B 2650   8.781   0.052   4.761
  175POPC   C2B 2651   8.841   0.241   5.138
  175POPC   C3B 2652   8.632   0.159   5.502
  175POPC   C4B 2653   8.482   0.320   5.851
  176POPC   NC3 2654   8.116   9.428   3.904
  176POPC   PO4 2655   7.728   8.888   3.848
  176POPC   GL1 2656   7.732   9.294   4.196
  176POPC   GL2 2657   8.010   9.608   4.342
  176POPC   C1A 2658   7.740   9.353   4.658
  176POPC   D2A 2659   7.742   9.288   5.075
  176POPC   C3A 2660   7.762   9.632   5.353
  176POPC   C4A 2661   7.974   9.558   5.728
  176POPC   C1B 2662   8.161   9.648   4.770
  176POPC   C2B 2663   8.229   9.467   5.181
  176POPC   C3B 2664   8.473   9.533   5.525
  176POPC   C4B 2665   8.368   9.906   5.750
  177POPC   NC3 2666   2.927   0.305   4.063
  177POPC   PO4 2667   2.388   0.086   3.845
  177POPC   GL1 2668   2.477   0.249   4.274
  177POPC   GL2 2669   2.627   0.599   4.342
  177POPC   C1A 2670   2.398   0.341   4.709
  177POPC   D2A 2671   2.211   0.461   5.066
  177POPC   C3A 2672   2.495   0.492   5.404
  177POPC   C4A 2673   2.516   0.271   5.802
  177POPC   C1B 2674   2.815   0.685   4.771
  177POPC   C2B 2675   2.970   0.637   5.217
  177POPC   C3B 2676   2.892   0.754   5.664
  177POPC   C4B 2677   3.012   0.719   6.111
  178POPC   NC3 2678   2.094  11.239   3.955
  178POPC   PO4 2679   1.541  10.969   3.648
  178POPC   GL1 2680   1.615  11.127   4.160
  178POPC   GL2 2681   1.878  10.983   4.369
  178POPC   C1A 2682   1.601  11.307   4.624
  178POPC   D2A 2683   1.886  11.160   4.988
  178POPC   C3A 2684   1.764  11.249   5.436
  178POPC   C4A 2685   1.828  11.087   5.863
  178POPC   C1B 2686   2.195  11.306   4.570
  178POPC   C2B 2687   2.364  11.387   4.961
  178POPC   C3B 2688   2.387  11.106   5.285
  178POPC   C4B 2689   2.343  11.162   5.733
  179POPC   NC3 2690  10.687   8.771   4.105
  179POPC   PO4 2691  10.077   8.505   3.977
  179POPC   GL1 2692  10.146   8.890   4.235
  179POPC   GL2 2693  10.356   8.785   4.482
  179POPC   C1A 2694   9.977   9.053   4.652
  179POPC   D2A 2695  10.175   8.867   5.028
  179POPC   C3A 2696  10.038   8.904   5.463
  179POPC   C4A 2697  10.115   8.489   5.684
  179POPC   C1B 2698  10.644   8.808   4.800
  179POPC   C2B 2699  10.702   8.672   5.137
  179POPC   C3B 2700  10.520   8.718   5.492
  179POPC   C4B 2701  10.437   9.047   5.752
  180POPC   NC3 2702   2.367  10.279   4.012
  180POPC   PO4 2703   3.029   9.963   3.912
  180POPC   GL1 2704   2.822  10.123   4.268
  180POPC   GL2 2705   2.711  10.443   4.338
  180POPC   C1A 2706   2.740  10.028   4.702
  180POPC   D2A 2707   3.013  10.136   5.066
  180POPC   C3A 2708   2.849  10.152   5.483
  180POPC   C4A 2709   2.447  10.162   5.728
  180POPC   C1B 2710   2.887  10.500   4.709
  180POPC   C2B 2711   2.579  10.428   5.040
  180POPC   C3B 2712   2.492  10.589   5.432
  180POPC   C4B 2713   2.786  10.572   5.786
  181POPC   NC3 2714  11.312   4.256   4.019
  181POPC   PO4 2715  11.282   4.908   3.793
  181POPC   GL1 2716  11.254   4.730   4.259
  181POPC   GL2 2717  11.028   4.451   4.376
  181POPC   C1A 2718  11.408   4.621   4.681
  181POPC   D2A 2719  11.172   4.442   5.037
  181POPC   C3A 2720  11.351   4.489   5.438
  181POPC   C4A 2721  11.090   4.505   5.768
  181POPC   C1B 2722  11.223   4.138   4.644
  181POPC   C2B 2723  11.364   3.945   5.046
  181POPC   C3B 2724  11.213   3.991   5.457
  181POPC   C4B 2725  11.344   4.035   5.862
  182POPC   NC3 2726   2.738  11.081   3.544
  182POPC   PO4 2727   2.980  10.523   3.914
  182POPC   GL1 2728   2.854  10.918   4.245
  182POPC   GL2 2729   2.661  11.252   4.186
  182POPC   C1A 2730   2.771  10.995   4.694
  182POPC   D2A 2731   2.879  10.824   5.115
  182POPC   C3A 2732   2.840  10.995   5.512
  182POPC   C4A 2733   3.091  10.961   5.921
  182POPC   C1B 2734   2.736  11.480   4.595
  182POPC   C2B 2735   2.806   0.172   5.003
  182POPC   C3B 2736   2.704  11.497   5.414
  182POPC   C4B 2737   2.800  11.358   5.847
  183POPC   NC3 2738   9.042   8.231   3.962
  183POPC   PO4 2739   8.454   8.374   3.939
  183POPC   GL1 2740   8.672   8.151   4.327
  183POPC   GL2 2741   9.009   7.971   4.389
  183POPC   C1A 2742   8.789   8.259   4.772
  183POPC   D2A 2743   8.585   8.166   5.177
  183POPC   C3A 2744   8.722   8.248   5.590
  183POPC   C4A 2745   8.550   8.320   6.009
  183POPC   C1B 2746   9.174   7.912   4.810
  183POPC   C2B 2747   9.035   7.918   5.248
  183POPC   C3B 2748   9.087   7.781   5.670
  183POPC   C4B 2749   8.738   7.801   5.981
  184POPC   NC3 2750   1.165  10.280   3.922
  184POPC   PO4 2751   1.682  10.613   4.030
  184POPC   GL1 2752   1.500  10.318   4.311
  184POPC   GL2 2753   1.245  10.570   4.315
  184POPC   C1A 2754   1.583  10.118   4.724
  184POPC   D2A 2755   1.639  10.317   5.142
  184POPC   C3A 2756   1.540  10.071   5.502
  184POPC   C4A 2757   1.536   9.907   5.908
  184POPC   C1B 2758   1.133  10.363   4.667
  184POPC   C2B 2759   1.133  10.543   5.047
  184POPC   C3B 2760   1.214  10.458   5.428
  184POPC   C4B 2761   1.061  10.603   5.773
  185POPC   NC3 2762   4.430   8.818   3.651
  185POPC   PO4 2763   4.213   9.235   4.000
  185POPC   GL1 2764   4.209   9.154   4.427
  185POPC   GL2 2765   4.272   8.796   4.472
  185POPC   C1A 2766   4.045   9.199   4.847
  185POPC   D2A 2767   4.194   9.390   5.237
  185POPC   C3A 2768   4.047   9.224   5.641
  185POPC   C4A 2769   4.154   9.005   6.050
  185POPC   C1B 2770   4.504   8.968   4.828
  185POPC   C2B 2771   4.558   8.973   5.238
  185POPC   C3B 2772   4.470   8.943   5.636
  185POPC   C4B 2773   4.518   8.643   5.947
  186POPC   NC3 2774  11.170   9.379   4.050
  186POPC   PO4 2775  10.731  10.001   3.983
  186POPC   GL1 2776  10.927   9.974   4.408
  186POPC   GL2 2777  11.181   9.727   4.419
  186POPC   C1A 2778  10.871   9.738   4.825
  186POPC   D2A 2779  10.871   9.564   5.248
  186POPC   C3A 2780  11.061   9.854   5.556
  186POPC   C4A 2781  11.456   9.932   5.706
  186POPC   C1B 2782  11.325   9.463   4.775
  186POPC   C2B 2783  11.432   9.561   5.201
  186POPC   C3B 2784  11.257   9.394   5.543
  186POPC   C4B 2785  10.872   9.347   5.773
  187POPC   NC3 2786   2.380   5.990   3.722
  187POPC   PO4 2787   3.059   6.163   3.858
  187POPC   GL1 2788   2.743   6.061   4.169
  187POPC   GL2 2789   2.527   5.749   4.161
  187POPC   C1A 2790   2.896   5.942   4.592
  187POPC   D2A 2791   3.151   6.051   4.970
  187POPC   C3A 2792   2.966   5.934   5.403
  187POPC   C4A 2793   2.774   5.986   5.827
  187POPC   C1B 2794   2.407   5.794   4.601
  187POPC   C2B 2795   2.307   5.863   5.059
  187POPC   C3B 2796   2.454   5.774   5.471
  187POPC   C4B 2797   2.565   5.520   5.841
  188POPC   NC3 2798  11.408   8.015   3.994
  188POPC   PO4 2799  10.720   8.255   3.854
  188POPC   GL1 2800  10.953   8.208   4.240
  188POPC   GL2 2801  11.047   7.887   4.353
  188POPC   C1A 2802  10.933   8.236   4.698
  188POPC   D2A 2803  10.793   8.168   5.101
  188POPC   C3A 2804  11.041   8.409   5.386
  188POPC   C4A 2805  11.069   8.311   5.787
  188POPC   C1B 2806  11.355   7.897   4.686
  188POPC   C2B 2807  11.215   7.875   5.078
  188POPC   C3B 2808  11.338   7.993   5.460
  188POPC   C4B 2809  11.340   7.882   5.884
  189POPC   NC3 2810   1.705   9.777   4.070
  189POPC   PO4 2811   1.097   9.846   3.767
  189POPC   GL1 2812   1.197   9.858   4.221
  189POPC   GL2 2813   1.290   9.544   4.277
  189POPC   C1A 2814   1.107   9.845   4.673
  189POPC   D2A 2815   1.211  10.014   5.076
  189POPC   C3A 2816   0.937   9.939   5.405
  189POPC   C4A 2817   1.077  10.090   5.774
  189POPC   C1B 2818   1.542   9.558   4.667
  189POPC   C2B 2819   1.421   9.460   5.083
  189POPC   C3B 2820   1.442   9.576   5.496
  189POPC   C4B 2821   1.121   9.584   5.794
  190POPC   NC3 2822   1.265   7.314   3.897
  190POPC   PO4 2823   1.561   6.804   3.715
  190POPC   GL1 2824   1.494   6.940   4.164
  190POPC   GL2 2825   1.167   6.851   4.299
  190POPC   C1A 2826   1.499   7.050   4.639
  190POPC   D2A 2827   1.652   7.170   5.067
  190POPC   C3A 2828   1.443   7.332   5.466
  190POPC   C4A 2829   1.667   7.372   5.871
  190POPC   C1B 2830   0.985   6.984   4.721
  190POPC   C2B 2831   0.838   7.062   5.162
  190POPC   C3B 2832   0.917   6.992   5.609
  190POPC   C4B 2833   1.124   7.217   5.941
  191POPC   NC3 2834   9.813   5.546   3.880
  191POPC   PO4 2835   9.259   5.284   3.987
  191POPC   GL1 2836   9.524   5.447   4.385
  191POPC   GL2 2837   9.778   5.722   4.399
  191POPC   C1A 2838   9.649   5.477   4.856
  191POPC   D2A 2839   9.606   5.689   5.280
  191POPC   C3A 2840   9.618   5.470   5.686
  191POPC   C4A 2841   9.394   5.434   6.099
  191POPC   C1B 2842   9.852   5.949   4.815
  191POPC   C2B 2843   9.884   6.119   5.233
  191POPC   C3B 2844   9.686   6.092   5.624
  191POPC   C4B 2845   9.608   6.396   5.949
  192POPC   NC3 2846   2.799   2.215   3.894
  192POPC   PO4 2847   3.414   2.232   4.081
  192POPC   GL1 2848   3.086   1.908   4.267
  192POPC   GL2 2849   2.776   2.067   4.369
  192POPC   C1A 2850   2.982   1.750   4.680
  192POPC   D2A 2851   2.926   2.091   4.930
  192POPC   C3A 2852   3.062   1.975   5.313
  192POPC   C4A 2853   3.027   2.185   5.656
  192POPC   C1B 2854   2.504   1.926   4.695
  192POPC   C2B 2855   2.535   1.828   5.105
  192POPC   C3B 2856   2.571   1.975   5.514
  192POPC   C4B 2857   2.831   1.685   5.728
  193POPC   NC3 2858   1.917   2.362   3.744
  193POPC   PO4 2859   1.832   1.650   4.053
  193POPC   GL1 2860   1.901   2.093   4.227
  193POPC   GL2 2861   2.253   2.085   4.294
  193POPC   C1A 2862   1.997   2.321   4.673
  193POPC   D2A 2863   2.276   2.289   5.036
  193POPC   C3A 2864   2.156   2.293   5.449
  193POPC   C4A 2865   1.818   2.274   5.753
  193POPC   C1B 2866   2.022   1.813   4.657
  193POPC   C2B 2867   2.028   1.847   5.099
  193POPC   C3B 2868   1.918   1.840   5.521
  193POPC   C4B 2869   2.197   1.892   5.876
  194POPC   NC3 2870   8.203   1.905   3.877
  194POPC   PO4 2871   7.691   2.349   3.853
  194POPC   GL1 2872   7.948   2.211   4.223
  194POPC   GL2 2873   8.068   1.879   4.354
  194POPC   C1A 2874   8.127   2.294   4.638
  194POPC   D2A 2875   7.905   2.336   5.007
  194POPC   C3A 2876   7.989   2.264   5.443
  194POPC   C4A 2877   8.246   2.369   5.822
  194POPC   C1B 2878   8.131   1.793   4.811
  194POPC   C2B 2879   8.108   1.521   5.166
  194POPC   C3B 2880   7.851   1.648   5.502
  194POPC   C4B 2881   7.966   1.923   5.824
  195POPC   NC3 2882   0.873   1.079   3.617
  195POPC   PO4 2883   0.878   1.660   4.033
  195POPC   GL1 2884   0.940   1.270   4.253
  195POPC   GL2 2885   1.285   1.244   4.272
  195POPC   C1A 2886   1.019   1.233   4.710
  195POPC   D2A 2887   1.074   1.491   5.089
  195POPC   C3A 2888   0.996   1.256   5.459
  195POPC   C4A 2889   1.197   1.198   5.845
  195POPC   C1B 2890   1.481   1.029   4.571
  195POPC   C2B 2891   1.454   1.111   4.987
  195POPC   C3B 2892   1.468   1.064   5.405
  195POPC   C4B 2893   1.660   0.881   5.714
  196POPC   NC3 2894  11.013  10.357   4.076
  196POPC   PO4 2895  10.901  10.918   3.814
  196POPC   GL1 2896  10.953  10.826   4.248
  196POPC   GL2 2897  11.344  10.722   4.260
  196POPC   C1A 2898  10.841  10.653   4.668
  196POPC   D2A 2899  10.835  10.820   5.093
  196POPC   C3A 2900  10.867  10.663   5.527
  196POPC   C4A 2901  10.835  10.670   6.040
  196POPC   C1B 2902  11.328  10.481   4.640
  196POPC   C2B 2903  11.084  10.326   4.980
  196POPC   C3B 2904  11.216  10.303   5.377
  196POPC   C4B 2905  11.256  10.458   5.763
  197POPC   NC3 2906   7.253   1.017   4.056
  197POPC   PO4 2907   7.808   1.481   3.885
  197POPC   GL1 2908   7.679   1.234   4.245
  197POPC   GL2 2909   7.404   1.393   4.415
  197POPC   C1A 2910   7.569   0.985   4.648
  197POPC   D2A 2911   7.204   1.060   4.925
  197POPC   C3A 2912   7.286   1.019   5.370
  197POPC   C4A 2913   7.418   0.995   5.793
  197POPC   C1B 2914   7.354   1.548   4.853
  197POPC   C2B 2915   7.225   1.537   5.294
  197POPC   C3B 2916   6.923   1.324   5.578
  197POPC   C4B 2917   6.994   1.203   6.008
  198POPC   NC3 2918   9.728   9.021   3.970
  198POPC   PO4 2919   9.219   8.649   4.054
  198POPC   GL1 2920   9.431   8.791   4.356
  198POPC   GL2 2921   9.727   8.643   4.343
  198POPC   C1A 2922   9.511   8.885   4.782
  198POPC   D2A 2923   9.277   9.108   5.095
  198POPC   C3A 2924   9.543   9.168   5.411
  198POPC   C4A 2925   9.559   9.083   5.808
  198POPC   C1B 2926   9.930   8.529   4.721
  198POPC   C2B 2927   9.762   8.580   5.144
  198POPC   C3B 2928   9.616   8.647   5.559
  198POPC   C4B 2929   9.781   8.688   6.016
  199POPC   NC3 2930   8.843  10.582   4.068
  199POPC   PO4 2931   9.046   9.934   3.925
  199POPC   GL1 2932   9.085  10.187   4.289
  199POPC   GL2 2933   8.723  10.212   4.388
  199POPC   C1A 2934   9.060  10.370   4.725
  199POPC   D2A 2935   8.926  10.172   5.117
  199POPC   C3A 2936   9.061  10.378   5.495
  199POPC   C4A 2937   9.065  10.625   5.902
  199POPC   C1B 2938   8.552  10.020   4.746
  199POPC   C2B 2939   8.461   9.931   5.172
  199POPC   C3B 2940   8.529  10.265   5.442
  199POPC   C4B 2941   8.722  10.276   5.848
  200POPC   NC3 2942   1.513   8.904   3.852
  200POPC   PO4 2943   0.926   8.634   3.967
  200POPC   GL1 2944   1.189   8.767   4.340
  200POPC   GL2 2945   1.096   9.081   4.386
  200POPC   C1A 2946   1.319   8.644   4.797
  200POPC   D2A 2947   1.298   8.441   5.237
  200POPC   C3A 2948   1.072   8.655   5.583
  200POPC   C4A 2949   1.270   8.620   6.012
  200POPC   C1B 2950   1.105   9.126   4.841
  200POPC   C2B 2951   1.326   8.976   5.234
  200POPC   C3B 2952   1.313   9.105   5.666
  200POPC   C4B 2953   0.907   9.114   5.812
  201POPC   NC3 2954   9.730   4.093   3.861
  201POPC   PO4 2955   9.794   3.448   3.935
  201POPC   GL1 2956   9.779   3.673   4.321
  201POPC   GL2 2957   9.440   3.797   4.398
  201POPC   C1A 2958   9.755   3.768   4.790
  201POPC   D2A 2959   9.532   3.862   5.179
  201POPC   C3A 2960   9.761   3.984   5.582
  201POPC   C4A 2961   9.972   3.835   5.992
  201POPC   C1B 2962   9.388   3.403   4.682
  201POPC   C2B 2963   9.490   3.281   5.103
  201POPC   C3B 2964   9.509   3.472   5.508
  201POPC   C4B 2965   9.168   3.578   5.725
  202POPC   NC3 2966   5.865   1.059   3.935
  202POPC   PO4 2967   5.400   1.555   3.871
  202POPC   GL1 2968   5.472   1.532   4.291
  202POPC   GL2 2969   5.541   1.196   4.301
  202POPC   C1A 2970   5.657   1.421   4.717
  202POPC   D2A 2971   5.464   1.403   5.097
  202POPC   C3A 2972   5.773   1.486   5.373
  202POPC   C4A 2973   5.952   1.673   5.719
  202POPC   C1B 2974   5.444   0.957   4.698
  202POPC   C2B 2975   5.502   0.837   5.117
  202POPC   C3B 2976   5.502   1.061   5.499
  202POPC   C4B 2977   5.957   1.120   5.681
  203POPC   NC3 2978   9.548   2.715   3.857
  203POPC   PO4 2979  10.143   2.520   3.803
  203POPC   GL1 2980   9.927   2.467   4.219
  203POPC   GL2 2981   9.643   2.681   4.360
  203POPC   C1A 2982  10.003   2.504   4.674
  203POPC   D2A 2983   9.883   2.290   5.045
  203POPC   C3A 2984   9.926   2.539   5.411
  203POPC   C4A 2985   9.884   2.575   5.850
  203POPC   C1B 2986   9.542   2.796   4.797
  203POPC   C2B 2987   9.405   2.551   5.151
  203POPC   C3B 2988   9.447   2.654   5.566
  203POPC   C4B 2989   9.712   3.016   5.663
  204POPC   NC3 2990  11.364   5.207   4.132
  204POPC   PO4 2991  10.768   4.852   4.197
  204POPC   GL1 2992  10.829   4.906   4.542
  204POPC   GL2 2993  10.958   5.251   4.477
  204POPC   C1A 2994  10.740   4.731   4.949
  204POPC   D2A 2995  10.978   4.805   5.320
  204POPC   C3A 2996  10.875   4.965   5.679
  204POPC   C4A 2997  10.713   5.347   5.697
  204POPC   C1B 2998  11.177   5.053   4.849
  204POPC   C2B 2999  11.469   4.904   5.126
  204POPC   C3B 3000  11.409   5.050   5.506
  204POPC   C4B 3001  11.453   4.832   5.822
  205POPC   NC3 3002  10.289   3.660   3.878
  205POPC   PO4 3003  10.911   3.992   3.946
  205POPC   GL1 3004  10.637   3.681   4.279
  205POPC   GL2 3005  10.294   3.503   4.346
  205POPC   C1A 3006  10.623   3.403   4.709
  205POPC   D2A 3007  10.546   3.592   5.123
  205POPC   C3A 3008  10.499   3.313   5.467
  205POPC   C4A 3009  10.718   3.302   5.823
  205POPC   C1B 3010  10.276   3.800   4.701
  205POPC   C2B 3011  10.120   3.890   5.129
  205POPC   C3B 3012  10.227   3.746   5.556
  205POPC   C4B 3013  10.157   3.371   5.864
  206POPC   NC3 3014   3.645   1.054   3.814
  206POPC   PO4 3015   3.637   1.637   3.703
  206POPC   GL1 3016   3.378   1.385   4.281
  206POPC   GL2 3017   3.402   1.023   4.259
  206POPC   C1A 3018   3.653   1.163   4.696
  206POPC   D2A 3019   3.829   0.934   5.103
  206POPC   C3A 3020   3.728   1.102   5.554
  206POPC   C4A 3021   3.669   1.410   5.907
  206POPC   C1B 3022   3.315   0.799   4.636
  206POPC   C2B 3023   3.316   0.982   5.052
  206POPC   C3B 3024   3.229   1.166   5.445
  206POPC   C4B 3025   3.292   1.061   5.868
  207POPC   NC3 3026   5.647   9.827   3.893
  207POPC   PO4 3027   5.442   9.283   4.172
  207POPC   GL1 3028   5.664   9.520   4.467
  207POPC   GL2 3029   5.635   9.852   4.407
  207POPC   C1A 3030   5.799   9.587   4.911
  207POPC   D2A 3031   5.742   9.473   5.369
  207POPC   C3A 3032   6.111   9.527   5.696
  207POPC   C4A 3033   6.320   9.494   6.135
  207POPC   C1B 3034   5.345   9.779   4.779
  207POPC   C2B 3035   5.237   9.579   5.216
  207POPC   C3B 3036   5.366   9.659   5.676
  207POPC   C4B 3037   5.469   9.919   6.085
  208POPC   NC3 3038   0.490  11.399   3.924
  208POPC   PO4 3039   0.771  10.784   3.880
  208POPC   GL1 3040   0.668  11.036   4.229
  208POPC   GL2 3041   0.283  11.089   4.288
  208POPC   C1A 3042   0.688  11.119   4.658
  208POPC   D2A 3043   0.771  11.237   5.085
  208POPC   C3A 3044   0.898  10.910   5.357
  208POPC   C4A 3045   0.616  10.830   5.678
  208POPC   C1B 3046   0.239  10.840   4.702
  208POPC   C2B 3047   0.367  10.865   5.183
  208POPC   C3B 3048   0.279  11.188   5.534
  208POPC   C4B 3049   0.106   0.116   5.608
  209POPC   NC3 3050   3.301  10.272   3.656
  209POPC   PO4 3051   3.706   9.903   4.041
  209POPC   GL1 3052   3.682   9.828   4.421
  209POPC   GL2 3053   3.816   9.492   4.380
  209POPC   C1A 3054   3.301   9.851   4.708
  209POPC   D2A 3055   3.267   9.679   5.110
  209POPC   C3A 3056   3.472   9.784   5.492
  209POPC   C4A 3057   3.286   9.979   5.804
  209POPC   C1B 3058   3.589   9.434   4.791
  209POPC   C2B 3059   3.660   9.361   5.253
  209POPC   C3B 3060   3.551   9.329   5.709
  209POPC   C4B 3061   3.683   9.249   6.165
  210POPC   NC3 3062   0.218   8.014   3.394
  210POPC   PO4 3063   0.332   7.835   4.051
  210POPC   GL1 3064   0.254   8.018   4.389
  210POPC   GL2 3065   0.566   8.155   4.389
  210POPC   C1A 3066   0.393   7.882   4.787
  210POPC   D2A 3067   0.228   7.780   5.150
  210POPC   C3A 3068   0.363   7.992   5.524
  210POPC   C4A 3069   0.143   8.292   5.738
  210POPC   C1B 3070   0.425   8.385   4.716
  210POPC   C2B 3071   0.516   8.310   5.091
  210POPC   C3B 3072   0.509   8.500   5.431
  210POPC   C4B 3073   0.633   8.402   5.828
  211POPC   NC3 3074   7.802  10.377   3.923
  211POPC   PO4 3075   8.421  10.727   3.896
  211POPC   GL1 3076   8.188  10.547   4.262
  211POPC   GL2 3077   8.178  10.168   4.231
  211POPC   C1A 3078   8.103  10.692   4.714
  211POPC   D2A 3079   7.880  10.756   5.126
  211POPC   C3A 3080   8.151  10.633   5.484
  211POPC   C4A 3081   8.234  10.403   5.855
  211POPC   C1B 3082   8.064  10.169   4.651
  211POPC   C2B 3083   8.136  10.304   5.071
  211POPC   C3B 3084   7.998  10.122   5.469
  211POPC   C4B 3085   7.896  10.024   5.906
  212POPC   NC3 3086   1.657   5.399   4.021
  212POPC   PO4 3087   1.866   6.016   3.787
  212POPC   GL1 3088   1.791   5.965   4.222
  212POPC   GL2 3089   1.973   5.720   4.340
  212POPC   C1A 3090   1.611   5.984   4.616
  212POPC   D2A 3091   1.641   5.976   5.042
  212POPC   C3A 3092   1.914   6.048   5.371
  212POPC   C4A 3093   1.778   5.962   5.808
  212POPC   C1B 3094   1.935   5.626   4.767
  212POPC   C2B 3095   1.944   5.537   5.195
  212POPC   C3B 3096   2.020   5.540   5.636
  212POPC   C4B 3097   1.955   5.296   6.002
  213POPC   NC3 3098   5.568  11.425   3.463
  213POPC   PO4 3099   6.156   0.189   3.799
  213POPC   GL1 3100   6.100   0.065   4.249
  213POPC   GL2 3101   5.859  11.307   4.270
  213POPC   C1A 3102   5.983   0.056   4.714
  213POPC   D2A 3103   6.083  11.239   5.043
  213POPC   C3A 3104   6.091  11.430   5.420
  213POPC   C4A 3105   6.146  11.211   5.786
  213POPC   C1B 3106   5.791  11.079   4.639
  213POPC   C2B 3107   5.629  10.949   5.045
  213POPC   C3B 3108   5.733  11.088   5.434
  213POPC   C4B 3109   5.649  11.217   5.822
  214POPC   NC3 3110   0.256   4.904   3.827
  214POPC   PO4 3111   0.865   4.544   3.905
  214POPC   GL1 3112   0.720   4.795   4.276
  214POPC   GL2 3113   0.387   4.923   4.327
  214POPC   C1A 3114   0.742   4.979   4.702
  214POPC   D2A 3115   0.761   4.831   5.122
  214POPC   C3A 3116   0.398   4.697   5.378
  214POPC   C4A 3117   0.474   4.809   5.807
  214POPC   C1B 3118   0.215   5.063   4.698
  214POPC   C2B 3119   0.405   5.246   5.056
  214POPC   C3B 3120   0.408   5.206   5.491
  214POPC   C4B 3121   0.189   5.272   5.896
  215POPC   NC3 3122   5.631   0.127   3.938
  215POPC   PO4 3123   5.431   0.848   3.947
  215POPC   GL1 3124   5.669   0.677   4.310
  215POPC   GL2 3125   5.681   0.318   4.385
  215POPC   C1A 3126   5.833   0.605   4.761
  215POPC   D2A 3127   5.854   0.395   5.158
  215POPC   C3A 3128   5.797   0.629   5.566
  215POPC   C4A 3129   5.602   0.828   5.931
  215POPC   C1B 3130   5.473   0.010   4.645
  215POPC   C2B 3131   5.614  11.447   5.080
  215POPC   C3B 3132   5.620   0.109   5.498
  215POPC   C4B 3133   5.917   0.205   5.818
  216POPC   NC3 3134   2.893   7.610   4.055
  216POPC   PO4 3135   2.291   7.934   4.035
  216POPC   GL1 3136   2.622   7.961   4.331
  216POPC   GL2 3137   2.408   7.962   4.578
  216POPC   C1A 3138   2.908   7.921   4.714
  216POPC   D2A 3139   2.853   8.091   5.160
  216POPC   C3A 3140   2.963   8.018   5.614
  216POPC   C4A 3141   2.691   7.858   5.970
  216POPC   C1B 3142   2.590   8.330   4.773
  216POPC   C2B 3143   2.445   8.389   5.205
  216POPC   C3B 3144   2.494   8.210   5.598
  216POPC   C4B 3145   2.664   8.365   5.973
  217POPC   NC3 3146   1.843   6.491   3.907
  217POPC   PO4 3147   2.451   6.402   3.878
  217POPC   GL1 3148   2.239   6.187   4.240
  217POPC   GL2 3149   2.054   6.474   4.363
  217POPC   C1A 3150   2.064   6.145   4.722
  217POPC   D2A 3151   2.222   6.407   5.068
  217POPC   C3A 3152   2.135   6.560   5.477
  217POPC   C4A 3153   1.768   6.446   5.691
  217POPC   C1B 3154   1.826   6.603   4.760
  217POPC   C2B 3155   1.717   6.595   5.196
  217POPC   C3B 3156   1.759   6.923   5.518
  217POPC   C4B 3157   2.016   6.861   5.888
  218POPC   NC3 3158   0.502   3.342   3.967
  218POPC   PO4 3159   0.099   3.903   3.935
  218POPC   GL1 3160   0.392   3.748   4.291
  218POPC   GL2 3161   0.388   3.433   4.445
  218POPC   C1A 3162   0.624   3.832   4.675
  218POPC   D2A 3163   0.376   3.789   5.061
  218POPC   C3A 3164   0.504   3.683   5.470
  218POPC   C4A 3165   0.278   3.772   5.799
  218POPC   C1B 3166   0.376   3.198   4.778
  218POPC   C2B 3167   0.498   3.293   5.156
  218POPC   C3B 3168   0.295   3.186   5.481
  218POPC   C4B 3169   0.449   3.290   5.821
  219POPC   NC3 3170  10.261   7.108   4.019
  219POPC   PO4 3171  10.951   7.368   3.978
  219POPC   GL1 3172  10.817   7.152   4.309
  219POPC   GL2 3173  10.504   7.285   4.414
  219POPC   C1A 3174  10.826   7.049   4.728
  219POPC   D2A 3175  10.679   6.922   5.133
  219POPC   C3A 3176  10.661   7.136   5.514
  219POPC   C4A 3177  10.286   7.099   5.731
  219POPC   C1B 3178  10.623   7.650   4.658
  219POPC   C2B 3179  10.461   7.753   5.058
  219POPC   C3B 3180  10.305   7.464   5.334
  219POPC   C4B 3181  10.470   7.582   5.709
  220POPC   NC3 3182  10.598   4.504   3.960
  220POPC   PO4 3183  10.121   4.041   4.084
  220POPC   GL1 3184  10.247   4.363   4.345
  220POPC   GL2 3185  10.536   4.487   4.466
  220POPC   C1A 3186  10.196   4.299   4.776
  220POPC   D2A 3187  10.434   4.314   5.092
  220POPC   C3A 3188  10.188   4.271   5.449
  220POPC   C4A 3189  10.086   4.403   5.834
  220POPC   C1B 3190  10.690   4.118   4.646
  220POPC   C2B 3191  10.855   4.023   5.055
  220POPC   C3B 3192  10.806   4.289   5.420
  220POPC   C4B 3193  10.567   4.188   5.774
  221POPC   NC3 3194   5.024   8.229   3.884
  221POPC   PO4 3195   4.775   7.699   4.134
  221POPC   GL1 3196   4.908   7.911   4.495
  221POPC   GL2 3197   4.879   8.223   4.368
  221POPC   C1A 3198   4.833   8.080   4.913
  221POPC   D2A 3199   4.590   8.247   5.257
  221POPC   C3A 3200   4.587   7.986   5.616
  221POPC   C4A 3201   4.739   7.685   5.914
  221POPC   C1B 3202   5.184   8.379   4.672
  221POPC   C2B 3203   5.291   8.221   5.101
  221POPC   C3B 3204   5.063   8.167   5.506
  221POPC   C4B 3205   4.877   8.269   5.929
  222POPC   NC3 3206   1.231   4.255   3.928
  222POPC   PO4 3207   1.238   3.707   4.075
  222POPC   GL1 3208   1.066   4.005   4.396
  222POPC   GL2 3209   1.071   4.402   4.374
  222POPC   C1A 3210   1.077   4.010   4.863
  222POPC   D2A 3211   1.324   3.953   5.243
  222POPC   C3A 3212   1.279   4.200   5.668
  222POPC   C4A 3213   1.514   4.040   6.065
  222POPC   C1B 3214   1.037   4.528   4.786
  222POPC   C2B 3215   1.131   4.425   5.192
  222POPC   C3B 3216   0.870   4.530   5.518
  222POPC   C4B 3217   0.940   4.587   5.895
  223POPC   NC3 3218   2.515   8.341   4.001
  223POPC   PO4 3219   2.715   9.046   3.973
  223POPC   GL1 3220   2.744   8.740   4.314
  223POPC   GL2 3221   2.432   8.671   4.425
  223POPC   C1A 3222   2.849   8.772   4.777
  223POPC   D2A 3223   2.910   8.604   5.180
  223POPC   C3A 3224   2.778   8.666   5.577
  223POPC   C4A 3225   3.090   8.627   5.944
  223POPC   C1B 3226   2.508   9.094   4.627
  223POPC   C2B 3227   2.550   9.197   5.071
  223POPC   C3B 3228   2.651   9.177   5.517
  223POPC   C4B 3229   3.067   9.090   5.728
  224POPC   NC3 3230  10.290   0.384   3.908
  224POPC   PO4 3231  10.712   0.109   4.255
  224POPC   GL1 3232  10.345   0.261   4.447
  224POPC   GL2 3233  10.249   0.609   4.398
  224POPC   C1A 3234  10.217   0.313   4.867
  224POPC   D2A 3235  10.370   0.488   5.237
  224POPC   C3A 3236  10.436   0.222   5.598
  224POPC   C4A 3237  10.045   0.131   5.755
  224POPC   C1B 3238  10.558   0.674   4.749
  224POPC   C2B 3239  10.839   0.686   5.124
  224POPC   C3B 3240  10.655   0.767   5.545
  224POPC   C4B 3241  10.608   0.693   5.999
  225POPC   NC3 3242   2.210   3.013   4.022
  225POPC   PO4 3243   1.763   2.792   3.673
  225POPC   GL1 3244   1.771   2.641   4.152
  225POPC   GL2 3245   2.089   2.581   4.259
  225POPC   C1A 3246   1.695   2.759   4.631
  225POPC   D2A 3247   1.633   2.935   5.066
  225POPC   C3A 3248   1.792   2.701   5.424
  225POPC   C4A 3249   1.731   2.862   5.827
  225POPC   C1B 3250   2.207   2.816   4.639
  225POPC   C2B 3251   2.138   2.873   5.074
  225POPC   C3B 3252   2.341   2.801   5.450
  225POPC   C4B 3253   2.186   2.637   5.827
  226POPC   NC3 3254   6.883   7.898   3.959
  226POPC   PO4 3255   6.982   8.441   3.836
  226POPC   GL1 3256   7.056   8.386   4.300
  226POPC   GL2 3257   7.367   8.243   4.396
  226POPC   C1A 3258   7.054   8.373   4.791
  226POPC   D2A 3259   7.284   8.349   5.199
  226POPC   C3A 3260   7.100   8.337   5.603
  226POPC   C4A 3261   7.044   8.036   5.948
  226POPC   C1B 3262   7.580   8.403   4.787
  226POPC   C2B 3263   7.784   8.306   5.207
  226POPC   C3B 3264   7.594   8.203   5.610
  226POPC   C4B 3265   7.475   8.299   6.057
  227POPC   NC3 3266   1.314   0.289   4.044
  227POPC   PO4 3267   1.165   0.917   3.915
  227POPC   GL1 3268   1.102   0.728   4.362
  227POPC   GL2 3269   0.991   0.378   4.455
  227POPC   C1A 3270   1.090   0.739   4.825
  227POPC   D2A 3271   0.829   0.885   5.145
  227POPC   C3A 3272   1.032   0.720   5.517
  227POPC   C4A 3273   1.234   0.691   5.914
  227POPC   C1B 3274   1.392   0.346   4.725
  227POPC   C2B 3275   1.251   0.314   5.157
  227POPC   C3B 3276   1.398   0.310   5.563
  227POPC   C4B 3277   1.471  11.445   5.818
  228POPC   NC3 3278  10.874   7.812   3.892
  228POPC   PO4 3279  11.472   7.692   3.663
  228POPC   GL1 3280  11.388   7.546   4.190
  228POPC   GL2 3281  11.340   7.208   4.272
  228POPC   C1A 3282  11.102   7.471   4.639
  228POPC   D2A 3283  10.865   7.418   5.079
  228POPC   C3A 3284  11.000   7.579   5.502
  228POPC   C4A 3285  10.912   7.600   5.969
  228POPC   C1B 3286  11.337   7.023   4.675
  228POPC   C2B 3287  11.187   6.885   5.059
  228POPC   C3B 3288  11.166   7.077   5.461
  228POPC   C4B 3289  11.259   7.264   5.857
  229POPC   NC3 3290   4.402   2.595   3.928
  229POPC   PO4 3291   3.997   2.960   4.055
  229POPC   GL1 3292   4.030   2.679   4.422
  229POPC   GL2 3293   4.273   2.392   4.368
  229POPC   C1A 3294   3.871   2.749   4.847
  229POPC   D2A 3295   3.667   2.651   5.250
  229POPC   C3A 3296   3.894   2.722   5.634
  229POPC   C4A 3297   4.122   2.667   6.034
  229POPC   C1B 3298   4.320   2.502   4.789
  229POPC   C2B 3299   4.163   2.491   5.195
  229POPC   C3B 3300   4.314   2.423   5.596
  229POPC   C4B 3301   4.577   2.740   5.776
  230POPC   NC3 3302   4.819  10.112   3.902
  230POPC   PO4 3303   5.467  10.252   3.925
  230POPC   GL1 3304   5.384  10.298   4.313
  230POPC   GL2 3305   5.281  10.640   4.308
  230POPC   C1A 3306   5.241  10.285   4.720
  230POPC   D2A 3307   5.015  10.430   5.074
  230POPC   C3A 3308   5.090  10.120   5.375
  230POPC   C4A 3309   5.398  10.165   5.652
  230POPC   C1B 3310   4.909  10.689   4.591
  230POPC   C2B 3311   4.806  10.902   4.990
  230POPC   C3B 3312   4.757  10.753   5.389
  230POPC   C4B 3313   5.102  10.586   5.636
  231POPC   NC3 3314  10.510   2.696   4.023
  231POPC   PO4 3315  10.784   3.308   3.927
  231POPC   GL1 3316  10.802   3.046   4.308
  231POPC   GL2 3317  10.485   2.983   4.452
  231POPC   C1A 3318  10.960   2.943   4.723
  231POPC   D2A 3319  10.822   3.100   5.129
  231POPC   C3A 3320  10.822   2.873   5.520
  231POPC   C4A 3321  10.743   2.659   5.899
  231POPC   C1B 3322  10.548   2.590   4.697
  231POPC   C2B 3323  10.420   2.371   5.095
  231POPC   C3B 3324  10.419   2.513   5.529
  231POPC   C4B 3325  10.263   2.891   5.704
  232POPC   NC3 3326   7.230  10.807   4.043
  232POPC   PO4 3327   6.895  11.416   3.839
  232POPC   GL1 3328   7.024  11.243   4.274
  232POPC   GL2 3329   7.353  11.100   4.435
  232POPC   C1A 3330   6.938  11.231   4.740
  232POPC   D2A 3331   6.997  11.417   5.168
  232POPC   C3A 3332   7.037  11.160   5.558
  232POPC   C4A 3333   6.870  11.326   5.962
  232POPC   C1B 3334   7.362  10.912   4.859
  232POPC   C2B 3335   7.465  11.205   5.184
  232POPC   C3B 3336   7.515  11.365   5.580
  232POPC   C4B 3337   7.523  10.939   5.790
  233POPC   NC3 3338   1.577   3.730   3.778
  233POPC   PO4 3339   1.699   3.146   4.078
  233POPC   GL1 3340   1.665   3.531   4.291
  233POPC   GL2 3341   2.010   3.548   4.294
  233POPC   C1A 3342   1.541   3.772   4.670
  233POPC   D2A 3343   1.776   3.941   4.989
  233POPC   C3A 3344   1.782   3.784   5.383
  233POPC   C4A 3345   1.873   3.677   5.770
  233POPC   C1B 3346   1.973   3.290   4.689
  233POPC   C2B 3347   1.993   3.371   5.121
  233POPC   C3B 3348   1.988   3.191   5.524
  233POPC   C4B 3349   2.064   3.223   5.979
  234POPC   NC3 3350   9.000   1.879   3.880
  234POPC   PO4 3351   8.449   2.309   4.002
  234POPC   GL1 3352   8.829   2.175   4.256
  234POPC   GL2 3353   8.754   1.844   4.312
  234POPC   C1A 3354   9.036   2.097   4.681
  234POPC   D2A 3355   8.971   2.276   5.082
  234POPC   C3A 3356   9.040   1.992   5.411
  234POPC   C4A 3357   9.015   2.061   5.825
  234POPC   C1B 3358   8.549   2.002   4.652
  234POPC   C2B 3359   8.578   1.847   5.065
  234POPC   C3B 3360   8.342   1.905   5.427
  234POPC   C4B 3361   8.503   1.918   5.825
  235POPC   NC3 3362   9.580   0.214   3.592
  235POPC   PO4 3363   9.267   0.722   3.978
  235POPC   GL1 3364   9.442   0.438   4.281
  235POPC   GL2 3365   9.811   0.364   4.171
  235POPC   C1A 3366   9.244   0.366   4.694
  235POPC   D2A 3367   9.218   0.605   5.084
  235POPC   C3A 3368   9.309   0.312   5.351
  235POPC   C4A 3369   9.509   0.190   5.702
  235POPC   C1B 3370   9.801   0.475   4.622
  235POPC   C2B 3371   9.717   0.397   5.052
  235POPC   C3B 3372   9.826   0.531   5.473
  235POPC   C4B 3373  10.185   0.644   5.730
  236POPC   NC3 3374   8.834   0.938   3.997
  236POPC   PO4 3375   8.555   1.603   3.854
  236POPC   GL1 3376   8.641   1.360   4.217
  236POPC   GL2 3377   9.022   1.406   4.195
  236POPC   C1A 3378   8.566   1.474   4.671
  236POPC   D2A 3379   8.599   1.315   5.105
  236POPC   C3A 3380   8.719   1.570   5.484
  236POPC   C4A 3381   9.082   1.564   5.746
  236POPC   C1B 3382   8.990   1.185   4.597
  236POPC   C2B 3383   9.107   1.110   5.023
  236POPC   C3B 3384   8.964   1.128   5.436
  236POPC   C4B 3385   9.060   1.046   5.843
  237POPC   NC3 3386   0.266   7.362   3.899
  237POPC   PO4 3387   0.889   7.017   3.912
  237POPC   GL1 3388   0.665   7.108   4.342
  237POPC   GL2 3389   0.336   7.248   4.373
  237POPC   C1A 3390   0.606   7.329   4.790
  237POPC   D2A 3391   0.354   7.255   5.191
  237POPC   C3A 3392   0.473   7.256   5.661
  237POPC   C4A 3393   0.207   7.153   6.051
  237POPC   C1B 3394   0.111   7.450   4.701
  237POPC   C2B 3395  11.377   7.392   5.094
  237POPC   C3B 3396   0.027   7.513   5.527
  237POPC   C4B 3397   0.267   7.642   5.914
  238POPC   NC3 3398   5.536   1.979   3.970
  238POPC   PO4 3399   5.931   2.372   4.095
  238POPC   GL1 3400   5.844   2.022   4.373
  238POPC   GL2 3401   5.960   1.700   4.266
  238POPC   C1A 3402   5.524   1.900   4.691
  238POPC   D2A 3403   5.325   1.901   5.119
  238POPC   C3A 3404   5.584   1.952   5.494
  238POPC   C4A 3405   5.823   2.158   5.847
  238POPC   C1B 3406   6.057   1.741   4.747
  238POPC   C2B 3407   6.039   1.897   5.192
  238POPC   C3B 3408   6.250   2.076   5.554
  238POPC   C4B 3409   6.282   1.976   6.002
  239POPC   NC3 3410   0.695   6.644   4.113
  239POPC   PO4 3411   0.104   6.909   3.967
  239POPC   GL1 3412   0.231   6.745   4.326
  239POPC   GL2 3413   0.161   6.392   4.258
  239POPC   C1A 3414   0.319   6.894   4.742
  239POPC   D2A 3415   0.444   6.748   5.110
  239POPC   C3A 3416   0.328   6.791   5.532
  239POPC   C4A 3417   0.649   6.582   5.765
  239POPC   C1B 3418   0.375   6.386   4.668
  239POPC   C2B 3419   0.459   6.229   5.090
  239POPC   C3B 3420   0.315   6.282   5.501
  239POPC   C4B 3421   0.375   6.100   5.915
  240POPC   NC3 3422  10.426   9.621   3.900
  240POPC   PO4 3423  10.854   9.111   3.807
  240POPC   GL1 3424  10.509   9.244   4.206
  240POPC   GL2 3425  10.689   9.535   4.329
  240POPC   C1A 3426  10.437   9.276   4.703
  240POPC   D2A 3427  10.545   9.171   5.163
  240POPC   C3A 3428  10.359   9.443   5.444
  240POPC   C4A 3429  10.579   9.767   5.615
  240POPC   C1B 3430  10.364   9.777   4.558
  240POPC   C2B 3431  10.270   9.797   5.004
  240POPC   C3B 3432  10.140   9.915   5.446
  240POPC   C4B 3433  10.282  10.016   5.925
  241POPC   NC3 3434   4.858  11.163   3.835
  241POPC   PO4 3435   5.593  11.154   3.835
  241POPC   GL1 3436   5.358  11.158   4.232
  241POPC   GL2 3437   5.021  11.267   4.314
  241POPC   C1A 3438   5.276  11.030   4.674
  241POPC   D2A 3439   5.141  11.281   5.013
  241POPC   C3A 3440   5.208  11.082   5.409
  241POPC   C4A 3441   5.200  11.411   5.703
  241POPC   C1B 3442   4.734  11.307   4.681
  241POPC   C2B 3443   4.620  11.458   5.101
  241POPC   C3B 3444   4.546  11.319   5.517
  241POPC   C4B 3445   4.791  11.107   5.747
  242POPC   NC3 3446  11.267   6.001   3.567
  242POPC   PO4 3447  10.989   5.626   4.052
  242POPC   GL1 3448  11.126   5.735   4.432
  242POPC   GL2 3449  11.437   5.662   4.327
  242POPC   C1A 3450  11.211   5.563   4.851
  242POPC   D2A 3451  11.053   5.370   5.272
  242POPC   C3A 3452  11.039   5.712   5.592
  242POPC   C4A 3453  10.896   6.136   5.546
  242POPC   C1B 3454   0.021   6.003   4.610
  242POPC   C2B 3455  11.256   6.081   4.949
  242POPC   C3B 3456  11.373   6.051   5.371
  242POPC   C4B 3457  11.379   6.229   5.784
  243POPC   NC3 3458   8.039  11.099   3.869
  243POPC   PO4 3459   7.662  10.743   4.207
  243POPC   GL1 3460   7.927  11.046   4.375
  243POPC   GL2 3461   8.311  11.057   4.302
  243POPC   C1A 3462   7.816  11.136   4.779
  243POPC   D2A 3463   7.967  11.263   5.157
  243POPC   C3A 3464   7.944  11.084   5.556
  243POPC   C4A 3465   7.868  11.303   5.952
  243POPC   C1B 3466   8.333  11.173   4.731
  243POPC   C2B 3467   8.387  10.955   5.110
  243POPC   C3B 3468   8.446  11.176   5.456
  243POPC   C4B 3469   8.350  11.176   5.883
  244POPC   NC3 3470   2.273   8.980   4.046
  244POPC   PO4 3471   1.723   9.323   3.859
  244POPC   GL1 3472   1.631   9.169   4.306
  244POPC   GL2 3473   1.802   8.886   4.284
  244POPC   C1A 3474   1.613   9.061   4.794
  244POPC   D2A 3475   1.785   8.746   5.135
  244POPC   C3A 3476   1.654   8.725   5.605
  244POPC   C4A 3477   1.670   8.967   6.017
  244POPC   C1B 3478   1.979   8.753   4.641
  244POPC   C2B 3479   2.277   8.772   4.936
  244POPC   C3B 3480   2.268   8.847   5.372
  244POPC   C4B 3481   2.180   9.064   5.747
  245POPC   NC3 3482   4.321   0.507   3.824
  245POPC   PO4 3483   4.138  11.374   3.917
  245POPC   GL1 3484   4.230   0.203   4.255
  245POPC   GL2 3485   4.211   0.544   4.349
  245POPC   C1A 3486   4.358   0.217   4.706
  245POPC   D2A 3487   4.138   0.284   5.091
  245POPC   C3A 3488   4.372   0.293   5.445
  245POPC   C4A 3489   4.345   0.268   5.879
  245POPC   C1B 3490   4.257   0.732   4.790
  245POPC   C2B 3491   4.505   0.733   5.192
  245POPC   C3B 3492   4.526   0.727   5.660
  245POPC   C4B 3493   4.059   0.665   5.744
  246POPC   NC3 3494   8.721   9.608   3.876
  246POPC   PO4 3495   9.358   9.319   3.951
  246POPC   GL1 3496   9.123   9.488   4.339
  246POPC   GL2 3497   8.838   9.711   4.354
  246POPC   C1A 3498   8.934   9.298   4.754
  246POPC   D2A 3499   8.775   9.174   5.210
  246POPC   C3A 3500   9.057   9.341   5.560
  246POPC   C4A 3501   9.118   9.173   6.013
  246POPC   C1B 3502   9.028   9.819   4.737
  246POPC   C2B 3503   8.908   9.663   5.153
  246POPC   C3B 3504   8.868   9.863   5.551
  246POPC   C4B 3505   9.173  10.010   5.835
  247POPC   NC3 3506   2.231   0.513   3.920
  247POPC   PO4 3507   1.743   0.111   4.044
  247POPC   GL1 3508   1.982   0.246   4.355
  247POPC   GL2 3509   2.099   0.597   4.396
  247POPC   C1A 3510   1.907   0.195   4.755
  247POPC   D2A 3511   1.768   0.141   5.121
  247POPC   C3A 3512   2.144   0.080   5.406
  247POPC   C4A 3513   2.025   0.054   5.816
  247POPC   C1B 3514   1.830   0.703   4.728
  247POPC   C2B 3515   1.626   0.641   5.107
  247POPC   C3B 3516   1.854   0.507   5.449
  247POPC   C4B 3517   2.122   0.563   5.743
  248POPC   NC3 3518  10.450   6.168   3.746
  248POPC   PO4 3519  10.611   6.789   3.972
  248POPC   GL1 3520  10.550   6.717   4.353
  248POPC   GL2 3521  10.424   6.388   4.247
  248POPC   C1A 3522  10.384   6.798   4.740
  248POPC   D2A 3523  10.220   6.541   5.053
  248POPC   C3A 3524  10.306   6.700   5.423
  248POPC   C4A 3525  10.034   6.605   5.746
  248POPC   C1B 3526  10.458   6.280   4.677
  248POPC   C2B 3527  10.352   6.022   5.012
  248POPC   C3B 3528  10.345   6.170   5.434
  248POPC   C4B 3529  10.498   6.377   5.764
  249POPC   NC3 3530   0.443   1.964   3.752
  249POPC   PO4 3531   0.094   2.267   4.164
  249POPC   GL1 3532   0.235   1.933   4.330
  249POPC   GL2 3533   0.560   1.995   4.260
  249POPC   C1A 3534   0.207   1.808   4.743
  249POPC   D2A 3535   0.378   1.945   5.105
  249POPC   C3A 3536   0.189   1.853   5.452
  249POPC   C4A 3537   0.021   2.214   5.640
  249POPC   C1B 3538   0.648   2.084   4.682
  249POPC   C2B 3539   0.668   2.344   5.048
  249POPC   C3B 3540   0.508   2.315   5.483
  249POPC   C4B 3541   0.499   1.990   5.812
  250POPC   NC3 3542   0.514   8.867   3.888
  250POPC   PO4 3543  11.464   8.425   3.793
  250POPC   GL1 3544   0.241   8.531   4.197
  250POPC   GL2 3545   0.580   8.653   4.325
  250POPC   C1A 3546   0.191   8.827   4.593
  250POPC   D2A 3547   0.322   8.803   5.044
  250POPC   C3A 3548   0.214   9.141   5.373
  250POPC   C4A 3549   0.071   9.148   5.822
  250POPC   C1B 3550   0.796   8.740   4.675
  250POPC   C2B 3551   0.872   8.711   5.086
  250POPC   C3B 3552   0.710   8.984   5.365
  250POPC   C4B 3553   0.473   8.882   5.743
  251POPC   NC3 3554  11.189  11.269   3.708
  251POPC   PO4 3555  10.684   0.159   3.757
  251POPC   GL1 3556  11.172   0.087   4.103
  251POPC   GL2 3557  11.280  11.240   4.209
  251POPC   C1A 3558  11.232   0.028   4.625
  251POPC   D2A 3559  11.054  11.285   5.023
  251POPC   C3A 3560  11.197  11.345   5.464
  251POPC   C4A 3561  11.129   0.000   5.908
  251POPC   C1B 3562  11.218  11.014   4.635
  251POPC   C2B 3563  11.337  10.813   5.027
  251POPC   C3B 3564  11.371  10.843   5.448
  251POPC   C4B 3565  11.169  10.983   5.829
  252POPC   NC3 3566   4.146   1.019   4.185
  252POPC   PO4 3567   4.614   1.414   3.838
  252POPC   GL1 3568   4.628   1.237   4.233
  252POPC   GL2 3569   4.377   1.430   4.378
  252POPC   C1A 3570   4.683   1.188   4.694
  252POPC   D2A 3571   4.562   1.218   5.108
  252POPC   C3A 3572   4.608   1.436   5.471
  252POPC   C4A 3573   4.757   1.222   5.814
  252POPC   C1B 3574   4.167   1.305   4.775
  252POPC   C2B 3575   4.092   1.358   5.211
  252POPC   C3B 3576   4.229   1.120   5.536
  252POPC   C4B 3577   4.160   1.462   5.770
  253POPC   NC3 3578   5.702  10.641   3.954
  253POPC   PO4 3579   6.031  10.060   3.949
  253POPC   GL1 3580   5.900  10.289   4.345
  253POPC   GL2 3581   6.021  10.655   4.366
  253POPC   C1A 3582   5.774  10.123   4.797
  253POPC   D2A 3583   5.579   9.959   5.197
  253POPC   C3A 3584   5.843   9.948   5.541
  253POPC   C4A 3585   5.877  10.277   5.790
  253POPC   C1B 3586   5.649  10.596   4.668
  253POPC   C2B 3587   5.535  10.458   5.107
  253POPC   C3B 3588   5.601  10.612   5.505
  253POPC   C4B 3589   5.931  10.765   5.783
  254POPC   NC3 3590   1.860  10.605   3.604
  254POPC   PO4 3591   2.435  10.914   3.854
  254POPC   GL1 3592   2.360  10.836   4.321
  254POPC   GL2 3593   2.163  10.540   4.413
  254POPC   C1A 3594   2.297  10.845   4.799
  254POPC   D2A 3595   2.048  10.637   5.096
  254POPC   C3A 3596   2.023  10.823   5.481
  254POPC   C4A 3597   2.217  10.683   5.863
  254POPC   C1B 3598   2.195  10.227   4.772
  254POPC   C2B 3599   2.195  10.113   5.215
  254POPC   C3B 3600   2.002  10.332   5.531
  254POPC   C4B 3601   1.653  10.540   5.691
  255POPC   NC3 3602   9.747  11.063   3.729
  255POPC   PO4 3603   9.204  11.455   3.664
  255POPC   GL1 3604   9.502  11.446   4.080
  255POPC   GL2 3605   9.628  11.131   4.240
  255POPC   C1A 3606   9.552  11.480   4.595
  255POPC   D2A 3607   9.461  11.386   5.099
  255POPC   C3A 3608   9.666  11.252   5.553
  255POPC   C4A 3609   9.729  11.413   6.066
  255POPC   C1B 3610   9.618  10.964   4.691
  255POPC   C2B 3611   9.369  10.857   5.076
  255POPC   C3B 3612   9.242  10.908   5.500
  255POPC   C4B 3613   9.507  10.893   5.885
  256POPC   NC3 3614   9.160   4.806   4.039
  256POPC   PO4 3615   8.612   5.023   3.925
  256POPC   GL1 3616   8.770   5.162   4.365
  256POPC   GL2 3617   9.111   5.126   4.445
  256POPC   C1A 3618   8.784   5.008   4.826
  256POPC   D2A 3619   8.681   4.904   5.266
  256POPC   C3A 3620   8.749   4.923   5.703
  256POPC   C4A 3621   8.418   4.901   6.029
  256POPC   C1B 3622   9.150   5.347   4.824
  256POPC   C2B 3623   9.152   5.249   5.260
  256POPC   C3B 3624   9.146   5.249   5.682
  256POPC   C4B 3625   9.234   4.956   5.990
  257POPC   NC3 3626   2.889   3.745   3.983
  257POPC   PO4 3627   2.663   3.148   3.956
  257POPC   GL1 3628   2.709   3.354   4.308
  257POPC   GL2 3629   2.415   3.258   4.440
  257POPC   C1A 3630   2.814   3.539   4.696
  257POPC   D2A 3631   2.968   3.383   5.079
  257POPC   C3A 3632   2.879   3.536   5.498
  257POPC   C4A 3633   3.133   3.433   5.859
  257POPC   C1B 3634   2.459   3.216   4.878
  257POPC   C2B 3635   2.468   3.279   5.300
  257POPC   C3B 3636   2.360   3.532   5.648
  257POPC   C4B 3637   2.628   3.487   5.964
  258POPC   NC3 3638   4.169  10.689   4.079
  258POPC   PO4 3639   4.414  10.093   4.112
  258POPC   GL1 3640   4.130  10.238   4.442
  258POPC   GL2 3641   3.828  10.345   4.323
  258POPC   C1A 3642   4.203  10.184   4.906
  258POPC   D2A 3643   4.583  10.153   5.181
  258POPC   C3A 3644   4.651  10.285   5.608
  258POPC   C4A 3645   4.667  10.631   5.879
  258POPC   C1B 3646   3.899  10.610   4.729
  258POPC   C2B 3647   3.877  10.508   5.163
  258POPC   C3B 3648   4.123  10.295   5.439
  258POPC   C4B 3649   4.213  10.423   5.852
  259POPC   NC3 3650   5.025   0.646   3.947
  259POPC   PO4 3651   5.195   0.025   3.728
  259POPC   GL1 3652   5.189   0.230   4.185
  259POPC   GL2 3653   4.821   0.262   4.312
  259POPC   C1A 3654   5.263   0.490   4.575
  259POPC   D2A 3655   5.332   0.362   5.020
  259POPC   C3A 3656   5.305   0.518   5.469
  259POPC   C4A 3657   5.388   0.348   5.902
  259POPC   C1B 3658   4.852   0.299   4.787
  259POPC   C2B 3659   4.865   0.391   5.244
  259POPC   C3B 3660   4.850   0.303   5.692
  259POPC   C4B 3661   4.841   0.466   6.116
  260POPC   NC3 3662   1.832   7.970   4.017
  260POPC   PO4 3663   2.080   8.567   3.997
  260POPC   GL1 3664   2.093   8.303   4.350
  260POPC   GL2 3665   1.758   8.321   4.429
  260POPC   C1A 3666   2.084   8.293   4.819
  260POPC   D2A 3667   1.774   8.227   5.136
  260POPC   C3A 3668   2.006   8.370   5.479
  260POPC   C4A 3669   2.203   8.565   5.808
  260POPC   C1B 3670   1.800   7.907   4.667
  260POPC   C2B 3671   1.717   7.702   5.083
  260POPC   C3B 3672   1.781   7.853   5.511
  260POPC   C4B 3673   1.574   8.218   5.685
  261POPC   NC3 3674   8.819   2.655   4.073
  261POPC   PO4 3675   9.331   3.008   4.123
  261POPC   GL1 3676   9.142   2.855   4.484
  261POPC   GL2 3677   9.121   2.542   4.474
  261POPC   C1A 3678   9.025   2.855   4.925
  261POPC   D2A 3679   8.945   2.734   5.359
  261POPC   C3A 3680   9.117   3.007   5.686
  261POPC   C4A 3681   9.177   3.174   6.050
  261POPC   C1B 3682   8.693   2.503   4.704
  261POPC   C2B 3683   8.459   2.340   5.090
  261POPC   C3B 3684   8.651   2.336   5.521
  261POPC   C4B 3685   8.607   2.741   5.764
  262POPC   NC3 3686   3.261  10.866   3.975
  262POPC   PO4 3687   3.265   0.018   3.967
  262POPC   GL1 3688   3.163  11.340   4.340
  262POPC   GL2 3689   3.460  11.182   4.372
  262POPC   C1A 3690   3.183  11.331   4.804
  262POPC   D2A 3691   3.274  11.145   5.191
  262POPC   C3A 3692   3.219  11.354   5.569
  262POPC   C4A 3693   3.304  11.421   6.008
  262POPC   C1B 3694   3.707  11.088   4.732
  262POPC   C2B 3695   3.756  11.009   5.156
  262POPC   C3B 3696   3.661  11.069   5.561
  262POPC   C4B 3697   3.805  10.692   5.703
  263POPC   NC3 3698  11.230   2.110   3.950
  263POPC   PO4 3699   0.138   1.604   3.902
  263POPC   GL1 3700  11.273   1.713   4.280
  263POPC   GL2 3701  10.964   1.998   4.343
  263POPC   C1A 3702  11.208   1.878   4.745
  263POPC   D2A 3703  11.353   2.076   5.115
  263POPC   C3A 3704  11.178   1.872   5.487
  263POPC   C4A 3705  11.400   1.799   5.901
  263POPC   C1B 3706  10.742   2.125   4.717
  263POPC   C2B 3707  10.843   2.058   5.118
  263POPC   C3B 3708  10.701   2.098   5.505
  263POPC   C4B 3709  10.949   2.191   5.839
  264POPC   NC3 3710   4.278   1.735   3.756
  264POPC   PO4 3711   3.827   1.358   4.124
  264POPC   GL1 3712   3.924   1.671   4.449
  264POPC   GL2 3713   4.179   1.877   4.250
  264POPC   C1A 3714   3.924   1.734   4.902
  264POPC   D2A 3715   4.024   2.017   5.218
  264POPC   C3A 3716   4.168   1.931   5.589
  264POPC   C4A 3717   3.897   1.874   5.937
  264POPC   C1B 3718   4.310   1.970   4.691
  264POPC   C2B 3719   4.440   1.750   5.095
  264POPC   C3B 3720   4.698   1.931   5.458
  264POPC   C4B 3721   4.741   2.239   5.819
  265POPC   NC3 3722   1.145   6.639   3.763
  265POPC   PO4 3723   1.507   6.437   4.207
  265POPC   GL1 3724   1.318   6.408   4.546
  265POPC   GL2 3725   0.998   6.392   4.445
  265POPC   C1A 3726   1.317   6.642   4.896
  265POPC   D2A 3727   1.287   6.868   5.259
  265POPC   C3A 3728   1.317   6.667   5.642
  265POPC   C4A 3729   1.529   6.892   5.991
  265POPC   C1B 3730   0.833   6.507   4.836
  265POPC   C2B 3731   0.869   6.545   5.274
  265POPC   C3B 3732   0.832   6.196   5.503
  265POPC   C4B 3733   1.038   6.270   5.870
  266POPC   NC3 3734   1.408   6.087   3.935
  266POPC   PO4 3735   1.188   5.447   3.950
  266POPC   GL1 3736   1.319   5.674   4.299
  266POPC   GL2 3737   1.068   5.905   4.292
  266POPC   C1A 3738   1.410   5.535   4.720
  266POPC   D2A 3739   1.247   5.664   5.128
  266POPC   C3A 3740   1.532   5.654   5.448
  266POPC   C4A 3741   1.515   5.492   5.821
  266POPC   C1B 3742   1.127   5.971   4.727
  266POPC   C2B 3743   1.187   6.197   5.092
  266POPC   C3B 3744   1.348   6.119   5.494
  266POPC   C4B 3745   1.066   5.758   5.634
  267POPC   NC3 3746   7.249   2.200   3.935
  267POPC   PO4 3747   7.079   1.579   3.669
  267POPC   GL1 3748   7.199   1.728   4.100
  267POPC   GL2 3749   7.557   1.845   4.178
  267POPC   C1A 3750   7.145   1.921   4.550
  267POPC   D2A 3751   7.158   1.995   5.031
  267POPC   C3A 3752   6.867   1.926   5.389
  267POPC   C4A 3753   7.054   1.775   5.767
  267POPC   C1B 3754   7.655   1.934   4.631
  267POPC   C2B 3755   7.679   1.878   5.081
  267POPC   C3B 3756   7.464   1.975   5.466
  267POPC   C4B 3757   7.157   2.257   5.618
  268POPC   NC3 3758  10.289   8.248   3.660
  268POPC   PO4 3759  10.060   7.683   3.909
  268POPC   GL1 3760  10.353   7.811   4.255
  268POPC   GL2 3761  10.430   8.186   4.298
  268POPC   C1A 3762  10.171   7.911   4.683
  268POPC   D2A 3763   9.936   8.090   5.025
  268POPC   C3A 3764  10.104   7.936   5.399
  268POPC   C4A 3765  10.141   7.948   5.797
  268POPC   C1B 3766  10.422   8.350   4.747
  268POPC   C2B 3767  10.317   8.356   5.194
  268POPC   C3B 3768  10.547   8.199   5.570
  268POPC   C4B 3769  10.590   8.385   5.977
  269POPC   NC3 3770   2.871   9.491   3.903
  269POPC   PO4 3771   2.272   9.816   3.905
  269POPC   GL1 3772   2.550   9.671   4.264
  269POPC   GL2 3773   2.895   9.631   4.404
  269POPC   C1A 3774   2.492   9.587   4.713
  269POPC   D2A 3775   2.756   9.671   5.079
  269POPC   C3A 3776   2.514   9.742   5.420
  269POPC   C4A 3777   2.349   9.547   5.751
  269POPC   C1B 3778   2.981   9.327   4.755
  269POPC   C2B 3779   3.056   9.235   5.209
  269POPC   C3B 3780   3.006   9.564   5.545
  269POPC   C4B 3781   2.798   9.802   5.855
  270POPC   NC3 3782   3.873  11.018   3.736
  270POPC   PO4 3783   4.553  10.796   3.829
  270POPC   GL1 3784   4.597  10.947   4.255
  270POPC   GL2 3785   4.512  11.277   4.239
  270POPC   C1A 3786   4.411  10.861   4.673
  270POPC   D2A 3787   4.363  10.640   5.062
  270POPC   C3A 3788   4.209  10.865   5.404
  270POPC   C4A 3789   4.269  10.940   5.825
  270POPC   C1B 3790   4.161  11.279   4.558
  270POPC   C2B 3791   4.175  11.241   5.003
  270POPC   C3B 3792   4.051  11.375   5.418
  270POPC   C4B 3793   3.966  11.358   5.866
  271POPC   NC3 3794   2.865   6.583   3.908
  271POPC   PO4 3795   2.915   7.153   4.043
  271POPC   GL1 3796   2.861   6.802   4.395
  271POPC   GL2 3797   2.589   6.570   4.340
  271POPC   C1A 3798   2.926   6.591   4.843
  271POPC   D2A 3799   3.051   6.440   5.295
  271POPC   C3A 3800   2.856   6.653   5.654
  271POPC   C4A 3801   2.468   6.619   5.903
  271POPC   C1B 3802   2.541   6.294   4.655
  271POPC   C2B 3803   2.677   6.193   5.054
  271POPC   C3B 3804   2.566   6.283   5.460
  271POPC   C4B 3805   2.256   6.157   5.739
  272POPC   NC3 3806   6.937   3.094   4.114
  272POPC   PO4 3807   6.804   2.418   3.983
  272POPC   GL1 3808   7.078   2.579   4.339
  272POPC   GL2 3809   7.451   2.514   4.297
  272POPC   C1A 3810   7.075   2.793   4.776
  272POPC   D2A 3811   7.272   2.876   5.201
  272POPC   C3A 3812   7.101   2.781   5.640
  272POPC   C4A 3813   7.162   2.967   6.086
  272POPC   C1B 3814   7.396   2.372   4.729
  272POPC   C2B 3815   7.437   2.392   5.176
  272POPC   C3B 3816   7.570   2.526   5.571
  272POPC   C4B 3817   7.768   2.415   5.967
  273POPC   NC3 3818   1.953   9.763   3.589
  273POPC   PO4 3819   1.958  10.132   4.181
  273POPC   GL1 3820   2.077   9.767   4.407
  273POPC   GL2 3821   2.086   9.441   4.204
  273POPC   C1A 3822   2.011   9.740   4.816
  273POPC   D2A 3823   1.760   9.819   5.106
  273POPC   C3A 3824   1.970   9.662   5.393
  273POPC   C4A 3825   1.999   9.880   5.716
  273POPC   C1B 3826   2.037   9.275   4.608
  273POPC   C2B 3827   2.030   9.234   5.053
  273POPC   C3B 3828   1.787   9.186   5.424
  273POPC   C4B 3829   1.816   9.413   5.818
  274POPC   NC3 3830   7.259   8.820   3.868
  274POPC   PO4 3831   7.057   9.393   4.134
  274POPC   GL1 3832   7.311   9.127   4.439
  274POPC   GL2 3833   7.441   8.781   4.338
  274POPC   C1A 3834   7.311   9.001   4.888
  274POPC   D2A 3835   7.334   8.855   5.304
  274POPC   C3A 3836   7.118   9.068   5.682
  274POPC   C4A 3837   6.812   9.058   6.063
  274POPC   C1B 3838   7.726   8.858   4.644
  274POPC   C2B 3839   7.808   8.789   5.049
  274POPC   C3B 3840   7.816   8.775   5.471
  274POPC   C4B 3841   7.487   8.691   5.753
  275POPC   NC3 3842   2.725   1.222   3.719
  275POPC   PO4 3843   2.683   1.731   3.986
  275POPC   GL1 3844   2.751   1.488   4.319
  275POPC   GL2 3845   2.889   1.192   4.228
  275POPC   C1A 3846   2.556   1.411   4.717
  275POPC   D2A 3847   2.341   1.323   5.084
  275POPC   C3A 3848   2.315   1.531   5.449
  275POPC   C4A 3849   2.364   1.400   5.833
  275POPC   C1B 3850   3.040   1.226   4.669
  275POPC   C2B 3851   2.826   1.133   5.079
  275POPC   C3B 3852   2.722   1.215   5.519
  275POPC   C4B 3853   2.791   1.165   5.987
  276POPC   NC3 3854   3.741   2.577   4.028
  276POPC   PO4 3855   3.208   2.481   3.670
  276POPC   GL1 3856   3.157   2.634   4.198
  276POPC   GL2 3857   3.484   2.592   4.464
  276POPC   C1A 3858   3.037   2.518   4.671
  276POPC   D2A 3859   3.224   2.444   5.128
  276POPC   C3A 3860   3.238   2.648   5.565
  276POPC   C4A 3861   3.492   2.692   5.967
  276POPC   C1B 3862   3.377   2.873   4.836
  276POPC   C2B 3863   3.416   3.122   5.227
  276POPC   C3B 3864   3.508   3.103   5.674
  276POPC   C4B 3865   3.886   3.120   5.974
  277POPC   NC3 3866   8.985  11.053   3.547
  277POPC   PO4 3867   9.212  10.841   4.160
  277POPC   GL1 3868   8.867  11.044   4.333
  277POPC   GL2 3869   9.089  11.344   4.351
  277POPC   C1A 3870   8.711  10.834   4.718
  277POPC   D2A 3871   8.870  10.675   5.118
  277POPC   C3A 3872   8.694  10.740   5.526
  277POPC   C4A 3873   8.831  11.061   5.771
  277POPC   C1B 3874   9.116  11.168   4.766
  277POPC   C2B 3875   8.901  11.191   5.164
  277POPC   C3B 3876   9.076  11.402   5.498
  277POPC   C4B 3877   9.020   0.249   5.793
  278POPC   NC3 3878   6.332   2.580   4.031
  278POPC   PO4 3879   6.505   3.190   4.119
  278POPC   GL1 3880   6.613   2.806   4.424
  278POPC   GL2 3881   6.576   2.423   4.444
  278POPC   C1A 3882   6.574   2.714   4.886
  278POPC   D2A 3883   6.756   2.920   5.246
  278POPC   C3A 3884   6.568   2.918   5.655
  278POPC   C4A 3885   6.655   3.127   6.047
  278POPC   C1B 3886   6.878   2.323   4.755
  278POPC   C2B 3887   6.942   2.452   5.182
  278POPC   C3B 3888   6.696   2.442   5.545
  278POPC   C4B 3889   6.343   2.472   5.855
  279POPC   NC3 3890   0.400   2.785   3.750
  279POPC   PO4 3891   0.126   3.088   4.195
  279POPC   GL1 3892   0.502   2.888   4.360
  279POPC   GL2 3893   0.485   2.501   4.400
  279POPC   C1A 3894   0.655   2.781   4.782
  279POPC   D2A 3895   0.534   2.801   5.197
  279POPC   C3A 3896   0.781   3.000   5.488
  279POPC   C4A 3897   0.675   2.776   5.812
  279POPC   C1B 3898   0.218   2.359   4.784
  279POPC   C2B 3899   0.116   2.496   5.186
  279POPC   C3B 3900   0.180   2.702   5.565
  279POPC   C4B 3901   0.248   2.524   5.967
  280POPC   NC3 3902  11.154   3.638   3.802
  280POPC   PO4 3903   0.018   3.131   3.667
  280POPC   GL1 3904  11.437   3.512   4.169
  280POPC   GL2 3905  11.115   3.490   4.291
  280POPC   C1A 3906  11.494   3.624   4.655
  280POPC   D2A 3907   0.004   3.369   5.056
  280POPC   C3A 3908  11.499   3.585   5.418
  280POPC   C4A 3909  11.363   3.502   5.846
  280POPC   C1B 3910  11.002   3.702   4.639
  280POPC   C2B 3911  11.046   3.543   5.023
  280POPC   C3B 3912  10.999   3.493   5.433
  280POPC   C4B 3913  10.747   3.774   5.576
  281POPC   NC3 3914   3.353  10.196   4.152
  281POPC   PO4 3915   3.712  10.804   4.121
  281POPC   GL1 3916   3.397  10.661   4.407
  281POPC   GL2 3917   3.403  10.374   4.615
  281POPC   C1A 3918   3.264  10.837   4.758
  281POPC   D2A 3919   3.379  10.628   5.104
  281POPC   C3A 3920   3.277  10.729   5.516
  281POPC   C4A 3921   3.363  10.530   5.930
  281POPC   C1B 3922   3.708  10.149   4.797
  281POPC   C2B 3923   3.513  10.134   5.127
  281POPC   C3B 3924   3.537  10.297   5.491
  281POPC   C4B 3925   3.775  10.179   5.808
  282POPC   NC3 3926   3.731   0.087   4.055
  282POPC   PO4 3927   3.917   0.703   3.926
  282POPC   GL1 3928   3.705   0.580   4.297
  282POPC   GL2 3929   3.381   0.448   4.247
  282POPC   C1A 3930   3.836   0.331   4.674
  282POPC   D2A 3931   3.690   0.014   5.007
  282POPC   C3A 3932   3.615   0.150   5.442
  282POPC   C4A 3933   3.706   0.293   5.861
  282POPC   C1B 3934   3.321   0.299   4.680
  282POPC   C2B 3935   3.505   0.507   5.062
  282POPC   C3B 3936   3.428   0.656   5.498
  282POPC   C4B 3937   3.193   0.356   5.757
  283POPC   NC3 3938   4.137   9.699   4.022
  283POPC   PO4 3939   4.827   9.618   3.851
  283POPC   GL1 3940   4.563   9.539   4.296
  283POPC   GL2 3941   4.294   9.757   4.477
  283POPC   C1A 3942   4.495   9.460   4.798
  283POPC   D2A 3943   4.715   9.464   5.214
  283POPC   C3A 3944   4.522   9.470   5.652
  283POPC   C4A 3945   4.619   9.659   6.088
  283POPC   C1B 3946   4.019   9.713   4.799
  283POPC   C2B 3947   3.892   9.819   5.184
  283POPC   C3B 3948   3.976   9.738   5.590
  283POPC   C4B 3949   4.308   9.927   5.777
  284POPC   NC3 3950  10.358  10.280   3.854
  284POPC   PO4 3951  10.062  10.846   3.988
  284POPC   GL1 3952  10.405  10.682   4.248
  284POPC   GL2 3953  10.541  10.356   4.338
  284POPC   C1A 3954  10.339  10.714   4.686
  284POPC   D2A 3955  10.426  10.509   5.053
  284POPC   C3A 3956  10.379  10.776   5.342
  284POPC   C4A 3957  10.429  10.778   5.741
  284POPC   C1B 3958  10.627  10.178   4.745
  284POPC   C2B 3959  10.660  10.070   5.186
  284POPC   C3B 3960  10.508  10.284   5.531
  284POPC   C4B 3961  10.795  10.224   5.817
  285POPC   NC3 3962   1.087   4.968   3.938
  285POPC   PO4 3963   0.438   5.315   3.994
  285POPC   GL1 3964   0.769   5.332   4.332
  285POPC   GL2 3965   1.118   5.179   4.399
  285POPC   C1A 3966   0.889   5.485   4.734
  285POPC   D2A 3967   1.136   5.184   4.983
  285POPC   C3A 3968   1.204   5.227   5.431
  285POPC   C4A 3969   0.891   5.090   5.705
  285POPC   C1B 3970   1.377   4.873   4.645
  285POPC   C2B 3971   1.452   4.796   5.105
  285POPC   C3B 3972   1.353   4.729   5.552
  285POPC   C4B 3973   1.507   4.987   5.866
  286POPC   NC3 3974   7.198   9.807   4.014
  286POPC   PO4 3975   7.905   9.870   3.905
  286POPC   GL1 3976   7.683   9.976   4.340
  286POPC   GL2 3977   7.467   9.683   4.414
  286POPC   C1A 3978   7.677   9.871   4.831
  286POPC   D2A 3979   7.340   9.890   5.162
  286POPC   C3A 3980   7.494  10.013   5.578
  286POPC   C4A 3981   7.503   9.719   5.886
  286POPC   C1B 3982   7.288   9.512   4.815
  286POPC   C2B 3983   7.301   9.387   5.271
  286POPC   C3B 3984   7.103   9.610   5.580
  286POPC   C4B 3985   6.712   9.506   5.788
  287POPC   NC3 3986   7.369   0.239   3.860
  287POPC   PO4 3987   7.660   0.892   3.860
  287POPC   GL1 3988   7.726   0.690   4.264
  287POPC   GL2 3989   7.424   0.516   4.294
  287POPC   C1A 3990   7.749   0.505   4.725
  287POPC   D2A 3991   7.771   0.290   5.197
  287POPC   C3A 3992   7.681   0.611   5.568
  287POPC   C4A 3993   7.720   0.685   6.074
  287POPC   C1B 3994   7.220   0.605   4.667
  287POPC   C2B 3995   7.371   0.591   5.078
  287POPC   C3B 3996   7.271   0.335   5.415
  287POPC   C4B 3997   7.091   0.650   5.675
  288POPC   NC3 3998   5.016   9.221   4.012
  288POPC   PO4 3999   4.828   8.623   3.755
  288POPC   GL1 4000   4.735   8.700   4.234
  288POPC   GL2 4001   4.716   9.038   4.370
  288POPC   C1A 4002   4.674   8.525   4.699
  288POPC   D2A 4003   4.936   8.578   5.088
  288POPC   C3A 4004   4.873   8.650   5.541
  288POPC   C4A 4005   5.015   8.764   5.981
  288POPC   C1B 4006   5.011   8.912   4.703
  288POPC   C2B 4007   5.041   9.068   5.149
  288POPC   C3B 4008   4.979   9.176   5.584
  288POPC   C4B 4009   5.355   9.142   5.840
  289POPC   NC3 4010   5.052   1.260   3.919
  289POPC   PO4 4011   4.601   0.743   4.089
  289POPC   GL1 4012   4.845   0.767   4.431
  289POPC   GL2 4013   5.076   1.009   4.365
  289POPC   C1A 4014   4.966   0.793   4.854
  289POPC   D2A 4015   5.065   1.088   5.095
  289POPC   C3A 4016   4.955   0.935   5.443
  289POPC   C4A 4017   5.081   0.800   5.832
  289POPC   C1B 4018   5.141   1.390   4.661
  289POPC   C2B 4019   4.943   1.571   5.061
  289POPC   C3B 4020   5.110   1.462   5.481
  289POPC   C4B 4021   5.437   1.528   5.767
  290POPC   NC3 4022   4.355   7.542   4.167
  290POPC   PO4 4023   3.783   7.613   4.228
  290POPC   GL1 4024   4.045   7.430   4.560
  290POPC   GL2 4025   4.196   7.121   4.450
  290POPC   C1A 4026   4.119   7.471   4.989
  290POPC   D2A 4027   4.264   7.803   5.255
  290POPC   C3A 4028   4.191   7.673   5.676
  290POPC   C4A 4029   3.983   7.289   5.811
  290POPC   C1B 4030   4.495   7.153   4.796
  290POPC   C2B 4031   4.588   7.374   5.201
  290POPC   C3B 4032   4.503   7.269   5.637
  290POPC   C4B 4033   4.327   6.901   5.861
  291POPC   NC3 4034   0.384   0.549   3.865
  291POPC   PO4 4035   0.080  11.498   3.771
  291POPC   GL1 4036   0.188   0.136   4.255
  291POPC   GL2 4037   0.361   0.465   4.357
  291POPC   C1A 4038   0.546   0.100   4.622
  291POPC   D2A 4039   0.761   0.273   5.002
  291POPC   C3A 4040   0.662   0.118   5.435
  291POPC   C4A 4041   0.936   0.229   5.769
  291POPC   C1B 4042   0.582   0.652   4.701
  291POPC   C2B 4043   0.362   0.652   5.113
  291POPC   C3B 4044   0.409   0.557   5.568
  291POPC   C4B 4045   0.362   0.639   6.002
  292POPC   NC3 4046  10.357   2.258   3.485
  292POPC   PO4 4047  10.184   1.695   3.896
  292POPC   GL1 4048  10.184   2.010   4.229
  292POPC   GL2 4049  10.484   2.209   4.274
  292POPC   C1A 4050  10.201   2.038   4.689
  292POPC   D2A 4051  10.356   1.867   5.064
  292POPC   C3A 4052  10.122   2.021   5.400
  292POPC   C4A 4053  10.140   2.163   5.784
  292POPC   C1B 4054  10.543   1.733   4.469
  292POPC   C2B 4055  10.753   1.622   4.868
  292POPC   C3B 4056  10.723   1.596   5.345
  292POPC   C4B 4057  10.427   1.723   5.713
  293POPC   NC3 4058   1.360   1.685   4.040
  293POPC   PO4 4059   1.469   2.230   3.750
  293POPC   GL1 4060   1.394   2.247   4.222
  293POPC   GL2 4061   1.065   2.108   4.253
  293POPC   C1A 4062   1.495   2.217   4.701
  293POPC   D2A 4063   1.685   2.251   5.148
  293POPC   C3A 4064   1.393   2.077   5.477
  293POPC   C4A 4065   1.336   2.037   5.924
  293POPC   C1B 4066   1.102   1.864   4.646
  293POPC   C2B 4067   1.071   2.040   5.051
  293POPC   C3B 4068   0.864   1.936   5.423
  293POPC   C4B 4069   1.031   1.680   5.749
  294POPC   NC3 4070   0.443  10.504   3.740
  294POPC   PO4 4071   0.782  10.135   4.114
  294POPC   GL1 4072   0.731  10.522   4.313
  294POPC   GL2 4073   0.388  10.588   4.255
  294POPC   C1A 4074   0.705  10.620   4.737
  294POPC   D2A 4075   0.711  10.258   4.990
  294POPC   C3A 4076   0.702  10.411   5.370
  294POPC   C4A 4077   0.638  10.347   5.773
  294POPC   C1B 4078   0.317  10.314   4.631
  294POPC   C2B 4079   0.164  10.405   5.061
  294POPC   C3B 4080   0.206  10.435   5.519
  294POPC   C4B 4081   0.187  10.293   5.978
  295POPC   NC3 4082   2.915   2.823   3.761
  295POPC   PO4 4083   2.390   2.456   3.861
  295POPC   GL1 4084   2.601   2.535   4.223
  295POPC   GL2 4085   2.690   2.829   4.348
  295POPC   C1A 4086   2.533   2.429   4.622
  295POPC   D2A 4087   2.589   2.669   4.960
  295POPC   C3A 4088   2.727   2.442   5.310
  295POPC   C4A 4089   2.700   2.566   5.733
  295POPC   C1B 4090   2.886   3.003   4.715
  295POPC   C2B 4091   2.974   2.891   5.166
  295POPC   C3B 4092   2.871   3.028   5.566
  295POPC   C4B 4093   3.024   2.954   5.978
  296POPC   NC3 4094   1.197  10.973   3.949
  296POPC   PO4 4095   0.875   0.121   4.008
  296POPC   GL1 4096   1.085  11.377   4.319
  296POPC   GL2 4097   1.154  11.042   4.452
  296POPC   C1A 4098   1.106  11.437   4.759
  296POPC   D2A 4099   1.361  11.297   5.091
  296POPC   C3A 4100   1.131  11.382   5.437
  296POPC   C4A 4101   0.980  11.202   5.811
  296POPC   C1B 4102   1.457  10.824   4.745
  296POPC   C2B 4103   1.553  10.819   5.203
  296POPC   C3B 4104   1.377  10.957   5.579
  296POPC   C4B 4105   1.408  10.870   6.006
  297POPC   NC3 4106   9.940   8.088   4.121
  297POPC   PO4 4107   9.316   7.860   3.907
  297POPC   GL1 4108   9.520   7.850   4.294
  297POPC   GL2 4109   9.460   8.215   4.303
  297POPC   C1A 4110   9.672   7.790   4.724
  297POPC   D2A 4111   9.832   7.586   5.142
  297POPC   C3A 4112   9.606   7.792   5.486
  297POPC   C4A 4113   9.714   8.173   5.654
  297POPC   C1B 4114   9.458   8.336   4.741
  297POPC   C2B 4115   9.460   8.174   5.177
  297POPC   C3B 4116   9.232   8.287   5.561
  297POPC   C4B 4117   9.058   8.200   5.979
  298POPC   NC3 4118   6.450  11.352   3.928
  298POPC   PO4 4119   6.488  10.732   3.942
  298POPC   GL1 4120   6.552  10.975   4.320
  298POPC   GL2 4121   6.543  11.334   4.412
  298POPC   C1A 4122   6.408  10.953   4.737
  298POPC   D2A 4123   6.597  11.065   5.111
  298POPC   C3A 4124   6.365  10.903   5.443
  298POPC   C4A 4125   6.544  10.921   5.863
  298POPC   C1B 4126   6.468  11.462   4.793
  298POPC   C2B 4127   6.509   0.059   5.169
  298POPC   C3B 4128   6.573  11.362   5.546
  298POPC   C4B 4129   6.426   0.106   5.885
  299POPC   NC3 4130  11.088   6.916   3.930
  299POPC   PO4 4131  10.914   6.232   3.752
  299POPC   GL1 4132  10.972   6.486   4.204
  299POPC   GL2 4133  11.220   6.682   4.334
  299POPC   C1A 4134  10.890   6.543   4.704
  299POPC   D2A 4135  10.723   6.409   5.132
  299POPC   C3A 4136  10.857   6.645   5.531
  299POPC   C4A 4137  10.955   6.475   5.969
  299POPC   C1B 4138  11.395   6.515   4.682
  299POPC   C2B 4139   0.023   6.486   5.079
  299POPC   C3B 4140  11.357   6.584   5.439
  299POPC   C4B 4141  11.355   6.766   5.833
  300POPC   NC3 4142  11.496   1.146   3.866
  300POPC   PO4 4143  10.832   1.012   3.902
  300POPC   GL1 4144  11.090   0.924   4.256
  300POPC   GL2 4145  11.371   1.145   4.342
  300POPC   C1A 4146  11.072   0.929   4.707
  300POPC   D2A 4147  11.014   1.234   5.042
  300POPC   C3A 4148  10.998   1.141   5.475
  300POPC   C4A 4149  11.063   0.887   5.844
  300POPC   C1B 4150  11.396   1.388   4.704
  300POPC   C2B 4151  11.409   1.562   5.122
  300POPC   C3B 4152  11.456   1.392   5.537
  300POPC   C4B 4153  11.290   1.318   5.969
  301POPC   NC3 4154  10.753   5.238   3.959
  301POPC   PO4 4155  10.286   4.822   3.780
  301POPC   GL1 4156  10.252   4.876   4.252
  301POPC   GL2 4157  10.420   5.180   4.401
  301POPC   C1A 4158  10.273   4.820   4.733
  301POPC   D2A 4159  10.139   4.719   5.165
  301POPC   C3A 4160  10.417   4.723   5.547
  301POPC   C4A 4161  10.226   4.885   5.945
  301POPC   C1B 4162  10.589   5.230   4.836
  301POPC   C2B 4163  10.557   5.133   5.251
  301POPC   C3B 4164  10.237   5.234   5.543
  301POPC   C4B 4165  10.272   5.398   5.948
  302POPC   NC3 4166   9.657   1.041   3.935
  302POPC   PO4 4167   9.399   1.632   3.892
  302POPC   GL1 4168   9.559   1.426   4.288
  302POPC   GL2 4169   9.443   1.061   4.389
  302POPC   C1A 4170   9.511   1.420   4.747
  302POPC   D2A 4171   9.711   1.235   5.100
  302POPC   C3A 4172   9.483   1.178   5.506
  302POPC   C4A 4173   9.480   1.332   5.946
  302POPC   C1B 4174   9.871   1.011   4.602
  302POPC   C2B 4175  10.083   0.854   4.985
  302POPC   C3B 4176  10.033   1.008   5.422
  302POPC   C4B 4177   9.809   0.964   5.840
  303POPC   NC3 4178   9.609  10.683   4.000
  303POPC   PO4 4179   9.926  10.132   3.819
  303POPC   GL1 4180  10.022  10.291   4.256
  303POPC   GL2 4181   9.900  10.616   4.417
  303POPC   C1A 4182  10.120  10.256   4.694
  303POPC   D2A 4183   9.921  10.551   4.993
  303POPC   C3A 4184  10.023  10.403   5.391
  303POPC   C4A 4185   9.981  10.518   5.805
  303POPC   C1B 4186   9.590  10.349   4.653
  303POPC   C2B 4187   9.421  10.351   5.100
  303POPC   C3B 4188   9.545  10.486   5.523
  303POPC   C4B 4189   9.502  10.376   5.962
  304POPC   NC3 4190   6.621   1.676   3.715
  304POPC   PO4 4191   6.305   1.174   3.891
  304POPC   GL1 4192   6.540   1.052   4.337
  304POPC   GL2 4193   6.862   0.802   4.340
  304POPC   C1A 4194   6.535   1.228   4.809
  304POPC   D2A 4195   6.581   1.576   5.156
  304POPC   C3A 4196   6.494   1.632   5.634
  304POPC   C4A 4197   6.688   1.625   6.070
  304POPC   C1B 4198   6.724   0.753   4.744
  304POPC   C2B 4199   6.779   0.909   5.169
  304POPC   C3B 4200   6.637   0.852   5.567
  304POPC   C4B 4201   6.470   1.158   5.827
  305POPC   NC3 4202  10.897   0.500   4.017
  305POPC   PO4 4203   0.019   0.711   4.077
  305POPC   GL1 4204  11.326   0.490   4.425
  305POPC   GL2 4205  10.960   0.461   4.520
  305POPC   C1A 4206  11.308   0.496   4.890
  305POPC   D2A 4207  11.348   0.867   5.134
  305POPC   C3A 4208  11.449   0.843   5.517
  305POPC   C4A 4209  11.419   0.542   5.793
  305POPC   C1B 4210  10.739   0.206   4.868
  305POPC   C2B 4211  10.814   0.162   5.256
  305POPC   C3B 4212  11.157   0.363   5.393
  305POPC   C4B 4213  10.931   0.408   5.725
  306POPC   NC3 4214   0.712   9.710   3.965
  306POPC   PO4 4215   0.296   9.276   3.951
  306POPC   GL1 4216   0.579   9.185   4.334
  306POPC   GL2 4217   0.788   9.495   4.440
  306POPC   C1A 4218   0.584   9.189   4.817
  306POPC   D2A 4219   0.660   9.503   5.157
  306POPC   C3A 4220   0.601   9.453   5.603
  306POPC   C4A 4221   0.319   9.558   5.923
  306POPC   C1B 4222   0.575   9.814   4.730
  306POPC   C2B 4223   0.343   9.922   5.134
  306POPC   C3B 4224   0.441   9.940   5.577
  306POPC   C4B 4225   0.648   9.914   6.015
  307POPC   NC3 4226  10.794   6.028   4.153
  307POPC   PO4 4227  10.191   5.811   3.893
  307POPC   GL1 4228  10.467   5.657   4.233
  307POPC   GL2 4229  10.292   5.892   4.410
  307POPC   C1A 4230  10.683   5.700   4.684
  307POPC   D2A 4231  10.830   5.834   5.092
  307POPC   C3A 4232  10.556   5.706   5.390
  307POPC   C4A 4233  10.543   5.859   5.807
  307POPC   C1B 4234  10.185   5.571   4.716
  307POPC   C2B 4235  10.099   5.590   5.168
  307POPC   C3B 4236  10.074   5.759   5.605
  307POPC   C4B 4237  10.090   6.121   5.944
  308POPC   NC3 4238  10.573  11.249   3.972
  308POPC   PO4 4239   9.921  11.489   3.789
  308POPC   GL1 4240  10.054  11.400   4.238
  308POPC   GL2 4241  10.296  11.162   4.369
  308POPC   C1A 4242  10.025  11.348   4.738
  308POPC   D2A 4243   9.999  11.485   5.195
  308POPC   C3A 4244  10.189  11.221   5.494
  308POPC   C4A 4245  10.032  11.056   5.878
  308POPC   C1B 4246  10.638  11.134   4.684
  308POPC   C2B 4247  10.531  11.245   5.088
  308POPC   C3B 4248  10.717  11.167   5.470
  308POPC   C4B 4249  10.564  11.275   5.838
  309POPC   NC3 4250   0.569   4.041   3.925
  309POPC   PO4 4251   0.179   4.536   4.082
  309POPC   GL1 4252   0.248   4.236   4.317
  309POPC   GL2 4253   0.584   4.279   4.363
  309POPC   C1A 4254   0.214   4.117   4.705
  309POPC   D2A 4255   0.166   4.358   5.054
  309POPC   C3A 4256   0.243   4.145   5.426
  309POPC   C4A 4257   0.217   4.380   5.788
  309POPC   C1B 4258   0.524   4.521   4.717
  309POPC   C2B 4259   0.659   4.282   5.071
  309POPC   C3B 4260   0.837   4.043   5.388
  309POPC   C4B 4261   0.656   4.117   5.784
  310POPC   NC3 4262   9.947   4.567   3.633
  310POPC   PO4 4263   9.384   4.388   3.964
  310POPC   GL1 4264   9.746   4.460   4.249
  310POPC   GL2 4265   9.797   4.164   4.455
  310POPC   C1A 4266   9.794   4.592   4.716
  310POPC   D2A 4267   9.796   4.309   5.107
  310POPC   C3A 4268   9.704   4.505   5.509
  310POPC   C4A 4269   9.709   4.735   5.936
  310POPC   C1B 4270   9.450   4.197   4.736
  310POPC   C2B 4271   9.232   4.271   5.139
  310POPC   C3B 4272   9.258   4.132   5.563
  310POPC   C4B 4273   9.398   4.338   5.893
  311POPC   NC3 4274   6.352  10.331   4.104
  311POPC   PO4 4275   6.964  10.209   3.921
  311POPC   GL1 4276   6.829  10.530   4.283
  311POPC   GL2 4277   6.512  10.491   4.535
  311POPC   C1A 4278   6.884  10.723   4.741
  311POPC   D2A 4279   6.647  10.564   5.128
  311POPC   C3A 4280   6.830  10.644   5.559
  311POPC   C4A 4281   6.762  10.417   5.987
  311POPC   C1B 4282   6.152  10.496   4.842
  311POPC   C2B 4283   6.063  10.459   5.300
  311POPC   C3B 4284   6.344  10.442   5.676
  311POPC   C4B 4285   6.273  10.370   6.119
  312POPC   NC3 4286   8.142   0.600   3.951
  312POPC   PO4 4287   7.809   0.012   3.872
  312POPC   GL1 4288   7.920   0.193   4.294
  312POPC   GL2 4289   8.278   0.283   4.321
  312POPC   C1A 4290   8.041   0.093   4.748
  312POPC   D2A 4291   8.353   0.059   5.099
  312POPC   C3A 4292   8.129   0.063   5.532
  312POPC   C4A 4293   7.961   0.299   5.848
  312POPC   C1B 4294   8.425   0.417   4.731
  312POPC   C2B 4295   8.186   0.540   5.035
  312POPC   C3B 4296   8.262   0.545   5.455
  312POPC   C4B 4297   8.127   0.797   5.776
  313POPC   NC3 4298   8.211   1.265   3.906
  313POPC   PO4 4299   8.444   0.804   4.241
  313POPC   GL1 4300   8.125   1.022   4.409
  313POPC   GL2 4301   8.149   1.383   4.394
  313POPC   C1A 4302   8.200   1.112   4.839
  313POPC   D2A 4303   8.194   0.996   5.245
  313POPC   C3A 4304   8.448   1.123   5.555
  313POPC   C4A 4305   8.257   1.469   5.718
  313POPC   C1B 4306   7.823   1.422   4.705
  313POPC   C2B 4307   7.690   1.225   5.098
  313POPC   C3B 4308   7.807   1.142   5.518
  313POPC   C4B 4309   7.867   1.206   5.942
  314POPC   NC3 4310   9.342   3.450   4.043
  314POPC   PO4 4311   8.619   3.155   4.032
  314POPC   GL1 4312   8.932   3.291   4.357
  314POPC   GL2 4313   8.951   3.636   4.408
  314POPC   C1A 4314   8.883   3.356   4.838
  314POPC   D2A 4315   8.989   3.273   5.282
  314POPC   C3A 4316   8.723   3.323   5.693
  314POPC   C4A 4317   8.822   3.529   6.089
  314POPC   C1B 4318   9.119   3.813   4.826
  314POPC   C2B 4319   9.009   3.789   5.266
  314POPC   C3B 4320   8.790   3.913   5.658
  314POPC   C4B 4321   8.982   4.024   6.043
  315POPC   NC3 4322   6.789  10.541   3.660
  315POPC   PO4 4323   7.449  10.594   3.704
  315POPC   GL1 4324   7.361  10.332   4.188
  315POPC   GL2 4325   7.294  10.563   4.487
  315POPC   C1A 4326   7.245  10.097   4.635
  315POPC   D2A 4327   7.131  10.353   5.025
  315POPC   C3A 4328   7.045  10.198   5.467
  315POPC   C4A 4329   7.236  10.399   5.846
  315POPC   C1B 4330   7.629  10.418   4.754
  315POPC   C2B 4331   7.633  10.296   5.137
  315POPC   C3B 4332   7.515  10.531   5.443
  315POPC   C4B 4333   7.734  10.476   5.799
  316POPC   NC3 4334   1.363   2.662   3.830
  316POPC   PO4 4335   0.818   2.971   3.946
  316POPC   GL1 4336   0.969   2.636   4.229
  316POPC   GL2 4337   1.292   2.752   4.321
  316POPC   C1A 4338   1.031   2.436   4.656
  316POPC   D2A 4339   1.247   2.553   5.050
  316POPC   C3A 4340   0.981   2.506   5.411
  316POPC   C4A 4341   0.921   2.293   5.799
  316POPC   C1B 4342   1.112   2.947   4.669
  316POPC   C2B 4343   1.129   3.068   5.109
  316POPC   C3B 4344   1.301   2.898   5.499
  316POPC   C4B 4345   1.375   2.520   5.736
  317POPC   NC3 4346   9.766   1.915   3.935
  317POPC   PO4 4347   9.209   2.356   3.917
  317POPC   GL1 4348   9.451   2.216   4.240
  317POPC   GL2 4349   9.315   1.901   4.315
  317POPC   C1A 4350   9.506   2.300   4.691
  317POPC   D2A 4351   9.427   2.034   5.058
  317POPC   C3A 4352   9.569   2.171   5.482
  317POPC   C4A 4353   9.472   2.262   5.942
  317POPC   C1B 4354   9.710   1.865   4.575
  317POPC   C2B 4355   9.848   1.759   4.989
  317POPC   C3B 4356   9.639   1.669   5.397
  317POPC   C4B 4357   9.707   1.814   5.816
  318POPC   NC3 4358   3.363   5.825   3.801
  318POPC   PO4 4359   3.616   5.333   3.817
  318POPC   GL1 4360   3.470   5.097   4.222
  318POPC   GL2 4361   3.158   4.878   4.239
  318POPC   C1A 4362   3.640   5.066   4.671
  318POPC   D2A 4363   3.760   5.217   5.106
  318POPC   C3A 4364   3.435   5.188   5.436
  318POPC   C4A 4365   3.424   4.938   5.815
  318POPC   C1B 4366   3.234   4.761   4.689
  318POPC   C2B 4367   3.488   4.775   5.097
  318POPC   C3B 4368   3.789   4.817   5.456
  318POPC   C4B 4369   3.830   4.579   5.848
  319W        W 4370  11.179  10.838   8.515
  320W        W 4371   8.599   4.369   3.152
  321W        W 4372   5.732   3.538   8.135
  322W        W 4373   6.755   6.831  11.802
  323W        W 4374   7.626   8.431   9.846
  324W        W 4375   2.192   9.646   8.655
  325W        W 4376   5.976   3.875   8.560
  326W        W 4377   0.956   5.092   2.233
  327W        W 4378   3.688   0.822   3.126
  328W        W 4379   9.282   0.751  11.238
  329W        W 4380   7.614   6.094   8.349
  330W        W 4381   8.688   5.493   8.618
  331W        W 4382  10.943   9.092   9.080
  332W        W 4383   9.785   9.393   9.116
  333W        W 4384  10.455   6.571   2.983
  334W        W 4385   7.787  10.875   2.265
  335W        W 4386  10.260   6.662  10.842
  336W        W 4387   7.493   1.368   0.146
  337W        W 4388   5.136   6.453   0.821
  338W        W 4389   0.746   4.369  11.645
  339W        W 4390   0.127   8.139  10.787
  340W        W 4391   7.996   2.324   2.937
  341W        W 4392   4.068  10.748  11.502
  342W        W 4393   3.180   7.615   9.987
  343W        W 4394   1.441   0.904   1.884
  344W        W 4395   9.697   6.619   9.993
  345W        W 4396   7.230   8.024   0.757
  346W        W 4397  11.001   5.440  10.542
  347W        W 4398   6.676   0.758   1.755
  348W        W 4399   3.258   7.028   1.762
  349W        W 4400   5.538   3.595   9.480
  350W        W 4401   1.845   9.477  11.780
  351W        W 4402   4.769   2.835   0.519
  352W        W 4403   9.933  11.416   3.196
  353W        W 4404   8.625   3.418   2.139
  354W        W 4405   1.528   7.584  10.023
  355W        W 4406   0.398   8.519  11.532
  356W        W 4407   0.971   6.970   8.250
  357W        W 4408   2.466   9.925   0.349
  358W        W 4409   6.412   3.627   8.756
  359W        W 4410   7.505   9.533   9.004
  360W        W 4411  10.638   5.075  11.980
  361W        W 4412   6.129   8.450  10.392
  362W        W 4413   1.090   1.396   9.784
  363W        W 4414   6.515   2.921  11.642
  364W        W 4415   2.297  10.832   1.376
  365W        W 4416   1.829   5.527   2.480
  366W        W 4417   9.401   8.831   3.032
  367W        W 4418   4.623  10.770   2.798
  368W        W 4419   5.203   5.459   1.813
  369W        W 4420   8.465   6.951   3.064
  370W        W 4421   7.614   6.580   9.494
  371W        W 4422   5.559   2.615   1.486
  372W        W 4423  11.126  10.522   2.890
  373W        W 4424   7.737   9.482   3.551
  374W        W 4425   5.576   6.660  10.536
  375W        W 4426   1.394   9.920   0.472
  376W        W 4427   9.843   4.739   0.730
  377W        W 4428   7.602   5.211  10.097
  378W        W 4429   2.230   3.707   2.330
  379W        W 4430   1.462   8.120   2.727
  380W        W 4431   3.752   3.733   1.271
  381W        W 4432   9.315   2.465   2.482
  382W        W 4433   5.142   3.219   1.339
  383W        W 4434   5.664   0.371  11.107
  384W        W 4435   5.391   6.056   9.830
  385W        W 4436   4.826   1.157   3.113
  386W        W 4437   9.410   4.621  11.949
  387W        W 4438   4.966  10.554  10.439
  388W        W 4439   8.641   9.871   2.574
  389W        W 4440  11.227   2.686   8.832
  390W        W 4441   2.682   5.932   1.823
  391W        W 4442   2.960   8.039   9.268
  392W        W 4443   2.718   1.977  11.765
  393W        W 4444   0.853   9.348   2.629
  394W        W 4445   5.398   4.464   3.939
  395W        W 4446   2.720   8.582   3.221
  396W        W 4447   1.714   7.922   3.535
  397W        W 4448   5.186   3.655   1.852
  398W        W 4449   6.943   7.555   1.326
  399W        W 4450   3.096   7.456   2.515
  400W        W 4451   3.779   0.481  10.685
  401W        W 4452  11.404   2.571  10.860
  402W        W 4453   5.378  10.837  10.585
  403W        W 4454   1.446   9.166   0.653
  404W        W 4455   8.687  10.517  11.723
  405W        W 4456   4.990   2.399   8.129
  406W        W 4457   3.142   6.587   1.478
  407W        W 4458   0.221   6.555  11.494
  408W        W 4459   3.318   4.758  11.060
  409W        W 4460  10.359   4.141   1.232
  410W        W 4461   3.570   5.545  11.290
  411W        W 4462   5.950  10.420  10.964
  412W        W 4463   7.601   5.082  11.923
  413W        W 4464   2.744   9.210   3.477
  414W        W 4465   6.473  10.142   3.628
  415W        W 4466   3.298   3.396   0.458
  416W        W 4467   8.218   9.059  11.274
  417W        W 4468   2.335   2.266   9.138
  418W        W 4469   8.990   5.393  11.556
  419W        W 4470   5.246   2.609  10.784
  420W        W 4471   9.994   6.639   2.760
  421W        W 4472   6.960   4.645  10.746
  422W        W 4473   4.281   6.989   0.717
  423W        W 4474  11.310   6.063  10.394
  424W        W 4475   1.292   6.468   0.180
  425W        W 4476   9.045   8.895   0.525
  426W        W 4477   6.448   4.046   9.143
  427W        W 4478   2.289   9.667  11.941
  428W        W 4479  10.998   7.467   1.451
  429W        W 4480  10.020  10.769  10.413
  430W        W 4481   3.935   0.162  11.100
  431W        W 4482   7.066   7.520   0.300
  432W        W 4483   7.819   0.852   2.623
  433W        W 4484   7.077   0.253  11.528
  434W        W 4485   8.609   2.251  11.870
  435W        W 4486   4.216   5.707   0.340
  436W        W 4487   4.257   3.763   1.380
  437W        W 4488   5.539   1.955   9.453
  438W        W 4489   8.436   7.117   1.651
  439W        W 4490   7.583   1.704   3.412
  440W        W 4491  10.024  10.820   1.308
  441W        W 4492   8.021   4.103   1.185
  442W        W 4493   5.601   9.659   9.433
  443W        W 4494   1.249   6.504   1.139
  444W        W 4495   9.451   7.919   2.866
  445W        W 4496   6.976  11.295   2.818
  446W        W 4497   5.469   4.166   2.248
  447W        W 4498   2.256   2.788   8.909
  448W        W 4499   0.948  10.884   9.841
  449W        W 4500   2.835   7.609   1.765
  450W        W 4501   4.282  11.143   3.472
  451W        W 4502   4.726   0.774  11.933
  452W        W 4503   7.680   3.682  10.446
  453W        W 4504  10.873   8.838   1.465
  454W        W 4505  10.424   0.575   1.403
  455W        W 4506   3.195   8.111   9.753
  456W        W 4507   3.154   1.646   2.484
  457W        W 4508   9.319   7.547  10.789
  458W        W 4509   2.946  11.185   2.217
  459W        W 4510   7.777   9.277  11.720
  460W        W 4511   9.535   2.596   0.447
  461W        W 4512   7.059   1.698   0.202
  462W        W 4513   4.153   8.757   8.946
  463W        W 4514   0.895   1.373   0.032
  464W        W 4515   7.159   8.880   3.169
  465W        W 4516   3.140   5.663   9.436
  466W        W 4517  10.008   7.085   0.498
  467W        W 4518   5.527   8.402   9.945
  468W        W 4519   0.664   0.956   0.296
  469W        W 4520   1.105   9.499   0.370
  470W        W 4521   7.087   4.317   0.877
  471W        W 4522   2.724  10.813   1.944
  472W        W 4523   4.331  10.776   0.027
  473W        W 4524   9.229  10.063  11.053
  474W        W 4525   3.194   6.462   8.904
  475W        W 4526   5.991   5.735  11.366
  476W        W 4527   5.920   6.048   9.815
  477W        W 4528   2.157   4.856   3.285
  478W        W 4529   9.568   1.059   9.598
  479W        W 4530  10.706   0.887  11.381
  480W        W 4531   4.721   0.644  11.033
  481W        W 4532   2.304   7.609   8.029
  482W        W 4533   2.467   4.826   8.330
  483W        W 4534   7.979   9.572   9.307
  484W        W 4535   3.762   2.551   8.707
  485W        W 4536   4.569   7.135  11.806
  486W        W 4537   3.838   9.034   8.589
  487W        W 4538   0.913   8.428   1.760
  488W        W 4539   9.460   6.523  10.429
  489W        W 4540   3.059   7.133   9.519
  490W        W 4541   5.091  10.732   9.955
  491W        W 4542   7.033   1.801  10.830
  492W        W 4543   5.108   2.323   3.230
  493W        W 4544   2.289   7.177   9.876
  494W        W 4545   3.153   1.839   3.774
  495W        W 4546   7.963   6.086   3.227
  496W        W 4547  11.476   3.421   2.735
  497W        W 4548   5.957   6.444   0.399
  498W        W 4549   4.097  11.279   2.149
  499W        W 4550   0.946   2.691   1.209
  500W        W 4551   5.515   2.722   3.265
  501W        W 4552   4.865   4.336   0.888
  502W        W 4553   9.711   3.356  10.681
  503W        W 4554   5.119   9.829   2.219
  504W        W 4555   6.128  10.816  10.004
  505W        W 4556   1.450   3.324   1.487
  506W        W 4557   7.231   0.841   9.292
  507W        W 4558   0.813   6.552   1.394
  508W        W 4559   9.860   8.468   0.655
  509W        W 4560   1.665   4.029   9.667
  510W        W 4561   4.499   5.294  11.227
  511W        W 4562  10.539  10.059   2.240
  512W        W 4563  11.419   4.712  11.891
  513W        W 4564   8.194   5.474   8.460
  514W        W 4565  10.854   9.345   1.569
  515W        W 4566   1.225   2.821   2.973
  516W        W 4567   7.440   6.572   8.513
  517W        W 4568   0.052   4.831   0.367
  518W        W 4569   2.751   8.576   0.351
  519W        W 4570   2.628   4.644   1.949
  520W        W 4571   4.650  10.236   0.932
  521W        W 4572   3.889   1.731   2.162
  522W        W 4573   7.574   2.410   2.676
  523W        W 4574   2.355   6.968  10.814
  524W        W 4575   6.345   9.532   9.689
  525W        W 4576   6.185   5.078  10.846
  526W        W 4577   3.153   8.646   9.873
  527W        W 4578   8.254   4.808   3.614
  528W        W 4579   8.866   8.554  11.255
  529W        W 4580   3.314   8.095   0.351
  530W        W 4581   7.445   2.672   1.838
  531W        W 4582   6.735   0.802   9.246
  532W        W 4583   9.740   7.551   1.316
  533W        W 4584   8.448   6.084   3.440
  534W        W 4585   0.895   5.592   9.562
  535W        W 4586   1.793  10.999  10.283
  536W        W 4587   4.946   0.080  10.319
  537W        W 4588   8.534   6.639   2.181
  538W        W 4589   1.302   7.478  10.894
  539W        W 4590   0.337   1.685   0.787
  540W        W 4591   5.646   2.809  11.024
  541W        W 4592   5.539   2.312   3.587
  542W        W 4593   6.661   8.718  11.195
  543W        W 4594   3.540   1.004   1.270
  544W        W 4595   7.422   1.304   0.928
  545W        W 4596   7.387   6.160   0.332
  546W        W 4597   0.957   8.579   8.477
  547W        W 4598  11.426   5.195   3.383
  548W        W 4599   9.147   6.093   8.192
  549W        W 4600   3.894  10.796  11.002
  550W        W 4601   0.844   7.900   1.967
  551W        W 4602  10.523   9.919   1.273
  552W        W 4603   5.602   7.154   1.691
  553W        W 4604   7.629  10.080   0.089
  554W        W 4605   2.650   7.577   0.274
  555W        W 4606   9.882   6.497   2.289
  556W        W 4607  10.943   6.475   9.606
  557W        W 4608  10.058   3.312   1.354
  558W        W 4609   1.510  11.348  11.999
  559W        W 4610   7.730   1.935   2.549
  560W        W 4611   9.433   7.034  10.734
  561W        W 4612   0.410   1.174   0.719
  562W        W 4613   5.655   7.948   2.807
  563W        W 4614   6.102  11.315   2.698
  564W        W 4615   1.189   6.573   0.653
  565W        W 4616  10.803  11.294   1.150
  566W        W 4617   4.605   7.094   9.848
  567W        W 4618  11.450   2.593   3.149
  568W        W 4619   5.557   4.168   8.670
  569W        W 4620   2.291   9.224   2.777
  570W        W 4621   2.488   8.160  11.816
  571W        W 4622   9.061  10.498  10.813
  572W        W 4623   0.989   1.872  11.997
  573W        W 4624   1.352   8.675   1.944
  574W        W 4625   6.486   7.173   3.107
  575W        W 4626   4.869   2.004   1.389
  576W        W 4627   9.879   9.782  10.371
  577W        W 4628   9.601   6.785   9.214
  578W        W 4629   1.122   5.678   0.502
  579W        W 4630   5.825  10.460   9.441
  580W        W 4631   8.011   0.574  11.427
  581W        W 4632   9.231   2.128   3.469
  582W        W 4633   6.400   5.737   2.223
  583W        W 4634   1.834   2.207   9.277
  584W        W 4635   9.466   3.208   3.578
  585W        W 4636   4.312   2.636  11.097
  586W        W 4637   5.690   8.693   9.556
  587W        W 4638  10.872   6.760  11.967
  588W        W 4639   8.176  10.968   0.742
  589W        W 4640   1.308   8.998  11.493
  590W        W 4641   2.151   1.800   2.666
  591W        W 4642   2.641   0.344   2.841
  592W        W 4643   3.233   3.722   0.051
  593W        W 4644   4.620   6.169   3.508
  594W        W 4645   9.406   4.355   9.868
  595W        W 4646   4.297   7.948  10.343
  596W        W 4647   0.828   8.921   1.371
  597W        W 4648   7.389   3.132   9.466
  598W        W 4649   5.105   9.504   9.439
  599W        W 4650   3.042   6.056  11.938
  600W        W 4651   0.509   8.570   2.009
  601W        W 4652   4.303   7.184   8.871
  602W        W 4653   9.904   1.968   1.675
  603W        W 4654   0.830   3.528   3.086
  604W        W 4655   2.743   9.354   9.908
  605W        W 4656   7.396   4.856  10.490
  606W        W 4657   4.806   6.624   1.209
  607W        W 4658   7.388   1.691  11.777
  608W        W 4659   9.428   3.159  11.496
  609W        W 4660   8.710   9.892   0.322
  610W        W 4661  10.314   9.457  10.007
  611W        W 4662   2.433   2.297  10.089
  612W        W 4663  10.761   9.531   8.800
  613W        W 4664   7.008   9.954   3.215
  614W        W 4665   3.506   5.094   3.363
  615W        W 4666   5.589   9.719   1.903
  616W        W 4667   5.564   2.436   9.229
  617W        W 4668   8.588  11.330   2.172
  618W        W 4669   6.294   7.046  10.473
  619W        W 4670   2.305   7.681  11.861
  620W        W 4671   1.407   2.826   1.956
  621W        W 4672   0.206   2.219   1.476
  622W        W 4673   4.116   6.358   8.598
  623W        W 4674   6.675   7.206  11.436
  624W        W 4675   0.236   5.354   1.490
  625W        W 4676   0.310   4.269   3.094
  626W        W 4677   3.790  10.231   0.179
  627W        W 4678   8.837   4.334   0.123
  628W        W 4679   1.388   1.017   2.773
  629W        W 4680   2.385   9.585  10.154
  630W        W 4681   7.876   9.311   0.765
  631W        W 4682  11.429   5.643  11.714
  632W        W 4683   5.691   8.500   1.380
  633W        W 4684   7.191  10.207   1.418
  634W        W 4685   2.799   9.574  11.531
  635W        W 4686   6.032   6.888   1.806
  636W        W 4687  10.994   7.421  11.383
  637W        W 4688   1.410   6.684   2.161
  638W        W 4689   3.592  10.421  10.466
  639W        W 4690   3.641   9.496   3.288
  640W        W 4691   0.726   6.744   9.063
  641W        W 4692   8.981   6.819   9.541
  642W        W 4693   8.663   6.636   1.669
  643W        W 4694  11.422   5.764   1.117
  644W        W 4695   3.626   1.828   2.653
  645W        W 4696  10.485   0.732   0.927
  646W        W 4697   1.812  10.169  11.281
  647W        W 4698   4.139   5.695  11.838
  648W        W 4699  11.292   7.452  11.789
  649W        W 4700   8.570   0.546  10.220
  650W        W 4701   6.238   9.761   0.365
  651W        W 4702   1.791   7.310   0.254
  652W        W 4703   4.082   0.447   1.414
  653W        W 4704   5.198   1.666  11.734
  654W        W 4705   8.109   7.119   9.966
  655W        W 4706   8.428   1.178  10.851
  656W        W 4707   5.102   4.462  11.216
  657W        W 4708   7.126   7.132   1.109
  658W        W 4709   0.797   1.873   2.334
  659W        W 4710   7.972   0.328   0.264
  660W        W 4711   5.157  10.023   3.132
  661W        W 4712   0.712   8.893  11.094
  662W        W 4713   5.182   1.838   3.132
  663W        W 4714   2.645   5.213   3.663
  664W        W 4715   5.745   3.156   2.129
  665W        W 4716   3.620   4.850   0.622
  666W        W 4717   8.929   3.756   0.736
  667W        W 4718   7.613   9.176   3.094
  668W        W 4719   7.457   8.155   2.066
  669W        W 4720   1.285  11.369  11.013
  670W        W 4721   0.982   3.036   9.661
  671W        W 4722   9.054   0.263  11.455
  672W        W 4723   5.796   5.760  11.855
  673W        W 4724   4.969  10.239  10.037
  674W        W 4725   3.579   7.028   9.615
  675W        W 4726   6.575  11.085  10.973
  676W        W 4727   9.596   5.514   9.445
  677W        W 4728   2.105   4.197  10.575
  678W        W 4729   7.448   4.225   1.927
  679W        W 4730   0.890   7.622   9.387
  680W        W 4731   2.464  10.361  10.077
  681W        W 4732   7.066  10.563   8.666
  682W        W 4733   7.178  11.136   0.397
  683W        W 4734   0.803   3.357  10.032
  684W        W 4735   4.706   6.171   0.803
  685W        W 4736   3.646   2.383  11.794
  686W        W 4737   2.198   6.243   2.971
  687W        W 4738   8.327   5.270   2.814
  688W        W 4739   8.815   3.778   9.085
  689W        W 4740  10.786   4.854   3.645
  690W        W 4741   5.842  10.553   0.180
  691W        W 4742   2.337  11.321   9.060
  692W        W 4743   5.694   1.794   1.006
  693W        W 4744   8.147   8.263   2.259
  694W        W 4745   2.299   1.723  11.922
  695W        W 4746   1.425   5.173   2.645
  696W        W 4747   5.490   2.656   0.950
  697W        W 4748   3.119   9.462   9.172
  698W        W 4749   2.986   4.136   0.223
  699W        W 4750   4.725   7.232   0.539
  700W        W 4751   9.978   0.782   3.448
  701W        W 4752  10.587   5.179   2.277
  702W        W 4753   8.076   4.605   9.450
  703W        W 4754   1.678   2.343   2.306
  704W        W 4755   9.272   3.268  10.934
  705W        W 4756   7.131   0.934  11.315
  706W        W 4757   9.599   8.973   0.865
  707W        W 4758   4.356   9.942  10.666
  708W        W 4759  10.660   3.206   0.677
  709W        W 4760   4.897   1.288   1.219
  710W        W 4761   1.260   9.765   9.818
  711W        W 4762   6.538   9.976   9.601
  712W        W 4763   2.184   8.642   1.627
  713W        W 4764   1.867   8.559   9.992
  714W        W 4765   9.357   9.446   2.336
  715W        W 4766   2.755   2.195   0.251
  716W        W 4767   3.121   3.170   1.795
  717W        W 4768  10.078   9.605   3.072
  718W        W 4769   0.239   0.574   0.121
  719W        W 4770   4.146   9.512  10.962
  720W        W 4771   5.087   9.397  11.072
  721W        W 4772   9.203   6.579  10.865
  722W        W 4773   8.161  10.015   9.062
  723W        W 4774   7.924   0.357  10.962
  724W        W 4775   8.071   1.452   1.873
  725W        W 4776   1.129   7.979  11.597
  726W        W 4777   7.175   3.672   1.237
  727W        W 4778   0.513   7.692   1.449
  728W        W 4779  10.329   0.239   1.009
  729W        W 4780   6.324   1.680   2.279
  730W        W 4781   2.603   5.583   3.323
  731W        W 4782   3.521   8.384  11.306
  732W        W 4783   0.697  10.385   1.352
  733W        W 4784   3.700   7.916  11.516
  734W        W 4785   5.205   3.061  11.572
  735W        W 4786   6.496   2.805   3.448
  736W        W 4787   0.761   0.680   3.218
  737W        W 4788   7.014   8.422   1.906
  738W        W 4789   5.607   7.805   9.850
  739W        W 4790   5.857  10.531   2.123
  740W        W 4791   0.496  11.035   0.659
  741W        W 4792   8.290   6.358  10.991
  742W        W 4793  11.429   7.632   9.656
  743W        W 4794   1.538   7.935  10.897
  744W        W 4795   2.215   1.262   1.011
  745W        W 4796   5.671   5.535   2.729
  746W        W 4797  10.000   8.169   1.071
  747W        W 4798   3.260  10.819   0.853
  748W        W 4799  10.846   8.662   8.805
  749W        W 4800   6.689   3.213   8.920
  750W        W 4801   2.746   4.226  11.209
  751W        W 4802  10.370   5.562   1.884
  752W        W 4803  11.414   4.549   1.689
  753W        W 4804   5.030   2.081   9.542
  754W        W 4805   8.565   7.205  11.171
  755W        W 4806  10.895   4.688   1.695
  756W        W 4807   4.792   2.664  10.978
  757W        W 4808   0.937   9.019   9.207
  758W        W 4809   7.133   4.265   9.981
  759W        W 4810   9.044  11.488   9.551
  760W        W 4811  11.449   5.682  10.747
  761W        W 4812   5.703   1.128   1.807
  762W        W 4813   0.694   0.332  10.956
  763W        W 4814  10.863   7.028   1.714
  764W        W 4815  10.140   4.488   9.871
  765W        W 4816   6.671   9.111  11.682
  766W        W 4817   2.089   6.850   3.640
  767W        W 4818   7.613   0.723   2.042
  768W        W 4819  10.021   5.678  10.641
  769W        W 4820   2.607   1.800   1.754
  770W        W 4821   4.204   1.773   3.085
  771W        W 4822   6.778   5.156   0.449
  772W        W 4823   1.949   0.681   0.205
  773W        W 4824   8.540   8.944   2.743
  774W        W 4825   5.075   6.679  10.321
  775W        W 4826   7.027   1.016   3.587
  776W        W 4827   9.680   4.964   3.873
  777W        W 4828   6.268   5.734   1.218
  778W        W 4829   0.841   5.077   1.722
  779W        W 4830   7.819   4.661  10.737
  780W        W 4831   0.029   8.578   9.451
  781W        W 4832   5.947  10.102  10.487
  782W        W 4833   4.817   5.665   2.094
  783W        W 4834  10.834   0.884   1.321
  784W        W 4835   6.690   2.610   9.382
  785W        W 4836   6.009   2.084   2.211
  786W        W 4837  10.288   0.242  10.707
  787W        W 4838  10.510   5.628  10.472
  788W        W 4839   9.357   7.641   3.421
  789W        W 4840   2.847   8.648   2.728
  790W        W 4841   1.197   9.646   1.740
  791W        W 4842   5.795  10.069   0.382
  792W        W 4843   6.594   3.184  11.177
  793W        W 4844   7.474   7.633   1.262
  794W        W 4845   5.578   1.808   3.454
  795W        W 4846   6.378  10.605  11.201
  796W        W 4847   7.421   7.700   2.312
  797W        W 4848   7.555   6.726  11.424
  798W        W 4849  10.547   6.577  10.369
  799W        W 4850   8.603   9.884   8.769
  800W        W 4851   9.123   8.971  11.151
  801W        W 4852  11.436   5.595   1.854
  802W        W 4853   0.895  10.064   0.367
  803W        W 4854   2.724   6.615  10.945
  804W        W 4855  10.355   5.116   3.144
  805W        W 4856   9.987   1.700  10.266
  806W        W 4857   6.448   3.801   9.596
  807W        W 4858   1.341   5.463   3.212
  808W        W 4859   0.064  11.342  10.665
  809W        W 4860   9.550   0.227   0.535
  810W        W 4861   5.062   0.461   0.798
  811W        W 4862   3.642   2.331   1.205
  812W        W 4863   9.996   0.251   0.274
  813W        W 4864   4.571   2.198   0.973
  814W        W 4865   2.552   8.342   0.791
  815W        W 4866   0.548   9.195   0.786
  816W        W 4867   5.922   7.824  11.990
  817W        W 4868   6.503   5.131   1.863
  818W        W 4869   4.771   8.327   1.533
  819W        W 4870   3.202   1.388   2.041
  820W        W 4871  10.418   0.599   9.387
  821W        W 4872   3.855   0.375   9.682
  822W        W 4873   6.295   7.204   9.487
  823W        W 4874   2.234   5.250   9.491
  824W        W 4875   5.440   0.797   9.852
  825W        W 4876   0.933   8.357   3.519
  826W        W 4877   5.640   9.939  11.849
  827W        W 4878   2.182   3.383   2.793
  828W        W 4879  11.383   7.024  10.515
  829W        W 4880   2.721   4.507   0.954
  830W        W 4881   1.445   9.920   9.366
  831W        W 4882   7.044   4.830   0.750
  832W        W 4883   1.827   8.150   1.387
  833W        W 4884   7.829   4.190   8.686
  834W        W 4885  10.928   2.095   2.251
  835W        W 4886  11.299   9.927   0.755
  836W        W 4887   1.159   0.559   2.883
  837W        W 4888   7.779  10.654   0.780
  838W        W 4889   0.685   8.889   2.770
  839W        W 4890  10.014   5.651   0.964
  840W        W 4891   8.055  10.753   1.222
  841W        W 4892   6.290   9.184   3.142
  842W        W 4893   1.514   6.232   9.878
  843W        W 4894   6.429   0.295  11.663
  844W        W 4895   0.957   8.405   9.862
  845W        W 4896   6.691   9.418   1.067
  846W        W 4897  10.837   2.170   1.749
  847W        W 4898   4.204  10.798   2.472
  848W        W 4899   2.653   3.680   2.038
  849W        W 4900   7.873   0.353   2.701
  850W        W 4901   6.553   8.118  11.338
  851W        W 4902   0.665   2.147   1.734
  852W        W 4903   0.779   0.808   0.775
  853W        W 4904   1.288   3.118  11.577
  854W        W 4905  11.360   4.054   3.496
  855W        W 4906   2.363   2.457   0.462
  856W        W 4907   8.364   7.499   2.305
  857W        W 4908   1.203   9.400   9.453
  858W        W 4909   4.266  11.286  11.349
  859W        W 4910   1.756   5.078   1.680
  860W        W 4911   3.823   9.276   0.437
  861W        W 4912   3.521  11.397  11.950
  862W        W 4913   7.498   5.007   0.933
  863W        W 4914   2.553   4.628  11.789
  864W        W 4915   7.740   1.432   0.566
  865W        W 4916   7.905   1.930   0.712
  866W        W 4917   0.942   2.710   8.449
  867W        W 4918   3.177   7.494   1.066
  868W        W 4919   2.710   4.097   1.256
  869W        W 4920   6.979   0.323   2.756
  870W        W 4921   2.529   8.057   8.163
  871W        W 4922   4.904   2.822   4.027
  872W        W 4923   4.279   3.361  11.494
  873W        W 4924   2.258   3.816   1.326
  874W        W 4925  11.166   7.702   0.771
  875W        W 4926   1.016   8.897   0.420
  876W        W 4927   8.468   1.776   3.198
  877W        W 4928   1.361  10.038  11.730
  878W        W 4929   9.923   8.971   9.375
  879W        W 4930   0.345   2.733   0.045
  880W        W 4931   9.786   7.465   8.527
  881W        W 4932   3.930   2.169   2.884
  882W        W 4933   6.947   5.846  10.349
  883W        W 4934   4.220   2.199   3.376
  884W        W 4935   4.316   0.848   2.201
  885W        W 4936   7.744  10.169   0.579
  886W        W 4937   0.487   6.271   1.669
  887W        W 4938   0.305   1.881  10.293
  888W        W 4939  11.419   4.681  10.558
  889W        W 4940   3.598   0.476   2.734
  890W        W 4941   5.701   1.331   0.770
  891W        W 4942   1.151  10.436   9.511
  892W        W 4943  10.921  10.404   9.295
  893W        W 4944   6.277  10.242   0.209
  894W        W 4945   4.537  11.156   9.178
  895W        W 4946   4.181   4.699   2.815
  896W        W 4947   6.634   9.486  10.480
  897W        W 4948  11.344   7.612   9.132
  898W        W 4949  10.321   9.568  10.522
  899W        W 4950   3.891   6.162  10.653
  900W        W 4951   4.103   4.124   9.272
  901W        W 4952   1.677   9.514   8.598
  902W        W 4953   1.333   8.693   1.067
  903W        W 4954   0.861   6.365   2.940
  904W        W 4955   3.604  11.436   9.539
  905W        W 4956   4.839   8.400   2.841
  906W        W 4957   8.337  10.219   2.774
  907W        W 4958   5.546  10.606   2.976
  908W        W 4959   7.581   8.448  10.370
  909W        W 4960   0.183   1.457  11.904
  910W        W 4961   5.985   3.181   0.116
  911W        W 4962   0.643   7.055   9.498
  912W        W 4963   3.416   8.893   1.942
  913W        W 4964  11.294   8.024   3.071
  914W        W 4965   1.708   7.347   2.944
  915W        W 4966   3.069   5.284   8.225
  916W        W 4967   8.155   2.802  11.282
  917W        W 4968   9.282   0.482   2.733
  918W        W 4969   8.625   1.079   2.617
  919W        W 4970   9.372   2.156   0.300
  920W        W 4971  10.961  10.564   0.764
  921W        W 4972   2.267   9.102   9.980
  922W        W 4973   6.617   1.986   1.464
  923W        W 4974   5.763   1.644   1.910
  924W        W 4975   4.295   0.737  11.375
  925W        W 4976   6.121   3.810   0.399
  926W        W 4977   4.741   6.268  10.312
  927W        W 4978   0.319   2.267  10.904
  928W        W 4979   8.021   7.976   1.363
  929W        W 4980   6.586  10.432  10.759
  930W        W 4981   2.122   4.291   0.512
  931W        W 4982   3.181   5.532  10.515
  932W        W 4983   4.487   8.833   9.342
  933W        W 4984  10.384   2.417  10.922
  934W        W 4985   9.688   4.132   1.855
  935W        W 4986   1.534   6.351   3.512
  936W        W 4987   5.130   1.976   3.636
  937W        W 4988   3.279  10.185   2.717
  938W        W 4989   8.571   3.354   3.091
  939W        W 4990   6.199   1.383   2.694
  940W        W 4991  11.010   3.646   1.423
  941W        W 4992   8.545   6.130   9.182
  942W        W 4993  11.131   8.095   3.546
  943W        W 4994   8.044  11.439   8.934
  944W        W 4995   5.946  10.418   2.636
  945W        W 4996   3.588   6.379   2.696
  946W        W 4997   3.668   3.714   3.051
  947W        W 4998   9.422  10.524  10.281
  948W        W 4999   0.425   7.004   2.554
  949W        W 5000   2.081   9.993   2.871
  950W        W 5001   9.770   3.271  11.868
  951W        W 5002   7.608   2.223  10.924
  952W        W 5003   9.012  11.063   0.418
  953W        W 5004   9.295   5.096   1.460
  954W        W 5005   6.738   8.903   9.207
  955W        W 5006   8.276   9.156  11.774
  956W        W 5007   5.731   3.761   1.630
  957W        W 5008   1.331   3.778   2.884
  958W        W 5009   5.235   8.042   9.637
  959W        W 5010   0.982   1.664   1.460
  960W        W 5011   0.283   9.495   1.477
  961W        W 5012  10.398   3.236   2.185
  962W        W 5013   2.647  10.910   8.952
  963W        W 5014   5.757   7.180  11.283
  964W        W 5015   1.337   0.459   3.381
  965W        W 5016   8.605   5.905  10.966
  966W        W 5017   5.169   4.629  11.753
  967W        W 5018   1.024   0.630   1.745
  968W        W 5019   5.617   7.561  10.978
  969W        W 5020   2.119   5.969  10.918
  970W        W 5021   9.473   5.187   3.426
  971W        W 5022   3.765   8.030   8.914
  972W        W 5023   4.153   7.656   9.040
  973W        W 5024   7.146   2.317   3.005
  974W        W 5025   8.741   4.953  10.770
  975W        W 5026   0.806   0.194   1.871
  976W        W 5027   4.368   1.326   1.368
  977W        W 5028   6.998   2.757   8.997
  978W        W 5029   7.639   3.870   3.280
  979W        W 5030  11.497   4.270   0.154
  980W        W 5031   2.671   8.504   1.714
  981W        W 5032  10.876  10.360   0.298
  982W        W 5033   3.144   2.908   9.157
  983W        W 5034   1.380   2.772  11.002
  984W        W 5035   3.269   9.842   8.848
  985W        W 5036   5.054   5.869  11.359
  986W        W 5037   5.130   9.615   8.070
  987W        W 5038  10.959   8.105   2.680
  988W        W 5039   6.450   9.125   1.862
  989W        W 5040   5.656  10.138   8.545
  990W        W 5041   7.040   8.396   9.078
  991W        W 5042   6.008   5.544   9.654
  992W        W 5043   8.888   5.524  10.572
  993W        W 5044   7.458   3.605   0.775
  994W        W 5045   6.298   2.668   2.880
  995W        W 5046   8.092   5.532   0.691
  996W        W 5047   1.434   6.243   8.996
  997W        W 5048   6.668   0.067  10.852
  998W        W 5049   8.072   6.425   0.290
  999W        W 5050  10.588   4.508   9.619
 1000W        W 5051   9.576   3.555   2.661
 1001W        W 5052   4.175   2.835  10.031
 1002W        W 5053   0.352   4.545   9.816
 1003W        W 5054  10.004   9.082  11.526
 1004W        W 5055   2.635   6.581   2.919
 1005W        W 5056   3.289  10.509   3.209
 1006W        W 5057   9.921   1.690   3.468
 1007W        W 5058   9.417   5.551  11.755
 1008W        W 5059   7.990   9.965   3.253
 1009W        W 5060   1.233   4.553   9.854
 1010W        W 5061   9.034   9.380  11.471
 1011W        W 5062   3.602   0.418   0.042
 1012W        W 5063   3.064   3.091   8.388
 1013W        W 5064   0.249   9.119   0.059
 1014W        W 5065   8.155   8.941   0.581
 1015W        W 5066   9.739   6.651   0.442
 1016W        W 5067   9.322   9.388   9.939
 1017W        W 5068   5.234   1.937   0.723
 1018W        W 5069   3.148   2.383   2.152
 1019W        W 5070   9.318   5.911   1.942
 1020W        W 5071   0.939   1.527  11.094
 1021W        W 5072   2.885   1.624  10.485
 1022W        W 5073   3.774   0.277   9.177
 1023W        W 5074   0.411   6.467   3.280
 1024W        W 5075   1.843   3.614   9.395
 1025W        W 5076   9.854  10.022   3.241
 1026W        W 5077   5.949   0.498   9.286
 1027W        W 5078  11.372   7.025   1.709
 1028W        W 5079   7.668   2.610  11.943
 1029W        W 5080   8.431   0.252   0.472
 1030W        W 5081   5.771  10.920   9.197
 1031W        W 5082   8.437   8.097   9.090
 1032W        W 5083   0.299   5.170   3.009
 1033W        W 5084   4.812   8.898   0.924
 1034W        W 5085   0.546   3.983  11.880
 1035W        W 5086   0.414   6.280   9.765
 1036W        W 5087   8.742   1.451  11.775
 1037W        W 5088  11.248  11.176  10.287
 1038W        W 5089   2.606   8.117   2.086
 1039W        W 5090   3.630   8.416   9.731
 1040W        W 5091   7.867   6.967   2.597
 1041W        W 5092   9.574   2.373  11.099
 1042W        W 5093   6.934   0.804   1.293
 1043W        W 5094   6.247   6.377   8.556
 1044W        W 5095   2.183   8.323  10.719
 1045W        W 5096   0.926   1.372   9.084
 1046W        W 5097   2.067   6.845   9.524
 1047W        W 5098   9.794  10.269   8.938
 1048W        W 5099  11.062   7.696  10.499
 1049W        W 5100   1.192   1.953   0.705
 1050W        W 5101   8.596   9.943   1.145
 1051W        W 5102   6.055   8.182   3.055
 1052W        W 5103  11.038   9.842   0.330
 1053W        W 5104   4.790   9.809   2.625
 1054W        W 5105   6.147   1.382   1.155
 1055W        W 5106   1.759  11.247  11.103
 1056W        W 5107   9.400   6.638   0.078
 1057W        W 5108   8.285   0.240   2.998
 1058W        W 5109   2.441   0.721   0.317
 1059W        W 5110   2.583   6.133  11.038
 1060W        W 5111   3.768   0.067   0.382
 1061W        W 5112   7.980   8.967   1.581
 1062W        W 5113   6.640   8.921   0.325
 1063W        W 5114   0.894   3.404  11.438
 1064W        W 5115   0.840   6.783  10.907
 1065W        W 5116   8.170   6.668   1.769
 1066W        W 5117   2.428   4.832   1.200
 1067W        W 5118   9.407   2.435  10.640
 1068W        W 5119   5.091   2.642   1.285
 1069W        W 5120   0.888   3.657  10.892
 1070W        W 5121   7.563   7.219   0.318
 1071W        W 5122  10.136   7.911   0.674
 1072W        W 5123   6.710   9.315   9.995
 1073W        W 5124   9.856  10.132   1.804
 1074W        W 5125   2.200   4.669   0.163
 1075W        W 5126   2.214   7.945   2.375
 1076W        W 5127  11.183   6.488  11.259
 1077W        W 5128  10.949  10.029  10.068
 1078W        W 5129   1.596   2.353   1.446
 1079W        W 5130   6.514   1.712   1.002
 1080W        W 5131   1.931   1.341   9.407
 1081W        W 5132  11.385   7.242   0.806
 1082W        W 5133   9.868  10.827   9.919
 1083W        W 5134   1.177   9.569   0.863
 1084W        W 5135   0.723   2.318  11.298
 1085W        W 5136   9.509  10.365   0.030
 1086W        W 5137   9.329   7.622   1.009
 1087W        W 5138  10.870   7.188   3.071
 1088W        W 5139   6.603   1.478   1.468
 1089W        W 5140   5.520   6.685   1.824
 1090W        W 5141   9.417   1.890  11.059
 1091W        W 5142   9.294   1.418  11.836
 1092W        W 5143   4.706   7.757   2.958
 1093W        W 5144   6.534   3.739  10.915
 1094W        W 5145   5.171   8.019   3.010
 1095W        W 5146   9.520   8.879  10.805
 1096W        W 5147   9.493   1.644   1.503
 1097W        W 5148   2.892   9.474   2.200
 1098W        W 5149  11.309   5.115   2.877
 1099W        W 5150   7.617   9.319  10.487
 1100W        W 5151   2.874   0.938  11.431
 1101W        W 5152   2.257   4.379   9.821
 1102W        W 5153   3.775   7.978  11.018
 1103W        W 5154   5.149   6.666  10.840
 1104W        W 5155   9.750   7.014   0.954
 1105W        W 5156   0.219   2.869   8.972
 1106W        W 5157   3.704  10.355   2.922
 1107W        W 5158   3.203  11.365  10.620
 1108W        W 5159  10.970  10.837   2.525
 1109W        W 5160  10.821   6.330   2.765
 1110W        W 5161  11.128  11.116  11.523
 1111W        W 5162   0.381   6.023  10.761
 1112W        W 5163   8.180   2.807   1.252
 1113W        W 5164   7.509   2.649   9.027
 1114W        W 5165   7.086   7.013   2.070
 1115W        W 5166   0.335   9.028   3.116
 1116W        W 5167   9.865   1.805   1.177
 1117W        W 5168   2.908   5.490   0.717
 1118W        W 5169   7.949   8.370  11.322
 1119W        W 5170   7.927   0.668   3.112
 1120W        W 5171   8.983   8.682   2.776
 1121W        W 5172   2.086   0.877   0.680
 1122W        W 5173   8.013   3.868  10.085
 1123W        W 5174   9.370   7.426   9.847
 1124W        W 5175   0.853   0.501   8.841
 1125W        W 5176   4.749   4.355   2.934
 1126W        W 5177   7.040   5.027  11.326
 1127W        W 5178  11.010   4.071   0.612
 1128W        W 5179   4.424   1.283   2.745
 1129W        W 5180   2.521   4.210  10.217
 1130W        W 5181   6.425   2.779   1.672
 1131W        W 5182   3.309   0.446   9.434
 1132W        W 5183   7.036   2.973   9.826
 1133W        W 5184   5.178   4.029   8.364
 1134W        W 5185   0.059   2.864  11.242
 1135W        W 5186   6.838  10.741   0.583
 1136W        W 5187   2.693  10.811   9.921
 1137W        W 5188   4.562   2.211  11.939
 1138W        W 5189   7.095   6.520  11.417
 1139W        W 5190  10.247   4.033  10.415
 1140W        W 5191   7.886   5.026   1.470
 1141W        W 5192   6.342   3.292   3.257
 1142W        W 5193   4.289   4.209   2.647
 1143W        W 5194  11.368   7.505   3.183
 1144W        W 5195   1.250   6.671   9.761
 1145W        W 5196   9.458   4.040   2.838
 1146W        W 5197   4.739   4.112   8.639
 1147W        W 5198  10.029   8.617   1.943
 1148W        W 5199   0.896   7.714  10.674
 1149W        W 5200   8.982   5.622   0.976
 1150W        W 5201   0.922   0.228  10.207
 1151W        W 5202   1.136  10.206   2.776
 1152W        W 5203  10.102   3.049  10.553
 1153W        W 5204  11.023   1.171   0.555
 1154W        W 5205   4.598   2.266   2.383
 1155W        W 5206   7.343   1.466   9.060
 1156W        W 5207   3.815   0.386  10.196
 1157W        W 5208   2.486   1.769   8.815
 1158W        W 5209   6.671  10.927   8.725
 1159W        W 5210   3.833   4.622  11.356
 1160W        W 5211   6.188   2.963  10.328
 1161W        W 5212   3.048   5.543   8.854
 1162W        W 5213   0.266   3.157  10.833
 1163W        W 5214   2.435   4.627  11.296
 1164W        W 5215   0.128   1.805   8.852
 1165W        W 5216   4.236   5.032   9.560
 1166W        W 5217  10.010   1.756   2.661
 1167W        W 5218   9.068   4.281   2.591
 1168W        W 5219  11.257   3.110  10.868
 1169W        W 5220   8.364   1.751   0.865
 1170W        W 5221   1.268   8.459  11.549
 1171W        W 5222   6.927   6.211   9.144
 1172W        W 5223  11.394   3.187   1.344
 1173W        W 5224  10.684   1.854   3.948
 1174W        W 5225   1.159  10.285  10.414
 1175W        W 5226   9.084   9.031   2.005
 1176W        W 5227   8.955   1.889  11.937
 1177W        W 5228   4.273   9.946   2.784
 1178W        W 5229   8.969   6.925   1.203
 1179W        W 5230   6.872   3.106   9.376
 1180W        W 5231   6.216   8.500  11.275
 1181W        W 5232   9.421   3.594   3.148
 1182W        W 5233   8.560   2.068   1.282
 1183W        W 5234   8.500   8.038   2.752
 1184W        W 5235   9.868   9.309  10.647
 1185W        W 5236   7.482   2.786   2.337
 1186W        W 5237   8.954   7.140  10.847
 1187W        W 5238  10.809   9.792   1.882
 1188W        W 5239   4.745   9.478   8.471
 1189W        W 5240   8.146   1.803   2.263
 1190W        W 5241   8.017   6.437  11.442
 1191W        W 5242   7.590   5.315  10.606
 1192W        W 5243   7.052   9.064   0.002
 1193W        W 5244   7.113  10.982   9.023
 1194W        W 5245   8.878   4.564   8.639
 1195W        W 5246   4.178   2.595   2.999
 1196W        W 5247   5.671   3.856   0.722
 1197W        W 5248   1.257   6.542  11.276
 1198W        W 5249   8.497   8.998   3.239
 1199W        W 5250   4.145   0.463   8.839
 1200W        W 5251   8.723  10.914   0.959
 1201W        W 5252   6.559   8.446   9.687
 1202W        W 5253   2.329   8.647  10.339
 1203W        W 5254   0.503   1.059  11.818
 1204W        W 5255   0.405   4.390   1.716
 1205W        W 5256   0.423   0.473   2.080
 1206W        W 5257  11.297  10.775   0.403
 1207W        W 5258  10.520   4.801  10.033
 1208W        W 5259   1.812   1.747  10.103
 1209W        W 5260   6.476   4.737   0.391
 1210W        W 5261   1.211   4.981   3.246
 1211W        W 5262  10.337   6.275  11.236
 1212W        W 5263   6.123   9.626  10.572
 1213W        W 5264  10.922   7.865   1.770
 1214W        W 5265   3.301   8.328   8.931
 1215W        W 5266   2.293   6.174   9.315
 1216W        W 5267   9.904   5.454   8.711
 1217W        W 5268  10.409   2.132   9.596
 1218W        W 5269   1.839   0.198   2.726
 1219W        W 5270   3.374   1.286   8.785
 1220W        W 5271   7.193   7.290  10.059
 1221W        W 5272   8.586  10.782   0.476
 1222W        W 5273   6.414   7.990   9.004
 1223W        W 5274   6.634   5.428   0.050
 1224W        W 5275   7.479   1.538   2.377
 1225W        W 5276   6.734   9.508   3.226
 1226W        W 5277   3.454   8.637  11.765
 1227W        W 5278   5.911   2.937   0.846
 1228W        W 5279  10.896   5.546  10.043
 1229W        W 5280   2.417   1.782  11.401
 1230W        W 5281   7.220  10.647   0.226
 1231W        W 5282   0.033  10.892   0.879
 1232W        W 5283   3.271   7.454   2.037
 1233W        W 5284   8.906   7.579  11.099
 1234W        W 5285   6.244  10.021  10.923
 1235W        W 5286   3.734  10.923  10.009
 1236W        W 5287  10.080   9.098   1.790
 1237W        W 5288   3.803   7.038   0.506
 1238W        W 5289   9.408   7.153   1.857
 1239W        W 5290   3.621   9.371   9.250
 1240W        W 5291   3.835   9.857   1.211
 1241W        W 5292   1.321   5.318   9.446
 1242W        W 5293  11.335   8.533   8.970
 1243W        W 5294   8.253   6.363   8.804
 1244W        W 5295   6.917  11.432   3.311
 1245W        W 5296   2.388   1.330   9.141
 1246W        W 5297   6.379   9.154  11.277
 1247W        W 5298   3.124   1.843   9.529
 1248W        W 5299   6.566   2.462  11.895
 1249W        W 5300   3.711   9.816   2.064
 1250W        W 5301   6.174  11.064  11.292
 1251W        W 5302   7.150   7.061   0.570
 1252W        W 5303   2.334   9.867   1.758
 1253W        W 5304   8.499   9.413  11.058
 1254W        W 5305   5.522   5.643   9.546
 1255W        W 5306   7.643   7.994  10.143
 1256W        W 5307   1.144   0.349  11.213
 1257W        W 5308   1.315   8.147   1.926
 1258W        W 5309   7.547  10.871  11.452
 1259W        W 5310   1.684   4.550   9.575
 1260W        W 5311   8.883   1.651   2.893
 1261W        W 5312   5.144   8.636   0.314
 1262W        W 5313   5.632  10.014   1.454
 1263W        W 5314   9.863  10.282  10.335
 1264W        W 5315   9.047   3.693   8.642
 1265W        W 5316   5.655   8.661   0.461
 1266W        W 5317   2.027  11.290  11.921
 1267W        W 5318   7.435   4.003  11.935
 1268W        W 5319   4.592   6.736   2.923
 1269W        W 5320   5.348   5.068   2.616
 1270W        W 5321   9.496   3.024   2.491
 1271W        W 5322   9.152   1.233  10.044
 1272W        W 5323   0.630   0.550  10.496
 1273W        W 5324   4.541  10.361   8.521
 1274W        W 5325   1.238   3.555   9.863
 1275W        W 5326   0.744   0.065  11.398
 1276W        W 5327   0.628   7.149   1.280
 1277W        W 5328  10.434  10.830  11.008
 1278W        W 5329   1.928   5.055   2.643
 1279W        W 5330   1.467   9.733   1.265
 1280W        W 5331   3.660   2.346   0.694
 1281W        W 5332   6.717   6.858   2.376
 1282W        W 5333   8.449   7.103   0.334
 1283W        W 5334   5.274   3.298   2.245
 1284W        W 5335   0.220   2.317   9.115
 1285W        W 5336   1.749   6.876   2.734
 1286W        W 5337   5.271   0.174   0.399
 1287W        W 5338   0.055  10.296   2.342
 1288W        W 5339   6.743   9.984  10.992
 1289W        W 5340   5.999   8.486  11.776
 1290W        W 5341   8.059   7.244  11.114
 1291W        W 5342   9.820   9.412   0.680
 1292W        W 5343   2.398  11.340   0.278
 1293W        W 5344   2.374   9.432   0.391
 1294W        W 5345   8.501   5.607   3.590
 1295W        W 5346   4.249   3.560   0.916
 1296W        W 5347   6.973   2.354  10.988
 1297W        W 5348   8.427   3.281   9.500
 1298W        W 5349   9.190  10.107   0.402
 1299W        W 5350  10.175   8.599  11.579
 1300W        W 5351  11.412   8.642   9.932
 1301W        W 5352   6.515   0.637   0.061
 1302W        W 5353   6.138  11.006   3.409
 1303W        W 5354   0.151   7.195   9.818
 1304W        W 5355   2.900   7.536   2.987
 1305W        W 5356   0.426   9.002   1.740
 1306W        W 5357  10.528   8.494  11.950
 1307W        W 5358   7.201   5.664   1.081
 1308W        W 5359   3.392   5.272   9.145
 1309W        W 5360   9.895   8.138   2.818
 1310W        W 5361   2.903   5.482   1.746
 1311W        W 5362   2.410   3.302   1.184
 1312W        W 5363   3.879   1.292   8.618
 1313W        W 5364   8.707   6.664  10.833
 1314W        W 5365  10.416   1.495  10.445
 1315W        W 5366   7.143   6.502   3.156
 1316W        W 5367  11.474   6.131   0.003
 1317W        W 5368   0.174   1.065   0.264
 1318W        W 5369  11.447   3.387  10.436
 1319W        W 5370   8.887   3.206   8.562
 1320W        W 5371   0.069   6.092   1.912
 1321W        W 5372   5.995   4.091   9.446
 1322W        W 5373   9.903   3.719   0.676
 1323W        W 5374   4.646   8.533   0.453
 1324W        W 5375  10.819   3.472   2.374
 1325W        W 5376   0.472  10.007   2.211
 1326W        W 5377   5.052  11.450   0.831
 1327W        W 5378   7.270   6.196  10.603
 1328W        W 5379   3.782  11.138  11.422
 1329W        W 5380   2.662   9.311  11.949
 1330W        W 5381  10.611   7.864   0.513
 1331W        W 5382   1.705   4.870  11.037
 1332W        W 5383   6.908  11.374   9.500
 1333W        W 5384   1.877   8.830   0.279
 1334W        W 5385   8.555   2.348   2.360
 1335W        W 5386   3.668   2.858   0.724
 1336W        W 5387  10.678  11.412   0.667
 1337W        W 5388   2.867   4.186   2.657
 1338W        W 5389   3.140   0.311   1.519
 1339W        W 5390   0.268   5.528   9.818
 1340W        W 5391   6.311  10.447  10.311
 1341W        W 5392   4.920   0.659   1.675
 1342W        W 5393   0.242   3.134   0.392
 1343W        W 5394   2.956   0.134  10.176
 1344W        W 5395   0.482   3.091  11.426
 1345W        W 5396   1.986   8.118  11.892
 1346W        W 5397   4.618   7.591  11.567
 1347W        W 5398   7.329   0.529   8.907
 1348W        W 5399   6.577   7.883   2.345
 1349W        W 5400   7.547   2.289   0.779
 1350W        W 5401   3.761   5.196   0.252
 1351W        W 5402   3.706   4.496   1.901
 1352W        W 5403   8.145   4.633   8.666
 1353W        W 5404   7.854   8.462  11.937
 1354W        W 5405   5.488   8.974   8.597
 1355W        W 5406   0.840   9.224   3.124
 1356W        W 5407   2.802   2.108  10.365
 1357W        W 5408   0.518   1.315   2.641
 1358W        W 5409   5.327  11.361   1.761
 1359W        W 5410  10.278   9.490  11.352
 1360W        W 5411  10.732  10.407   1.318
 1361W        W 5412   2.784   2.396   0.782
 1362W        W 5413   8.018   6.000   4.125
 1363W        W 5414   2.318  10.876  11.799
 1364W        W 5415   6.977   1.518   0.726
 1365W        W 5416   0.016   9.916   8.823
 1366W        W 5417   0.472   3.055   9.775
 1367W        W 5418  10.636   3.917   0.280
 1368W        W 5419   2.816   3.767   9.459
 1369W        W 5420   4.593   9.488  10.695
 1370W        W 5421   5.654   1.720   2.939
 1371W        W 5422   3.413   1.422   2.881
 1372W        W 5423   5.282   9.472   8.546
 1373W        W 5424   0.217   0.327  10.758
 1374W        W 5425  10.904  10.137  11.281
 1375W        W 5426   4.605  10.066   2.211
 1376W        W 5427   4.934   0.782   9.773
 1377W        W 5428   4.042   4.613   3.535
 1378W        W 5429  10.536   7.228  11.522
 1379W        W 5430   6.790   3.650   9.187
 1380W        W 5431   4.523   4.457   9.557
 1381W        W 5432   3.820   0.402  11.578
 1382W        W 5433  10.883   4.171   1.132
 1383W        W 5434   5.205   9.920   3.633
 1384W        W 5435   4.352   1.431   9.955
 1385W        W 5436   7.486   0.829   3.373
 1386W        W 5437   9.027   0.805   2.445
 1387W        W 5438   8.539   7.583   9.275
 1388W        W 5439   3.690   2.651   9.271
 1389W        W 5440   8.549   7.531   2.797
 1390W        W 5441   9.033   4.616   1.310
 1391W        W 5442   8.590   2.583   0.530
 1392W        W 5443   6.105   3.289   1.159
 1393W        W 5444   2.748   7.917   2.638
 1394W        W 5445   3.204  10.312   0.100
 1395W        W 5446  10.612   9.831  10.901
 1396W        W 5447   7.601   4.372   1.455
 1397W        W 5448   2.391   7.861  10.731
 1398W        W 5449   8.629   6.370  11.724
 1399W        W 5450   8.962   9.631  11.019
 1400W        W 5451   5.770   0.382   0.503
 1401W        W 5452   6.071   8.099   8.601
 1402W        W 5453   6.050   7.292   4.018
 1403W        W 5454   4.083  10.960   9.048
 1404W        W 5455   0.878   3.909  11.360
 1405W        W 5456   4.337   8.833   0.747
 1406W        W 5457   2.789   2.481  11.834
 1407W        W 5458   7.783   6.662   9.984
 1408W        W 5459   9.585   2.876   9.455
 1409W        W 5460  10.080   8.998   9.856
 1410W        W 5461   3.671   0.791   8.967
 1411W        W 5462   4.742   9.070  11.464
 1412W        W 5463   8.789  10.895   2.366
 1413W        W 5464   3.873   5.265  10.568
 1414W        W 5465   6.674   3.774   0.246
 1415W        W 5466   8.036   9.612   9.869
 1416W        W 5467   9.091   5.735   2.795
 1417W        W 5468   7.668   4.162  11.033
 1418W        W 5469  10.720   9.798  11.783
 1419W        W 5470   3.140   9.089  10.149
 1420W        W 5471   5.828   5.213  11.615
 1421W        W 5472   3.377   6.062  10.674
 1422W        W 5473   6.528   6.659   1.694
 1423W        W 5474   9.549   6.159  10.810
 1424W        W 5475   6.929  10.865  10.663
 1425W        W 5476   8.144   8.983   1.093
 1426W        W 5477   3.329   8.059  10.231
 1427W        W 5478   4.230   2.324  10.452
 1428W        W 5479  10.817   2.769   9.172
 1429W        W 5480   0.491  10.964   1.176
 1430W        W 5481   0.976  11.325   1.398
 1431W        W 5482   8.916   7.329   9.534
 1432W        W 5483   2.167   3.413   1.894
 1433W        W 5484   9.162   7.081  11.941
 1434W        W 5485   2.913   7.877  11.926
 1435W        W 5486   2.382   0.548   1.999
 1436W        W 5487   1.151   9.651   2.930
 1437W        W 5488   8.835   0.738  11.471
 1438W        W 5489   2.939   3.032   3.114
 1439W        W 5490   4.276   2.818   0.361
 1440W        W 5491   4.646   4.261   9.112
 1441W        W 5492   4.716   2.959   1.435
 1442W        W 5493   5.220   5.598  10.950
 1443W        W 5494   5.751  11.083   3.056
 1444W        W 5495  11.065   6.065   9.909
 1445W        W 5496   1.262   4.812   9.406
 1446W        W 5497   2.320   4.337   8.435
 1447W        W 5498   2.402   2.701  11.564
 1448W        W 5499   5.797   7.118  10.411
 1449W        W 5500   1.282   1.103  11.116
 1450W        W 5501   8.725   4.257   9.203
 1451W        W 5502   7.417   5.197   1.842
 1452W        W 5503   5.135   1.695  11.250
 1453W        W 5504   6.597   6.133  10.038
 1454W        W 5505   6.587   4.508   2.526
 1455W        W 5506   1.187   5.667   1.330
 1456W        W 5507  10.279   0.639   0.096
 1457W        W 5508   3.108   8.862   2.345
 1458W        W 5509   3.412  10.772  10.863
 1459W        W 5510   8.111   4.110   3.142
 1460W        W 5511   3.159   3.521   2.746
 1461W        W 5512   4.712  10.933   9.689
 1462W        W 5513   9.877   0.271  10.341
 1463W        W 5514   5.687   3.387   8.948
 1464W        W 5515   9.085   4.600  10.950
 1465W        W 5516  10.670   1.782   0.881
 1466W        W 5517   5.223   3.720   1.365
 1467W        W 5518   9.100   4.167   8.872
 1468W        W 5519   9.739   5.285   1.234
 1469W        W 5520   9.941   8.138   0.277
 1470W        W 5521  10.389  10.933   3.237
 1471W        W 5522  10.098   2.369   2.836
 1472W        W 5523   1.279   2.353   1.045
 1473W        W 5524   7.090   0.290   1.308
 1474W        W 5525   2.169   2.118  10.993
 1475W        W 5526   7.369   7.192   2.468
 1476W        W 5527   0.005   9.573   2.761
 1477W        W 5528   9.134   6.599   9.096
 1478W        W 5529   3.147   8.936   9.144
 1479W        W 5530   4.110   9.547  10.433
 1480W        W 5531   1.914   2.213   0.418
 1481W        W 5532   4.822  10.578   1.301
 1482W        W 5533   6.221   6.223   3.027
 1483W        W 5534   3.713   5.400  11.779
 1484W        W 5535   0.138   8.891   2.148
 1485W        W 5536   6.055   6.212  11.939
 1486W        W 5537   0.897   6.463   1.907
 1487W        W 5538   5.172   3.630  10.986
 1488W        W 5539   9.278   6.298  11.285
 1489W        W 5540   8.966   3.251  10.504
 1490W        W 5541   4.574   0.262  11.963
 1491W        W 5542   1.757   9.195  11.349
 1492W        W 5543   9.663   0.585   9.433
 1493W        W 5544   9.753   0.775  11.432
 1494W        W 5545  10.374  11.357   1.892
 1495W        W 5546  10.820   1.320  11.091
 1496W        W 5547   3.716   3.363  10.931
 1497W        W 5548   0.468   3.838   2.306
 1498W        W 5549   4.593   0.748   0.762
 1499W        W 5550   9.025   8.093  10.176
 1500W        W 5551  10.813   0.305   0.999
 1501W        W 5552  10.153  10.387   9.939
 1502W        W 5553   8.546  11.230   0.177
 1503W        W 5554   1.009  10.555   2.436
 1504W        W 5555   5.006  11.319   2.653
 1505W        W 5556   5.459   4.047   3.607
 1506W        W 5557   1.991   9.883   9.384
 1507W        W 5558   4.926   1.208   2.608
 1508W        W 5559   6.627   2.676  10.377
 1509W        W 5560   5.164   3.999   4.019
 1510W        W 5561   9.123   6.357   8.643
 1511W        W 5562   8.904   7.421   1.224
 1512W        W 5563  10.574   4.291  10.099
 1513W        W 5564   2.177   9.138  11.992
 1514W        W 5565   8.077   5.031   4.049
 1515W        W 5566   7.625   7.130   1.239
 1516W        W 5567   1.681   6.921   3.245
 1517W        W 5568   0.068   5.971   9.945
 1518W        W 5569   4.428  10.400  11.356
 1519W        W 5570   9.506   9.886   1.243
 1520W        W 5571   5.535   9.634  11.339
 1521W        W 5572   2.642   1.073   1.284
 1522W        W 5573   3.342   2.247   9.269
 1523W        W 5574  11.057   9.432  11.726
 1524W        W 5575   2.300   2.238   0.913
 1525W        W 5576   9.039   6.786   1.963
 1526W        W 5577   7.799   5.738   9.861
 1527W        W 5578  11.100   4.476  10.888
 1528W        W 5579   8.008   4.696   2.183
 1529W        W 5580   7.370   4.702  11.025
 1530W        W 5581   4.234  11.377   2.628
 1531W        W 5582   3.673   6.606   0.274
 1532W        W 5583   5.921   0.927   8.507
 1533W        W 5584  10.861   8.197   0.221
 1534W        W 5585  10.791   1.816  10.492
 1535W        W 5586   9.414   2.641   2.015
 1536W        W 5587   1.620   1.344   9.819
 1537W        W 5588   0.485  10.552   2.291
 1538W        W 5589   9.339  11.362  11.211
 1539W        W 5590   9.989  11.436   9.531
 1540W        W 5591   2.912   5.350   0.213
 1541W        W 5592   3.371   2.577  10.654
 1542W        W 5593   4.351   3.786  11.196
 1543W        W 5594   6.581   2.229   0.965
 1544W        W 5595   2.142   1.773   9.204
 1545W        W 5596   2.179  11.411  11.425
 1546W        W 5597   4.362   0.798   0.303
 1547W        W 5598   9.578   8.052  10.083
 1548W        W 5599   4.901   8.588  10.894
 1549W        W 5600   0.600   5.911   0.708
 1550W        W 5601   3.237   4.293  11.295
 1551W        W 5602   2.252   8.624   2.978
 1552W        W 5603   1.833   0.265   9.489
 1553W        W 5604   6.372   4.022  10.475
 1554W        W 5605   4.109  11.253  10.833
 1555W        W 5606   6.021   6.136   0.865
 1556W        W 5607   0.277   1.669   9.829
 1557W        W 5608   1.451  10.232   1.365
 1558W        W 5609   3.756   6.613   9.388
 1559W        W 5610   1.153   1.839   8.957
 1560W        W 5611   7.949   0.442   1.769
 1561W        W 5612   6.268   8.806   9.990
 1562W        W 5613   8.002   4.165  11.423
 1563W        W 5614   8.605   8.411   2.010
 1564W        W 5615   8.204   6.534   3.257
 1565W        W 5616   9.621   6.945   2.285
 1566W        W 5617   0.699  11.384   0.986
 1567W        W 5618   8.775   8.729   3.764
 1568W        W 5619  11.447   9.141  10.763
 1569W        W 5620   1.295   5.979   0.062
 1570W        W 5621   8.914   6.108   0.535
 1571W        W 5622   8.514   3.406   8.879
 1572W        W 5623   4.722   8.098  11.620
 1573W        W 5624  11.278   9.656   1.735
 1574W        W 5625   6.761   8.045   9.393
 1575W        W 5626   7.131  10.472   9.190
 1576W        W 5627  10.963  10.636  11.430
 1577W        W 5628   5.480   6.184   2.304
 1578W        W 5629   6.375   6.164   2.536
 1579W        W 5630   3.279   8.569  10.395
 1580W        W 5631   2.702   5.545   2.819
 1581W        W 5632   0.299   9.464  11.329
 1582W        W 5633   3.140   6.243   3.382
 1583W        W 5634   0.584   1.483   3.669
 1584W        W 5635   0.295   7.076  11.775
 1585W        W 5636   3.677   3.854  11.814
 1586W        W 5637   9.854   0.001   1.822
 1587W        W 5638  10.396   1.287  11.361
 1588W        W 5639   6.248   7.904   0.390
 1589W        W 5640  11.000  10.008   1.466
 1590W        W 5641  10.821   1.351   9.621
 1591W        W 5642  10.450   6.492  11.983
 1592W        W 5643   0.761   1.192   3.120
 1593W        W 5644   0.913   3.789   2.562
 1594W        W 5645   9.675   2.150   2.630
 1595W        W 5646   3.155   2.086  10.755
 1596W        W 5647   4.523   0.961  10.094
 1597W        W 5648   1.362   2.325   1.915
 1598W        W 5649   8.853   4.593   2.227
 1599W        W 5650   5.793   9.021   9.946
 1600W        W 5651  11.010   9.862   2.339
 1601W        W 5652   8.859   1.729   1.023
 1602W        W 5653   8.009   7.467   1.309
 1603W        W 5654   9.038   7.641   2.899
 1604W        W 5655  10.015   6.997   8.994
 1605W        W 5656   3.385   3.390   1.407
 1606W        W 5657   9.171   7.585  11.942
 1607W        W 5658  10.629   3.610   9.635
 1608W        W 5659   8.097  10.303  11.873
 1609W        W 5660  10.086   8.852   8.898
 1610W        W 5661   6.966   4.625  11.732
 1611W        W 5662   6.575   1.147   9.597
 1612W        W 5663   6.256   8.973   2.678
 1613W        W 5664  10.006   8.952  11.014
 1614W        W 5665   8.323   6.837   0.764
 1615W        W 5666   2.830  11.391   8.809
 1616W        W 5667   2.492   0.063  10.370
 1617W        W 5668   6.646  10.925   1.350
 1618W        W 5669   4.583   9.043  11.938
 1619W        W 5670   9.406   2.875   0.887
 1620W        W 5671   5.010   2.838   3.166
 1621W        W 5672   0.182  10.335   1.414
 1622W        W 5673   9.823   4.799   2.309
 1623W        W 5674  10.086   0.383   9.735
 1624W        W 5675   3.303   9.955   1.316
 1625W        W 5676  10.922   6.462   1.322
 1626W        W 5677   6.103   3.655   1.993
 1627W        W 5678   4.139   4.257  11.194
 1628W        W 5679   0.708  10.832   3.392
 1629W        W 5680   9.384   8.051   1.822
 1630W        W 5681   0.436   6.183  11.770
 1631W        W 5682   4.244  10.124   3.305
 1632W        W 5683   9.477   3.927   2.304
 1633W        W 5684   2.868   2.594  10.499
 1634W        W 5685   0.770   4.201   0.695
 1635W        W 5686   1.809   0.925   8.664
 1636W        W 5687   3.804   3.610  11.376
 1637W        W 5688   2.179   5.692   9.127
 1638W        W 5689   8.111   5.832  10.976
 1639W        W 5690   4.988   9.510   8.953
 1640W        W 5691   3.742   7.526   3.284
 1641W        W 5692   5.616   3.668   2.102
 1642W        W 5693   5.056   3.546   2.778
 1643W        W 5694   0.058   6.699   2.386
 1644W        W 5695  10.476   3.231   2.699
 1645W        W 5696   5.652   7.624   1.950
 1646W        W 5697   7.332   0.905   8.456
 1647W        W 5698   7.983   5.007  10.383
 1648W        W 5699   4.443   1.088  11.048
 1649W        W 5700   2.662   3.297   0.222
 1650W        W 5701   0.416   0.270   3.423
 1651W        W 5702   3.207   3.620  10.553
 1652W        W 5703   3.202   6.049   9.807
 1653W        W 5704   9.890   2.847   1.121
 1654W        W 5705   0.409   8.621  10.058
 1655W        W 5706   7.097   2.832   0.463
 1656W        W 5707   8.092  10.051   2.356
 1657W        W 5708   0.834   8.364  11.279
 1658W        W 5709   6.195   5.294   2.403
 1659W        W 5710   1.891   2.270   1.855
 1660W        W 5711   3.214   5.322   2.472
 1661W        W 5712   5.802   5.047   0.396
 1662W        W 5713   5.165   9.743  11.722
 1663W        W 5714   1.378   5.757   1.794
 1664W        W 5715   2.160   9.026   8.913
 1665W        W 5716  10.528   6.982   9.074
 1666W        W 5717   5.543   7.958   8.683
 1667W        W 5718   4.713   0.967   3.636
 1668W        W 5719   6.425   2.126   9.313
 1669W        W 5720   1.262   7.646   9.017
 1670W        W 5721  11.234   2.814   1.718
 1671W        W 5722   3.425   2.250   3.005
 1672W        W 5723  10.891   3.649   0.922
 1673W        W 5724  10.999   6.171   0.549
 1674W        W 5725   0.872   8.648  10.286
 1675W        W 5726   2.677   0.522  11.237
 1676W        W 5727  11.482   8.076   2.594
 1677W        W 5728   7.306  10.774   2.141
 1678W        W 5729  10.418   0.443   8.907
 1679W        W 5730   5.495   6.667   0.383
 1680W        W 5731   2.695   0.258   0.242
 1681W        W 5732   3.514   4.005   2.013
 1682W        W 5733   9.605   2.903  11.057
 1683W        W 5734   4.603   9.359   9.391
 1684W        W 5735   8.707   5.115   0.350
 1685W        W 5736   5.092   4.049   0.087
 1686W        W 5737   1.683   9.492   9.603
 1687W        W 5738   4.778   1.466  11.529
 1688W        W 5739   5.646   9.385  11.778
 1689W        W 5740   1.814   0.475   1.191
 1690W        W 5741   2.732   3.642   3.044
 1691W        W 5742   9.992   4.846   1.268
 1692W        W 5743   9.013   4.815   2.665
 1693W        W 5744   0.062   9.435   3.282
 1694W        W 5745   4.559   4.816   0.470
 1695W        W 5746  10.712   5.747   3.644
 1696W        W 5747   7.072   9.855   2.256
 1697W        W 5748   6.135   4.889  10.390
 1698W        W 5749  10.984   0.757   0.846
 1699W        W 5750   8.460  10.037  10.355
 1700W        W 5751   2.704   3.659   1.535
 1701W        W 5752   3.835  10.258   0.690
 1702W        W 5753  11.133   0.042  11.800
 1703W        W 5754   4.463   9.317   1.271
 1704W        W 5755   4.663  10.799   1.746
 1705W        W 5756   9.071  11.357  10.551
 1706W        W 5757   4.238   7.763  10.939
 1707W        W 5758   5.497  10.773   1.186
 1708W        W 5759   7.923   3.202  11.609
 1709W        W 5760   5.519   6.818  10.053
 1710W        W 5761  10.134   5.161  10.518
 1711W        W 5762   6.246   3.177   2.159
 1712W        W 5763   8.446   5.184   3.329
 1713W        W 5764  10.819   0.757   0.338
 1714W        W 5765  10.106   6.285  11.685
 1715W        W 5766   8.927   3.562   9.957
 1716W        W 5767   4.827   6.970   2.486
 1717W        W 5768   3.352   8.141  11.806
 1718W        W 5769   1.085   7.945  11.092
 1719W        W 5770   2.237   0.956   3.156
 1720W        W 5771   4.205   8.406   9.483
 1721W        W 5772   8.125   7.843   3.060
 1722W        W 5773   7.855  11.487  10.386
 1723W        W 5774   1.480   3.732   1.173
 1724W        W 5775   7.268   4.504   8.196
 1725W        W 5776   6.188  11.218   9.092
 1726W        W 5777   7.864   5.479   1.740
 1727W        W 5778   5.590   1.712   8.968
 1728W        W 5779   2.769   2.685   1.975
 1729W        W 5780   0.423   4.074   0.359
 1730W        W 5781   2.411   8.574   8.813
 1731W        W 5782   3.853  11.133   8.623
 1732W        W 5783   8.405  10.929  11.781
 1733W        W 5784   9.520   0.095   9.361
 1734W        W 5785   5.558   7.984   3.661
 1735W        W 5786   8.991   9.981   3.023
 1736W        W 5787   0.418   0.339   1.040
 1737W        W 5788   6.319   8.025   0.903
 1738W        W 5789   6.223   4.089   8.135
 1739W        W 5790   5.198   2.569  11.783
 1740W        W 5791   3.157   8.306   3.019
 1741W        W 5792   3.061   5.562   1.231
 1742W        W 5793   0.738  10.461  10.638
 1743W        W 5794   5.330   6.928   3.550
 1744W        W 5795   5.986   4.190   3.643
 1745W        W 5796   8.877   5.074   1.130
 1746W        W 5797   6.184   4.312   0.976
 1747W        W 5798   4.691   3.732  10.799
 1748W        W 5799   6.602   7.969   8.523
 1749W        W 5800   0.924   2.927   0.751
 1750W        W 5801   1.683   3.259   1.921
 1751W        W 5802  10.934   5.541   2.191
 1752W        W 5803   9.440   4.256  10.897
 1753W        W 5804   3.681   6.176   9.654
 1754W        W 5805   3.625   3.551   9.896
 1755W        W 5806   6.316   5.379  10.437
 1756W        W 5807   9.905   4.681   8.901
 1757W        W 5808  10.817   7.641   9.008
 1758W        W 5809   4.250   5.585  10.878
 1759W        W 5810   5.699  10.507   8.906
 1760W        W 5811   5.909   3.789   2.868
 1761W        W 5812   7.222  10.116   0.433
 1762W        W 5813   3.401   9.751   3.653
 1763W        W 5814  11.452   8.055   1.874
 1764W        W 5815   5.691   4.112   0.259
 1765W        W 5816   4.173   6.658   0.316
 1766W        W 5817   6.913   0.753  10.317
 1767W        W 5818  10.458  10.539   0.569
 1768W        W 5819   2.912   2.965  11.913
 1769W        W 5820  10.027   2.548  11.286
 1770W        W 5821   4.442   6.665   3.574
 1771W        W 5822   1.344   8.933   2.418
 1772W        W 5823   2.151   3.327  10.489
 1773W        W 5824   7.941   9.158   9.665
 1774W        W 5825   3.280   4.000   2.877
 1775W        W 5826  11.146   9.483   9.531
 1776W        W 5827   2.749   3.735   8.958
 1777W        W 5828   9.099   8.067   2.273
 1778W        W 5829   7.802   2.850   2.814
 1779W        W 5830   7.505   3.136  10.921
 1780W        W 5831   8.521   0.622   1.192
 1781W        W 5832   6.541   0.794  11.562
 1782W        W 5833   6.451   2.253   2.430
 1783W        W 5834   9.663   8.687  11.319
 1784W        W 5835   3.262   9.783   2.375
 1785W        W 5836   4.597   0.362   1.399
 1786W        W 5837   6.718   1.095  11.968
 1787W        W 5838   5.216   1.016   3.489
 1788W        W 5839   4.479   5.377  10.447
 1789W        W 5840   0.998   8.523   9.376
 1790W        W 5841  10.781   8.466  10.874
 1791W        W 5842   7.091   9.750   1.215
 1792W        W 5843   1.949   2.230   9.993
 1793W        W 5844   6.523   8.354   0.230
 1794W        W 5845   3.372   9.108  11.525
 1795W        W 5846   6.009   7.899  11.014
 1796W        W 5847   6.235   6.470   9.832
 1797W        W 5848   1.229   0.964   0.930
 1798W        W 5849   1.431   3.088   9.906
 1799W        W 5850   1.699   4.551   3.333
 1800W        W 5851   4.038   6.739   2.864
 1801W        W 5852   6.031   1.835   9.504
 1802W        W 5853  10.785   9.108   2.953
 1803W        W 5854   9.781   8.450   8.984
 1804W        W 5855   1.491   8.021   0.033
 1805W        W 5856   9.392   6.664   1.035
 1806W        W 5857   9.376   4.688   3.569
 1807W        W 5858   0.662   6.723  11.789
 1808W        W 5859   2.615  10.555  11.448
 1809W        W 5860   3.805   2.158   9.043
 1810W        W 5861  10.877  10.938  10.004
 1811W        W 5862  10.950   6.640   3.176
 1812W        W 5863   8.029  10.074  10.080
 1813W        W 5864   4.697  10.880   3.328
 1814W        W 5865   1.481   9.662   0.055
 1815W        W 5866   9.511   2.665   1.466
 1816W        W 5867   4.286  10.819  10.613
 1817W        W 5868   9.239   5.165  10.719
 1818W        W 5869   3.227   3.832  11.537
 1819W        W 5870   5.707   4.249   9.944
 1820W        W 5871   4.087  10.032  10.238
 1821W        W 5872   1.286   9.117   2.899
 1822W        W 5873   2.571  10.061   2.961
 1823W        W 5874   6.631   9.443   9.249
 1824W        W 5875   1.620   5.559   0.457
 1825W        W 5876   8.888   4.178   9.681
 1826W        W 5877   9.907   7.171   2.638
 1827W        W 5878   2.493   5.328   1.011
 1828W        W 5879   4.171   3.111  11.054
 1829W        W 5880   1.389   5.795   9.616
 1830W        W 5881   1.081   2.946   3.494
 1831W        W 5882   1.717   6.640  11.004
 1832W        W 5883   1.202  10.950   9.384
 1833W        W 5884   4.128   5.229  11.549
 1834W        W 5885   0.565  10.313   8.931
 1835W        W 5886   5.017   5.797   9.581
 1836W        W 5887   1.380   3.774   1.825
 1837W        W 5888   0.235   3.525   9.897
 1838W        W 5889   9.972   0.480   8.665
 1839W        W 5890   9.519   1.938   9.006
 1840W        W 5891   4.626   3.230   0.249
 1841W        W 5892   9.181   0.473   9.548
 1842W        W 5893   3.592   4.199   3.268
 1843W        W 5894   8.531   5.380  10.946
 1844W        W 5895   5.666   8.713   1.862
 1845W        W 5896  10.082   2.735   9.407
 1846W        W 5897  10.219   3.413  10.890
 1847W        W 5898   7.958   9.439   8.788
 1848W        W 5899   0.803   8.254   2.318
 1849W        W 5900   0.728   8.096   9.243
 1850W        W 5901   9.086   6.645   2.908
 1851W        W 5902   8.541  10.357   0.181
 1852W        W 5903   6.575   2.649  11.191
 1853W        W 5904   0.247   5.871   1.470
 1854W        W 5905   1.820   2.790   1.206
 1855W        W 5906   3.479   8.426   1.625
 1856W        W 5907   3.828   4.813  10.856
 1857W        W 5908   8.059   2.676   8.436
 1858W        W 5909   1.534  11.019   0.856
 1859W        W 5910   6.725   9.898   0.364
 1860W        W 5911   5.847   6.226  11.464
 1861W        W 5912   4.620  11.254   2.967
 1862W        W 5913   7.164   9.389   1.963
 1863W        W 5914  10.654  11.397  11.788
 1864W        W 5915   2.017   6.288  11.864
 1865W        W 5916   7.473   3.339   1.578
 1866W        W 5917   5.746   4.115   3.203
 1867W        W 5918   8.084  10.835   1.727
 1868W        W 5919   2.460  10.886  10.905
 1869W        W 5920  11.275   4.273   2.993
 1870W        W 5921   7.182   2.640   9.477
 1871W        W 5922   9.272   0.668   1.772
 1872W        W 5923   7.193   3.255   3.035
 1873W        W 5924   2.206   3.697   3.268
 1874W        W 5925  10.328   3.389   9.978
 1875W        W 5926   1.364   9.209   1.982
 1876W        W 5927   3.729   2.091   8.443
 1877W        W 5928  10.280   3.915   9.898
 1878W        W 5929   6.955   5.373   2.031
 1879W        W 5930   4.571   2.726   0.984
 1880W        W 5931   6.223   3.673   1.490
 1881W        W 5932   8.363  10.815   9.523
 1882W        W 5933   4.740   5.240   0.762
 1883W        W 5934   7.107   4.529   1.712
 1884W        W 5935  11.041  11.338   0.270
 1885W        W 5936   9.729   5.946  11.724
 1886W        W 5937   6.700  10.445   9.460
 1887W        W 5938   5.303  10.955   8.979
 1888W        W 5939   6.288   2.361   1.383
 1889W        W 5940   4.664   0.606   2.479
 1890W        W 5941   0.480   2.769  10.569
 1891W        W 5942  10.903   2.004   2.742
 1892W        W 5943   6.511   6.153   0.977
 1893W        W 5944   1.970  10.153   1.962
 1894W        W 5945   1.154   0.874   9.100
 1895W        W 5946   3.487   9.596   9.685
 1896W        W 5947  10.402   2.794   2.447
 1897W        W 5948   1.241   8.040   9.367
 1898W        W 5949   0.353   0.841   2.438
 1899W        W 5950   1.699   5.547   1.425
 1900W        W 5951   3.186   8.848   3.131
 1901W        W 5952  10.048   4.989  10.036
 1902W        W 5953   2.088   1.813   1.746
 1903W        W 5954   8.439   3.267  10.421
 1904W        W 5955   3.789   3.100  11.380
 1905W        W 5956   9.044   6.087   9.062
 1906W        W 5957  11.185   5.726  11.224
 1907W        W 5958   1.776   4.594   1.499
 1908W        W 5959   8.737   2.511   2.824
 1909W        W 5960  11.349  10.565  11.103
 1910W        W 5961  10.045   2.613  10.317
 1911W        W 5962   8.245   0.914  10.393
 1912W        W 5963   5.489   2.077   2.581
 1913W        W 5964   5.613   0.379   9.632
 1914W        W 5965  10.966   5.216  11.481
 1915W        W 5966  10.122   3.596   9.520
 1916W        W 5967   0.280   7.258   2.975
 1917W        W 5968   3.336  11.346   1.423
 1918W        W 5969   6.712   6.141   8.680
 1919W        W 5970   1.448   7.073   8.429
 1920W        W 5971  11.396   5.670   9.207
 1921W        W 5972  10.120   6.055   2.230
 1922W        W 5973   5.041  10.320   2.314
 1923W        W 5974   0.419   9.888   3.479
 1924W        W 5975   9.172   9.579   0.335
 1925W        W 5976   9.022  10.468   2.210
 1926W        W 5977   1.801   8.944   1.822
 1927W        W 5978   2.231   2.766  10.066
 1928W        W 5979   4.105   4.244   1.551
 1929W        W 5980   2.248   1.951   3.806
 1930W        W 5981   4.113   3.340  10.041
 1931W        W 5982   0.180   1.474   1.695
 1932W        W 5983   8.495  10.717   2.757
 1933W        W 5984   4.635   3.858   2.812
 1934W        W 5985   6.621   8.435  10.224
 1935W        W 5986   2.993  10.445  10.112
 1936W        W 5987   3.185   1.774   9.013
 1937W        W 5988   9.588  10.773   1.013
 1938W        W 5989   3.504   8.002   0.931
 1939W        W 5990   5.413   7.827   9.184
 1940W        W 5991   4.050   2.572   2.512
 1941W        W 5992   7.698  11.037   0.458
 1942W        W 5993   3.609   2.120   0.239
 1943W        W 5994   6.580   1.263   9.069
 1944W        W 5995   8.074   8.328   2.766
 1945W        W 5996   0.887   0.383   2.376
 1946W        W 5997   6.911   3.314   0.580
 1947W        W 5998   4.183   9.072   1.693
 1948W        W 5999   3.460   0.495   3.730
 1949W        W 6000   3.675   3.560   1.790
 1950W        W 6001   9.921   4.755  10.787
 1951W        W 6002   7.222   1.867   2.688
 1952W        W 6003   8.676   3.691  11.302
 1953W        W 6004  11.422   9.877   9.322
 1954W        W 6005   9.807   0.083   0.992
 1955W        W 6006   1.473   5.104   2.123
 1956W        W 6007   2.422   6.115   8.813
 1957W        W 6008   3.372   9.496   0.403
 1958W        W 6009   8.610   5.259  11.865
 1959W        W 6010   5.992   6.063  10.974
 1960W        W 6011  10.479   3.440   0.275
 1961W        W 6012   3.100  11.350  11.119
 1962W        W 6013   8.628   8.790   1.233
 1963W        W 6014   1.773   5.975   2.205
 1964W        W 6015   1.683  10.801   9.246
 1965W        W 6016  11.286   9.763  11.366
 1966W        W 6017   5.289   8.955   0.696
 1967W        W 6018  10.572  11.346  10.938
 1968W        W 6019  11.443   7.560   1.720
 1969W        W 6020   9.915   5.590   0.023
 1970W        W 6021   1.394   1.421   3.096
 1971W        W 6022   4.774   1.704  11.984
 1972W        W 6023   6.525   7.563   1.007
 1973W        W 6024   4.978   6.533   3.594
 1974W        W 6025   3.849   3.167   1.490
 1975W        W 6026   7.127   8.849  11.056
 1976W        W 6027   3.264   2.682   1.750
 1977W        W 6028   2.255   7.917   1.198
 1978W        W 6029   3.691   0.297   3.204
 1979W        W 6030   4.158  11.205  10.292
 1980W        W 6031  10.424   5.181  11.477
 1981W        W 6032   2.837   8.802   0.790
 1982W        W 6033  10.865   3.282   9.303
 1983W        W 6034   3.944   7.126   9.260
 1984W        W 6035   3.853   3.385  11.827
 1985W        W 6036  11.406   3.115   9.985
 1986W        W 6037   2.219   8.924  11.311
 1987W        W 6038   6.217  10.806  10.746
 1988W        W 6039   2.194   2.216  11.495
 1989W        W 6040   3.266   9.059  10.638
 1990W        W 6041   1.294   5.287   1.654
 1991W        W 6042   9.750   4.595  10.200
 1992W        W 6043   3.894   8.191   8.369
 1993W        W 6044   8.105  10.455   2.039
 1994W        W 6045   6.970   8.426   0.547
 1995W        W 6046   5.540   2.362   9.745
 1996W        W 6047   0.689   5.994   1.225
 1997W        W 6048   1.681   6.705  11.990
 1998W        W 6049   6.079   8.899   1.625
 1999W        W 6050   0.641   1.831   9.038
 2000W        W 6051   2.765   1.121  10.432
 2001W        W 6052   6.058   0.415   2.267
 2002W        W 6053   8.552   9.721   1.614
 2003W        W 6054  11.438   0.906  11.854
 2004W        W 6055   7.214   7.833   9.934
 2005W        W 6056   8.629  10.021  11.085
 2006W        W 6057   3.330   2.249   9.785
 2007W        W 6058   1.797   6.428   1.932
 2008W        W 6059   3.649   8.914   9.035
 2009W        W 6060   2.252   3.670  11.277
 2010W        W 6061  10.065   0.206   1.429
 2011W        W 6062   8.261   1.548  11.295
 2012W        W 6063   2.907   1.863  11.252
 2013W        W 6064   8.388   9.587   0.028
 2014W        W 6065   0.317   7.943   9.550
 2015W        W 6066   2.700   3.464   8.526
 2016W        W 6067   1.255   9.343   3.401
 2017W        W 6068  10.802   7.047  10.847
 2018W        W 6069   3.844   7.495   0.251
 2019W        W 6070   2.006   7.707   3.175
 2020W        W 6071   1.847   1.377   1.946
 2021W        W 6072   9.395   9.362  11.872
 2022W        W 6073   1.619  10.510   1.780
 2023W        W 6074   8.014  11.462   0.888
 2024W        W 6075   8.591   0.605   2.280
 2025W        W 6076   4.268   4.560  11.693
 2026W        W 6077   2.403   7.430   4.090
 2027W        W 6078   9.535   9.835   9.050
 2028W        W 6079   8.065   5.307   3.622
 2029W        W 6080   9.641  10.959  11.300
 2030W        W 6081   8.901   3.632  10.838
 2031W        W 6082   6.119   9.487   0.772
 2032W        W 6083   2.621  10.885   0.210
 2033W        W 6084  10.523   0.484   3.177
 2034W        W 6085   1.548   2.418   0.091
 2035W        W 6086  10.870   1.193   8.595
 2036W        W 6087   9.096  11.273   2.188
 2037W        W 6088   8.161   7.532   1.820
 2038W        W 6089   3.085   1.487   3.349
 2039W        W 6090   2.239   4.923   3.797
 2040W        W 6091   0.117   6.768  10.136
 2041W        W 6092  10.371   7.009  11.963
 2042W        W 6093  10.827   6.106  11.197
 2043W        W 6094   1.665   2.787   3.194
 2044W        W 6095  10.123   2.788   8.886
 2045W        W 6096   4.815  10.071   1.371
 2046W        W 6097   5.694  11.355   8.938
 2047W        W 6098   2.784   4.561   1.466
 2048W        W 6099   4.505  11.258  11.967
 2049W        W 6100   8.964   9.488  10.296
 2050W        W 6101   3.051   7.807   0.702
 2051W        W 6102   5.671   8.152   1.809
 2052W        W 6103   6.420   3.349   9.357
 2053W        W 6104   1.104   2.202   1.490
 2054W        W 6105   5.549   5.701   0.452
 2055W        W 6106   8.909   5.926  11.417
 2056W        W 6107  11.469   6.729   0.849
 2057W        W 6108   6.739  10.429   1.491
 2058W        W 6109   4.370   6.531   0.971
 2059W        W 6110  10.776   5.153   1.396
 2060W        W 6111   0.365  10.358   9.884
 2061W        W 6112   6.956   3.761   2.282
 2062W        W 6113   4.037   7.929   0.978
 2063W        W 6114   5.511   3.294   1.694
 2064W        W 6115  11.255   0.409  11.101
 2065W        W 6116   1.804  10.416   2.780
 2066W        W 6117   0.997   9.942   1.343
 2067W        W 6118  10.456   8.954  11.289
 2068W        W 6119   9.658   8.163   9.568
 2069W        W 6120   1.905   2.519  11.761
 2070W        W 6121   5.959   6.183   8.932
 2071W        W 6122   0.650   1.638   1.878
 2072W        W 6123   2.214  11.336  10.914
 2073W        W 6124   4.180  10.289   2.391
 2074W        W 6125   5.206   9.771   4.149
 2075W        W 6126   2.942   8.386   8.108
 2076W        W 6127   2.833   2.943  10.887
 2077W        W 6128   7.390   2.995  11.751
 2078W        W 6129   5.450   4.662   0.345
 2079W        W 6130   1.800   0.218   3.255
 2080W        W 6131  10.898   5.974   2.430
 2081W        W 6132   6.943   9.912  11.473
 2082W        W 6133   5.751   4.776  10.047
 2083W        W 6134  11.473   5.069   1.838
 2084W        W 6135   8.086   2.845   8.958
 2085W        W 6136   4.127   3.036   2.720
 2086W        W 6137   3.601  11.059   0.387
 2087W        W 6138   2.275   9.067   3.252
 2088W        W 6139   1.684   1.874   0.772
 2089W        W 6140   0.294  10.051  10.642
 2090W        W 6141  10.447   5.487   9.425
 2091W        W 6142  10.816   9.678  10.439
 2092W        W 6143   1.389   1.757  11.276
 2093W        W 6144   9.246   3.895   1.817
 2094W        W 6145   2.616   3.190   1.793
 2095W        W 6146   8.570   1.838   9.541
 2096W        W 6147   8.195  11.105  10.450
 2097W        W 6148   8.225   5.066   0.477
 2098W        W 6149   2.405   5.326   0.026
 2099W        W 6150   3.170   7.960   1.314
 2100W        W 6151   3.669   7.576   9.206
 2101W        W 6152   1.327   9.434   2.449
 2102W        W 6153   7.619  10.380   8.996
 2103W        W 6154   0.077   0.534   9.804
 2104W        W 6155  10.378   2.435   0.311
 2105W        W 6156  11.046   5.984  11.650
 2106W        W 6157   1.958   3.163   9.133
 2107W        W 6158  10.009   6.180   9.901
 2108W        W 6159   6.165  10.825   2.878
 2109W        W 6160  11.451   2.756   2.186
 2110W        W 6161   7.151   7.024  11.540
 2111W        W 6162   0.046   3.348  11.374
 2112W        W 6163   5.741   0.816   2.202
 2113W        W 6164   0.199   3.183  11.862
 2114W        W 6165   3.887   1.049  11.389
 2115W        W 6166   1.899   0.246  10.863
 2116W        W 6167   6.017   4.398  10.317
 2117W        W 6168   9.339   7.584   8.827
 2118W        W 6169   3.309   5.122   9.633
 2119W        W 6170   3.403   3.260   3.146
 2120W        W 6171   3.587   9.322  10.249
 2121W        W 6172  10.176   0.286   2.895
 2122W        W 6173   3.996   8.906   9.428
 2123W        W 6174   5.515   8.298   4.069
 2124W        W 6175   2.186   8.423   2.127
 2125W        W 6176  10.423   6.542   2.434
 2126W        W 6177   8.124   9.970   0.259
 2127W        W 6178  11.329   3.914   1.023
 2128W        W 6179   0.838   7.439   1.752
 2129W        W 6180  10.533   6.788   1.334
 2130W        W 6181   1.927   9.678  11.315
 2131W        W 6182   3.287   2.241  10.285
 2132W        W 6183   8.558   2.643   3.625
 2133W        W 6184   4.614   2.417   9.583
 2134W        W 6185   3.172   9.416  11.925
 2135W        W 6186   2.109   5.607   0.334
 2136W        W 6187  10.027   1.213   2.584
 2137W        W 6188   1.047   3.646   1.468
 2138W        W 6189   9.607   9.799  10.813
 2139W        W 6190   0.788   6.127  10.395
 2140W        W 6191  10.041   0.800   9.082
 2141W        W 6192   9.137   1.253   3.228
 2142W        W 6193   9.253   8.350  11.471
 2143W        W 6194   1.889   1.932   1.271
 2144W        W 6195   4.370   4.396   0.195
 2145W        W 6196   8.649   1.757   0.427
 2146W        W 6197   9.762   6.717   1.844
 2147W        W 6198   1.660   9.408   1.613
 2148W        W 6199   4.498   8.373  10.046
 2149W        W 6200   3.764   9.672   8.848
 2150W        W 6201   3.654   0.270   2.269
 2151W        W 6202   0.454   8.851   9.298
 2152W        W 6203   2.464   3.244   3.210
 2153W        W 6204   5.062   2.996  10.026
 2154W        W 6205   5.236   8.612   3.084
 2155W        W 6206   1.435   1.739  11.779
 2156W        W 6207   9.994  10.508  11.821
 2157W        W 6208   4.564   4.214   3.406
 2158W        W 6209   4.126   2.560   0.773
 2159W        W 6210   8.284   3.696   1.872
 2160W        W 6211   0.545  10.339   1.827
 2161W        W 6212   7.865   4.096   9.339
 2162W        W 6213   0.772   3.667   9.051
 2163W        W 6214   7.060   3.356  11.046
 2164W        W 6215   1.609  10.538  10.386
 2165W        W 6216   6.612   4.552   0.863
 2166W        W 6217   5.252   1.163   9.554
 2167W        W 6218   0.111   7.075   1.246
 2168W        W 6219   2.133  11.332   2.332
 2169W        W 6220   7.047   0.387   9.434
 2170W        W 6221   2.748   5.649  11.776
 2171W        W 6222   5.561   9.448   2.323
 2172W        W 6223   0.829   4.819  10.931
 2173W        W 6224   1.751   8.062  10.070
 2174W        W 6225   2.509   9.023   1.563
 2175W        W 6226   9.629   8.455   1.644
 2176W        W 6227   8.418   2.334   3.217
 2177W        W 6228   7.032   9.723   0.726
 2178W        W 6229   9.589   7.457  11.644
 2179W        W 6230  11.246   6.069   1.489
 2180W        W 6231  10.586   6.131   2.070
 2181W        W 6232   7.704   0.668   9.278
 2182W        W 6233   1.526   9.500  10.991
 2183W        W 6234   9.982   1.726   2.140
 2184W        W 6235   3.217   6.055   1.274
 2185W        W 6236   3.786   9.270  11.258
 2186W        W 6237   5.094   5.570   0.253
 2187W        W 6238   8.651   3.748  10.389
 2188W        W 6239   0.912   9.768  11.408
 2189W        W 6240   9.901   8.885   2.388
 2190W        W 6241  11.061   3.149   0.967
 2191W        W 6242   9.803   7.495   9.043
 2192W        W 6243  10.830   7.549  10.921
 2193W        W 6244   5.481   4.084   9.528
 2194W        W 6245   7.101   7.460  11.272
 2195W        W 6246   1.782   0.507   1.724
 2196W        W 6247   9.271   0.777  10.743
 2197W        W 6248   3.716   3.276   1.014
 2198W        W 6249   8.381   6.328   0.799
 2199W        W 6250   1.783   9.032   9.793
 2200W        W 6251   3.139   0.240   0.016
 2201W        W 6252   1.365   7.103   0.073
 2202W        W 6253   2.855   7.937  10.946
 2203W        W 6254  10.470  11.389   3.012
 2204W        W 6255   0.796   9.893  10.035
 2205W        W 6256   6.456   9.980   1.832
 2206W        W 6257   6.559   0.860   3.376
 2207W        W 6258   7.671   6.332   1.172
 2208W        W 6259   7.909   5.581   0.202
 2209W        W 6260   9.403   3.760  10.814
 2210W        W 6261  10.401   7.007   2.710
 2211W        W 6262   2.276   8.464   0.190
 2212W        W 6263   5.114   7.027   1.859
 2213W        W 6264   8.465  11.326  11.205
 2214W        W 6265   5.563  10.256   3.413
 2215W        W 6266  10.451   2.751  11.889
 2216W        W 6267   6.637   0.919  11.056
 2217W        W 6268  11.028   1.316   2.941
 2218W        W 6269   7.614   3.055   3.262
 2219W        W 6270   8.902   4.233  11.647
 2220W        W 6271   1.594  10.249   0.154
 2221W        W 6272  10.620   3.556   1.828
 2222W        W 6273  11.121   9.936  10.872
 2223W        W 6274   7.533   6.246  11.512
 2224W        W 6275   4.587   9.316   0.741
 2225W        W 6276  10.302  11.118   9.254
 2226W        W 6277   5.422   3.752   3.062
 2227W        W 6278   5.609   4.841   0.818
 2228W        W 6279   0.500   0.756  10.028
 2229W        W 6280   1.479   8.657   0.559
 2230W        W 6281   7.398   5.767  11.514
 2231W        W 6282   0.445   3.561  11.633
 2232W        W 6283  10.231   3.670   3.361
 2233W        W 6284   1.398   3.544   8.970
 2234W        W 6285  10.644   7.489  10.305
 2235W        W 6286  10.809   9.080   9.581
 2236W        W 6287   3.536   4.657   0.145
 2237W        W 6288  10.569  10.560   2.313
 2238W        W 6289   6.618   6.328   9.530
 2239W        W 6290   6.215   0.646   0.473
 2240W        W 6291   6.497   7.510  10.518
 2241W        W 6292   5.171   3.542   9.139
 2242W        W 6293   4.636   2.460   1.417
 2243W        W 6294   4.050   4.776   0.291
 2244W        W 6295  10.924   6.904  11.481
 2245W        W 6296   8.089   5.930   1.561
 2246W        W 6297  10.474   4.091  11.403
 2247W        W 6298   6.739   9.808  10.076
 2248W        W 6299   8.410   3.524   9.980
 2249W        W 6300   3.311   9.318   1.316
 2250W        W 6301   8.241   1.186   9.970
 2251W        W 6302   9.762   6.043  10.347
 2252W        W 6303   2.681   1.190   3.227
 2253W        W 6304   4.252   7.187   0.229
 2254W        W 6305   3.720   1.829  10.974
 2255W        W 6306   1.783   3.731   2.622
 2256W        W 6307   7.936   9.796   0.872
 2257W        W 6308  11.273   7.268  10.962
 2258W        W 6309  10.511   7.845   2.693
 2259W        W 6310   9.408   8.505  10.433
 2260W        W 6311   6.684  10.296   9.973
 2261W        W 6312   7.096   5.155  11.806
 2262W        W 6313   2.378   9.477   2.152
 2263W        W 6314   4.350   8.576   2.906
 2264W        W 6315  10.419   7.990   0.050
 2265W        W 6316   5.562   7.125   2.194
 2266W        W 6317   2.906   7.257  10.293
 2267W        W 6318   3.826   4.576   9.048
 2268W        W 6319   0.355   0.994  10.515
 2269W        W 6320  11.212   3.660   9.992
 2270W        W 6321   6.228   3.155   2.747
 2271W        W 6322   1.193   8.770  11.940
 2272W        W 6323   3.556   8.485   2.237
 2273W        W 6324   0.070  10.100  11.102
 2274W        W 6325   0.376   6.399   9.273
 2275W        W 6326   3.725  10.514   2.452
 2276W        W 6327   1.948   4.311  11.915
 2277W        W 6328   7.937   1.451   2.605
 2278W        W 6329   2.219  10.797  10.083
 2279W        W 6330   1.231  10.945  11.854
 2280W        W 6331   7.558   4.510   0.967
 2281W        W 6332   4.590   0.687   8.962
 2282W        W 6333   7.718   8.483  10.863
 2283W        W 6334   3.406   1.760  10.442
 2284W        W 6335   8.537   8.172  10.442
 2285W        W 6336   3.365   0.292   8.368
 2286W        W 6337   6.212   7.003  11.405
 2287W        W 6338   0.452   8.135   1.709
 2288W        W 6339   4.460   0.380   3.331
 2289W        W 6340   6.317   6.959   2.670
 2290W        W 6341   2.440   6.606   0.175
 2291W        W 6342   2.959   5.121  10.012
 2292W        W 6343   5.943  10.925   0.953
 2293W        W 6344   8.984   9.098   0.036
 2294W        W 6345   0.564  11.482   2.307
 2295W        W 6346   8.705   0.406   3.251
 2296W        W 6347   4.594  10.401  10.840
 2297W        W 6348   4.265   7.622   2.708
 2298W        W 6349   1.680   9.011   8.737
 2299W        W 6350   5.495   0.192   0.894
 2300W        W 6351   5.317   6.869  11.277
 2301W        W 6352  10.278   9.879   2.644
 2302W        W 6353   2.580   8.550  11.503
 2303W        W 6354  10.912   4.340  11.349
 2304W        W 6355   1.412   2.827   0.883
 2305W        W 6356   3.128  11.363   9.689
 2306W        W 6357   7.550   7.535   9.388
 2307W        W 6358   6.634   1.967   0.045
 2308W        W 6359   8.382   5.539   1.688
 2309W        W 6360   2.181  10.003  10.379
 2310W        W 6361   2.786   7.066   0.173
 2311W        W 6362   2.352   7.620   2.781
 2312W        W 6363  11.422   7.707   2.228
 2313W        W 6364   2.746   6.029   9.549
 2314W        W 6365   6.138   0.897   2.514
 2315W        W 6366   0.063   2.703   1.319
 2316W        W 6367   7.332   0.354  11.967
 2317W        W 6368   4.534  10.444   9.818
 2318W        W 6369   9.474   5.562   1.595
 2319W        W 6370   5.610   9.934   9.987
 2320W        W 6371  10.890   0.239   8.881
 2321W        W 6372   6.200   8.454   2.643
 2322W        W 6373   6.966   6.022   1.702
 2323W        W 6374   8.417   9.476   9.018
 2324W        W 6375   6.758   8.960   8.309
 2325W        W 6376   8.360  11.204   1.167
 2326W        W 6377   6.501   3.643   0.707
 2327W        W 6378   5.596   6.917   3.104
 2328W        W 6379   8.027   6.600   2.262
 2329W        W 6380   9.445   0.054   2.404
 2330W        W 6381   1.952   4.606  11.454
 2331W        W 6382   6.482   2.777   1.152
 2332W        W 6383   1.931   7.612   1.450
 2333W        W 6384   4.506   8.222  11.145
 2334W        W 6385  10.609   9.200   0.991
 2335W        W 6386   6.444   4.341  11.416
 2336W        W 6387   3.239   1.816   0.420
 2337W        W 6388   8.982   6.747   3.775
 2338W        W 6389   1.750   8.660   1.362
 2339W        W 6390   7.471   4.680   0.495
 2340W        W 6391   3.008   0.454   1.999
 2341W        W 6392   0.743   6.746   3.508
 2342W        W 6393   8.003   5.098   0.955
 2343W        W 6394   3.697   3.074  10.104
 2344W        W 6395   9.700   6.196   0.676
 2345W        W 6396   7.788   3.759   8.968
 2346W        W 6397   2.984   9.708   9.595
 2347W        W 6398   8.146  10.881   0.223
 2348W        W 6399  10.405   5.789   1.283
 2349W        W 6400   6.105   0.419   0.925
 2350W        W 6401   0.049   2.304   0.991
 2351W        W 6402   5.696   0.895   0.018
 2352W        W 6403   9.799   4.254  12.000
 2353W        W 6404   0.208   6.762   2.940
 2354W        W 6405   0.230  10.993   9.418
 2355W        W 6406   5.466   3.235  10.779
 2356W        W 6407   2.157   6.829  11.271
 2357W        W 6408   4.091   0.475   2.953
 2358W        W 6409   2.766   5.569   2.286
 2359W        W 6410  10.905   6.482   2.273
 2360W        W 6411   8.383   2.406  10.582
 2361W        W 6412   6.281   5.204   0.536
 2362W        W 6413   8.964   7.942   1.280
 2363W        W 6414  10.849   7.252  11.943
 2364W        W 6415   5.088   2.257   8.606
 2365W        W 6416   5.867   6.728  11.987
 2366W        W 6417   3.640   5.590   1.191
 2367W        W 6418   2.824  10.051   2.512
 2368W        W 6419   7.649   9.955   1.338
 2369W        W 6420   8.126   5.791   2.084
 2370W        W 6421   7.616   2.894  10.422
 2371W        W 6422   9.092   4.098   1.344
 2372W        W 6423   6.197   4.134  10.969
 2373W        W 6424   7.772   3.457   2.942
 2374W        W 6425   6.060   9.622  11.321
 2375W        W 6426  10.396   1.159  10.836
 2376W        W 6427   7.755   4.405   3.364
 2377W        W 6428   6.256   6.504   1.272
 2378W        W 6429  10.971   2.826   3.051
 2379W        W 6430   7.241   6.603  11.884
 2380W        W 6431   7.946   2.115   3.426
 2381W        W 6432   0.374   3.176  10.268
 2382W        W 6433   0.067  11.325   2.363
 2383W        W 6434   1.573   1.802   8.546
 2384W        W 6435   4.093   3.969   0.100
 2385W        W 6436   8.509   4.684   1.867
 2386W        W 6437   9.787   2.012   3.102
 2387W        W 6438   0.891   5.542   0.941
 2388W        W 6439   7.926   3.260  10.631
 2389W        W 6440   3.266   7.884   2.741
 2390W        W 6441   1.799   5.520   1.954
 2391W        W 6442   2.911  10.505   2.329
 2392W        W 6443   5.475   3.733   9.991
 2393W        W 6444   0.082   6.979   0.400
 2394W        W 6445   1.615   7.533   8.651
 2395W        W 6446   6.666   2.410   3.187
 2396W        W 6447   8.507   1.291   0.215
 2397W        W 6448   1.854   2.766   1.719
 2398W        W 6449   3.620   1.789   0.840
 2399W        W 6450   4.575  11.310   1.926
 2400W        W 6451   0.941   5.519   1.951
 2401W        W 6452   5.299   7.081   2.671
 2402W        W 6453   7.097  10.847  11.704
 2403W        W 6454  10.752   8.511  11.397
 2404W        W 6455   9.806   7.093  11.087
 2405W        W 6456   4.663   1.705  11.075
 2406W        W 6457   9.989   6.564   0.881
 2407W        W 6458   2.931   5.088   9.073
 2408W        W 6459  10.773   4.621  10.474
 2409W        W 6460   0.313   6.287  10.269
 2410W        W 6461   3.261   6.913   0.301
 2411W        W 6462   6.186   1.445   0.647
 2412W        W 6463   1.826   7.155  11.783
 2413W        W 6464   0.750   9.378   1.679
 2414W        W 6465   4.041   1.795   9.745
 2415W        W 6466   7.394  10.814  10.925
 2416W        W 6467   0.677   0.442   0.373
 2417W        W 6468  11.145   6.918   2.187
 2418W        W 6469   5.241   2.622  11.285
 2419W        W 6470   6.549  10.518  11.795
 2420W        W 6471   9.875   6.931   8.473
 2421W        W 6472   3.347   3.627   0.944
 2422W        W 6473   7.921   1.852   9.569
 2423W        W 6474   1.306   9.929   2.393
 2424W        W 6475   9.873   7.117   9.967
 2425W        W 6476   5.380   1.200   0.316
 2426W        W 6477   6.968  10.835  11.184
 2427W        W 6478   5.450   4.326  10.393
 2428W        W 6479   1.850   7.067  10.780
 2429W        W 6480   2.250   8.056   3.490
 2430W        W 6481   5.380   2.278   0.307
 2431W        W 6482   8.991   0.072   0.504
 2432W        W 6483   8.994   5.557  11.074
 2433W        W 6484   1.867   1.188   2.880
 2434W        W 6485   2.806   5.942   0.948
 2435W        W 6486   4.343   3.911   1.861
 2436W        W 6487  10.517   9.321  10.927
 2437W        W 6488  10.103   1.413   3.061
 2438W        W 6489   8.859  10.786   9.972
 2439W        W 6490  10.940   9.956   9.553
 2440W        W 6491  10.060   4.786   1.852
 2441W        W 6492   0.578   0.438   2.789
 2442W        W 6493   8.170   9.740   2.766
 2443W        W 6494   2.222   6.685  10.053
 2444W        W 6495   0.920  10.829   1.452
 2445W        W 6496   2.711   1.451  10.002
 2446W        W 6497   9.924   9.248   8.624
 2447W        W 6498   6.509   7.847   1.447
 2448W        W 6499   0.270   4.766   3.337
 2449W        W 6500   8.361   9.179  10.609
 2450W        W 6501   3.211   3.144   0.893
 2451W        W 6502  10.922  11.476  10.013
 2452W        W 6503   8.573   5.527   9.539
 2453W        W 6504  10.573   8.997  10.004
 2454W        W 6505   1.297   1.476   0.926
 2455W        W 6506   8.515  10.400   2.331
 2456W        W 6507  11.186   5.630   3.195
 2457W        W 6508   6.003   6.698  10.219
 2458W        W 6509   7.320   3.227   1.079
 2459W        W 6510   9.539   4.646   9.260
 2460W        W 6511   3.590   5.062  11.402
 2461W        W 6512   2.934  10.555   0.492
 2462W        W 6513   6.189   1.047  11.279
 2463W        W 6514   5.692   8.777   3.274
 2464W        W 6515   2.739   0.475   0.701
 2465W        W 6516   8.486   7.652   1.420
 2466W        W 6517   3.168   4.265   1.710
 2467W        W 6518   0.098   0.399   3.004
 2468W        W 6519   8.280   5.522   4.046
 2469W        W 6520   1.654   9.468   2.837
 2470W        W 6521  10.709   1.259   0.135
 2471W        W 6522   6.590   5.049   0.922
 2472W        W 6523   2.204   9.489   9.663
 2473W        W 6524   1.321   6.152   2.998
 2474W        W 6525   1.949   4.616   2.895
 2475W        W 6526   8.991   5.914   9.842
 2476W        W 6527   2.211   6.662   2.639
 2477W        W 6528  11.034   8.711   3.190
 2478W        W 6529   8.497   4.166  11.323
 2479W        W 6530   3.174   4.997   2.994
 2480W        W 6531   3.618   9.838  10.267
 2481W        W 6532   7.792   0.280  11.784
 2482W        W 6533   6.199  10.814   9.467
 2483W        W 6534  10.562   8.195   2.323
 2484W        W 6535   5.202  11.499   2.228
 2485W        W 6536   0.532   5.033   0.239
 2486W        W 6537   3.330   4.220  11.853
 2487W        W 6538   3.882   1.716  10.276
 2488W        W 6539   3.668   0.243   0.856
 2489W        W 6540   3.231   9.761   0.847
 2490W        W 6541   7.475   8.922   9.674
 2491W        W 6542   5.258   8.762   1.162
 2492W        W 6543   2.290  11.440   2.819
 2493W        W 6544   9.027   3.128   2.300
 2494W        W 6545   1.403   0.739   1.392
 2495W        W 6546  10.867   0.019  11.326
 2496W        W 6547   8.014   1.795   2.982
 2497W        W 6548  11.286  11.230   9.258
 2498W        W 6549   9.910   5.231   0.377
 2499W        W 6550   5.519   5.354   0.039
 2500W        W 6551   3.134   9.207   9.629
 2501W        W 6552   3.630   4.925   2.235
 2502W        W 6553   1.792   7.661   9.144
 2503W        W 6554   9.319   8.463   9.889
 2504W        W 6555   8.962   6.380   0.115
 2505W        W 6556  10.605   8.958   1.906
 2506W        W 6557   3.263  11.435   0.482
 2507W        W 6558   1.100   9.368   1.323
 2508W        W 6559   5.290   0.495   3.531
 2509W        W 6560   7.142  10.832   2.636
 2510W        W 6561   2.103   7.228   3.298
 2511W        W 6562   1.705   5.054   3.097
 2512W        W 6563   5.687   5.671  10.054
 2513W        W 6564   0.086   3.596   2.051
 2514W        W 6565   0.901   7.180  11.856
 2515W        W 6566   9.676   7.985  10.937
 2516W        W 6567   1.326   3.628  11.195
 2517W        W 6568   8.282  10.930   2.311
 2518W        W 6569   1.793   4.712  10.566
 2519W        W 6570   9.831   5.674   1.981
 2520W        W 6571   3.468   8.041   9.337
 2521W        W 6572   2.618   4.135   3.112
 2522W        W 6573   6.262   1.144   9.988
 2523W        W 6574   5.502   3.760   2.566
 2524W        W 6575   3.078   8.641  11.420
 2525W        W 6576   9.508   5.740   1.119
 2526W        W 6577   8.338   4.175   9.522
 2527W        W 6578   2.261   0.273  11.966
 2528W        W 6579   6.503   4.020   3.672
 2529W        W 6580   4.714   9.734   0.989
 2530W        W 6581   2.759   6.227   1.399
 2531W        W 6582  10.986   6.586  10.688
 2532W        W 6583   1.698   4.090   0.344
 2533W        W 6584   2.924   0.308  10.714
 2534W        W 6585  10.436   9.453   1.869
 2535W        W 6586   2.750   7.570  11.305
 2536W        W 6587   0.418   3.105   1.375
 2537W        W 6588   4.676  10.382   3.164
 2538W        W 6589   0.044   9.628  10.893
 2539W        W 6590   5.646   6.199   1.816
 2540W        W 6591   6.236   8.073   9.489
 2541W        W 6592   2.636   5.107  11.273
 2542W        W 6593   6.063   2.008  11.382
 2543W        W 6594   1.337   4.170   0.004
 2544W        W 6595   6.579   7.610   1.915
 2545W        W 6596   3.741   9.408   3.842
 2546W        W 6597   0.888   7.226   9.072
 2547W        W 6598   7.546   2.290   2.188
 2548W        W 6599  11.326   6.991   3.160
 2549W        W 6600   7.125  10.517   9.869
 2550W        W 6601   8.917   9.208  10.723
 2551W        W 6602  10.341   2.773   0.846
 2552W        W 6603   8.725   6.837  11.949
 2553W        W 6604  11.073   8.983   1.006
 2554W        W 6605  10.442   0.807   9.846
 2555W        W 6606  10.418   3.675   0.729
 2556W        W 6607   1.847   5.839   9.872
 2557W        W 6608   9.787  10.621   2.808
 2558W        W 6609   9.781   0.920  11.928
 2559W        W 6610  10.860   3.486  10.830
 2560W        W 6611   8.827   5.637   9.093
 2561W        W 6612   5.731   3.642   3.443
 2562W        W 6613   3.776   9.858   8.338
 2563W        W 6614   7.487   9.201   0.234
 2564W        W 6615  10.244   5.298   3.932
 2565W        W 6616   0.193   5.652   3.256
 2566W        W 6617   1.686   5.080  11.504
 2567W        W 6618  10.405   8.114  11.471
 2568W        W 6619   6.835   7.196   3.600
 2569W        W 6620   9.658   5.063  10.372
 2570W        W 6621   0.260   1.917   0.328
 2571W        W 6622   7.067   9.494   0.277
 2572W        W 6623   3.037   4.679   9.629
 2573W        W 6624   6.398   4.682  10.017
 2574W        W 6625   4.755   0.487   9.407
 2575W        W 6626   4.908   4.383  10.335
 2576W        W 6627   7.070   1.810   3.176
 2577W        W 6628   8.924   6.307   9.512
 2578W        W 6629   9.834   9.596   2.605
 2579W        W 6630   4.610   8.354  10.553
 2580W        W 6631   4.840   5.713   1.556
 2581W        W 6632   2.224   2.062   9.607
 2582W        W 6633  11.241   5.272   8.931
 2583W        W 6634   6.485   2.714   2.188
 2584W        W 6635   9.347   8.525   0.749
 2585W        W 6636  10.333   3.154   3.709
 2586W        W 6637   2.903   2.470   9.979
 2587W        W 6638  10.563   3.687   2.959
 2588W        W 6639   3.611   7.566  10.245
 2589W        W 6640   1.757   8.435  10.472
 2590W        W 6641   4.974   3.510   0.938
 2591W        W 6642   0.981   2.634   1.745
 2592W        W 6643   3.820  10.924   9.486
 2593W        W 6644  11.385   2.151   3.445
 2594W        W 6645   8.924   5.098   9.800
 2595W        W 6646   0.027   5.562   3.759
 2596W        W 6647   7.358   6.437   0.760
 2597W        W 6648   1.218   0.948   3.251
 2598W        W 6649   3.145   0.187   2.414
 2599W        W 6650   2.729   6.898   9.915
 2600W        W 6651   8.046   3.821  11.028
 2601W        W 6652   9.705   5.221   2.554
 2602W        W 6653   7.248  10.016   8.970
 2603W        W 6654   2.276   5.757   9.608
 2604W        W 6655   3.594   1.773   9.357
 2605W        W 6656  10.968   4.811   9.362
 2606W        W 6657   8.508  11.171   3.675
 2607W        W 6658   3.913   9.336   1.340
 2608W        W 6659   8.041   9.191  10.178
 2609W        W 6660   0.923   5.348   9.090
 2610W        W 6661   0.378   7.681   1.976
 2611W        W 6662   1.628  11.333   2.425
 2612W        W 6663   9.318  10.384   1.345
 2613W        W 6664   0.848   4.838   9.087
 2614W        W 6665   3.272  10.297   0.858
 2615W        W 6666   7.204   2.256   9.155
 2616W        W 6667   9.508   1.504  10.328
 2617W        W 6668   3.787   5.069   1.234
 2618W        W 6669  10.343   7.914  10.300
 2619W        W 6670  10.987   9.333   2.069
 2620W        W 6671   1.802   0.423   0.663
 2621W        W 6672   2.848   9.923  11.953
 2622W        W 6673   0.514   3.220   2.707
 2623W        W 6674   3.900   5.595   1.627
 2624W        W 6675   9.216  10.614  11.701
 2625W        W 6676   2.185   1.744   0.864
 2626W        W 6677   2.233   6.177   2.461
 2627W        W 6678  10.971   7.519   3.488
 2628W        W 6679   7.257   5.666  10.729
 2629W        W 6680   2.735   9.069   2.980
 2630W        W 6681   1.350   5.472  11.126
 2631W        W 6682   5.647   0.729   8.924
 2632W        W 6683   0.378  11.018   2.110
 2633W        W 6684   9.488  10.604   9.365
 2634W        W 6685  10.335   2.286   1.667
 2635W        W 6686   3.142   1.651   0.913
 2636W        W 6687   4.516   3.679   9.939
 2637W        W 6688   7.916   7.112   1.665
 2638W        W 6689   2.080   4.231   8.871
 2639W        W 6690   0.409   4.785  10.273
 2640W        W 6691  10.740   8.612   0.881
 2641W        W 6692   5.405   2.820   1.921
 2642W        W 6693   3.147   7.496  11.000
 2643W        W 6694   5.581   4.089   1.242
 2644W        W 6695   4.570  11.319  10.585
 2645W        W 6696   0.982   9.763  11.933
 2646W        W 6697   3.939  10.620   1.529
 2647W        W 6698   5.072  10.319  11.012
 2648W        W 6699   4.153  10.638   3.445
 2649W        W 6700   4.726   4.284  10.809
 2650W        W 6701  10.804   1.186   2.077
 2651W        W 6702   2.489   7.584   3.302
 2652W        W 6703  10.436  10.421   9.134
 2653W        W 6704   4.692   8.853   1.422
 2654W        W 6705   4.730   3.918   1.511
 2655W        W 6706   7.719   3.990   2.795
 2656W        W 6707   6.997   3.813   0.752
 2657W        W 6708   4.241   3.281   2.281
 2658W        W 6709   5.745   7.144   0.693
 2659W        W 6710   9.503  10.574   0.498
 2660W        W 6711   9.537   1.007   0.813
 2661W        W 6712  10.333   8.364  10.583
 2662W        W 6713   0.429   6.929  11.238
 2663W        W 6714   7.991   1.712  10.058
 2664W        W 6715   8.417   5.047   8.639
 2665W        W 6716   9.848   7.642   9.909
 2666W        W 6717   1.503  10.436   3.218
 2667W        W 6718   0.847   1.004  10.320
 2668W        W 6719  10.324  11.348   3.528
 2669W        W 6720   6.206   9.926  10.049
 2670W        W 6721   9.105   8.912   1.059
 2671W        W 6722   9.816  10.356   1.238
 2672W        W 6723   6.128   2.951  11.232
 2673W        W 6724   8.896   1.015  11.008
 2674W        W 6725  11.213   0.225   2.242
 2675W        W 6726   2.806   5.080   2.676
 2676W        W 6727   8.486  11.248   2.669
 2677W        W 6728   3.206  10.988   1.794
 2678W        W 6729   1.428   3.303   9.459
 2679W        W 6730   9.518   3.664  11.645
 2680W        W 6731   9.820   2.160  10.503
 2681W        W 6732   7.311   8.945   2.170
 2682W        W 6733   7.590  11.199   8.984
 2683W        W 6734   5.799   7.766   3.258
 2684W        W 6735   7.980   0.484  10.463
 2685W        W 6736   6.959   0.472   2.260
 2686W        W 6737   1.004   9.242  11.876
 2687W        W 6738   4.755   0.974  11.461
 2688W        W 6739   7.436   0.062   2.671
 2689W        W 6740   6.954   6.697   0.878
 2690W        W 6741   6.091   7.424   2.714
 2691W        W 6742   6.614   2.667   0.659
 2692W        W 6743   6.704   3.043   2.980
 2693W        W 6744   7.165   8.931   2.654
 2694W        W 6745   6.586   8.351   1.407
 2695W        W 6746   4.778   2.913   8.690
 2696W        W 6747   8.507   6.071   0.203
 2697W        W 6748   3.835   9.879  10.744
 2698W        W 6749  10.421   1.580   1.368
 2699W        W 6750   2.377   6.052  10.465
 2700W        W 6751   0.319   4.518   8.891
 2701W        W 6752   8.433   7.130  11.649
 2702W        W 6753   1.462  10.044   1.907
 2703W        W 6754   5.632   1.463   9.400
 2704W        W 6755   3.756   0.844   9.476
 2705W        W 6756   9.785  11.256   1.378
 2706W        W 6757  10.571   2.644   9.603
 2707W        W 6758   8.131   0.514   0.859
 2708W        W 6759   8.696   3.149   3.536
 2709W        W 6760   9.928   2.370   1.329
 2710W        W 6761   7.627   9.817  10.272
 2711W        W 6762   3.327   0.691   2.317
 2712W        W 6763   6.216   1.841   1.788
 2713W        W 6764   3.245   7.805   3.253
 2714W        W 6765   5.044   9.139  10.269
 2715W        W 6766   2.431   5.174   9.035
 2716W        W 6767   7.737   5.501   3.957
 2717W        W 6768   4.086   5.729  10.428
 2718W        W 6769   2.241   4.641  10.825
 2719W        W 6770   0.662  10.242   9.482
 2720W        W 6771   8.172   6.808   9.057
 2721W        W 6772   6.093   9.592   9.235
 2722W        W 6773   5.887   3.902  10.266
 2723W        W 6774   8.986   8.164   2.768
 2724W        W 6775   0.203   6.042   2.669
 2725W        W 6776  11.134   8.832  10.507
 2726W        W 6777   5.396   0.360   1.839
 2727W        W 6778   0.422   7.856  10.494
 2728W        W 6779  10.902   9.610   3.648
 2729W        W 6780   0.426   3.895   1.802
 2730W        W 6781  11.360   9.836   9.845
 2731W        W 6782   0.718   5.523   1.472
 2732W        W 6783   0.515   8.425   9.592
 2733W        W 6784   0.630   1.914  10.680
 2734W        W 6785   7.199  10.059  10.084
 2735W        W 6786   4.537   5.803  10.157
 2736W        W 6787   7.846  10.896  10.161
 2737W        W 6788  10.071   6.569   3.310
 2738W        W 6789   7.406   0.821   1.107
 2739W        W 6790   5.598   5.157   9.714
 2740W        W 6791   9.909   3.964   2.582
 2741W        W 6792   5.589   8.450  10.462
 2742W        W 6793   8.491  10.180   1.861
 2743W        W 6794   5.208   4.949  11.128
 2744W        W 6795  10.905   8.193   9.071
 2745W        W 6796   7.471   3.478  11.908
 2746W        W 6797   7.149   5.152  10.848
 2747W        W 6798  11.339  10.272  11.528
 2748W        W 6799   0.969   1.139   1.807
 2749W        W 6800   2.208   6.470  10.913
 2750W        W 6801   5.219   4.129  10.820
 2751W        W 6802   8.894   2.314  10.497
 2752W        W 6803   2.899   7.068   2.242
 2753W        W 6804   7.799   3.088   0.081
 2754W        W 6805   8.095  11.358   0.401
 2755W        W 6806   7.530   1.195   9.474
 2756W        W 6807   4.331   8.272   2.041
 2757W        W 6808   2.660   6.728   1.382
 2758W        W 6809   6.502   3.243   1.470
 2759W        W 6810   2.392   4.701   8.839
 2760W        W 6811   7.087   9.922  11.992
 2761W        W 6812  11.127   5.719   0.724
 2762W        W 6813   5.935  10.087   1.865
 2763W        W 6814   9.599   7.966   2.373
 2764W        W 6815   5.247   4.766  10.216
 2765W        W 6816  10.022   1.327   9.025
 2766W        W 6817   5.586   0.392  11.995
 2767W        W 6818   4.810  10.383   0.314
 2768W        W 6819   7.613   8.145   1.093
 2769W        W 6820   2.239   6.123   0.347
 2770W        W 6821   2.829   9.032   1.953
 2771W        W 6822   2.244   0.415   1.504
 2772W        W 6823   2.189   4.682   2.377
 2773W        W 6824   4.026   2.055  11.896
 2774W        W 6825  10.540   1.210   2.717
 2775W        W 6826  10.219   5.114   9.078
 2776W        W 6827   7.733   4.510   2.857
 2777W        W 6828   2.129   5.057  11.228
 2778W        W 6829   3.954  10.689   0.354
 2779W        W 6830   8.653   7.870   3.199
 2780W        W 6831   2.898   9.623   1.247
 2781W        W 6832   5.526   1.244   2.427
 2782W        W 6833   7.690   4.663   8.454
 2783W        W 6834   2.554   4.215   9.416
 2784W        W 6835   6.996   7.571   0.804
 2785W        W 6836  10.275   4.558   0.944
 2786W        W 6837  10.388   8.672   2.295
 2787W        W 6838   4.625   2.768  11.882
 2788W        W 6839   6.490   2.200  10.225
 2789W        W 6840   8.311   3.173  11.960
 2790W        W 6841   8.220  10.502   8.907
 2791W        W 6842   5.780   9.837  10.918
 2792W        W 6843   8.504   9.143   0.255
 2793W        W 6844   5.321   2.264   1.787
 2794W        W 6845   8.511   4.638   1.364
 2795W        W 6846   5.520   8.930   2.338
 2796W        W 6847   5.892   1.210  10.783
 2797W        W 6848   9.760   4.495  11.218
 2798W        W 6849   6.521   0.600   2.759
 2799W        W 6850   2.912   3.256   1.304
 2800W        W 6851   7.210   9.386   3.404
 2801W        W 6852   3.215   6.286  10.258
 2802W        W 6853   5.055   6.491   1.810
 2803W        W 6854   4.476   7.958   9.345
 2804W        W 6855   5.705   7.479   9.429
 2805W        W 6856   9.430   3.372   9.751
 2806W        W 6857   9.521   1.200  11.298
 2807W        W 6858   3.717   4.609   2.613
 2808W        W 6859   5.514   3.687  10.533
 2809W        W 6860  10.105   7.625  11.778
 2810W        W 6861   0.780   6.939   1.750
 2811W        W 6862   0.424   7.918   0.735
 2812W        W 6863   5.672   0.768  11.492
 2813W        W 6864  11.008   8.244  10.240
 2814W        W 6865   9.901   0.230   2.251
 2815W        W 6866   9.851  11.307   9.043
 2816W        W 6867   8.618   9.292   1.913
 2817W        W 6868   7.177   1.882   8.798
 2818W        W 6869   4.695   9.085   8.954
 2819W        W 6870  10.088   4.694   9.387
 2820W        W 6871   1.346   4.136   1.464
 2821W        W 6872   7.172   0.414   3.428
 2822W        W 6873   2.434   0.990   2.237
 2823W        W 6874   1.391  11.434   3.474
 2824W        W 6875   2.987   7.064   8.111
 2825W        W 6876   8.500   0.200   9.030
 2826W        W 6877   0.631   5.793   9.055
 2827W        W 6878   9.978   9.789   8.765
 2828W        W 6879   6.632   1.248   2.433
 2829W        W 6880   4.542   1.813   9.040
 2830W        W 6881   0.273  11.278  11.621
 2831W        W 6882   9.007   6.845   0.382
 2832W        W 6883   6.248   8.991   0.775
 2833W        W 6884  10.648   7.028   2.219
 2834W        W 6885   8.971  10.015   1.962
 2835W        W 6886   3.702   0.632  11.150
 2836W        W 6887   7.874   1.654  11.946
 2837W        W 6888   3.132   1.129   2.513
 2838W        W 6889  11.364   1.269   8.790
 2839W        W 6890  10.241   6.164   2.729
 2840W        W 6891   0.440   3.555  11.123
 2841W        W 6892   8.570  10.181   3.906
 2842W        W 6893   5.222  10.602   1.872
 2843W        W 6894   6.615  10.945  11.528
 2844W        W 6895  10.896   6.838   2.670
 2845W        W 6896   7.488  10.502  11.813
 2846W        W 6897   5.631   6.119   9.369
 2847W        W 6898   1.786   6.011   2.730
 2848W        W 6899   2.381   7.045   2.300
 2849W        W 6900   0.261   9.926  11.568
 2850W        W 6901   2.259   3.886   2.800
 2851W        W 6902  11.461   8.465   3.295
 2852W        W 6903   7.136   6.396   9.626
 2853W        W 6904  10.456  10.567  11.531
 2854W        W 6905   1.063   7.433   2.231
 2855W        W 6906   3.980   3.714   2.174
 2856W        W 6907   8.964   6.357  10.465
 2857W        W 6908   6.569   8.528  11.656
 2858W        W 6909  10.451   1.918   2.337
 2859W        W 6910   1.281   3.339  10.331
 2860W        W 6911   6.069   7.130   2.245
 2861W        W 6912   4.516   3.938   9.500
 2862W        W 6913   0.860  10.717   1.980
 2863W        W 6914   0.389   8.842   0.457
 2864W        W 6915   3.768   2.184  10.087
 2865W        W 6916   7.095   0.423   9.961
 2866W        W 6917  11.050   3.803   1.956
 2867W        W 6918   7.125   0.333  11.000
 2868W        W 6919   7.548   6.664   3.838
 2869W        W 6920   9.626   7.808   0.037
 2870W        W 6921   5.014   8.176  11.180
 2871W        W 6922   4.901   7.980   2.549
 2872W        W 6923   1.588   5.880   8.521
 2873W        W 6924   6.112   9.653   2.069
 2874W        W 6925   1.752   4.158   1.796
 2875W        W 6926   1.052   7.367   8.597
 2876W        W 6927   5.332  10.309   0.413
 2877W        W 6928   0.509   9.944   0.027
 2878W        W 6929   8.348   8.667  11.952
 2879W        W 6930   8.670   5.623   3.107
 2880W        W 6931   5.585   4.714  11.439
 2881W        W 6932   0.761   1.884   0.454
 2882W        W 6933  10.113   4.296   0.418
 2883W        W 6934   6.632   1.926   0.553
 2884W        W 6935   5.312   7.398  11.369
 2885W        W 6936   5.463   9.139   9.462
 2886W        W 6937   5.640   0.826   3.245
 2887W        W 6938  10.345   4.231   2.560
 2888W        W 6939   2.074   8.792  10.836
 2889W        W 6940   6.060   7.107   1.340
 2890W        W 6941   4.800   3.852   3.687
 2891W        W 6942   5.936   2.340   2.681
 2892W        W 6943   9.341   3.771   9.055
 2893W        W 6944   1.711   4.654   1.992
 2894W        W 6945   4.757   2.261   9.110
 2895W        W 6946   2.205   6.634   1.148
 2896W        W 6947   0.039   7.526  10.576
 2897W        W 6948   3.950   9.317   2.893
 2898W        W 6949   1.997   4.174   2.409
 2899W        W 6950   5.163   2.330   4.025
 2900W        W 6951  10.071   2.205  10.043
 2901W        W 6952   3.368  10.254   2.204
 2902W        W 6953   3.727  10.804   3.158
 2903W        W 6954   7.043   9.130  10.544
 2904W        W 6955   7.990   2.803   2.269
 2905W        W 6956   7.068   3.797  10.802
 2906W        W 6957  10.845   2.635   0.237
 2907W        W 6958   7.177   9.572  10.333
 2908W        W 6959   2.317   9.978   2.330
 2909W        W 6960   4.130   6.472   2.019
 2910W        W 6961   7.594   4.714   1.867
 2911W        W 6962   0.386   1.379   8.987
 2912W        W 6963   0.906   3.759   2.010
 2913W        W 6964  11.344   6.248   2.353
 2914W        W 6965   6.767   8.922   2.257
 2915W        W 6966   2.104   0.727  10.846
 2916W        W 6967   2.895   4.680   8.692
 2917W        W 6968  11.013  10.478   9.796
 2918W        W 6969   7.557   3.624   9.946
 2919W        W 6970   0.720   3.085  11.877
 2920W        W 6971   7.610  10.307   3.220
 2921W        W 6972   4.207   3.402   1.765
 2922W        W 6973  10.843   9.500   9.949
 2923W        W 6974   9.555   8.361   3.158
 2924W        W 6975  11.025   4.541   8.891
 2925W        W 6976   8.339   9.501   1.016
 2926W        W 6977   0.966   0.150   9.698
 2927W        W 6978   9.049   4.759   0.279
 2928W        W 6979   6.715   3.805   1.432
 2929W        W 6980   5.174   5.988   1.894
 2930W        W 6981   0.788   3.045   3.082
 2931W        W 6982  10.371   5.620   8.428
 2932W        W 6983   1.001   7.949   0.092
 2933W        W 6984   7.559   3.646  10.950
 2934W        W 6985  11.250   0.258  10.540
 2935W        W 6986   1.951   8.358   2.649
 2936W        W 6987   1.821   3.688   1.577
 2937W        W 6988   8.414   4.770   0.013
 2938W        W 6989   4.753  11.205  11.142
 2939W        W 6990   0.921   3.108   1.514
 2940W        W 6991   7.317  10.001   2.783
 2941W        W 6992   6.925   4.144  11.509
 2942W        W 6993   3.310   2.733   9.616
 2943W        W 6994   1.125   1.926  10.850
 2944W        W 6995   0.643   9.307   9.494
 2945W        W 6996   1.810   8.310   0.351
 2946W        W 6997   7.402   4.846   1.409
 2947W        W 6998   5.406   7.035  11.749
 2948W        W 6999   4.675   3.455   1.343
 2949W        W 7000   0.799   5.084  10.437
 2950W        W 7001   9.946   3.225   3.348
 2951W        W 7002   1.760   8.140   9.380
 2952W        W 7003   3.035   4.787   3.428
 2953W        W 7004   9.673   1.990   0.691
 2954W        W 7005   0.756  10.108   0.881
 2955W        W 7006   2.750   8.360   9.627
 2956W        W 7007   3.764   7.971   9.952
 2957W        W 7008   8.709   3.023   2.716
 2958W        W 7009  10.586   8.200   9.953
 2959W        W 7010   0.460   1.775   3.271
 2960W        W 7011   1.722   9.960   9.805
 2961W        W 7012   2.758   4.767   3.878
 2962W        W 7013   9.964   9.905   9.860
 2963W        W 7014   0.017   0.189   1.356
 2964W        W 7015   6.630   4.536   1.943
 2965W        W 7016   1.708   0.003  11.563
 2966W        W 7017   5.029   4.324   9.461
 2967W        W 7018   5.121   9.000   3.544
 2968W        W 7019   8.212   3.057   3.655
 2969W        W 7020   7.682   6.603   8.974
 2970W        W 7021   7.166   7.572   2.770
 2971W        W 7022  10.263  10.405   2.722
 2972W        W 7023   7.179   4.221  11.043
 2973W        W 7024   9.740   3.705   3.520
 2974W        W 7025   2.766   0.735   1.659
 2975W        W 7026   8.607   9.037   0.806
 2976W        W 7027   5.021   3.149   1.828
 2977W        W 7028   3.106   0.742   1.274
 2978W        W 7029   4.822  10.690  11.228
 2979W        W 7030   2.213   5.231   4.218
 2980W        W 7031   7.127   0.494   0.800
 2981W        W 7032   2.803   6.112  11.496
 2982W        W 7033   2.128   0.748   9.967
 2983W        W 7034   1.834   9.995   8.875
 2984W        W 7035  10.701   8.640  10.357
 2985W        W 7036   0.512   5.000   8.378
 2986W        W 7037   4.158   2.670   9.516
 2987W        W 7038   7.156   6.377   4.005
 2988W        W 7039   7.467   9.064   1.652
 2989W        W 7040   3.215   6.583  10.737
 2990W        W 7041   0.985   4.407  11.201
 2991W        W 7042   2.264   3.766  10.252
 2992W        W 7043  11.310  10.958   3.321
 2993W        W 7044   9.862  10.895   3.268
 2994W        W 7045   5.962   0.933  10.337
 2995W        W 7046   1.260   7.663   0.863
 2996W        W 7047   6.897   7.036   1.576
 2997W        W 7048  10.785   6.056  10.323
 2998W        W 7049   8.670   0.451   9.456
 2999W        W 7050   4.727   4.774  10.998
 3000W        W 7051   9.675   3.634   1.667
 3001W        W 7052   9.394   6.451   2.095
 3002W        W 7053   5.769   9.934   2.378
 3003W        W 7054   8.482   7.836  10.981
 3004W        W 7055   4.669   3.643   0.537
 3005W        W 7056   3.705   3.521  10.419
 3006W        W 7057   9.137   2.746  10.327
 3007W        W 7058   4.273   7.757   0.415
 3008W        W 7059   0.676   1.576   9.488
 3009W        W 7060  10.473   0.399   0.528
 3010W        W 7061   0.281   5.887   9.456
 3011W        W 7062   1.098   8.235   8.899
 3012W        W 7063   9.090   1.718  11.467
 3013W        W 7064   8.917   9.096   1.518
 3014W        W 7065   4.598   0.239   0.874
 3015W        W 7066   1.346   3.685   0.195
 3016W        W 7067   9.266   5.640   3.270
 3017W        W 7068   8.427   9.007   9.868
 3018W        W 7069   4.015   7.446   0.746
 3019W        W 7070   9.039   2.239   1.156
 3020W        W 7071   8.390   4.364   2.241
 3021W        W 7072   6.034  10.490   0.662
 3022W        W 7073  11.278   1.814   1.665
 3023W        W 7074   7.132   4.833   2.121
 3024W        W 7075   2.114   4.224   3.166
 3025W        W 7076   3.273  10.833  10.366
 3026W        W 7077   0.850   5.342  11.357
 3027W        W 7078   5.534   2.792  10.006
 3028W        W 7079   1.822   1.685   3.079
 3029W        W 7080   4.477   7.589   0.910
 3030W        W 7081   1.783   6.031   9.393
 3031W        W 7082   4.200   7.596  11.869
 3032W        W 7083  11.119   9.181   3.388
 3033W        W 7084   4.014   6.660  10.374
 3034W        W 7085   6.173   7.913   2.656
 3035W        W 7086   5.425   1.880   8.527
 3036W        W 7087   0.589   3.415   1.779
 3037W        W 7088   3.530   1.251   3.352
 3038W        W 7089  11.025   1.056   2.505
 3039W        W 7090   4.649   8.060   0.193
 3040W        W 7091   7.444   4.021   9.659
 3041W        W 7092   7.074   6.734   3.614
 3042W        W 7093   8.701   6.478   3.194
 3043W        W 7094   5.976   5.950   0.370
 3044W        W 7095  10.458  10.788   1.863
 3045W        W 7096   4.791   1.978  11.514
 3046W        W 7097   1.470  10.346   9.076
 3047W        W 7098   8.044   3.278   1.602
 3048W        W 7099   6.329  10.723   2.321
 3049W        W 7100   5.506   8.379   9.083
 3050W        W 7101   3.328   9.579   4.142
 3051W        W 7102   2.121   5.590   3.881
 3052W        W 7103   3.990  11.033   1.208
 3053W        W 7104   7.016   3.229   0.072
 3054W        W 7105   7.875   0.776  10.059
 3055W        W 7106  10.212  10.410   8.642
 3056W        W 7107  11.474   4.122   2.033
 3057W        W 7108  10.058   3.469   2.895
 3058W        W 7109   6.725   7.339  11.933
 3059W        W 7110   2.623   0.874   9.031
 3060W        W 7111   2.583   9.615   2.610
 3061W        W 7112   0.867   6.818   2.730
 3062W        W 7113   1.407   1.238  11.944
 3063W        W 7114  11.367   1.316  11.534
 3064W        W 7115   2.046   4.845   9.842
 3065W        W 7116   3.252   5.071   8.670
 3066W        W 7117   5.092   3.911  10.373
 3067W        W 7118   1.235   1.221   1.377
 3068W        W 7119   9.953   2.255   9.055
 3069W        W 7120   7.473   4.981   9.655
 3070W        W 7121   8.958   9.145   3.021
 3071W        W 7122   2.217   9.979   9.861
 3072W        W 7123   4.611  11.100   2.398
 3073W        W 7124   6.675   7.811   0.102
 3074W        W 7125   1.713   8.682  11.397
 3075W        W 7126   8.555  10.723   1.930
 3076W        W 7127   9.968   1.470   1.631
 3077W        W 7128   7.860   3.686   2.408
 3078W        W 7129  10.807   3.116   0.048
 3079W        W 7130   1.615   7.401   3.476
 3080W        W 7131   7.549   6.588   2.452
 3081W        W 7132   9.597   6.593   3.090
 3082W        W 7133   8.437   0.645   1.703
 3083W        W 7134   8.335   0.133  10.381
 3084W        W 7135  11.337   8.034   8.814
 3085W        W 7136   3.063   7.043   2.859
 3086W        W 7137   9.884   0.928   2.981
 3087W        W 7138   2.112   1.281  10.002
 3088W        W 7139   1.686   4.591   2.481
 3089W        W 7140   3.726  10.044   9.794
 3090W        W 7141   0.740  10.562   0.580
 3091W        W 7142   5.200  11.055   3.469
 3092W        W 7143   0.051   8.548   1.780
 3093W        W 7144   8.001   1.947   1.232
 3094W        W 7145   1.188   3.206   0.077
 3095W        W 7146   7.567  11.486   0.656
 3096W        W 7147  11.204   2.249   1.377
 3097W        W 7148   6.778   8.629  10.695
 3098W        W 7149   3.803   3.710   0.737
 3099W        W 7150   8.709   1.401   9.280
 3100W        W 7151  10.932   5.062   3.216
 3101W        W 7152   9.379   8.409  10.968
 3102W        W 7153   4.733   1.668   2.882
 3103W        W 7154   6.305   7.254   3.582
 3104W        W 7155   5.993   6.212   2.216
 3105W        W 7156   0.308   8.807   8.780
 3106W        W 7157   2.949  10.924  10.777
 3107W        W 7158   6.853   2.350   0.324
 3108W        W 7159  11.236   0.786   3.672
 3109W        W 7160   4.073   7.075  11.716
 3110W        W 7161   9.769   1.435  11.982
 3111W        W 7162   1.498   7.793   3.102
 3112W        W 7163   3.858   2.752  10.852
 3113W        W 7164   3.311   4.720   9.055
 3114W        W 7165   2.236  10.463   3.059
 3115W        W 7166   5.529   3.593   3.911
 3116W        W 7167   9.479   3.332   9.252
 3117W        W 7168   6.202  10.719   8.956
 3118W        W 7169   1.331   3.633   2.326
 3119W        W 7170   1.008   3.192   9.146
 3120W        W 7171   6.270   8.772  10.832
 3121W        W 7172   5.495   5.560  11.402
 3122W        W 7173   1.817   2.822   2.259
 3123W        W 7174   1.025   8.459   0.731
 3124W        W 7175   3.809   9.474   2.439
 3125W        W 7176   5.202   2.560  10.297
 3126W        W 7177  10.634   4.417   0.259
 3127W        W 7178   4.024   4.939   8.194
 3128W        W 7179   2.782   4.620   9.189
 3129W        W 7180   1.652   5.131  10.308
 3130W        W 7181   8.900   9.625  11.912
 3131W        W 7182   9.986   0.755  10.553
 3132W        W 7183   2.863  10.898   2.622
 3133W        W 7184   8.892  10.984  10.872
 3134W        W 7185   7.100   8.438   2.865
 3135W        W 7186   4.346   8.041   1.396
 3136W        W 7187   4.187   9.782   2.287
 3137W        W 7188   0.956   9.347   9.921
 3138W        W 7189   1.231   8.791   8.851
 3139W        W 7190   9.840   3.613   9.942
 3140W        W 7191   4.208   3.591   9.229
 3141W        W 7192   9.360  10.008  10.383
 3142W        W 7193   8.860   9.422   8.722
 3143W        W 7194   7.651   8.122   2.529
 3144W        W 7195   1.351   8.384   1.487
 3145W        W 7196   8.643   2.627  11.026
 3146W        W 7197  11.326   9.344   1.285
 3147W        W 7198  10.708   6.101   0.978
 3148W        W 7199   1.909   7.909  10.539
 3149W        W 7200   1.932   0.863   2.120
 3150W        W 7201  10.389   9.376   2.745
 3151W        W 7202   2.761  11.292   9.328
 3152W        W 7203   4.183   0.932  11.833
 3153W        W 7204  10.241   8.601   0.982
 3154W        W 7205   6.637   7.665   2.787
 3155W        W 7206   3.580   0.489   1.321
 3156W        W 7207  10.746   4.820  11.234
 3157W        W 7208   3.193   6.403   0.303
 3158W        W 7209   6.712  11.424  11.352
 3159W        W 7210   1.108   1.581   8.446
 3160W        W 7211   3.816   8.809  11.454
 3161W        W 7212  10.466   4.697   1.404
 3162W        W 7213   5.393   6.520  11.808
 3163W        W 7214   5.175   0.758  11.258
 3164W        W 7215   1.306  11.042   0.373
 3165W        W 7216   3.199   3.876   1.364
 3166W        W 7217  11.283   5.775   8.711
 3167W        W 7218  10.449   3.164   9.029
 3168W        W 7219   1.360   0.105   2.987
 3169W        W 7220   6.292   7.660   3.163
 3170W        W 7221   7.870   4.153   0.706
 3171W        W 7222   6.721   3.676   3.279
 3172W        W 7223   3.854   6.593  11.791
 3173W        W 7224  10.683   5.662  11.436
 3174W        W 7225   4.742   9.926   9.714
 3175W        W 7226   4.056   0.927   1.210
 3176W        W 7227   9.592   4.295   3.299
 3177W        W 7228   8.509   8.688  10.555
 3178W        W 7229   0.070   8.988  10.266
 3179W        W 7230   0.749   6.372   0.868
 3180W        W 7231   4.259   9.016   3.177
 3181W        W 7232   6.278   0.140   0.514
 3182W        W 7233   5.856   3.327   3.066
 3183W        W 7234   2.261   5.308   2.987
 3184W        W 7235   6.450   5.879  10.537
 3185W        W 7236  10.375   7.199   9.979
 3186W        W 7237   9.821   5.748   0.501
 3187W        W 7238   3.530   8.466   0.636
 3188W        W 7239   8.368  10.029   0.707
 3189W        W 7240   9.190   6.505   3.377
 3190W        W 7241   9.216   8.024   8.560
 3191W        W 7242   1.971   2.716   0.215
 3192W        W 7243   1.671  10.011  10.321
 3193W        W 7244   4.486  10.947   1.265
 3194W        W 7245   6.227   5.731  10.082
 3195W        W 7246  10.555   3.677  11.803
 3196W        W 7247  10.004   1.797   8.768
 3197W        W 7248   9.950   6.157   3.599
 3198W        W 7249   6.962   1.300  10.978
 3199W        W 7250   0.327   2.916   3.282
 3200W        W 7251   8.490   5.843   0.677
 3201W        W 7252   8.866   5.458   1.459
 3202W        W 7253   3.319   2.726  10.159
 3203W        W 7254   4.652   6.698   9.130
 3204W        W 7255   8.481   7.431   9.790
 3205W        W 7256   3.689  10.176   8.962
 3206W        W 7257  10.695   9.499   9.305
 3207W        W 7258  11.332   8.375   0.239
 3208W        W 7259  10.900   7.018  10.324
 3209W        W 7260   3.580   1.376  11.167
 3210W        W 7261   2.107   4.449   3.624
 3211W        W 7262   3.142  10.369  11.137
 3212W        W 7263  11.237   9.385   0.204
 3213W        W 7264   8.079   7.958   0.359
 3214W        W 7265   5.785   0.553  10.645
 3215W        W 7266   0.427   8.159   1.178
 3216W        W 7267   1.286   4.323   1.927
 3217W        W 7268   2.072   5.102   8.098
 3218W        W 7269   4.022   7.944   2.345
 3219W        W 7270   7.020  10.820   1.704
 3220W        W 7271   9.429   9.854   1.754
 3221W        W 7272   3.381   4.273   2.448
 3222W        W 7273   1.638   0.546   9.092
 3223W        W 7274   0.311   3.435   8.867
 3224W        W 7275   8.078   7.666   9.991
 3225W        W 7276   9.152   1.453  11.035
 3226W        W 7277   0.812   1.266   1.042
 3227W        W 7278   3.765  11.005   2.616
 3228W        W 7279   7.369   2.431  11.337
 3229W        W 7280   4.098   4.701   2.300
 3230W        W 7281   2.848  10.266   3.392
 3231W        W 7282  10.919   9.613   1.133
 3232W        W 7283   3.089  10.445  10.638
 3233W        W 7284   5.817   1.675   2.456
 3234W        W 7285   2.836  10.081   1.022
 3235W        W 7286   9.738   4.785   3.213
 3236W        W 7287  10.851  11.317   2.667
 3237W        W 7288   6.720   1.255  11.453
 3238W        W 7289  11.060  10.381   2.323
 3239W        W 7290   0.983  11.273  10.443
 3240W        W 7291   9.294  11.320   1.397
 3241W        W 7292   0.921   6.986  11.380
 3242W        W 7293   9.347   1.944  10.536
 3243W        W 7294   5.457   1.419  10.974
 3244W        W 7295   1.734   2.067   2.726
 3245W        W 7296   7.819  10.112   2.787
 3246W        W 7297   3.260   7.286   9.070
 3247W        W 7298   4.851   8.222   2.108
 3248W        W 7299   2.826  10.588   0.999
 3249W        W 7300   8.658   2.111   1.824
 3250W        W 7301   5.697   5.113  11.073
 3251W        W 7302   0.649   3.294   0.966
 3252W        W 7303   6.574   1.253   1.932
 3253W        W 7304   0.826   4.018   9.454
 3254W        W 7305   6.989   9.987  10.550
 3255W        W 7306  10.885   8.573   2.215
 3256W        W 7307   3.615   7.545  10.768
 3257W        W 7308   0.291   2.645   0.545
 3258W        W 7309   9.006   1.864   1.491
 3259W        W 7310   0.460   9.488   9.931
 3260W        W 7311   0.704   5.787  11.581
 3261W        W 7312   1.452   1.953   0.256
 3262W        W 7313   9.495   2.854  11.982
 3263W        W 7314   4.896   9.566   1.438
 3264W        W 7315   2.505   7.569  10.227
 3265W        W 7316   6.553   6.713  10.770
 3266W        W 7317   0.391   4.793   9.345
 3267W        W 7318   8.919  10.012  10.646
 3268W        W 7319   2.885   7.213   1.406
 3269W        W 7320   7.077   3.593   1.771
 3270W        W 7321   1.009   0.947  11.782
 3271W        W 7322   9.946   1.247  11.566
 3272W        W 7323   1.703   5.698  10.839
 3273W        W 7324   5.422  11.306  10.350
 3274W        W 7325  10.539   4.622   9.115
 3275W        W 7326   0.318   7.155  10.801
 3276W        W 7327   5.435  10.397   9.774
 3277W        W 7328   1.414   0.799  11.515
 3278W        W 7329   9.820   9.339  10.126
 3279W        W 7330   2.694   2.641   9.143
 3280W        W 7331   4.979   5.362  11.322
 3281W        W 7332   1.722   4.783  11.921
 3282W        W 7333   8.890   2.918   0.793
 3283W        W 7334   4.515   7.839   2.228
 3284W        W 7335  11.483   0.730   1.399
 3285W        W 7336   6.700   7.973  10.461
 3286W        W 7337  11.276   1.559   9.795
 3287W        W 7338   4.861   9.350   9.851
 3288W        W 7339   1.840   8.986   2.809
 3289W        W 7340   8.207   8.506   1.389
 3290W        W 7341   4.145   4.706   1.296
 3291W        W 7342   0.835   9.771   9.540
 3292W        W 7343   0.935   6.424   2.405
 3293W        W 7344  10.361   8.351   2.776
 3294W        W 7345  10.916   5.697   1.206
 3295W        W 7346  10.083   5.234   2.185
 3296W        W 7347   5.774   1.217   2.919
 3297W        W 7348   9.589   8.872  11.816
 3298W        W 7349   1.214   6.714   9.221
 3299W        W 7350   5.196   5.096   0.992
 3300W        W 7351   1.267   2.480   3.361
 3301W        W 7352   5.295   2.547   2.802
 3302W        W 7353   2.321   4.768   0.665
 3303W        W 7354   1.969  10.881  10.779
 3304W        W 7355   2.210  11.256   0.749
 3305W        W 7356   0.289   9.009   9.757
 3306W        W 7357   1.209  11.273   9.987
 3307W        W 7358  11.211   6.273   8.883
 3308W        W 7359   3.646   1.792   3.187
 3309W        W 7360   3.228   8.488   9.404
 3310W        W 7361   0.060   2.934   9.493
 3311W        W 7362   6.433   3.326   0.314
 3312W        W 7363   5.043  10.815   2.474
 3313W        W 7364   2.803   0.243   9.572
 3314W        W 7365   0.820   5.811   0.077
 3315W        W 7366   2.004   8.000  11.052
 3316W        W 7367   8.834   0.761   9.834
 3317W        W 7368   2.364   1.383   2.868
 3318W        W 7369   9.490   7.103   0.343
 3319W        W 7370   7.410   8.905   8.385
 3320W        W 7371   0.075  10.535   1.892
 3321W        W 7372   1.789  10.303  10.785
 3322W        W 7373   0.788   7.307  10.988
 3323W        W 7374   8.138   4.257   2.659
 3324W        W 7375   0.451   2.714   2.352
 3325W        W 7376   8.246   6.690  11.883
 3326W        W 7377   6.928   2.706   1.778
 3327W        W 7378   5.727   5.610  10.938
 3328W        W 7379  11.259   0.722   8.833
 3329W        W 7380   4.764   7.966   9.777
 3330W        W 7381   4.375  10.856  11.098
 3331W        W 7382   3.242   0.945   9.592
 3332W        W 7383   2.432   2.814   0.048
 3333W        W 7384  10.420   3.136   9.539
 3334W        W 7385   3.408   4.657  11.629
 3335W        W 7386   3.927   8.842  10.958
 3336W        W 7387   2.653   7.232   2.662
 3337W        W 7388   3.543   5.513   8.720
 3338W        W 7389   9.468   8.029   9.077
 3339W        W 7390   8.038   0.839  10.860
 3340W        W 7391   8.243  10.497  10.329
 3341W        W 7392   5.143  11.466   8.983
 3342W        W 7393   9.108  10.885  10.405
 3343W        W 7394  10.814   7.980  11.198
 3344W        W 7395   0.719   2.588   9.801
 3345W        W 7396   1.880  10.520   1.314
 3346W        W 7397  11.008   4.402   3.643
 3347W        W 7398  11.373   3.130   3.163
 3348W        W 7399   2.426   7.153   8.977
 3349W        W 7400   6.501   4.324   9.583
 3350W        W 7401   1.906   3.839   0.840
 3351W        W 7402   9.550   4.608   1.376
 3352W        W 7403   7.949   9.801  11.781
 3353W        W 7404   7.527   7.715   0.449
 3354W        W 7405   5.028   6.488   0.267
 3355W        W 7406   6.420   4.140   8.629
 3356W        W 7407  10.233   9.074  10.365
 3357W        W 7408  11.285   6.549   0.303
 3358W        W 7409   6.512  10.932  10.341
 3359W        W 7410   5.070  11.336  10.756
 3360W        W 7411   4.730   4.144   9.906
 3361W        W 7412   4.656   9.234   1.783
 3362W        W 7413   8.861   6.577   0.808
 3363W        W 7414   2.489   3.229  11.730
 3364W        W 7415   8.758   8.012   9.481
 3365W        W 7416   6.471   2.746   8.934
 3366W        W 7417   3.723   5.685  10.815
 3367W        W 7418   3.193   1.415   9.798
 3368W        W 7419  10.126   7.914   2.376
 3369W        W 7420   9.889   7.013   3.100
 3370W        W 7421   7.415   5.728   1.777
 3371W        W 7422   2.680  10.442  10.939
 3372W        W 7423   2.185  10.481  11.063
 3373W        W 7424   5.180  10.212  11.934
 3374W        W 7425   8.992   6.604   2.423
 3375W        W 7426   1.978   8.924   3.640
 3376W        W 7427   9.544   2.646  11.517
 3377W        W 7428  11.428  10.254  10.122
 3378W        W 7429   3.141   1.829   2.970
 3379W        W 7430   4.911   5.692  10.525
 3380W        W 7431   4.669   3.434   9.486
 3381W        W 7432   8.046   1.072  11.328
 3382W        W 7433   0.813   9.282  11.394
 3383W        W 7434   7.368   3.613   2.682
 3384W        W 7435   1.683   6.701   8.937
 3385W        W 7436   3.783   9.785  11.256
 3386W        W 7437   5.259   0.675   9.378
 3387W        W 7438   5.712   5.105   9.212
 3388W        W 7439   7.518   9.429   9.502
 3389W        W 7440   3.018  10.380   1.853
 3390W        W 7441   9.795   0.399  10.859
 3391W        W 7442   3.700   3.331   2.717
 3392W        W 7443   8.178   5.866   9.442
 3393W        W 7444   6.942   6.420  10.959
 3394W        W 7445   2.558   8.808  11.939
 3395W        W 7446   3.741   5.048   8.823
 3396W        W 7447   2.259   1.363   0.504
 3397W        W 7448  11.100   0.839   1.770
 3398W        W 7449   7.949   0.791   0.472
 3399W        W 7450   9.445   5.508   0.260
 3400W        W 7451   5.738   7.655  11.491
 3401W        W 7452   6.823   9.433   8.037
 3402W        W 7453   4.491   8.117   0.739
 3403W        W 7454   8.864   6.194   2.735
 3404W        W 7455   0.429   4.543   0.158
 3405W        W 7456   6.265  10.252   9.230
 3406W        W 7457   8.404   7.057   2.566
 3407W        W 7458   2.672   9.222  10.404
 3408W        W 7459   1.921   7.083  10.253
 3409W        W 7460   3.598   3.794   2.512
 3410W        W 7461   3.376   5.436   0.461
 3411W        W 7462   6.073   5.415   1.921
 3412W        W 7463   3.859   0.869   1.669
 3413W        W 7464   7.385   2.176   3.457
 3414W        W 7465   5.747  10.922  10.970
 3415W        W 7466  11.384   8.132   9.840
 3416W        W 7467   0.720   6.001   2.621
 3417W        W 7468   5.793   8.496   2.311
 3418W        W 7469   0.745   3.361   2.272
 3419W        W 7470   7.469   3.339  11.384
 3420W        W 7471   5.979   0.023   3.163
 3421W        W 7472   5.222   1.218  10.578
 3422W        W 7473   7.432   8.523   0.281
 3423W        W 7474   1.802  10.062   1.011
 3424W        W 7475   3.719   7.003   3.269
 3425W        W 7476  11.119   8.478   1.184
 3426W        W 7477   4.629   6.212  11.746
 3427W        W 7478   1.652   4.302   0.818
 3428W        W 7479   8.022   4.624   1.176
 3429W        W 7480   6.792   4.030   2.701
 3430W        W 7481   9.056   3.229   1.413
 3431W        W 7482  10.662   7.979  10.693
 3432W        W 7483   0.088   1.048   9.893
 3433W        W 7484   9.266  10.297   9.002
 3434W        W 7485   7.953   8.215   9.266
 3435W        W 7486   8.039   0.933   1.816
 3436W        W 7487   6.145   6.759   3.112
 3437W        W 7488   4.525   1.267   0.866
 3438W        W 7489  11.448  10.744   9.987
 3439W        W 7490  11.295   6.512   2.800
 3440W        W 7491   4.533   1.604   8.546
 3441W        W 7492   2.283   3.853   9.165
 3442W        W 7493   8.949   9.902  11.478
 3443W        W 7494   1.909   5.929   0.690
 3444W        W 7495   2.916   9.063   0.333
 3445W        W 7496   2.324   1.044   9.565
 3446W        W 7497   5.056   0.795   1.189
 3447W        W 7498   9.303   1.320   1.174
 3448W        W 7499   8.339  10.886  10.910
 3449W        W 7500   0.310   5.735   0.075
 3450W        W 7501   6.688   4.220  10.934
 3451W        W 7502   2.339  11.376   1.425
 3452W        W 7503   3.715   1.408  10.663
 3453W        W 7504   3.992   1.454   3.410
 3454W        W 7505   8.905   9.946  10.111
 3455W        W 7506   7.150   2.388   8.646
 3456W        W 7507   0.987   2.628   9.363
 3457W        W 7508   9.387   4.403   8.532
 3458W        W 7509   3.784   1.280   9.135
 3459W        W 7510   4.647   3.363   3.667
 3460W        W 7511   8.457  10.324   9.431
 3461W        W 7512   0.751   7.097   3.145
 3462W        W 7513   4.488   0.134  11.012
 3463W        W 7514   4.390   6.623   2.456
 3464W        W 7515   5.645   8.012   1.191
 3465W        W 7516   4.956   3.929   3.202
 3466W        W 7517   6.226  10.208   2.258
 3467W        W 7518   5.613   3.081   1.231
 3468W        W 7519   0.406   2.187   2.471
 3469W        W 7520  10.910   2.152   0.394
 3470W        W 7521   7.028   6.545   1.704
 3471W        W 7522   4.615   0.937  10.603
 3472W        W 7523   5.200   2.087  10.038
 3473W        W 7524   8.094   7.876  11.315
 3474W        W 7525   6.395   7.680   4.084
 3475W        W 7526   8.148   6.176  11.851
 3476W        W 7527   8.796   4.769   3.500
 3477W        W 7528   1.894   1.691   0.342
 3478W        W 7529  11.195   3.355   1.807
 3479W        W 7530  11.001  10.834   9.013
 3480W        W 7531   3.738   7.933   1.446
 3481W        W 7532   9.120   1.677   2.444
 3482W        W 7533   0.252   1.869   9.369
 3483W        W 7534   0.379  10.883  11.268
 3484W        W 7535   5.549  10.671   0.683
 3485W        W 7536   8.805   4.055   2.184
 3486W        W 7537   2.043   6.121   8.434
 3487W        W 7538   9.579   1.474   8.756
 3488W        W 7539   0.534   5.583   2.852
 3489W        W 7540   2.368  10.859   2.306
 3490W        W 7541   8.785   5.818   1.840
 3491W        W 7542  10.503   4.674   2.790
 3492W        W 7543   1.336   6.103   2.477
 3493W        W 7544  10.375   1.360   9.908
 3494W        W 7545   7.630   8.056   0.109
 3495W        W 7546   6.557   8.970  10.376
 3496W        W 7547   8.021   7.708   9.142
 3497W        W 7548  10.437   9.809   9.626
 3498W        W 7549   6.468   1.930   9.786
 3499W        W 7550   8.889   0.821   2.975
 3500W        W 7551   7.171   2.083  10.022
 3501W        W 7552   8.286   0.206   8.533
 3502W        W 7553   3.241   7.033   9.992
 3503W        W 7554   0.977   3.753  10.368
 3504W        W 7555   5.726   6.503   8.609
 3505W        W 7556   8.942   6.036   3.218
 3506W        W 7557   6.501   6.669   0.669
 3507W        W 7558   9.360   4.382   0.958
 3508W        W 7559   6.704   0.404   0.495
 3509W        W 7560   2.407   3.722   0.837
 3510W        W 7561  11.449   0.419  11.638
 3511W        W 7562   7.624   7.535   1.770
 3512W        W 7563   1.656   1.324  10.337
 3513W        W 7564  11.025   9.437  10.860
 3514W        W 7565   6.389   9.841   8.881
 3515W        W 7566   4.187  10.514   1.046
 3516W        W 7567   2.748  10.470  11.962
 3517W        W 7568   5.606   2.217   3.083
 3518W        W 7569   5.644   0.682   1.003
 3519W        W 7570   5.314   1.340   3.095
 3520W        W 7571   3.320   8.045  10.727
 3521W        W 7572   4.325   5.071  10.815
 3522W        W 7573   2.227   2.497   3.305
 3523W        W 7574   7.285   4.583   3.487
 3524W        W 7575   1.930   9.859   0.272
 3525W        W 7576   6.078   3.683   9.138
 3526W        W 7577   7.207   7.492  11.786
 3527W        W 7578   3.728   2.617   0.269
 3528W        W 7579   6.005   8.251   3.552
 3529W        W 7580   9.532   0.511   0.955
 3530W        W 7581   5.662   3.142   3.561
 3531W        W 7582   9.441   7.033  10.212
 3532W        W 7583   3.766   4.103   9.652
 3533W        W 7584   1.684   3.113   0.416
 3534W        W 7585   3.343   5.996   8.727
 3535W        W 7586  10.727   9.040   2.428
 3536W        W 7587   1.935   1.648  10.596
 3537W        W 7588  11.344  10.368   9.032
 3538W        W 7589   4.380   4.408  10.336
 3539W        W 7590   3.367   2.835  11.571
 3540W        W 7591   4.101   7.443  11.351
 3541W        W 7592   3.822   4.496  10.012
 3542W        W 7593   1.643   0.402  11.271
 3543W        W 7594   4.824  11.357   1.325
 3544W        W 7595   9.320   9.119   8.458
 3545W        W 7596   1.993   2.014   8.777
 3546W        W 7597   3.023   4.101   0.822
 3547W        W 7598   2.860   3.670   1.032
 3548W        W 7599   6.168   9.935   2.694
 3549W        W 7600   2.182  10.832   9.157
 3550W        W 7601  10.876   6.974   9.463
 3551W        W 7602   5.217   8.531   9.491
 3552W        W 7603  11.119   3.775  10.494
 3553W        W 7604  11.211   8.288  11.202
 3554W        W 7605   0.252   7.549  11.985
 3555W        W 7606   0.372   8.121  10.042
 3556W        W 7607   4.298   5.126   2.079
 3557W        W 7608   6.092   3.655  11.919
 3558W        W 7609   6.568   2.068  11.533
 3559W        W 7610   7.168   3.187   2.492
 3560W        W 7611  10.021   4.381   1.540
 3561W        W 7612  10.235   6.596   0.424
 3562W        W 7613   8.485   3.784  11.935
 3563W        W 7614   4.932   8.413   0.889
 3564W        W 7615   9.968   1.334  11.063
 3565W        W 7616   3.540   6.209  11.992
 3566W        W 7617   2.598   7.077   3.141
 3567W        W 7618   1.465   1.193   8.387
 3568W        W 7619   0.400   5.578   1.052
 3569W        W 7620   6.001   8.425   0.775
 3570W        W 7621  10.315   4.742   2.316
 3571W        W 7622   7.717   6.659   1.551
 3572W        W 7623   6.450   8.576   3.607
 3573W        W 7624   1.711   8.362   0.919
 3574W        W 7625   0.613   7.040   8.661
 3575W        W 7626   1.393   1.394   8.844
 3576W        W 7627   9.551   6.123   8.516
 3577W        W 7628  11.356   1.564   9.223
 3578W        W 7629   5.865   5.058   2.711
 3579W        W 7630   7.603  11.464   0.155
 3580W        W 7631   1.412  10.740   1.324
 3581W        W 7632   7.943   1.500   1.011
 3582W        W 7633   2.379  10.466   3.545
 3583W        W 7634   0.427   8.471   3.548
 3584W        W 7635  11.183  11.301   8.778
 3585W        W 7636   6.129   7.637   2.217
 3586W        W 7637  11.045   2.267   0.885
 3587W        W 7638   9.478  11.175   1.849
 3588W        W 7639   9.658   6.631   3.610
 3589W        W 7640   3.356   0.430   0.492
 3590W        W 7641   6.572   5.335   1.349
 3591W        W 7642  10.144   6.933   2.255
 3592W        W 7643   6.765   1.203  10.079
 3593W        W 7644   4.483   9.548   8.918
 3594W        W 7645   3.303   0.062   3.451
 3595W        W 7646   2.840   6.700   0.517
 3596W        W 7647   1.301   1.668   2.299
 3597W        W 7648   0.831   7.097   9.997
 3598W        W 7649   2.968   7.041  10.798
 3599W        W 7650   3.815   2.597  11.351
 3600W        W 7651   8.981  10.464   9.434
 3601W        W 7652   0.319   3.399   3.133
 3602W        W 7653   2.117   8.570   0.657
 3603W        W 7654   5.235   9.860   1.156
 3604W        W 7655   3.755   8.412  10.244
 3605W        W 7656   5.335  11.332   1.257
 3606W        W 7657   3.363   9.993   3.206
 3607W        W 7658   3.828   4.364  11.818
 3608W        W 7659   2.444   7.988  11.299
 3609W        W 7660   5.486   7.005   9.556
 3610W        W 7661   6.252   5.870   8.632
 3611W        W 7662  10.277   9.421   8.989
 3612W        W 7663   4.682   6.431  10.817
 3613W        W 7664   2.902   5.274  10.867
 3614W        W 7665   3.068   2.116   3.363
 3615W        W 7666  10.035   5.681   9.686
 3616W        W 7667   3.645   4.344  10.962
 3617W        W 7668   6.577   1.214   0.899
 3618W        W 7669  10.319   1.075   1.304
 3619W        W 7670   2.104   8.104   9.006
 3620W        W 7671   2.170   7.149   2.794
 3621W        W 7672   0.737   4.674   2.449
 3622W        W 7673   3.182   5.780  11.503
 3623W        W 7674   7.543   1.533   2.908
 3624W        W 7675   3.776   7.752   2.768
 3625W        W 7676   6.238   0.062  11.254
 3626W        W 7677   1.943   6.308  11.339
 3627W        W 7678   5.248   4.248   0.524
 3628W        W 7679   5.440   3.375   0.819
 3629W        W 7680   4.045   0.672   3.432
 3630W        W 7681   7.679   7.007   2.109
 3631W        W 7682   2.654   9.359   9.410
 3632W        W 7683   2.713   3.775  11.459
 3633W        W 7684   8.442   5.310   9.068
 3634W        W 7685   5.748   6.536   9.675
 3635W        W 7686   8.396   4.186   1.782
 3636W        W 7687   8.091   8.149  10.877
 3637W        W 7688   2.337   8.633   9.795
 3638W        W 7689   4.821   1.728   0.952
 3639W        W 7690   5.336   9.890   8.898
 3640W        W 7691   3.694  10.136   1.648
 3641W        W 7692   5.466  10.196   2.051
 3642W        W 7693   9.747   6.115   2.594
 3643W        W 7694   6.913   9.373   1.520
 3644W        W 7695   0.298   4.121   0.869
 3645W        W 7696  10.698   6.619  11.115
 3646W        W 7697   6.557   1.973   8.012
 3647W        W 7698   1.932   1.404   8.873
 3648W        W 7699   7.435   3.996   2.365
 3649W        W 7700   3.172  10.038  10.371
 3650W        W 7701   4.826   2.004   0.412
 3651W        W 7702  10.137   5.706   2.976
 3652W        W 7703   4.136   0.482   0.899
 3653W        W 7704   7.867   6.253   1.912
 3654W        W 7705  10.944   6.702   8.569
 3655W        W 7706   0.660   9.288   0.288
 3656W        W 7707   6.161   3.207   9.864
 3657W        W 7708   0.919   0.178   3.256
 3658W        W 7709   2.102   2.395   1.387
 3659W        W 7710  10.826   0.317  10.818
 3660W        W 7711   8.562   4.132   1.311
 3661W        W 7712  10.564   4.978   0.930
 3662W        W 7713   5.887   7.995   9.066
 3663W        W 7714   1.736   7.375   1.877
 3664W        W 7715   1.152   3.310   1.926
 3665W        W 7716   3.580   1.390   2.393
 3666W        W 7717   8.189   2.187  10.145
 3667W        W 7718   4.602   4.826   1.509
 3668W        W 7719   0.283  10.552  10.369
 3669W        W 7720   1.050   3.278   2.678
 3670W        W 7721   9.906   7.679  11.290
 3671W        W 7722   8.623  10.393   3.145
 3672W        W 7723   6.512   4.834  11.488
 3673W        W 7724   8.118   3.607   3.321
 3674W        W 7725  10.584   2.733   3.483
 3675W        W 7726   5.550   6.161   0.150
 3676W        W 7727   1.886   6.175  10.257
 3677W        W 7728   7.354  11.024   0.864
 3678W        W 7729   1.901   9.814  10.813
 3679W        W 7730   5.181   8.862  11.238
 3680W        W 7731   3.882   9.935  11.740
 3681W        W 7732   7.031   4.390   3.914
 3682W        W 7733   2.582   1.687  10.887
 3683W        W 7734   6.862  11.329  10.447
 3684W        W 7735  11.241  10.333   1.146
 3685W        W 7736   5.494   4.064  11.244
 3686W        W 7737   7.107   9.660   9.328
 3687W        W 7738   4.377   4.318   2.150
 3688W        W 7739  10.249   5.301   2.671
 3689W        W 7740   2.259   0.722  11.708
 3690W        W 7741   8.082   9.629  10.438
 3691W        W 7742   1.771   2.276   3.210
 3692W        W 7743   6.025   3.225   1.677
 3693W        W 7744  10.870   1.732   9.264
 3694W        W 7745   2.253   6.163   1.462
 3695W        W 7746   0.192  11.360   0.996
 3696W        W 7747   9.588   5.371   0.759
 3697W        W 7748   4.225   1.889  11.218
 3698W        W 7749  10.147   3.858   1.645
 3699W        W 7750   3.194  10.449   1.364
 3700W        W 7751   4.895   8.623   9.096
 3701W        W 7752   8.734   8.296   3.495
 3702W        W 7753   3.049   3.101  10.434
 3703W        W 7754   5.344  11.156   0.325
 3704W        W 7755   8.426   6.729  11.323
 3705W        W 7756   6.720   7.140   0.801
 3706W        W 7757   6.094   1.608   9.951
 3707W        W 7758  10.114   8.477   1.466
 3708W        W 7759   7.969   0.975   9.585
 3709W        W 7760   1.161   1.479  10.321
 3710W        W 7761   5.927   9.414   1.646
 3711W        W 7762  11.405  11.500  11.353
 3712W        W 7763   1.149   4.286   2.689
 3713W        W 7764   3.129   1.292   0.538
 3714W        W 7765   9.453   3.886   0.904
 3715W        W 7766   3.107   8.465   1.972
 3716W        W 7767   3.759   4.702   3.114
 3717W        W 7768   6.190   0.804  10.821
 3718W        W 7769   4.410   1.846   2.110
 3719W        W 7770   1.331   6.577   2.692
 3720W        W 7771  10.969  10.772   2.009
 3721W        W 7772   3.031   4.638  11.987
 3722W        W 7773   6.465   9.561  10.981
 3723W        W 7774   4.073   8.658   9.905
 3724W        W 7775  10.280   3.230  11.876
 3725W        W 7776  10.125  11.482  11.831
 3726W        W 7777   4.195   8.284   0.360
 3727W        W 7778   9.928   2.202   0.310
 3728W        W 7779   1.179   4.056   9.830
 3729W        W 7780   9.455   6.759  11.258
 3730W        W 7781   1.272   7.113   1.858
 3731W        W 7782   2.883   2.319   9.490
 3732W        W 7783   3.009   0.568   9.913
 3733W        W 7784   4.250   7.235  10.882
 3734W        W 7785   0.810  10.954   2.906
 3735W        W 7786   5.506   6.579   2.675
 3736W        W 7787   6.072   4.649  11.725
 3737W        W 7788   7.170   3.684   0.290
 3738W        W 7789  10.203   6.692   9.987
 3739W        W 7790   9.027   9.575   2.733
 3740W        W 7791   0.312   2.454   1.949
 3741W        W 7792   3.758   9.994   2.548
 3742W        W 7793   0.000   5.205   9.414
 3743W        W 7794  11.479   5.287   1.004
 3744W        W 7795   4.966   5.211  10.313
 3745W        W 7796   7.112   2.898  10.318
 3746W        W 7797   9.795   0.523   2.654
 3747W        W 7798   3.518   1.329  11.692
 3748W        W 7799  11.038   8.591  11.856
 3749W        W 7800   4.156   2.345   1.277
 3750W        W 7801   9.942   6.576   9.543
 3751W        W 7802   0.295   1.268   3.323
 3752W        W 7803   4.111   3.092   0.747
 3753W        W 7804   9.958   6.691  11.963
 3754W        W 7805   1.694   1.459   1.335
 3755W        W 7806  10.698   4.039   1.623
 3756W        W 7807   0.336   7.495   1.010
 3757W        W 7808  11.456   0.448   1.825
 3758W        W 7809   0.181   3.052   0.910
 3759W        W 7810   3.709  11.105   1.682
 3760W        W 7811   2.029   6.873   0.314
 3761W        W 7812  11.422   3.900   9.565
 3762W        W 7813  10.277   6.088  10.351
 3763W        W 7814   1.448   7.817   1.403
 3764W        W 7815  11.091   1.702  11.317
 3765W        W 7816   2.261   8.134   1.678
 3766W        W 7817   3.662   7.465   2.379
 3767W        W 7818   8.006  10.260   1.038
 3768W        W 7819   1.363   5.594   2.262
 3769W        W 7820   7.358   8.554   0.882
 3770W        W 7821   5.258   9.019   2.777
 3771W        W 7822   6.035   3.099   8.128
 3772W        W 7823   6.753   3.672  10.423
 3773W        W 7824   5.992   4.209   8.945
 3774W        W 7825   9.463   1.889  11.892
 3775W        W 7826   6.438   8.123   3.832
 3776W        W 7827   9.156   3.342   0.928
 3777W        W 7828   4.214   9.284   2.174
 3778W        W 7829   4.781  10.883  10.759
 3779W        W 7830   0.839   4.625   1.463
 3780W        W 7831   4.278   2.314  11.501
 3781W        W 7832  10.015   6.401   8.529
 3782W        W 7833   1.027   7.510  11.390
 3783W        W 7834  10.130   9.730   2.183
 3784W        W 7835   6.779   6.450   1.282
 3785W        W 7836   6.149   6.535  11.186
 3786W        W 7837   2.423   9.373   1.197
 3787W        W 7838   5.535   9.400  10.792
 3788W        W 7839   1.836   0.816   9.539
 3789W        W 7840   5.703   8.852  10.824
 3790W        W 7841   6.168   0.944   9.106
 3791W        W 7842   6.997   9.563  10.840
 3792W        W 7843   5.643   1.827  10.563
 3793W        W 7844   1.802   3.570   9.925
 3794W        W 7845   4.733   1.138   1.686
 3795W        W 7846   7.423  10.221   8.540
 3796W        W 7847   4.690   7.102   1.044
 3797W        W 7848   6.542   2.877   9.894
 3798W        W 7849   9.952   6.657  11.331
 3799W        W 7850  10.813   4.677   2.291
 3800W        W 7851   5.488   4.607   1.432
 3801W        W 7852   0.171   6.046   8.960
 3802W        W 7853   7.533  10.800   9.306
 3803W        W 7854   7.973   9.508   2.349
 3804W        W 7855   2.292  10.932   3.334
 3805W        W 7856   3.651   4.155   0.238
 3806W        W 7857   0.376   8.846  10.646
 3807W        W 7858   8.601   2.724   0.029
 3808W        W 7859   9.819   6.609   1.354
 3809W        W 7860   5.135   0.176   9.504
 3810W        W 7861  11.479   8.202   1.408
 3811W        W 7862  10.020   7.093   1.389
 3812W        W 7863   7.726   5.894  10.635
 3813W        W 7864   6.262   3.583   8.196
 3814W        W 7865   5.117   6.738   3.012
 3815W        W 7866   0.611   1.291   1.495
 3816W        W 7867   4.203  10.469   2.906
 3817W        W 7868  10.933   7.723   0.097
 3818W        W 7869   1.857   1.482  11.885
 3819W        W 7870   7.216   1.229  10.484
 3820W        W 7871  10.061   8.403   3.235
 3821W        W 7872   7.950  11.463   9.506
 3822W        W 7873  10.318   8.478  11.099
 3823W        W 7874   2.395   8.931   0.428
 3824W        W 7875   1.241   4.596   3.558
 3825W        W 7876   5.472   0.839  10.361
 3826W        W 7877   1.962  10.280   0.565
 3827W        W 7878   9.264   7.142   0.809
 3828W        W 7879   2.388   1.950   1.329
 3829W        W 7880   2.715  10.577   1.498
 3830W        W 7881   2.309   7.644   9.033
 3831W        W 7882   4.831   9.023   0.398
 3832W        W 7883   1.662   3.143  10.622
 3833W        W 7884   6.032   9.250  10.910
 3834W        W 7885   8.390   2.937   1.777
 3835W        W 7886   3.445   3.389   2.245
 3836W        W 7887   0.885   0.488  11.921
 3837W        W 7888  10.749   4.550   3.230
 3838W        W 7889   1.763   7.890   1.836
 3839W        W 7890   4.629   9.814   1.779
 3840W        W 7891  11.136   5.098   0.046
 3841W        W 7892   1.643   1.772   9.089
 3842W        W 7893   5.033   2.516   9.839
 3843W        W 7894  10.406   0.987   8.776
 3844W        W 7895   2.721   1.410   2.333
 3845W        W 7896   4.750   3.271  11.756
 3846W        W 7897   5.110   8.168  10.659
 3847W        W 7898   7.724   4.296   0.253
 3848W        W 7899   8.982   8.381   0.369
 3849W        W 7900   9.582   0.292   9.858
 3850W        W 7901   4.224   7.308   1.734
 3851W        W 7902   8.746   8.544   9.044
 3852W        W 7903   3.850   7.072  10.626
 3853W        W 7904   5.114   6.027   0.495
 3854W        W 7905   6.758   8.038   9.914
 3855W        W 7906   9.701   7.658   1.814
 3856W        W 7907   6.539   1.905   3.255
 3857W        W 7908  11.052   9.395   2.596
 3858W        W 7909   2.385   1.461  10.411
 3859W        W 7910   0.912   1.406   0.572
 3860W        W 7911   4.180   0.002   3.124
 3861W        W 7912   0.104   8.928   3.561
 3862W        W 7913   0.473   6.481   2.625
 3863W        W 7914   5.670   1.367  10.341
 3864W        W 7915   3.173   3.722   3.295
 3865W        W 7916   7.128   3.566   9.583
 3866W        W 7917   8.658   1.840   2.312
 3867W        W 7918   1.797   2.587   2.740
 3868W        W 7919   3.250   0.976   1.716
 3869W        W 7920   2.575   2.717   2.913
 3870W        W 7921  10.357   6.990   1.778
 3871W        W 7922  10.017   4.334   2.173
 3872W        W 7923   0.938   5.964   2.172
 3873W        W 7924   0.842   1.059   9.499
 3874W        W 7925   5.629   5.098   1.268
 3875W        W 7926   6.819   2.447   1.363
 3876W        W 7927   7.051   6.688  10.531
 3877W        W 7928   0.079   7.200   2.151
 3878W        W 7929   2.649   9.648   0.792
 3879W        W 7930   4.225   5.218   0.038
 3880W        W 7931  11.050   2.835  11.267
 3881W        W 7932   1.199   5.649  11.592
 3882W        W 7933   5.148   7.734  11.010
 3883W        W 7934   4.410   2.095   1.659
 3884W        W 7935   5.720   8.546   2.819
 3885W        W 7936   9.423   5.660  10.832
 3886W        W 7937   4.101   7.083   9.754
 3887W        W 7938  11.290   3.490   8.666
 3888W        W 7939   8.676   2.820  10.524
 3889W        W 7940   8.496   8.576   8.578
 3890W        W 7941   4.920   2.489   0.205
 3891W        W 7942   3.948   7.966   9.426
 3892W        W 7943   3.230   2.883   2.215
 3893W        W 7944  10.792  10.167  10.532
 3894W        W 7945   2.885  10.016   9.173
 3895W        W 7946   1.211   6.608   3.220
 3896W        W 7947   7.691   0.269   3.400
 3897W        W 7948   3.377   6.655  11.220
 3898W        W 7949  10.932   1.785   3.191
 3899W        W 7950   4.077   1.295   2.350
 3900W        W 7951   6.656   2.249   8.445
 3901W        W 7952   3.778   7.211   1.489
 3902W        W 7953   1.118   6.979   1.365
 3903W        W 7954   3.712  11.472  10.513
 3904W        W 7955   2.236   4.622  10.294
 3905W        W 7956   3.854   1.362   1.430
 3906W        W 7957   7.868   8.579   0.906
 3907W        W 7958   5.425   1.145   1.151
 3908W        W 7959   0.039   3.636   1.552
 3909W        W 7960   0.462   5.386   9.336
 3910W        W 7961   5.224  10.944  11.060
 3911W        W 7962   7.024   9.486  11.734
 3912W        W 7963   1.834   0.305   2.210
 3913W        W 7964  11.268   2.525   9.311
 3914W        W 7965   0.808   1.774   0.976
 3915W        W 7966   7.100   2.130  11.876
 3916W        W 7967   5.301   5.145   0.477
 3917W        W 7968   1.823   3.879  10.985
 3918W        W 7969   0.256   1.302   9.474
 3919W        W 7970   5.842   9.649   1.173
 3920W        W 7971   5.048   3.046   2.702
 3921W        W 7972   1.223   2.300  11.190
 3922W        W 7973   7.966   4.663   0.673
 3923W        W 7974   9.639   2.365  11.922
 3924W        W 7975  11.396   6.594   3.503
 3925W        W 7976   2.773   0.748   9.494
 3926W        W 7977  10.822   3.596   8.868
 3927W        W 7978   8.567   3.854   3.190
 3928W        W 7979   5.271   2.749   0.481
 3929W        W 7980   2.169   1.305  11.519
 3930W        W 7981   2.468   8.345   2.571
 3931W        W 7982   0.254   0.784  11.476
 3932W        W 7983  11.118   1.618  10.806
 3933W        W 7984   1.472   1.867  10.462
 3934W        W 7985   2.894   6.929   9.046
 3935W        W 7986   3.099   8.293   2.459
 3936W        W 7987  10.618   7.887   3.471
 3937W        W 7988   3.499  10.580   1.799
 3938W        W 7989   2.398   9.870   1.213
 3939W        W 7990   0.749   1.168  10.799
 3940W        W 7991  11.217  10.587  11.936
 3941W        W 7992  11.244   7.864  11.484
 3942W        W 7993   5.320  10.009   2.643
 3943W        W 7994   6.111   4.761   0.734
 3944W        W 7995  11.472   4.898   1.320
 3945W        W 7996   6.547   0.839   8.760
 3946W        W 7997   3.598   6.161   0.492
 3947W        W 7998   8.484   4.019   9.971
 3948W        W 7999   2.852   9.112   1.203
 3949W        W 8000   9.947   2.880   8.378
 3950W        W 8001   8.411   4.283  11.822
 3951W        W 8002   8.928   2.638   2.203
 3952W        W 8003   7.607   0.743  11.125
 3953W        W 8004   8.235   6.453  10.080
 3954W        W 8005   9.140   1.284   9.022
 3955W        W 8006   8.321   6.973  10.775
 3956W        W 8007   9.003   6.907   8.123
 3957W        W 8008   2.914   0.444   3.583
 3958W        W 8009   9.521   6.251   9.063
 3959W        W 8010  10.316   9.429   1.385
 3960W        W 8011   8.960   8.094   8.998
 3961W        W 8012   5.001   4.699   1.228
 3962W        W 8013   2.831   5.932  10.183
 3963W        W 8014   6.260   4.283   0.476
 3964W        W 8015   5.608   3.876   9.068
 3965W        W 8016   3.649   2.526   2.071
 3966W        W 8017   2.582   9.540   3.118
 3967W        W 8018   0.524   9.842  11.058
 3968W        W 8019   7.855   2.419  10.499
 3969W        W 8020   4.199   9.981   8.868
 3970W        W 8021   2.680   0.572  10.334
 3971W        W 8022   3.455  10.140  11.479
 3972W        W 8023   9.478   1.633   0.344
 3973W        W 8024   7.738   1.258   9.969
 3974W        W 8025   3.610  10.306  10.959
 3975W        W 8026   7.729  11.079  10.662
 3976W        W 8027   4.184   3.469   0.399
 3977W        W 8028   7.514  10.359   9.562
 3978W        W 8029   1.618  10.496  11.688
 3979W        W 8030   7.596   6.118   3.780
 3980W        W 8031   9.900   2.763   2.302
 3981W        W 8032   6.658   9.927   1.362
 3982W        W 8033   6.671   3.365   9.789
 3983W        W 8034  11.306   9.008   9.588
 3984W        W 8035   2.790  10.048   1.532
 3985W        W 8036   7.208   8.480   2.377
 3986W        W 8037   9.166   5.483  10.089
 3987W        W 8038  10.705   2.352   1.268
 3988W        W 8039   5.635   4.866  11.928
 3989W        W 8040   6.121   2.304   3.199
 3990W        W 8041   0.639   5.866   9.942
 3991W        W 8042   4.639   6.829   0.207
 3992W        W 8043   2.217   3.917   1.841
 3993W        W 8044   4.514  10.788   8.817
 3994W        W 8045   0.966   6.643  10.393
 3995W        W 8046   9.253   9.013  10.345
 3996W        W 8047   0.432   0.055   0.584
 3997W        W 8048   8.579   7.961   2.253
 3998W        W 8049   1.449   9.341  10.067
 3999W        W 8050   4.331  10.399   0.544
 4000W        W 8051   4.565   0.870   1.248
 4001W        W 8052   0.309   0.704   8.679
 4002W        W 8053   7.607   9.032   1.128
 4003W        W 8054   5.461   0.379   3.058
 4004W        W 8055   0.055   5.262   2.327
 4005W        W 8056   0.828   6.265  10.895
 4006W        W 8057   9.693   9.605   0.231
 4007W        W 8058   5.247  11.403  11.277
 4008W        W 8059   0.807   4.625   1.960
 4009W        W 8060   7.647   7.563  10.418
 4010W        W 8061   8.204   0.411   3.477
 4011W        W 8062   4.458   7.128   9.348
 4012W        W 8063   4.172  10.080   1.870
 4013W        W 8064   3.107   3.631  10.057
 4014W        W 8065   9.495   0.723   3.535
 4015W        W 8066   3.359  10.991  11.681
 4016W        W 8067   1.037   5.129   0.307
 4017W        W 8068   7.852   2.405  11.488
 4018W        W 8069  10.857   5.001   0.481
 4019W        W 8070   5.015   0.466   2.150
 4020W        W 8071   6.317  11.270   1.139
 4021W        W 8072   1.910  10.864   9.699
 4022W        W 8073   3.759   5.008   1.747
 4023W        W 8074   8.773  10.587   3.576
 4024W        W 8075   6.041  10.008   0.851
 4025W        W 8076   3.545  10.654  11.341
 4026W        W 8077   5.030   3.423  10.552
 4027W        W 8078  10.873   7.719   3.033
 4028W        W 8079   3.120   7.407   0.363
 4029W        W 8080   9.584   4.935   4.369
 4030W        W 8081   4.806   7.978  10.280
 4031W        W 8082   3.330   2.727   3.231
 4032W        W 8083   0.555   0.848   1.718
 4033W        W 8084   7.496   9.790   3.218
 4034W        W 8085   2.883   4.520  10.412
 4035W        W 8086   5.115   8.970   2.016
 4036W        W 8087   5.216   3.209   8.748
 4037W        W 8088  10.303   6.947   9.543
 4038W        W 8089   9.122   3.709   9.501
 4039W        W 8090   8.808   1.310   1.291
 4040W        W 8091   2.795   1.273   9.496
 4041W        W 8092   2.119   2.914   3.013
 4042W        W 8093   5.823  10.596  10.498
 4043W        W 8094   3.748   2.633   9.835
 4044W        W 8095  10.875   3.275   9.916
 4045W        W 8096  11.088   5.090   2.416
 4046W        W 8097   7.992   1.043   3.483
 4047W        W 8098  11.014   3.122  10.403
 4048W        W 8099  11.414   2.320   0.402
 4049W        W 8100   3.324   9.349  11.063
 4050W        W 8101   5.135   1.591   9.242
 4051W        W 8102   9.553   7.528  10.327
 4052W        W 8103   4.217   2.843  11.540
 4053W        W 8104   6.586   0.438   1.372
 4054W        W 8105   0.124   8.568   1.066
 4055W        W 8106   0.046   2.343  10.403
 4056W        W 8107   0.511   3.851   3.348
 4057W        W 8108   2.617   6.178   3.298
 4058W        W 8109   2.858   2.026   1.167
 4059W        W 8110   2.866   3.338   3.523
 4060W        W 8111   8.848   0.385   1.845
 4061W        W 8112   0.510   9.318   3.501
 4062W        W 8113   8.931   5.130   2.271
 4063W        W 8114   6.160   3.075   3.730
 4064W        W 8115  11.283   5.645   9.694
 4065W        W 8116   9.161   8.087  11.934
 4066W        W 8117   7.653  11.253  11.137
 4067W        W 8118   1.789   2.465  10.884
 4068W        W 8119   2.320   0.036   3.323
 4069W        W 8120   3.314   9.644  11.477
 4070W        W 8121   6.649   7.017   0.313
 4071W        W 8122   1.297   7.644   1.843
 4072W        W 8123   9.529   8.653   8.558
 4073W        W 8124  10.031   4.861   2.781
 4074W        W 8125  10.149  11.420   0.654
 4075W        W 8126   9.613   4.088   1.353
 4076W        W 8127   4.607   2.114   8.627
 4077W        W 8128   6.728   0.399   3.203
 4078W        W 8129   9.694   1.490   0.798
 4079W        W 8130   4.639  11.488   9.548
 4080W        W 8131   6.024   1.278   2.189
 4081W        W 8132   9.835   7.492  10.785
 4082W        W 8133   7.928   5.003  11.538
 4083W        W 8134   7.912   9.473   0.186
 4084W        W 8135   5.635   5.688   1.895
 4085W        W 8136   8.225   2.274   0.909
 4086W        W 8137   2.921   9.756   3.443
 4087W        W 8138   6.750   8.965   0.832
 4088W        W 8139   6.454   9.931   3.147
 4089W        W 8140   5.442   5.898   1.470
 4090W        W 8141   8.493   8.235   0.194
 4091W        W 8142   6.365   2.314   1.893
 4092W        W 8143   0.754   3.286   0.397
 4093W        W 8144   9.567   8.946   8.978
 4094W        W 8145   8.311   3.035   9.942
 4095W        W 8146  11.064   2.902   9.606
 4096W        W 8147   4.667   2.977  11.354
 4097W        W 8148   6.590  11.340  11.849
 4098W        W 8149   9.958   2.405   8.579
 4099W        W 8150  10.424   0.370  11.683
 4100W        W 8151   0.764   4.328   9.994
 4101W        W 8152  11.279   4.846   0.808
 4102W        W 8153   8.433   2.068   2.767
 4103W        W 8154   5.559   9.736   3.309
 4104W        W 8155  10.531  10.878   1.369
 4105W        W 8156   9.002   8.679  10.735
 4106W        W 8157  11.350   8.740  11.374
 4107W        W 8158   7.063  10.092   9.587
 4108W        W 8159   0.176   0.744   3.395
 4109W        W 8160   4.929   1.864   8.280
 4110W        W 8161   7.857   1.152   2.221
 4111W        W 8162   8.027  11.281  11.898
 4112W        W 8163   6.436   6.418   9.035
 4113W        W 8164  10.602   9.536   3.224
 4114W        W 8165  11.019   4.703   2.797
 4115W        W 8166   0.002   9.816   2.243
 4116W        W 8167   8.986   2.182   9.553
 4117W        W 8168   4.589  10.990   0.405
 4118W        W 8169   7.115   2.311   2.485
 4119W        W 8170   5.746   1.263  11.356
 4120W        W 8171  10.465   0.773   3.633
 4121W        W 8172   0.015   6.181   3.161
 4122W        W 8173   5.236   5.500   1.273
 4123W        W 8174   2.653   6.984   1.817
 4124W        W 8175   5.092   7.618  10.026
 4125W        W 8176  10.883   5.455   8.595
 4126W        W 8177   0.811   5.610  10.432
 4127W        W 8178   5.603   9.591   2.804
 4128W        W 8179   3.100   8.466  10.923
 4129W        W 8180   5.558  10.192   0.906
 4130W        W 8181   1.385   1.883   1.208
 4131W        W 8182   4.148   7.556   1.308
 4132W        W 8183   3.816   0.008   1.289
 4133W        W 8184   6.130   0.853   3.009
 4134W        W 8185  11.149  10.524   1.607
 4135W        W 8186   0.890   0.521   3.683
 4136W        W 8187   9.967   3.317   0.341
 4137W        W 8188   4.273   9.083  11.244
 4138W        W 8189  11.127   3.920   0.120
 4139W        W 8190   3.803   3.125   0.302
 4140W        W 8191   0.135   3.128   1.796
 4141W        W 8192   6.494   7.353   2.400
 4142W        W 8193   4.805   6.950   3.357
 4143W        W 8194   4.524  10.305  10.329
 4144W        W 8195   9.561   2.462  10.176
 4145W        W 8196   0.765   8.744   3.256
 4146W        W 8197   9.464   6.227   1.473
 4147W        W 8198   6.991   1.792   9.274
 4148W        W 8199  11.241   3.052  11.683
 4149W        W 8200   8.104   8.127   0.844
 4150W        W 8201   6.646   1.583   2.868
 4151W        W 8202   9.025   2.247   9.045
 4152W        W 8203   8.758   4.610  11.322
 4153W        W 8204   2.298   1.802  10.053
 4154W        W 8205   1.924   5.330   9.911
 4155W        W 8206   1.070   2.317   0.232
 4156W        W 8207  11.208   6.910   9.854
 4157W        W 8208   2.107  10.922  11.305
 4158W        W 8209   7.931   4.047   1.678
 4159W        W 8210   0.939   8.444   2.806
 4160W        W 8211   8.599   1.883  11.491
 4161W        W 8212   6.938   4.678  10.237
 4162W        W 8213   7.018   1.293   9.420
 4163W        W 8214  11.243   1.340   1.907
 4164W        W 8215   4.363   5.601   1.867
 4165W        W 8216   9.115   8.517   1.792
 4166W        W 8217   5.114   9.524   2.884
 4167W        W 8218   6.025   2.888   3.256
 4168W        W 8219   2.203   7.482   0.502
 4169W        W 8220   8.279   2.696   2.704
 4170W        W 8221   9.022  11.237   2.706
 4171W        W 8222   2.553   9.000   8.546
 4172W        W 8223   4.923   2.927  10.533
 4173W        W 8224   8.849   9.500   9.774
 4174W        W 8225   5.230   7.502   9.568
 4175W        W 8226   9.227   6.089  11.770
 4176W        W 8227   8.015   8.718   9.980
 4177W        W 8228   5.499   8.067   0.257
 4178W        W 8229   9.540   1.524   9.806
 4179W        W 8230   6.119   3.808   0.995
 4180W        W 8231   1.156   7.441   3.169
 4181W        W 8232   3.715   9.007   3.241
 4182W        W 8233   4.863   1.004   0.389
 4183W        W 8234   2.466   7.996   9.377
 4184W        W 8235   2.179   8.433   1.149
 4185W        W 8236   2.045   4.260   9.378
 4186W        W 8237   4.680   5.278   0.257
 4187W        W 8238   1.481   8.624   2.809
 4188W        W 8239   4.388   9.464   2.644
 4189W        W 8240  11.317   7.777  10.988
 4190W        W 8241   6.101   5.902   1.819
 4191W        W 8242   0.360   8.046  11.766
 4192W        W 8243  10.882   8.127  11.718
 4193W        W 8244  10.842   1.494  10.112
 4194W        W 8245   8.398   9.397   9.547
 4195W        W 8246  11.425   4.383   0.647
 4196W        W 8247   5.918   4.632   9.220
 4197W        W 8248  10.475   5.055   1.793
 4198W        W 8249   5.199   3.956   0.928
 4199W        W 8250   4.674   6.952  10.880
 4200W        W 8251   1.166  10.632   3.572
 4201W        W 8252   5.411  10.344  10.278
 4202W        W 8253   7.681   2.718   9.514
 4203W        W 8254   6.653   0.925   0.469
 4204W        W 8255   8.128   8.685   1.982
 4205W        W 8256   0.791   1.064  11.306
 4206W        W 8257   1.575   0.859   0.580
 4207W        W 8258   8.548   5.582  11.406
 4208W        W 8259   4.544   7.510  10.563
 4209W        W 8260   1.484   3.050   9.041
 4210W        W 8261   2.553   8.622  11.005
 4211W        W 8262   6.343   2.338   0.359
 4212W        W 8263   9.284   4.196   9.366
 4213W        W 8264  11.234   5.356   1.443
 4214W        W 8265   4.358   6.666   9.979
 4215W        W 8266   9.642   1.032   1.702
 4216W        W 8267   9.127   8.069   0.802
 4217W        W 8268  10.458  10.316  11.030
 4218W        W 8269   9.824   9.565  11.649
 4219W        W 8270  10.450   8.489   9.087
 4220W        W 8271   3.025  10.943   1.315
 4221W        W 8272   0.745   3.825   9.920
 4222W        W 8273  10.197   7.655   1.119
 4223W        W 8274   9.099   1.733   8.756
 4224W        W 8275   9.497   8.432   2.153
 4225W        W 8276   7.408   7.574  10.872
 4226W        W 8277   0.879   9.575   2.160
 4227W        W 8278   1.958   9.582   1.208
 4228W        W 8279   4.184   6.246   9.745
 4229W        W 8280   0.533   2.611   1.509
 4230W        W 8281   5.900   5.726   2.314
 4231W        W 8282   5.061   0.483   8.944
 4232W        W 8283   7.732  10.568   0.249
 4233W        W 8284   7.673   9.032   2.585
 4234W        W 8285   7.426   2.771   0.894
 4235W        W 8286   8.232   1.329  11.752
 4236W        W 8287   2.333   8.488   9.305
 4237W        W 8288   7.977  11.332   2.505
 4238W        W 8289   4.235   7.017   1.240
 4239W        W 8290   8.536   0.179   1.484
 4240W        W 8291   9.284   4.494  11.420
 4241W        W 8292  11.325   1.218  11.023
 4242W        W 8293   3.676   1.331   9.637
 4243W        W 8294   9.104   5.807   8.631
 4244W        W 8295   9.992  10.568  11.305
 4245W        W 8296   2.282   7.252  11.550
 4246W        W 8297   4.840   2.110   1.927
 4247W        W 8298   5.238   1.201  10.065
 4248W        W 8299  11.451  10.457   3.285
 4249W        W 8300   1.768   8.406   1.827
 4250W        W 8301   6.040   3.720   3.842
 4251W        W 8302   4.131   4.758   8.662
 4252W        W 8303   8.124   9.421   1.822
 4253W        W 8304   5.855   8.961   0.027
 4254W        W 8305  11.165   4.284  10.334
 4255W        W 8306   4.049   1.480   0.947
 4256W        W 8307  11.425   7.695   1.227
 4257W        W 8308   5.267   8.443  11.526
 4258W        W 8309   4.725   4.316  11.824
 4259W        W 8310   9.991   1.677   0.357
 4260W        W 8311   8.394  10.342   1.393
 4261W        W 8312  10.495  10.857   8.839
 4262W        W 8313   0.480   9.576   2.995
 4263W        W 8314   7.396   4.101   9.144
 4264W        W 8315   1.724   5.987   3.242
 4265W        W 8316   4.307   0.255   0.426
 4266W        W 8317   6.178   7.491  11.267
 4267W        W 8318   7.172   9.132  10.051
 4268W        W 8319   2.917   0.947   2.104
 4269W        W 8320   9.402   8.944   3.565
 4270W        W 8321   2.251   2.818   2.534
 4271W        W 8322  11.228   0.034   0.885
 4272W        W 8323   6.595   3.634   1.903
 4273W        W 8324   6.146   2.488   0.836
 4274W        W 8325   2.008  10.732   0.847
 4275W        W 8326   7.970   4.040  11.904
 4276W        W 8327   7.434  10.915   9.870
 4277W        W 8328  10.937   1.240   9.116
 4278W        W 8329  10.724   6.547   1.792
 4279W        W 8330  10.363   6.036   9.517
 4280W        W 8331   8.347   2.350  11.446
 4281W        W 8332   8.423   1.554   2.695
 4282W        W 8333   3.114   2.135   2.587
 4283W        W 8334   7.573   2.551   3.172
 4284W        W 8335   7.891  10.425   8.515
 4285W        W 8336   4.955   8.984   9.490
 4286W        W 8337   5.054   8.829  11.833
 4287W        W 8338   2.731   2.214   2.970
 4288W        W 8339   6.486   5.918  11.947
 4289W        W 8340   7.576   6.886   0.801
 4290W        W 8341   5.340   0.351  11.512
 4291W        W 8342   9.166   2.797   2.835
 4292W        W 8343   1.735  11.266   2.966
 4293W        W 8344   4.227   9.541  11.991
 4294W        W 8345   8.995   4.114  11.169
 4295W        W 8346   1.814   9.177   2.314
 4296W        W 8347   6.880   9.410   2.455
 4297W        W 8348   8.368   1.588   1.368
 4298W        W 8349   7.022   6.945  11.026
 4299W        W 8350   9.092   3.095   3.231
 4300W        W 8351   3.560   9.329   0.886
 4301W        W 8352   8.386   1.108   2.156
 4302W        W 8353   6.962   4.660   1.233
 4303W        W 8354   1.807   8.877   0.894
 4304W        W 8355   3.617   1.743   1.729
 4305W        W 8356   5.618   1.746  11.462
 4306W        W 8357   4.234   3.180   9.572
 4307W        W 8358   8.515   2.849   8.647
 4308W        W 8359  10.680   2.295  10.538
 4309W        W 8360   6.365  10.613   8.426
 4310W        W 8361   9.354  10.809   9.826
 4311W        W 8362   1.724  10.886   0.014
 4312W        W 8363   2.748   5.642  11.257
 4313W        W 8364   0.142   2.423   9.634
 4314W        W 8365   4.397   8.667  10.928
 4315W        W 8366   9.095   2.399   1.679
 4316W        W 8367   0.578   2.923   1.903
 4317W        W 8368   2.424   2.533   9.625
 4318W        W 8369   2.830   0.057   3.231
 4319W        W 8370   3.639   0.752   0.847
 4320W        W 8371   1.887  10.010  11.770
 4321W        W 8372   1.864  10.596   8.774
 4322W        W 8373   0.995   0.666   9.871
 4323W        W 8374   8.568   5.347   0.797
 4324W        W 8375   6.769   7.484   8.666
 4325W        W 8376  10.411   5.527  11.884
 4326W        W 8377   5.133   7.369   2.270
 4327W        W 8378   1.224   2.632   9.871
 4328W        W 8379  10.053   6.773   4.378
 4329W        W 8380  10.737   5.129   9.013
 4330W        W 8381   4.144   6.460   4.216
 4331W        W 8382   0.652  11.149   8.567
 4332W        W 8383   5.591   8.007  10.717
 4333W        W 8384   8.689   7.123   2.132
 4334W        W 8385  10.954   0.826  10.936
 4335W        W 8386   6.849   6.139   0.241
 4336W        W 8387  10.359  11.484  11.372
 4337W        W 8388   8.498   1.637  10.022
 4338W        W 8389   3.273   3.030   2.697
 4339W        W 8390   3.547   9.051   0.051
 4340W        W 8391   8.591   9.630  10.619
 4341W        W 8392   9.997  11.318  10.530
 4342W        W 8393  10.893   5.070   9.820
 4343W        W 8394   7.146  11.417   9.944
 4344W        W 8395  10.493   6.551   0.861
 4345W        W 8396   5.490  10.939   2.134
 4346W        W 8397   9.916   9.204   0.023
 4347W        W 8398  10.188   7.997  10.926
 4348W        W 8399   0.986  10.600   9.032
 4349W        W 8400  11.412   2.252   2.370
 4350W        W 8401   5.164   1.743   1.726
 4351W        W 8402   0.383   8.503  11.028
 4352W        W 8403   0.497   8.127   2.697
 4353W        W 8404   8.475   7.201   8.892
 4354W        W 8405   8.402   5.158   1.338
 4355W        W 8406   0.322   7.466   0.490
 4356W        W 8407  10.033   7.031   3.572
 4357W        W 8408   3.064   2.583   2.811
 4358W        W 8409   5.630   7.135   0.204
 4359W        W 8410   2.353  10.910   2.816
 4360W        W 8411  11.326   9.087   2.931
 4361W        W 8412   9.329   9.363   1.291
 4362W        W 8413  11.473   4.130  10.729
 4363W        W 8414   0.983   7.983   1.503
 4364W        W 8415   1.573   9.705   3.284
 4365W        W 8416   6.556   3.424  11.820
 4366W        W 8417   4.262   0.365   9.352
 4367W        W 8418   4.182   0.050   1.714
 4368W        W 8419   8.383   4.208  10.427
 4369W        W 8420   7.593   8.576   2.811
 4370W        W 8421  10.363   1.018  10.300
 4371W        W 8422   7.569   6.699   2.946
 4372W        W 8423   6.032   4.575  10.788
 4373W        W 8424  11.412   2.146   2.887
 4374W        W 8425   9.284   6.456   0.550
 4375W        W 8426   9.878   7.896  10.483
 4376W        W 8427  10.617   1.748  11.435
 4377W        W 8428   6.275   6.581  11.673
 4378W        W 8429   6.198   1.401  10.435
 4379W        W 8430   4.543  10.915  11.584
 4380W        W 8431   9.881   8.124   1.974
 4381W        W 8432   6.086   9.191   1.207
 4382W        W 8433   5.543   7.053  10.851
 4383W        W 8434   0.542   7.375  11.438
 4384W        W 8435   0.617   4.239   2.674
 4385W        W 8436   2.038   5.677   8.659
 4386W        W 8437   3.550   1.780   9.871
 4387W        W 8438   5.440   5.653  10.501
 4388W        W 8439   6.406   9.505   1.506
 4389W        W 8440   0.861   4.620   0.970
 4390W        W 8441  10.453   7.410   3.623
 4391W        W 8442   6.276   4.132   2.738
 4392W        W 8443   2.449   2.643  11.045
 4393W        W 8444   1.696   7.399   0.737
 4394W        W 8445   1.675   3.268   0.990
 4395W        W 8446   0.008  10.866   8.952
 4396W        W 8447   7.393  10.043   0.914
 4397W        W 8448   9.327   1.056   2.126
 4398W        W 8449   1.237   4.263   0.498
 4399W        W 8450   5.605   4.358  11.812
 4400W        W 8451   8.478   2.352   9.578
 4401W        W 8452   1.835   1.009   1.569
 4402W        W 8453   8.697   2.138   0.774
 4403W        W 8454   4.512   2.197  10.922
 4404W        W 8455   1.498  11.264   9.040
 4405W        W 8456   9.912   9.155   2.845
 4406W        W 8457   8.453   4.856   0.906
 4407W        W 8458   0.445   0.265  11.759
 4408W        W 8459   5.179   7.749   1.339
 4409W        W 8460  10.492   1.709   2.818
 4410W        W 8461   7.904   6.500   0.764
 4411W        W 8462   5.982   5.246  10.064
 4412W        W 8463   4.658   5.301  11.737
 4413W        W 8464   8.680   2.115   9.981
 4414W        W 8465   1.703  11.309   9.884
 4415W        W 8466  11.436  10.288   9.605
 4416W        W 8467   2.847  11.145  10.308
 4417W        W 8468   4.518   0.382   1.990
 4418W        W 8469   5.722   9.406  10.313
 4419W        W 8470   5.621   0.274   1.379
 4420W        W 8471   7.858   0.994   0.943
 4421W        W 8472   7.757   9.926   8.780
 4422W        W 8473   1.811  10.961   1.610
 4423W        W 8474   1.272   7.989   9.879
 4424W        W 8475   4.546   9.304   3.557
 4425W        W 8476   6.034   6.652   0.853
 4426W        W 8477   8.182   7.066   2.105
 4427W        W 8478   0.334   4.840   2.153
 4428W        W 8479   4.631   9.794  10.254
 4429W        W 8480   0.415   0.254  10.098
 4430W        W 8481  11.230   0.844  11.382
 4431W        W 8482   7.594   9.893   2.355
 4432W        W 8483   5.184  10.003   8.409
 4433W        W 8484   4.066   9.263   8.991
 4434W        W 8485   5.065   2.981   0.064
 4435W        W 8486   3.483   6.006   3.063
 4436W        W 8487  10.365  10.079   0.765
 4437W        W 8488   3.122   5.270  11.353
 4438W        W 8489   0.442  10.862   9.858
 4439W        W 8490   2.299   5.524  11.068
 4440W        W 8491   6.642   0.546  10.697
 4441W        W 8492   1.190   0.516   0.444
 4442W        W 8493   3.339   7.957   1.807
 4443W        W 8494   0.975   2.906   2.202
 4444W        W 8495   2.718   5.566   9.786
 4445W        W 8496   3.495   0.558   1.850
 4446W        W 8497  10.464   1.772   3.480
 4447W        W 8498   7.647   0.402   0.941
 4448W        W 8499  10.756   2.973  10.866
 4449W        W 8500   8.304   1.443   8.972
 4450W        W 8501   7.936   8.691   9.471
 4451W        W 8502   3.368   9.985   9.356
 4452W        W 8503  10.899  10.919  10.562
 4453W        W 8504   0.221   1.949   1.907
 4454W        W 8505   0.513   9.344  10.864
 4455W        W 8506  10.614   2.583   8.725
 4456W        W 8507   6.957  10.389   2.879
 4457W        W 8508   4.580   4.801   0.986
 4458W        W 8509   8.515   3.964  10.856
 4459W        W 8510   8.338   2.153   0.391
 4460W        W 8511   0.824   7.320   2.674
 4461W        W 8512   8.181   3.770   8.642
 4462W        W 8513   3.519   7.601   0.622
 4463W        W 8514   1.628   1.052   9.133
 4464W        W 8515   6.132  10.265   8.726
 4465W        W 8516  11.285   3.784   2.407
 4466W        W 8517  10.412   0.007  10.232
 4467W        W 8518   8.489   8.100   1.161
 4468W        W 8519   0.051   9.506  11.785
 4469W        W 8520   5.262  10.356   1.396
 4470W        W 8521   5.600  10.447  11.731
 4471W        W 8522   2.875   9.578   0.337
 4472W        W 8523   8.146   2.766   0.312
 4473W        W 8524   1.410   4.670   2.900
 4474W        W 8525   2.851   6.404   9.926
 4475W        W 8526  10.824  10.899  11.867
 4476W        W 8527   8.387   9.464   8.503
 4477W        W 8528   9.446   5.343  11.252
 4478W        W 8529   8.953   5.234   3.306
 4479W        W 8530   3.410   2.211   1.713
 4480W        W 8531  10.502  10.881   2.724
 4481W        W 8532  10.433  11.279   9.754
 4482W        W 8533   1.270   4.766  10.323
 4483W        W 8534   2.647   0.041  11.270
 4484W        W 8535   8.137   2.743  11.778
 4485W        W 8536   1.339   6.997  11.059
 4486W        W 8537   1.489   6.292  11.691
 4487W        W 8538   2.176   5.783  11.878
 4488W        W 8539  11.349   9.015  11.792
 4489W        W 8540  10.049   2.958   2.807
 4490W        W 8541   4.505   2.976   3.091
 4491W        W 8542   9.970   3.196   9.238
 4492W        W 8543  10.897   3.138   1.478
 4493W        W 8544   9.197   3.648  11.258
 4494W        W 8545   3.497   2.302  11.074
 4495W        W 8546   7.990   0.298   9.921
 4496W        W 8547   2.110   0.864   9.110
 4497W        W 8548   1.915   3.134   9.642
 4498W        W 8549  10.263  11.264   1.156
 4499W        W 8550   6.665  11.349   1.986
 4500W        W 8551   4.067   2.989   9.118
 4501W        W 8552   3.967   0.983  10.834
 4502W        W 8553   1.694   2.217  11.375
 4503W        W 8554   3.190   0.713  11.835
 4504W        W 8555   3.353   6.551   9.825
 4505W        W 8556   8.728   9.045  10.272
 4506W        W 8557   5.679   4.049   8.179
 4507W        W 8558   5.867  10.998   0.457
 4508W        W 8559   0.144   0.351   2.494
 4509W        W 8560   5.578   9.711   0.706
 4510W        W 8561   1.200   3.752   3.403
 4511W        W 8562   9.025  10.576   0.249
 4512W        W 8563   2.877   1.352   8.983
 4513W        W 8564   9.529   0.991  10.344
 4514W        W 8565   6.994   1.823   1.151
 4515W        W 8566   1.204   0.213   9.116
 4516W        W 8567   8.945   7.182   1.663
 4517W        W 8568  11.213   9.365  10.384
 4518W        W 8569   9.161   9.543   3.265
 4519W        W 8570   3.894   7.001   2.445
 4520W        W 8571   3.755   7.099  10.118
 4521W        W 8572   4.620   6.398   3.982
 4522W        W 8573   4.719   7.515   9.556
 4523W        W 8574   7.032   8.749  11.578
 4524W        W 8575   1.294  10.487  10.867
 4525W        W 8576   5.685   8.466   8.596
 4526W        W 8577   9.392   1.098   0.249
 4527W        W 8578   1.991   6.981   0.830
 4528W        W 8579   1.135   7.124   9.540
 4529W        W 8580   5.823   5.286  10.560
 4530W        W 8581   6.879   8.527   1.043
 4531W        W 8582   4.047   7.534  10.518
 4532W        W 8583   6.015   2.794   1.346
 4533W        W 8584  11.462   5.141  11.595
 4534W        W 8585   6.687   9.545   1.962
 4535W        W 8586   6.866   8.151  11.781
 4536W        W 8587   4.267   6.979   2.111
 4537W        W 8588   6.079   7.390   1.771
 4538W        W 8589   6.209   0.479  10.328
 4539W        W 8590   9.634   7.988   0.788
 4540W        W 8591   9.919   3.819  10.800
 4541W        W 8592  11.208   1.327   0.062
 4542W        W 8593   5.987   2.672   9.079
 4543W        W 8594  11.368   2.493  11.544
 4544W        W 8595   3.121   6.626   2.034
 4545W        W 8596   6.263   9.069   9.093
 4546W        W 8597   6.833   0.259   0.003
 4547W        W 8598   2.294   0.949  10.400
 4548W        W 8599   7.129   0.277  10.482
 4549W        W 8600   8.082   8.427  10.437
 4550W        W 8601   7.951   3.342  10.137
 4551W        W 8602   9.630  10.443   3.395
 4552W        W 8603   2.601   8.090   8.885
 4553W        W 8604   7.905   3.198   9.639
 4554W        W 8605   9.858   6.126   1.154
 4555W        W 8606   2.467   6.542   9.628
 4556W        W 8607   4.597   9.506  11.219
 4557W        W 8608   5.967   4.395   8.456
 4558W        W 8609   7.739   7.948   9.643
 4559W        W 8610   1.211  11.441   0.954
 4560W        W 8611   6.607  10.818   9.801
 4561W        W 8612   4.657   6.306   8.789
 4562W        W 8613   8.563   9.441   2.896
 4563W        W 8614   5.031  11.048  11.560
 4564W        W 8615   4.597  11.232   0.854
 4565W        W 8616   0.034   9.949   3.142
 4566W        W 8617   4.541   3.360   2.749
 4567W        W 8618   3.343   7.151   0.747
 4568W        W 8619   2.994   9.792   2.916
 4569W        W 8620  10.728  10.324   1.842
 4570W        W 8621   7.514   7.205   2.949
 4571W        W 8622  10.464   6.511   9.341
 4572W        W 8623  11.466   6.802  10.978
 4573W        W 8624   1.293   8.778  10.551
 4574W        W 8625   3.414   9.299   8.766
 4575W        W 8626   8.825   3.055  10.050
 4576W        W 8627   9.578   5.761   9.898
 4577W        W 8628   9.461   6.087   3.441
 4578W        W 8629   2.677   2.305  11.361
 4579W        W 8630   1.474   2.654  11.497
 4580W        W 8631   9.892   8.368  10.329
 4581W        W 8632   9.704   4.765   9.725
 4582W        W 8633   8.112   2.267  11.940
 4583W        W 8634   9.830   4.119  10.043
 4584W        W 8635   2.371  10.158  11.893
 4585W        W 8636   1.322   5.556  10.521
 4586W        W 8637   7.468   1.194  10.942
 4587W        W 8638  10.041   2.679   3.279
 4588W        W 8639   2.147   6.775  11.787
 4589W        W 8640   1.711   3.946   3.315
 4590W        W 8641   5.964   9.133   2.113
 4591W        W 8642  10.481   2.709   2.964
 4592W        W 8643  10.865   8.662   0.372
 4593W        W 8644   6.487  10.643   3.261
 4594W        W 8645   9.391   0.834   1.305
 4595W        W 8646   9.294   3.971   3.565
 4596W        W 8647   4.552  10.808  10.180
 4597W        W 8648   6.427  10.745   0.922
 4598W        W 8649   9.537  11.148   8.435
 4599W        W 8650  10.882   4.033   3.286
 4600W        W 8651   0.750   8.611   8.947
 4601W        W 8652   0.401   5.664   2.363
 4602W        W 8653   4.636   3.201  10.866
 4603W        W 8654  10.280  10.085  10.580
 4604W        W 8655  11.376   4.412   1.159
 4605W        W 8656   8.006   9.933   1.863
 4606W        W 8657   9.917   4.379   2.896
 4607W        W 8658   2.219   4.853   1.692
 4608W        W 8659   6.529   0.704   9.985
 4609W        W 8660   8.626   6.637   9.226
 4610W        W 8661   5.911   3.393  10.295
 4611W        W 8662   7.184   6.160   1.199
 4612W        W 8663   4.251   6.681   9.474
 4613W        W 8664   8.635   2.077   3.595
 4614W        W 8665   7.455   4.266  11.494
 4615W        W 8666   4.243   0.564  10.887
 4616W        W 8667   9.280   3.366   0.003
 4617W        W 8668   0.314   2.676  10.087
 4618W        W 8669   3.792   2.208   9.559
 4619W        W 8670   7.430  11.278   9.478
 4620W        W 8671   0.161   2.254  11.931
 4621W        W 8672   8.023  11.288   1.998
 4622W        W 8673   1.451   8.433   9.695
 4623W        W 8674   2.340   7.668   9.738
 4624W        W 8675   4.975   2.818   2.249
 4625W        W 8676   5.569   7.124   1.184
 4626W        W 8677   5.669   4.234   2.716
 4627W        W 8678   8.839   9.468   1.156
 4628W        W 8679   8.319   0.215   2.479
 4629W        W 8680   2.791   4.732  10.902
 4630W        W 8681   5.203   9.271  11.541
 4631W        W 8682   6.043   0.381   2.788
 4632W        W 8683   4.196   7.532   9.532
 4633W        W 8684   2.350   3.467   9.483
 4634W        W 8685  11.284  11.243   1.316
 4635W        W 8686   8.389  10.821   3.308
 4636W        W 8687   1.230   2.649   8.895
 4637W        W 8688   2.668   8.625   2.213
 4638W        W 8689  10.103   9.788   0.448
 4639W        W 8690   1.857   2.024  11.920
 4640W        W 8691   5.779   1.228   8.956
 4641W        W 8692   1.841   3.726  10.506
 4642W        W 8693   4.592   3.186   9.958
 4643W        W 8694   5.673   3.656  11.012
 4644W        W 8695   6.439   8.268  10.848
 4645W        W 8696   9.390  10.802   3.091
 4646W        W 8697   1.197   3.137   8.642
 4647W        W 8698   7.715   8.579   2.299
 4648W        W 8699  10.987   8.639   9.351
 4649W        W 8700   3.133   0.807   0.759
 4650W        W 8701   4.715   9.065  10.959
 4651W        W 8702   3.151   0.868   9.095
 4652W        W 8703   6.328   8.855  11.927
 4653W        W 8704   5.144  10.544   3.342
 4654W        W 8705  11.321   2.604  10.017
 4655W        W 8706   8.069   0.978   9.070
 4656W        W 8707   6.740   7.701  11.564
 4657W        W 8708   2.162   9.815   0.747
 4658W        W 8709   0.364  10.952   2.620
 4659W        W 8710  11.061   2.611  10.480
 4660W        W 8711   7.528   5.979   0.839
 4661W        W 8712   3.180   4.362   1.211
 4662W        W 8713   2.345   4.127  11.604
 4663W        W 8714  10.053  10.243   2.280
 4664W        W 8715   7.190  10.340   2.421
 4665W        W 8716   8.227   8.505   3.398
 4666W        W 8717   1.299   9.294   8.948
 4667W        W 8718  10.929   0.872  11.854
 4668W        W 8719   6.481   0.104   2.886
 4669W        W 8720  10.375   8.981   0.082
 4670W        W 8721   2.690   1.176   0.314
 4671W        W 8722   7.826   7.718   0.872
 4672W        W 8723   7.515   4.630  10.033
 4673W        W 8724   5.667   3.585   0.269
 4674W        W 8725  10.493   3.637   1.300
 4675W        W 8726   8.263   2.452   1.951
 4676W        W 8727  11.482   9.020   9.121
 4677W        W 8728   3.240   3.360   9.447
 4678W        W 8729   1.672  10.686   0.459
 4679W        W 8730   2.283   4.369   1.464
 4680W        W 8731   0.552   7.064   0.230
 4681W        W 8732  11.026   7.160   9.002
 4682W        W 8733  10.116   9.095   0.940
 4683W        W 8734   1.503   3.243   3.594
 4684W        W 8735   4.815   0.470  11.512
 4685W        W 8736   0.833  10.912   0.211
 4686W        W 8737   9.523   2.388   0.993
 4687W        W 8738   2.869  10.941   8.482
 4688W        W 8739   5.000   9.520   3.375
 4689W        W 8740   8.077   8.473   0.410
 4690W        W 8741   0.559   2.314   0.261
 4691W        W 8742   0.831   7.399   3.569
 4692W        W 8743   8.071   2.074   8.554
 4693W        W 8744   8.550   8.475   2.514
 4694W        W 8745   6.150   6.205  10.271
 4695W        W 8746   0.316   5.277  10.272
 4696W        W 8747   9.836   9.441  11.133
 4697W        W 8748  10.288   0.751   2.729
 4698W        W 8749   2.880   5.051   2.184
 4699W        W 8750   4.976  11.063  10.324
 4700W        W 8751   4.050  10.556  10.258
 4701W        W 8752   9.591  11.017  10.308
 4702W        W 8753   2.939   4.981   1.693
 4703W        W 8754  10.122   3.765  11.259
 4704W        W 8755   5.107  10.951   1.520
 4705W        W 8756   7.517   0.585  10.651
 4706W        W 8757   6.732   6.289  10.517
 4707W        W 8758   6.231   7.119   0.864
 4708W        W 8759   0.121   4.118   2.617
 4709W        W 8760   7.034   1.439   2.137
 4710W        W 8761   2.953   6.898   0.977
 4711W        W 8762  10.602   0.793   1.824
 4712W        W 8763   9.612   1.655  11.480
 4713W        W 8764   2.445   7.029   0.560
 4714W        W 8765   3.167   9.600  10.081
 4715W        W 8766  10.453   8.988   9.230
 4716W        W 8767   5.133  10.555  11.581
 4717W        W 8768   4.770   5.243   1.275
 4718W        W 8769   8.094   0.653   2.244
 4719W        W 8770   0.595   8.692   0.916
 4720W        W 8771   3.501   4.616   3.563
 4721W        W 8772   6.100   5.194   1.044
 4722W        W 8773   2.021   9.076   1.329
 4723W        W 8774   4.832   0.988   9.311
 4724W        W 8775   0.900   2.415   0.705
 4725W        W 8776   8.615   4.629   9.521
 4726W        W 8777   7.253   9.975  11.075
 4727W        W 8778   4.267   7.128  10.272
 4728W        W 8779   7.388   0.833  10.213
 4729W        W 8780   2.585   4.253  10.727
 4730W        W 8781   0.449  10.811   1.657
 4731W        W 8782   9.745   6.625  10.856
 4732W        W 8783   5.881   6.895   3.547
 4733W        W 8784   5.626   4.537   3.479
 4734W        W 8785  10.797   9.566  11.309
 4735W        W 8786   1.560   6.908   0.525
 4736W        W 8787  10.333   3.678   2.480
 4737W        W 8788   8.869  10.871   3.078
 4738W        W 8789   6.339   0.697   9.526
 4739W        W 8790   9.873   0.432  11.805
 4740W        W 8791   6.031   2.668   9.945
 4741W        W 8792   3.163   1.019   3.018
 4742W        W 8793   1.613   0.680   9.973
 4743W        W 8794   4.733   5.238   1.791
 4744W        W 8795   1.819   0.468  11.748
 4745W        W 8796   1.694   3.368  11.937
 4746W        W 8797  11.407   6.156  10.942
 4747W        W 8798   0.706   9.589   1.061
 4748W        W 8799   6.108   7.893   1.775
 4749W        W 8800   1.262   8.291  10.696
 4750W        W 8801   2.714   0.369  11.731
 4751W        W 8802   5.552   6.712   0.897
 4752W        W 8803   0.251   6.169   1.008
 4753W        W 8804   1.710   9.555   9.102
 4754W        W 8805   7.752   6.536  11.886
 4755W        W 8806   9.967   8.002   9.179
 4756W        W 8807   1.903   7.182   8.962
 4757W        W 8808   7.365  11.277  10.376
 4758W        W 8809   4.856  10.843  12.000
 4759W        W 8810   1.371  10.683   2.778
 4760W        W 8811   8.486   9.902   3.129
 4761W        W 8812   8.100  11.416   3.456
 4762W        W 8813   8.041   0.222   1.316
 4763W        W 8814   4.697   2.218  10.065
 4764W        W 8815   2.250   5.699   2.223
 4765W        W 8816   4.329   1.895  10.167
 4766W        W 8817   9.422  10.115   9.458
 4767W        W 8818   1.407   1.474   0.416
 4768W        W 8819  10.444   5.558   8.916
 4769W        W 8820   5.702  11.377   2.271
 4770W        W 8821  10.295   5.285   1.294
 4771W        W 8822   3.666   8.241   2.699
 4772W        W 8823   2.645   9.088   2.442
 4773W        W 8824   5.012   6.192   1.415
 4774W        W 8825  11.455   4.741  10.066
 4775W        W 8826   2.512   7.174   3.648
 4776W        W 8827   0.712   7.568  10.221
 4777W        W 8828   8.051   0.466   8.928
 4778W        W 8829   1.912  11.254   3.462
 4779W        W 8830   1.050  10.519   1.022
 4780W        W 8831   0.169   9.354   0.486
 4781W        W 8832   9.059   3.432   1.878
 4782W        W 8833   9.670   3.712   0.113
 4783W        W 8834   5.973   1.679  11.816
 4784W        W 8835   9.973   5.263   1.687
 4785W        W 8836   6.097   6.405   1.757
 4786W        W 8837  10.428   5.812  10.986
 4787W        W 8838   6.594   4.330   1.414
 4788W        W 8839   8.198   3.723   2.817
 4789W        W 8840   0.911  11.256   3.622
 4790W        W 8841   3.916   9.821   3.573
 4791W        W 8842  11.248   1.205  10.269
 4792W        W 8843   5.334  10.701   0.076
 4793W        W 8844   6.258   1.532  11.415
 4794W        W 8845   3.212   7.204  11.876
 4795W        W 8846   5.924  11.082  10.403
 4796W        W 8847  11.094  11.227   2.200
 4797W        W 8848   6.070   7.577   0.743
 4798W        W 8849   6.528   9.847   0.848
 4799W        W 8850   1.921   3.303   2.365
 4800W        W 8851   2.893   2.254   1.707
 4801W        W 8852  10.031   9.916   1.362
 4802W        W 8853   2.027  10.484   0.070
 4803W        W 8854   6.175   8.680   9.451
 4804W        W 8855   0.838   2.787   2.662
 4805W        W 8856  10.832   2.236   9.274
 4806W        W 8857   4.215   1.089   3.689
 4807W        W 8858   2.244   3.121  11.283
 4808W        W 8859  10.712   0.080   2.244
 4809W        W 8860   2.539  11.366  11.783
 4810W        W 8861   1.039   1.383   2.735
 4811W        W 8862   1.295   1.048  10.086
 4812W        W 8863   3.107   1.183   0.008
 4813W        W 8864   8.544   3.578   0.406
 4814W        W 8865  11.482   3.871   0.502
 4815W        W 8866  10.441   5.301   9.916
 4816W        W 8867   2.244   5.225   8.565
 4817W        W 8868   2.671   5.066   3.180
 4818W        W 8869   6.542   3.957  11.797
 4819W        W 8870   8.458   9.340   2.415
 4820W        W 8871   8.187   2.358   1.451
 4821W        W 8872   0.193   9.522   0.967
 4822W        W 8873   3.213   1.606  10.906
 4823W        W 8874   1.980  11.462  10.443
 4824W        W 8875   7.094   9.302   8.467
 4825W        W 8876   7.263   4.276   2.758
 4826W        W 8877   9.981  11.442  11.028
 4827W        W 8878   8.381   0.831  11.687
 4828W        W 8879   4.687   3.742   9.069
 4829W        W 8880   6.028   9.620   3.073
 4830W        W 8881   9.015   1.727   9.794
 4831W        W 8882   5.744   6.420   3.100
 4832W        W 8883   6.921   2.169  10.486
 4833W        W 8884   5.451   4.506   8.302
 4834W        W 8885   2.727   7.068   8.569
 4835W        W 8886   4.670   4.821  10.492
 4836W        W 8887   7.927   6.223   9.752
 4837W        W 8888   3.563  11.268   2.171
 4838W        W 8889  11.272   2.016   9.485
 4839W        W 8890  10.298   0.508  10.222
 4840W        W 8891  10.401   8.346   0.476
 4841W        W 8892   4.528   2.392   0.508
 4842W        W 8893   6.974   8.931   1.771
 4843W        W 8894   5.119   2.609   8.979
 4844W        W 8895   6.982   2.757   2.278
 4845W        W 8896   2.599   0.952   0.780
 4846W        W 8897  10.560   3.515  11.278
 4847W        W 8898   9.641   4.077   0.454
 4848W        W 8899   6.104   8.170   1.338
 4849W        W 8900   3.118  11.310   0.963
 4850W        W 8901   0.259  10.028   0.901
 4851W        W 8902   5.697  10.493   1.641
 4852W        W 8903   6.929   2.931   0.970
 4853W        W 8904  10.437   4.866  10.826
 4854W        W 8905   3.521  10.844   1.297
 4855W        W 8906   8.041   2.312   2.413
 4856W        W 8907   8.349   0.220   1.970
 4857W        W 8908   2.414   5.115  10.803
 4858W        W 8909   1.863   9.646   2.044
 4859W        W 8910   2.264  10.504   9.625
 4860W        W 8911   3.037   9.346   2.668
 4861W        W 8912   6.769   2.604   2.713
 4862W        W 8913  10.691   5.504   3.184
 4863W        W 8914   6.830   8.009   1.081
 4864W        W 8915   3.908   8.775   0.446
 4865W        W 8916   8.565  10.845   9.062
 4866W        W 8917   9.942  10.950  10.888
 4867W        W 8918   0.218  11.318   8.805
 4868W        W 8919   9.399   7.502   2.553
 4869W        W 8920  11.433   6.552   1.344
 4870W        W 8921  10.478   3.208   3.211
 4871W        W 8922   4.856   1.798   2.362
 4872W        W 8923  10.338   4.641  11.899
 4873W        W 8924   7.573   2.037   3.022
 4874W        W 8925   6.102   8.424   1.778
 4875W        W 8926  10.830   0.618   2.303
 4876W        W 8927   3.917   1.395   2.846
 4877W        W 8928   1.449   6.098   0.565
 4878W        W 8929   6.168   5.047   0.025
 4879W        W 8930   7.040   5.167   1.159
 4880W        W 8931   2.305  10.291   1.465
 4881W        W 8932   8.863   1.310   2.230
 4882W        W 8933   8.569  10.369   9.932
 4883W        W 8934   0.729   0.580  11.433
 4884W        W 8935   1.490   4.118   2.342
 4885W        W 8936   4.084   6.339   8.075
 4886W        W 8937   8.858   2.094   3.128
 4887W        W 8938   2.179   2.371   2.277
 4888W        W 8939  10.584   0.299   9.806
 4889W        W 8940   0.770   9.490  10.397
 4890W        W 8941   3.589   7.481  11.263
 4891W        W 8942   7.725   5.076  11.050
 4892W        W 8943   3.140   6.760   8.503
 4893W        W 8944   0.924   7.966   0.578
 4894W        W 8945   5.986   2.570   3.633
 4895W        W 8946   3.187   7.609  10.513
 4896W        W 8947   8.369  10.879  10.019
 4897W        W 8948   9.571  10.887   8.929
 4898W        W 8949   3.506   8.891   9.522
 4899W        W 8950   7.791   3.616   1.893
 4900W        W 8951   2.951   1.158  10.919
 4901W        W 8952   2.315   7.435  11.070
 4902W        W 8953   7.957   5.520  10.312
 4903W        W 8954   5.196   8.611   1.651
 4904W        W 8955  11.458   2.069   9.956
 4905W        W 8956   6.616   1.443   0.368
 4906W        W 8957   2.610   5.755   0.259
 4907W        W 8958   0.862   3.582  11.946
 4908W        W 8959   3.683   6.296   9.006
 4909W        W 8960   0.876   9.545   9.084
 4910W        W 8961  10.144   6.602   3.845
 4911W        W 8962   4.664   7.474  11.072
 4912W        W 8963   7.131   8.054   0.227
 4913W        W 8964  10.003   5.186   9.552
 4914W        W 8965   0.321   1.658   2.305
 4915W        W 8966   2.885   1.418   2.840
 4916W        W 8967   1.504  10.429   2.302
 4917W        W 8968  11.417   6.985  11.449
 4918W        W 8969   9.510   3.441   2.153
 4919W        W 8970   8.955   0.895   9.352
 4920W        W 8971   3.674  10.350   1.177
 4921W        W 8972  10.900   2.211  11.446
 4922W        W 8973  10.449   0.098   9.328
 4923W        W 8974   9.265   6.082   2.433
 4924W        W 8975   6.871   7.489   3.192
 4925W        W 8976   6.264  11.319   1.659
 4926W        W 8977   6.423   5.856   9.627
 4927W        W 8978   7.256   2.738   1.368
 4928W        W 8979  10.232   6.502   1.923
 4929W        W 8980   0.771   5.763  11.044
 4930W        W 8981   5.460   2.840   2.424
 4931W        W 8982   7.528   0.472   0.442
 4932W        W 8983   1.119   6.020   0.944
 4933W        W 8984   3.605   8.524   3.148
 4934W        W 8985  10.221   1.149   0.019
 4935W        W 8986   2.783   1.907   0.667
 4936W        W 8987   3.200  10.474   9.550
 4937W        W 8988   3.926   6.958  11.164
 4938W        W 8989   7.430   1.966  10.512
 4939W        W 8990   4.241   2.396   8.843
 4940W        W 8991   3.397   9.877  11.935
 4941W        W 8992   8.757   3.836   1.708
 4942W        W 8993   8.032   6.501   2.778
 4943W        W 8994   1.159  10.448  11.972
 4944W        W 8995  10.447   7.484   0.159
 4945W        W 8996  10.849   1.563   2.451
 4946W        W 8997   9.936   8.949   0.465
 4947W        W 8998   9.632   4.209   8.990
 4948W        W 8999   2.620   1.351  11.259
 4949W        W 9000   4.208  11.032   1.693
 4950W        W 9001   7.013   0.812   3.121
 4951W        W 9002   8.525   8.824   1.716
 4952W        W 9003   1.678   3.093   2.781
 4953W        W 9004  11.490   2.877  10.448
 4954W        W 9005   8.880   7.823  10.626
 4955W        W 9006   5.919  10.442   1.180
 4956W        W 9007   2.811  11.397   2.694
 4957W        W 9008   2.601   2.435   1.293
 4958W        W 9009  10.326   7.426   2.407
 4959W        W 9010   9.326   4.810   2.280
 4960W        W 9011   2.909   5.063   1.204
 4961W        W 9012  10.370   1.657  10.964
 4962W        W 9013  10.879   6.096   3.239
 4963W        W 9014   1.263   4.298   9.396
 4964W        W 9015   1.363   0.366   2.005
 4965W        W 9016   7.208   7.917  11.490
 4966W        W 9017   3.827   8.166   1.915
 4967W        W 9018   1.706   8.123   2.276
 4968W        W 9019   5.879   7.240  11.770
 4969W        W 9020   0.646   3.257   3.505
 4970W        W 9021   2.180   5.820   3.274
 4971W        W 9022  10.305  11.413   2.513
 4972W        W 9023   6.462   0.951  10.429
 4973W        W 9024   6.511   6.208   2.024
 4974W        W 9025  10.131   5.104  11.921
 4975W        W 9026  11.002   4.972  10.798
 4976W        W 9027   8.780   6.447   8.270
 4977W        W 9028   1.748   4.983   0.778
 4978W        W 9029   6.448   5.696   0.426
 4979W        W 9030   6.662   4.942  11.969
 4980W        W 9031   6.233  10.433   1.631
 4981W        W 9032  11.067   0.495   9.887
 4982W        W 9033  10.140   3.807   0.253
 4983W        W 9034   5.233   6.724   2.262
 4984W        W 9035   9.344   5.958   9.461
 4985W        W 9036   0.402   9.029  11.599
 4986W        W 9037   2.314   3.736   0.333
 4987W        W 9038   4.926   9.963   9.221
 4988W        W 9039   9.089   5.511   9.548
 4989W        W 9040   1.738   6.744   9.895
 4990W        W 9041   4.743  11.472  11.563
 4991W        W 9042   7.048   5.542  11.198
 4992W        W 9043   2.493   4.147   2.273
 4993W        W 9044   6.662  11.038   3.556
 4994W        W 9045   7.906   5.908  11.442
 4995W        W 9046   6.728   7.978   0.582
 4996W        W 9047   3.515   7.955   2.291
 4997W        W 9048   8.386   6.063  11.401
 4998W        W 9049  11.415   6.432   9.822
 4999W        W 9050   1.982   2.678   9.384
 5000W        W 9051   7.361   9.715   8.555
 5001W        W 9052   5.792   6.672   1.389
 5002W        W 9053  11.234   2.105   8.983
 5003W        W 9054   8.261  10.562  11.430
 5004W        W 9055   0.183   8.069  11.282
 5005W        W 9056   9.985   5.130   3.507
 5006W        W 9057   0.931   9.051   3.652
 5007W        W 9058   2.875   6.536  11.936
 5008W        W 9059   7.295  10.452  11.330
 5009W        W 9060   3.988   0.196   3.582
 5010W        W 9061   8.056   6.860   1.224
 5011W        W 9062   8.612   4.042   2.715
 5012W        W 9063   3.620  11.229   0.883
 5013W        W 9064   0.693   7.747   2.423
 5014W        W 9065   5.376   9.434   3.696
 5015W        W 9066   0.995   9.618  10.891
 5016W        W 9067   7.404   2.608   9.937
 5017W        W 9068   4.166   6.052   1.670
 5018W        W 9069   7.584  11.072   2.712
 5019W        W 9070   8.556   7.421  10.707
 5020W        W 9071   6.544   6.123   8.195
 5021W        W 9072   2.681   6.457   0.938
 5022W        W 9073   3.260   2.615   0.002
 5023W        W 9074   6.530   8.448   9.167
 5024W        W 9075   2.616  11.112   1.071
 5025W        W 9076   6.691  10.309   2.449
 5026W        W 9077   3.088   1.193   1.068
 5027W        W 9078   8.734  10.332   9.000
 5028W        W 9079   5.457   3.130   9.285
 5029W        W 9080   5.940   5.791  10.503
 5030W        W 9081  10.040   3.699  11.751
 5031W        W 9082  10.012   5.612   9.182
 5032W        W 9083   8.500   2.591  10.089
 5033W        W 9084   5.290   2.141  11.486
 5034W        W 9085   0.549   2.311  10.377
 5035W        W 9086   1.356   9.506  11.562
 5036W        W 9087   6.675   8.385   2.302
 5037W        W 9088   8.171   9.479   3.246
 5038W        W 9089   9.859   8.648   2.834
 5039W        W 9090   2.553   6.670   3.461
 5040W        W 9091   1.358   1.450   1.827
 5041W        W 9092   9.808   9.334   2.161
 5042W        W 9093   5.320   5.116  11.600
 5043W        W 9094   6.704  11.442   1.438
 5044W        W 9095   8.843   8.315   8.120
 5045W        W 9096   2.748   7.913   9.884
 5046W        W 9097   1.669   1.565   2.616
 5047W        W 9098   5.786   9.144   0.551
 5048W        W 9099  10.931   5.541  11.876
 5049W        W 9100   1.437   4.540   8.988
 5050W        W 9101   5.600   6.151  10.657
 5051W        W 9102  11.282  10.749   9.444
 5052W        W 9103   9.357   1.829   1.052
 5053W        W 9104   5.266   1.380   8.602
 5054W        W 9105   9.633   3.791   9.490
 5055W        W 9106   2.472   2.935  10.515
 5056W        W 9107   3.750   8.459   9.235
 5057W        W 9108  11.144   1.492   0.962
 5058W        W 9109   8.616  10.829  10.467
 5059W        W 9110   5.596   7.638   8.273
 5060W        W 9111   1.385   5.682   2.758
 5061W        W 9112   7.564  10.929   1.317
 5062W        W 9113   0.480   1.468   0.311
 5063W        W 9114   4.516   1.271  12.000
 5064W        W 9115   0.269   7.494   2.524
 5065W        W 9116   2.468   5.296   0.514
 5066W        W 9117   7.810   5.499  11.711
 5067W        W 9118   7.597   8.908  10.175
 5068W        W 9119   3.086   1.834  10.055
 5069W        W 9120   4.011   0.470   1.950
 5070W        W 9121   7.504   0.680  11.609
 5071W        W 9122   4.089   4.817   0.804
 5072W        W 9123   9.596   1.356   2.937
 5073W        W 9124   6.655   7.544   9.160
 5074W        W 9125   3.262   7.794   8.927
 5075W        W 9126  11.469   0.775  10.807
 5076W        W 9127   1.420   5.085   8.990
 5077W        W 9128   7.143  10.428   3.338
 5078W        W 9129   1.339   2.331   2.890
 5079W        W 9130   8.780   3.137  10.993
 5080W        W 9131   1.772   7.646  11.863
 5081W        W 9132   4.069   2.208   2.184
 5082W        W 9133  10.108   1.718  11.408
 5083W        W 9134   3.379   8.648   2.702
 5084W        W 9135   7.839   7.442   3.279
 5085W        W 9136   4.605   4.404  11.332
 5086W        W 9137  11.307   9.258  11.280
 5087W        W 9138   8.562   7.184  10.249
 5088W        W 9139   3.462   7.080  10.971
 5089W        W 9140   1.936   0.260   9.993
 5090W        W 9141   2.928  10.053   0.512
 5091W        W 9142   0.525  10.877   8.980
 5092W        W 9143   1.778   6.445   2.448
 5093W        W 9144   3.599   8.859  10.016
 5094W        W 9145   8.525   2.838   3.158
 5095W        W 9146   7.002   0.708  11.778
 5096W        W 9147   9.340  11.160  11.694
 5097W        W 9148   9.330  11.107   9.347
 5098W        W 9149   2.664   5.569   9.264
 5099W        W 9150   1.374   7.893  10.402
 5100W        W 9151   4.359   9.094   8.566
 5101W        W 9152  11.114   9.598   3.092
 5102W        W 9153   0.793   6.610   0.275
 5103W        W 9154   3.808   8.005   0.517
 5104W        W 9155   2.461   9.604  11.136
 5105W        W 9156   9.021   6.289   1.780
 5106W        W 9157   4.352   7.113   2.633
 5107W        W 9158  10.793   8.237   3.140
 5108W        W 9159   6.623   9.408   0.555
 5109W        W 9160   1.364   0.455   0.940
 5110W        W 9161   4.540   3.025   1.917
 5111W        W 9162   8.602   3.631   8.393
 5112W        W 9163   4.482   5.985  10.654
 5113W        W 9164   4.498   1.455   3.344
 5114W        W 9165   3.488   9.133   2.774
 5115W        W 9166   0.817   5.296   3.163
 5116W        W 9167   0.280  11.027   3.625
 5117W        W 9168   0.236   9.457  10.423
 5118W        W 9169   1.861  10.903   2.616
 5119W        W 9170   1.990   3.182   3.427
 5120W        W 9171  11.444  10.803   2.323
 5121W        W 9172   0.388   5.404  11.666
 5122W        W 9173   1.741  11.366   1.929
 5123W        W 9174   3.739   7.607   1.876
 5124W        W 9175   7.986   6.941  11.518
 5125W        W 9176   4.597   4.367   1.707
 5126W        W 9177  10.850   0.981  10.059
 5127W        W 9178  10.622   2.241  11.884
 5128W        W 9179   5.475   5.221  10.199
 5129W        W 9180   7.444   8.858  10.666
 5130W        W 9181   4.038   3.121  10.508
 5131W        W 9182   0.763   4.330   9.060
 5132W        W 9183   3.256   6.705   9.348
 5133W        W 9184   4.495   3.739   2.328
 5134W        W 9185  10.859   2.125   3.560
 5135W        W 9186   6.530   9.815   2.346
 5136W        W 9187   0.964   1.614   3.309
 5137W        W 9188   0.947   1.890  11.488
 5138W        W 9189   1.378   9.913  11.244
 5139W        W 9190   2.638   3.781   9.936
 5140W        W 9191   3.385   3.198  11.968
 5141W        W 9192   0.991   7.936   2.839
 5142W        W 9193   8.170   4.635   3.144
 5143W        W 9194   6.009   2.848   8.589
 5144W        W 9195  10.399   7.008   3.234
 5145W        W 9196   6.204   1.786   0.269
 5146W        W 9197  11.474   9.208   1.774
 5147W        W 9198   0.415   9.561   2.472
 5148W        W 9199   5.029   4.323   3.599
 5149W        W 9200   1.573   1.891   1.697
 5150W        W 9201   2.198   0.811   1.208
 5151W        W 9202   5.238   1.245   1.614
 5152W        W 9203   3.060   5.364   3.359
 5153W        W 9204   6.052   7.439  10.756
 5154W        W 9205  10.841   2.783  10.046
 5155W        W 9206   6.174   2.141  11.870
 5156W        W 9207   4.596   4.837  11.960
 5157W        W 9208  10.602   1.395   3.204
 5158W        W 9209   0.888   8.418   1.237
 5159W        W 9210   5.705   0.945   9.399
 5160W        W 9211   6.894   4.075   1.842
 5161W        W 9212   3.599   5.206   8.315
 5162W        W 9213   8.840  11.366   1.184
 5163W        W 9214   3.722   7.466  11.746
 5164W        W 9215   9.069   2.285  10.987
 5165W        W 9216   9.999   9.820   9.317
 5166W        W 9217   4.219   5.169   1.575
 5167W        W 9218   2.459  10.421   2.590
 5168W        W 9219   1.303   4.732   0.711
 5169W        W 9220   1.268   8.136   1.052
 5170W        W 9221   1.914   4.103  10.112
 5171W        W 9222   2.704   4.634   2.450
 5172W        W 9223   7.916   8.808  11.583
 5173W        W 9224   8.555   5.754   2.625
 5174W        W 9225  10.271   7.013   0.940
 5175W        W 9226   0.899   4.177   3.524
 5176W        W 9227   0.921   5.530   2.517
 5177W        W 9228   8.777   6.090   1.013
 5178W        W 9229   1.675   4.190   2.839
 5179W        W 9230   2.074   9.551   3.135
 5180W        W 9231   5.119   7.007   0.199
 5181W        W 9232  10.740   2.677   1.666
 5182W        W 9233   9.488   5.739   8.978
 5183W        W 9234  10.836  10.403   8.770
 5184W        W 9235   3.609   4.204   1.458
 5185W        W 9236   0.428   5.492  10.762
 5186W        W 9237   6.087   7.641   1.258
 5187W        W 9238   9.661   1.204   3.420
 5188W        W 9239   3.360   4.289   9.868
 5189W        W 9240  10.843   0.997   3.375
 5190W        W 9241   8.104   1.914   9.076
 5191W        W 9242   6.070   0.883   3.513
 5192W        W 9243   0.706  10.851  10.305
 5193W        W 9244   6.949   9.610   8.859
 5194W        W 9245  11.053   2.491   2.647
 5195W        W 9246   9.229   5.317   9.094
 5196W        W 9247   0.942   4.149  10.748
 5197W        W 9248   9.534  10.383   2.388
 5198W        W 9249   3.839   6.460  11.293
 5199W        W 9250   1.837   7.547  10.945
 5200W        W 9251   3.721   6.138   2.008
 5201W        W 9252   2.680   1.766   9.289
 5202W        W 9253   8.917   4.155  10.179
 5203W        W 9254   4.964   3.070   9.166
 5204W        W 9255   6.403   6.195   0.487
 5205W        W 9256   8.634   1.878   9.029
 5206W        W 9257   9.411  10.853   2.228
 5207W        W 9258   9.108   5.205   0.027
 5208W        W 9259   4.656   9.495   0.267
 5209W        W 9260   3.386   7.048   2.333
 5210W        W 9261   2.005   6.329   9.743
 5211W        W 9262   6.783  11.132   0.903
 5212W        W 9263   3.998   1.005   9.937
 5213W        W 9264   6.133   0.516   8.807
 5214W        W 9265   9.105   6.603  11.664
 5215W        W 9266   9.553   1.471   1.955
 5216W        W 9267   9.007   8.496   8.574
 5217W        W 9268   6.555   6.791   3.448
 5218W        W 9269  10.410   5.233   0.419
 5219W        W 9270   0.798   7.123  10.516
 5220W        W 9271   2.265   5.566  10.582
 5221W        W 9272   1.513   4.985   9.837
 5222W        W 9273   0.246   2.145  11.435
 5223W        W 9274   9.399   0.037   2.927
 5224W        W 9275   7.985   1.197   0.174
 5225W        W 9276   3.348   7.054   1.260
 5226W        W 9277   3.550   8.464   1.127
 5227W        W 9278   8.933   7.313  11.541
 5228W        W 9279   2.459   4.223   0.100
 5229W        W 9280   0.870   0.318   1.331
 5230W        W 9281   5.291   1.101   9.054
 5231W        W 9282   7.953   9.349  10.880
 5232W        W 9283   1.248   8.657  11.080
 5233W        W 9284   2.632   0.096   2.212
 5234W        W 9285   3.178  10.846   0.144
 5235W        W 9286   0.644   5.485   0.435
 5236W        W 9287   1.106   1.840   9.490
 5237W        W 9288   2.063   2.909  10.832
 5238W        W 9289   8.470   4.925   2.322
 5239W        W 9290   6.658   0.428  11.217
 5240W        W 9291   9.370   9.859  11.960
 5241W        W 9292   9.664   8.539   1.145
 5242W        W 9293  11.140   8.167  10.713
 5243W        W 9294  11.023   3.971  10.973
 5244W        W 9295   9.313   2.175  11.494
 5245W        W 9296   3.204   4.776   2.514
 5246W        W 9297  11.225   0.476   0.079
 5247W        W 9298   1.477   2.747   9.442
 5248W        W 9299   9.812   2.134  11.482
 5249W        W 9300   7.590   4.134  10.170
 5250W        W 9301   0.691   7.607   3.077
 5251W        W 9302   0.944   2.786  11.366
 5252W        W 9303   6.084   2.060  10.851
 5253W        W 9304   7.235   1.490  11.342
 5254W        W 9305   1.814   8.195   3.110
 5255W        W 9306   3.917   2.797   1.154
 5256W        W 9307   8.534  10.012  11.806
 5257W        W 9308  10.398   1.271   1.794
 5258W        W 9309   1.720   0.016   0.944
 5259W        W 9310   9.259   7.613   1.547
 5260W        W 9311   9.542   8.945   9.892
 5261W        W 9312   9.123   5.410   1.907
 5262W        W 9313   3.706   3.109   9.586
 5263W        W 9314   1.718   0.739   3.106
 5264W        W 9315   7.080   6.318  10.139
 5265W        W 9316   5.137   0.749  10.748
 5266W        W 9317   2.858   2.809   1.499
 5267W        W 9318   1.349   8.900   9.496
 5268W        W 9319   4.396   9.958  11.669
 5269W        W 9320   9.364   3.858   9.937
 5270W        W 9321   2.777   0.069   1.230
 5271W        W 9322  10.783   5.396  11.008
 5272W        W 9323   1.342   7.582   0.360
 5273W        W 9324   0.032   4.788  11.031
 5274W        W 9325  11.051   3.510  11.805
 5275W        W 9326   1.224   4.660   2.301
 5276W        W 9327   4.959  10.394   9.543
 5277W        W 9328   4.285   7.049   3.202
 5278W        W 9329   3.422   6.663   0.726
 5279W        W 9330   5.719   8.526  11.331
 5280W        W 9331   9.632   5.124  11.945
 5281W        W 9332   3.402   0.242  10.940
 5282W        W 9333   6.452   3.592   2.395
 5283W        W 9334   9.120   2.428  11.900
 5284W        W 9335   2.744  10.298   9.647
 5285W        W 9336   4.852  10.082  11.454
 5286W        W 9337   8.923   2.923   1.786
 5287W        W 9338   2.869   9.439  10.863
 5288W        W 9339  11.298   1.220   3.378
 5289W        W 9340   3.444   8.841  11.079
 5290W        W 9341   0.373   4.486  10.737
 5291W        W 9342   6.215   8.656   1.185
 5292W        W 9343   2.290   5.650  10.095
 5293W        W 9344   0.473   1.783   1.391
 5294W        W 9345   0.797   6.570   9.543
 5295W        W 9346   0.898   1.358   2.258
 5296W        W 9347  10.782   4.157  11.830
 5297W        W 9348   1.213   9.758  10.319
 5298W        W 9349   4.339   6.533  11.325
 5299W        W 9350   9.149   7.112   2.341
 5300W        W 9351   1.221   6.252   9.458
 5301W        W 9352   3.347  11.288  10.147
 5302W        W 9353   5.134   0.304  10.996
 5303W        W 9354  11.443   1.695   3.198
 5304W        W 9355   1.418   3.144   2.351
 5305W        W 9356  10.842   7.425   0.496
 5306W        W 9357  10.751   6.585   0.413
 5307W        W 9358   5.171   9.940   1.703
 5308W        W 9359   9.482   4.878  11.079
 5309W        W 9360   7.023   0.988   0.804
 5310W        W 9361   2.098   1.571  11.061
 5311W        W 9362   6.191   0.889   1.894
 5312W        W 9363   7.953   1.374  10.906
 5313W        W 9364   1.598   4.208  10.545
 5314W        W 9365  10.815   8.615   2.726
 5315W        W 9366   5.278   0.688   0.282
 5316W        W 9367   3.598   9.633   1.601
 5317W        W 9368   3.346   6.688  11.839
 5318W        W 9369   8.387   1.679  10.830
 5319W        W 9370   1.478   4.517  11.299
 5320W        W 9371  10.385   1.595  11.861
 5321W        W 9372   5.228   0.347   9.987
 5322W        W 9373   9.865   2.676   9.847
 5323W        W 9374   6.623   4.052   0.988
 5324W        W 9375   1.333   6.078  10.373
 5325W        W 9376   7.677   2.165  10.089
 5326W        W 9377  10.599  11.075   2.258
 5327W        W 9378   9.749   5.256  10.839
 5328W        W 9379   0.033   5.563   2.779
 5329W        W 9380   5.819   6.072   2.697
 5330W        W 9381   6.840   9.763   3.658
 5331W        W 9382   3.891   4.213   2.303
 5332W        W 9383   9.838  11.498   2.697
 5333W        W 9384   4.674   7.349   1.994
 5334W        W 9385   3.885   0.571   0.445
 5335W        W 9386   8.695   7.384  11.986
 5336W        W 9387   5.137   3.506   0.015
 5337W        W 9388   1.421   7.542   9.496
 5338W        W 9389  11.378   5.579  10.228
 5339W        W 9390   2.382   2.984   9.372
 5340W        W 9391   9.001   1.469   0.232
 5341W        W 9392   8.019   7.444  11.570
 5342W        W 9393   8.070   8.784   2.988
 5343W        W 9394   7.667   1.518  10.507
 5344W        W 9395   5.705   2.359  11.273
 5345W        W 9396   7.977   1.888  11.062
 5346W        W 9397   1.412   0.049   0.494
 5347W        W 9398   6.642   4.998  10.560
 5348W        W 9399   0.995   1.970  10.345
 5349W        W 9400   1.756   3.496   3.087
 5350W        W 9401   0.045   9.007   0.821
 5351W        W 9402  10.125   4.229  11.011
 5352W        W 9403   3.030   7.880   8.036
 5353W        W 9404   2.033   5.099   0.356
 5354W        W 9405  10.382   1.435   2.278
 5355W        W 9406   1.383   0.278   2.509
 5356W        W 9407   0.039   5.192   8.512
 5357W        W 9408   2.696   0.875  11.895
 5358W        W 9409   2.722   0.577   2.395
 5359W        W 9410   4.707   7.916  10.801
 5360W        W 9411   0.452   4.551  11.248
 5361W        W 9412   0.967   5.796   3.032
 5362W        W 9413   9.047  10.880   1.852
 5363W        W 9414   3.745  11.479   2.804
 5364W        W 9415   6.441   1.508  11.892
 5365W        W 9416   6.633  10.442   8.916
 5366W        W 9417   4.322   4.685   9.143
 5367W        W 9418   7.304   3.346  10.520
 5368W        W 9419   9.429  10.244   0.870
 5369W        W 9420   9.075  10.785   9.040
 5370W        W 9421   1.906  11.258   9.376
 5371W        W 9422  10.242   9.621  11.976
 5372W        W 9423   0.398   4.636   0.703
 5373W        W 9424   6.080   4.599   2.687
 5374W        W 9425   8.053  10.032   9.568
 5375W        W 9426  11.415   0.122  10.081
 5376W        W 9427   4.416   2.791  10.609
 5377W        W 9428   2.833  10.800   9.429
 5378W        W 9429   5.516   4.611   9.605
 5379W        W 9430  10.328   2.878   9.988
 5380W        W 9431   5.072   0.347  11.949
 5381W        W 9432   7.513   4.018   1.069
 5382W        W 9433   6.805   7.115  10.387
 5383W        W 9434   4.591   4.632   2.512
 5384W        W 9435   7.128   5.297  10.352
 5385W        W 9436   6.246   3.873  11.404
 5386W        W 9437   2.920   6.617  11.424
 5387W        W 9438   9.917   9.593   1.728
 5388W        W 9439   9.042   8.945   8.858
 5389W        W 9440   8.961  11.470  11.963
 5390W        W 9441   7.533   9.680   0.499
 5391W        W 9442   2.668   1.448   0.844
 5392W        W 9443   1.195   8.382   0.246
 5393W        W 9444   8.100   2.372  10.999
 5394W        W 9445   1.151   9.153  11.033
 5395W        W 9446   5.714   1.456   1.413
 5396W        W 9447   6.189   3.818   3.322
 5397W        W 9448   4.145   8.242  10.742
 5398W        W 9449   8.081   6.787   9.571
 5399W        W 9450   3.863   8.681   1.836
 5400W        W 9451   8.981  11.438   3.198
 5401W        W 9452   4.172   8.872   1.232
 5402W        W 9453   6.102   1.903  10.372
 5403W        W 9454   8.666   9.512   3.380
 5404W        W 9455   3.656   7.524   9.716
 5405W        W 9456   3.580   0.978   2.672
 5406W        W 9457   1.212  10.836  10.309
 5407W        W 9458   8.849  10.406   1.143
 5408W        W 9459  11.325   4.693   2.172
 5409W        W 9460   5.233   2.740   8.486
 5410W        W 9461   4.280   5.200   1.072
 5411W        W 9462   1.733   6.457   3.024
 5412W        W 9463   0.240  11.471   9.293
 5413W        W 9464   3.251   1.273  10.509
 5414W        W 9465  10.003   8.611   0.073
 5415W        W 9466   3.403  10.994   8.397
 5416W        W 9467   5.432   9.509   1.460
 5417W        W 9468   5.505   8.940  10.350
 5418W        W 9469   6.037   4.534   9.698
 5419W        W 9470   2.909   8.132  11.463
 5420W        W 9471   8.479  11.250   8.744
 5421W        W 9472   0.836   2.361  10.806
 5422W        W 9473   9.460   4.534   0.474
 5423W        W 9474   2.438   3.238   2.293
 5424W        W 9475  10.063   2.254   2.302
 5425W        W 9476   7.261   6.139   8.742
 5426W        W 9477  10.677   0.301   2.722
 5427W        W 9478   7.562   0.446   1.442
 5428W        W 9479   7.635   9.945   9.281
 5429W        W 9480   3.669   2.695   2.845
 5430W        W 9481  10.367   6.062   9.015
 5431W        W 9482   0.389   3.718   9.425
 5432W        W 9483   8.739   6.355  10.000
 5433W        W 9484  10.977   4.583   9.947
 5434W        W 9485   5.037   4.752   0.673
 5435W        W 9486   3.852   9.890   3.056
 5436W        W 9487   9.012   3.802   2.905
 5437W        W 9488   2.185   0.851   2.651
 5438W        W 9489   7.030   5.505   1.544
 5439W        W 9490   0.018   6.145   0.536
 5440W        W 9491   4.665   9.848   3.126
 5441W        W 9492  10.682   3.102  11.552
 5442W        W 9493   9.898   2.251   9.558
 5443W        W 9494   3.159   4.250   8.857
 5444W        W 9495  10.039   0.364  11.328
 5445W        W 9496   8.046   2.657   3.352
 5446W        W 9497   3.934   5.252  11.083
 5447W        W 9498   1.165   4.254  10.298
 5448W        W 9499   0.447   1.213   2.081
 5449W        W 9500   4.316   0.260  11.510
 5450W        W 9501   3.356   0.336  10.416
 5451W        W 9502   5.871   0.531   1.759
 5452W        W 9503   5.270   7.889   2.209
 5453W        W 9504   4.659   8.519  11.928
 5454W        W 9505   8.436   7.198   1.145
 5455W        W 9506   9.477   6.547   2.594
 5456W        W 9507   8.300   3.814   9.144
 5457W        W 9508   3.299   7.940  11.211
 5458W        W 9509   8.151   3.221   8.552
 5459W        W 9510   7.400   6.111   2.133
 5460W        W 9511  10.910   5.680   9.064
 5461W        W 9512   5.974   9.164   9.497
 5462W        W 9513   5.725  11.015  11.962
 5463W        W 9514   8.938   9.986   9.602
 5464W        W 9515   5.237   1.633   9.752
 5465W        W 9516   8.992   6.436   1.304
 5466W        W 9517   4.770   9.932   0.024
 5467W        W 9518   7.700   7.567  11.955
 5468W        W 9519   0.683   2.222   1.201
 5469W        W 9520  10.957   4.297   9.340
 5470W        W 9521  10.729  11.255   8.528
 5471W        W 9522   1.290   5.247   0.758
 5472W        W 9523   7.019   9.845   1.730
 5473W        W 9524   8.087   5.411  11.283
 5474W        W 9525   1.185   5.237  10.136
 5475W        W 9526   2.707   3.287   0.744
 5476W        W 9527   7.479  10.553   1.692
 5477W        W 9528  10.017  10.448  10.815
 5478W        W 9529   6.290   6.648   2.199
 5479W        W 9530  10.276   9.188   2.273
 5480W        W 9531   2.401   2.306   1.804
 5481W        W 9532   8.849   7.639   0.784
 5482W        W 9533  10.961   4.721   1.194
 5483W        W 9534   9.811  10.986  11.792
 5484W        W 9535  11.137   2.238  11.934
 5485W        W 9536   3.901   1.599  11.486
 5486W        W 9537  11.485   4.184   8.535
 5487W        W 9538   7.581   7.046  11.829
 5488W        W 9539   5.949   2.749   1.877
 5489W        W 9540   1.815  10.895   2.114
 5490W        W 9541   6.106  10.508   3.665
 5491W        W 9542   8.714   8.981  11.540
 5492W        W 9543  10.510   4.093   3.640
 5493W        W 9544   4.600   0.455  10.428
 5494W        W 9545   5.233   0.815   2.453
 5495W        W 9546   7.361   7.621   3.231
 5496W        W 9547   9.661   2.639   2.830
 5497W        W 9548   1.791   0.438   8.480
 5498W        W 9549   8.058   6.833  10.379
 5499W        W 9550   9.280   1.107   8.564
 5500W        W 9551   6.905   2.465  11.521
 5501W        W 9552   8.623   0.745  10.675
 5502W        W 9553   0.757   7.703   8.886
 5503W        W 9554   2.182   3.641  11.814
 5504W        W 9555   9.438  10.838  10.811
 5505W        W 9556   8.878   4.344   1.739
 5506W        W 9557   4.849   7.135   8.945
 5507W        W 9558   5.330   8.284   2.597
 5508W        W 9559   0.501   3.203   9.282
 5509W        W 9560  10.520   6.149   0.352
 5510W        W 9561  10.916   6.641   9.087
 5511W        W 9562   0.960   6.158   0.435
 5512W        W 9563   5.858   1.377   0.241
 5513W        W 9564   1.344   8.954   1.519
 5514W        W 9565   7.721   2.472   1.264
 5515W        W 9566   2.724   3.014   8.791
 5516W        W 9567   9.470   9.160   0.353
 5517W        W 9568   3.678   0.868  11.831
 5518W        W 9569  10.095   5.162   0.842
 5519W        W 9570  11.074   7.392   2.029
 5520W        W 9571   1.592   8.059   8.874
 5521W        W 9572   1.570   2.889  11.945
 5522W        W 9573   4.159   1.268   9.501
 5523W        W 9574   6.075   3.247  11.622
 5524W        W 9575   6.154   6.717   9.375
 5525W        W 9576  11.352   8.900   0.315
 5526W        W 9577   4.094   9.281   0.872
 5527W        W 9578   8.038   5.220   2.360
 5528W        W 9579   6.885   1.669  11.701
 5529W        W 9580   5.295   7.145  10.413
 5530W        W 9581   9.135   8.067   3.252
 5531W        W 9582   7.224   3.782  11.323
 5532W        W 9583   7.103   8.950   1.261
 5533W        W 9584   0.360   5.039   9.795
 5534W        W 9585   9.596   8.888   1.967
 5535W        W 9586   8.433   0.287  10.883
 5536W        W 9587   3.678   4.581   1.072
 5537W        W 9588   6.133   0.317   9.823
 5538W        W 9589   1.516   5.671   0.938
 5539W        W 9590   4.416   0.829   9.601
 5540W        W 9591   3.712   3.627   0.254
 5541W        W 9592   8.786  10.324   0.636
 5542W        W 9593   0.758   4.627   8.626
 5543W        W 9594   2.656   6.455   1.863
 5544W        W 9595   0.715   6.554   8.433
 5545W        W 9596   3.186  11.493   1.906
 5546W        W 9597   9.455   9.755   0.720
 5547W        W 9598   4.493   4.332   1.224
 5548W        W 9599   8.210   3.220   2.644
 5549W        W 9600   7.804   9.071   2.081
 5550W        W 9601   8.576   8.673   0.433
 5551W        W 9602   0.805   8.347  11.828
 5552W        W 9603   9.589   5.551  10.373
 5553W        W 9604   1.304   8.305   3.175
 5554W        W 9605   5.578  10.823  10.100
 5555W        W 9606   5.056   7.603  10.529
 5556W        W 9607   2.044   2.464   8.531
 5557W        W 9608   7.693   8.577   1.378
 5558W        W 9609   5.084  10.432   2.825
 5559W        W 9610  10.982   6.647   0.851
 5560W        W 9611   2.314   2.278  11.988
 5561W        W 9612   9.995   7.646   2.792
 5562W        W 9613   3.671   1.704   8.855
 5563W        W 9614  10.323   7.131  11.058
 5564W        W 9615   2.322   0.976   1.711
 5565W        W 9616   2.587  11.062  11.356
 5566W        W 9617   5.582   0.886  10.993
 5567W        W 9618   4.413   9.838   9.325
 5568W        W 9619   6.443   6.567   0.151
 5569W        W 9620  10.835   3.066   2.006
 5570W        W 9621  10.437   1.116   9.315
 5571W        W 9622   5.962   5.744   9.192
 5572W        W 9623   2.241   2.326   2.791
 5573W        W 9624   8.086   7.838   2.550
 5574W        W 9625   7.512  10.991  11.985
 5575W        W 9626  11.367   8.547   2.791
 5576W        W 9627   4.870   3.981  11.216
 5577W        W 9628   5.596   1.933   1.499
 5578W        W 9629   0.365   2.693   2.841
 5579W        W 9630   7.657  11.367   9.937
 5580W        W 9631   7.749   8.932  11.099
 5581W        W 9632   5.964   3.974   2.374
 5582W        W 9633   5.223   7.421   0.488
 5583W        W 9634   8.178   1.933   1.739
 5584W        W 9635   8.675   8.083   8.583
 5585W        W 9636   5.048   9.336   0.013
 5586W        W 9637   6.980   4.125   3.470
 5587W        W 9638   6.496   7.340   1.479
 5588W        W 9639   6.238   0.444   3.286
 5589W        W 9640   0.393   3.582   0.167
 5590W        W 9641   7.776   7.122  10.709
 5591W        W 9642   0.078   9.787   0.256
 5592W        W 9643   9.053   2.786   0.306
 5593W        W 9644   8.154   1.653   0.377
 5594W        W 9645   2.178   3.880   9.719
 5595W        W 9646   9.528   9.566   8.599
 5596W        W 9647   3.363   8.296   8.421
 5597W        W 9648   5.473   4.388   9.130
 5598W        W 9649   0.781  10.581  11.142
 5599W        W 9650   8.944   8.592  10.228
 5600W        W 9651   5.634   7.580   1.450
 5601W        W 9652   4.267   4.059  10.730
 5602W        W 9653   4.805   1.732  10.016
 5603W        W 9654   8.564   6.700  10.355
 5604W        W 9655   4.045   9.100  10.177
 5605W        W 9656   3.825   5.286   0.781
 5606W        W 9657   8.817  10.042   3.491
 5607W        W 9658   3.681   5.891  11.644
 5608W        W 9659  10.951   3.139   3.473
 5609W        W 9660   4.769   2.605   2.753
 5610W        W 9661   4.081   0.890   2.667
 5611W        W 9662  10.316  10.500   1.056
 5612W        W 9663   3.855   4.890  11.818
 5613W        W 9664   8.617   4.463  10.840
 5614W        W 9665  10.859   0.360   1.858
 5615W        W 9666   3.703   9.456  11.760
 5616W        W 9667  10.258  10.729   9.569
 5617W        W 9668   7.870   5.114   8.660
 5618W        W 9669   9.541   1.224  10.796
 5619W        W 9670   0.350  11.371  11.097
 5620W        W 9671   9.550   0.271   1.409
 5621W        W 9672  11.377   8.102   9.319
 5622W        W 9673   6.015   8.966  10.430
 5623W        W 9674   0.400   0.865   1.143
 5624W        W 9675   6.905   1.652   9.799
 5625W        W 9676   1.337   4.075  11.512
 5626W        W 9677   9.817   7.495   0.801
 5627W        W 9678   7.888   2.764   9.982
 5628W        W 9679   2.676   8.307  10.636
 5629W        W 9680   9.391   6.587   8.253
 5630W        W 9681  11.323   0.014   2.761
 5631W        W 9682   3.755  11.296   3.318
 5632W        W 9683   3.021   7.859   2.205
 5633W        W 9684   3.711   2.942   2.395
 5634W        W 9685   3.631   6.223   3.552
 5635W        W 9686  11.452   9.862   1.282
 5636W        W 9687   7.717   5.176   0.487
 5637W        W 9688   3.147   2.424   1.305
 5638W        W 9689   0.774   7.948   9.773
 5639W        W 9690   0.514   5.798   1.886
 5640W        W 9691   9.555   3.180   1.315
 5641W        W 9692   5.954   8.283   0.241
 5642W        W 9693   2.294   8.970   2.026
 5643W        W 9694   4.583  10.316   9.052
 5644W        W 9695   7.867  11.433   3.000
 5645W        W 9696   9.435   8.161   0.361
 5646W        W 9697   4.184   6.113  11.067
 5647W        W 9698   1.389   6.987  10.546
 5648W        W 9699   8.452   6.236  10.527
 5649W        W 9700   9.318   4.980  11.583
 5650W        W 9701   0.940   3.725   0.937
 5651W        W 9702   8.005   9.036   3.435
 5652W        W 9703   0.428   9.289   9.017
 5653W        W 9704   8.628   1.272   3.100
 5654W        W 9705   8.546   4.720   9.017
 5655W        W 9706   6.469   6.224  10.959
 5656W        W 9707   2.933   4.699  11.434
 5657W        W 9708   2.284   0.547   9.515
 5658W        W 9709   6.567  11.225   2.504
 5659W        W 9710   5.637   5.149   1.773
 5660W        W 9711   6.035   6.199   8.118
 5661W        W 9712   9.811  10.608   2.002
 5662W        W 9713   3.234   3.779   9.124
 5663W        W 9714   1.157   3.260   1.082
 5664W        W 9715   9.098  11.236   9.997
 5665W        W 9716   9.603   2.889  10.488
 5666W        W 9717   5.075   3.255   0.485
 5667W        W 9718   3.374   9.288   2.279
 5668W        W 9719   5.090   7.779   0.129
 5669W        W 9720   3.079   4.123  10.803
 5670W        W 9721   3.632   1.259   0.703
 5671W        W 9722   6.565   4.148   3.159
 5672W        W 9723   7.548   0.340  10.178
 5673W        W 9724   3.611  10.527  11.822
 5674W        W 9725   9.056   2.741   1.260
 5675W        W 9726   3.837  10.842   2.093
 5676W        W 9727   6.146   9.966   1.412
 5677W        W 9728   5.233   7.940   0.860
 5678W        W 9729   7.846   1.463   9.195
 5679W        W 9730   3.392   7.687   0.055
 5680W        W 9731   7.704   1.155  11.731
 5681W        W 9732   9.925  10.736   0.275
 5682W        W 9733   7.268   7.992   9.413
 5683W        W 9734   7.595   9.748  10.771
 5684W        W 9735   3.321   5.238   1.965
 5685W        W 9736   8.438   4.714  10.420
 5686W        W 9737   3.087   0.598   2.750
 5687W        W 9738  10.557   2.341   2.586
 5688W        W 9739  10.035   0.874   9.589
 5689W        W 9740  10.229   9.362   9.502
 5690W        W 9741   9.463   2.711   3.324
 5691W        W 9742   7.386   9.087  11.443
 5692W        W 9743   8.056   3.344   9.148
 5693W        W 9744   5.838   5.543   1.439
 5694W        W 9745   2.175   5.324   3.472
 5695W        W 9746   0.697   5.712   3.454
 5696W        W 9747   4.082   1.445  11.025
 5697W        W 9748   2.665   4.143   1.769
 5698W        W 9749   5.580   8.253   3.225
 5699W        W 9750   6.631   9.978   8.129
 5700W        W 9751   3.349   1.906   1.307
 5701W        W 9752   0.999  10.976   0.814
 5702W        W 9753   6.674   6.705   2.941
 5703W        W 9754   3.882   4.379   0.623
 5704W        W 9755   2.313   0.039   9.534
 5705W        W 9756   0.049  11.404   3.237
 5706W        W 9757   9.161   6.638   9.995
 5707W        W 9758   7.913   4.160   2.185
 5708W        W 9759   9.103   4.280   3.131
 5709W        W 9760   3.232   9.899   1.839
 5710W        W 9761   2.674   6.614   2.384
 5711W        W 9762  10.400   7.062  10.503
 5712W        W 9763   6.743   2.083   2.815
 5713W        W 9764   2.710   9.055  11.481
 5714W        W 9765   4.470   6.768   8.635
 5715W        W 9766   2.108   8.637  11.742
 5716W        W 9767   7.694   3.773  11.532
 5717W        W 9768  10.416   7.637  11.231
 5718W        W 9769   4.375   0.762   1.695
 5719W        W 9770   3.897   4.387  10.517
 5720W        W 9771  10.241  10.419   1.565
 5721W        W 9772   0.083   0.965   1.844
 5722W        W 9773   2.142   7.467   1.002
 5723W        W 9774   1.141   0.238  10.684
 5724W        W 9775  11.304   1.211   1.403
 5725W        W 9776   3.474   9.640   2.817
 5726W        W 9777   3.585   2.316   2.513
 5727W        W 9778   7.651   0.185   9.154
 5728W        W 9779   1.786   1.256   3.384
 5729W        W 9780   3.189   5.705  10.995
 5730W        W 9781   6.969   4.644   0.274
 5731W        W 9782  11.000   0.193   3.110
 5732W        W 9783   4.312   8.666  11.548
 5733W        W 9784   1.211   0.624  10.354
 5734W        W 9785   9.977   1.896  11.894
 5735W        W 9786   5.640   3.248   9.824
 5736W        W 9787   2.506   8.542   8.314
 5737W        W 9788   1.300   1.063  10.603
 5738W        W 9789  10.940   3.316   2.914
 5739W        W 9790   3.971   8.388   1.358
 5740W        W 9791   8.683   7.883  11.908
 5741W        W 9792   9.367   1.811   2.864
 5742W        W 9793   9.423   4.923   0.977
 5743W        W 9794   1.910   3.629   8.877
 5744W        W 9795  11.387   8.852   1.415
 5745W        W 9796   4.221   9.975   0.872
 5746W        W 9797   2.778   1.671   0.197
 5747W        W 9798   7.219   3.832  10.301
 5748W        W 9799   7.717   8.030  11.621
 5749W        W 9800   3.145   3.678   1.836
 5750W        W 9801   5.206   9.032   9.032
 5751W        W 9802  10.637   7.687  11.689
 5752W        W 9803   2.717  10.259   8.737
 5753W        W 9804   0.054   7.475  11.350
 5754W        W 9805   0.291   1.200  11.219
 5755W        W 9806  10.805  11.291   3.396
 5756W        W 9807   5.765   1.482   8.517
 5757W        W 9808   3.287   1.358   9.294
 5758W        W 9809   6.034   6.534   2.657
 5759W        W 9810  10.941   6.253   0.058
 5760W        W 9811   3.865   3.873  10.954
 5761W        W 9812  11.359   7.171   9.404
 5762W        W 9813   0.200   1.398  10.253
 5763W        W 9814   0.790   0.840   2.174
 5764W        W 9815   1.052   6.083  11.347
 5765W        W 9816   3.177   4.950   0.396
 5766W        W 9817   0.690   8.410   0.342
 5767W        W 9818   6.708  11.376   0.371
 5768W        W 9819   8.997   0.948   0.951
 5769W        W 9820  11.277   1.129   9.487
 5770W        W 9821   0.902   4.208   2.244
 5771W        W 9822   8.093   9.243   2.789
 5772W        W 9823   9.475   2.147   1.447
 5773W        W 9824   1.259   7.563  11.855
 5774W        W 9825   2.232   6.132   1.959
 5775W        W 9826   9.467   9.335   1.783
 5776W        W 9827  10.579   6.249  10.761
 5777W        W 9828   9.426   7.031   3.335
 5778W        W 9829   8.594   6.139   1.473
 5779W        W 9830   7.072   6.086   8.260
 5780W        W 9831   0.935   5.325  10.854
 5781W        W 9832   8.891   9.582   2.228
 5782W        W 9833  11.327   7.433   0.304
 5783W        W 9834   8.745   0.378   2.742
 5784W        W 9835   6.682   3.179  10.268
 5785W        W 9836   6.004   9.999   3.432
 5786W        W 9837   5.956   4.584   0.219
 5787W        W 9838   5.722   7.388   3.612
 5788W        W 9839   6.346   8.085  11.838
 5789W        W 9840  11.375   5.752   2.338
 5790W        W 9841  10.809  10.872   0.369
 5791W        W 9842   7.009   3.712  11.807
 5792W        W 9843   6.834   2.281   2.069
 5793W        W 9844   8.160  10.449   0.494
 5794W        W 9845   2.785   1.279   1.747
 5795W        W 9846   8.534   6.664   1.187
 5796W        W 9847   8.039  10.542   2.546
 5797W        W 9848   5.623  10.989   1.629
 5798W        W 9849  11.421   4.703   9.571
 5799W        W 9850   2.880   0.394   9.094
 5800W        W 9851  10.741   4.109  10.546
 5801W        W 9852   3.115   7.133  11.368
 5802W        W 9853   4.628  10.288   2.661
 5803W        W 9854   1.266  10.069   0.923
 5804W        W 9855   5.488   3.659   8.573
 5805W        W 9856   2.305   7.210   0.062
 5806W        W 9857   6.138   9.809  11.841
 5807W        W 9858   4.067   7.535  10.019
 5808W        W 9859   5.230   8.749   4.057
 5809W        W 9860   7.419   0.996   2.878
 5810W        W 9861   0.231   1.365   1.169
 5811W        W 9862   7.146   9.610   9.828
 5812W        W 9863  10.529   2.772  10.458
 5813W        W 9864  11.345   0.733   2.236
 5814W        W 9865   1.276  10.975   3.203
 5815W        W 9866   2.484  10.806   0.698
 5816W        W 9867   0.957   9.568   8.586
 5817W        W 9868   6.742   2.294   8.957
 5818W        W 9869   2.638   0.768  10.797
 5819W        W 9870   4.579   6.198   0.285
 5820W        W 9871   3.431   0.905   0.321
 5821W        W 9872   0.559   9.488  11.797
 5822W        W 9873   5.885   2.267   1.727
 5823W        W 9874   2.784   3.339   9.750
 5824W        W 9875   2.850  10.086  11.449
 5825W        W 9876   5.136   3.293   9.623
 5826W        W 9877   0.335   3.990   8.964
 5827W        W 9878   8.197   3.684  11.511
 5828W        W 9879   6.615   0.143   0.934
 5829W        W 9880   1.788   1.372   0.755
 5830W        W 9881  11.389  10.703   3.758
 5831W        W 9882   0.083   3.854  10.290
 5832W        W 9883  10.238   4.629   3.233
 5833W        W 9884  10.432   7.982   8.956
 5834W        W 9885   5.317   8.027  10.224
 5835W        W 9886   6.973   6.621   0.345
 5836W        W 9887  10.401   6.737  11.526
 5837W        W 9888   6.156   4.567   1.699
 5838W        W 9889  10.528   7.871   1.434
 5839W        W 9890   6.290   7.956  10.046
 5840W        W 9891   4.048   6.429   1.340
 5841W        W 9892   6.720   5.548   0.840
 5842W        W 9893   0.379   0.896   2.951
 5843W        W 9894   3.090   6.220  11.082
 5844W        W 9895   7.277   4.166   0.434
 5845W        W 9896  10.135  10.270   0.285
 5846W        W 9897   6.896   2.180   9.588
 5847W        W 9898  11.055   3.813   2.846
 5848W        W 9899   6.676   0.276  10.245
 5849W        W 9900   1.819   4.385  10.967
 5850W        W 9901  10.849   1.879   9.755
 5851W        W 9902   9.116   7.707   9.279
 5852W        W 9903   0.071   0.067   0.045
 5853W        W 9904   8.273   5.686  11.816
 5854W        W 9905   0.335   9.046   1.235
 5855W        W 9906   4.366   1.754  11.688
 5856W        W 9907   4.194   8.646  10.419
 5857W        W 9908   0.818   4.846  11.463
 5858W        W 9909   6.475   7.189  10.959
 5859W        W 9910   1.745   5.308   8.454
 5860W        W 9911   7.589   0.943   1.568
 5861W        W 9912   7.145   0.147   0.394
 5862W        W 9913   3.513  10.474   9.962
 5863W        W 9914   2.362   0.341   9.063
 5864W        W 9915   9.831  10.105   2.729
 5865W        W 9916   8.229   7.660  11.966
 5866W        W 9917   4.739   6.722   0.683
 5867W        W 9918   9.424   9.284   2.815
 5868W        W 9919  11.085   4.993  10.285
 5869W        W 9920   2.860   4.224   9.831
 5870W        W 9921   3.526   3.053  10.581
 5871W        W 9922  10.920   2.659  11.733
 5872W        W 9923   7.557   1.862   0.332
 5873W        W 9924   7.559   6.678  10.466
 5874W        W 9925   1.902   5.242  10.771
 5875W        W 9926   4.673   9.520  11.722
 5876W        W 9927   7.025   4.318   2.274
 5877W        W 9928   7.094   3.404  10.071
 5878W        W 9929   5.652   5.805   1.009
 5879W        W 9930   2.829   2.856   9.586
 5880W        W 9931  10.603   7.446   1.851
 5881W        W 9932  10.498   4.991   9.501
 5882W        W 9933   7.617  10.416  10.068
 5883W        W 9934   6.291   7.555  11.762
 5884W        W 9935   5.574   8.095  11.745
 5885W        W 9936   9.138   4.156   0.509
 5886W        W 9937  11.321   3.167   9.090
 5887W        W 9938   2.822   8.362  10.148
 5888W        W 9939   7.177   9.242   0.836
 5889W        W 9940   4.212   2.312   9.883
 5890W        W 9941   3.855   6.644   9.883
 5891W        W 9942  11.057   2.716   1.228
 5892W        W 9943   0.229   7.775   2.946
 5893W        W 9944   4.015   1.468  11.964
 5894W        W 9945   5.137   4.654  10.708
 5895W        W 9946   0.289  10.714   0.320
 5896W        W 9947   7.027   7.928  10.912
 5897W        W 9948   1.762   1.793   9.593
 5898W        W 9949  10.157   1.242   3.566
 5899W        W 9950  10.859   9.141   0.536
 5900W        W 9951   8.100   1.567   3.475
 5901W        W 9952   3.614   4.695   8.489
 5902W        W 9953   7.938  10.101  10.579
 5903W        W 9954   5.177   8.069   1.741
 5904W        W 9955   1.805  10.021   2.422
 5905W        W 9956   2.345   1.923   0.401
 5906W        W 9957   6.595   8.180   2.807
 5907W        W 9958   9.798   1.209   1.236
 5908W        W 9959   2.678   3.238   2.740
 5909W        W 9960   8.940   6.857  11.265
 5910W        W 9961   6.147   0.554  11.267
 5911W        W 9962   2.878  10.467   2.894
 5912W        W 9963   9.987  10.883   8.584
 5913W        W 9964   4.625   3.896   0.990
 5914W        W 9965   9.430   9.880   9.905
 5915W        W 9966   5.212   3.738   0.476
 5916W        W 9967   3.284   2.900   0.407
 5917W        W 9968   3.215   1.335   3.823
 5918W        W 9969   0.783  11.195   1.858
 5919W        W 9970   3.712   8.403   0.163
 5920W        W 9971   4.787   8.571  11.410
 5921W        W 9972   9.978  11.333  10.031
 5922W        W 9973   3.771   0.162   8.664
 5923W        W 9974   2.169   9.389   1.693
 5924W        W 9975   9.935   3.764   2.122
 5925W        W 9976  10.908   4.045   9.788
 5926W        W 9977   5.203   7.256   3.176
 5927W        W 9978   5.097   9.465   1.891
 5928W        W 9979   9.066   3.646   2.370
 5929W        W 9980   1.099  10.389   1.680
 5930W        W 9981   1.381   1.435   9.362
 5931W        W 9982   3.326   6.655   3.651
 5932W        W 9983  10.558   7.372   9.435
 5933W        W 9984   6.232   5.590  10.894
 5934W        W 9985  11.323   6.984  11.971
 5935W        W 9986   6.064   5.623   0.753
 5936W        W 9987   4.201   7.936  11.433
 5937W        W 9988   1.267  10.885  11.225
 5938W        W 9989   0.806   3.283  10.534
 5939W        W 9990   4.195   7.813   1.825
 5940W        W 9991   2.953   8.963  11.039
 5941W        W 9992  10.915   1.645   0.446
 5942W        W 9993   4.180   0.184  10.525
 5943W        W 9994   6.390   3.647   2.888
 5944W        W 9995   0.814   7.859   1.051
 5945W        W 9996   1.716   8.947  10.313
 5946W        W 9997   7.317   6.042  11.085
 5947W        W 9998   6.836   7.190   2.740
 5948W        W 9999   8.866   2.231   0.303
 5949W        W10000   2.531   7.812   0.741
 5950W        W10001   6.763   5.483  10.678
 5951W        W10002   9.004   8.080  11.063
 5952W        W10003   3.394   1.817  11.379
 5953W        W10004   8.177   5.397   9.865
 5954W        W10005   0.848  10.697  11.634
 5955W        W10006   2.596   7.557   2.270
 5956W        W10007   2.431   2.888   3.565
 5957W        W10008   1.513   1.193   2.301
 5958W        W10009   4.696   1.957   3.310
 5959W        W10010   5.955   4.691   1.224
 5960W        W10011   8.558  10.401  10.741
 5961W        W10012   2.743   7.408  11.785
 5962W        W10013   8.650   2.827   9.626
 5963W        W10014   7.589   9.887   9.777
 5964W        W10015   4.630   4.275   3.932
 5965W        W10016   4.760   8.823   9.968
 5966W        W10017  11.168   4.308   2.478
 5967W        W10018   8.068  10.514   9.836
 5968W        W10019   1.565   9.977   2.870
 5969W        W10020   1.392  11.437   9.511
 5970W        W10021   2.590   4.126   0.581
 5971W        W10022  10.001   2.078  11.006
 5972W        W10023   4.120  11.206   0.303
 5973W        W10024   8.513   7.620  11.490
 5974W        W10025   7.685   9.591   2.789
 5975W        W10026   3.774   2.467   3.319
 5976W        W10027   7.759   1.507  11.379
 5977W        W10028   7.693   3.113   1.978
 5978W        W10029   9.879   5.394  11.553
 5979W        W10030   2.776   5.268   4.150
 5980W        W10031   8.888   0.505  11.028
 5981W        W10032   4.768   9.937   8.723
 5982W        W10033   6.307   7.032  11.922
 5983W        W10034   9.655   3.327   0.846
 5984W        W10035   0.264   6.944   9.160
 5985W        W10036   9.338   0.168   1.890
 5986W        W10037   8.531   4.677   8.289
 5987W        W10038   9.546   8.641   9.427
 5988W        W10039   2.409   0.538   3.454
 5989W        W10040   2.349   1.422   1.982
 5990W        W10041   6.982   5.653   0.347
 5991W        W10042  10.852   1.684   1.944
 5992W        W10043   0.378   4.259   9.403
 5993W        W10044   5.021  11.344  11.980
 5994W        W10045   6.219   5.272  11.308
 5995W        W10046   5.118  10.449   0.897
 5996W        W10047   9.357   8.007  10.553
 5997W        W10048   0.825  11.080  11.295
 5998W        W10049   6.028   6.941  10.905
 5999W        W10050   8.908   1.827  10.785
 6000W        W10051   8.135   9.092   9.186
 6001W        W10052   7.210   2.230   1.717
 6002W        W10053   0.033   3.830   3.061
 6003W        W10054   8.968   2.112   2.636
 6004W        W10055   3.271   6.210   2.309
 6005W        W10056   7.993   1.921  10.549
 6006W        W10057   8.424   0.823   3.257
 6007W        W10058   5.526   8.046  11.228
 6008W        W10059   3.358   4.494  10.579
 6009W        W10060   4.914   0.146   1.761
 6010W        W10061   8.090   4.943   9.077
 6011W        W10062   6.717   1.365  10.558
 6012W        W10063   6.578   8.981   1.371
 6013W        W10064   0.327   6.555   8.789
 6014W        W10065   7.755   7.076   9.204
 6015W        W10066   8.827   8.498   9.722
 6016W        W10067  10.033  10.712   9.069
 6017W        W10068   6.074   4.162  11.890
 6018W        W10069   7.984   6.837   3.611
 6019W        W10070   9.174   4.805   3.135
 6020W        W10071   9.085   2.853   3.691
 6021W        W10072   5.094   9.954   0.684
 6022W        W10073   3.632   6.609   2.241
 6023W        W10074   3.222   7.187   3.334
 6024W        W10075  10.947  10.982  11.052
 6025W        W10076   1.676  10.402   9.563
 6026W        W10077  10.889   0.508   3.491
 6027W        W10078   6.556   7.496   0.488
 6028W        W10079   5.079  10.913   2.983
 6029W        W10080   5.130   2.329   2.301
 6030W        W10081  10.652   4.120   8.949
 6031W        W10082   2.277   2.823   2.020
 6032W        W10083   9.587   6.946  11.698
 6033W        W10084   3.567   6.861   8.967
 6034W        W10085  11.281  11.169   9.768
 6035W        W10086   3.777   8.871   0.920
 6036W        W10087   6.266   6.826   3.886
 6037W        W10088   5.987   3.403   0.661
 6038W        W10089   7.816   0.733   8.559
 6039W        W10090   3.496   6.544   3.167
 6040W        W10091   2.168   9.140  10.471
 6041W        W10092   5.004   2.423   0.778
 6042W        W10093   8.920   6.207   3.694
 6043W        W10094   2.274   9.359   3.677
 6044W        W10095   6.683  11.366   9.039
 6045W        W10096   1.208   7.861   8.549
 6046W        W10097   7.672   8.205   0.591
 6047W        W10098   4.876  10.729   9.176
 6048W        W10099  10.831   4.556   0.733
 6049W        W10100   6.479   9.058   9.603
 6050W        W10101   7.291   6.676   1.269
 6051W        W10102   2.137   8.252   8.512
 6052W        W10103   0.921   4.546   3.105
 6053W        W10104   4.246   9.102  10.667
 6054W        W10105   0.882   8.742   2.334
 6055W        W10106   1.930   4.687   9.071
 6056W        W10107   2.964   4.293   2.165
 6057W        W10108  11.217   8.909   2.451
 6058W        W10109   3.903   1.055   0.253
 6059W        W10110   2.297   2.755   1.014
 6060W        W10111   7.184  11.252  11.391
 6061W        W10112   9.001   4.950   8.300
 6062W        W10113   9.325   5.812   0.639
 6063W        W10114   9.349   6.170   2.940
 6064W        W10115   6.528  10.319   0.637
 6065W        W10116  10.598   4.389  10.949
 6066W        W10117   1.368  10.278   9.961
 6067W        W10118   5.749   0.892   0.522
 6068W        W10119   8.020  10.951   9.140
 6069W        W10120   8.060   9.527  11.359
 6070W        W10121   9.927   2.897   1.636
 6071W        W10122   0.277  10.888   3.121
 6072W        W10123   8.111   3.123   3.137
 6073W        W10124  10.309   7.463   8.998
 6074W        W10125   6.983   8.007   1.577
 6075W        W10126  11.434   8.333  11.673
 6076W        W10127   5.500   6.954   8.764
 6077W        W10128   7.018  10.347  11.752
 6078W        W10129   4.264   7.971   9.826
 6079W        W10130   8.397   6.133   2.943
 6080W        W10131   4.264   8.974   2.587
 6081W        W10132  11.371   4.284   9.866
 6082W        W10133   0.768   1.739   9.965
 6083W        W10134   7.127   8.370   9.891
 6084W        W10135   6.156   7.611   9.235
 6085W        W10136   1.397   0.233   9.995
 6086W        W10137   5.007  11.182   9.374
 6087W        W10138   7.452   5.705  10.249
 6088W        W10139   6.229   1.907   2.766
 6089W        W10140   2.568   2.149   3.462
 6090W        W10141   7.116   8.164   8.477
 6091W        W10142   4.128   1.687   1.703
 6092W        W10143   1.558   9.241   1.138
 6093W        W10144   8.496   5.433   2.203
 6094W        W10145   0.317   8.382   9.092
 6095W        W10146   8.782   0.436  11.862
 6096W        W10147  10.371   3.679   9.090
 6097W        W10148   6.422  11.478   3.416
 6098W        W10149   1.285   3.783   9.406
 6099W        W10150   5.945   3.473   2.471
 6100W        W10151   9.927   9.658   3.596
 6101W        W10152   4.634   5.740   0.014
 6102W        W10153   8.999   3.734  11.713
 6103W        W10154   8.980   7.104   9.975
 6104W        W10155   9.175   9.994   2.469
 6105W        W10156   6.093   2.454  10.441
 6106W        W10157   2.900   8.473   8.626
 6107W        W10158   9.010   9.839   9.089
 6108W        W10159   8.045   5.966   1.010
 6109W        W10160   5.567   2.822   0.028
 6110W        W10161   0.422   2.216   3.014
 6111W        W10162   6.468   9.529   2.789
 6112W        W10163   5.586   3.315  11.819
 6113W        W10164   3.526   1.423   0.206
 6114W        W10165   8.801   6.169   2.224
 6115W        W10166   4.568   8.542   2.424
 6116W        W10167   0.730  10.030   3.052
 6117W        W10168   5.558   9.284   0.991
 6118W        W10169   3.721   6.155   4.054
 6119W        W10170  10.105  10.783   2.390
 6120W        W10171   0.248  11.359   9.791
 6121W        W10172   6.055   7.596   9.753
 6122W        W10173   2.747   5.170   8.607
 6123W        W10174   2.402   5.748   0.725
 6124W        W10175   5.640   1.814  10.009
 6125W        W10176   6.523   0.728   2.249
 6126W        W10177   1.275   9.187   8.447
 6127W        W10178   8.181   8.661  10.956
 6128W        W10179   3.663   4.829  10.370
 6129W        W10180  11.068   6.985   0.446
 6130W        W10181   2.508   5.243   1.499
 6131W        W10182   4.750   2.314   3.689
 6132W        W10183   9.470   3.115   0.418
 6133W        W10184   7.419   9.546   1.528
 6134W        W10185  10.494   4.049   9.439
 6135W        W10186   8.488   5.700   1.192
 6136W        W10187   4.660   9.548   2.203
 6137W        W10188   8.897  11.275  11.482
 6138W        W10189   6.604  10.012  11.866
 6139W        W10190   2.458   5.264   1.990
 6140W        W10191   7.481   1.686  10.075
 6141W        W10192   9.580   5.177   2.011
 6142W        W10193   7.130  11.346  11.915
 6143W        W10194   7.858   2.323   0.374
 6144W        W10195   0.391   2.612  11.562
 6145W        W10196   8.555   6.580   0.370
 6146W        W10197   0.757   1.792   2.843
 6147W        W10198   0.887   8.090  10.290
 6148W        W10199   1.825   0.981  11.789
 6149W        W10200   4.090   9.415   9.481
 6150W        W10201   4.343   9.839   1.354
 6151W        W10202   6.196  11.413   2.178
 6152W        W10203   1.700  10.648  11.164
 6153W        W10204  10.548   9.963   0.277
 6154W        W10205   3.985   6.575   3.357
 6155W        W10206  11.140   3.038   0.433
 6156W        W10207   1.696   6.201  10.746
 6157W        W10208  10.914   8.593   9.874
 6158W        W10209  10.627  10.511   3.076
 6159W        W10210   5.313   2.194   1.162
 6160W        W10211   4.388   4.411   0.725
 6161W        W10212   6.904   2.901  10.797
 6162W        W10213   9.540  11.086   2.685
 6163W        W10214   6.847   3.826   9.930
 6164W        W10215   9.875   3.901   3.080
 6165W        W10216   6.012   2.772   2.393
 6166W        W10217   4.793   0.487   0.367
 6167W        W10218   1.817   1.173   0.280
 6168W        W10219   9.081   4.813   1.826
 6169W        W10220  10.281   0.371   1.866
 6170W        W10221   7.979   7.216   0.857
 6171W        W10222   6.952  10.878   3.144
 6172W        W10223   6.193   7.928  10.554
 6173W        W10224   9.444   9.494  10.433
 6174W        W10225   3.868   9.847   9.333
 6175W        W10226   8.569   8.050   9.938
 6176W        W10227   3.378   0.930  11.399
 6177W        W10228   3.886   5.902   8.748
 6178W        W10229   8.532   9.006   8.864
 6179W        W10230   7.098   4.163   1.363
 6180W        W10231  11.427  11.035   1.840
 6181W        W10232   3.868   8.778   2.808
 6182W        W10233   0.863   0.545   9.368
 6183W        W10234   8.894   0.822   1.453
 6184W        W10235   4.169   1.857  10.689
 6185W        W10236   6.403  10.292   1.125
 6186W        W10237   0.952  10.163   2.119
 6187W        W10238   6.951  10.461  10.360
 6188W        W10239   7.786   2.276   1.751
 6189W        W10240   4.653   1.637   1.704
 6190W        W10241   0.926   8.942   1.872
 6191W        W10242   5.035   3.751   2.322
 6192W        W10243   4.643   0.151   9.044
 6193W        W10244   8.177   3.703  10.531
 6194W        W10245  10.783   6.416  11.591
 6195W        W10246  10.774   6.002   8.689
 6196W        W10247   1.852   9.359   0.329
 6197W        W10248   7.289  10.521   0.730
 6198W        W10249   7.441   6.600   1.967
 6199W        W10250  11.393   3.451   0.173
 6200W        W10251   9.172  10.724   2.652
 6201W        W10252   7.397   9.584  11.387
 6202W        W10253   2.333   8.084  10.240
 6203W        W10254  11.475   4.315  11.224
 6204W        W10255   4.486   3.708   3.283
 6205W        W10256   8.848   4.243   0.916
 6206W        W10257   9.084   1.758   9.270
 6207W        W10258   1.344   2.357  10.679
 6208W        W10259   3.050   0.787   3.975
 6209W        W10260  11.071   6.007   1.961
 6210W        W10261   8.049   4.559   1.681
 6211W        W10262   6.775  10.016   9.155
 6212W        W10263   2.161   0.454  10.410
 6213W        W10264   2.341   2.843   1.514
 6214W        W10265   3.347   9.875  11.007
 6215W        W10266   5.073  10.343   8.835
 6216W        W10267   5.608   7.424   2.925
 6217W        W10268  11.144   4.001   8.870
 6218W        W10269   8.933   7.077   9.075
 6219W        W10270   1.517   7.306   1.413
 6220W        W10271   9.462   0.554   2.244
 6221W        W10272  10.979   5.264   0.927
 6222W        W10273   7.452   4.133   3.698
 6223W        W10274   5.082   9.543  10.575
 6224W        W10275   9.530   7.110   8.823
 6225W        W10276   9.399   8.888   2.471
 6226W        W10277  10.122   7.628   9.476
 6227W        W10278   4.646  10.715   0.825
 6228W        W10279  11.320   1.768   2.178
 6229W        W10280   7.282   6.779  10.030
 6230W        W10281   5.486   1.963  11.019
 6231W        W10282   6.590   9.508   0.033
 6232W        W10283   8.133   8.816   2.473
 6233W        W10284   7.098   7.485   1.810
 6234W        W10285   4.187   6.141   0.655
 6235W        W10286  10.790   3.976   2.393
 6236W        W10287   4.771   3.477  11.281
 6237W        W10288   9.358   5.069   9.508
 6238W        W10289  11.047   8.380   1.706
 6239W        W10290   7.904   8.283   1.777
 6240W        W10291   3.012   6.714   3.241
 6241W        W10292   0.858   9.664   3.370
 6242W        W10293  10.749   9.752   2.787
 6243W        W10294   2.230   5.750   2.745
 6244W        W10295   1.242   3.327   0.581
 6245W        W10296   3.410   2.885   1.294
 6246W        W10297   9.576   6.610   8.727
 6247W        W10298   7.446   6.223   1.624
 6248W        W10299  10.438   9.963  11.384
 6249W        W10300   2.547  10.439   9.192
 6250W        W10301   0.653   7.881  11.365
 6251W        W10302  11.367  10.321  10.649
 6252W        W10303   8.905  10.960  11.911
 6253W        W10304   4.704   6.758   2.038
 6254W        W10305   3.672   0.102   1.768
 6255W        W10306   8.967   3.574   3.387
 6256W        W10307   7.069   1.190   0.329
 6257W        W10308   4.661   9.321   3.050
 6258W        W10309   3.195  10.881   9.865
 6259W        W10310   3.968   5.825   9.947
 6260W        W10311   5.875   4.154   1.910
 6261W        W10312   5.493   9.842  10.477
 6262W        W10313   3.629   8.906   1.434
 6263W        W10314  11.391   0.233   9.034
 6264W        W10315   2.827   7.910  10.393
 6265W        W10316  11.022   1.660   8.788
 6266W        W10317   2.167   4.408   1.958
 6267W        W10318   9.396   7.199   8.325
 6268W        W10319   4.227   4.180   9.882
 6269W        W10320   1.387   9.962  10.748
 6270W        W10321   7.666   3.767   0.337
 6271W        W10322   9.394   6.204  10.009
 6272W        W10323  11.146   8.861   1.908
 6273W        W10324   8.650  10.857  11.324
 6274W        W10325   4.811   1.272   9.790
 6275W        W10326   7.538   4.508   2.356
 6276W        W10327   4.949   4.555   0.217
 6277W        W10328   9.150   1.320   9.535
 6278W        W10329  10.739   9.169  10.472
 6279W        W10330   0.630   7.861   3.637
 6280W        W10331   0.682   3.185   8.595
 6281W        W10332   2.141   8.425  11.265
 6282W        W10333  11.427  10.831  10.632
 6283W        W10334   4.993   3.530  10.048
 6284W        W10335   7.687   5.971  11.936
 6285W        W10336   4.325  11.451   1.239
 6286W        W10337   0.365   7.650  10.977
 6287W        W10338   1.657   7.453  10.492
 6288W        W10339   6.243   7.615   8.711
 6289W        W10340   7.117   8.673  10.309
 6290W        W10341   5.626  11.467   9.916
 6291W        W10342   8.533   1.938  10.435
 6292W        W10343   3.031  11.406  11.626
 6293W        W10344  11.016   2.167  10.180
 6294W        W10345   1.732   6.891   1.722
 6295W        W10346   3.401   0.241   9.906
 6296W        W10347  10.907   3.092   8.790
 6297W        W10348   8.399   1.794  11.961
 6298W        W10349   1.911   8.574   8.951
 6299W        W10350   4.158   7.455   2.232
 6300W        W10351   7.237   1.251   9.912
 6301W        W10352   4.218  11.031   9.807
 6302W        W10353   5.769   6.726  11.494
 6303W        W10354   5.159   5.547   0.755
 6304W        W10355   6.777   3.420   1.074
 6305W        W10356   0.527   5.164   2.530
 6306W        W10357  10.876  11.371   9.528
 6307W        W10358   7.478   9.617  11.936
 6308W        W10359   8.917   6.933   3.295
 6309W        W10360   9.561   0.971   2.568
 6310W        W10361   2.173   7.140   1.854
 6311W        W10362  10.977   5.132   1.906
 6312W        W10363   4.523   0.770   2.930
 6313W        W10364   0.263  10.509   9.292
 6314W        W10365   2.947   6.739  10.344
 6315W        W10366   1.969   4.789   8.540
 6316W        W10367   0.983  10.509   3.129
 6317W        W10368   9.816  10.976   9.439
 6318W        W10369   1.898   9.572  10.070
 6319W        W10370  11.335   2.708   0.059
 6320W        W10371   8.408   6.381   9.608
 6321W        W10372   8.052  10.943   8.628
 6322W        W10373   8.355   8.021   1.774
 6323W        W10374   2.163   6.745   3.133
 6324W        W10375   1.149   5.821   9.163
 6325W        W10376   2.728   5.086   9.533
 6326W        W10377   3.141   0.390  11.446
 6327W        W10378   1.781   5.964   0.185
 6328W        W10379   6.215  11.246   0.175
 6329W        W10380   0.476   9.935   1.337
 6330W        W10381   1.214  10.397  11.385
 6331W        W10382   0.426   5.265   3.495
 6332W        W10383   6.256   1.083   0.208
 6333W        W10384   0.051   1.300   2.881
 6334W        W10385   3.158  10.988   8.912
 6335W        W10386   5.562  11.439  10.828
 6336W        W10387   3.755  10.736   0.842
 6337W        W10388   5.072   5.051   0.033
 6338W        W10389   0.910   6.277   9.027
 6339W        W10390   0.814  10.223   3.550
 6340W        W10391   9.165   2.136  10.089
 6341W        W10392   0.215   5.635  11.225
 6342W        W10393   9.893   2.892   0.623
 6343W        W10394   8.562   8.492   3.022
 6344W        W10395  10.436   1.470   0.513
 6345W        W10396   6.123   6.922   0.399
 6346W        W10397   4.635  10.607   2.249
 6347W        W10398   1.800   7.244   9.779
 6348W        W10399  10.284   9.133   3.201
 6349W        W10400   9.954   1.803   9.279
 6350W        W10401   4.619  11.302  10.044
 6351W        W10402   7.030   1.062   8.883
 6352W        W10403   8.830   5.297   2.742
 6353W        W10404   2.665   1.732   3.174
 6354W        W10405   3.118   3.349   8.860
 6355W        W10406   0.833   4.838   9.991
 6356W        W10407   9.859   5.679  11.119
 6357W        W10408   2.673   9.582   8.935
 6358W        W10409   2.751   7.526   8.305
 6359W        W10410   3.149   6.259   0.790
 6360W        W10411   4.066   5.143   2.545
 6361W        W10412  10.371   7.918   1.920
 6362W        W10413   8.998   4.711   0.783
 6363W        W10414   7.086  10.327   1.922
 6364W        W10415   5.203   1.675   0.267
 6365W        W10416   7.038   2.448   0.809
 6366W        W10417   4.410   9.577   9.843
 6367W        W10418   5.696   3.590   1.175
 6368W        W10419   3.241   2.136   0.869
 6369W        W10420   2.343   8.921   0.947
 6370W        W10421  10.874   1.772  11.911
 6371W        W10422   7.910   8.910   8.739
 6372W        W10423   4.128   6.159  11.607
 6373W        W10424   2.032   9.320  10.950
 6374W        W10425   0.683   8.838   0.028
 6375W        W10426   7.369   5.551  11.981
 6376W        W10427   3.324   5.777   0.848
 6377W        W10428   0.473   6.199   2.206
 6378W        W10429   0.458   6.096  11.262
 6379W        W10430   1.790   6.031   1.171
 6380W        W10431   8.621   3.747   9.557
 6381W        W10432   9.616   5.256   9.906
 6382W        W10433   0.345   7.484   3.413
 6383W        W10434  10.518   0.452  11.182
 6384W        W10435  11.102   6.959   1.258
 6385W        W10436   3.429  10.013   0.448
 6386W        W10437   0.455   2.176   0.741
 6387W        W10438   3.481   5.246  10.182
 6388W        W10439   1.821   1.853   2.205
 6389W        W10440  10.804   7.037   3.546
 6390W        W10441   6.349   3.634  10.113
 6391W        W10442   0.771  10.623   8.543
 6392W        W10443   7.200   8.455   1.426
 6393W        W10444   3.353   4.408   0.563
 6394W        W10445   4.533   6.723  10.442
 6395W        W10446   6.484   4.690  10.987
 6396W        W10447   9.354  11.388   8.908
 6397W        W10448   8.363   7.415   3.262
 6398W        W10449  10.792   0.801   2.884
 6399W        W10450   9.510   9.176  11.407
 6400W        W10451   9.927   5.725   1.464
 6401W        W10452  10.707   7.638   0.990
 6402W        W10453   8.942  10.399  11.304
 6403W        W10454   5.234   1.654  10.290
 6404W        W10455   6.836   3.205   3.461
 6405W        W10456   0.226   5.530   8.852
 6406W        W10457   1.673   5.794  11.727
 6407W        W10458   9.005   0.284   2.312
 6408W        W10459   2.144   5.680   1.194
 6409W        W10460   1.461   2.374   0.584
 6410W        W10461  10.423   8.082   9.465
 6411W        W10462   0.461   0.774  10.985
 6412W        W10463  11.072  11.078   0.754
 6413W        W10464   1.900   2.748   0.702
 6414W        W10465   7.127  11.289  10.888
 6415W        W10466  10.256   9.600   0.917
 6416W        W10467   7.860   2.787  10.857
 6417W        W10468   5.564   6.207   0.663
 6418W        W10469   9.441   3.093   1.792
 6419W        W10470   6.034   8.477   8.997
 6420W        W10471  11.495   6.096  11.461
 6421W        W10472  10.931   0.455  11.561
 6422W        W10473   9.217   9.321   0.786
 6423W        W10474   5.137   9.429   0.529
 6424W        W10475   6.231   8.663   3.125
 6425W        W10476   5.557   4.527  10.977
 6426W        W10477   5.459   0.752   1.496
 6427W        W10478   9.308   2.310   2.991
 6428W        W10479   1.282   8.421   2.373
 6429W        W10480   4.240   3.108  11.960
 6430W        W10481   1.007   2.180   9.859
 6431W        W10482   1.818   7.800   0.381
 6432W        W10483   4.077   2.232   0.376
 6433W        W10484   2.813   8.515   9.127
 6434W        W10485   8.576  10.809   1.428
 6435W        W10486   7.935   8.896  10.579
 6436W        W10487   8.606   8.092   0.665
 6437W        W10488   7.001   7.932   2.075
 6438W        W10489   7.204   1.917   2.140
 6439W        W10490  11.261   3.236   2.294
 6440W        W10491   8.495   2.911   2.272
 6441W        W10492   4.232   9.576   3.228
 6442W        W10493   3.082   4.236   9.365
 6443W        W10494  10.415   1.624   9.462
 6444W        W10495   9.914   2.591  10.792
 6445W        W10496   2.808   9.698  10.439
 6446W        W10497   0.609   8.172   8.701
 6447W        W10498   3.705   8.692   8.227
 6448W        W10499   2.307   5.931  11.416
 6449W        W10500  11.441   7.980  10.329
 6450W        W10501  10.562   2.638  11.360
 6451W        W10502   3.924   9.580   9.949
 6452W        W10503   2.375   4.364   2.732
 6453W        W10504  11.276   6.524  11.754
 6454W        W10505  10.746  10.233   2.679
 6455W        W10506   9.321   5.258   2.911
 6456W        W10507   0.281   6.965   3.447
 6457W        W10508   5.507   0.282   9.146
 6458W        W10509   3.199   7.627   9.470
 6459W        W10510  11.484  10.765  11.550
 6460W        W10511   8.175   9.951   8.498
 6461W        W10512   1.088   1.901   1.908
 6462W        W10513   5.164   4.140  11.604
 6463W        W10514   5.681   5.255   2.266
 6464W        W10515   1.327   2.663   2.490
 6465W        W10516   9.970   1.263  10.536
 6466W        W10517   9.845   0.708  10.048
 6467W        W10518   4.050   8.465   2.438
 6468W        W10519   8.826   0.534   0.350
 6469W        W10520   8.963   4.588  10.463
 6470W        W10521   4.977   2.123   2.758
 6471W        W10522   8.226  10.030  11.410
 6472W        W10523  10.705   9.477   0.175
 6473W        W10524   1.540   0.678  10.856
 6474W        W10525   7.420   6.588  10.950
 6475W        W10526   8.521   6.534   3.673
 6476W        W10527   3.882   3.018   3.176
 6477W        W10528   9.429   0.159  11.793
 6478W        W10529   8.387   8.596  11.438
 6479W        W10530   4.763   5.701   1.047
 6480W        W10531   0.637  10.452   2.761
 6481W        W10532  10.489   6.517   8.805
 6482W        W10533   0.464   3.667   0.671
 6483W        W10534   0.684   2.180   9.437
 6484W        W10535   1.253   0.751   2.352
 6485W        W10536  10.556   9.287  11.712
 6486W        W10537   4.921   8.301   3.361
 6487W        W10538   7.614   7.523   9.900
 6488W        W10539   1.678   1.962  10.924
 6489W        W10540   4.640   7.535   0.121
 6490W        W10541   0.797  10.189  11.651
 6491W        W10542   2.106   3.329   0.714
 6492W        W10543   0.468  11.404   1.453
 6493W        W10544   1.857   5.533  11.319
 6494W        W10545   4.933   4.092   1.955
 6495W        W10546   3.790   7.037   1.002
 6496W        W10547  10.630   5.858   2.845
 6497W        W10548   8.213   4.375   0.295
 6498W        W10549   0.801   8.874   9.730
 6499W        W10550   7.392  11.327   3.148
 6500W        W10551   9.109   1.877   0.610
 6501W        W10552   9.479  11.240   3.318
 6502W        W10553   2.724   7.664   1.187
 6503W        W10554   6.955   5.009   1.644
 6504W        W10555  11.385   3.414   0.685
 6505W        W10556   2.475   7.090   1.077
 6506W        W10557   0.302   0.675   0.642
 6507W        W10558   5.239   9.956   9.636
 6508W        W10559   3.607   3.040   1.903
 6509W        W10560   5.642   5.340   0.812
 6510W        W10561   7.392   9.417   2.413
 6511W        W10562   1.485   2.312  10.196
 6512W        W10563   3.614   6.537   8.563
 6513W        W10564   2.065   7.441   2.363
 6514W        W10565  11.275  10.056   2.717
 6515W        W10566   4.570   1.378   2.232
 6516W        W10567   6.962   4.185   0.022
 6517W        W10568   0.724   5.356   9.981
 6518W        W10569   6.686   1.697  11.189
 6519W        W10570   8.501  11.299   3.171
 6520W        W10571   7.144   1.991   0.627
 6521W        W10572   1.448   0.716   0.039
 6522W        W10573   7.763   9.912  11.222
 6523W        W10574   4.109   0.454  11.991
 6524W        W10575   8.079   8.196   9.964
 6525W        W10576   0.347   6.500   3.780
 6526W        W10577   4.545   5.742  11.499
 6527W        W10578   4.026  10.529   9.757
 6528W        W10579   5.668   2.341  10.743
 6529W        W10580   8.849   9.300   9.273
 6530W        W10581   1.859   6.961   2.233
 6531W        W10582   0.400  10.822  11.829
 6532W        W10583   3.055  10.861  11.272
 6533W        W10584   0.788   9.961  10.559
 6534W        W10585   2.539   5.370   8.165
 6535W        W10586   6.629   6.694  11.295
 6536W        W10587   3.187   3.295  10.930
 6537W        W10588  10.836  10.290  11.784
 6538W        W10589   1.252  11.177   2.730
 6539W        W10590   3.765  10.950  10.524
 6540W        W10591   7.582   1.976  11.394
 6541W        W10592   4.032  11.455  11.822
 6542W        W10593   0.885   0.838   1.306
 6543W        W10594   1.881   8.630   9.481
 6544W        W10595   3.632   6.175   0.988
 6545W        W10596   9.780   1.697  10.742
 6546W        W10597   3.279   5.604  11.968
 6547W        W10598   0.591   7.259   2.160
 6548W        W10599   5.804   7.005   2.656
 6549W        W10600   9.771  11.416  11.492
 6550W        W10601   5.276   6.721   1.369
 6551W        W10602   6.233   4.131   4.108
 6552W        W10603   1.555   5.974  11.258
 6553W        W10604   6.556   6.907   1.213
 6554W        W10605   7.139   7.652  10.429
 6555W        W10606   6.523   7.746  10.970
 6556W        W10607   4.173  10.988   2.982
 6557W        W10608   7.089   0.824  10.801
 6558W        W10609   5.947  11.497   9.465
 6559W        W10610   5.871   9.530   9.842
 6560W        W10611   3.794   8.949   2.325
 6561W        W10612   4.150   6.254   3.739
 6562W        W10613   1.280   2.796   0.374
 6563W        W10614  10.549   2.374  10.047
 6564W        W10615   0.339  11.453   2.795
 6565W        W10616   0.350   7.251   1.697
 6566W        W10617   3.178   2.115  11.968
 6567W        W10618   2.882   2.798  11.414
 6568W        W10619   5.436   9.245   3.202
 6569W        W10620   9.962   8.391   2.397
 6570W        W10621  10.848  11.153   1.674
 6571W        W10622   1.729   9.199   3.288
 6572W        W10623   2.336  11.093  10.465
 6573W        W10624   7.478   0.961   0.572
 6574W        W10625   1.632   1.317  11.436
 6575W        W10626   6.661   3.118   2.467
 6576W        W10627   2.142   6.568   8.673
 6577W        W10628   2.854   6.234  10.609
 6578W        W10629   4.205   3.527  10.785
 6579W        W10630   6.431   3.158   8.483
 6580W        W10631   2.296   2.464  10.575
 6581W        W10632   1.610   7.033   9.370
 6582W        W10633  11.254   7.623   2.699
 6583W        W10634   9.252   0.671   0.573
 6584W        W10635   1.750   8.658   2.285
 6585W        W10636   5.123  11.297   9.875
 6586W        W10637   2.216   9.476   9.152
 6587W        W10638   9.999   3.323   1.889
 6588W        W10639   8.775   3.347  11.966
 6589W        W10640   4.248   0.078   9.851
 6590W        W10641   9.858   2.442   1.852
 6591W        W10642  10.961   8.174   0.731
 6592W        W10643   9.720   0.693   0.371
 6593W        W10644   5.177   5.978   0.998
 6594W        W10645   7.747   4.555   9.025
 6595W        W10646   3.239   2.639   0.860
 6596W        W10647   5.215   6.086  10.327
 6597W        W10648  10.016   8.140  11.785
 6598W        W10649   6.117   0.951   0.882
 6599W        W10650   1.954   3.402  10.954
 6600W        W10651  10.214   6.092   0.765
 6601W        W10652   8.994   7.849  11.528
 6602W        W10653   1.391   1.941   3.288
 6603W        W10654   6.560   8.641   1.816
 6604W        W10655   6.309   7.179   8.970
 6605W        W10656  10.794   0.754   9.052
 6606W        W10657   2.763   8.858   9.534
 6607W        W10658  11.257   8.587   0.706
 6608W        W10659   3.547   4.103   0.948
 6609W        W10660   4.044   6.178   0.133
 6610W        W10661   4.400   1.777   0.696
 6611W        W10662   6.197   0.291  10.805
 6612W        W10663   4.095  11.448   0.786
 6613W        W10664   7.629   8.895   0.602
 6614W        W10665   2.012   3.017  11.726
 6615W        W10666   8.149   2.838  10.403
 6616W        W10667   1.302   3.608  11.699
 6617W        W10668   4.541   3.404  10.404
 6618W        W10669   4.891   7.135  11.393
 6619W        W10670   5.659   6.319  10.167
 6620W        W10671   7.470   3.868   1.581
 6621W        W10672   0.150   5.653   0.602
 6622W        W10673  10.279   8.584  10.088
 6623W        W10674   7.195   3.107   1.968
 6624W        W10675   6.004   2.367   9.490
 6625W        W10676   4.616   1.450   9.368
 6626W        W10677   4.476   4.693   3.237
 6627W        W10678  10.086   7.452  10.314
 6628W        W10679  10.058  10.920   0.803
 6629W        W10680  11.342   5.259  11.099
 6630W        W10681   4.805   1.326  10.312
 6631W        W10682   0.852   3.506   9.531
 6632W        W10683   5.767   4.372   0.683
 6633W        W10684  10.169   7.524   1.625
 6634W        W10685   8.707   1.253   9.769
 6635W        W10686   3.245   8.612   0.233
 6636W        W10687   5.914   1.638  11.044
 6637W        W10688   5.017   1.785   4.112
 6638W        W10689   6.999   1.313   1.199
 6639W        W10690   7.881   5.235   9.469
 6640W        W10691   0.463   3.761   2.809
 6641W        W10692   8.079  11.382  10.874
 6642W        W10693   1.920   5.253   8.970
 6643W        W10694   1.365   2.822  10.342
 6644W        W10695   8.158  11.323   9.978
 6645W        W10696   9.213   0.395   3.260
 6646W        W10697   0.424  11.222   0.171
 6647W        W10698   8.654  11.277  10.219
 6648W        W10699   2.698   6.555   8.748
 6649W        W10700  10.529   0.699  10.662
 6650W        W10701   5.754   7.714   4.058
 6651W        W10702   3.343   3.337  11.413
 6652W        W10703   4.084  10.362  10.780
 6653W        W10704   9.014   3.317   9.047
 6654W        W10705   6.199   5.712   2.733
 6655W        W10706   4.975   8.122   9.209
 6656W        W10707   9.254   5.928  10.415
 6657W        W10708  10.363   4.142   3.110
 6658W        W10709   3.422   7.405   2.904
 6659W        W10710   7.631   2.116  11.890
 6660W        W10711   3.112   1.381  11.367
 6661W        W10712  10.751  11.272   9.054
 6662W        W10713  10.363   0.967   3.170
 6663W        W10714   4.116   1.246  10.384
 6664W        W10715   5.884  10.914   2.466
 6665W        W10716   2.021  10.353   9.195
 6666W        W10717   1.371   3.719  10.689
 6667W        W10718   1.744   4.618   0.416
 6668W        W10719   4.225   1.220   1.857
 6669W        W10720   9.014   8.977   9.845
 6670W        W10721   1.299   4.575  10.804
 6671W        W10722   4.248   2.775   1.560
 6672W        W10723   0.718   4.156   1.207
 6673W        W10724   9.245  10.371   3.785
 6674W        W10725  10.724   6.069   1.565
 6675W        W10726   2.124  10.612   1.814
 6676W        W10727  11.217   0.724   3.160
 6677W        W10728   0.559   1.869  11.163
 6678W        W10729   1.875   9.979   1.509
 6679W        W10730   7.603   6.219  10.196
 6680W        W10731   4.365   6.649  11.819
 6681W        W10732   0.087   1.684  11.242
 6682W        W10733   7.613  10.322  10.959
 6683W        W10734   7.586   8.017  10.650
 6684W        W10735   3.782   5.001   9.330
 6685W        W10736   5.115   0.300   1.305
 6686W        W10737   1.229   5.940  10.862
 6687W        W10738   9.843   8.871   3.302
 6688W        W10739   7.648   5.491   0.908
 6689W        W10740   2.211   8.795   2.495
 6690W        W10741   7.570   1.914   9.208
 6691W        W10742   9.301   4.831  10.066
 6692W        W10743   7.158   7.461   9.054
 6693W        W10744  10.894  10.954   3.034
 6694W        W10745   7.979   2.346   9.708
 6695W        W10746   3.709   6.617  10.812
 6696W        W10747   7.890  10.952   3.362
 6697W        W10748   3.930  10.283  11.346
 6698W        W10749   5.393   8.469  10.950
 6699W        W10750   0.581   9.071  10.191
 6700W        W10751   0.263   3.179   2.281
 6701W        W10752   6.078   2.541  10.966
 6702W        W10753  10.625   8.403   1.352
 6703W        W10754   3.214  11.484   9.191
 6704W        W10755  10.141   4.239   9.119
 6705W        W10756   6.796   1.786   2.421
 6706W        W10757   0.812   4.566  10.475
 6707W        W10758   5.766   2.837   2.831
 6708W        W10759   9.959   2.712   0.158
 6709W        W10760   3.923   7.266   2.874
 6710W        W10761  10.127   0.310   3.435
 6711W        W10762   7.382   1.047   2.373
 6712W        W10763   7.953   3.307  11.126
 6713W        W10764   0.808   7.389   0.811
 6714W        W10765   1.858   3.108  10.154
 6715W        W10766   1.807   6.424   0.392
 6716W        W10767   5.562   1.897  11.988
 6717W        W10768   2.355   9.582  10.651
 6718W        W10769   6.175   2.505  11.498
 6719W        W10770   4.519   6.115   1.287
 6720W        W10771   4.755  11.479   0.402
 6721W        W10772   9.040   7.382  10.397
 6722W        W10773   1.649  11.004  11.540
 6723W        W10774   4.164   9.531  11.491
 6724W        W10775   6.262   8.727   2.212
 6725W        W10776   3.650   0.897  10.409
 6726W        W10777   0.940   6.274  11.830
 6727W        W10778   8.823   7.614   8.847
 6728W        W10779   5.354   4.448   0.971
 6729W        W10780   9.998   3.270   8.734
 6730W        W10781   8.068   1.928  11.567
 6731W        W10782   9.647   9.361   3.273
 6732W        W10783   5.613   4.609   1.925
 6733W        W10784   5.842   7.073   9.168
 6734W        W10785   3.417   1.943   2.166
 6735W        W10786   8.438   5.935   9.881
 6736W        W10787   8.358   8.396   9.550
 6737W        W10788   0.223   4.068   1.360
 6738W        W10789   6.121   1.600   9.058
 6739W        W10790   4.780   7.971   1.132
 6740W        W10791   8.958   9.176   3.593
 6741W        W10792   9.993   7.974   1.518
 6742W        W10793   6.818  10.879   2.215
 6743W        W10794   9.458   3.372   8.737
 6744W        W10795   8.689   0.141   3.674
 6745W        W10796   2.957   0.711   0.294
 6746W        W10797   6.026   2.148   9.941
 6747W        W10798   4.943   2.625   1.785
 6748W        W10799   7.053   8.676   9.507
 6749W        W10800   7.800  10.374  11.437
 6750W        W10801   5.678   0.745   2.721
 6751W        W10802  11.376   5.198   9.905
 6752W        W10803   7.435  10.035  11.609
 6753W        W10804   7.120  11.186   1.316
 6754W        W10805  11.405   3.831  11.363
 6755W        W10806   9.864   9.999  11.932
 6756W        W10807   7.131   8.897   0.474
 6757W        W10808   2.173   4.972  11.740
 6758W        W10809   4.744   8.915   2.759
 6759W        W10810   2.695   9.495   1.707
 6760W        W10811  10.741   7.718   2.256
 6761W        W10812   1.747   2.682   9.880
 6762W        W10813   5.384   9.373   9.906
 6763W        W10814   2.316  10.023  11.401
 6764W        W10815  11.439   8.114   0.914
 6765W        W10816   8.206   1.215   0.637
 6766W        W10817   9.977   7.596   0.323
 6767W        W10818   5.087   7.235  10.902
 6768W        W10819   3.544   6.898   2.799
 6769W        W10820   8.625   3.030   1.245
 6770W        W10821   7.771   3.597   1.254
 6771W        W10822   1.371   7.166  11.551
 6772W        W10823   0.900   3.799   0.413
 6773W        W10824   2.792   2.854   0.996
 6774W        W10825  10.314  11.009  11.861
 6775W        W10826   6.508   2.352  10.754
 6776W        W10827   9.451   6.951   9.692
 6777W        W10828   4.768   9.906  10.965
 6778W        W10829   6.658   0.835   3.885
 6779W        W10830  10.525   7.296   1.341
 6780W        W10831  11.332   0.146   9.567
 6781W        W10832   5.190   9.001  10.747
 6782W        W10833   2.346   1.956  10.528
 6783W        W10834   5.076   9.322   2.406
 6784W        W10835   3.146   5.127   3.796
 6785W        W10836  11.300   5.274   0.510
 6786W        W10837   8.176   5.996   8.446
 6787W        W10838   9.761   0.503   1.807
 6788W        W10839  10.478   3.862  10.897
 6789W        W10840   1.159   6.708   8.702
 6790W        W10841   2.112   7.590   3.673
 6791W        W10842   4.486   1.448  10.680
 6792W        W10843   6.050   7.530  10.247
 6793W        W10844   2.704   7.520   9.335
 6794W        W10845   4.373  10.711   9.385
 6795W        W10846   4.797   7.146  10.336
 6796W        W10847   7.918  10.343   1.560
 6797W        W10848   7.982   1.237   1.424
 6798W        W10849   7.132   6.781   2.693
 6799W        W10850   9.169   8.433   1.271
 6800W        W10851   5.770   2.629   0.457
 6801W        W10852   1.885   2.155  10.491
 6802W        W10853   3.027   2.501  11.029
 6803W        W10854  10.428   7.449   2.992
 6804W        W10855  11.070   0.423   1.410
 6805W        W10856   5.922   4.298  11.379
 6806W        W10857   7.498   5.349   1.367
 6807W        W10858   7.159   9.501   2.893
 6808W        W10859   9.369   8.874   1.502
 6809W        W10860   5.652  10.773   3.458
 6810W        W10861   7.900   2.363   9.202
 6811W        W10862   3.678   7.049   0.027
 6812W        W10863   2.268  11.093   1.853
 6813W        W10864  11.418   0.505   0.949
 6814W        W10865   3.279   8.888   1.036
 6815W        W10866   7.346   6.999   8.841
 6816W        W10867   8.905   7.628   9.969
 6817W        W10868  10.517   9.068   8.710
 6818W        W10869   4.831   6.649  11.269
 6819W        W10870   0.393   4.879   1.629
 6820W        W10871   2.425   6.451  11.493
 6821W        W10872   9.476   9.788   2.934
 6822W        W10873   8.809   5.750  11.904
 6823W        W10874  10.888   0.358   9.386
 6824W        W10875   5.002   7.487   0.950
 6825W        W10876   2.359  10.315   0.914
 6826W        W10877  10.323   6.312   1.290
 6827W        W10878   5.308   9.806   0.228
 6828W        W10879  11.266   4.691   3.289
 6829W        W10880   5.233   0.803  11.771
 6830W        W10881   5.146   2.632   3.618
 6831W        W10882   5.746   4.113  10.742
 6832W        W10883   9.380  10.297   2.873
 6833W        W10884   1.851   7.799   2.701
 6834W        W10885  10.773   7.122   0.902
 6835W        W10886   9.875   4.730   0.206
 6836W        W10887   9.964   1.212   2.079
 6837W        W10888   3.197   4.750   0.902
 6838W        W10889   2.966   3.427  11.742
 6839W        W10890   0.663  10.444   0.077
 6840W        W10891   6.672   8.677   2.710
 6841W        W10892   8.471   9.471  10.133
 6842W        W10893   1.816   5.546   3.002
 6843W        W10894  11.395   2.893   2.695
 6844W        W10895   5.482  11.317   9.408
 6845W        W10896   8.979   9.879   0.824
 6846W        W10897   8.407   3.474  10.915
 6847W        W10898   6.549   1.672  10.195
 6848W        W10899   0.834   5.322  11.883
 6849W        W10900   2.685   8.161   1.292
 6850W        W10901   9.383   4.228  10.363
 6851W        W10902   7.494   6.697   0.321
 6852W        W10903   9.978   3.777   1.166
 6853W        W10904   2.174   7.415  10.581
 6854W        W10905   9.234   7.919   9.735
 6855W        W10906   8.473   9.881   9.830
 6856W        W10907   2.686   3.777  11.980
 6857W        W10908   1.002   0.726  10.857
 6858W        W10909  10.547  10.303   9.624
 6859W        W10910   6.243   1.286   8.668
 6860W        W10911   0.506   6.022   3.091
 6861W        W10912   0.814   4.550   9.533
 6862W        W10913   7.497   1.423   1.406
 6863W        W10914   9.407   5.829  11.323
 6864W        W10915  10.855   1.331  11.628
 6865W        W10916   8.884   4.779  11.787
 6866W        W10917   2.475   3.308  10.872
 6867W        W10918   6.374   1.367  10.930
 6868W        W10919   7.467   7.377   0.813
 6869W        W10920   1.330  10.927   2.294
 6870W        W10921   8.888   7.433   3.336
 6871W        W10922   5.477  10.533   2.471
 6872W        W10923   4.130  10.370  11.819
 6873W        W10924   1.338   1.810   9.957
 6874W        W10925   3.786   4.154   2.803
 6875W        W10926   5.048   6.045  11.990
 6876W        W10927   9.436   8.401   2.656
 6877W        W10928   7.643   5.539   2.201
 6878W        W10929   1.197  10.042   3.276
 6879W        W10930   5.559   7.563   0.925
 6880W        W10931  10.419  10.030   3.109
 6881W        W10932   4.261   5.228   0.544
 6882W        W10933   4.247   2.191   9.314
 6883W        W10934   8.890   7.130   2.794
 6884W        W10935   5.794   3.682  11.497
 6885W        W10936   7.926   2.760   1.695
 6886W        W10937   3.191   2.332  11.501
 6887W        W10938   7.496  10.029   1.828
 6888W        W10939   2.349   6.659   9.132
 6889W        W10940   9.017   9.549   1.714
 6890W        W10941   4.139  10.275   9.301
 6891W        W10942   3.177   6.166   1.788
 6892W        W10943   1.685   8.143  11.461
 6893W        W10944   6.128   0.226   1.397
 6894W        W10945   2.944   3.321   2.283
 6895W        W10946   4.175  11.455   8.909
 6896W        W10947   8.951   8.722   3.289
 6897W        W10948   7.163   8.151  10.348
 6898W        W10949   7.268   2.243   1.206
 6899W        W10950  10.085   8.097   9.874
 6900W        W10951   5.670   1.770   0.491
 6901W        W10952   0.806  11.361  10.895
 6902W        W10953   0.707  10.739   9.431
 6903W        W10954   3.294  11.220   2.606
 6904W        W10955   0.287   7.887   9.037
 6905W        W10956   2.015   7.597  10.130
 6906W        W10957   4.697   1.907  10.516
 6907W        W10958   7.561  10.448   1.184
 6908W        W10959   5.278   8.861   9.886
 6909W        W10960   7.183   5.337   0.705
 6910W        W10961   8.014   7.458   0.415
 6911W        W10962   5.608   3.113   0.439
 6912W        W10963  10.945   8.944  10.988
 6913W        W10964   3.671  10.411   9.420
 6914W        W10965   8.034   6.345   9.262
 6915W        W10966  10.289   1.985  10.575
 6916W        W10967   2.860   5.679   3.763
 6917W        W10968   6.101   0.264   0.058
 6918W        W10969   2.372   0.911  11.250
 6919W        W10970   8.126  10.319  10.998
 6920W        W10971   2.670  10.177  10.489
 6921W        W10972   1.432   1.507  10.819
 6922W        W10973   9.537   0.323  11.303
 6923W        W10974   7.148   9.195   9.101
 6924W        W10975   3.334   5.237   0.932
 6925W        W10976   9.884   7.210   0.017
 6926W        W10977   7.489   1.803   0.978
 6927W        W10978   6.906   7.414  10.811
 6928W        W10979  11.220   4.732  11.419
 6929W        W10980   9.242   7.603   2.061
 6930W        W10981   2.856   9.955  10.915
 6931W        W10982   7.408  10.081   3.643
 6932W        W10983  10.819   5.520   0.373
 6933W        W10984  10.451   8.843  10.766
 6934W        W10985   0.860  11.498   2.754
 6935W        W10986  11.053   3.362  11.288
 6936W        W10987  10.718   5.137   2.770
 6937W        W10988   4.260  10.023   0.171
 6938W        W10989   8.077  11.067  11.406
 6939W        W10990   0.275   6.746   9.640
 6940W        W10991   9.748   9.480   9.639
 6941W        W10992   7.339   2.445  10.402
 6942W        W10993   5.283   4.322   3.156
 6943W        W10994   2.665  11.340   9.870
 6944W        W10995   3.458   0.992  10.875
 6945W        W10996   1.640   5.707   9.007
 6946W        W10997   1.656   4.033   9.133
 6947W        W10998   8.424   9.243   1.437
 6948W        W10999   3.400   4.708   1.509
 6949W        W11000   1.607   6.864   1.182
 6950W        W11001   6.799   8.816   9.930
 6951W        W11002   9.828   9.468   1.198
 6952W        W11003   9.016   9.973   1.427
 6953W        W11004   3.122   3.829   2.327
 6954W        W11005   7.362   2.662  10.857
 6955W        W11006   8.440   5.231  10.452
 6956W        W11007   8.362   8.553   0.877
 6957W        W11008   7.486   5.661   0.456
 6958W        W11009  11.368   0.332   3.467
 6959W        W11010   8.032   0.730   1.342
 6960W        W11011   0.465   4.013  10.893
 6961W        W11012  10.906   2.464  10.967
 6962W        W11013   6.531   7.662   9.636
 6963W        W11014   4.294   1.350   8.952
 6964W        W11015   6.078   5.027   9.589
 6965W        W11016   5.255   1.654   1.222
 6966W        W11017   5.810  10.023   9.086
 6967W        W11018   6.355  11.425  10.441
 6968W        W11019   4.371   5.614   1.364
 6969W        W11020   8.841   0.966  11.936
 6970W        W11021   3.341   2.200   8.754
 6971W        W11022   9.914   5.977   8.831
 6972W        W11023   7.513   1.705  10.959
 6973W        W11024   3.805  11.422   9.998
 6974W        W11025  10.251   5.333  10.996
 6975W        W11026   7.483   1.314   1.910
 6976W        W11027   9.826   7.511   2.279
 6977W        W11028   5.530   8.532  11.994
 6978W        W11029   5.792  11.031   9.690
 6979W        W11030   6.196   4.103   9.928
 6980W        W11031   5.495  11.424  11.756
 6981W        W11032   8.532   0.803   0.705
 6982W        W11033   5.732   8.901   9.078
 6983W        W11034   9.550  11.280   9.775
 6984W        W11035   2.781   0.705   3.161
 6985W        W11036   4.528   9.269  10.236
 6986W        W11037   6.648   5.176  11.055
 6987W        W11038   4.771   3.286   2.307
 6988W        W11039   2.445   5.167   9.950
 6989W        W11040  11.252   6.514   1.853
 6990W        W11041   2.872   1.943   2.170
 6991W        W11042   3.719   6.239  10.170
 6992W        W11043  11.279   7.369  10.141
 6993W        W11044   4.700  11.425   3.441
 6994W        W11045  10.313   2.049   1.205
 6995W        W11046   9.534   0.429   8.962
 6996W        W11047   8.322   0.691   9.824
 6997W        W11048   4.012  10.268   3.837
 6998W        W11049   1.210   4.553  11.699
 6999W        W11050   5.113   7.112   9.928
 7000W        W11051   6.333  11.149   0.649
 7001W        W11052   2.668   1.383  11.766
 7002W        W11053  10.337   9.520   8.471
 7003W        W11054   9.060   2.815   8.897
 7004W        W11055   1.898   0.100   8.976
 7005W        W11056   7.567   1.026   8.923
 7006W        W11057   3.789   2.878  11.841
 7007W        W11058   6.942   4.058   9.470
 7008W        W11059   2.720   2.948  10.075
 7009W        W11060   0.312   4.043   9.870
 7010W        W11061  10.190   1.920   0.734
 7011W        W11062   1.833  10.806   3.132
 7012W        W11063   8.979   4.124  10.677
 7013W        W11064   2.093   6.347   3.462
 7014W        W11065   2.777  11.236   1.657
 7015W        W11066  10.299   5.710   0.367
 7016W        W11067  10.840   1.344   1.553
 7017W        W11068   9.886   1.179   0.420
 7018W        W11069   1.030   7.048   0.461
 7019W        W11070   0.965   4.984   2.780
 7020W        W11071   7.288   7.151  10.576
 7021W        W11072  11.433   1.033   0.904
 7022W        W11073   2.915  11.298   0.126
 7023W        W11074   5.780   6.671   2.245
 7024W        W11075   1.868   0.868  11.287
 7025W        W11076   4.026   8.396  11.206
 7026W        W11077   7.354   2.349   0.293
 7027W        W11078   0.850   4.661   0.460
 7028W        W11079   1.334   9.812   8.859
 7029W        W11080   8.610   2.959   9.138
 7030W        W11081   6.708   9.005   3.402
 7031W        W11082   4.299   5.651   0.843
 7032W        W11083   6.049   3.700  10.698
 7033W        W11084   5.517   6.299   1.176
 7034W        W11085   4.975   3.654   8.666
 7035W        W11086   5.984   9.977   9.587
 7036W        W11087   6.479  10.893   1.823
 7037W        W11088  11.286   1.682   2.677
 7038W        W11089   7.615   2.774   0.427
 7039W        W11090   0.321   8.125   2.216
 7040W        W11091   9.050   4.641   9.105
 7041W        W11092   1.401  10.808   8.833
 7042W        W11093   7.823   0.224   2.211
 7043W        W11094   3.404   8.978   0.545
 7044W        W11095   7.967   3.654   0.783
 7045W        W11096   5.121   9.757  10.103
 7046W        W11097   8.840   0.898   1.949
 7047W        W11098  10.054  11.067   2.830
 7048W        W11099   5.685   1.291   3.476
 7049W        W11100   6.002   8.917  11.502
 7050W        W11101   5.632   4.677   2.427
 7051W        W11102   8.392   0.775   0.200
 7052W        W11103   8.033   5.814   3.655
 7053W        W11104   0.629   0.916   9.055
 7054W        W11105   2.849   4.211  11.713
 7055W        W11106  11.209   5.989   2.818
 7056W        W11107   7.502   8.040   1.578
 7057W        W11108   5.356   0.319  10.506
 7058W        W11109   5.696   6.585   9.146
 7059W        W11110   7.878   7.865   2.083
 7060W        W11111   8.890  10.413  10.335
 7061W        W11112   7.921  10.766  11.781
 7062W        W11113  10.989   0.311   0.518
 7063W        W11114   3.544   4.002  10.584
 7064W        W11115  10.182   1.452   0.949
 7065W        W11116   9.993   6.509  10.415
 7066W        W11117   4.188   2.725   3.490
 7067W        W11118   6.599   1.787   8.920
 7068W        W11119   5.717   8.176   9.508
 7069W        W11120   3.203   9.362   1.804
 7070W        W11121   7.554  11.458   1.195
 7071W        W11122   1.784   8.687   3.228
 7072W        W11123   7.337   8.341  11.788
 7073W        W11124   6.798  10.372  11.301
 7074W        W11125   0.845   8.538  10.780
 7075W        W11126   5.742  11.452   0.239
 7076W        W11127   6.734   6.334  11.766
 7077W        W11128   9.729   8.232   3.670
 7078W        W11129   5.760   8.822   0.963
 7079W        W11130  10.529   5.534   0.841
 7080W        W11131   9.122  10.421   3.279
 7081W        W11132   7.895  10.975   9.649
 7082W        W11133   6.637  10.897   9.236
 7083W        W11134   2.453   7.055  10.334
 7084W        W11135  10.748   0.334   0.059
 7085W        W11136   6.663   9.110  10.861
 7086W        W11137   4.069   2.836   2.039
 7087W        W11138   8.143   9.878   1.362
 7088W        W11139   5.091   4.511   2.237
 7089W        W11140   0.867   4.153   1.694
 7090W        W11141   6.900   2.507   9.989
 7091W        W11142   2.648   4.957  10.396
 7092W        W11143   8.282   0.363  11.863
 7093W        W11144   7.636   9.040   9.195
 7094W        W11145   3.722   5.748   0.182
 7095W        W11146  10.357   6.102   3.244
 7096W        W11147   0.019  10.804   1.379
 7097W        W11148   4.713   0.335   9.921
 7098W        W11149   5.983   3.379   8.557
 7099W        W11150   8.410  10.532   0.918
 7100W        W11151   4.733   4.134   0.444
 7101W        W11152  11.485   1.825   1.193
 7102W        W11153  10.810   7.356   2.602
 7103W        W11154   5.553   9.410   8.993
 7104W        W11155   1.421   9.154   0.159
 7105W        W11156   9.410   0.480  10.358
 7106W        W11157   2.640   7.054  11.223
 7107W        W11158   2.850  10.932  11.757
 7108W        W11159   2.137   7.341   9.401
 7109W        W11160   1.677   9.620   0.768
 7110W        W11161   0.958  10.122  11.018
 7111W        W11162   9.981   2.855  11.676
 7112W        W11163   2.357   1.551   9.621
 7113W        W11164   8.594   3.367   1.619
 7114W        W11165   0.128  10.515   2.794
 7115W        W11166  11.407   8.459   2.262
 7116W        W11167   8.468   7.089   9.403
 7117W        W11168   5.224   1.623   2.674
 7118W        W11169   9.854   6.135   3.093
 7119W        W11170   7.960   6.966   3.115
 7120W        W11171   6.985   6.588   8.788
 7121W        W11172   1.766   6.467   0.894
 7122W        W11173   6.526   1.831  10.687
 7123W        W11174   2.730   5.747  10.737
 7124W        W11175   6.071  11.299  10.847
 7125W        W11176   1.125   5.742  10.043
 7126W        W11177   1.269   8.858  10.006
 7127W        W11178   5.068   2.974   0.906
 7128W        W11179   0.743   6.503  11.348
 7129W        W11180   8.473   1.143   1.633
 7130W        W11181   7.853   7.420   2.347
 7131W        W11182   2.817   2.575   3.332
 7132W        W11183   5.560   1.346  11.835
 7133W        W11184   2.027   7.676  11.429
 7134W        W11185   8.432   0.741  11.154
 7135W        W11186   0.458   6.730  10.527
 7136W        W11187   1.950  11.128   1.162
 7137W        W11188   0.253  11.099  10.262
 7138W        W11189   4.020   4.555   9.542
 7139W        W11190  10.890   9.036   0.027
 7140W        W11191   5.117   5.571  11.762
 7141W        W11192   9.845   5.273   3.041
 7142W        W11193   6.619   9.590   8.479
 7143W        W11194  10.034   1.785   9.775
 7144W        W11195   4.696   5.724   0.533
 7145W        W11196   1.338   8.385  10.199
 7146W        W11197   8.383  11.278   9.285
 7147W        W11198   3.138   1.017  10.092
 7148W        W11199   8.683   5.839   8.240
 7149W        W11200   3.562   4.166   9.200
 7150W        W11201   2.348  10.046  10.875
 7151W        W11202   1.768   5.025   9.406
 7152W        W11203   8.069   6.003  10.234
 7153W        W11204   6.963   0.950   2.121
 7154W        W11205   5.218   0.850   2.953
 7155W        W11206   4.601   3.208   0.806
 7156W        W11207   3.495   0.038  11.415
 7157W        W11208   8.048   0.068  11.392
 7158W        W11209   4.600   0.326   8.556
 7159W        W11210   8.510   7.642   0.396
 7160W        W11211  10.326   2.703   1.362
 7161W        W11212   8.569   1.176  11.369
 7162W        W11213   5.305  11.353   3.054
 7163W        W11214   4.880   0.669   3.280
 7164W        W11215  10.054   8.463   9.415
 7165W        W11216   4.130   1.867   8.748
 7166W        W11217   5.214   8.261   1.277
 7167W        W11218   3.328  10.807   2.258
 7168W        W11219   5.121   9.109   1.515
 7169W        W11220   6.774  10.922   0.095
 7170W        W11221   1.617   8.999  10.876
 7171W        W11222  11.406   1.852  11.692
 7172W        W11223   2.609   5.732   1.361
 7173W        W11224   8.606   4.084   0.486
 7174W        W11225   3.350   5.213   1.457
 7175W        W11226   6.892   4.570  11.244
 7176W        W11227  10.830   2.722   0.746
 7177W        W11228   6.521  11.136   3.056
 7178W        W11229   5.093   3.081  11.068
 7179W        W11230   9.420  10.876   0.108
 7180W        W11231   3.781   7.974  10.498
 7181W        W11232   7.129   7.058   0.070
 7182W        W11233   1.466   8.493   9.179
 7183W        W11234   3.865   1.862   1.294
 7184W        W11235   1.189   6.730  11.752
 7185W        W11236   5.183   1.423   0.751
 7186W        W11237   4.729   8.673   1.921
 7187W        W11238   3.319   8.792   8.641
 7188W        W11239   1.286   4.661   0.188
 7189W        W11240   7.227   8.399  10.792
 7190W        W11241   0.665   1.490  10.405
 7191W        W11242   2.625   8.654   1.239
 7192W        W11243   7.039   1.680  10.318
 7193W        W11244   5.058  10.787   0.514
 7194W        W11245   2.662   2.344   2.455
 7195W        W11246  10.782   4.242   2.825
 7196W        W11247   4.660   6.103   1.839
 7197W        W11248   8.800   3.658   1.228
 7198W        W11249   5.522   3.274   2.686
 7199W        W11250   1.806   5.527   9.452
 7200W        W11251   4.461   2.159   2.867
 7201W        W11252   6.166   3.161   8.968
 7202W        W11253   6.564   5.663   1.739
 7203W        W11254   3.595  11.249  10.960
 7204W        W11255   3.369   7.145  10.478
 7205W        W11256   3.806   2.634  10.356
 7206W        W11257  11.434   4.303   9.169
 7207W        W11258   9.461   5.018   0.410
 7208W        W11259   6.554   5.692  11.261
 7209W        W11260   8.674   6.658   8.729
 7210W        W11261   0.588   1.252   9.913
 7211W        W11262   4.288   4.566  10.815
 7212W        W11263   1.069   7.884   3.380
 7213W        W11264   4.154   2.542  11.955
 7214W        W11265   5.754   7.514   8.900
 7215W        W11266   8.097   3.700   9.606
 7216W        W11267   0.389   4.885  11.749
 7217W        W11268   0.851   9.034  10.626
 7218W        W11269   6.966   0.844   2.618
 7219W        W11270   0.207   7.643  10.079
 7220W        W11271   3.812   2.092  11.425
 7221W        W11272   7.026  11.464   2.334
 7222W        W11273   9.128   3.320   2.775
 7223W        W11274   4.078   1.712   9.239
 7224W        W11275   9.426   2.420   9.698
 7225W        W11276   5.198   6.742   9.132
 7226W        W11277   6.135   6.208   9.397
 7227W        W11278   0.231   6.608   0.045
 7228W        W11279   2.259   0.206   1.026
 7229W        W11280   5.511  10.270  10.762
 7230W        W11281   4.965   0.205   3.127
 7231W        W11282   2.208   1.980   3.166
 7232W        W11283   0.762  11.198  11.780
 7233W        W11284   8.073  10.976   2.863
 7234W        W11285   8.680   1.339   0.756
 7235W        W11286   0.536   9.722   0.565
 7236W        W11287   7.029   7.543   9.560
 7237W        W11288   0.109   5.270   0.088
 7238W        W11289   4.673   6.161  11.234
 7239W        W11290   3.845  10.974  11.921
 7240W        W11291   4.572   7.566  10.056
 7241W        W11292   8.328   9.822   3.619
 7242W        W11293   3.595   1.320  10.136
 7243W        W11294   2.760   9.926   2.031
 7244W        W11295   2.152   5.123  10.347
 7245W        W11296   1.778   3.565  11.449
 7246W        W11297   8.546   8.872   9.393
 7247W        W11298   6.513   7.099   1.952
 7248W        W11299   2.624   0.933   9.964
 7249W        W11300   2.668   1.834   2.640
 7250W        W11301   0.233   0.003   1.899
 7251W        W11302   4.161   3.724  10.339
 7252W        W11303   3.699   6.097   8.325
 7253W        W11304   3.255   4.720  10.093
 7254W        W11305   0.399   6.658   1.119
 7255W        W11306   0.758   3.157  11.014
 7256W        W11307   8.620   8.912  11.007
 7257W        W11308   1.724   8.983  11.807
 7258W        W11309   8.365   1.107   1.112
 7259W        W11310   2.549   5.623   8.738
 7260W        W11311   7.439   0.479   2.989
 7261W        W11312   2.712   8.851  10.050
 7262W        W11313   4.774   2.480  11.470
 7263W        W11314  10.889   2.963   2.528
 7264W        W11315   3.469  10.552   0.455
 7265W        W11316   6.234   5.510  11.758
 7266W        W11317   7.526   8.094  11.141
 7267W        W11318   8.854   8.507   0.861
 7268W        W11319   8.151   6.372   1.331
 7269W        W11320   9.999   0.295   9.173
 7270W        W11321   9.774   7.910   3.269
 7271W        W11322   5.096   8.253  11.957
 7272W        W11323   1.762   2.656   8.915
 7273W        W11324  10.331   8.872   2.747
 7274W        W11325   3.693   4.223   8.702
 7275W        W11326  10.359   2.171  11.386
 7276W        W11327   6.261  10.390   9.731
 7277W        W11328   2.334   3.832   8.631
 7278W        W11329   3.803   9.726   0.205
 7279W        W11330   4.177   0.385   2.443
 7280W        W11331  10.375   1.796   1.827
 7281W        W11332  10.956   2.589   2.138
 7282W        W11333   1.854   7.740   9.660
 7283W        W11334   0.417   0.401   1.565
 7284W        W11335   9.095   2.777  11.316
 7285W        W11336  10.824   6.158   9.214
 7286W        W11337   2.218   6.667   1.649
 7287W        W11338  10.268   7.947   3.125
 7288W        W11339  10.891   4.658  11.810
 7289W        W11340   6.772   5.835   1.263
 7290W        W11341   0.815   2.894  10.189
 7291W        W11342   2.736   9.926   9.994
 7292W        W11343  11.260   9.491   9.025
 7293W        W11344   8.956   2.570   3.289
 7294W        W11345   0.981   2.825  10.686
 7295W        W11346   7.513  11.306   2.228
 7296W        W11347   5.704   4.060   4.066
 7297W        W11348   0.904  11.373   0.508
 7298W        W11349   1.187   4.175   0.992
 7299W        W11350   8.454   0.963   9.422
 7300W        W11351  11.163   1.680   3.658
 7301W        W11352   3.702   1.281   1.916
 7302W        W11353   2.290   9.362  11.542
 7303W        W11354   7.077   1.993  11.348
 7304W        W11355   1.735   7.838   0.986
 7305W        W11356   9.089  10.848   1.328
 7306W        W11357  10.126  11.046  11.377
 7307W        W11358   1.372   4.109  11.011
 7308W        W11359   4.193   4.692   1.805
 7309W        W11360  10.519   8.426   1.851
 7310W        W11361   2.346   3.435   3.695
 7311W        W11362   6.722   1.364   3.330
 7312W        W11363   1.555  10.491   0.906
 7313W        W11364   5.466   8.399   0.849
 7314W        W11365   0.367  10.405  11.422
 7315W        W11366   5.002  11.059   2.031
 7316W        W11367   1.044   7.483   1.294
 7317W        W11368   2.032   5.155   1.243
 7318W        W11369   0.486   2.653   1.003
 7319W        W11370   5.646   4.668   2.977
 7320W        W11371   4.518   3.244   9.012
 7321W        W11372   9.874   4.227   0.905
 7322W        W11373   3.878   8.364  11.689
 7323W        W11374   4.239  10.575   1.949
 7324W        W11375   8.847   2.338  11.434
 7325W        W11376   6.215   9.240   0.284
 7326W        W11377   0.304   5.164   0.661
 7327W        W11378   5.673   2.803  10.498
 7328W        W11379   0.452  10.990  10.745
 7329W        W11380   0.474   2.151   9.900
 7330W        W11381   0.496   6.716   2.123
 7331W        W11382  10.415   1.958   9.074
 7332W        W11383   6.899   6.052  11.374
 7333W        W11384   9.040   0.319   1.367
 7334W        W11385   2.727   6.208   0.465
 7335W        W11386  11.364  10.239   0.272
 7336W        W11387   9.065   2.149   2.138
 7337W        W11388   1.186   7.913   2.354
 7338W        W11389   3.322   5.086  11.910
 7339W        W11390   6.496   4.511  10.513
 7340W        W11391   9.281   0.560   0.080
 7341W        W11392   1.765   9.076   9.252
 7342W        W11393   3.340   1.750   8.479
 7343W        W11394  10.042   0.972   0.862
 7344W        W11395  10.002   2.397   0.796
 7345W        W11396   0.694  11.244   9.508
 7346W        W11397   8.678   6.103   8.678
 7347W        W11398   7.898   4.283   9.806
 7348W        W11399   8.996  10.179  11.927
 7349W        W11400   6.962   0.850   9.733
 7350W        W11401   7.959   4.509  10.267
 7351W        W11402   9.617   2.910   8.940
 7352W        W11403  10.412   0.935   2.276
 7353W        W11404  11.306   6.123   9.424
 7354W        W11405   5.824   2.295   1.198
 7355W        W11406   6.541   0.225   2.386
 7356W        W11407   8.252   7.888   9.566
 7357W        W11408   8.052   7.163  11.996
 7358W        W11409   7.953  11.234   1.450
 7359W        W11410   2.785   4.983   0.727
 7360W        W11411   4.958   7.059   9.448
 7361W        W11412   4.679   4.768   2.025
 7362W        W11413   1.795   2.331   0.967
 7363W        W11414   0.331   5.776  10.333
 7364W        W11415   2.864   3.703   0.487
 7365W        W11416   4.980   1.776   8.777
 7366W        W11417  10.693   6.805   9.908
 7367W        W11418   2.260   0.275   0.511
 7368W        W11419   4.156   4.865  10.395
 7369W        W11420   1.999   5.417   0.790
 7370W        W11421   6.069   6.483  10.682
 7371W        W11422   8.760   9.464   0.605
 7372W        W11423   9.947   5.660   2.488
 7373W        W11424  10.344   7.445   0.674
 7374W        W11425   1.472  11.382  10.427
 7375W        W11426  10.704   9.635   0.668
 7376W        W11427   8.618   2.560   1.044
 7377W        W11428   4.282   9.950  11.169
 7378W        W11429   8.762   5.923  10.288
 7379W        W11430   8.429   3.836   0.896
 7380W        W11431   2.096   8.073   0.734
 7381W        W11432  11.161   3.583   3.296
 7382W        W11433   7.560  10.542   2.706
 7383W        W11434   9.015   8.584   2.287
 7384W        W11435   0.961   6.917   2.238
 7385W        W11436   7.602  11.349  11.638
 7386W        W11437  10.375   8.914   1.386
 7387W        W11438   3.746   7.093   1.975
 7388W        W11439   0.567   3.676   1.337
 7389W        W11440   3.545   0.733   9.936
 7390W        W11441   0.585   9.137   2.224
 7391W        W11442  11.410   8.630  10.879
 7392W        W11443   7.252   2.788   2.800
 7393W        W11444   8.705   8.378   1.511
 7394W        W11445   3.692   3.639   9.366
 7395W        W11446   4.724   5.706  11.008
 7396W        W11447   5.334   7.264   9.131
 7397W        W11448   7.417   0.543   2.484
 7398W        W11449   3.229   3.156   9.915
 7399W        W11450   9.716   0.424   3.138
 7400W        W11451   2.413   9.937   3.426
 7401W        W11452   7.825  10.593  10.587
 7402W        W11453   7.203   1.312   3.207
 7403W        W11454   1.381   0.236   1.418
 7404W        W11455   4.476   8.471   1.124
 7405W        W11456   5.731   2.808  11.548
 7406W        W11457   1.160   1.023   0.345
 7407W        W11458   6.561   8.129   1.874
 7408W        W11459   2.818   2.706   0.362
 7409W        W11460   9.484   1.945   9.526
 7410W        W11461   3.585   7.018  11.525
 7411W        W11462   0.759   6.065   9.470
 7412W        W11463  10.266   2.921  11.030
 7413W        W11464   3.580   3.190   9.090
 7414W        W11465   2.081   0.922   3.642
 7415W        W11466   5.491   7.552  11.921
 7416W        W11467  11.334   2.708   0.779
 7417W        W11468   6.537   6.653  10.224
 7418W        W11469   7.431  10.236  10.504
 7419W        W11470   6.090   5.078   1.544
 7420W        W11471   3.596   1.807  11.851
 7421W        W11472   1.816   3.602   0.382
 7422W        W11473   5.081   4.226   1.353
 7423W        W11474   3.229   4.698   2.002
 7424W        W11475   6.100   7.746   3.666
 7425W        W11476   7.550   4.496   9.501
 7426W        W11477   5.405   9.057   0.203
 7427W        W11478  10.855   5.594   1.698
 7428W        W11479   8.589   8.885   2.219
 7429W        W11480   9.314   3.646   1.324
 7430W        W11481   8.225   8.153  11.756
 7431W        W11482   2.410   7.415   1.493
 7432W        W11483   9.092   2.697   9.402
 7433W        W11484   2.351   9.989   9.009
 7434W        W11485   6.759   4.221   0.493
 7435W        W11486   8.909   1.021   0.437
 7436W        W11487   9.902  11.247   0.226
 7437W        W11488   5.929  10.654  11.419
 7438W        W11489   4.257   1.362   0.433
 7439W        W11490   9.962  10.327   9.436
 7440W        W11491   2.867   4.545   0.478
 7441W        W11492   8.637   2.559   1.546
 7442W        W11493   8.677   7.566   1.895
 7443W        W11494   3.701   8.030   3.177
 7444W        W11495   9.948   3.298   2.414
 7445W        W11496   0.390   5.042   8.890
 7446W        W11497   0.364   8.582   2.497
 7447W        W11498   9.377  10.369   1.860
 7448W        W11499  11.109   4.589   0.289
 7449W        W11500   2.144   3.241   0.180
 7450W        W11501   5.240   1.226  11.449
 7451W        W11502   9.736   2.290   3.549
 7452W        W11503   4.662  10.407  11.812
 7453W        W11504   5.644   4.795  10.547
 7454W        W11505   7.145   3.869   3.055
 7455W        W11506   4.312   4.710   9.942
 7456W        W11507   0.487   2.685   9.368
 7457W        W11508   9.604   5.704   2.872
 7458W        W11509  10.030   7.477   3.319
 7459W        W11510   2.054   8.763   8.470
 7460W        W11511   1.796   6.462   1.428
 7461W        W11512   4.038   5.941   1.168
 7462W        W11513   5.165   7.839  11.581
 7463W        W11514   2.188  11.302   9.999
 7464W        W11515   1.983   2.664  11.291
 7465W        W11516   8.575   1.589   1.866
 7466W        W11517   0.149   9.423   9.449
 7467W        W11518  10.004   6.166   0.204
 7468W        W11519   3.649   8.433  10.786
 7469W        W11520   6.346  10.741   0.324
 7470W        W11521  10.341   9.954   1.768
 7471W        W11522   7.648   0.027   1.720
 7472W        W11523   5.103   8.615  10.397
 7473W        W11524   8.153   3.879   0.359
 7474W        W11525   8.924   3.267  11.462
 7475W        W11526   7.644   5.607  11.072
 7476W        W11527   6.720   3.669  11.379
 7477W        W11528   8.150   0.438   9.423
 7478W        W11529   4.623   2.485   3.230
 7479W        W11530  10.061   6.168  10.812
 7480W        W11531   2.373   3.378   8.940
 7481W        W11532   8.462   4.997   9.999
 7482W        W11533  11.436   4.693   8.607
 7483W        W11534   8.573   8.338  10.921
 7484W        W11535   0.765   4.869   3.506
 7485W        W11536  10.190   5.812  11.483
 7486W        W11537   0.493   4.718   2.881
 7487W        W11538   0.374   8.521   3.006
 7488W        W11539   8.426  11.221   1.692
 7489W        W11540   9.001   5.051  11.187
 7490W        W11541   7.850   4.523  11.760
 7491W        W11542   7.512   6.975   3.410
 7492W        W11543   8.949   9.131   2.495
 7493W        W11544   5.116   4.034   9.018
 7494W        W11545   8.944   5.673   2.309
 7495W        W11546  11.225  10.128   1.923
 7496W        W11547   5.012  10.059  10.535
 7497W        W11548   4.645   7.017   1.577
 7498W        W11549   1.699   3.085  11.267
 7499W        W11550   0.864  10.411   9.992
 7500W        W11551   6.028   4.918   2.066
 7501W        W11552   2.262   1.155   0.017
 7502W        W11553   2.710   5.452  10.316
 7503W        W11554  10.966  10.099   3.147
 7504W        W11555   7.211   8.381   3.370
 7505W        W11556  11.492   0.276   0.497
 7506W        W11557   6.394   0.235   9.275
 7507W        W11558   3.755   2.646   1.600
 7508W        W11559   6.957   7.985   3.110
 7509W        W11560   9.855   1.028   8.625
 7510W        W11561   5.253   3.593  11.491
 7511W        W11562   6.443   0.986   1.354
 7512W        W11563   1.999   5.089   2.138
 7513W        W11564   4.486   6.525   1.611
 7514W        W11565   0.915   2.112   3.212
 7515W        W11566   2.811   6.460   9.264
 7516W        W11567   5.023   1.236  11.944
 7517W        W11568   6.933   5.683  11.728
 7518W        W11569   9.982   1.357   9.531
 7519W        W11570   0.819   2.392   2.180
 7520W        W11571   6.483   8.108   3.324
 7521W        W11572   5.030   3.486   3.993
 7522W        W11573   8.319   2.989  10.851
 7523W        W11574   9.426   7.624   0.479
 7524W        W11575   7.456  10.797   3.136
 7525W        W11576   6.462   6.126   1.525
 7526W        W11577   6.093   0.685  11.777
 7527W        W11578   8.118   3.294   0.438
 7528W        W11579   8.550   6.590   2.708
 7529W        W11580  11.323   2.306   1.871
 7530W        W11581   9.088   5.215   0.681
 7531W        W11582   5.523  10.954  11.494
 7532W        W11583   0.276   8.525   0.038
 7533W        W11584   9.526   8.663   0.294
 7534W        W11585   6.464   5.918   9.110
 7535W        W11586   5.286   7.462   8.659
 7536W        W11587   4.229   6.213  10.259
 7537W        W11588   5.125   3.130   3.622
 7538W        W11589   8.282   3.712   1.378
 7539W        W11590   8.419   9.745   2.115
 7540W        W11591   6.184  10.858  11.823
 7541W        W11592   4.293   9.125   0.335
 7542W        W11593   1.257  11.419   1.797
 7543W        W11594   1.750   3.167   8.626
 7544W        W11595   3.758   9.272   1.919
 7545W        W11596   3.139   4.101  10.278
 7546W        W11597   2.645   9.000   9.052
 7547W        W11598   4.103  11.362   9.408
 7548W        W11599   6.381  10.077  11.406
 7549W        W11600   4.697   0.099   2.362
 7550W        W11601   1.285   7.030   2.927
 7551W        W11602   7.648   9.553   1.969
 7552W        W11603   7.380  10.754  10.397
 7553W        W11604  10.348   0.420   2.363
 7554W        W11605   0.025   4.658   2.663
 7555W        W11606   5.425   6.022  11.657
 7556W        W11607   7.379   1.662   9.590
 7557W        W11608   8.177   3.302   1.103
 7558W        W11609   6.146   1.349   1.668
 7559W        W11610   5.260   0.920   0.730
 7560W        W11611   2.558   7.027   9.451
 7561W        W11612   2.992   5.837   3.129
 7562W        W11613   2.657  10.686  10.437
 7563W        W11614   6.258   2.865   9.467
 7564W        W11615   0.472   6.176   0.275
 7565W        W11616   5.016   8.372   9.966
 7566W        W11617   5.779   9.558   0.239
 7567W        W11618   7.919   7.659  10.863
 7568W        W11619   2.613   4.229   8.886
 7569W        W11620   8.577  11.290   0.672
 7570W        W11621   3.128   5.882   0.399
 7571W        W11622   2.495  10.358   2.034
 7572W        W11623   9.986   4.182  11.532
 7573W        W11624   6.740   8.530   3.197
 7574W        W11625  11.282   1.729  10.306
 7575W        W11626   0.818  11.028   2.396
 7576W        W11627   6.988  10.946  10.128
 7577W        W11628   6.639   4.249  10.091
 7578W        W11629  10.240   4.583  10.409
 7579W        W11630   8.130   4.800   2.675
 7580W        W11631   1.295   7.546   2.697
 7581W        W11632   9.837   4.279  10.584
 7582W        W11633   2.829   3.690  10.955
 7583W        W11634   0.475   5.053   1.145
 7584W        W11635   9.030   6.859  10.442
 7585W        W11636   8.979   3.208   9.552
 7586W        W11637   9.306   4.093  11.994
 7587W        W11638  11.260   4.234  11.697
 7588W        W11639   5.031   3.813   9.583
 7589W        W11640   4.044   2.067   0.869
 7590W        W11641   8.974   7.867   0.346
 7591W        W11642   3.441   5.238  10.889
 7592W        W11643   7.427   3.253   0.402
 7593W        W11644   2.227   7.666   1.915
 7594W        W11645   3.894   1.730   0.418
 7595W        W11646   4.219   6.676  10.850
 7596W        W11647   3.598   6.593   1.737
 7597W        W11648  10.609   9.561   2.332
 7598W        W11649   9.607   6.436  11.658
 7599W        W11650   6.125   4.437   3.178
 7600W        W11651   9.425   7.018   2.790
 7601W        W11652   0.372  10.214   0.442
 7602W        W11653   2.299   7.964   0.285
 7603W        W11654   9.127   6.868   8.628
 7604W        W11655  10.769   1.978  10.987
 7605W        W11656   2.773   3.283  11.288
 7606W        W11657   5.998  10.451   3.174
 7607W        W11658   2.283   8.086   2.957
 7608W        W11659   1.266   1.836   2.802
 7609W        W11660   2.882   6.001   9.032
 7610W        W11661  10.959   3.539   0.421
 7611W        W11662   9.520   4.796   2.762
 7612W        W11663  10.920   4.241   8.470
 7613W        W11664   2.699  11.354  10.783
 7614W        W11665   4.715   8.429   9.556
 7615W        W11666   1.683   6.743  11.495
 7616W        W11667   9.777   5.675   3.371
 7617W        W11668   6.653   2.875   0.179
 7618W        W11669   7.391   4.562  11.996
 7619W        W11670  10.094   3.546  10.393
 7620W        W11671   6.104  10.880   1.437
 7621W        W11672   8.834   5.071   9.308
 7622W        W11673   9.950   0.738   2.225
 7623W        W11674  11.238   9.915  11.868
 7624W        W11675   7.698   3.220   2.484
 7625W        W11676   8.885   8.009   1.803
 7626W        W11677   8.235   8.600   9.050
 7627W        W11678   6.909  10.209   0.972
 7628W        W11679  10.299   4.138  11.924
 7629W        W11680   3.411   2.863  11.076
 7630W        W11681  10.991   9.951   9.032
 7631W        W11682   3.678  11.266   9.077
 7632W        W11683   8.514   5.072  11.389
 7633W        W11684   3.346   7.507   1.538
 7634W        W11685   5.054   8.685   2.430
 7635W        W11686   9.272   9.621   9.472
 7636W        W11687   2.486   9.112  10.884
 7637W        W11688   4.288   4.826  11.263
 7638W        W11689  11.353   7.205   3.620
 7639W        W11690   2.848   2.162   8.993
 7640W        W11691   0.287   0.336  11.264
 7641W        W11692  11.306   3.395   9.557
 7642W        W11693   5.582   2.356   8.723
 7643W        W11694  10.353   7.546  10.729
 7644W        W11695   1.305  10.918   1.789
 7645W        W11696   7.629   3.598   9.426
 7646W        W11697  10.977  10.575   3.435
 7647W        W11698   5.924   0.948   1.376
 7648W        W11699  11.339   9.848  10.412
 7649W        W11700   5.150   4.068   2.736
 7650W        W11701   6.579   0.683   0.917
 7651W        W11702   9.300   0.265  10.833
 7652W        W11703   6.111   1.876   1.295
 7653W        W11704   3.326   4.504   2.932
 7654W        W11705   7.601   7.611  11.348
 7655W        W11706  10.752  10.867   9.481
 7656W        W11707   4.364   9.076   9.771
 7657W        W11708   5.421   3.242  10.276
 7658W        W11709   4.373   1.812   1.231
 7659W        W11710  11.350   1.904   0.696
 7660W        W11711   1.287   8.822   3.333
 7661W        W11712   8.817   4.625   9.994
 7662W        W11713   0.503   7.930   0.237
 7663W        W11714   7.632   5.841   1.325
 7664W        W11715   5.155   7.575   2.743
 7665W        W11716   3.838   7.941   0.005
 7666W        W11717   3.161   4.983  10.527
 7667W        W11718   4.692   3.543   1.873
 7668W        W11719   0.118   3.600   3.543
 7669W        W11720   5.397   4.145   1.737
 7670W        W11721   5.684   7.603   0.401
 7671W        W11722   7.056  10.884   9.528
 7672W        W11723   1.632   8.498  11.910
 7673W        W11724  10.422   8.635   8.444
 7674W        W11725   8.353   5.054   9.509
 7675W        W11726   7.188   6.096  11.855
 7676W        W11727   6.167   4.437   2.211
 7677W        W11728   6.976   3.260  11.559
 7678W        W11729   0.487   0.284   9.604
 7679W        W11730   8.099   4.951   8.234
 7680W        W11731   3.199   7.619  11.579
 7681W        W11732   4.980   0.774  10.266
 7682W        W11733   1.816   5.624  10.341
 7683W        W11734   8.905   5.062   8.797
 7684W        W11735  11.377  11.004   2.803
 7685W        W11736   4.408   8.116   2.660
 7686W        W11737   1.404   3.813   0.680
 7687W        W11738   7.874  10.756  11.073
 7688W        W11739   5.535   5.163   3.100
 7689W        W11740   1.376   7.138   8.935
 7690W        W11741   9.856   6.070   9.394
 7691W        W11742   7.333   4.389   8.716
 7692W        W11743   5.580   3.119   8.408
 7693W        W11744   0.871   2.489   3.722
 7694W        W11745   4.998   1.503   3.476
 7695W        W11746   6.537   4.075   2.259
 7696W        W11747   8.335   2.939   0.787
 7697W        W11748   3.150   9.371   3.171
 7698W        W11749   8.651   4.879   3.011
 7699W        W11750   4.104   3.700   2.689
 7700W        W11751  11.074  10.544  10.304
 7701W        W11752   8.186   9.807  10.921
 7702W        W11753   2.433  10.425   0.375
 7703W        W11754   7.932   8.945   0.119
 7704W        W11755   4.079   3.713   9.702
 7705W        W11756   1.173   7.420  10.361
 7706W        W11757   2.640   0.554   1.193
 7707W        W11758   9.962   4.987  11.254
 7708W        W11759   6.119  11.332   9.983
 7709W        W11760   7.474   2.213   9.607
 7710W        W11761   7.190   0.672   1.737
 7711W        W11762  11.446  11.059  11.097
 7712W        W11763   5.650   0.040   2.742
 7713W        W11764   5.181   5.042   1.539
 7714W        W11765   6.074   2.655  11.989
 7715W        W11766   0.525  11.493  10.506
 7716W        W11767   3.124   0.769  10.538
 7717W        W11768   7.082  10.681   1.179
 7718W        W11769   4.317   4.039  11.640
 7719W        W11770  11.464   9.361   9.940
 7720W        W11771   0.231   8.375   0.582
 7721W        W11772   2.386   2.949   0.542
 7722W        W11773   4.778   2.412  10.539
 7723W        W11774   0.396   4.343   2.224
 7724W        W11775   7.043   8.020   2.575
 7725W        W11776   5.730  10.071   2.951
 7726W        W11777   6.519   1.618   9.410
 7727W        W11778   1.445  10.783   9.855
 7728W        W11779   1.224   2.159   2.398
 7729W        W11780   0.984   6.258   9.933
 7730W        W11781  10.913   3.840  11.452
 7731W        W11782   4.752   8.791   3.247
 7732W        W11783   6.427   2.288   3.619
 7733W        W11784  10.672   1.239   0.945
 7734W        W11785   6.443   3.139   0.799
 7735W        W11786   5.573   7.329   9.981
 7736W        W11787   4.183   8.670   0.039
 7737W        W11788   2.188  10.499  10.517
 7738W        W11789  10.522   3.137   1.157
 7739W        W11790   1.095   2.705  11.873
 7740W        W11791  10.265   5.555   3.458
 7741W        W11792   5.165   5.631  10.059
 7742W        W11793   9.866   3.124  10.097
 7743W        W11794   5.245   2.090   9.060
 7744W        W11795   0.120   0.952   9.115
 7745W        W11796  10.005   6.462   9.045
 7746W        W11797  11.362   6.646   9.351
 7747W        W11798   2.566   4.576   3.405
 7748W        W11799   9.911   0.679   1.273
 7749W        W11800   6.936   7.915   8.922
 7750W        W11801   2.665   3.819   3.516
 7751W        W11802   2.076   9.307   0.792
 7752W        W11803   0.179   4.342  10.278
 7753W        W11804   0.562  11.303   3.238
 7754W        W11805   0.748   2.580   3.218
 7755W        W11806   5.296   0.866   1.960
 7756W        W11807   8.050  10.508   3.073
 7757W        W11808   5.147   7.543   1.795
 7758W        W11809  10.368  10.875  10.058
 7759W        W11810   1.824   0.184   0.207
 7760W        W11811   5.026   7.371  11.822
 7761W        W11812  10.848   9.253   8.370
 7762W        W11813   1.284   4.786   1.719
 7763W        W11814   8.332   4.507   9.929
 7764W        W11815   1.844   5.347  11.941
 7765W        W11816  11.021   5.532   2.701
 7766W        W11817   8.565  11.322  10.706
 7767W        W11818   2.264   0.357   2.479
 7768W        W11819   9.871   8.474  10.829
 7769W        W11820   8.337   7.652   0.899
 7770W        W11821   5.527   9.205   1.874
 7771W        W11822  10.233   6.030   1.718
 7772W        W11823   9.771   8.867  10.347
 7773W        W11824   0.412   3.599  10.593
 7774W        W11825   0.363   6.568   0.575
 7775W        W11826   5.528   0.379   2.360
 7776W        W11827  10.860   7.307   9.858
 7777W        W11828   4.481   2.830   2.392
 7778W        W11829   2.255   6.551   0.646
 7779W        W11830   5.822   8.047  10.236
 7780W        W11831   1.967   3.211   1.456
 7781W        W11832   6.897   2.094   3.572
 7782W        W11833   3.107   1.789   1.743
 7783W        W11834   6.474   3.500   3.701
 7784W        W11835   1.704   8.421  10.970
 7785W        W11836   4.051   5.699  11.333
 7786W        W11837   2.087   1.331   2.419
 7787W        W11838   8.244   1.435   9.524
 7788W        W11839  11.078   9.034  10.040
 7789W        W11840  10.622  10.432  10.113
 7790W        W11841  10.979   3.789   9.320
 7791W        W11842  11.446   3.674   9.124
 7792W        W11843   2.789   7.354   0.753
 7793W        W11844   7.453   8.085   3.000
 7794W        W11845   3.302  11.126   3.116
 7795W        W11846   0.406   7.045   0.784
 7796W        W11847   0.888   0.313   0.812
 7797W        W11848   9.652  10.359   9.848
 7798W        W11849   8.645   3.535   2.631
 7799W        W11850   0.482   8.362  10.489
 7800W        W11851   5.621   9.148  11.230
 7801W        W11852   3.114   1.647  11.797
 7802W        W11853   9.689  10.090   0.421
 7803W        W11854   3.508   6.692  10.312
 7804W        W11855   6.914   4.083   8.913
 7805W        W11856   1.321   5.482   0.055
 7806W        W11857   5.854   0.281  11.577
 7807W        W11858   9.572  10.774   1.553
 7808W        W11859   5.234   2.736   9.462
 7809W        W11860   8.464   8.531  10.074
 7810W        W11861   7.739   4.893   3.596
 7811W        W11862   1.373   2.820   1.443
 7812W        W11863  10.625  11.049  11.425
 7813W        W11864  10.312  11.434   8.835
 7814W        W11865   8.029   7.386   9.541
 7815W        W11866  11.301   1.825   0.185
 7816W        W11867   8.022   5.504   1.259
 7817W        W11868   9.593   7.438   3.025
 7818W        W11869   5.494  11.162   0.810
 7819W        W11870   7.433   4.779  11.537
 7820W        W11871   7.651   2.857  11.326
 7821W        W11872   3.920   8.923   3.709
 7822W        W11873   4.755   2.902   9.592
 7823W        W11874   8.961   3.779   0.212
 7824W        W11875   0.847   4.775  11.961
 7825W        W11876   6.221   1.309   3.221
 7826W        W11877  10.540   2.287   0.774
 7827W        W11878  10.127  10.461   3.218
 7828W        W11879   0.690  11.303  10.027
 7829W        W11880   4.765   4.168   2.432
 7830W        W11881  10.307   9.331   0.470
 7831W        W11882   8.059   6.325   3.711
 7832W        W11883   6.762   9.130   2.893
 7833W        W11884   1.476  11.239   1.346
 7834W        W11885   5.328   5.169  10.686
 7835W        W11886  11.497   1.241   2.359
 7836W        W11887   8.508   7.685  10.280
 7837W        W11888   3.373   3.770  11.049
 7838W        W11889   0.672   5.428   8.614
 7839W        W11890   6.816   9.899   2.750
 7840W        W11891   0.632   8.084  10.897
 7841W        W11892   5.934   6.093   1.376
 7842W        W11893   8.584   4.092   8.737
 7843W        W11894   9.637   9.895   2.230
 7844W        W11895   8.655   5.482  10.054
 7845W        W11896   9.110   2.794  10.819
 7846W        W11897   8.059   5.348  10.779
 7847W        W11898  10.401   2.454   9.163
 7848W        W11899   2.689   1.953   9.781
 7849W        W11900   1.115   1.396  11.552
 7850W        W11901   3.614  10.734   9.014
 7851W        W11902   6.371   0.317   1.863
 7852W        W11903   7.088  10.407  10.858
 7853W        W11904   0.754   2.309  11.799
 7854W        W11905   7.956   6.909   0.424
 7855W        W11906   9.998   0.486   0.734
 7856W        W11907   7.057   7.011   3.163
 7857W        W11908   0.363   6.494  10.968
 7858W        W11909   4.081   6.702   8.983
 7859W        W11910   3.352   0.389   8.892
 7860W        W11911   8.164   5.607   3.192
 7861W        W11912   0.009   7.907   0.448
 7862W        W11913   2.305   3.315   9.977
 7863W        W11914   7.478   0.761   9.732
 7864W        W11915   9.155   1.228   1.670
 7865W        W11916  11.320   2.136  11.150
 7866W        W11917   5.658   6.528  11.026
 7867W        W11918   4.922   6.744  11.773
 7868W        W11919   5.628   9.017   1.421
 7869W        W11920   7.022   8.341  11.266
 7870W        W11921   0.576   4.060  10.386
 7871W        W11922   2.647   4.687   9.958
 7872W        W11923   8.612   1.168   3.594
 7873W        W11924   3.720   8.862  10.503
 7874W        W11925   9.027   0.284  10.030
 7875W        W11926   5.878   2.179   0.271
 7876W        W11927   2.473   6.561  10.481
 7877W        W11928   5.865   0.082  10.433
 7878W        W11929   0.329   9.892   9.648
 7879W        W11930   0.869   2.293   8.969
 7880W        W11931  11.442   3.612  10.899
 7881W        W11932   5.638   2.428   2.183
 7882W        W11933   5.956   3.146  10.776
 7883W        W11934   9.396  10.150  11.560
 7884W        W11935   9.913   8.239  11.300
 7885W        W11936   0.404   0.797   9.515
 7886W        W11937   4.671   9.043   2.273
 7887W        W11938   2.317   3.774  10.767
 7888W        W11939   7.752   1.031  10.499
 7889W        W11940  10.908  10.505  10.879
 7890W        W11941   0.189   9.965   1.768
 7891W        W11942   7.916   5.995   0.504
 7892W        W11943   3.072  10.497   9.055
 7893W        W11944  10.155   3.264   0.835
 7894W        W11945   3.326  10.991   9.385
 7895W        W11946   4.534   1.901   9.622
 7896W        W11947  10.963   5.884  10.771
 7897W        W11948   5.346   8.521   3.599
 7898W        W11949   0.517   2.715  11.064
 7899W        W11950   5.566   2.859   8.873
 7900W        W11951  10.234   0.827  11.596
 7901W        W11952  10.523   1.478   8.912
 7902W        W11953   8.185   5.088   1.882
 7903W        W11954   6.008   8.077  11.474
 7904W        W11955   7.596   9.392   9.991
 7905W        W11956   6.698   3.138   1.940
 7906W        W11957  10.702   3.609   3.525
 7907W        W11958   9.624   1.969  10.035
 7908W        W11959   8.898   0.007  11.022
 7909W        W11960   9.573   3.124   2.998
 7910W        W11961   4.152   9.565   8.538
 7911W        W11962   4.349   1.818   0.204
 7912W        W11963  10.428  11.077  10.530
 7913W        W11964   7.666   7.668   2.789
 7914W        W11965   6.357   6.119  11.463
 7915W        W11966   7.625   7.061   9.697
 7916W        W11967   3.593   6.615   1.223
 7917W        W11968  10.959   7.668   9.492
 7918W        W11969   8.617   2.794  11.523
 7919W        W11970   8.871  11.283   9.099
 7920W        W11971  10.290   4.591  11.362
 7921W        W11972   5.351   3.232   3.159
 7922W        W11973   8.910  11.385   1.720
 7923W        W11974   4.061   6.822   1.667
 7924W        W11975   9.806   6.171  11.261
 7925W        W11976   4.185   1.068   3.153
 7926W        W11977   4.076   9.099  11.785
 7927W        W11978   3.771   9.746   0.715
 7928W        W11979  10.985   2.381   9.726
 7929W        W11980   9.281   8.512   8.988
 7930W        W11981  10.039   7.143  11.537
 7931W        W11982   5.275   9.854  10.953
 7932W        W11983   2.643   4.912   0.220
 7933W        W11984   9.537  10.322  10.733
 7934W        W11985   6.580   7.205   4.041
 7935W        W11986   5.917   8.379  10.865
 7936W        W11987   1.310   4.230   3.199
 7937W        W11988   1.715   0.677   2.576
 7938W        W11989   8.658   1.207  10.294
 7939W        W11990   4.253   5.998   2.179
 7940W        W11991   3.295   9.578  10.590
 7941W        W11992  10.979   4.294   1.994
 7942W        W11993   8.985   0.811   3.491
 7943W        W11994   9.710   5.133   9.111
 7944W        W11995   6.703   1.782   1.925
 7945W        W11996   9.134   1.234   2.709
 7946W        W11997   2.789   8.083   0.373
 7947W        W11998   1.280   7.153   0.909
 7948W        W11999   4.942  10.726   8.526
 7949W        W12000  11.290   5.709   0.222
 7950W        W12001   1.269   2.225  11.712
 7951W        W12002   5.300   8.060   8.174
 7952W        W12003   5.775   9.083   2.825
 7953W        W12004   9.318   7.239  11.213
 7954W        W12005   3.523   4.598   9.507
 7955W        W12006  10.997   5.329   9.409
 7956W        W12007  11.369   6.790   8.857
 7957W        W12008   9.151  10.880  11.279
 7958W        W12009  10.580  10.934   0.859
 7959W        W12010  10.561   6.306   9.918
 7960W        W12011  10.425   8.854   0.576
 7961W        W12012   6.603   7.673   3.590
 7962W        W12013   5.044  10.968   1.010
 7963W        W12014   2.279   4.206   0.983
 7964W        W12015   8.131   3.291   2.143
 7965W        W12016  10.133   2.372  11.806
 7966W        W12017   9.089   1.247  10.566
 7967W        W12018   9.032   0.276   9.103
 7968W        W12019   4.702   7.475   2.500
 7969W        W12020   3.346  10.720   2.759
 7970W        W12021   7.555   1.921   1.479
 7971W        W12022   5.759  11.365  11.288
 7972W        W12023   5.637   2.288  10.244
 7973W        W12024   9.885   7.011  10.503
 7974W        W12025   5.929   3.272   9.406
 7975W        W12026   8.875   7.554   2.406
 7976W        W12027   9.406   7.166   1.321
 7977W        W12028   2.174   0.465   2.999
 7978W        W12029   2.830   1.560   1.334
 7979W        W12030   2.328   4.727   9.415
 7980W        W12031   9.174   8.294   9.417
 7981W        W12032   4.134   4.292   3.140
 7982W        W12033   9.550  11.329  10.748
 7983W        W12034   7.960   4.883   9.870
 7984W        W12035   1.278   6.496  10.765
 7985W        W12036   7.898   4.777   0.190
 7986W        W12037   2.029   7.093   1.355
 7987W        W12038   1.012   2.461  10.305
 7988W        W12039   0.837   0.899   2.686
 7989W        W12040   6.124   1.975   0.750
 7990W        W12041   2.740   6.110   2.291
 7991W        W12042  10.460   5.687   2.384
 7992W        W12043   9.933  10.432   0.730
 7993W        W12044   7.480   8.577  11.354
 7994W        W12045   4.464   2.508   1.954
 7995W        W12046  11.217   0.004   1.759
 7996W        W12047   9.566   0.995   9.073
 7997W        W12048   8.905   0.439   0.873
 7998W        W12049   1.381   6.133   1.452
 7999W        W12050   2.255   9.011   9.440
 8000W        W12051  10.503   8.118   0.958
 8001W        W12052   9.392  11.365   0.220
 8002W        W12053   6.604  10.443   1.982
 8003W        W12054   0.382   4.016  11.389
 8004W        W12055  10.287   5.461   7.927
 8005W        W12056  11.316   0.631   9.366
 8006W        W12057   1.806   7.194  11.282
 8007W        W12058   8.690   5.147   1.813
 8008W        W12059  10.044   5.519  10.158
 8009W        W12060   2.236   5.657   1.705
 8010W        W12061   4.191   4.553   4.034
 8011W        W12062   0.714   9.868   1.773
 8012W        W12063   9.331   6.717   1.559
 8013W        W12064   8.155   4.341  10.968
 8014W        W12065   6.019   5.382   3.092
 8015W        W12066   9.849   8.964   1.358
 8016W        W12067  10.129   0.799  11.066
 8017W        W12068   2.414   6.129   9.950
 8018W        W12069   6.085  10.313  11.756
 8019W        W12070   7.657   7.109  10.207
 8020W        W12071   9.395   0.859   3.054
 8021W        W12072   6.433   2.416   9.761
 8022W        W12073   7.639  10.376   2.194
 8023W        W12074   9.055   8.803   9.358
 8024W        W12075   8.628   3.354   0.848
 8025W        W12076   3.584   6.046  11.152
 8026W        W12077   7.049   2.761   3.270
 8027W        W12078   7.914   9.419   1.322
 8028W        W12079   0.316  10.021   2.712
 8029W        W12080   8.261  10.347   3.528
 8030W        W12081   1.815   1.165  10.851
 8031W        W12082   1.790   0.846  10.429
 8032W        W12083   5.136   4.458   8.727
 8033W        W12084   8.857  10.339   2.697
 8034W        W12085   0.871   6.226   3.423
 8035W        W12086   7.484   8.827  11.867
 8036W        W12087   5.984   2.039   3.700
 8037W        W12088   4.226  10.038   9.750
 8038W        W12089  11.328   0.764   0.472
 8039W        W12090   1.824   5.980   1.684
 8040W        W12091   6.397   2.880  10.783
 8041W        W12092   1.728   0.980   1.068
 8042W        W12093   0.348   7.199  10.288
 8043W        W12094   0.811   9.874   2.574
 8044W        W12095   8.415   5.527   0.280
 8045W        W12096   0.797   5.078   0.747
 8046W        W12097   6.407  10.348   2.860
 8047W        W12098   1.753   5.033   3.599
 8048W        W12099  11.108   2.637   3.546
 8049W        W12100   7.897   4.123  10.586
 8050W        W12101   9.378   5.332   8.621
 8051W        W12102   1.162   4.023   8.968
 8052W        W12103   9.445   5.598   2.344
 8053W        W12104   6.066  11.349  11.709
 8054W        W12105   0.861   6.859   0.929
 8055W        W12106   6.055   1.184  11.756
 8056W        W12107   8.182   1.423  10.433
 8057W        W12108   4.755   1.495   0.452
 8058W        W12109   3.696   2.168  10.588
 8059W        W12110   6.997   3.163   1.483
 8060W        W12111  10.996   2.327   3.130
 8061W        W12112   1.325   0.317  11.713
 8062W        W12113   0.865   4.268   0.147
 8063W        W12114   7.507   3.115   9.974
 8064W        W12115   9.851   7.186   9.459
 8065W        W12116  10.543   3.309  10.458
 8066W        W12117   0.825   7.507   0.298
 8067W        W12118   6.882   0.270   1.792
 8068W        W12119  11.069   8.095   2.195
 8069W        W12120   4.899   4.626   9.875
 8070W        W12121   4.314   1.288  11.496
 8071W        W12122  10.458   1.861  10.081
 8072W        W12123   1.192   7.046   3.462
 8073W        W12124   9.854   4.704  11.684
 8074W        W12125   3.129  10.510  11.632
 8075W        W12126   0.059   3.836  11.855
 8076W        W12127   3.807   6.631   3.845
 8077W        W12128   8.598   4.622   0.484
 8078W        W12129   1.895   1.769  11.472
 8079W        W12130   0.013  11.247   0.496
 8080W        W12131   1.229   3.251  10.859
 8081W        W12132   7.928   0.744  11.940
 8082W        W12133   9.601   7.677   9.460
 8083W        W12134   9.252   4.328   2.089
 8084W        W12135   6.102   1.291   9.495
 8085W        W12136   8.756   7.111   0.762
 8086W        W12137   4.944   1.217  11.020
 8087W        W12138   8.219   4.309   9.039
 8088W        W12139   8.861   0.306  10.551
 8089W        W12140   1.928  10.382  10.023
 8090W        W12141   5.495  10.534  11.198
 8091W        W12142   9.005   7.351   0.382
 8092W        W12143   8.272   9.547   0.524
 8093W        W12144   8.964   1.673  10.292
 8094W        W12145   0.391   5.100  11.246
 8095W        W12146   6.652  10.771   2.721
 8096W        W12147   5.996   5.480   0.225
 8097W        W12148   2.327   1.446   1.469
 8098W        W12149   0.781   2.769   0.292
 8099W        W12150   5.957   3.676   9.766
 8100W        W12151   3.594   5.080   2.736
 8101W        W12152   9.495   2.432   9.194
 8102W        W12153  11.377   7.111   2.650
 8103W        W12154   7.533   0.084  10.769
 8104W        W12155   0.263   1.773   2.794
 8105W        W12156   8.899   1.651   3.435
 8106W        W12157   7.036   1.170   1.675
 8107W        W12158   8.330   6.201   2.432
 8108W        W12159   6.957   8.573   0.059
 8109W        W12160  10.476  10.572  10.571
 8110W        W12161   9.145  10.341   9.896
 8111W        W12162   1.512   5.101   1.219
 8112W        W12163   6.859   5.928  10.876
 8113W        W12164   6.934   4.200  10.492
 8114W        W12165   1.844   2.660  10.407
 8115W        W12166   4.654   2.711  10.136
 8116W        W12167   6.487   9.994  10.482
 8117W        W12168   2.459   0.334   9.944
 8118W        W12169   3.751  10.280   3.407
 8119W        W12170   3.045   9.296   0.772
 8120W        W12171  11.096   0.744  10.447
 8121W        W12172   0.446   5.303   1.973
 8122W        W12173   3.588   5.754  10.301
 8123W        W12174   1.728   5.571   3.535
 8124W        W12175   5.215   2.121  10.563
 8125W        W12176   0.226   8.982  11.135
 8126W        W12177   8.119   7.370  10.430
 8127W        W12178   5.817   0.012   1.792
 8128W        W12179   5.946   0.788   9.826
 8129W        W12180   2.369   1.201  10.838
 8130W        W12181   1.720   3.864  11.874
 8131W        W12182   4.616   9.940   0.521
 8132W        W12183   9.411   3.322  10.255
 8133W        W12184   3.670   6.111   1.502
 8134W        W12185   2.915  11.057   0.578
 8135W        W12186   2.701   7.465  10.718
 8136W        W12187   6.047   1.791   3.248
 8137W        W12188   6.186   1.804   8.552
 8138W        W12189   2.030  10.481   2.328
 8139W        W12190   9.360   9.989   3.426
 8140W        W12191  10.461   9.905   9.084
 8141W        W12192   5.687   2.352  11.799
 8142W        W12193   6.799  10.373   0.212
 8143W        W12194   3.069   4.269   3.314
 8144W        W12195  10.001  11.016   1.783
 8145W        W12196   7.349   0.270   2.033
 8146W        W12197   7.784   6.224  11.043
 8147W        W12198   4.285   8.156  11.876
 8148W        W12199   6.410  11.277   9.545
 8149W        W12200   3.176   5.588   9.994
 8150W        W12201   5.372  10.287   9.253
 8151W        W12202   5.772   7.994   0.696
 8152W        W12203   0.613   6.648  10.033
 8153W        W12204   2.797   7.535   8.829
 8154W        W12205   2.112  10.471  11.567
 8155W        W12206   1.526   2.237   9.706
 8156W        W12207   1.465   3.852  10.195
 8157W        W12208   3.768   4.963   9.844
 8158W        W12209   7.983   3.554  11.984
 8159W        W12210   5.448  11.063   2.645
 8160W        W12211   7.922   6.736  11.023
 8161W        W12212   6.638  11.311   9.992
 8162W        W12213   8.387   6.216   1.918
 8163W        W12214  10.446   3.028   8.540
 8164W        W12215  10.815   5.794   9.572
 8165W        W12216  10.421   3.115   1.667
 8166W        W12217   7.770   3.162   0.797
 8167W        W12218   5.157   7.013   0.818
 8168W        W12219   0.449   9.837   9.157
 8169W        W12220   5.094   0.344   2.654
 8170W        W12221   1.816   1.861   3.563
 8171W        W12222   6.052   4.787  11.247
 8172W        W12223   3.733   9.317  10.742
 8173W        W12224   1.239   4.974  11.224
 8174W        W12225   9.831  11.204   2.258
 8175W        W12226   5.338  10.799   9.480
 8176W        W12227   9.882   9.950   0.887
 8177W        W12228   7.606  11.030   1.808
 8178W        W12229   3.797   0.862   2.211
 8179W        W12230   4.143   9.584   1.760
 8180W        W12231   4.094  10.490   8.834
 8181W        W12232   5.837  11.309   1.295
 8182W        W12233  10.113   0.854   1.725
 8183W        W12234   1.044   0.022   0.048
 8184W        W12235  11.476  10.419   0.716
 8185W        W12236   2.333   5.422  11.548
 8186W        W12237  10.437   9.945  10.123
 8187W        W12238   0.971  10.894  10.787
 8188W        W12239  10.496   8.621   9.603
 8189W        W12240   4.283   3.158   1.226
 8190W        W12241   9.067   6.052  10.888
 8191W        W12242   9.392   4.851   8.797
 8192W        W12243  10.991   7.798   9.989
 8193W        W12244   8.940   4.123   8.367
 8194W        W12245   1.318   6.609   1.647
 8195W        W12246   6.037   8.373   9.865
 8196W        W12247   9.118   4.646   9.593
 8197W        W12248   8.181   2.784   9.464
 8198W        W12249   7.717   2.997   1.287
 8199W        W12250   3.319   1.416   1.474
 8200W        W12251   6.989   9.189   9.576
 8201W        W12252   0.817   9.077   8.705
 8202W        W12253   6.156   8.720   0.374
 8203W        W12254   1.476  10.961  10.740
 8204W        W12255   1.792   3.746   2.104
 8205W        W12256   4.855   3.350   3.200
 8206W        W12257  11.454   9.333   2.280
 8207W        W12258   2.674  11.481   0.708
 8208W        W12259   1.428   8.067   0.577
 8209W        W12260   6.857   3.518   2.752
 8210W        W12261   5.656   2.225   0.734
 8211W        W12262   9.799   4.276   9.525
 8212W        W12263   3.314   6.271  11.544
 8213W        W12264   4.001   2.270  10.970
 8214W        W12265   9.371   3.615   0.496
 8215W        W12266   7.515   7.142  11.147
 8216W        W12267   2.048   9.590   2.540
 8217W        W12268   2.941   7.963   8.533
 8218W        W12269   6.669   5.298  11.558
 8219W        W12270  10.919   8.989  11.505
 8220W        W12271   2.683   3.713   2.548
 8221W        W12272   5.058   9.334   1.027
 8222W        W12273   4.562   6.407   8.283
 8223W        W12274  10.106   3.268  11.396
 8224W        W12275   7.918   2.658   0.816
 8225W        W12276   9.427   9.688  11.334
 8226W        W12277  10.458   1.922   0.270
 8227W        W12278   9.649   3.789  10.375
 8228W        W12279   8.411   3.237  11.379
 8229W        W12280  10.872   1.840   1.348
 8230W        W12281   2.529   6.150  11.923
 8231W        W12282   4.263   8.787   2.107
 8232W        W12283   0.376   4.548   1.215
 8233W        W12284   0.723   7.657  11.812
 8234W        W12285   4.547   0.250   2.831
 8235W        W12286   9.076   5.913   1.410
 8236W        W12287   0.448  10.406   3.230
 8237W        W12288   0.739   2.806   8.937
 8238W        W12289   9.126   0.748   8.900
 8239W        W12290   5.330   8.411   2.103
 8240W        W12291  10.303   2.712   1.954
 8241W        W12292  10.473  10.579   0.062
 8242W        W12293   4.987   6.713   8.657
 8243W        W12294   1.265   9.305  10.553
 8244W        W12295   2.642   6.060   2.791
 8245W        W12296   6.370   4.081   1.793
 8246W        W12297   1.642   0.363  10.431
 8247W        W12298   9.583   4.644   1.876
 8248W        W12299   5.717   0.452  10.132
 8249W        W12300   7.121  11.495   0.888
 8250W        W12301   1.461   6.561  10.272
 8251W        W12302   5.935   2.100   9.051
 8252W        W12303   9.030   2.925  11.810
 8253W        W12304   4.330   8.572   1.634
 8254W        W12305  10.381   0.965   0.482
 8255W        W12306   3.118   0.948   3.508
 8256W        W12307   4.392   3.597  11.944
 8257W        W12308   3.692   4.109  11.396
 8258W        W12309   0.190  10.346  11.904
 8259W        W12310   8.479  11.426  11.713
 8260W        W12311   6.512   4.831   1.407
 8261W        W12312   2.420   0.301  10.838
 8262W        W12313  10.556   6.585   3.495
 8263W        W12314   1.536   5.083   0.305
 8264W        W12315  10.998   7.989   1.246
 8265W        W12316   2.679   0.967   2.728
 8266W        W12317   6.599   1.079   2.912
 8267W        W12318   5.571   7.590  10.433
 8268W        W12319   8.373   5.719  10.546
 8269W        W12320   9.419   9.141   9.441
 8270W        W12321   5.215   4.195   9.950
 8271W        W12322   4.102   0.974   0.718
 8272W        W12323  10.619   5.128  10.408
 8273W        W12324  10.432  11.480   0.230
 8274W        W12325   9.001   0.799  10.317
 8275W        W12326   2.267   6.158   0.966
 8276W        W12327   1.845   4.104  11.435
 8277W        W12328   6.960   7.478   2.309
 8278W        W12329   1.061   7.523   9.859
 8279W        W12330   2.626   6.914  11.715
 8280W        W12331   3.088   6.296   2.882
 8281W        W12332  11.022  10.821   1.202
 8282W        W12333   9.844   3.677   9.030
 8283W        W12334   8.776   6.362  11.220
 8284W        W12335   6.042   4.147   1.421
 8285W        W12336   0.307   6.024   3.595
 8286W        W12337   5.008   2.177  11.045
 8287W        W12338  10.778   0.383  10.303
 8288W        W12339   8.328   5.778   8.887
 8289W        W12340   4.812   4.880  11.484
 8290W        W12341   4.674   7.506   1.386
 8291W        W12342   2.248   4.168  11.103
 8292W        W12343   7.250   5.087   0.280
 8293W        W12344   9.367   7.256   9.286
 8294W        W12345   6.867  10.058   8.614
 8295W        W12346   7.123   2.878  11.266
 8296W        W12347   1.866   0.048   1.467
 8297W        W12348   9.643  11.208   0.669
 8298W        W12349   4.410   7.030  11.325
 8299W        W12350   8.908   5.604   0.403
 8300W        W12351  11.237   6.220   0.989
 8301W        W12352   5.518   8.889  11.649
 8302W        W12353   7.460   5.275  11.436
 8303W        W12354   7.405   9.288  10.958
 8304W        W12355   1.016   9.058   0.913
 8305W        W12356   0.173   3.539   1.073
 8306W        W12357   8.122   5.188  11.978
 8307W        W12358  10.327   4.754   0.478
 8308W        W12359   5.924  11.431   0.796
 8309W        W12360   5.661   4.681   8.759
 8310W        W12361   5.506   3.849  11.864
 8311W        W12362   2.832   8.777  10.563
 8312W        W12363   5.192   4.583   2.726
 8313W        W12364  10.365   2.950   0.357
 8314W        W12365   3.838   5.382   2.107
 8315W        W12366  10.345  10.137  11.841
 8316W        W12367   3.350   3.890   0.517
 8317W        W12368   6.641   0.263   9.727
 8318W        W12369  10.931   8.169   9.584
 8319W        W12370   2.377  11.029   9.577
 8320W        W12371   6.492   8.514   0.719
 8321W        W12372   5.073   6.093  10.848
 8322W        W12373   8.245   4.877  10.976
 8323W        W12374   9.280   6.173   0.984
 8324W        W12375   7.544  10.778   8.688
 8325W        W12376   3.336   5.493   2.947
 8326W        W12377   9.892   1.219  10.027
 8327W        W12378   2.779   2.844   2.453
 8328W        W12379   4.398  10.362   1.494
 8329W        W12380   9.510   8.035   1.301
 8330W        W12381   3.912   6.575   0.764
 8331W        W12382   3.370   5.695   8.283
 8332W        W12383   6.981   6.029   0.741
 8333W        W12384   0.830   5.079   9.542
 8334W        W12385   9.773   6.187   1.873
 8335W        W12386   1.361   0.470   9.537
 8336W        W12387   5.051   8.178   0.466
 8337W        W12388  10.465   4.464   1.884
 8338W        W12389   9.462  11.492  10.252
 8339W        W12390   8.891  10.435   1.654
 8340W        W12391   1.929   6.631  10.506
 8341W        W12392   8.972   2.559   9.896
 8342W        W12393   8.552   9.835   9.327
 8343W        W12394  10.695   3.735  10.164
 8344W        W12395   3.263   0.547   3.228
 8345W        W12396   0.848   2.288   2.722
 8346W        W12397   9.268   8.450   3.572
 8347W        W12398   6.174   9.315  11.761
 8348W        W12399   1.105  11.422   2.276
 8349W        W12400   5.210   3.608   3.506
 8350W        W12401   0.237   9.087   2.620
 8351W        W12402   5.715   1.249   9.852
 8352W        W12403   1.693   4.559  10.097
 8353W        W12404   5.783   0.396   3.502
 8354W        W12405   4.543   2.731   9.148
 8355W        W12406   1.748   9.428  10.526
 8356W        W12407   7.675   6.475   3.384
 8357W        W12408   9.282   9.381   9.007
 8358W        W12409   5.072   4.577   1.736
 8359W        W12410   3.274   6.182   9.323
 8360W        W12411   7.814   4.604  11.245
 8361W        W12412   3.822   5.774   0.705
 8362W        W12413   1.265   5.894   3.480
 8363W        W12414   7.081   2.656  11.968
 8364W        W12415   1.772   7.386   3.993
 8365W        W12416   4.668   8.857  10.497
 8366W        W12417   9.086   1.675   1.942
 8367W        W12418   8.343   4.351   0.858
 8368W        W12419   2.665   0.224   1.705
 8369W        W12420  10.514   8.666   3.180
 8370W        W12421   1.407   7.118   2.433
 8371W        W12422   2.384   4.855   2.816
 8372W        W12423  10.457   5.806   9.967
 8373W        W12424   4.227   4.272   8.800
 8374W        W12425   1.987   4.620   1.042
 8375W        W12426   5.103   7.213   1.375
 8376W        W12427   2.357   1.890   2.203
 8377W        W12428   8.909   5.075  10.303
 8378W        W12429   4.078   5.302  10.096
 8379W        W12430   8.339   3.855   2.338
 8380W        W12431   9.378   9.353  10.924
 8381W        W12432   4.811   7.747   0.565
 8382W        W12433   1.329   4.613   1.225
 8383W        W12434   8.543   9.564  11.536
 8384W        W12435   2.255   1.485   3.390
 8385W        W12436   3.249   0.125   2.928
 8386W        W12437   7.492   8.463   9.352
 8387W        W12438   1.369   7.089  10.027
 8388W        W12439   8.535   0.312  11.396
 8389W        W12440   7.162  11.317   1.825
 8390W        W12441  11.433   4.822   9.085
 8391W        W12442   0.297   9.908  10.161
 8392W        W12443   5.066   1.671  10.760
 8393W        W12444   1.929   6.148   8.926
 8394W        W12445   7.175   0.019   9.081
 8395W        W12446   7.417   4.353  10.602
 8396W        W12447   2.779   3.279   9.240
 8397W        W12448   6.210   2.865   0.438
 8398W        W12449   8.480   0.169   0.979
 8399W        W12450   2.167   0.416  11.294
 8400W        W12451   3.297   3.849   9.630
 8401W        W12452   6.393   3.355  10.627
 8402W        W12453   0.348   9.522   1.976
 8403W        W12454   0.938   5.997   1.665
 8404W        W12455   1.343   0.972   9.580
 8405W        W12456   1.364   5.084  10.725
 8406W        W12457   7.513   0.264   9.647
 8407W        W12458   3.748   8.522   8.721
 8408W        W12459   4.197  10.940   0.740
 8409W        W12460   9.193   1.375   0.691
 8410W        W12461   2.367   5.274   2.491
 8411W        W12462   2.752   8.019   3.160
 8412W        W12463   6.141   3.454  11.143
 8413W        W12464   4.153   0.883   9.152
 8414W        W12465   5.988   7.245   3.186
 8415W        W12466  10.546   6.012  11.817
 8416W        W12467   3.354  11.399   8.707
 8417W        W12468   7.497   8.601   1.841
 8418W        W12469   1.228  10.437   0.504
 8419W        W12470   6.546   9.593  11.515
 8420W        W12471   9.102   2.455   0.699
 8421W        W12472   3.112   0.672  11.034
 8422W        W12473   8.583   0.707   8.999
 8423W        W12474   1.586   7.611   2.288
 8424W        W12475  11.475   6.513  10.564
 8425W        W12476   7.689   1.808   1.978
 8426W        W12477   7.175   1.206  11.772
 8427W        W12478   4.681   2.860   3.567
 8428W        W12479   6.803   0.382   8.965
 8429W        W12480   2.757   7.394   9.822
 8430W        W12481   0.391   4.993  10.736
 8431W        W12482  10.837  11.414  10.504
 8432W        W12483   1.285   3.297   3.136
 8433W        W12484  10.856   0.844   9.551
 8434W        W12485   8.425   2.454   9.072
 8435W        W12486   1.340   6.214   1.979
 8436W        W12487   7.801   6.105   8.837
 8437W        W12488   9.906   7.195   1.893
 8438W        W12489   9.532   3.886   8.594
 8439W        W12490   6.372   2.056   4.076
 8440W        W12491   2.923   8.419  11.890
 8441W        W12492   9.422   1.669   3.358
 8442W        W12493  10.848  10.086   0.914
 8443W        W12494   3.157   6.656   2.544
 8444W        W12495   4.810  10.313   1.820
 8445W        W12496   3.221  10.062   9.857
 8446W        W12497   5.997  10.995   1.966
 8447W        W12498   3.167   0.325   0.980
 8448ION    NA+12499   2.195   0.093   1.892
 8449ION    NA+12500   3.672   7.538   1.116
 8450ION    NA+12501   9.644   3.936  11.236
 8451ION    NA+12502   3.095   8.845   1.563
 8452ION    NA+12503   9.442   4.681  10.600
 8453ION    NA+12504   2.220   6.599   2.143
 8454ION    NA+12505   4.802   3.794  11.707
 8455ION    NA+12506   7.468   1.270   3.640
 8456ION    NA+12507  11.496   8.478  10.400
 8457ION    NA+12508   6.176   8.182   2.212
 8458ION    NA+12509   9.572   8.362  11.875
 8459ION    NA+12510   9.479   6.087   0.215
 8460ION    NA+12511   3.377   5.696   1.645
 8461ION    NA+12512   9.315   0.919  11.716
 8462ION    NA+12513   5.244   4.976   2.069
 8463ION    NA+12514  11.443   5.190  10.599
 8464ION    NA+12515   7.398   3.520   2.177
 8465ION    NA+12516   7.966  10.488   9.348
 8466ION    NA+12517   0.274   7.404   8.908
 8467ION    NA+12518   9.421   6.454   9.554
 8468ION    NA+12519   2.145   8.167   9.740
 8469ION    NA+12520   7.612   2.177   8.781
 8470ION    NA+12521   8.091   2.585   3.876
 8471ION    NA+12522   8.861  10.955   9.494
 8472ION    NA+12523   5.247   6.352  11.294
 8473ION    NA+12524   0.557   7.488   9.756
 8474ION    NA+12525   9.127  10.677   0.803
 8475ION    NA+12526   3.832   4.013  10.152
 8476ION    NA+12527   9.381   7.739  11.253
 8477ION    NA+12528   3.912   2.172   1.706
 8478ION    NA+12529   4.833   0.954   2.142
 8479ION    NA+12530   1.266   5.047  11.803
 8480ION    NA+12531   0.963  11.194   8.979
 8481ION    NA+12532   8.785   8.383  11.733
 8482ION    NA+12533   0.882   4.005   3.026
 8483ION    NA+12534   7.079   1.359   2.684
 8484ION    NA+12535   5.077   2.099  11.945
 8485ION    NA+12536   4.152   0.732  10.403
 8486ION    NA+12537  10.589   0.103   1.486
 8487ION    NA+12538   5.603   7.577   2.449
 8488ION    NA+12539  11.158   0.490   2.687
 8489ION    NA+12540   4.234   3.956   0.592
 8490ION    NA+12541   6.030   9.450   2.542
 8491ION    NA+12542   3.202   2.364   0.429
 8492ION    NA+12543   1.508   2.219   8.877
 8493ION    NA+12544   3.043   8.923  11.863
 8494ION    NA+12545   4.201   1.774   2.577
 8495ION    NA+12546   8.544   6.834   9.848
 8496ION    NA+12547   7.516   9.557   1.021
 8497ION    NA+12548   7.429   0.858   0.081
 8498ION    NA+12549   1.837   4.129   1.275
 8499ION    NA+12550   7.955   6.371  10.580
 8500ION    NA+12551   3.091   5.832   2.618
 8501ION    NA+12552   5.345   1.709   2.195
 8502ION    NA+12553   0.244   4.379  11.704
 8503ION    NA+12554   3.050   8.286   0.883
 8504ION    NA+12555   7.127   1.687   1.658
 8505ION    NA+12556   3.069  11.037   8.001
 8506ION    NA+12557   8.180   1.095   2.898
 8507ION    NA+12558   4.039   8.424   0.833
 8508ION    NA+12559   9.274   0.064   0.947
 8509ION    NA+12560   3.577   2.105   3.647
 8510ION    NA+12561   5.365  10.104  11.418
 8511ION    NA+12562   7.948   5.110   3.164
 8512ION    NA+12563  11.382   7.928  11.968
 8513ION    NA+12564   9.341   0.754   9.930
 8514ION    NA+12565  11.432  11.067  11.983
 8515ION    NA+12566  11.045   6.513  10.176
 8516ION    NA+12567   5.750   2.808   9.540
 8517ION    NA+12568   6.692   9.167   8.791
 8518ION    NA+12569   0.998   5.100   1.230
 8519ION    NA+12570   7.552   0.245  11.301
 8520ION    NA+12571   0.414   0.425   9.119
 8521ION    NA+12572   2.349   7.768   8.547
 8522ION    NA+12573   8.982   3.297   0.441
 8523ION    NA+12574   9.602   1.526   2.452
 8524ION    NA+12575  10.482   7.698   9.843
 8525ION    NA+12576  10.510   4.164   0.725
 8526ION    NA+12577   7.440   8.684   8.885
 8527ION    NA+12578   0.578   1.501  11.499
 8528ION    NA+12579   9.757  10.137  11.165
 8529ION    NA+12580  10.336  11.012   0.385
 8530ION    NA+12581   9.553   1.485   9.272
 8531ION    NA+12582   0.053   1.858  10.730
 8532ION    NA+12583   8.591   4.533   2.660
 8533ION    NA+12584   1.807  11.208   0.430
 8534ION    NA+12585   2.650   3.412  10.356
 8535ION    NA+12586   8.507   0.180   9.869
 8536ION    NA+12587   5.135   3.389   8.261
 8537ION    CL-12588   2.822   4.610   2.956
 8538ION    CL-12589   4.696   3.254   8.269
 8539ION    CL-12590   0.380   2.358   3.518
 8540ION    CL-12591   1.213  11.345  11.528
 8541ION    CL-12592  10.027   4.144   3.503
 8542ION    CL-12593  11.138  11.426  10.914
 8543ION    CL-12594   5.810  10.107  11.365
 8544ION    CL-12595   9.146   3.744  10.382
 8545ION    CL-12596   9.471  10.491  11.207
 8546ION    CL-12597   0.088   0.592  10.319
 8547ION    CL-12598   2.808   5.106  11.760
 8548ION    CL-12599   5.089   1.335   2.128
 8549ION    CL-12600   3.539  10.686   3.630
 8550ION    CL-12601  11.246   4.084   1.545
 8551ION    CL-12602   1.516   7.652  11.364
 8552ION    CL-12603   0.359   1.528  10.852
 8553ION    CL-12604   6.397   9.308   2.330
 8554ION    CL-12605   0.306  10.517  10.898
 8555ION    CL-12606   4.580   3.960  10.350
 8556ION    CL-12607   6.228   9.334  10.152
 8557ION    CL-12608   0.703   0.066   9.104
 8558ION    CL-12609   2.660   2.200  10.854
 8559ION    CL-12610   7.721   1.731   8.768
 8560ION    CL-12611   9.514   1.902   2.221
 8561ION    CL-12612   9.056   1.186  11.469
 8562ION    CL-12613   0.856   8.788  11.559
 8563ION    CL-12614   8.308   0.694   2.742
 8564ION    CL-12615   9.372  10.823   3.602
 8565ION    CL-12616  11.434   0.836   2.723
 8566ION    CL-12617   8.272   4.621  11.464
 8567ION    CL-12618   2.511   9.856   9.474
 8568ION    CL-12619   8.600   3.077   0.383
 8569ION    CL-12620   9.387   2.890   9.920
 8570ION    CL-12621   4.757   7.231   2.934
 8571ION    CL-12622   9.162   8.590  11.929
 8572ION    CL-12623   8.594   8.125  11.403
 8573ION    CL-12624   6.120   7.404   0.231
 8574ION    CL-12625  10.511   2.156   3.071
 8575ION    CL-12626  11.222   9.423   0.749
 8576ION    CL-12627   1.752   4.962   4.102
 8577ION    CL-12628   0.509   1.839  11.790
 8578ION    CL-12629   8.625  11.266   9.723
 8579ION    CL-12630   1.937  10.180   3.392
 8580ION    CL-12631   8.555   2.125  11.015
 8581ION    CL-12632  11.463   1.439   0.527
 8582ION    CL-12633   2.782  11.059   3.093
 8583ION    CL-12634   8.066   7.909  10.432
 8584ION    CL-12635  10.092   9.870  11.008
 8585ION    CL-12636   4.171   0.059   8.369
 8586ION    CL-12637   0.315   6.750   1.625
 8587ION    CL-12638   5.782   7.976   2.312
 8588ION    CL-12639   7.396   7.053   1.675
 8589ION    CL-12640   1.299   2.248   9.270
 8590ION    CL-12641   9.694   3.493  11.181
 8591ION    CL-12642   5.870  10.368  10.038
 8592ION    CL-12643   2.062  11.082   8.709
 8593ION    CL-12644   4.085   4.074   0.999
 8594ION    CL-12645   0.406  10.517   0.957
 8595ION    CL-12646   3.083   8.486   1.290
 8596ION    CL-12647   9.196  11.119   0.896
 8597ION    CL-12648  10.401   3.983   2.070
 8598ION    CL-12649  10.824   1.190  10.562
 8599ION    CL-12650   4.709   7.857   1.751
 8600ION    CL-12651   5.626   3.239  11.294
 8601ION    CL-12652  10.525   7.028   0.449
 8602ION    CL-12653   2.748   3.832  10.465
 8603ION    CL-12654   4.829   1.308   8.905
 8604ION    CL-12655   0.013   7.698   8.454
 8605ION    CL-12656   6.925   9.289  11.269
 8606ION    CL-12657   9.827   8.543   9.861
 8607ION    CL-12658   5.946   7.018   9.813
 8608ION    CL-12659   4.250   0.551  10.007
 8609ION    CL-12660   9.568   7.991  11.583
 8610ION    CL-12661   0.352   7.446   9.357
 8611ION    CL-12662   8.076   7.372   2.819
 8612ION    CL-12663   1.653   6.525   9.426
 8613ION    CL-12664   7.024   8.847   8.768
 8614ION    CL-12665   2.125  10.907   0.343
 8615ION    CL-12666   9.583   4.386   2.480
 8616ION    CL-12667   5.501   6.018  11.142
 8617ION    CL-12668   4.834   5.240  10.819
 8618ION    CL-12669   7.079   0.679   0.293
 8619ION    CL-12670   0.620   8.100   3.179
 8620ION    CL-12671  11.181   2.119  10.665
 8621ION    CL-12672   4.218   9.616   0.503
 8622ION    CL-12673   0.993  10.074   9.136
 8623ION    CL-12674   6.508   4.450  11.956
 8624ION    CL-12675   0.453   8.582   1.462
 8625ION    CL-12676   6.758   7.563  10.086
  11.50000  11.50000  12.00000
