Protein in INSANE! Membrane UpperLeaflet>POPC=1.0 LowerLeaflet>POPC=1.0
11530
    1AU     AUC    1   9.719   8.813   5.396 -0.0186  0.0047 -0.0311
    1AU     AUC    2   9.554   9.057   5.271 -0.0008 -0.0137 -0.1571
    1AU     AUC    3   9.455   8.724   5.197 -0.0322  0.0288  0.1267
    1AU     AUC    4   9.986   8.877   5.553  0.0634 -0.0075  0.0096
    1AU     AUC    5   9.912   8.537   5.499 -0.0652  0.0075 -0.0156
    1AU     AUC    6  10.007   8.739   5.260  0.0216 -0.0359 -0.0149
    1AU     AUC    7   9.735   8.863   5.082 -0.0071 -0.0208 -0.0070
    1AU     AUC    8   9.711   8.743   5.713 -0.0163 -0.0700 -0.0734
    1AU     AUC    9   9.442   8.862   5.500 -0.0555 -0.0459  0.0032
    1AU     AUC   10   9.557   8.558   5.451 -0.1147 -0.0332 -0.0807
    1AU     AUC   11   9.732   8.530   5.183  0.0524 -0.0190  0.0038
    1AU     AUC   12   9.705   9.060   5.575 -0.0193 -0.0835  0.0265
    1AU     AUC   13   9.878   9.066   5.301 -0.0237  0.0025 -0.0673
    1AU     AUC   14   9.366   9.310   5.131 -0.0485  0.0500  0.0008
    1AU     AUC   15   9.236   8.992   5.046 -0.0374 -0.0609  0.0265
    1AU     AUC   16   9.175   8.641   4.995  0.0248  0.0443 -0.0599
    1AU     AUC   17  10.278   8.974   5.724  0.0127  0.0557  0.0463
    1AU     AUC   18  10.212   8.587   5.656  0.0069 -0.1131  0.0294
    1AU     AUC   19  10.085   8.275   5.623 -0.0614  0.0827 -0.1192
    1AU     AUC   20  10.284   8.683   5.072 -0.0045 -0.0383 -0.0000
    1AU     AUC   21  10.039   8.831   4.874  0.0527 -0.0505 -0.0494
    1AU     AUC   22   9.774   8.934   4.737  0.0372 -0.0193 -0.0377
    1AU     AUC   23   9.724   8.706   6.064  0.0277  0.0483 -0.0528
    1AU     AUC   24   9.398   8.766   5.892 -0.0420 -0.0190 -0.0560
    1AU     AUC   25   9.129   8.904   5.665  0.0739  0.0126  0.0327
    1AU     AUC   26   9.338   8.299   5.562 -0.0224 -0.0510  0.0331
    1AU     AUC   27   9.520   8.225   5.315 -0.0159  0.0238  0.0711
    1AU     AUC   28   9.754   8.261   5.009 -0.0165 -0.0760  0.0855
    1AU     AUC   29   9.638   9.346   5.779  0.0472 -0.1372 -0.0690
    1AU     AUC   30   9.860   9.381   5.502  0.0220 -0.0056  0.0404
    1AU     AUC   31  10.010   9.391   5.166  0.0438 -0.0218  0.0505
    1AU     AUC   32   9.238   8.442   5.287 -0.0494 -0.0403  0.0046
    1AU     AUC   33   9.448   8.406   4.980  0.0484 -0.0122 -0.0335
    1AU     AUC   34   9.475   9.309   5.491  0.0389  0.0568  0.1176
    1AU     AUC   35   9.653   9.406   5.149  0.0596  0.0816 -0.0675
    1AU     AUC   36   9.693   8.241   5.638 -0.0217  0.0078 -0.1137
    1AU     AUC   37   9.901   8.244   5.305 -0.0114  0.0208 -0.0137
    1AU     AUC   38  10.016   9.189   5.737 -0.0111  0.0601  0.0069
    1AU     AUC   39  10.199   9.205   5.463 -0.0083  0.0623  0.0560
    1AU     AUC   40   9.553   9.113   4.910  0.0078 -0.0273  0.0014
    1AU     AUC   41   9.481   8.727   4.842 -0.0015  0.0547  0.0465
    1AU     AUC   42  10.311   8.820   5.370 -0.0004  0.0264 -0.0143
    1AU     AUC   43  10.226   8.442   5.320 -0.1029 -0.0036 -0.0033
    1AU     AUC   44   9.218   9.105   5.409  0.1433  0.0252 -0.0503
    1AU     AUC   45   9.122   8.801   5.322  0.0229 -0.0959  0.0997
    1AU     AUC   46  10.039   8.846   5.890  0.0773  0.0154 -0.0468
    1AU     AUC   47   9.909   8.498   5.843  0.0615 -0.0459 -0.1062
    1AU     AUC   48  10.102   8.479   4.999 -0.0077 -0.0665 -0.0087
    1AU     AUC   49   9.792   8.564   4.841  0.0414 -0.0288  0.0326
    1AU     AUC   50   9.510   8.494   5.817 -0.0605  0.0107  0.0789
    1AU     AUC   51   9.190   8.582   5.627 -0.0003  0.0188 -0.0999
    1AU     AUC   52  10.164   9.045   5.152 -0.0032 -0.0106  0.0278
    1AU     AUC   53   9.862   9.208   4.955 -0.0025 -0.0494  0.0330
    1AU     AUC   54   9.714   9.007   5.949 -0.0324 -0.0426 -0.0829
    1AU     AUC   55   9.421   9.112   5.773 -0.0347  0.0779 -0.0645
    1AU    AUSL   56   9.053   8.239   5.003 -0.0699  0.0692  0.0394
    1AU    AUSL   57   8.884   8.314   5.447 -0.0011  0.0415  0.0865
    1AU     AUL   58   8.710   8.289   5.050  0.0713 -0.0330 -0.0255
    1AU       S   59   8.502   8.453   5.496 -0.1121 -0.4686 -0.1586
    1AU     LIG   60   8.057   8.474   5.560 -0.5038  0.0501 -0.2124
    1AU     LIG   61   7.675   8.169   5.608  0.0684  0.1875 -0.0688
    1AU       S   62   8.892   7.893   5.168  0.4617  0.2226  0.0877
    1AU     LIG   63   8.504   7.948   5.508  0.0103  0.2708  0.1211
    1AU     LIG   64   8.439   7.980   6.001 -0.2583 -0.1479 -0.0566
    1AU    AUSL   65   9.268   8.121   5.372 -0.0120  0.0798 -0.0078
    1AU    AUSL   66   9.632   7.875   5.219 -0.0521 -0.0004  0.0301
    1AU     AUL   67   9.317   7.728   5.200 -0.0409 -0.0766 -0.0928
    1AU       S   68   9.023   7.884   5.526  0.0295  0.2635  0.3151
    1AU     LIG   69   8.907   7.775   5.772  0.2751  0.0398 -0.3922
    1AU     LIG   70   8.741   7.602   6.205  0.0456  0.3450 -0.1479
    1AU       S   71   9.540   7.421   5.639  0.2045 -0.0077  0.1230
    1AU     LIG   72   9.316   7.093   5.485 -0.2153  0.2030  0.0873
    1AU     LIG   73   9.401   6.699   5.341  0.1527 -0.2553  0.0484
    1AU    AUSL   74   9.489   8.203   4.996 -0.1188 -0.0292 -0.0329
    1AU    AUSL   75   9.260   8.373   4.633 -0.0238  0.0214  0.0531
    1AU     AUL   76   9.235   8.008   4.832  0.0840  0.0388 -0.0426
    1AU       S   77   9.651   7.696   4.775 -0.1012 -0.1253  0.1990
    1AU     LIG   78   9.617   7.353   5.020  0.0306  0.2702  0.2909
    1AU     LIG   79   9.753   6.985   5.052  0.3573 -0.3290  0.2819
    1AU       S   80   9.284   8.137   4.357  0.1675  0.0006  0.0674
    1AU     LIG   81   8.824   8.035   4.556 -0.2459 -0.0851  0.0124
    1AU     LIG   82   8.394   7.993   4.789 -0.8024 -0.3901  0.3498
    1AU    AUSL   83   9.430   9.628   5.181 -0.0879 -0.0678 -0.0107
    1AU    AUSL   84   9.816   9.642   4.915 -0.0322 -0.0270  0.0054
    1AU     AUL   85   9.583   9.886   5.040 -0.0357 -0.0231 -0.0453
    1AU       S   86   9.442  10.126   5.445  0.4303  0.3389  0.2299
    1AU     LIG   87   9.776  10.426   5.401  0.0031 -0.0723  0.2565
    1AU     LIG   88   9.857  10.666   5.761  0.1937 -0.2667  0.1027
    1AU       S   89   9.848   9.899   4.621 -0.0643 -0.1194 -0.2188
    1AU     LIG   90  10.054  10.091   4.995  0.0340 -0.3639  0.0115
    1AU     LIG   91  10.278  10.191   5.356 -0.0763  0.3110  0.6260
    1AU    AUSL   92   9.556   9.647   5.609 -0.0223  0.0725  0.0135
    1AU    AUSL   93   9.247   9.338   5.442  0.0279 -0.0214  0.0462
    1AU     AUL   94   9.190   9.720   5.443 -0.0955  0.0853  0.0419
    1AU       S   95   8.947   9.758   5.960 -0.0673  0.2112 -0.5448
    1AU     LIG   96   8.983  10.169   5.979  0.1434 -0.2001  0.2088
    1AU     LIG   97   8.737  10.394   5.779 -0.1784  0.0732 -0.0808
    1AU       S   98   9.443   9.975   5.710  0.0006 -0.1222  0.0430
    1AU     LIG   99   9.846  10.146   5.873  0.1050  0.3399 -0.4067
    1AU     LIG  100  10.225  10.359   6.068 -0.0667 -0.0176 -0.0770
    1AU    AUSL  101   9.848   9.500   5.323 -0.0193  0.0168  0.0557
    1AU    AUSL  102   9.962   9.635   5.743  0.0443  0.0873  0.0515
    1AU     AUL  103   9.841   9.848   5.438  0.0236 -0.0320 -0.0995
    1AU       S  104  10.251   9.853   5.858 -0.1604  0.0176 -0.1630
    1AU     LIG  105  10.101   9.905   6.355 -0.0542 -0.4302 -0.1122
    1AU     LIG  106  10.426   9.943   6.757 -0.3300  0.1925  0.1892
    1AU       S  107   9.327  10.254   5.637 -0.1557  0.3688  0.4741
    1AU     LIG  108   9.307  10.615   5.639  0.1790 -0.0260  0.1521
    1AU     LIG  109   9.241  10.948   5.326  0.1648 -0.0653 -0.1228
    1AU    AUSL  110   9.913   8.042   5.528  0.0206  0.0045  0.0072
    1AU    AUSL  111   9.973   8.094   5.053  0.0154  0.0829  0.1420
    1AU     AUL  112   9.948   7.780   5.230 -0.0023 -0.0095  0.0483
    1AU       S  113   9.703   7.474   5.478  0.1092 -0.0072 -0.5899
    1AU     LIG  114   9.821   6.965   5.567  0.2912 -0.0358 -0.1055
    1AU     LIG  115  10.165   6.669   5.778 -0.0517  0.0226 -0.0946
    1AU       S  116  10.426   7.793   5.003 -0.1541  0.0537 -0.0269
    1AU     LIG  117  10.202   7.604   4.808  0.1867 -0.0832 -0.0057
    1AU     LIG  118  10.085   7.216   4.728 -0.0600  0.0440 -0.0188
    1AU    AUSL  119   9.504   7.883   5.647  0.0793 -0.0321 -0.0435
    1AU    AUSL  120   9.868   8.043   5.966  0.0622  0.1835  0.0351
    1AU     AUL  121   9.937   7.812   5.736  0.0433  0.0464 -0.0426
    1AU       S  122   9.713   7.873   6.163 -0.2592  0.0405  0.3412
    1AU     LIG  123  10.035   7.559   6.246  0.0295 -0.2532 -0.0577
    1AU     LIG  124  10.461   7.532   6.410 -0.4827 -0.2043  0.2713
    1AU       S  125   9.481   7.650   5.658 -0.1593 -0.5840  0.0859
    1AU     LIG  126   9.277   7.601   6.117 -0.0423  0.2957 -0.4068
    1AU     LIG  127   9.232   7.515   6.517 -0.2943  0.2472  0.0830
    1AU    AUSL  128  10.294   9.372   5.731 -0.0166  0.0844  0.0946
    1AU    AUSL  129   9.855   9.272   5.949  0.0123  0.0529 -0.0291
    1AU     AUL  130  10.000   9.491   6.094 -0.0822  0.0314 -0.0096
    1AU       S  131  10.441   9.616   5.988  0.0206 -0.2477  0.0392
    1AU     LIG  132  10.838   9.552   6.009 -0.1625 -0.3348 -0.0684
    1AU     LIG  133  11.066   9.827   6.247 -0.2373  0.2299  0.0644
    1AU       S  134  10.249   9.402   6.481 -0.0909  0.0892 -0.2378
    1AU     LIG  135  10.458   9.389   6.889 -0.0222 -0.0154  0.3620
    1AU     LIG  136  10.685   9.415   7.305  0.0142 -0.2686 -0.3576
    1AU    AUSL  137  10.241   9.660   5.355 -0.0257  0.1189 -0.0514
    1AU    AUSL  138  10.612   9.142   5.525 -0.0859 -0.1279 -0.0503
    1AU     AUL  139  10.530   9.571   5.522  0.0031  0.0267  0.0899
    1AU       S  140  10.920   9.272   5.531  0.2482 -0.0436  0.0472
    1AU     LIG  141  10.988   9.720   5.593  0.2281  0.1648  0.2068
    1AU     LIG  142  11.057  10.063   5.624 -0.1993  0.0840 -0.2034
    1AU       S  143  10.493   9.927   5.832  0.2967  0.7504 -0.0630
    1AU     LIG  144  10.651  10.299   5.781  0.1775  0.4041 -0.0305
    1AU     LIG  145  10.854  10.438   5.383 -0.0187 -0.4352  0.1807
    1AU    AUSL  146   9.466   9.022   4.518 -0.0099 -0.0287  0.0243
    1AU    AUSL  147   9.441   9.501   4.756  0.0455 -0.0178 -0.0734
    1AU     AUL  148   9.420   9.333   4.397  0.0201  0.0096  0.0660
    1AU       S  149   9.509   9.814   4.536  0.1717 -0.1203  0.3901
    1AU     LIG  150   9.302  10.151   4.709  0.2225 -0.0979  0.0034
    1AU     LIG  151   9.374  10.414   5.046  0.2579 -0.2033 -0.5443
    1AU       S  152   8.820   8.689   4.381  0.0890  0.3613 -0.3344
    1AU     LIG  153   8.254   8.462   4.406  0.1613  0.0938 -0.0385
    1AU     LIG  154   8.064   8.125   4.400  0.2794 -0.2014  0.1519
    1AU    AUSL  155   9.275   9.153   4.927  0.0283 -0.0519  0.0663
    1AU    AUSL  156   8.875   8.972   4.936  0.0499  0.0582  0.0102
    1AU     AUL  157   9.031   9.254   4.677  0.0205  0.0057  0.0258
    1AU       S  158   8.907   8.888   4.423 -0.0995 -0.0126  0.0255
    1AU     LIG  159   8.461   9.039   4.519  0.3227  0.0502  0.1098
    1AU     LIG  160   8.109   8.944   4.336  0.3626 -0.0228 -0.1963
    1AU       S  161   8.620   9.178   4.933 -0.1747  0.1547  0.1049
    1AU     LIG  162   8.571   9.614   4.607  0.1994 -0.2960 -0.0885
    1AU     LIG  163   8.259   9.898   4.458  0.1007 -0.0577 -0.3248
    1AU    AUSL  164   9.203   8.759   4.776 -0.0314 -0.0619 -0.0208
    1AU    AUSL  165   9.616   8.634   4.655  0.0173 -0.0398 -0.0100
    1AU     AUL  166   9.317   8.667   4.410  0.0831  0.0152 -0.0172
    1AU       S  167   9.275   7.884   4.340 -0.3450  0.3206  0.0987
    1AU     LIG  168   9.205   7.566   4.589  0.0829  0.0379 -0.0431
    1AU     LIG  169   9.117   7.337   4.947  0.4034 -0.1431 -0.3754
    1AU       S  170   8.853   8.621   4.600 -0.2320 -0.0905  0.0392
    1AU     LIG  171   8.472   8.644   4.786 -0.2074  0.3416 -0.3506
    1AU     LIG  172   8.070   8.383   5.000 -0.0813 -0.1076 -0.2877
    1AU    AUSL  173  10.535   8.534   5.236  0.0588 -0.0182  0.0184
    1AU    AUSL  174  10.299   8.122   5.380 -0.0294 -0.0386  0.0142
    1AU     AUL  175  10.695   8.189   5.264 -0.0425 -0.0243  0.0941
    1AU       S  176  10.358   7.893   5.366 -0.1076 -0.2565 -0.2107
    1AU     LIG  177  10.186   7.365   5.255  0.1497 -0.1458  0.5761
    1AU     LIG  178  10.362   6.960   5.418 -0.0763  0.2965  0.1547
    1AU       S  179  10.803   8.512   4.936 -0.2804  0.0429  0.3267
    1AU     LIG  180  11.109   8.657   5.103 -0.0986  0.1756 -0.3916
    1AU     LIG  181  11.267   8.938   5.377 -0.1942  0.0219 -0.0320
    1AU    AUSL  182  10.421   8.778   5.562  0.0149 -0.0377 -0.0358
    1AU    AUSL  183  10.590   8.936   5.115  0.0244 -0.0375 -0.0801
    1AU     AUL  184  10.757   8.817   5.375 -0.0199  0.0383  0.0746
    1AU       S  185  10.752   9.006   5.961  0.3546  0.0407 -0.2096
    1AU     LIG  186  11.161   9.086   5.969 -0.4183  0.2711  0.3004
    1AU     LIG  187  11.419   9.444   5.849  0.2619  0.2859 -0.0227
    1AU       S  188  10.889   9.079   5.032 -0.1110 -0.2669  0.0367
    1AU     LIG  189  11.029   8.830   4.663 -0.0277  0.3761  0.1627
    1AU     LIG  190  11.357   8.587   4.366 -0.1245  0.0710  0.0651
    1AU    AUSL  191  10.530   8.359   5.645 -0.0306 -0.1220  0.0136
    1AU    AUSL  192  10.428   8.652   5.982 -0.0684  0.0095 -0.0481
    1AU     AUL  193  10.705   8.593   5.779 -0.0584  0.0324 -0.0593
    1AU       S  194  10.512   8.248   6.137 -0.0543  0.0159 -0.1461
    1AU     LIG  195  10.803   8.456   6.267 -0.2802 -0.0768 -0.0287
    1AU     LIG  196  10.809   8.896   6.443  0.0562 -0.1774 -0.3859
    1AU       S  197  10.791   8.135   5.742 -0.1338  0.0981 -0.0855
    1AU     LIG  198  10.797   7.732   5.471 -0.2057 -0.1128 -0.1743
    1AU     LIG  199  10.705   7.438   5.159  0.1366 -0.0799 -0.0418
    1AU    AUSL  200   8.884   9.048   5.379 -0.0201  0.0851 -0.0826
    1AU    AUSL  201   9.017   8.633   5.180  0.0359 -0.0069  0.0888
    1AU     AUL  202   8.690   8.775   5.171  0.0262  0.0545 -0.0213
    1AU       S  203   8.551   9.214   5.190 -0.0208 -0.0210  0.3127
    1AU     LIG  204   8.368   9.311   5.605  0.2972  0.2348 -0.0021
    1AU     LIG  205   8.133   9.774   5.566  0.2768  0.0217 -0.1748
    1AU       S  206   8.423   8.841   5.594 -0.5161  0.0967 -0.0607
    1AU     LIG  207   8.236   8.836   5.193 -0.2830 -0.0294  0.5012
    1AU     LIG  208   8.011   8.903   4.806  0.2926 -0.2601  0.0321
    1AU    AUSL  209   8.990   9.416   5.127  0.1522  0.0337 -0.0517
    1AU    AUSL  210   8.962   9.174   5.788  0.0184  0.0150 -0.0349
    1AU     AUL  211   8.876   9.398   5.490  0.0344 -0.0784 -0.0465
    1AU       S  212   8.734   9.423   5.049 -0.1015  0.2744 -0.1644
    1AU     LIG  213   8.290   9.575   5.144  0.1139  0.2283 -0.1310
    1AU     LIG  214   7.978   9.311   5.199 -0.0313 -0.2258 -0.2334
    1AU       S  215   8.770   9.545   5.919  0.0647 -0.1402 -0.4864
    1AU     LIG  216   8.540   9.117   6.036 -0.2399  0.0630 -0.1618
    1AU     LIG  217   8.073   9.001   6.034 -0.1454  0.0320 -0.3018
    1AU    AUSL  218  10.005   8.661   6.096 -0.1345 -0.0529 -0.1184
    1AU    AUSL  219  10.254   9.039   5.983 -0.0549 -0.0965  0.0455
    1AU     AUL  220  10.317   8.723   6.287 -0.0918 -0.0185  0.0820
    1AU       S  221  10.395   9.238   6.261 -0.4808  0.5039  0.0710
    1AU     LIG  222  10.657   9.535   6.433 -0.2070  0.0111 -0.3347
    1AU     LIG  223  10.888   9.600   6.715  0.0177 -0.2116 -0.1137
    1AU       S  224  10.428   7.971   6.141 -0.2468 -0.0339  0.2348
    1AU     LIG  225  10.908   7.708   5.997  0.3472 -0.1803 -0.1205
    1AU     LIG  226  11.206   7.616   6.277 -0.0687  0.1615  0.0306
    1AU    AUSL  227  10.157   8.328   5.842 -0.0625  0.0070  0.0139
    1AU    AUSL  228   9.705   8.389   6.186 -0.0512 -0.0019  0.0314
    1AU     AUL  229  10.039   8.295   6.224  0.0397  0.0034 -0.0986
    1AU       S  230   9.630   8.157   6.400  0.0237 -0.1577  0.1644
    1AU     LIG  231   9.257   8.057   6.628  0.0594 -0.3899 -0.1203
    1AU     LIG  232   9.337   7.886   6.990  0.3346 -0.2179 -0.3290
    1AU       S  233  10.354   8.042   5.946  0.3342 -0.1373 -0.2517
    1AU     LIG  234  10.384   7.573   5.917  0.2945  0.2648  0.1732
    1AU     LIG  235  10.114   7.362   5.792 -0.1736 -0.1652  0.1957
    1AU    AUSL  236  10.022   8.404   4.740  0.0453  0.0346  0.0681
    1AU    AUSL  237  10.364   8.256   4.957  0.0342 -0.0065 -0.0402
    1AU     AUL  238  10.102   8.047   4.740  0.0321 -0.0554  0.0341
    1AU       S  239  10.574   8.085   4.795  0.3784  0.1586 -0.2455
    1AU     LIG  240  10.944   7.926   4.948 -0.0207  0.1219  0.1818
    1AU     LIG  241  11.297   8.288   4.805  0.1560  0.3613 -0.0503
    1AU       S  242  10.216   8.342   4.409  0.0452 -0.0787  0.1699
    1AU     LIG  243  10.744   8.316   4.455  0.0133  0.2347 -0.0415
    1AU     LIG  244  11.078   7.915   4.438 -0.3177 -0.2942 -0.3233
    1AU    AUSL  245  10.406   8.631   4.737 -0.0998  0.0231  0.0970
    1AU    AUSL  246  10.098   9.149   4.544  0.1099  0.0563  0.0365
    1AU     AUL  247  10.434   8.941   4.493 -0.0810  0.0643 -0.0927
    1AU       S  248  10.216   8.435   4.155  0.0470 -0.0752  0.0149
    1AU     LIG  249  10.601   8.163   3.947  0.3784  0.1332 -0.3512
    1AU     LIG  250  10.975   8.014   3.980  0.2048 -0.1516  0.0993
    1AU       S  251  10.373   9.441   4.430  0.0114 -0.3369 -0.2118
    1AU     LIG  252  10.886   9.331   4.607  0.3702  0.1926 -0.3051
    1AU     LIG  253  10.933   9.163   4.229  0.2501  0.3377 -0.0308
    1AU    AUSL  254   9.991   8.750   4.505  0.0627 -0.0203  0.1561
    1AU    AUSL  255   9.663   8.205   4.625 -0.0251 -0.0547 -0.0012
    1AU     AUL  256   9.767   8.489   4.368  0.1231  0.0531 -0.0470
    1AU       S  257   9.523   8.053   4.414  0.1954  0.0327 -0.3043
    1AU     LIG  258   9.624   7.576   4.289  0.1576 -0.0286  0.1106
    1AU     LIG  259   9.581   7.242   4.538  0.3681 -0.0437  0.1359
    1AU       S  260  10.191   8.657   4.219  0.2660  0.2145 -0.4218
    1AU     LIG  261  10.683   8.669   4.142  0.0307  0.0895 -0.4812
    1AU     LIG  262  11.062   8.713   3.969 -0.2655 -0.1645 -0.0846
    1AU    AUSL  263   9.124   8.315   5.797  0.0448 -0.0675  0.0681
    1AU    AUSL  264   8.982   8.703   5.604  0.0966  0.0611 -0.0295
    1AU     AUL  265   8.831   8.324   5.826 -0.1092 -0.0237 -0.0976
    1AU       S  266   8.726   8.398   6.315  0.3535 -0.0865  0.0189
    1AU     LIG  267   8.637   8.862   6.452 -0.3868 -0.0026 -0.2684
    1AU     LIG  268   8.381   9.158   6.491  0.1351  0.0601 -0.0593
    1AU       S  269   8.638   8.702   5.674  0.1572 -0.1757 -0.1189
    1AU     LIG  270   8.349   8.519   5.962 -0.0906 -0.1366 -0.2151
    1AU     LIG  271   8.179   8.529   6.385  0.0256  0.2627  0.2312
    1AU    AUSL  272   9.319   8.512   6.122  0.0352 -0.0330 -0.0043
    1AU    AUSL  273   9.538   8.269   5.789 -0.0662 -0.0246  0.0708
    1AU     AUL  274   9.339   8.130   6.042 -0.1018 -0.0778  0.0694
    1AU       S  275   9.079   8.403   6.308  0.4345 -0.0660  0.0217
    1AU     LIG  276   8.943   8.577   6.718  0.1251 -0.0974 -0.1118
    1AU     LIG  277   9.193   8.779   7.087  0.1951  0.1830 -0.0827
    1AU       S  278   9.646   7.873   6.423  0.0255 -0.0574 -0.2187
    1AU     LIG  279   9.809   7.988   6.849  0.1144 -0.1314 -0.0748
    1AU     LIG  280   9.793   8.030   7.239  0.1327  0.0533 -0.1036
    1AU    AUSL  281   8.957   8.767   6.026  0.0215  0.0523  0.0930
    1AU    AUSL  282   9.571   8.839   6.240 -0.0830  0.0281  0.0083
    1AU     AUL  283   9.206   8.840   6.375 -0.0009 -0.0446  0.0902
    1AU       S  284   9.604   8.697   6.543 -0.2665 -0.2367  0.0930
    1AU     LIG  285   9.691   8.988   6.899 -0.6479  0.2742 -0.3354
    1AU     LIG  286   9.845   9.279   7.127  0.0361  0.3428  0.7185
    1AU       S  287   8.922   8.085   6.260  0.0328  0.2270  0.0152
    1AU     LIG  288   8.774   8.049   6.685 -0.3205  0.1830 -0.3184
    1AU     LIG  289   8.909   8.217   7.093 -0.1125  0.3136 -0.1558
    1AU    AUSL  290  10.181   9.409   4.892  0.0416  0.0378 -0.0498
    1AU    AUSL  291   9.758   9.201   4.779  0.0309 -0.0699 -0.0817
    1AU     AUL  292   9.901   9.449   4.558 -0.0070  0.0554 -0.0614
    1AU       S  293  10.281   9.615   4.783  0.1799 -0.0112 -0.3450
    1AU     LIG  294  10.523   9.862   5.033  0.0487  0.0306  0.1087
    1AU     LIG  295  10.719   9.999   5.284 -0.1393 -0.1145 -0.3168
    1AU       S  296   9.715   9.965   4.516  0.3751 -0.5169 -0.1757
    1AU     LIG  297   9.737  10.425   4.704  0.2960  0.3777 -0.3010
    1AU     LIG  298   9.798  10.933   4.685  0.2249 -0.2741  0.1363
    1AU    AUSL  299  10.210   8.953   4.922 -0.0195  0.0301 -0.0414
    1AU    AUSL  300  10.286   9.237   5.265 -0.1292 -0.0603 -0.1025
    1AU     AUL  301  10.471   9.223   4.891  0.0670 -0.0128  0.1092
    1AU       S  302  10.408   9.631   4.549 -0.0848 -0.2129 -0.1625
    1AU     LIG  303  10.807   9.817   4.493 -0.1447  0.1632 -0.1068
    1AU     LIG  304  11.121  10.138   4.476  0.0352 -0.1073  0.0440
    1AU       S  305  10.802   9.370   5.188 -0.0259  0.0714 -0.1797
    1AU     LIG  306  11.062   9.637   5.072 -0.2405  0.1793 -0.0236
    1AU     LIG  307  11.136  10.016   4.969 -0.1119 -0.2242  0.1187
    1AU    AUSL  308   9.484   9.259   6.169  0.0430 -0.0206 -0.0382
    1AU    AUSL  309   9.956   9.025   6.301 -0.0273 -0.0407 -0.0022
    1AU     AUL  310   9.716   9.233   6.378 -0.0196  0.1302 -0.0823
    1AU       S  311  10.176   9.148   6.425 -0.1934 -0.4094 -0.1758
    1AU     LIG  312  10.340   8.865   6.746 -0.0356 -0.0763 -0.0140
    1AU     LIG  313  10.231   8.977   7.164 -0.0500 -0.4915  0.1263
    1AU       S  314   9.608   8.534   6.723  0.0160 -0.2613 -0.0923
    1AU     LIG  315   9.523   8.389   6.967  0.2930 -0.0040  0.0839
    1AU     LIG  316   9.462   8.368   7.470 -0.2854  0.0507  0.1375
    1AU    AUSL  317   9.303   8.958   5.892  0.0217  0.0029  0.0069
    1AU    AUSL  318   9.293   9.434   5.855 -0.0740 -0.0960 -0.0895
    1AU     AUL  319   9.117   9.215   6.116  0.0599 -0.0051 -0.0184
    1AU       S  320   9.863   8.585   6.583 -0.5122 -0.1118  0.1360
    1AU     LIG  321  10.035   8.496   6.962  0.2424 -0.0916 -0.3447
    1AU     LIG  322  10.021   8.511   7.365  0.1441 -0.0169 -0.0177
    1AU       S  323   9.127   9.641   5.905 -0.1092  0.1371 -0.3003
    1AU     LIG  324   9.242   9.595   6.403  0.4510 -0.2378 -0.1274
    1AU     LIG  325   9.441   9.429   6.802 -0.0398  0.2072  0.0350
    2POPC   NC3  326   9.116   2.862   7.899  0.2790 -0.0712  0.2379
    2POPC   PO4  327   9.016   2.855   7.332 -0.1946 -0.2084  0.1493
    2POPC   GL1  328   8.986   2.824   6.840 -0.2534  0.1754  0.4936
    2POPC   GL2  329   8.856   3.041   6.659 -0.1299  0.1544  0.1357
    2POPC   C1A  330   9.006   2.616   6.431 -0.1387  0.2186 -0.2487
    2POPC   D2A  331   8.937   2.346   6.148  0.1532 -0.1687  0.3530
    2POPC   C3A  332   8.668   2.473   5.796  0.2432 -0.1531 -0.2701
    2POPC   C4A  333   8.334   2.674   5.507  0.0976 -0.0410 -0.1477
    2POPC   C1B  334   8.559   2.958   6.304 -0.0695  0.0182 -0.2313
    2POPC   C2B  335   8.634   2.977   5.912 -0.3134 -0.0029 -0.1033
    2POPC   C3B  336   8.521   3.131   5.441  0.2359  0.3116  0.0228
    2POPC   C4B  337   8.256   3.454   5.296  0.0861  0.0893  0.4353
    3POPC   NC3  338   0.417   5.962   7.485  0.0859 -0.2049  0.2368
    3POPC   PO4  339   0.091   6.099   7.658  0.1408  0.0610 -0.1245
    3POPC   GL1  340   0.030   6.213   7.247 -0.0021  0.1326 -0.0615
    3POPC   GL2  341  -0.204   6.156   7.221 -0.0270 -0.1272 -0.2953
    3POPC   C1A  342   0.246   6.219   6.813 -0.1155 -0.0499 -0.1638
    3POPC   D2A  343   0.440   6.102   6.500  0.0967  0.3058  0.1171
    3POPC   C3A  344   0.888   5.925   6.557  0.2418  0.1691 -0.3167
    3POPC   C4A  345   1.242   6.208   6.430  0.1226 -0.1363 -0.1588
    3POPC   C1B  346  -0.240   6.246   6.771 -0.5175 -0.0359 -0.0686
    3POPC   C2B  347  -0.128   6.225   6.412  0.1173  0.1552 -0.0447
    3POPC   C3B  348  -0.077   6.377   5.943 -0.0645 -0.2843  0.0315
    3POPC   C4B  349  -0.145   6.770   5.762  0.0985 -0.0485  0.0333
    4POPC   NC3  350   8.861   7.775   8.475  0.2066 -0.0407 -0.0775
    4POPC   PO4  351   9.167   7.951   8.427  0.0300  0.2171 -0.3045
    4POPC   GL1  352   9.199   7.756   8.068 -0.0293 -0.1641 -0.3600
    4POPC   GL2  353   9.479   7.828   7.976 -0.1568 -0.3210  0.3102
    4POPC   C1A  354   8.940   7.529   7.707 -0.2799 -0.0159  0.0328
    4POPC   D2A  355   9.011   7.544   7.207 -0.1190  0.2075  0.0238
    4POPC   C3A  356   9.216   7.265   6.968  0.0179 -0.2077  0.0921
    4POPC   C4A  357   9.239   6.838   6.916  0.1673 -0.1439 -0.1230
    4POPC   C1B  358   9.731   8.081   7.785  0.2067 -0.4776 -0.2789
    4POPC   C2B  359   9.804   8.584   7.797  0.2753  0.2243  0.1725
    4POPC   C3B  360  10.209   8.763   7.745  0.0102  0.2218  0.4660
    4POPC   C4B  361  10.494   9.042   7.656  0.0427 -0.1871 -0.2762
    5POPC   NC3  362   8.936   8.762   8.016  0.2961  0.0303 -0.1458
    5POPC   PO4  363   8.697   8.965   7.825  0.0043 -0.3156  0.1948
    5POPC   GL1  364   8.662   9.016   7.440 -0.0304 -0.0934 -0.0471
    5POPC   GL2  365   8.753   8.672   7.303  0.1930 -0.1993 -0.3054
    5POPC   C1A  366   8.817   9.140   7.091 -0.0242  0.0843  0.1787
    5POPC   D2A  367   8.953   9.261   6.666  0.1937 -0.0474 -0.2164
    5POPC   C3A  368   8.769   9.535   6.416 -0.1336  0.1187  0.3262
    5POPC   C4A  369   8.753   9.978   6.392 -0.3202 -0.1300 -0.0008
    5POPC   C1B  370   8.447   8.429   7.273  0.1081  0.0883 -0.1872
    5POPC   C2B  371   8.428   8.042   7.074  0.1972  0.1057  0.2366
    5POPC   C3B  372   8.422   7.652   6.852 -0.1865 -0.0252 -0.0890
    5POPC   C4B  373   8.376   7.323   6.560  0.3601 -0.0285 -0.0220
    6POPC   NC3  374   0.340   2.281   7.133 -0.0532 -0.2859  0.3909
    6POPC   PO4  375   0.774   2.460   7.000  0.3606 -0.0076 -0.0891
    6POPC   GL1  376   0.608   2.345   6.662 -0.2932 -0.3117  0.1111
    6POPC   GL2  377   0.789   2.623   6.550 -0.0716 -0.4902  0.0720
    6POPC   C1A  378   0.443   2.163   6.389  0.0416 -0.2467 -0.0787
    6POPC   D2A  379   0.047   2.131   6.252 -0.3921 -0.3406 -0.1540
    6POPC   C3A  380  -0.198   1.976   6.503  0.2889 -0.1270 -0.1717
    6POPC   C4A  381  -0.299   1.705   6.801  0.0342 -0.5370  0.0683
    6POPC   C1B  382   0.926   2.464   6.185 -0.1449 -0.0684 -0.1125
    6POPC   C2B  383   0.921   2.177   5.757  0.0413 -0.1798 -0.3651
    6POPC   C3B  384   1.015   1.747   5.674 -0.3740 -0.0382 -0.1329
    6POPC   C4B  385   0.803   1.293   5.650  0.0298 -0.1173 -0.3035
    7POPC   NC3  386   9.043   3.788   7.255  0.1204  0.0844 -0.2685
    7POPC   PO4  387   8.621   3.863   7.207  0.0715 -0.1859 -0.1043
    7POPC   GL1  388   8.841   3.687   6.767  0.1145 -0.4098 -0.0670
    7POPC   GL2  389   8.627   3.719   6.538  0.0750 -0.0017  0.0687
    7POPC   C1A  390   8.979   3.429   6.348  0.0939 -0.1760  0.4181
    7POPC   D2A  391   9.101   3.031   6.176 -0.1206  0.2645 -0.0077
    7POPC   C3A  392   9.361   3.130   5.858 -0.2776 -0.0245 -0.2674
    7POPC   C4A  393   9.226   3.182   5.485  0.1420  0.1127 -0.1396
    7POPC   C1B  394   8.439   3.512   6.320 -0.1319 -0.1530  0.1229
    7POPC   C2B  395   8.172   3.773   5.924 -0.1463  0.0358  0.1792
    7POPC   C3B  396   7.820   3.631   5.664 -0.2117 -0.0229 -0.1784
    7POPC   C4B  397   7.692   3.666   5.291  0.0050 -0.0803  0.1592
    8POPC   NC3  398   1.731   5.996   7.254  0.2568  0.0422  0.0708
    8POPC   PO4  399   1.357   6.176   7.155 -0.1135  0.0828 -0.3195
    8POPC   GL1  400   1.104   6.397   6.872  0.1111 -0.1028  0.0517
    8POPC   GL2  401   1.064   6.642   7.021 -0.1872 -0.0774  0.0409
    8POPC   C1A  402   0.791   6.438   6.626  0.0773  0.1077  0.2206
    8POPC   D2A  403   0.349   6.623   6.436  0.0027  0.1068 -0.0238
    8POPC   C3A  404   0.385   6.649   6.066  0.0119  0.1179 -0.0309
    8POPC   C4A  405   0.657   6.687   5.770 -0.0823  0.1857 -0.1648
    8POPC   C1B  406   0.870   6.913   6.760  0.2325  0.0235  0.1925
    8POPC   C2B  407   0.535   7.070   6.282  0.4042  0.2169 -0.0658
    8POPC   C3B  408   0.791   7.169   5.849  0.0499  0.0583 -0.0828
    8POPC   C4B  409   0.719   7.122   5.439  0.0879  0.3049 -0.0487
    9POPC   NC3  410   7.198   4.079   7.087 -0.1117 -0.1299  0.0428
    9POPC   PO4  411   7.335   4.515   7.062 -0.2999  0.2673  0.0832
    9POPC   GL1  412   7.336   4.803   6.730 -0.2877  0.2370 -0.0249
    9POPC   GL2  413   7.585   4.949   6.607  0.0231  0.2570  0.0650
    9POPC   C1A  414   7.304   4.800   6.278 -0.4317 -0.2009  0.3288
    9POPC   D2A  415   7.353   4.494   5.904  0.2047  0.1356  0.7670
    9POPC   C3A  416   7.636   4.517   5.555 -0.2104 -0.0140  0.2088
    9POPC   C4A  417   7.661   4.278   5.209 -0.1699 -0.2251 -0.3704
    9POPC   C1B  418   7.573   5.255   6.326 -0.3301  0.1380  0.0938
    9POPC   C2B  419   7.540   5.141   5.960  0.1350 -0.0519  0.1441
    9POPC   C3B  420   7.279   5.113   5.485 -0.1990 -0.0723 -0.0544
    9POPC   C4B  421   7.015   5.209   5.131 -0.2289  0.1466  0.1955
   10POPC   NC3  422   6.393   1.870   7.250  0.1220  0.0050 -0.0270
   10POPC   PO4  423   5.849   1.832   7.262  0.1646  0.1916 -0.2923
   10POPC   GL1  424   5.956   2.070   6.942 -0.1361  0.2359  0.0943
   10POPC   GL2  425   6.224   2.290   6.938 -0.0585 -0.2971  0.1758
   10POPC   C1A  426   6.034   1.988   6.519  0.0459  0.1613 -0.0834
   10POPC   D2A  427   5.964   1.714   6.151 -0.2345  0.0518  0.0804
   10POPC   C3A  428   6.068   1.833   5.695  0.0278 -0.3672  0.0428
   10POPC   C4A  429   6.340   2.086   5.422 -0.1187 -0.0199 -0.1559
   10POPC   C1B  430   6.447   2.612   6.631 -0.0801 -0.0843  0.2167
   10POPC   C2B  431   6.650   2.925   6.309  0.1017  0.1167 -0.0571
   10POPC   C3B  432   6.654   3.085   5.947  0.1031 -0.0060 -0.2756
   10POPC   C4B  433   6.813   3.367   5.582  0.1984 -0.1244 -0.1475
   11POPC   NC3  434   6.472   0.036   7.195 -0.0262  0.2460 -0.0968
   11POPC   PO4  435   6.936   0.158   7.095  0.0553  0.0517 -0.0647
   11POPC   GL1  436   7.165   0.272   6.752  0.1282  0.1241  0.0637
   11POPC   GL2  437   6.991   0.524   6.632 -0.4392 -0.1520 -0.0602
   11POPC   C1A  438   7.260   0.116   6.348  0.0577 -0.1339 -0.1565
   11POPC   D2A  439   7.371  -0.218   6.215 -0.2714 -0.2609  0.1875
   11POPC   C3A  440   7.507  -0.187   5.811 -0.1516  0.0123 -0.1302
   11POPC   C4A  441   7.682  -0.284   5.342 -0.2890 -0.2626 -0.1221
   11POPC   C1B  442   6.673   0.326   6.478 -0.3599  0.0176  0.0545
   11POPC   C2B  443   6.535  -0.005   6.436 -0.1829  0.1602  0.1608
   11POPC   C3B  444   6.337  -0.435   6.402 -0.0915 -0.0120  0.3858
   11POPC   C4B  445   6.303  -0.916   6.356 -0.0896 -0.0589 -0.2238
   12POPC   NC3  446   7.688   4.879   7.111  0.0180 -0.1511 -0.1609
   12POPC   PO4  447   7.272   5.032   7.274 -0.2340  0.2079  0.1365
   12POPC   GL1  448   7.231   5.318   6.997  0.0347  0.3404  0.2598
   12POPC   GL2  449   7.547   5.333   6.948  0.1163  0.0015  0.0900
   12POPC   C1A  450   7.141   5.307   6.556 -0.1904 -0.1050  0.3688
   12POPC   D2A  451   6.998   5.279   6.099  0.0173 -0.1418  0.1472
   12POPC   C3A  452   6.636   5.532   6.099 -0.0857  0.2164 -0.0158
   12POPC   C4A  453   6.227   5.465   5.935 -0.2500 -0.1174  0.0982
   12POPC   C1B  454   7.545   5.610   6.721 -0.0149  0.0975  0.0802
   12POPC   C2B  455   7.615   5.723   6.304 -0.1419  0.0788 -0.1999
   12POPC   C3B  456   7.483   5.665   5.857  0.1800 -0.1816  0.0792
   12POPC   C4B  457   7.088   5.554   5.676  0.2865  0.3758  0.1251
   13POPC   NC3  458   2.786   2.935   7.177  0.0060 -0.1790 -0.3024
   13POPC   PO4  459   3.181   3.059   7.409 -0.1206  0.1916  0.0745
   13POPC   GL1  460   3.166   3.144   6.850  0.0170  0.2380  0.0311
   13POPC   GL2  461   2.988   2.953   6.650 -0.1075 -0.2287 -0.0203
   13POPC   C1A  462   3.236   3.348   6.464  0.1240 -0.2996  0.2933
   13POPC   D2A  463   3.546   3.381   6.251 -0.2784  0.0622 -0.0748
   13POPC   C3A  464   3.624   3.775   6.050  0.1573 -0.2053 -0.1232
   13POPC   C4A  465   3.896   3.999   5.761 -0.1635 -0.0431 -0.2340
   13POPC   C1B  466   2.728   3.087   6.238 -0.1366 -0.1295  0.0669
   13POPC   C2B  467   2.709   3.296   5.905 -0.1841  0.1410 -0.1928
   13POPC   C3B  468   2.651   3.116   5.462  0.3189 -0.0145 -0.1138
   13POPC   C4B  469   2.758   2.763   5.209 -0.1361  0.1366 -0.1829
   14POPC   NC3  470   4.959   6.458   7.404  0.1060  0.0322 -0.0305
   14POPC   PO4  471   5.351   6.359   7.125 -0.2659 -0.2078  0.2361
   14POPC   GL1  472   5.054   6.533   6.871 -0.3265 -0.0098  0.1314
   14POPC   GL2  473   5.098   6.882   6.715 -0.0441 -0.0150 -0.2213
   14POPC   C1A  474   4.698   6.530   6.666  0.1583  0.0229 -0.0154
   14POPC   D2A  475   4.536   6.118   6.446 -0.1718  0.1264 -0.2685
   14POPC   C3A  476   4.517   5.739   6.329  0.0722  0.0790  0.0740
   14POPC   C4A  477   4.714   5.356   6.262  0.3501 -0.1235 -0.1587
   14POPC   C1B  478   4.981   6.669   6.251 -0.0100 -0.1646  0.1993
   14POPC   C2B  479   4.741   6.668   5.853  0.0648 -0.0606 -0.1339
   14POPC   C3B  480   4.379   6.493   5.661  0.0786 -0.2991  0.2368
   14POPC   C4B  481   4.099   6.295   5.821  0.1442  0.0880 -0.0539
   15POPC   NC3  482   6.185   9.030   7.502  0.0841 -0.0311 -0.3023
   15POPC   PO4  483   6.393   9.367   7.366  0.4624 -0.1351  0.1111
   15POPC   GL1  484   6.559   9.517   6.974 -0.1618 -0.5408 -0.1149
   15POPC   GL2  485   6.923   9.648   6.855 -0.0177  0.1688  0.0204
   15POPC   C1A  486   6.496   9.427   6.505 -0.1492  0.2048  0.1290
   15POPC   D2A  487   6.491   9.456   6.099 -0.3253 -0.0757 -0.1433
   15POPC   C3A  488   6.251   9.234   5.764 -0.1278  0.1198 -0.1601
   15POPC   C4A  489   6.108   8.983   5.368  0.2058 -0.1143  0.0597
   15POPC   C1B  490   6.965   9.481   6.418 -0.2284 -0.1266 -0.0896
   15POPC   C2B  491   6.955   9.490   6.093 -0.0195  0.1581  0.2223
   15POPC   C3B  492   6.886   9.221   5.694 -0.2324  0.1872 -0.1571
   15POPC   C4B  493   6.599   8.836   5.819 -0.0824  0.1263  0.0496
   16POPC   NC3  494  10.726   4.029   6.606 -0.2214 -0.0423  0.1086
   16POPC   PO4  495  10.910   3.700   6.767  0.0787 -0.1076 -0.1326
   16POPC   GL1  496  11.278   3.550   6.528 -0.2714 -0.0407 -0.0626
   16POPC   GL2  497  11.560   3.750   6.525  0.1981 -0.0365 -0.1434
   16POPC   C1A  498  11.441   3.312   6.241  0.0246  0.0004 -0.0589
   16POPC   D2A  499  11.750   2.993   6.103 -0.0242 -0.0225  0.1190
   16POPC   C3A  500  11.562   2.715   5.652 -0.0366 -0.0523  0.0247
   16POPC   C4A  501  11.645   2.565   5.282 -0.1486  0.1541 -0.0927
   16POPC   C1B  502  11.548   3.829   6.142 -0.0549  0.0391 -0.1011
   16POPC   C2B  503  11.247   3.624   5.855 -0.3063 -0.0025  0.2796
   16POPC   C3B  504  10.797   3.506   5.824  0.0864 -0.2474 -0.1465
   16POPC   C4B  505  10.486   3.761   5.767 -0.1408 -0.4607 -0.0038
   17POPC   NC3  506   6.657   4.230   7.408  0.2696 -0.2003 -0.0146
   17POPC   PO4  507   6.279   4.123   7.154 -0.1038 -0.0212  0.2848
   17POPC   GL1  508   6.120   4.018   6.682 -0.0341  0.1339  0.0424
   17POPC   GL2  509   6.397   3.747   6.570 -0.2809 -0.4441 -0.2083
   17POPC   C1A  510   5.862   4.154   6.324  0.0178  0.1151 -0.2086
   17POPC   D2A  511   5.799   4.180   5.936  0.1948  0.1087  0.2544
   17POPC   C3A  512   5.510   4.272   5.623 -0.0383  0.1793 -0.2646
   17POPC   C4A  513   5.212   4.239   5.263  0.0678  0.0140  0.2543
   17POPC   C1B  514   6.216   3.826   6.159  0.0832 -0.1693 -0.1273
   17POPC   C2B  515   6.352   4.151   5.909 -0.0487 -0.0298 -0.1146
   17POPC   C3B  516   6.654   4.195   5.459 -0.1028  0.5230 -0.0260
   17POPC   C4B  517   6.555   3.813   5.184 -0.1241 -0.1785  0.0790
   18POPC   NC3  518   5.499  10.574   7.041 -0.2207 -0.0748  0.1084
   18POPC   PO4  519   5.917  10.574   7.233  0.2824 -0.0529  0.0650
   18POPC   GL1  520   5.863  10.268   6.872 -0.0707 -0.2003  0.0653
   18POPC   GL2  521   5.821  10.514   6.635  0.0534 -0.0187 -0.0343
   18POPC   C1A  522   5.900   9.995   6.572 -0.2105 -0.0563 -0.0132
   18POPC   D2A  523   5.944  10.103   6.109  0.1521 -0.2088  0.1942
   18POPC   C3A  524   5.856  10.065   5.617  0.3596 -0.0666  0.0795
   18POPC   C4A  525   5.850  10.252   5.294  0.0244  0.0139 -0.0818
   18POPC   C1B  526   5.936  10.592   6.328  0.0656 -0.4319  0.1122
   18POPC   C2B  527   6.144  10.560   5.988  0.2201  0.2071 -0.1544
   18POPC   C3B  528   6.038  10.618   5.584 -0.0952  0.4033  0.3880
   18POPC   C4B  529   6.168  10.799   5.243 -0.2723  0.0935 -0.0308
   19POPC   NC3  530   0.527  10.736   7.820 -0.1572 -0.2137 -0.1452
   19POPC   PO4  531   0.998  10.463   8.060  0.0954  0.1496 -0.0720
   19POPC   GL1  532   1.037  10.463   7.635  0.3692  0.2901 -0.1733
   19POPC   GL2  533   0.740  10.371   7.584 -0.0494  0.2400 -0.3441
   19POPC   C1A  534   1.240  10.223   7.249  0.2217 -0.1109  0.0075
   19POPC   D2A  535   1.233  10.385   6.844  0.1045  0.0195 -0.3570
   19POPC   C3A  536   1.613  10.298   6.713 -0.0669  0.0189 -0.0403
   19POPC   C4A  537   1.986  10.215   6.759  0.0783  0.1381 -0.2171
   19POPC   C1B  538   0.531  10.120   7.336 -0.1104 -0.0331  0.0716
   19POPC   C2B  539   0.510  10.005   6.980 -0.0577  0.2863  0.4107
   19POPC   C3B  540   0.622   9.604   6.691 -0.2212 -0.1678 -0.1790
   19POPC   C4B  541   0.772   9.507   6.337 -0.0369  0.0834  0.0318
   20POPC   NC3  542   3.839   5.987   6.957 -0.1023 -0.1143 -0.5104
   20POPC   PO4  543   3.437   6.206   7.185  0.1054 -0.1491  0.0784
   20POPC   GL1  544   3.334   6.064   6.773  0.0229  0.3911 -0.2478
   20POPC   GL2  545   3.602   6.164   6.461  0.1422  0.2308 -0.3767
   20POPC   C1A  546   3.203   5.885   6.293  0.1598  0.0459 -0.1888
   20POPC   D2A  547   3.025   5.649   5.931 -0.2384 -0.2955  0.0582
   20POPC   C3A  548   2.804   5.942   5.698 -0.0012 -0.2346 -0.0371
   20POPC   C4A  549   2.455   5.994   5.415 -0.1403  0.1373 -0.0498
   20POPC   C1B  550   3.585   6.250   6.122 -0.1205 -0.1092  0.5966
   20POPC   C2B  551   3.331   6.203   5.703  0.1545 -0.0301  0.0447
   20POPC   C3B  552   3.284   6.118   5.319  0.0740  0.0562 -0.1971
   20POPC   C4B  553   3.192   5.904   4.828  0.0171 -0.0990  0.0281
   21POPC   NC3  554   4.976   5.512   7.480  0.1011  0.0904  0.1671
   21POPC   PO4  555   5.085   5.752   7.163  0.2198 -0.0576  0.0706
   21POPC   GL1  556   5.186   5.939   6.857  0.2085  0.3179 -0.1385
   21POPC   GL2  557   5.141   5.649   6.634 -0.3910  0.1154  0.0212
   21POPC   C1A  558   4.984   6.169   6.404 -0.4857  0.0232  0.0392
   21POPC   D2A  559   5.226   6.124   6.060  0.0710  0.1695 -0.1959
   21POPC   C3A  560   5.061   6.378   5.664 -0.2654  0.4002 -0.3091
   21POPC   C4A  561   4.806   6.369   5.315 -0.1302 -0.3692 -0.2532
   21POPC   C1B  562   5.366   5.648   6.186 -0.1701 -0.1974  0.0573
   21POPC   C2B  563   5.685   5.801   5.889 -0.1760 -0.0208  0.0735
   21POPC   C3B  564   5.887   5.561   5.515 -0.0904  0.4347 -0.1091
   21POPC   C4B  565   5.950   5.303   5.188  0.2704  0.0841 -0.0187
   22POPC   NC3  566   5.375   0.224   7.715 -0.1174  0.3062  0.3836
   22POPC   PO4  567   5.656   0.357   7.395  0.1328  0.2216  0.2289
   22POPC   GL1  568   5.447   0.401   6.962  0.2392  0.1406  0.0340
   22POPC   GL2  569   5.705   0.582   6.774  0.0342 -0.1077 -0.0398
   22POPC   C1A  570   5.244   0.588   6.545  0.1410  0.0905  0.1835
   22POPC   D2A  571   5.187   0.970   6.282  0.2928  0.0196 -0.1664
   22POPC   C3A  572   5.445   0.869   5.922  0.0399 -0.3352 -0.0689
   22POPC   C4A  573   5.743   0.708   5.747 -0.1540  0.1411  0.0348
   22POPC   C1B  574   5.630   0.152   6.504 -0.0279  0.1421  0.0269
   22POPC   C2B  575   5.372   0.210   6.219  0.0277  0.1566  0.5734
   22POPC   C3B  576   5.323   0.151   5.867 -0.0903  0.0555  0.1712
   22POPC   C4B  577   5.465   0.024   5.379 -0.0279 -0.1084 -0.1821
   23POPC   NC3  578   8.912   1.498   7.580  0.0696 -0.3978  0.0896
   23POPC   PO4  579   9.336   1.488   7.294  0.0247 -0.3806 -0.2381
   23POPC   GL1  580   9.624   1.469   6.905  0.0996 -0.2628 -0.0403
   23POPC   GL2  581   9.322   1.272   6.736  0.1499 -0.0296 -0.2943
   23POPC   C1A  582   9.703   1.489   6.429  0.0290 -0.0167 -0.0203
   23POPC   D2A  583   9.812   1.055   6.231  0.1557 -0.1547 -0.1703
   23POPC   C3A  584  10.191   0.914   6.222 -0.0946 -0.0682 -0.2324
   23POPC   C4A  585  10.376   0.791   5.858 -0.3212  0.0324  0.0650
   23POPC   C1B  586   9.385   0.924   6.447 -0.0526  0.2270 -0.3059
   23POPC   C2B  587   9.386   0.924   5.969 -0.2067 -0.2751 -0.2544
   23POPC   C3B  588   9.037   1.091   5.698  0.1398 -0.1207 -0.1304
   23POPC   C4B  589   8.588   1.115   5.608 -0.0252 -0.1471 -0.0705
   24POPC   NC3  590   8.310  10.607   7.373  0.1686 -0.4066 -0.2338
   24POPC   PO4  591   7.925  10.757   7.523  0.2743 -0.2398  0.0962
   24POPC   GL1  592   7.886  10.497   7.138 -0.1206 -0.0119 -0.0654
   24POPC   GL2  593   8.138  10.550   6.891 -0.0938 -0.0455 -0.0806
   24POPC   C1A  594   7.710  10.430   6.685 -0.1053 -0.0988 -0.0892
   24POPC   D2A  595   7.749  10.227   6.238  0.1492  0.1057  0.2528
   24POPC   C3A  596   8.006  10.506   5.986  0.1745 -0.4196  0.0704
   24POPC   C4A  597   7.964  10.740   5.653  0.0990  0.2293  0.0382
   24POPC   C1B  598   8.223  10.209   6.748  0.0081 -0.1643  0.0278
   24POPC   C2B  599   8.254  10.089   6.218 -0.1844 -0.0528 -0.3027
   24POPC   C3B  600   8.504   9.933   5.860  0.0538  0.1071  0.1773
   24POPC   C4B  601   8.756   9.925   5.517 -0.1002 -0.4672  0.0976
   25POPC   NC3  602   2.083   0.040   7.466 -0.0760  0.1296 -0.0633
   25POPC   PO4  603   2.483  -0.156   7.334 -0.3856 -0.0774 -0.0145
   25POPC   GL1  604   2.440  -0.317   6.960 -0.3400  0.2892  0.3028
   25POPC   GL2  605   2.768  -0.426   6.961 -0.3225  0.1637  0.4282
   25POPC   C1A  606   2.269  -0.185   6.578  0.2850 -0.1454  0.4207
   25POPC   D2A  607   1.877  -0.126   6.481 -0.1462  0.1295  0.0659
   25POPC   C3A  608   1.581  -0.011   6.316 -0.2955 -0.1476 -0.1989
   25POPC   C4A  609   1.685   0.251   5.976 -0.2112 -0.0773  0.1156
   25POPC   C1B  610   2.549  -0.605   6.613 -0.5501  0.4466 -0.0444
   25POPC   C2B  611   2.536  -0.662   6.201  0.1544  0.0395 -0.5412
   25POPC   C3B  612   2.466  -0.757   5.772  0.1127 -0.0938  0.3467
   25POPC   C4B  613   2.212  -0.838   5.390  0.0507 -0.2171 -0.1366
   26POPC   NC3  614   8.187   2.582   7.321 -0.1869 -0.0697 -0.1560
   26POPC   PO4  615   8.541   2.819   7.105  0.1598 -0.0023  0.0285
   26POPC   GL1  616   8.303   2.842   6.702 -0.2305 -0.1891 -0.0506
   26POPC   GL2  617   8.525   2.568   6.618  0.2912 -0.3118  0.1574
   26POPC   C1A  618   8.044   2.776   6.332 -0.0662 -0.2651  0.0303
   26POPC   D2A  619   8.004   2.825   5.950  0.1330  0.2151  0.0170
   26POPC   C3A  620   7.778   2.680   5.475  0.0485  0.3211 -0.0797
   26POPC   C4A  621   7.891   2.564   5.156  0.1739  0.1201  0.1338
   26POPC   C1B  622   8.446   2.466   6.239 -0.1686  0.2015  0.0441
   26POPC   C2B  623   8.217   2.286   5.837  0.0527  0.0904 -0.4178
   26POPC   C3B  624   8.070   2.105   5.473 -0.1764 -0.1219 -0.2398
   26POPC   C4B  625   8.023   1.854   5.081 -0.0384 -0.2527  0.0549
   27POPC   NC3  626  10.729   2.162   7.478 -0.1889  0.2119  0.0045
   27POPC   PO4  627  10.975   1.824   7.225  0.0581  0.0022 -0.1446
   27POPC   GL1  628  10.948   1.823   6.731 -0.3668  0.0201 -0.4732
   27POPC   GL2  629  10.904   1.565   6.791 -0.0926 -0.0508  0.1732
   27POPC   C1A  630  10.831   1.622   6.323 -0.0428 -0.0047  0.3616
   27POPC   D2A  631  10.944   1.421   5.920  0.1499 -0.2124  0.1463
   27POPC   C3A  632  10.995   1.108   5.860 -0.0832  0.1234 -0.0554
   27POPC   C4A  633  10.777   0.860   5.568  0.1764  0.2835  0.0919
   27POPC   C1B  634  10.966   1.183   6.441  0.2058  0.0913 -0.2657
   27POPC   C2B  635  11.260   0.815   6.351  0.1548 -0.1211 -0.0018
   27POPC   C3B  636  11.558   0.517   6.259  0.2379  0.1085  0.1401
   27POPC   C4B  637  11.458   0.106   6.100 -0.0581 -0.1635 -0.1797
   28POPC   NC3  638   4.085   2.112   7.692 -0.2812 -0.0644  0.3966
   28POPC   PO4  639   3.927   2.175   7.244 -0.1410 -0.4478  0.0055
   28POPC   GL1  640   3.879   2.184   6.792 -0.1211 -0.3461 -0.4135
   28POPC   GL2  641   3.558   2.321   6.763  0.1480  0.0764 -0.3290
   28POPC   C1A  642   3.898   2.470   6.437  0.0512 -0.2752 -0.2608
   28POPC   D2A  643   3.902   2.925   6.254  0.2315 -0.0931 -0.0252
   28POPC   C3A  644   3.662   3.030   5.866 -0.0482  0.0464 -0.1978
   28POPC   C4A  645   3.634   3.114   5.478 -0.0606  0.1657 -0.1966
   28POPC   C1B  646   3.355   2.409   6.347  0.2221 -0.3423  0.0988
   28POPC   C2B  647   3.588   2.522   6.004  0.0587  0.1175  0.2553
   28POPC   C3B  648   3.816   2.240   5.604 -0.0932 -0.0520  0.2216
   28POPC   C4B  649   4.195   2.099   5.325 -0.4678 -0.0282 -0.0482
   29POPC   NC3  650   6.234   6.286   7.484  0.0810 -0.0636 -0.0244
   29POPC   PO4  651   6.494   6.625   7.382  0.2369  0.2325 -0.0815
   29POPC   GL1  652   6.665   6.390   7.053  0.2117 -0.2994  0.1183
   29POPC   GL2  653   6.409   6.185   6.836  0.1109 -0.2199  0.0044
   29POPC   C1A  654   6.642   6.643   6.612  0.1388  0.0227  0.3275
   29POPC   D2A  655   6.332   6.874   6.400 -0.1461  0.2148  0.1458
   29POPC   C3A  656   6.165   6.691   6.007  0.1195 -0.1010 -0.0247
   29POPC   C4A  657   6.108   6.937   5.681  0.1043 -0.0524  0.2785
   29POPC   C1B  658   6.237   6.323   6.410  0.3289 -0.0103  0.3557
   29POPC   C2B  659   5.864   6.258   6.049 -0.2159 -0.2962 -0.2074
   29POPC   C3B  660   5.624   6.302   5.800 -0.1651 -0.3019 -0.1206
   29POPC   C4B  661   5.505   6.416   5.343  0.2067 -0.1132  0.0088
   30POPC   NC3  662   3.606   9.153   7.433 -0.1104  0.1320  0.1765
   30POPC   PO4  663   4.020   9.282   7.341  0.1689  0.2478  0.0625
   30POPC   GL1  664   3.981   9.245   6.920 -0.1729 -0.0371  0.2036
   30POPC   GL2  665   3.633   9.149   6.953 -0.0814  0.2389  0.1321
   30POPC   C1A  666   4.295   9.344   6.532 -0.0929  0.0946 -0.0517
   30POPC   D2A  667   4.605   9.196   6.250  0.0365 -0.1840  0.2890
   30POPC   C3A  668   4.483   9.250   5.803  0.1440  0.0547  0.0051
   30POPC   C4A  669   4.042   9.299   5.549 -0.2102  0.1884  0.1499
   30POPC   C1B  670   3.364   8.893   6.632  0.0434 -0.1350  0.2219
   30POPC   C2B  671   3.293   8.876   6.219  0.1675 -0.2896  0.1756
   30POPC   C3B  672   3.280   8.941   5.751  0.2241 -0.1286 -0.1477
   30POPC   C4B  673   3.536   8.868   5.492  0.3380 -0.2745 -0.1686
   31POPC   NC3  674   9.237   0.029   7.528  0.1264  0.3344 -0.2772
   31POPC   PO4  675   9.016   0.392   7.557  0.0473  0.1049  0.0047
   31POPC   GL1  676   9.151   0.254   7.073  0.2951 -0.2025  0.5663
   31POPC   GL2  677   9.337   0.065   6.999  0.2642  0.0052 -0.0765
   31POPC   C1A  678   9.021   0.225   6.683 -0.1642 -0.0842  0.0992
   31POPC   D2A  679   8.774   0.239   6.389  0.1415  0.0412  0.0438
   31POPC   C3A  680   8.578   0.214   6.036 -0.0505  0.1513 -0.0737
   31POPC   C4A  681   8.563   0.138   5.591 -0.1289  0.0899  0.0239
   31POPC   C1B  682   9.792   0.001   6.931 -0.5510  0.2671 -0.1472
   31POPC   C2B  683  10.119   0.217   6.567  0.3371  0.2149  0.2247
   31POPC   C3B  684  10.480   0.478   6.288  0.0705 -0.2600  0.1011
   31POPC   C4B  685  10.789   0.793   6.161  0.3139 -0.0689 -0.0605
   32POPC   NC3  686   5.079   9.937   7.547 -0.1441 -0.1302 -0.3278
   32POPC   PO4  687   4.948   9.482   7.356 -0.1372 -0.1614  0.0130
   32POPC   GL1  688   4.912   9.257   6.980  0.1962  0.2307  0.1062
   32POPC   GL2  689   4.884   9.461   6.751 -0.0184 -0.0334  0.1668
   32POPC   C1A  690   4.972   8.958   6.556  0.3333 -0.0143  0.2203
   32POPC   D2A  691   5.030   8.755   6.180 -0.1071  0.0708  0.1134
   32POPC   C3A  692   5.009   9.053   5.956 -0.2494 -0.1735  0.1884
   32POPC   C4A  693   5.115   8.986   5.519 -0.1576  0.0019 -0.0999
   32POPC   C1B  694   5.014   9.608   6.419  0.2643  0.1813  0.1175
   32POPC   C2B  695   5.111   9.606   5.980  0.1266  0.1266  0.1131
   32POPC   C3B  696   5.351   9.743   5.541  0.0616 -0.3512 -0.0168
   32POPC   C4B  697   5.656   9.823   5.159 -0.0513 -0.0405  0.0064
   33POPC   NC3  698   9.673   7.967   8.402  0.0893  0.1845 -0.0440
   33POPC   PO4  699   9.967   8.212   8.692  0.3701  0.0798  0.2314
   33POPC   GL1  700  10.171   8.057   8.328 -0.3551 -0.1223  0.1247
   33POPC   GL2  701  10.487   8.169   8.318 -0.1800 -0.1535 -0.1985
   33POPC   C1A  702  10.196   7.720   8.049  0.0480 -0.0914 -0.2039
   33POPC   D2A  703  10.274   7.322   7.878 -0.0402 -0.1248 -0.2838
   33POPC   C3A  704  10.041   7.223   7.416 -0.3497  0.3175  0.1128
   33POPC   C4A  705   9.720   6.943   7.207 -0.0273 -0.1312 -0.1591
   33POPC   C1B  706  10.674   7.924   8.032  0.3139  0.1506 -0.1433
   33POPC   C2B  707  10.610   7.918   7.656 -0.3315  0.3407  0.0488
   33POPC   C3B  708  10.473   8.192   7.328  0.2219  0.2005 -0.1782
   33POPC   C4B  709  10.529   8.631   7.362  0.2741  0.0494  0.2420
   34POPC   NC3  710   3.658   3.086   7.580 -0.0675 -0.2090 -0.2998
   34POPC   PO4  711   3.609   2.776   7.158 -0.1123 -0.1908  0.0770
   34POPC   GL1  712   3.654   3.029   6.760  0.2420  0.0223  0.3823
   34POPC   GL2  713   3.641   3.423   6.733  0.1277 -0.2397  0.5261
   34POPC   C1A  714   3.425   2.904   6.304 -0.0846 -0.1758  0.1355
   34POPC   D2A  715   3.174   3.042   6.045 -0.2296 -0.0735  0.0205
   34POPC   C3A  716   3.207   2.703   5.693 -0.0002  0.2302 -0.2799
   34POPC   C4A  717   3.142   2.412   5.477 -0.0613  0.2284 -0.4306
   34POPC   C1B  718   3.921   3.752   6.463 -0.0510 -0.1155 -0.0089
   34POPC   C2B  719   4.200   3.852   6.162 -0.0780 -0.0686 -0.2051
   34POPC   C3B  720   4.489   3.965   5.848  0.0391 -0.1356  0.2617
   34POPC   C4B  721   4.314   3.827   5.514 -0.1102 -0.1800 -0.0586
   35POPC   NC3  722   4.388  10.325   7.160  0.1760  0.1022 -0.1620
   35POPC   PO4  723   4.065  10.572   7.394 -0.0422  0.0471 -0.2477
   35POPC   GL1  724   3.756  10.510   7.002  0.1227  0.0452  0.0250
   35POPC   GL2  725   3.921  10.376   6.850 -0.2307 -0.0040  0.5390
   35POPC   C1A  726   3.628  10.740   6.593 -0.0741  0.4724  0.1038
   35POPC   D2A  727   3.588  11.141   6.356  0.2984  0.0359  0.0491
   35POPC   C3A  728   3.336  11.174   5.930 -0.1229  0.1307  0.1949
   35POPC   C4A  729   2.930  10.961   5.709 -0.2211 -0.0764 -0.0671
   35POPC   C1B  730   4.122  10.523   6.550 -0.0578  0.0283 -0.0786
   35POPC   C2B  731   3.973  10.741   6.260 -0.3490 -0.0552  0.0927
   35POPC   C3B  732   3.760  10.843   5.988  0.4294 -0.1691 -0.0741
   35POPC   C4B  733   3.848  11.123   5.594  0.0978 -0.0177 -0.2731
   36POPC   NC3  734   8.835   0.726   7.270  0.0059 -0.1169  0.2322
   36POPC   PO4  735   9.273   0.885   7.092  0.1319  0.0437  0.2086
   36POPC   GL1  736   9.007   0.766   6.784 -0.1945  0.1107  0.0790
   36POPC   GL2  737   8.639   0.740   6.728 -0.1046  0.3468 -0.0768
   36POPC   C1A  738   9.006   0.631   6.313  0.3687 -0.2138  0.1134
   36POPC   D2A  739   9.058   0.283   5.928  0.1509 -0.1988  0.2835
   36POPC   C3A  740   9.133  -0.086   6.082  0.2363 -0.0352  0.0716
   36POPC   C4A  741   9.487  -0.270   6.125  0.3778 -0.1511  0.0983
   36POPC   C1B  742   8.394   0.673   6.322  0.1082  0.2478 -0.1209
   36POPC   C2B  743   8.270   0.566   5.873 -0.3106 -0.0636  0.0124
   36POPC   C3B  744   8.147   0.450   5.569 -0.0775 -0.0443  0.1398
   36POPC   C4B  745   7.740   0.285   5.311  0.0847 -0.1007  0.1976
   37POPC   NC3  746   4.351   0.652   7.656  0.0838  0.3530 -0.0644
   37POPC   PO4  747   4.369   0.494   7.180 -0.0339 -0.1434  0.2107
   37POPC   GL1  748   4.473   0.724   6.762 -0.1779  0.0598  0.1290
   37POPC   GL2  749   4.826   0.899   6.730  0.0337 -0.2866  0.2245
   37POPC   C1A  750   4.237   0.906   6.427  0.0978  0.1386 -0.1817
   37POPC   D2A  751   4.253   1.243   6.106  0.1058  0.1586 -0.1139
   37POPC   C3A  752   4.254   1.002   5.716  0.2171  0.0219  0.1896
   37POPC   C4A  753   3.939   0.866   5.550 -0.1871 -0.3665  0.1567
   37POPC   C1B  754   4.771   0.724   6.319  0.0178 -0.0805  0.2740
   37POPC   C2B  755   4.476   0.609   6.008 -0.3846 -0.4244  0.0543
   37POPC   C3B  756   4.327   0.436   5.636 -0.1689 -0.3144 -0.1043
   37POPC   C4B  757   4.250   0.593   5.273  0.1199  0.0241  0.0570
   38POPC   NC3  758   7.492   0.174   7.167  0.0033 -0.0821  0.2159
   38POPC   PO4  759   7.470   0.589   7.057  0.3251  0.2005 -0.0883
   38POPC   GL1  760   7.513   0.702   6.679  0.1177  0.0111  0.0349
   38POPC   GL2  761   7.533   0.584   6.411 -0.1544 -0.2652 -0.5257
   38POPC   C1A  762   7.446   1.038   6.271 -0.0978  0.1310 -0.1705
   38POPC   D2A  763   7.097   1.098   5.922  0.0500 -0.0345  0.0656
   38POPC   C3A  764   7.041   0.709   5.695 -0.1611  0.0180 -0.0350
   38POPC   C4A  765   6.965   0.368   5.320  0.0520  0.0740  0.0452
   38POPC   C1B  766   7.174   0.646   6.190 -0.0955 -0.2203 -0.1083
   38POPC   C2B  767   6.674   0.720   6.140 -0.2660  0.0792 -0.1239
   38POPC   C3B  768   6.230   0.741   5.939  0.2727 -0.0777 -0.2354
   38POPC   C4B  769   6.140   0.833   5.521  0.0295 -0.1695  0.3190
   39POPC   NC3  770   6.750   7.722   7.712 -0.1246  0.0443 -0.2079
   39POPC   PO4  771   6.966   7.381   7.719 -0.2243  0.1091 -0.2022
   39POPC   GL1  772   7.225   7.249   7.455 -0.0550  0.3905 -0.2005
   39POPC   GL2  773   7.425   7.414   7.430 -0.0378 -0.2047  0.1222
   39POPC   C1A  774   7.550   7.122   7.031  0.0209 -0.2453 -0.0234
   39POPC   D2A  775   7.730   7.158   6.657  0.2035 -0.0268  0.2249
   39POPC   C3A  776   7.537   6.970   6.433 -0.3878  0.0741 -0.0619
   39POPC   C4A  777   7.190   6.696   6.513 -0.1461 -0.3023  0.1813
   39POPC   C1B  778   7.506   7.660   7.151 -0.0191 -0.0451  0.0748
   39POPC   C2B  779   7.408   7.709   6.702  0.1084 -0.1547  0.3398
   39POPC   C3B  780   7.466   7.548   6.379 -0.2536 -0.2397 -0.2115
   39POPC   C4B  781   7.567   7.466   5.928  0.1350  0.3349 -0.1536
   40POPC   NC3  782   7.781   7.896   8.161  0.0770 -0.2250  0.2677
   40POPC   PO4  783   7.839   8.346   8.141  0.0027 -0.0686 -0.0539
   40POPC   GL1  784   7.821   8.369   7.735 -0.1879  0.2386 -0.1087
   40POPC   GL2  785   7.540   8.399   7.666 -0.0155  0.0037 -0.3015
   40POPC   C1A  786   7.715   8.182   7.265  0.1963 -0.1547 -0.2944
   40POPC   D2A  787   7.866   8.125   6.770  0.1699 -0.1008  0.0091
   40POPC   C3A  788   7.496   8.138   6.525  0.0003 -0.4651  0.0309
   40POPC   C4A  789   7.361   7.982   6.148 -0.0256  0.0917  0.2055
   40POPC   C1B  790   7.546   8.688   7.294  0.1643  0.3547  0.2791
   40POPC   C2B  791   7.611   9.081   7.083 -0.0337  0.1346  0.2816
   40POPC   C3B  792   7.886   9.412   6.808 -0.0433  0.1363  0.0339
   40POPC   C4B  793   7.946   9.299   6.395 -0.1445  0.3274 -0.1492
   41POPC   NC3  794  10.608   0.933   7.748  0.0789  0.0529 -0.0854
   41POPC   PO4  795  10.995   0.931   7.486 -0.2432  0.0666 -0.1249
   41POPC   GL1  796  11.083   0.788   7.079 -0.2454  0.2011  0.0839
   41POPC   GL2  797  10.926   1.073   6.912  0.0427  0.3570 -0.0161
   41POPC   C1A  798  11.375   0.537   6.766 -0.1723 -0.0094  0.1055
   41POPC   D2A  799  11.303   0.103   6.748  0.2788  0.0001  0.4049
   41POPC   C3A  800  11.122  -0.116   6.388  0.2377  0.1671 -0.0694
   41POPC   C4A  801  10.926  -0.032   5.898 -0.2073  0.2291  0.2357
   41POPC   C1B  802  10.815   0.664   6.707 -0.0596  0.0308  0.1966
   41POPC   C2B  803  11.028   0.366   6.419  0.1591 -0.3017 -0.3685
   41POPC   C3B  804  11.076   0.426   6.074  0.2222  0.2161  0.1667
   41POPC   C4B  805  11.212   0.666   5.667  0.0799 -0.0251 -0.0588
   42POPC   NC3  806   5.980   4.526   6.900 -0.1049 -0.1677  0.0284
   42POPC   PO4  807   5.652   4.534   7.030  0.3009  0.0464 -0.0081
   42POPC   GL1  808   5.498   4.388   6.606  0.2674  0.4690  0.1125
   42POPC   GL2  809   5.389   4.021   6.680  0.2186  0.0442 -0.0616
   42POPC   C1A  810   5.417   4.484   6.149 -0.0387 -0.3704 -0.2430
   42POPC   D2A  811   5.243   4.757   5.779  0.3768 -0.1422  0.0084
   42POPC   C3A  812   4.818   4.918   5.712 -0.2225  0.0105 -0.1393
   42POPC   C4A  813   4.525   5.074   5.321 -0.1714 -0.1291 -0.3944
   42POPC   C1B  814   5.319   3.984   6.272  0.2143 -0.0364 -0.0723
   42POPC   C2B  815   5.410   3.797   5.846  0.1291 -0.1505  0.0008
   42POPC   C3B  816   5.324   3.439   5.469  0.0336  0.2051 -0.3460
   42POPC   C4B  817   5.433   3.055   5.199 -0.0934  0.1774  0.4756
   43POPC   NC3  818   6.305   3.381   7.532 -0.2705  0.1436  0.0566
   43POPC   PO4  819   6.620   3.615   7.325 -0.1907 -0.0150 -0.1654
   43POPC   GL1  820   6.597   3.407   7.003 -0.2881  0.0014 -0.2745
   43POPC   GL2  821   6.527   3.093   7.154  0.0128  0.3865  0.3533
   43POPC   C1A  822   6.672   3.372   6.621 -0.1872 -0.1203  0.3793
   43POPC   D2A  823   6.851   3.563   6.355 -0.2990 -0.0050  0.0260
   43POPC   C3A  824   6.652   3.596   6.063 -0.1307 -0.2862 -0.0436
   43POPC   C4A  825   6.404   3.699   5.701  0.1989 -0.1201  0.0527
   43POPC   C1B  826   6.287   3.119   6.735 -0.2680 -0.1236 -0.2129
   43POPC   C2B  827   6.160   3.302   6.345 -0.0760  0.1745  0.1486
   43POPC   C3B  828   6.198   3.249   5.877 -0.0091  0.0102  0.1109
   43POPC   C4B  829   6.367   3.154   5.585  0.1211  0.4469 -0.0086
   44POPC   NC3  830   3.188   2.632   6.993  0.3100  0.2965  0.1634
   44POPC   PO4  831   2.934   2.452   7.257  0.0010  0.0604  0.1803
   44POPC   GL1  832   2.888   2.079   6.919 -0.1458 -0.3482  0.1002
   44POPC   GL2  833   3.143   2.120   6.792  0.0300  0.2479 -0.2439
   44POPC   C1A  834   2.746   2.214   6.468  0.3221  0.0526 -0.0414
   44POPC   D2A  835   2.509   2.225   6.067  0.0535  0.0100  0.0849
   44POPC   C3A  836   2.721   2.252   5.658  0.0372  0.0411  0.4837
   44POPC   C4A  837   2.818   2.280   5.149 -0.0075 -0.1123  0.0084
   44POPC   C1B  838   3.189   1.861   6.361 -0.0181 -0.0479 -0.0831
   44POPC   C2B  839   3.223   2.080   5.941 -0.2360 -0.0015 -0.0463
   44POPC   C3B  840   3.267   1.910   5.499 -0.0121  0.1958  0.2047
   44POPC   C4B  841   3.340   1.458   5.364 -0.0233 -0.1333  0.0531
   45POPC   NC3  842   0.200   9.707   8.577 -0.0280 -0.1314  0.0595
   45POPC   PO4  843   0.432   9.684   8.288  0.1281 -0.0066 -0.2163
   45POPC   GL1  844   0.138   9.778   8.064 -0.2004  0.0059 -0.1195
   45POPC   GL2  845  -0.151   9.549   8.175  0.4063 -0.0138  0.0414
   45POPC   C1A  846   0.197   9.917   7.586 -0.1630  0.2994 -0.2663
   45POPC   D2A  847   0.048   9.943   7.251 -0.0621 -0.0256  0.1861
   45POPC   C3A  848  -0.362   9.809   7.198  0.1130 -0.0814  0.1528
   45POPC   C4A  849  -0.736   9.763   7.053 -0.0086 -0.4498  0.0997
   45POPC   C1B  850  -0.267   9.840   7.833 -0.2389  0.1672 -0.0311
   45POPC   C2B  851  -0.341  10.226   7.545 -0.0701 -0.0180 -0.0199
   45POPC   C3B  852  -0.352  10.340   7.063 -0.0129  0.1151  0.0063
   45POPC   C4B  853  -0.412  10.486   6.578 -0.1601 -0.5180  0.0707
   46POPC   NC3  854   8.580   5.584   7.228  0.1065  0.0822  0.1928
   46POPC   PO4  855   8.278   5.322   7.112 -0.3695 -0.4301  0.0527
   46POPC   GL1  856   8.399   5.503   6.689  0.1766  0.1214  0.0393
   46POPC   GL2  857   8.494   5.364   6.442  0.1311 -0.0616  0.0119
   46POPC   C1A  858   8.365   5.852   6.312  0.0381  0.1884  0.1339
   46POPC   D2A  859   7.921   6.099   6.173  0.1092 -0.1580 -0.1501
   46POPC   C3A  860   7.972   6.471   5.830 -0.1966 -0.0179 -0.0250
   46POPC   C4A  861   8.259   6.844   5.763  0.3049  0.3431 -0.2543
   46POPC   C1B  862   8.526   5.519   6.040 -0.0546  0.0582  0.1040
   46POPC   C2B  863   8.475   6.002   5.896 -0.2566 -0.0892  0.2215
   46POPC   C3B  864   8.398   6.270   5.588  0.2253  0.1472 -0.0211
   46POPC   C4B  865   8.163   6.183   5.204 -0.0378 -0.0031 -0.3594
   47POPC   NC3  866   2.872   9.290   6.962  0.3271 -0.1959 -0.1132
   47POPC   PO4  867   3.246   9.354   7.170 -0.0261 -0.0542 -0.2035
   47POPC   GL1  868   3.282   9.364   6.721 -0.2011 -0.0550  0.2735
   47POPC   GL2  869   3.053   9.230   6.486  0.0941  0.1151 -0.1534
   47POPC   C1A  870   3.301   9.627   6.379 -0.2193  0.0217  0.3928
   47POPC   D2A  871   3.585   9.853   6.149 -0.1680  0.0354  0.0203
   47POPC   C3A  872   3.401   9.946   5.790 -0.1414 -0.0064  0.1406
   47POPC   C4A  873   2.996  10.254   5.750 -0.1938 -0.1900 -0.0355
   47POPC   C1B  874   3.150   9.329   6.015  0.2432 -0.0579  0.0994
   47POPC   C2B  875   2.837   9.261   5.711 -0.1120 -0.0125  0.1993
   47POPC   C3B  876   2.609   9.507   5.508 -0.0492  0.1068  0.1850
   47POPC   C4B  877   2.895   9.840   5.373 -0.1922  0.1315  0.2421
   48POPC   NC3  878   7.297   2.079   7.175  0.0404 -0.1180 -0.3954
   48POPC   PO4  879   6.854   2.093   7.289  0.0770  0.0914 -0.0774
   48POPC   GL1  880   7.033   2.368   6.891  0.0212 -0.2181  0.1654
   48POPC   GL2  881   7.140   2.652   6.863 -0.1320 -0.0590  0.4414
   48POPC   C1A  882   7.098   2.110   6.484  0.1521 -0.1292  0.0541
   48POPC   D2A  883   7.351   2.306   6.108  0.3887 -0.3228  0.4480
   48POPC   C3A  884   7.174   2.390   5.731 -0.3506  0.0177 -0.1423
   48POPC   C4A  885   6.904   2.703   5.547  0.0418  0.1338  0.2781
   48POPC   C1B  886   7.003   2.614   6.441  0.2514 -0.0718 -0.1203
   48POPC   C2B  887   6.785   2.528   6.053 -0.1765 -0.2717  0.1979
   48POPC   C3B  888   6.707   2.240   5.700  0.2506  0.0242  0.2601
   48POPC   C4B  889   6.665   2.379   5.206 -0.1982  0.1315  0.1889
   49POPC   NC3  890   7.276   8.656   7.983 -0.0669 -0.1499 -0.2569
   49POPC   PO4  891   6.975   8.485   7.809 -0.0180 -0.0402  0.2052
   49POPC   GL1  892   6.945   8.503   7.343 -0.0168 -0.1186 -0.2244
   49POPC   GL2  893   7.157   8.276   7.166  0.1896  0.0078 -0.1027
   49POPC   C1A  894   7.029   8.877   7.167 -0.0622 -0.3445 -0.3375
   49POPC   D2A  895   6.870   9.148   6.787 -0.2209 -0.0223  0.1400
   49POPC   C3A  896   6.529   8.949   6.482  0.2024 -0.2678 -0.5915
   49POPC   C4A  897   6.194   8.920   6.186  0.1554  0.0867 -0.1397
   49POPC   C1B  898   7.401   8.425   6.901  0.1984 -0.1950  0.4133
   49POPC   C2B  899   7.368   8.801   6.744  0.1867  0.2128 -0.0097
   49POPC   C3B  900   7.236   9.002   6.394  0.1115 -0.3289 -0.5168
   49POPC   C4B  901   6.930   8.982   6.163  0.0065  0.0684 -0.2422
   50POPC   NC3  902   1.321   8.009   7.893  0.2408  0.1385 -0.0529
   50POPC   PO4  903   1.639   8.016   7.579 -0.0434  0.0655  0.1713
   50POPC   GL1  904   1.602   8.155   7.175  0.0324 -0.1125  0.2829
   50POPC   GL2  905   1.585   7.923   6.996 -0.0940 -0.1917  0.0377
   50POPC   C1A  906   1.180   8.300   6.990  0.2575  0.1624  0.1200
   50POPC   D2A  907   0.893   8.348   6.779  0.0855  0.0984  0.3102
   50POPC   C3A  908   0.909   8.637   6.470  0.1724  0.1827  0.2823
   50POPC   C4A  909   0.929   9.054   6.193  0.0101  0.2232 -0.1460
   50POPC   C1B  910   1.575   7.623   6.686 -0.1999  0.2837  0.1832
   50POPC   C2B  911   1.417   7.480   6.235 -0.1994  0.2416 -0.0563
   50POPC   C3B  912   1.270   7.251   5.959  0.0497  0.0687 -0.1197
   50POPC   C4B  913   1.244   6.814   5.824 -0.3374  0.2458  0.1995
   51POPC   NC3  914   9.587   1.942   7.139  0.0414 -0.1400 -0.0555
   51POPC   PO4  915   9.756   2.285   7.001  0.1847 -0.1319 -0.0002
   51POPC   GL1  916  10.016   2.333   6.643  0.0645  0.2816  0.2280
   51POPC   GL2  917  10.301   2.466   6.574  0.0594 -0.0643 -0.1006
   51POPC   C1A  918  10.200   2.143   6.207  0.1073  0.0645  0.3415
   51POPC   D2A  919  10.084   2.078   5.685 -0.0868 -0.2804 -0.1738
   51POPC   C3A  920  10.325   1.724   5.824 -0.2003 -0.1717 -0.1518
   51POPC   C4A  921  10.471   1.332   5.975 -0.1311 -0.0822  0.0761
   51POPC   C1B  922  10.603   2.572   6.307  0.0247 -0.2904  0.4525
   51POPC   C2B  923  10.784   2.641   5.896 -0.1668 -0.2168 -0.0879
   51POPC   C3B  924  11.108   2.959   5.801  0.0934  0.1218 -0.1361
   51POPC   C4B  925  11.301   3.237   5.537  0.1126 -0.0295  0.0936
   52POPC   NC3  926   4.458   0.130   7.485  0.2906  0.0012  0.5549
   52POPC   PO4  927   4.750   0.042   7.115 -0.1297 -0.1170 -0.0447
   52POPC   GL1  928   4.657   0.192   6.776  0.1802 -0.2116  0.1985
   52POPC   GL2  929   4.921   0.226   6.617  0.1121  0.0145  0.1835
   52POPC   C1A  930   4.443   0.223   6.389 -0.0803  0.1665  0.1730
   52POPC   D2A  931   4.115   0.436   6.305 -0.0137 -0.1761 -0.1192
   52POPC   C3A  932   3.889   0.667   6.037  0.3200  0.0945  0.4472
   52POPC   C4A  933   3.448   0.933   5.973 -0.2191 -0.1812  0.4655
   52POPC   C1B  934   4.911   0.297   6.125  0.1339 -0.1605 -0.0292
   52POPC   C2B  935   5.027   0.643   5.806  0.0120 -0.0292 -0.1164
   52POPC   C3B  936   5.190   1.009   5.521  0.5783 -0.1597  0.0945
   52POPC   C4B  937   5.192   1.321   5.756 -0.2191 -0.1612 -0.2484
   53POPC   NC3  938   3.523   6.717   7.200  0.2083  0.2264  0.0754
   53POPC   PO4  939   3.934   6.342   7.308  0.3446  0.0709  0.4818
   53POPC   GL1  940   3.746   6.489   6.862 -0.0241 -0.1433 -0.0869
   53POPC   GL2  941   3.427   6.598   6.716 -0.1190  0.1671  0.1988
   53POPC   C1A  942   4.054   6.363   6.509 -0.0211 -0.3329  0.2779
   53POPC   D2A  943   3.939   6.648   6.124  0.0590  0.2634  0.0003
   53POPC   C3A  944   3.818   7.057   6.027  0.1400  0.2126 -0.0390
   53POPC   C4A  945   3.572   7.167   5.651 -0.2044 -0.0398 -0.0119
   53POPC   C1B  946   3.725   6.885   6.493  0.0214 -0.1190  0.0081
   53POPC   C2B  947   3.626   7.352   6.371  0.0230  0.2143 -0.0899
   53POPC   C3B  948   3.595   7.496   5.993  0.2619 -0.1956 -0.4486
   53POPC   C4B  949   3.558   7.703   5.606  0.0535  0.1039 -0.3035
   54POPC   NC3  950   4.969   8.716   7.236  0.1683 -0.1396  0.1118
   54POPC   PO4  951   4.662   8.420   7.200 -0.2420  0.0631 -0.2102
   54POPC   GL1  952   4.637   8.276   6.768 -0.0947  0.0296 -0.0335
   54POPC   GL2  953   4.270   8.279   6.628  0.1574 -0.0850 -0.0586
   54POPC   C1A  954   4.930   8.089   6.424 -0.1426  0.0787  0.0053
   54POPC   D2A  955   5.164   8.024   6.018  0.0589  0.0311  0.3348
   54POPC   C3A  956   5.245   8.180   5.755 -0.0562  0.0407  0.1461
   54POPC   C4A  957   5.121   8.307   5.412  0.0423  0.2989 -0.3315
   54POPC   C1B  958   4.494   8.321   6.249 -0.1430  0.0062  0.0451
   54POPC   C2B  959   4.799   8.417   5.929  0.0642 -0.2069 -0.3469
   54POPC   C3B  960   4.753   8.674   5.551 -0.3274  0.1368 -0.3909
   54POPC   C4B  961   4.554   8.975   5.366  0.0410 -0.0736 -0.2224
   55POPC   NC3  962   6.329   7.700   7.411  0.0277  0.1453 -0.0798
   55POPC   PO4  963   5.968   7.559   7.272 -0.2913 -0.0516 -0.0580
   55POPC   GL1  964   6.139   7.869   6.881  0.1554 -0.0063 -0.2117
   55POPC   GL2  965   6.406   7.948   6.711  0.1485  0.0972 -0.4326
   55POPC   C1A  966   5.943   7.982   6.445  0.1250  0.0014 -0.1647
   55POPC   D2A  967   6.170   7.857   5.975 -0.0297 -0.0537 -0.0964
   55POPC   C3A  968   6.218   8.107   5.802 -0.0721 -0.1586 -0.0705
   55POPC   C4A  969   6.291   8.440   5.592 -0.3169 -0.0528  0.1004
   55POPC   C1B  970   6.382   7.525   6.415 -0.0527  0.0197 -0.0577
   55POPC   C2B  971   6.566   7.263   6.088  0.2143  0.0413  0.0122
   55POPC   C3B  972   6.651   7.004   5.736 -0.0830  0.0593 -0.2255
   55POPC   C4B  973   6.561   6.526   5.699 -0.1917  0.2906 -0.0628
   56POPC   NC3  974   6.789   4.987   7.031  0.2585  0.1563 -0.0068
   56POPC   PO4  975   6.437   5.251   7.120 -0.0434  0.1606 -0.1096
   56POPC   GL1  976   6.565   5.603   6.866 -0.1885 -0.0547 -0.0788
   56POPC   GL2  977   6.646   5.274   6.663  0.2729  0.1110 -0.0015
   56POPC   C1A  978   6.737   5.761   6.496 -0.2070  0.0950 -0.2887
   56POPC   D2A  979   7.088   5.773   6.193  0.1949  0.2953 -0.1555
   56POPC   C3A  980   7.152   6.076   5.932  0.2054  0.4130 -0.0338
   56POPC   C4A  981   7.084   6.453   5.912 -0.0129 -0.1185 -0.1546
   56POPC   C1B  982   6.446   4.997   6.281 -0.0543 -0.0824 -0.0359
   56POPC   C2B  983   6.295   4.923   5.909 -0.2022  0.0057 -0.0793
   56POPC   C3B  984   6.074   5.010   5.542  0.0277 -0.1833  0.0286
   56POPC   C4B  985   6.023   4.732   5.225  0.1195  0.0385  0.1192
   57POPC   NC3  986   1.513   8.537   7.920 -0.2616  0.2241  0.1156
   57POPC   PO4  987   1.479   8.942   7.609  0.3046  0.2429  0.0274
   57POPC   GL1  988   1.233   8.992   7.274  0.0804 -0.0571  0.2039
   57POPC   GL2  989   1.382   8.854   6.987 -0.1470 -0.0944 -0.0495
   57POPC   C1A  990   0.921   8.956   6.890  0.3279 -0.0082 -0.0870
   57POPC   D2A  991   0.599   9.038   6.539  0.1980 -0.1416 -0.3369
   57POPC   C3A  992   0.474   8.715   6.278 -0.0555 -0.0109  0.1652
   57POPC   C4A  993   0.446   8.587   5.757  0.0380 -0.0428  0.1704
   57POPC   C1B  994   1.406   8.872   6.508  0.1015  0.2605 -0.2188
   57POPC   C2B  995   1.429   8.899   6.076  0.1820  0.0677 -0.2571
   57POPC   C3B  996   1.367   8.703   5.787  0.0752 -0.0220  0.0316
   57POPC   C4B  997   1.329   8.421   5.450 -0.1179  0.1817  0.1431
   58POPC   NC3  998   4.239   9.031   7.723  0.0657 -0.2139 -0.2761
   58POPC   PO4  999   4.225   8.657   7.424  0.2847  0.0826 -0.4582
   58POPC   GL1 1000   4.186   8.741   6.949  0.4092 -0.1343  0.1158
   58POPC   GL2 1001   4.551   8.872   6.914 -0.0622 -0.0155  0.1809
   58POPC   C1A 1002   4.063   8.877   6.563 -0.2129  0.0267  0.1225
   58POPC   D2A 1003   4.070   9.131   6.142  0.0454  0.1920 -0.1167
   58POPC   C3A 1004   4.095   9.618   6.093  0.1858  0.2066  0.0037
   58POPC   C4A 1005   4.064  10.069   6.421  0.3018 -0.0913 -0.0757
   58POPC   C1B 1006   4.517   8.774   6.466  0.1906  0.1357  0.0352
   58POPC   C2B 1007   4.455   8.773   5.991 -0.2601 -0.5553 -0.2394
   58POPC   C3B 1008   4.108   8.777   5.741  0.4128  0.0572 -0.0825
   58POPC   C4B 1009   3.973   8.433   5.412  0.0485 -0.0373 -0.1784
   59POPC   NC3 1010   0.592   2.791   7.409  0.1310  0.1572 -0.2453
   59POPC   PO4 1011   0.360   2.792   7.019  0.0270  0.3722  0.1826
   59POPC   GL1 1012   0.390   2.927   6.655 -0.0516 -0.3274 -0.1424
   59POPC   GL2 1013   0.107   3.146   6.586  0.3313  0.0730 -0.2178
   59POPC   C1A 1014   0.378   2.733   6.274  0.0583 -0.0923 -0.2498
   59POPC   D2A 1015   0.424   2.333   5.898 -0.1295 -0.2487  0.1943
   59POPC   C3A 1016   0.223   2.346   5.453  0.0045 -0.0120  0.2003
   59POPC   C4A 1017  -0.139   2.514   5.296 -0.1613  0.1216 -0.0567
   59POPC   C1B 1018  -0.096   3.049   6.173  0.0969 -0.1751 -0.0827
   59POPC   C2B 1019  -0.204   3.013   5.744  0.3403  0.0657 -0.3024
   59POPC   C3B 1020   0.077   3.008   5.377 -0.1981 -0.1035 -0.0464
   59POPC   C4B 1021   0.225   3.159   5.017 -0.1106  0.2029  0.2775
   60POPC   NC3 1022   9.486   4.653   6.965  0.0527 -0.1445 -0.2932
   60POPC   PO4 1023   9.828   4.744   6.833  0.0387  0.1749 -0.1865
   60POPC   GL1 1024   9.640   4.961   6.437  0.1051 -0.0676 -0.1666
   60POPC   GL2 1025   9.491   5.256   6.478  0.2892  0.1914 -0.0585
   60POPC   C1A 1026   9.467   5.083   5.912 -0.3330 -0.2078 -0.1660
   60POPC   D2A 1027   9.625   5.427   5.526  0.3213  0.1176 -0.0078
   60POPC   C3A 1028   9.867   5.318   5.133 -0.0397  0.1887 -0.0262
   60POPC   C4A 1029  10.124   5.277   4.743  0.1292  0.2817 -0.1792
   60POPC   C1B 1030   9.574   5.488   6.115  0.0002 -0.1198 -0.1189
   60POPC   C2B 1031   9.790   5.802   5.871  0.1618 -0.3955  0.3314
   60POPC   C3B 1032   9.854   5.818   5.384 -0.2587 -0.1199 -0.0802
   60POPC   C4B 1033   9.643   6.113   5.035  0.0667  0.1572 -0.0435
   61POPC   NC3 1034   1.040   3.213   7.321  0.0976  0.1611 -0.4981
   61POPC   PO4 1035   0.953   3.494   6.942 -0.3568 -0.0832  0.0327
   61POPC   GL1 1036   1.052   3.255   6.541  0.0560  0.3364 -0.0959
   61POPC   GL2 1037   1.306   3.028   6.745  0.0677  0.2251  0.1339
   61POPC   C1A 1038   1.186   3.434   6.064  0.0012  0.2593 -0.0725
   61POPC   D2A 1039   1.108   3.763   5.777 -0.0574 -0.3344 -0.0863
   61POPC   C3A 1040   0.982   3.497   5.405 -0.0228 -0.5462 -0.1051
   61POPC   C4A 1041   0.752   3.339   5.059 -0.0666 -0.0839  0.0828
   61POPC   C1B 1042   1.555   3.256   6.409  0.0525 -0.1330 -0.1385
   61POPC   C2B 1043   1.747   3.555   6.058  0.0556 -0.0961  0.0697
   61POPC   C3B 1044   1.818   3.649   5.751  0.2535  0.2631  0.3281
   61POPC   C4B 1045   1.470   3.568   5.473 -0.0034 -0.0662 -0.1790
   62POPC   NC3 1046   6.056  10.090   7.350  0.2534 -0.1227 -0.2024
   62POPC   PO4 1047   5.916   9.725   7.216  0.1352 -0.1378 -0.3670
   62POPC   GL1 1048   5.645   9.689   6.822  0.0584  0.2889 -0.0010
   62POPC   GL2 1049   5.434   9.447   6.756 -0.0931  0.1032  0.0825
   62POPC   C1A 1050   5.514   9.790   6.337 -0.2662 -0.1414 -0.1087
   62POPC   D2A 1051   5.631   9.736   5.927  0.0711 -0.1028  0.3972
   62POPC   C3A 1052   5.508   9.335   5.809  0.0407  0.3095 -0.0437
   62POPC   C4A 1053   5.718   8.983   5.624 -0.3325  0.0464 -0.2157
   62POPC   C1B 1054   5.411   9.287   6.359  0.1539 -0.1320  0.1399
   62POPC   C2B 1055   5.561   8.877   6.108 -0.2102 -0.0869  0.0232
   62POPC   C3B 1056   5.398   8.617   5.825 -0.3877 -0.0347 -0.3674
   62POPC   C4B 1057   5.442   8.675   5.340 -0.1436 -0.0984  0.0161
   63POPC   NC3 1058   3.792   0.235   7.164  0.1484 -0.1646  0.1945
   63POPC   PO4 1059   3.429   0.428   7.507 -0.1228  0.1512  0.0354
   63POPC   GL1 1060   3.249   0.201   7.110  0.2752 -0.1358  0.1360
   63POPC   GL2 1061   2.938   0.032   7.089  0.0314  0.1634 -0.1118
   63POPC   C1A 1062   3.239  -0.236   6.818 -0.4013 -0.3455 -0.1798
   63POPC   D2A 1063   3.020  -0.464   6.477 -0.0433 -0.0004 -0.2098
   63POPC   C3A 1064   3.103  -0.680   6.201 -0.2656  0.1008 -0.0945
   63POPC   C4A 1065   2.964  -0.977   5.884  0.1264  0.0756 -0.0973
   63POPC   C1B 1066   2.761   0.008   6.626 -0.1879 -0.1398 -0.4826
   63POPC   C2B 1067   2.770  -0.205   6.136  0.0823  0.0661 -0.1412
   63POPC   C3B 1068   2.550  -0.286   5.786 -0.0596 -0.0917  0.4832
   63POPC   C4B 1069   2.290  -0.310   5.481  0.1095 -0.2965  0.0371
   64POPC   NC3 1070   2.671   8.328   7.021 -0.3159 -0.1147 -0.2830
   64POPC   PO4 1071   2.662   8.814   6.997 -0.0768  0.1034  0.3871
   64POPC   GL1 1072   2.436   8.582   6.714  0.1412  0.1527  0.0975
   64POPC   GL2 1073   2.130   8.438   6.885 -0.1089  0.0555  0.3708
   64POPC   C1A 1074   2.235   8.488   6.429  0.0684 -0.1156  0.1312
   64POPC   D2A 1075   1.924   8.389   6.232 -0.0811 -0.0092 -0.3130
   64POPC   C3A 1076   1.688   8.329   5.805  0.1281 -0.0436  0.0566
   64POPC   C4A 1077   1.692   8.042   5.506 -0.0816  0.0450 -0.2744
   64POPC   C1B 1078   1.744   8.553   6.835  0.0451  0.2496  0.2471
   64POPC   C2B 1079   1.465   8.352   6.510 -0.0005  0.1900 -0.5430
   64POPC   C3B 1080   1.297   8.428   6.226  0.2704  0.3422 -0.1898
   64POPC   C4B 1081   0.931   8.501   5.926  0.0865 -0.2618 -0.0928
   65POPC   NC3 1082  10.197   5.225   7.591 -0.2233 -0.0546 -0.0394
   65POPC   PO4 1083  10.159   5.678   7.618 -0.4059  0.3393 -0.0605
   65POPC   GL1 1084   9.903   5.955   7.310  0.2580 -0.1191 -0.1742
   65POPC   GL2 1085  10.123   6.044   7.061 -0.1205  0.4721 -0.0502
   65POPC   C1A 1086   9.683   6.249   6.935  0.2026  0.0085  0.0934
   65POPC   D2A 1087   9.682   6.650   6.767  0.3776  0.1769 -0.0487
   65POPC   C3A 1088   9.679   7.165   6.715 -0.1875 -0.0206  0.0639
   65POPC   C4A 1089  10.022   7.446   6.766 -0.0940 -0.0234 -0.0454
   65POPC   C1B 1090  10.086   6.049   6.695  0.0252 -0.3439 -0.2487
   65POPC   C2B 1091   9.758   6.201   6.455  0.1254 -0.0324 -0.0399
   65POPC   C3B 1092   9.625   6.339   6.091 -0.2855 -0.2938 -0.1075
   65POPC   C4B 1093   9.477   6.792   5.929 -0.0413  0.1612 -0.4294
   66POPC   NC3 1094   7.638   5.036   7.583 -0.1698 -0.0191 -0.1530
   66POPC   PO4 1095   7.832   5.422   7.408  0.1768 -0.0901  0.1552
   66POPC   GL1 1096   7.911   5.718   7.081  0.2380 -0.1121 -0.4740
   66POPC   GL2 1097   8.208   5.804   7.039 -0.1342 -0.0553 -0.1601
   66POPC   C1A 1098   7.963   5.934   6.661 -0.0804  0.1637  0.0105
   66POPC   D2A 1099   8.161   6.276   6.640  0.1519 -0.1306 -0.0118
   66POPC   C3A 1100   8.324   6.376   6.262  0.3898  0.2476  0.1169
   66POPC   C4A 1101   8.539   6.493   5.973 -0.0554 -0.2781  0.2277
   66POPC   C1B 1102   8.585   5.951   6.751  0.1502 -0.5169 -0.1767
   66POPC   C2B 1103   8.735   6.183   6.395 -0.3569  0.3235  0.2756
   66POPC   C3B 1104   9.015   6.279   6.120 -0.1006  0.0631  0.0681
   66POPC   C4B 1105   9.003   6.346   5.783 -0.2832 -0.0798 -0.0050
   67POPC   NC3 1106   4.377   2.957   7.088 -0.2271  0.0126 -0.0318
   67POPC   PO4 1107   4.272   3.284   6.722  0.3815 -0.0825 -0.1003
   67POPC   GL1 1108   4.465   3.323   6.321 -0.0412 -0.1809  0.1878
   67POPC   GL2 1109   4.385   3.026   6.200  0.1335  0.0364 -0.1385
   67POPC   C1A 1110   4.475   3.466   5.881  0.0562 -0.0429 -0.1461
   67POPC   D2A 1111   4.783   3.638   5.560 -0.0451  0.2907 -0.0407
   67POPC   C3A 1112   4.903   3.415   5.189 -0.1079  0.0601 -0.3113
   67POPC   C4A 1113   4.638   3.196   4.862  0.1710 -0.0815  0.2134
   67POPC   C1B 1114   4.204   3.067   5.805 -0.1074 -0.0270 -0.0763
   67POPC   C2B 1115   3.918   3.473   5.769 -0.1998  0.3302  0.1615
   67POPC   C3B 1116   3.636   3.707   5.505 -0.3442 -0.0152 -0.1502
   67POPC   C4B 1117   3.310   3.899   5.304  0.0011 -0.0090  0.3495
   68POPC   NC3 1118   5.490   7.460   7.465  0.1837 -0.0528  0.4194
   68POPC   PO4 1119   5.660   7.006   7.450 -0.1043 -0.0376 -0.1019
   68POPC   GL1 1120   5.646   7.219   7.033 -0.1039  0.2017  0.2692
   68POPC   GL2 1121   5.873   7.130   6.782  0.0293 -0.0654 -0.3471
   68POPC   C1A 1122   5.384   7.258   6.664  0.0491 -0.1606  0.2926
   68POPC   D2A 1123   5.330   7.072   6.284 -0.0228  0.2707 -0.0028
   68POPC   C3A 1124   5.084   7.159   5.876 -0.0245 -0.1266  0.0872
   68POPC   C4A 1125   5.181   7.320   5.363  0.0389  0.0694  0.3244
   68POPC   C1B 1126   5.815   7.150   6.369 -0.2807  0.0635  0.0457
   68POPC   C2B 1127   6.036   7.304   5.995  0.3118  0.0146  0.0508
   68POPC   C3B 1128   6.315   7.382   5.645  0.2996  0.0439 -0.0034
   68POPC   C4B 1129   6.399   7.570   5.245 -0.0434 -0.0751 -0.0344
   69POPC   NC3 1130   1.861   3.279   7.591  0.1505 -0.1478 -0.3201
   69POPC   PO4 1131   1.609   3.197   7.137 -0.3496 -0.0670 -0.0823
   69POPC   GL1 1132   1.475   3.481   6.846 -0.0656 -0.0514  0.2892
   69POPC   GL2 1133   1.740   3.710   6.720 -0.2061 -0.1078  0.0014
   69POPC   C1A 1134   1.271   3.745   6.478  0.2648  0.2166 -0.1362
   69POPC   D2A 1135   1.420   3.950   6.101  0.1405  0.0414  0.2162
   69POPC   C3A 1136   1.134   4.219   6.015 -0.1737  0.0773  0.2163
   69POPC   C4A 1137   0.881   4.688   5.993 -0.0295  0.1133 -0.0514
   69POPC   C1B 1138   1.793   4.001   6.419 -0.0840  0.1661 -0.1094
   69POPC   C2B 1139   2.168   4.047   6.243  0.0175  0.1274 -0.0726
   69POPC   C3B 1140   2.343   4.217   5.887 -0.0943  0.2192  0.1807
   69POPC   C4B 1141   2.564   4.506   5.599  0.0266 -0.0955 -0.0251
   70POPC   NC3 1142   2.259   1.989   7.600  0.1893  0.0425 -0.1416
   70POPC   PO4 1143   2.563   1.981   7.291 -0.4160 -0.5677 -0.2410
   70POPC   GL1 1144   2.450   2.257   6.933  0.2155  0.1575  0.3601
   70POPC   GL2 1145   2.685   2.534   6.834 -0.1539  0.4391 -0.1155
   70POPC   C1A 1146   2.147   2.416   6.543 -0.1639  0.0798  0.0048
   70POPC   D2A 1147   1.674   2.360   6.568  0.0264 -0.1018  0.1264
   70POPC   C3A 1148   1.645   2.095   6.261  0.1783  0.1901  0.0871
   70POPC   C4A 1149   1.318   1.923   6.036 -0.0380  0.2286  0.1608
   70POPC   C1B 1150   2.898   2.602   6.290  0.1000 -0.2374  0.1463
   70POPC   C2B 1151   2.730   2.712   5.878 -0.1334 -0.1319 -0.2309
   70POPC   C3B 1152   2.389   2.617   5.617  0.3016 -0.1368  0.0295
   70POPC   C4B 1153   2.327   2.415   5.302 -0.0011  0.0756 -0.3927
   71POPC   NC3 1154   1.358   0.065   7.905  0.3083  0.0113  0.0185
   71POPC   PO4 1155   1.635   0.275   7.632 -0.0946  0.0004 -0.2246
   71POPC   GL1 1156   1.497   0.122   7.231  0.3002  0.0557 -0.0064
   71POPC   GL2 1157   1.212  -0.027   7.222  0.2867 -0.2117 -0.1308
   71POPC   C1A 1158   1.486   0.069   6.777  0.2370 -0.3726 -0.0212
   71POPC   D2A 1159   1.078  -0.001   6.525 -0.1170 -0.0747 -0.1143
   71POPC   C3A 1160   0.920  -0.338   6.208 -0.1618 -0.1732  0.1485
   71POPC   C4A 1161   1.345  -0.477   6.284  0.1324  0.1101 -0.3787
   71POPC   C1B 1162   1.053   0.322   6.977  0.1993  0.2538 -0.3613
   71POPC   C2B 1163   1.124   0.494   6.724 -0.0232 -0.0712 -0.2289
   71POPC   C3B 1164   1.329   0.438   6.412 -0.0442  0.0496 -0.1473
   71POPC   C4B 1165   1.280   0.604   5.973  0.0868  0.1746  0.0065
   72POPC   NC3 1166   2.081   8.143   7.268  0.1658  0.1432 -0.1405
   72POPC   PO4 1167   2.459   7.894   7.221 -0.2245 -0.0273  0.0701
   72POPC   GL1 1168   2.316   7.959   6.764  0.0429  0.0756  0.1308
   72POPC   GL2 1169   2.095   7.861   6.730  0.2627 -0.0756 -0.3847
   72POPC   C1A 1170   2.377   7.962   6.341 -0.0572  0.0523 -0.2398
   72POPC   D2A 1171   2.083   8.079   5.930 -0.0887 -0.0660  0.0209
   72POPC   C3A 1172   2.078   7.705   5.581  0.1584 -0.0485  0.1740
   72POPC   C4A 1173   1.747   7.445   5.411 -0.2474  0.2321 -0.0456
   72POPC   C1B 1174   1.832   8.021   6.560  0.3240 -0.0745 -0.0453
   72POPC   C2B 1175   1.566   7.974   6.204  0.1185 -0.1940 -0.1182
   72POPC   C3B 1176   1.215   8.056   5.945  0.2144 -0.0108 -0.1219
   72POPC   C4B 1177   1.054   8.080   5.585 -0.3771 -0.0354 -0.5039
   73POPC   NC3 1178   1.562   2.369   7.050 -0.3474 -0.2552  0.0954
   73POPC   PO4 1179   1.311   2.003   7.314 -0.1182  0.2581 -0.1969
   73POPC   GL1 1180   1.086   2.132   6.885 -0.0486  0.0878  0.0460
   73POPC   GL2 1181   1.217   2.438   6.670  0.1393 -0.0979 -0.2926
   73POPC   C1A 1182   1.100   1.978   6.498 -0.0443 -0.1337  0.0798
   73POPC   D2A 1183   0.910   1.728   6.234  0.2084 -0.1530  0.0979
   73POPC   C3A 1184   0.549   1.812   5.971 -0.1543  0.0034  0.0599
   73POPC   C4A 1185   0.456   1.630   5.552 -0.0743 -0.1904 -0.0179
   73POPC   C1B 1186   1.375   2.661   6.304  0.1422  0.1023  0.1063
   73POPC   C2B 1187   1.487   2.493   5.931  0.0886  0.0369  0.1124
   73POPC   C3B 1188   1.314   2.631   5.601 -0.0601  0.1807  0.0362
   73POPC   C4B 1189   1.386   2.560   5.198  0.1484 -0.1066  0.3117
   74POPC   NC3 1190   2.833   7.422   7.181 -0.2671 -0.2517  0.0397
   74POPC   PO4 1191   3.123   7.028   7.284 -0.3739  0.2798 -0.1543
   74POPC   GL1 1192   3.155   7.004   6.845  0.2238 -0.3240 -0.0234
   74POPC   GL2 1193   2.932   7.324   6.682  0.0741  0.0703  0.1360
   74POPC   C1A 1194   3.204   6.878   6.379 -0.0331 -0.1136 -0.1456
   74POPC   D2A 1195   3.370   6.665   5.993 -0.0049  0.1176 -0.1090
   74POPC   C3A 1196   3.676   6.605   5.639  0.0713 -0.4606 -0.1833
   74POPC   C4A 1197   3.803   6.119   5.419 -0.0841  0.1619  0.0517
   74POPC   C1B 1198   3.118   7.461   6.205  0.1887 -0.2606 -0.0214
   74POPC   C2B 1199   3.076   7.588   5.835  0.0179  0.1939  0.2097
   74POPC   C3B 1200   3.131   7.395   5.417 -0.0544  0.0259 -0.2138
   74POPC   C4B 1201   3.393   7.069   5.138 -0.0661 -0.1178 -0.1996
   75POPC   NC3 1202   0.167   4.658   7.052  0.0814 -0.1146  0.3704
   75POPC   PO4 1203  -0.080   4.501   6.714  0.0806  0.2312  0.1697
   75POPC   GL1 1204  -0.199   4.556   6.267 -0.0475  0.2165 -0.1611
   75POPC   GL2 1205  -0.284   4.226   6.249  0.2769  0.0122  0.0813
   75POPC   C1A 1206  -0.020   4.646   5.866 -0.0805  0.1594 -0.1118
   75POPC   D2A 1207   0.290   4.504   5.517  0.1176  0.0226  0.0052
   75POPC   C3A 1208   0.327   4.674   5.101 -0.2394 -0.1808 -0.3582
   75POPC   C4A 1209   0.330   4.511   4.639  0.1017  0.1033 -0.4413
   75POPC   C1B 1210   0.073   4.090   5.977 -0.2620  0.3092  0.0750
   75POPC   C2B 1211   0.172   4.000   5.596  0.1725 -0.3348  0.0948
   75POPC   C3B 1212   0.112   3.660   5.235 -0.1746 -0.2179 -0.0016
   75POPC   C4B 1213   0.342   3.663   4.825  0.2681  0.1617  0.1993
   76POPC   NC3 1214  10.688   3.228   7.053 -0.0620 -0.0257 -0.1322
   76POPC   PO4 1215  10.454   2.856   6.916 -0.4008 -0.3351  0.2780
   76POPC   GL1 1216  10.333   2.962   6.541 -0.1748  0.0895  0.1846
   76POPC   GL2 1217  10.246   3.330   6.538  0.0006  0.1197 -0.0945
   76POPC   C1A 1218  10.206   2.839   6.131 -0.1461 -0.2879  0.0515
   76POPC   D2A 1219  10.306   2.582   5.862 -0.0290  0.0223 -0.0350
   76POPC   C3A 1220  10.612   2.213   5.812  0.1767 -0.1096 -0.2197
   76POPC   C4A 1221  10.833   1.885   5.782 -0.0792 -0.2493  0.2435
   76POPC   C1B 1222  10.340   3.428   6.074 -0.0087 -0.2980  0.1738
   76POPC   C2B 1223  10.151   3.342   5.691 -0.3146 -0.1643  0.1424
   76POPC   C3B 1224   9.839   3.193   5.359 -0.4257 -0.0171  0.2327
   76POPC   C4B 1225   9.478   3.099   5.056  0.4528  0.0799 -0.0172
   77POPC   NC3 1226   6.223   7.002   7.897  0.3917  0.1918 -0.3033
   77POPC   PO4 1227   6.483   7.237   7.610 -0.0582  0.0255 -0.2059
   77POPC   GL1 1228   6.746   7.456   7.304 -0.1799 -0.1434  0.1914
   77POPC   GL2 1229   6.968   7.689   7.242 -0.0435 -0.1108  0.4054
   77POPC   C1A 1230   6.739   7.565   6.782  0.1297 -0.0417 -0.4078
   77POPC   D2A 1231   7.002   7.531   6.441  0.2256 -0.4147 -0.0111
   77POPC   C3A 1232   7.126   7.177   6.269 -0.1832 -0.1820 -0.2123
   77POPC   C4A 1233   7.177   7.121   5.844 -0.1862 -0.0997  0.2284
   77POPC   C1B 1234   7.020   8.007   6.747 -0.0444  0.1229 -0.2847
   77POPC   C2B 1235   6.881   8.029   6.369  0.1722  0.1956 -0.3144
   77POPC   C3B 1236   6.645   7.775   6.022  0.1968 -0.0870  0.0739
   77POPC   C4B 1237   6.610   7.829   5.585 -0.2248  0.1343  0.1468
   78POPC   NC3 1238   8.077   6.712   7.760 -0.1399  0.3530  0.2468
   78POPC   PO4 1239   8.490   6.840   7.797 -0.0213 -0.0824 -0.0440
   78POPC   GL1 1240   8.565   6.691   7.402 -0.2813 -0.0569 -0.0000
   78POPC   GL2 1241   8.430   6.923   7.156  0.0230 -0.0269 -0.3141
   78POPC   C1A 1242   8.569   6.534   6.914  0.2236 -0.0364 -0.1256
   78POPC   D2A 1243   8.602   6.724   6.442  0.0200 -0.5659  0.4500
   78POPC   C3A 1244   8.536   7.055   6.171 -0.1719 -0.0623  0.2370
   78POPC   C4A 1245   8.451   7.400   5.779 -0.4174  0.1129 -0.4028
   78POPC   C1B 1246   8.653   7.144   6.888  0.1189 -0.1795 -0.0724
   78POPC   C2B 1247   8.930   7.163   6.480 -0.0672  0.2594 -0.1945
   78POPC   C3B 1248   8.969   6.775   6.096  0.0799 -0.0079 -0.1622
   78POPC   C4B 1249   8.999   6.826   5.656  0.0768  0.0045  0.2021
   79POPC   NC3 1250   8.139   1.734   7.339  0.1873  0.0868 -0.0161
   79POPC   PO4 1251   7.813   1.812   7.198  0.0283  0.2841  0.0170
   79POPC   GL1 1252   7.585   1.949   6.786 -0.1917  0.1131 -0.1340
   79POPC   GL2 1253   7.574   2.246   6.634  0.2231  0.0849 -0.0591
   79POPC   C1A 1254   7.488   1.806   6.338 -0.1750 -0.2134 -0.0575
   79POPC   D2A 1255   7.343   1.522   5.997 -0.0781 -0.1115 -0.0802
   79POPC   C3A 1256   7.677   1.166   5.808 -0.2026 -0.1052 -0.0287
   79POPC   C4A 1257   7.570   0.768   5.665  0.0829  0.1016 -0.1326
   79POPC   C1B 1258   7.862   2.261   6.246 -0.1230 -0.2598 -0.0696
   79POPC   C2B 1259   7.746   2.036   5.823  0.1784  0.0664 -0.2079
   79POPC   C3B 1260   7.556   2.229   5.414  0.0824 -0.2658  0.0832
   79POPC   C4B 1261   7.146   2.365   5.244  0.1858  0.0591 -0.3223
   80POPC   NC3 1262   7.938   9.016   8.173 -0.2867 -0.1970  0.2527
   80POPC   PO4 1263   7.817   9.360   7.871  0.0108  0.0215  0.2643
   80POPC   GL1 1264   8.141   9.190   7.694  0.0387 -0.0013  0.2365
   80POPC   GL2 1265   7.954   9.351   7.323 -0.1276 -0.0025 -0.3124
   80POPC   C1A 1266   8.076   8.746   7.433 -0.0295 -0.0125 -0.2314
   80POPC   D2A 1267   7.954   8.579   7.042 -0.2671  0.1468 -0.1881
   80POPC   C3A 1268   7.932   8.854   6.725  0.0939  0.0470  0.3115
   80POPC   C4A 1269   7.749   8.830   6.364  0.0416  0.0257 -0.0443
   80POPC   C1B 1270   8.311   9.187   7.038 -0.2291  0.1932 -0.2851
   80POPC   C2B 1271   8.435   8.825   6.938 -0.1877  0.1737  0.1754
   80POPC   C3B 1272   8.446   8.434   6.753  0.1555  0.0333 -0.1091
   80POPC   C4B 1273   8.310   8.031   6.564  0.2837 -0.0714 -0.2164
   81POPC   NC3 1274   9.611   3.955   7.187 -0.1615  0.0762  0.1359
   81POPC   PO4 1275   9.933   4.361   7.110  0.0418  0.2605  0.1077
   81POPC   GL1 1276   9.724   4.142   6.755  0.2911 -0.0780 -0.2044
   81POPC   GL2 1277   9.909   4.225   6.499 -0.0104  0.0208  0.0779
   81POPC   C1A 1278   9.542   4.146   6.248  0.3155  0.1502  0.0243
   81POPC   D2A 1279   9.588   4.590   6.014 -0.0331 -0.2111  0.1872
   81POPC   C3A 1280   9.885   4.708   5.795  0.0621  0.0920  0.2500
   81POPC   C4A 1281   9.849   4.805   5.415  0.2378  0.1289  0.0202
   81POPC   C1B 1282  10.036   4.546   6.229 -0.0773 -0.2382 -0.1216
   81POPC   C2B 1283  10.300   4.449   5.859  0.7050  0.0956  0.1203
   81POPC   C3B 1284  10.401   4.194   5.564  0.1694 -0.1157  0.3806
   81POPC   C4B 1285  10.490   4.044   5.124 -0.4028  0.0613 -0.1757
   82POPC   NC3 1286   0.471   6.837   7.975  0.4383 -0.3049  0.1525
   82POPC   PO4 1287   0.803   6.714   7.713  0.0858  0.0511 -0.2257
   82POPC   GL1 1288   0.662   6.699   7.258 -0.0738  0.1725  0.0540
   82POPC   GL2 1289   0.653   7.018   7.170  0.0974 -0.0750  0.1267
   82POPC   C1A 1290   0.250   6.762   7.189  0.1376 -0.1003  0.1415
   82POPC   D2A 1291  -0.077   6.693   6.967 -0.1884  0.0389  0.2013
   82POPC   C3A 1292  -0.127   7.164   6.870 -0.2104  0.1343 -0.1428
   82POPC   C4A 1293   0.022   7.507   6.771  0.1719 -0.0401 -0.0964
   82POPC   C1B 1294   0.340   7.069   6.717  0.3563 -0.0759 -0.0140
   82POPC   C2B 1295   0.034   7.080   6.362 -0.1189  0.0883 -0.0533
   82POPC   C3B 1296   0.202   7.163   5.882 -0.3277 -0.3309 -0.1210
   82POPC   C4B 1297   0.383   7.431   5.605  0.0166  0.0792  0.2429
   83POPC   NC3 1298   0.457   5.000   7.207 -0.1552 -0.0377  0.0249
   83POPC   PO4 1299   0.703   4.583   7.112  0.1159 -0.0506 -0.1255
   83POPC   GL1 1300   0.834   4.309   6.746 -0.0402  0.0514 -0.0159
   83POPC   GL2 1301   1.039   4.129   6.746 -0.1011  0.0531  0.1609
   83POPC   C1A 1302   0.790   4.325   6.367  0.0728 -0.2478  0.0587
   83POPC   D2A 1303   0.582   4.279   5.926  0.0380 -0.0488 -0.0104
   83POPC   C3A 1304   0.706   4.009   5.576  0.1632  0.1872  0.1582
   83POPC   C4A 1305   0.572   3.807   5.271  0.2653  0.0645  0.1399
   83POPC   C1B 1306   1.370   4.300   6.471  0.3115  0.3212  0.1710
   83POPC   C2B 1307   1.642   4.601   6.321 -0.2186  0.4281 -0.0506
   83POPC   C3B 1308   1.918   4.802   6.082 -0.2250  0.0378 -0.0033
   83POPC   C4B 1309   2.383   4.782   5.932 -0.1370 -0.1686  0.3246
   84POPC   NC3 1310   2.251   6.385   7.737 -0.0406 -0.0044 -0.2510
   84POPC   PO4 1311   2.249   6.091   7.299  0.2257 -0.1087 -0.1323
   84POPC   GL1 1312   2.108   5.973   6.916 -0.3472  0.0377  0.0076
   84POPC   GL2 1313   2.283   6.114   6.627 -0.0238  0.2733 -0.2280
   84POPC   C1A 1314   2.055   5.659   6.537 -0.2688  0.0712 -0.1394
   84POPC   D2A 1315   1.858   5.733   6.086  0.0632 -0.0104  0.1464
   84POPC   C3A 1316   1.510   6.082   5.977  0.0931 -0.5283  0.1558
   84POPC   C4A 1317   1.126   6.293   5.870 -0.0380  0.1632  0.2345
   84POPC   C1B 1318   2.471   6.393   6.362  0.2449 -0.2924  0.0573
   84POPC   C2B 1319   2.651   6.617   6.132  0.3132 -0.0543 -0.0721
   84POPC   C3B 1320   2.791   7.062   6.040 -0.0616 -0.1576 -0.1851
   84POPC   C4B 1321   3.121   7.134   5.794  0.2705 -0.1006 -0.0272
   85POPC   NC3 1322   4.770   3.331   6.738 -0.2179  0.1572  0.1637
   85POPC   PO4 1323   4.964   3.127   7.065 -0.1606  0.0804 -0.0043
   85POPC   GL1 1324   5.011   2.837   6.848  0.0410  0.4447  0.1531
   85POPC   GL2 1325   5.198   3.076   6.597 -0.1915  0.2286  0.1741
   85POPC   C1A 1326   4.986   2.600   6.495 -0.1823 -0.0111 -0.0840
   85POPC   D2A 1327   5.018   2.194   6.210 -0.2178 -0.0642 -0.1565
   85POPC   C3A 1328   4.762   2.130   5.902 -0.2751  0.0797 -0.0808
   85POPC   C4A 1329   4.408   2.392   5.641  0.3282 -0.1930 -0.0323
   85POPC   C1B 1330   5.046   3.005   6.250  0.0202  0.0786  0.1622
   85POPC   C2B 1331   5.186   2.710   5.890 -0.0811 -0.2081 -0.3197
   85POPC   C3B 1332   5.379   2.683   5.498 -0.2445 -0.1008  0.1717
   85POPC   C4B 1333   5.677   2.474   5.211  0.0549 -0.1845 -0.2033
   86POPC   NC3 1334   2.304   5.415   7.597 -0.0208 -0.1952 -0.0290
   86POPC   PO4 1335   1.991   5.604   7.217 -0.1796  0.2092 -0.0431
   86POPC   GL1 1336   1.716   5.591   6.908  0.1320 -0.2668  0.3764
   86POPC   GL2 1337   1.469   5.836   6.824  0.0143  0.0290  0.3315
   86POPC   C1A 1338   1.558   5.328   6.534 -0.2205 -0.0270  0.0952
   86POPC   D2A 1339   1.704   5.217   6.088  0.0873 -0.1617  0.0970
   86POPC   C3A 1340   1.584   5.028   5.658 -0.1715 -0.2890  0.0309
   86POPC   C4A 1341   1.134   4.991   5.662 -0.0154 -0.0373 -0.1058
   86POPC   C1B 1342   1.368   5.726   6.402  0.1279  0.2255  0.0745
   86POPC   C2B 1343   1.088   5.843   6.130  0.1384 -0.0125  0.0174
   86POPC   C3B 1344   0.758   5.889   5.775 -0.1205 -0.1996  0.2179
   86POPC   C4B 1345   0.682   6.276   5.569 -0.2529  0.3012 -0.1878
   87POPC   NC3 1346   0.973   1.419   7.807 -0.1481 -0.0933  0.1519
   87POPC   PO4 1347   0.594   1.132   7.709 -0.0105 -0.1772  0.2749
   87POPC   GL1 1348   0.696   1.173   7.261  0.1485 -0.1082 -0.3045
   87POPC   GL2 1349   0.476   1.341   7.179  0.0298  0.0441  0.0943
   87POPC   C1A 1350   1.047   1.013   6.988 -0.1134  0.0345  0.1475
   87POPC   D2A 1351   1.418   1.015   6.910 -0.1416 -0.1661  0.1521
   87POPC   C3A 1352   1.624   0.591   6.787 -0.1283  0.3073  0.0281
   87POPC   C4A 1353   1.780   0.549   6.338  0.0461  0.2948  0.2811
   87POPC   C1B 1354   0.628   1.055   6.766 -0.1322 -0.0963  0.0660
   87POPC   C2B 1355   1.077   0.908   6.483  0.0313 -0.1922  0.0220
   87POPC   C3B 1356   1.534   0.952   6.406  0.0303  0.1297  0.0214
   87POPC   C4B 1357   1.918   0.968   6.530 -0.2665  0.0794  0.0583
   88POPC   NC3 1358   8.635   4.173   6.764  0.2028 -0.2832  0.0879
   88POPC   PO4 1359   8.845   4.577   7.032 -0.0507 -0.0447  0.0640
   88POPC   GL1 1360   8.814   4.587   6.686  0.0299  0.1322 -0.0240
   88POPC   GL2 1361   8.543   4.731   6.558 -0.1098  0.0751 -0.0784
   88POPC   C1A 1362   8.831   4.463   6.262  0.0385 -0.3798 -0.1459
   88POPC   D2A 1363   9.190   4.319   5.945  0.2433 -0.0699 -0.3082
   88POPC   C3A 1364   9.431   3.909   5.770  0.1189  0.1027 -0.2594
   88POPC   C4A 1365   9.528   3.579   5.534 -0.2190 -0.4915 -0.1409
   88POPC   C1B 1366   8.629   4.997   6.186  0.0115 -0.0007  0.1174
   88POPC   C2B 1367   8.718   5.159   5.796 -0.2736  0.2777  0.1555
   88POPC   C3B 1368   8.781   5.297   5.385  0.1877  0.0570  0.0388
   88POPC   C4B 1369   8.790   5.612   5.093 -0.0961  0.0029  0.0439
   89POPC   NC3 1370   7.935   3.565   7.094  0.0821  0.0722 -0.4332
   89POPC   PO4 1371   7.551   3.763   6.942 -0.1156 -0.1404  0.0071
   89POPC   GL1 1372   7.552   4.141   6.687  0.1677  0.1927  0.2279
   89POPC   GL2 1373   7.664   4.431   6.596  0.2960  0.0664 -0.3718
   89POPC   C1A 1374   7.360   4.062   6.264 -0.0166 -0.0229 -0.1889
   89POPC   D2A 1375   7.554   4.022   5.870 -0.0586 -0.1326 -0.2052
   89POPC   C3A 1376   7.312   3.936   5.571  0.0092  0.0564  0.2242
   89POPC   C4A 1377   7.088   4.132   5.153  0.0517 -0.3117 -0.0183
   89POPC   C1B 1378   7.853   4.383   6.239 -0.0067 -0.2398  0.2218
   89POPC   C2B 1379   8.018   4.309   5.810  0.3519  0.0521  0.0094
   89POPC   C3B 1380   8.390   4.163   5.756  0.0358 -0.2426  0.1966
   89POPC   C4B 1381   8.702   3.970   6.067  0.1018  0.3679 -0.0580
   90POPC   NC3 1382   7.014   4.412   6.711 -0.0557  0.1381  0.0199
   90POPC   PO4 1383   6.699   4.519   6.926  0.1209 -0.1671 -0.0010
   90POPC   GL1 1384   6.541   4.383   6.602 -0.0067 -0.2216 -0.0521
   90POPC   GL2 1385   6.703   4.161   6.344 -0.0062  0.0915 -0.0187
   90POPC   C1A 1386   6.210   4.494   6.255  0.2037 -0.1103 -0.2960
   90POPC   D2A 1387   5.840   4.721   6.235 -0.1168 -0.2041  0.1523
   90POPC   C3A 1388   5.784   4.730   5.843 -0.4108  0.0443  0.2744
   90POPC   C4A 1389   6.164   4.500   5.612  0.4347 -0.1680 -0.2463
   90POPC   C1B 1390   6.815   4.524   6.128 -0.0053 -0.1600  0.0395
   90POPC   C2B 1391   6.908   4.847   5.858  0.1729 -0.0219 -0.3639
   90POPC   C3B 1392   6.731   5.131   5.682  0.0263 -0.2376 -0.0374
   90POPC   C4B 1393   6.426   5.419   5.489  0.2669 -0.3662  0.2437
   91POPC   NC3 1394   2.663   4.793   7.127  0.0438  0.0569  0.0632
   91POPC   PO4 1395   2.624   4.435   6.847  0.1452  0.2659  0.0228
   91POPC   GL1 1396   2.754   4.253   6.523 -0.0159  0.0443  0.0202
   91POPC   GL2 1397   3.086   4.391   6.487 -0.0570 -0.2035  0.1363
   91POPC   C1A 1398   2.844   4.270   6.108  0.1240  0.0015 -0.1391
   91POPC   D2A 1399   3.057   4.190   5.697  0.1635  0.2249  0.5827
   91POPC   C3A 1400   2.821   4.173   5.384 -0.3283  0.0416  0.6491
   91POPC   C4A 1401   2.525   4.129   5.026 -0.0407 -0.1165 -0.1439
   91POPC   C1B 1402   3.331   4.401   6.043  0.1839  0.2605 -0.1599
   91POPC   C2B 1403   3.480   4.301   5.540  0.1963 -0.2525 -0.1093
   91POPC   C3B 1404   3.844   4.413   5.471  0.1876 -0.0806  0.1970
   91POPC   C4B 1405   4.253   4.273   5.426  0.1087 -0.1712  0.1802
   92POPC   NC3 1406   7.030   0.806   7.078  0.1479 -0.2969  0.3589
   92POPC   PO4 1407   6.641   0.986   6.890  0.0835 -0.2009  0.3238
   92POPC   GL1 1408   6.610   1.359   6.589 -0.0412 -0.1573  0.1753
   92POPC   GL2 1409   6.766   1.257   6.288  0.1456 -0.1125 -0.0265
   92POPC   C1A 1410   6.369   1.614   6.403 -0.0325  0.0019  0.0957
   92POPC   D2A 1411   6.481   1.769   5.938  0.0717 -0.1431  0.0311
   92POPC   C3A 1412   6.794   1.466   5.847  0.0342 -0.1868  0.1614
   92POPC   C4A 1413   6.622   0.980   5.712 -0.0640  0.0344  0.0833
   92POPC   C1B 1414   6.394   1.236   6.081  0.0790  0.0256 -0.1299
   92POPC   C2B 1415   6.213   1.344   5.597  0.2351 -0.1190 -0.0349
   92POPC   C3B 1416   6.524   1.622   5.426 -0.0080  0.0619 -0.1349
   92POPC   C4B 1417   6.868   1.793   5.441  0.1559  0.0738 -0.2421
   93POPC   NC3 1418   7.869   1.402   6.880  0.3870  0.1398  0.0428
   93POPC   PO4 1419   8.244   1.239   7.115  0.0059 -0.0368  0.0183
   93POPC   GL1 1420   8.323   1.146   6.670 -0.0710 -0.1017 -0.1546
   93POPC   GL2 1421   7.979   1.075   6.526 -0.1156 -0.0816 -0.0066
   93POPC   C1A 1422   8.314   1.330   6.210  0.2599  0.1744  0.0970
   93POPC   D2A 1423   8.623   1.509   6.049  0.1248 -0.0903 -0.0495
   93POPC   C3A 1424   8.826   1.544   5.574  0.1280 -0.0520  0.4303
   93POPC   C4A 1425   8.784   1.776   5.182 -0.1860 -0.0762  0.2179
   93POPC   C1B 1426   7.935   0.883   6.200 -0.0355 -0.0549  0.1150
   93POPC   C2B 1427   8.173   1.027   5.796  0.0186 -0.3778  0.0414
   93POPC   C3B 1428   8.089   1.161   5.451  0.0250 -0.1676 -0.0293
   93POPC   C4B 1429   7.937   1.311   5.029 -0.1004 -0.1133  0.2817
   94POPC   NC3 1430   5.105   9.862   7.000  0.2060 -0.2154 -0.0127
   94POPC   PO4 1431   5.068  10.300   7.097  0.0442  0.1936  0.0259
   94POPC   GL1 1432   5.078  10.545   6.733 -0.0994  0.0421  0.1582
   94POPC   GL2 1433   4.963  10.570   6.381  0.1646 -0.1610 -0.2749
   94POPC   C1A 1434   5.384  10.373   6.325 -0.2559  0.0953  0.0683
   94POPC   D2A 1435   5.612  10.481   5.956  0.2558  0.0362 -0.1929
   94POPC   C3A 1436   5.814  10.911   5.961 -0.3437 -0.0655  0.0340
   94POPC   C4A 1437   6.071  11.111   5.632  0.1772 -0.2884 -0.1606
   94POPC   C1B 1438   4.966  10.579   5.969 -0.1104  0.0744 -0.0792
   94POPC   C2B 1439   4.917  10.506   5.559  0.0127 -0.0669 -0.0854
   94POPC   C3B 1440   4.714  10.367   5.178  0.1093  0.0193  0.0596
   94POPC   C4B 1441   4.269  10.421   5.103  0.0449  0.2812  0.1352
   95POPC   NC3 1442   6.609   9.846   7.376 -0.0482  0.0856 -0.0494
   95POPC   PO4 1443   7.163   9.861   7.513 -0.0482  0.0124 -0.1306
   95POPC   GL1 1444   7.337   9.916   7.096 -0.2151 -0.0263  0.0773
   95POPC   GL2 1445   7.373   9.571   7.035 -0.3181 -0.0070 -0.0409
   95POPC   C1A 1446   7.327  10.036   6.670 -0.1342  0.1053 -0.0496
   95POPC   D2A 1447   7.188   9.953   6.228 -0.0095  0.5008 -0.0768
   95POPC   C3A 1448   7.382  10.071   5.798  0.0681  0.1132  0.3871
   95POPC   C4A 1449   7.605   9.883   5.449  0.0037 -0.2640 -0.1652
   95POPC   C1B 1450   7.436   9.357   6.647 -0.2037 -0.0446 -0.0948
   95POPC   C2B 1451   7.430   9.359   6.184 -0.0160  0.0606  0.0541
   95POPC   C3B 1452   7.316   8.997   5.847 -0.0569 -0.2671  0.2269
   95POPC   C4B 1453   7.091   8.819   5.464 -0.3892  0.1477 -0.1830
   96POPC   NC3 1454   3.515   4.669   6.754  0.1969  0.0374 -0.0885
   96POPC   PO4 1455   3.665   5.023   6.923 -0.0174 -0.0933  0.1278
   96POPC   GL1 1456   3.898   5.055   6.587  0.3175 -0.3955 -0.2392
   96POPC   GL2 1457   4.109   4.816   6.695 -0.1136  0.0138  0.2735
   96POPC   C1A 1458   3.899   5.151   6.249  0.0706 -0.0358 -0.3540
   96POPC   D2A 1459   3.777   5.232   5.810  0.1875  0.0574 -0.1093
   96POPC   C3A 1460   3.997   5.360   5.449 -0.2853 -0.4769  0.1206
   96POPC   C4A 1461   4.105   5.743   5.121  0.1035  0.0571 -0.2221
   96POPC   C1B 1462   4.310   4.914   6.255 -0.3567  0.0531 -0.0920
   96POPC   C2B 1463   4.342   5.101   5.925  0.0029 -0.1669 -0.1436
   96POPC   C3B 1464   4.629   5.404   5.727  0.0788 -0.2175  0.2170
   96POPC   C4B 1465   4.980   5.312   5.436 -0.1486 -0.1123 -0.1490
   97POPC   NC3 1466   2.208   4.164   6.938  0.0890 -0.0585  0.1485
   97POPC   PO4 1467   2.189   4.607   7.134  0.1287 -0.1204  0.3131
   97POPC   GL1 1468   2.273   4.859   6.828  0.1494  0.0441  0.0190
   97POPC   GL2 1469   2.556   4.986   6.684  0.0980  0.1835  0.2700
   97POPC   C1A 1470   2.142   5.144   6.412 -0.4232 -0.1641  0.1436
   97POPC   D2A 1471   2.191   5.253   5.953 -0.2124  0.1109  0.1346
   97POPC   C3A 1472   2.062   5.046   5.605 -0.0446 -0.1023  0.1069
   97POPC   C4A 1473   1.891   4.654   5.540  0.2067 -0.0199 -0.1980
   97POPC   C1B 1474   2.656   4.822   6.329 -0.1621  0.0518  0.1702
   97POPC   C2B 1475   2.997   4.779   6.187 -0.2495  0.0028  0.1586
   97POPC   C3B 1476   3.048   4.692   5.751  0.2731 -0.2271 -0.2049
   97POPC   C4B 1477   3.146   4.623   5.320  0.0525  0.1894  0.0743
   98POPC   NC3 1478   5.261   2.580   7.284  0.2904  0.1069  0.0891
   98POPC   PO4 1479   5.511   2.157   7.101 -0.1500  0.1437  0.0771
   98POPC   GL1 1480   5.580   1.899   6.678  0.0545  0.0243 -0.3135
   98POPC   GL2 1481   5.286   1.991   6.584  0.1707  0.0723 -0.0630
   98POPC   C1A 1482   5.446   1.702   6.244 -0.1688 -0.2396 -0.1067
   98POPC   D2A 1483   5.575   1.644   5.795 -0.3893  0.2998  0.1649
   98POPC   C3A 1484   5.340   1.672   5.405  0.1803  0.2016 -0.1202
   98POPC   C4A 1485   5.008   1.777   5.068 -0.1850  0.0661  0.0455
   98POPC   C1B 1486   5.561   2.193   6.268  0.1293  0.0181 -0.3947
   98POPC   C2B 1487   5.473   2.243   5.883 -0.0119 -0.0708  0.4769
   98POPC   C3B 1488   5.184   2.141   5.504 -0.2516 -0.2875  0.0165
   98POPC   C4B 1489   5.071   2.276   5.138 -0.3387 -0.0436 -0.1769
   99POPC   NC3 1490   5.198   8.644   7.768 -0.0948  0.0384  0.2556
   99POPC   PO4 1491   5.353   8.487   7.367 -0.0260  0.1191  0.4703
   99POPC   GL1 1492   5.315   8.562   6.940 -0.2925 -0.2142  0.2125
   99POPC   GL2 1493   5.112   8.470   6.711  0.3304  0.2720  0.0316
   99POPC   C1A 1494   5.464   8.875   6.639 -0.1585  0.0009 -0.0694
   99POPC   D2A 1495   5.887   9.087   6.575  0.0687  0.1408 -0.1515
   99POPC   C3A 1496   5.892   9.351   6.227  0.2097  0.4450 -0.1215
   99POPC   C4A 1497   6.129   9.729   5.909  0.1750  0.1002  0.0946
   99POPC   C1B 1498   5.395   8.402   6.271 -0.1561  0.1423 -0.0770
   99POPC   C2B 1499   5.629   8.172   6.074  0.3477 -0.0077  0.1819
   99POPC   C3B 1500   5.758   7.961   5.721  0.1622  0.4937 -0.0492
   99POPC   C4B 1501   5.951   7.781   5.380  0.0916 -0.0942 -0.0285
  100POPC   NC3 1502   4.109   7.891   7.404 -0.1567  0.1696 -0.1543
  100POPC   PO4 1503   4.247   7.475   7.366 -0.0377 -0.2681  0.1542
  100POPC   GL1 1504   4.072   7.447   6.915 -0.1263 -0.2363  0.2044
  100POPC   GL2 1505   3.996   7.177   6.713 -0.0355 -0.1354  0.0386
  100POPC   C1A 1506   4.072   7.704   6.583 -0.1157  0.1241  0.1019
  100POPC   D2A 1507   3.924   7.781   6.252  0.4094  0.0137 -0.0224
  100POPC   C3A 1508   3.617   8.089   5.989  0.0912 -0.3912 -0.0302
  100POPC   C4A 1509   3.613   8.487   5.768  0.1640  0.0209  0.0121
  100POPC   C1B 1510   4.173   7.314   6.313  0.1250  0.0502  0.0767
  100POPC   C2B 1511   4.171   7.429   5.850 -0.1462  0.0577  0.0016
  100POPC   C3B 1512   4.010   7.453   5.398  0.3906  0.0378  0.2163
  100POPC   C4B 1513   3.869   7.087   5.222 -0.1808 -0.1375 -0.1129
  101POPC   NC3 1514   1.688   0.860   7.319 -0.3243  0.1654  0.0439
  101POPC   PO4 1515   2.199   0.880   7.388 -0.0936 -0.3132 -0.0858
  101POPC   GL1 1516   2.358   0.920   7.046  0.1178 -0.0187  0.0310
  101POPC   GL2 1517   2.571   1.085   6.772  0.3160  0.1119 -0.0526
  101POPC   C1A 1518   2.320   0.726   6.616  0.1782  0.2376 -0.2130
  101POPC   D2A 1519   2.355   0.866   6.136  0.0848 -0.0733 -0.0117
  101POPC   C3A 1520   2.243   1.022   5.604 -0.0479  0.1781  0.1350
  101POPC   C4A 1521   2.053   1.392   5.379  0.0732  0.0256 -0.0387
  101POPC   C1B 1522   2.528   1.247   6.421 -0.0019  0.1507  0.1510
  101POPC   C2B 1523   2.622   1.212   5.921  0.2684 -0.0588 -0.1744
  101POPC   C3B 1524   2.633   1.375   5.515  0.0055 -0.1231 -0.2495
  101POPC   C4B 1525   2.824   1.673   5.292 -0.0304  0.0619 -0.0535
  102POPC   NC3 1526   3.807  10.072   7.344  0.1265 -0.3606 -0.1047
  102POPC   PO4 1527   4.115   9.828   7.234 -0.0224  0.1532  0.0589
  102POPC   GL1 1528   4.189   9.916   6.841  0.2955  0.2507 -0.1425
  102POPC   GL2 1529   3.896   9.692   6.773 -0.3078 -0.0589 -0.0306
  102POPC   C1A 1530   4.502   9.820   6.400 -0.1118  0.1057  0.1578
  102POPC   D2A 1531   4.627   9.723   5.954 -0.0398  0.0264  0.0879
  102POPC   C3A 1532   4.789  10.018   5.764  0.1115  0.1128  0.0464
  102POPC   C4A 1533   4.562  10.188   5.588  0.3072  0.0804 -0.2855
  102POPC   C1B 1534   3.807   9.451   6.466 -0.0750  0.0549 -0.1523
  102POPC   C2B 1535   3.646   9.420   5.911  0.1566  0.2294 -0.0859
  102POPC   C3B 1536   3.317   9.478   5.621  0.1550  0.1423  0.3745
  102POPC   C4B 1537   3.139   9.441   5.236 -0.0548 -0.1612 -0.1976
  103POPC   NC3 1538   8.116   7.131   8.300  0.0737  0.0451  0.2526
  103POPC   PO4 1539   8.036   7.524   7.991 -0.0206 -0.0052 -0.1206
  103POPC   GL1 1540   8.207   7.711   7.641  0.0501 -0.4163 -0.0094
  103POPC   GL2 1541   8.225   8.044   7.540  0.2030  0.2487  0.1125
  103POPC   C1A 1542   8.659   7.886   7.516 -0.0223  0.1039 -0.0667
  103POPC   D2A 1543   9.038   8.031   7.686 -0.0834  0.2419  0.1747
  103POPC   C3A 1544   9.333   7.790   7.503 -0.4615  0.0891 -0.0922
  103POPC   C4A 1545   9.659   7.515   7.204 -0.2087  0.1962  0.0420
  103POPC   C1B 1546   8.004   7.781   7.143 -0.0397  0.0076  0.2215
  103POPC   C2B 1547   7.927   7.634   6.692 -0.0279 -0.1491  0.0676
  103POPC   C3B 1548   8.035   7.562   6.234  0.1932 -0.0434  0.1710
  103POPC   C4B 1549   8.074   7.651   5.747 -0.0025  0.2607  0.1267
  104POPC   NC3 1550   8.932   6.390   7.703 -0.1365  0.1177 -0.1235
  104POPC   PO4 1551   9.087   6.047   7.653 -0.0383  0.0293  0.3336
  104POPC   GL1 1552   8.728   6.025   7.423 -0.2838  0.5832  0.0581
  104POPC   GL2 1553   8.928   5.998   7.156  0.1367 -0.2570  0.2279
  104POPC   C1A 1554   8.394   6.211   7.334  0.0446 -0.3270  0.1299
  104POPC   D2A 1555   8.083   6.390   7.087  0.1175  0.0656 -0.2568
  104POPC   C3A 1556   7.995   6.834   6.959 -0.1603 -0.2911 -0.3846
  104POPC   C4A 1557   8.061   7.233   7.027  0.2424  0.2594 -0.4325
  104POPC   C1B 1558   9.004   6.242   6.805  0.3960  0.3756  0.0822
  104POPC   C2B 1559   9.263   6.445   6.484 -0.3788 -0.1613 -0.2493
  104POPC   C3B 1560   9.339   6.894   6.433 -0.0084  0.1928 -0.0206
  104POPC   C4B 1561   9.582   7.237   6.164  0.1755 -0.0871 -0.2448
  105POPC   NC3 1562   2.508   1.138   7.717 -0.1590  0.0459  0.2708
  105POPC   PO4 1563   2.294   1.469   7.458  0.4679  0.0106 -0.1610
  105POPC   GL1 1564   2.224   1.520   7.037  0.0516 -0.3145 -0.2387
  105POPC   GL2 1565   2.317   1.816   6.856  0.0246 -0.2089  0.1389
  105POPC   C1A 1566   2.158   1.418   6.642  0.2077 -0.0354 -0.0686
  105POPC   D2A 1567   2.066   1.395   6.180 -0.1720  0.2800  0.1209
  105POPC   C3A 1568   2.225   1.554   5.787 -0.0577  0.3802 -0.2291
  105POPC   C4A 1569   2.384   1.899   5.593 -0.0662 -0.0815 -0.3602
  105POPC   C1B 1570   2.686   1.689   6.717 -0.0252 -0.3910  0.0980
  105POPC   C2B 1571   2.998   1.363   6.558 -0.0141  0.1520  0.0743
  105POPC   C3B 1572   3.131   1.388   6.115 -0.2644  0.0611  0.2433
  105POPC   C4B 1573   3.064   1.279   5.709  0.0615 -0.0995 -0.1574
  106POPC   NC3 1574   9.560   0.665   7.501  0.0702 -0.1913  0.0287
  106POPC   PO4 1575  10.101   0.872   7.467  0.1440  0.0613 -0.0957
  106POPC   GL1 1576  10.018   0.801   7.035 -0.1867  0.2559 -0.0173
  106POPC   GL2 1577   9.776   0.556   7.065 -0.1015 -0.0171  0.1652
  106POPC   C1A 1578   9.829   0.762   6.627 -0.3386 -0.0983 -0.1020
  106POPC   D2A 1579   9.856   0.519   6.173 -0.5414  0.1127  0.0130
  106POPC   C3A 1580   9.824   0.730   5.850 -0.3851  0.2880 -0.2724
  106POPC   C4A 1581   9.716   0.983   5.457  0.0876 -0.1004 -0.1193
  106POPC   C1B 1582   9.512   0.405   6.756 -0.1626  0.2720  0.1012
  106POPC   C2B 1583   9.461   0.225   6.348  0.3783 -0.1692 -0.0053
  106POPC   C3B 1584   9.551   0.240   5.945  0.0657  0.1949 -0.0398
  106POPC   C4B 1585   9.391   0.576   5.601 -0.0426  0.1536  0.2542
  107POPC   NC3 1586   2.408   9.349   7.541 -0.1266 -0.1552 -0.1101
  107POPC   PO4 1587   2.397   9.204   7.177 -0.0106 -0.2881 -0.2519
  107POPC   GL1 1588   2.381   9.190   6.760 -0.0299  0.0667  0.0883
  107POPC   GL2 1589   2.571   9.025   6.515  0.3797 -0.1507  0.1915
  107POPC   C1A 1590   2.184   9.362   6.337  0.0571  0.1693  0.1121
  107POPC   D2A 1591   1.789   9.424   6.080  0.1271  0.2348 -0.0906
  107POPC   C3A 1592   1.917   9.693   5.697  0.0105 -0.1541  0.1812
  107POPC   C4A 1593   1.984  10.174   5.734 -0.0374  0.1026 -0.0291
  107POPC   C1B 1594   2.789   8.997   6.124 -0.0535  0.2529  0.0301
  107POPC   C2B 1595   2.831   8.727   5.749 -0.0597 -0.4774 -0.2658
  107POPC   C3B 1596   2.763   8.360   5.392  0.1306 -0.2215 -0.1775
  107POPC   C4B 1597   2.548   8.111   5.121  0.0308 -0.0443  0.0451
  108POPC   NC3 1598  10.212   2.444   7.091 -0.2910 -0.0397  0.3330
  108POPC   PO4 1599  10.110   2.095   7.313 -0.4227  0.3009  0.0429
  108POPC   GL1 1600  10.100   1.653   7.118 -0.1098 -0.1281  0.3588
  108POPC   GL2 1601   9.991   1.845   6.800  0.1499 -0.1701  0.2846
  108POPC   C1A 1602  10.056   1.309   6.751 -0.0063  0.1355 -0.1080
  108POPC   D2A 1603  10.159   1.646   6.355 -0.2668 -0.3063 -0.1551
  108POPC   C3A 1604   9.931   1.519   6.016  0.0718 -0.0259  0.1242
  108POPC   C4A 1605   9.835   1.673   5.686 -0.2590  0.2480  0.2621
  108POPC   C1B 1606   9.752   1.974   6.363  0.3057  0.3314  0.1905
  108POPC   C2B 1607   9.342   1.876   6.064 -0.0541  0.1098  0.4209
  108POPC   C3B 1608   9.109   1.962   5.756 -0.0137  0.1416 -0.2692
  108POPC   C4B 1609   9.056   2.252   5.528 -0.2497 -0.1311  0.2215
  109POPC   NC3 1610   6.469   8.697   7.853  0.0385 -0.0304 -0.1619
  109POPC   PO4 1611   6.466   8.626   7.352 -0.0271 -0.0119 -0.0895
  109POPC   GL1 1612   6.505   8.586   6.930 -0.2823 -0.1383 -0.0830
  109POPC   GL2 1613   6.774   8.431   6.832  0.1070 -0.0940  0.2227
  109POPC   C1A 1614   6.357   8.453   6.528  0.2675 -0.0313 -0.1162
  109POPC   D2A 1615   6.512   8.307   6.149  0.0039  0.2272  0.2785
  109POPC   C3A 1616   6.777   8.334   5.948  0.1244 -0.0601  0.2334
  109POPC   C4A 1617   7.162   8.305   5.800 -0.0342 -0.1743  0.0063
  109POPC   C1B 1618   6.918   8.519   6.459  0.1090  0.0958 -0.1169
  109POPC   C2B 1619   7.323   8.606   6.189 -0.0851 -0.0708  0.0510
  109POPC   C3B 1620   7.738   8.463   6.039  0.2814 -0.0109 -0.0488
  109POPC   C4B 1621   7.941   8.074   6.191  0.0158 -0.2242  0.0329
  110POPC   NC3 1622   8.729  10.638   7.613  0.0205 -0.0810 -0.0281
  110POPC   PO4 1623   8.659  10.934   7.284  0.0310 -0.1896  0.2170
  110POPC   GL1 1624   8.595  11.060   6.928 -0.3093 -0.1246 -0.3948
  110POPC   GL2 1625   8.613  10.733   6.818 -0.0597  0.0370 -0.3066
  110POPC   C1A 1626   8.298  11.054   6.610  0.3981 -0.0620  0.1261
  110POPC   D2A 1627   8.048  11.079   6.234 -0.0085  0.1436 -0.1921
  110POPC   C3A 1628   7.723  11.171   5.895  0.1840 -0.3067  0.2355
  110POPC   C4A 1629   7.376  11.044   5.695 -0.0901 -0.0171  0.3438
  110POPC   C1B 1630   8.735  10.366   6.795  0.1691  0.0447  0.5556
  110POPC   C2B 1631   8.959   9.991   6.873 -0.1910 -0.2406 -0.0354
  110POPC   C3B 1632   9.356   9.906   6.752  0.2015 -0.0251  0.1691
  110POPC   C4B 1633   9.765   9.713   6.656  0.0334  0.3150 -0.1229
  111POPC   NC3 1634   9.384   5.166   7.246  0.1635 -0.3721  0.0253
  111POPC   PO4 1635   9.068   5.430   7.206 -0.3020 -0.1836 -0.0619
  111POPC   GL1 1636   9.201   5.509   6.875 -0.0241 -0.0385  0.1725
  111POPC   GL2 1637   9.356   5.778   6.852  0.3569 -0.0145 -0.2212
  111POPC   C1A 1638   8.882   5.667   6.501 -0.1031 -0.0148 -0.2036
  111POPC   D2A 1639   8.913   5.816   6.000 -0.0959 -0.0358 -0.1319
  111POPC   C3A 1640   8.912   5.876   5.572  0.2325  0.1669  0.0795
  111POPC   C4A 1641   8.666   6.102   5.133 -0.1185 -0.0938 -0.1692
  111POPC   C1B 1642   9.298   5.902   6.321 -0.1370 -0.2790  0.1451
  111POPC   C2B 1643   9.345   6.007   5.887 -0.0798 -0.0020 -0.2297
  111POPC   C3B 1644   9.555   6.283   5.613 -0.1327  0.2104 -0.4160
  111POPC   C4B 1645   9.882   6.442   5.380 -0.1602  0.0691 -0.1086
  112POPC   NC3 1646   5.032   8.122   7.043  0.1024  0.4249  0.2517
  112POPC   PO4 1647   5.385   7.912   7.323  0.0568 -0.1112  0.1838
  112POPC   GL1 1648   5.440   7.682   6.949  0.1476  0.0508 -0.0695
  112POPC   GL2 1649   5.218   7.500   7.083  0.4748 -0.2250  0.0008
  112POPC   C1A 1650   5.760   7.578   6.609  0.1507 -0.2541  0.2096
  112POPC   D2A 1651   5.712   7.664   6.093 -0.0343  0.0624 -0.2648
  112POPC   C3A 1652   5.336   7.614   5.813 -0.1100  0.2599 -0.0066
  112POPC   C4A 1653   4.904   7.724   5.629  0.0048  0.1854  0.0094
  112POPC   C1B 1654   4.904   7.596   6.746  0.0679  0.2032  0.0836
  112POPC   C2B 1655   4.520   7.743   6.450 -0.1077  0.0303  0.0044
  112POPC   C3B 1656   4.329   7.870   5.979 -0.3361 -0.1062 -0.1994
  112POPC   C4B 1657   4.058   7.967   5.656 -0.0085  0.1535 -0.1146
  113POPC   NC3 1658   4.462   9.418   7.161 -0.1107  0.0332  0.4236
  113POPC   PO4 1659   4.618   9.817   7.021  0.1125 -0.0044 -0.1940
  113POPC   GL1 1660   4.794  10.123   6.688  0.0461 -0.2102  0.0229
  113POPC   GL2 1661   4.581  10.450   6.706 -0.1759 -0.0323 -0.1395
  113POPC   C1A 1662   4.933  10.131   6.222  0.1693  0.0537 -0.0661
  113POPC   D2A 1663   5.288  10.069   6.032  0.0862 -0.1719  0.1116
  113POPC   C3A 1664   5.323  10.218   5.641 -0.1516 -0.2280 -0.3150
  113POPC   C4A 1665   5.320  10.267   5.215  0.1887  0.0314  0.0840
  113POPC   C1B 1666   4.519  10.395   6.309  0.1578  0.0335 -0.0340
  113POPC   C2B 1667   4.349  10.182   6.034  0.0449 -0.0214 -0.0807
  113POPC   C3B 1668   4.143  10.014   5.769 -0.2283  0.3487  0.1555
  113POPC   C4B 1669   3.874   9.785   5.633 -0.3621 -0.1720  0.1566
  114POPC   NC3 1670   0.625   8.177   8.086  0.0893  0.0597  0.0210
  114POPC   PO4 1671   1.000   8.407   7.930  0.2014 -0.1223  0.0448
  114POPC   GL1 1672   0.598   8.502   7.665 -0.3034 -0.3790  0.0940
  114POPC   GL2 1673   0.297   8.342   7.800 -0.0450  0.2311  0.3256
  114POPC   C1A 1674   0.620   8.245   7.166 -0.0407 -0.1081 -0.0047
  114POPC   D2A 1675   0.602   7.961   6.777 -0.3463  0.0854 -0.0383
  114POPC   C3A 1676   0.508   8.217   6.339  0.1868 -0.1866 -0.2353
  114POPC   C4A 1677   0.597   8.055   5.894  0.1935  0.2296 -0.0002
  114POPC   C1B 1678   0.404   7.909   7.478  0.1154 -0.1270 -0.1386
  114POPC   C2B 1679   0.465   7.623   7.096 -0.1409  0.0719  0.1012
  114POPC   C3B 1680   0.683   7.402   6.702  0.2027 -0.0173  0.0948
  114POPC   C4B 1681   0.988   7.273   6.383  0.1628  0.1805 -0.0252
  115POPC   NC3 1682  10.237   0.015   8.079 -0.1323 -0.2944  0.1399
  115POPC   PO4 1683  10.713  -0.078   8.070 -0.0252  0.2521  0.1325
  115POPC   GL1 1684  10.609  -0.003   7.641 -0.2382  0.1116 -0.1759
  115POPC   GL2 1685  10.191  -0.101   7.503 -0.5367 -0.2122  0.1176
  115POPC   C1A 1686  10.889  -0.267   7.392 -0.0378 -0.2101  0.0413
  115POPC   D2A 1687  10.955  -0.318   6.979 -0.1522 -0.1324  0.3172
  115POPC   C3A 1688  10.808  -0.479   6.655  0.1106  0.0532  0.0424
  115POPC   C4A 1689  10.637  -0.716   6.267 -0.1055 -0.3367 -0.1463
  115POPC   C1B 1690  10.317   0.083   7.162  0.1057 -0.3255  0.1193
  115POPC   C2B 1691  10.388   0.466   6.825  0.2563 -0.0038  0.0619
  115POPC   C3B 1692  10.356   0.911   6.682  0.3039 -0.0386 -0.1203
  115POPC   C4B 1693  10.495   1.290   6.497 -0.5244 -0.0014  0.2116
  116POPC   NC3 1694   5.244   3.340   7.362  0.0135  0.1151  0.2034
  116POPC   PO4 1695   5.678   3.566   7.249  0.1717 -0.1552 -0.1085
  116POPC   GL1 1696   5.760   3.520   6.828  0.1772 -0.0572 -0.0189
  116POPC   GL2 1697   5.790   3.198   6.761 -0.0284 -0.0772  0.2144
  116POPC   C1A 1698   5.845   3.644   6.482  0.0176  0.2995 -0.1377
  116POPC   D2A 1699   5.742   3.598   6.124  0.0750  0.0233  0.2664
  116POPC   C3A 1700   5.896   3.792   5.643 -0.1335  0.0433  0.3399
  116POPC   C4A 1701   6.133   4.131   5.344  0.0309  0.2104  0.3118
  116POPC   C1B 1702   5.622   3.103   6.314  0.0744  0.1938  0.3463
  116POPC   C2B 1703   5.426   3.247   5.932  0.2076 -0.0451  0.0267
  116POPC   C3B 1704   5.002   3.135   5.682  0.1734 -0.0011 -0.1586
  116POPC   C4B 1705   4.568   3.054   5.478 -0.1572 -0.2557 -0.1458
  117POPC   NC3 1706  10.258   5.008   7.084 -0.0711  0.2089  0.0014
  117POPC   PO4 1707  10.711   5.089   7.239 -0.0540  0.0294  0.1660
  117POPC   GL1 1708  10.799   5.218   6.800 -0.0792  0.0673 -0.3607
  117POPC   GL2 1709  10.670   4.990   6.762 -0.1018  0.1683  0.1049
  117POPC   C1A 1710  10.914   5.348   6.481 -0.1355  0.0825  0.0865
  117POPC   D2A 1711  10.846   5.772   6.298  0.0213  0.0817 -0.0275
  117POPC   C3A 1712  10.644   5.846   5.896  0.3033 -0.3141  0.2565
  117POPC   C4A 1713  10.151   6.137   5.746  0.0183  0.4465 -0.5936
  117POPC   C1B 1714  10.350   5.028   6.456  0.0316 -0.0197  0.0430
  117POPC   C2B 1715  10.301   4.939   6.107 -0.2279 -0.0958 -0.3106
  117POPC   C3B 1716  10.383   4.938   5.655  0.4000  0.0941  0.0662
  117POPC   C4B 1717  10.318   4.988   5.109  0.0566 -0.2251  0.0930
  118POPC   NC3 1718   2.629   0.740   7.494 -0.0788 -0.1346 -0.1944
  118POPC   PO4 1719   2.866   0.476   7.309 -0.0834  0.1757  0.2288
  118POPC   GL1 1720   2.849   0.690   6.956 -0.4778  0.1847 -0.0666
  118POPC   GL2 1721   2.731   0.513   6.668  0.2527 -0.2977  0.1822
  118POPC   C1A 1722   3.027   0.925   6.791  0.0134 -0.0536  0.1855
  118POPC   D2A 1723   3.174   0.721   6.323  0.1518  0.0282 -0.0712
  118POPC   C3A 1724   2.895   0.729   5.996  0.1871 -0.0028 -0.1133
  118POPC   C4A 1725   2.588   0.734   5.686  0.0476  0.2642  0.5127
  118POPC   C1B 1726   2.759   0.318   6.247 -0.1167  0.0798 -0.0899
  118POPC   C2B 1727   2.443   0.273   5.810 -0.0612  0.1566  0.0643
  118POPC   C3B 1728   2.069   0.590   5.803 -0.1982 -0.2869  0.0880
  118POPC   C4B 1729   1.665   0.873   5.888 -0.0707 -0.0865 -0.1497
  119POPC   NC3 1730   4.646   7.170   7.765 -0.1918  0.0709  0.1826
  119POPC   PO4 1731   4.767   6.862   7.508 -0.1448  0.0279  0.0826
  119POPC   GL1 1732   4.701   6.794   7.025 -0.0338  0.3285 -0.0853
  119POPC   GL2 1733   4.257   6.782   6.934 -0.1543  0.1034  0.1807
  119POPC   C1A 1734   4.669   7.156   6.779 -0.0819  0.0500 -0.0741
  119POPC   D2A 1735   4.700   7.087   6.314 -0.0013  0.0291 -0.2121
  119POPC   C3A 1736   4.406   7.020   5.979 -0.0409 -0.0553 -0.1472
  119POPC   C4A 1737   4.116   6.902   5.675 -0.4924  0.0880  0.1850
  119POPC   C1B 1738   4.318   6.822   6.510 -0.1078 -0.2407  0.3838
  119POPC   C2B 1739   4.402   6.486   6.175  0.1371 -0.4052 -0.1173
  119POPC   C3B 1740   4.709   6.119   6.000 -0.3014 -0.1585  0.1547
  119POPC   C4B 1741   4.895   5.771   5.988  0.0215  0.2732 -0.2805
  120POPC   NC3 1742   5.578   5.418   6.886  0.1288 -0.1374 -0.1166
  120POPC   PO4 1743   5.906   5.096   6.984 -0.0223  0.0444  0.0716
  120POPC   GL1 1744   5.914   5.170   6.539  0.1147  0.2515  0.0360
  120POPC   GL2 1745   6.186   5.410   6.476  0.0735 -0.1428  0.2026
  120POPC   C1A 1746   5.729   5.238   6.087 -0.0082  0.0336  0.4001
  120POPC   D2A 1747   5.569   5.208   5.557 -0.2116 -0.1740 -0.2125
  120POPC   C3A 1748   5.571   4.761   5.348  0.0113  0.2586 -0.1277
  120POPC   C4A 1749   5.751   4.327   5.144 -0.0445  0.0759 -0.0878
  120POPC   C1B 1750   6.171   5.824   6.325  0.0159  0.0014  0.0268
  120POPC   C2B 1751   6.154   5.966   5.793  0.0031  0.2932 -0.0476
  120POPC   C3B 1752   6.109   6.392   5.600 -0.0712  0.1779  0.1601
  120POPC   C4B 1753   5.976   6.703   5.288  0.0712 -0.2612  0.3916
  121POPC   NC3 1754   2.942   6.170   7.354  0.1109  0.1623  0.2292
  121POPC   PO4 1755   2.601   6.309   7.030  0.5719 -0.1827  0.0495
  121POPC   GL1 1756   2.829   6.125   6.672 -0.0756  0.1628 -0.1872
  121POPC   GL2 1757   2.908   6.379   6.584 -0.1328 -0.0972  0.3071
  121POPC   C1A 1758   2.670   5.885   6.302 -0.2597  0.2757 -0.0943
  121POPC   D2A 1759   2.363   5.727   5.978  0.1767 -0.0250 -0.2962
  121POPC   C3A 1760   2.589   5.526   5.629 -0.2829 -0.0826  0.0589
  121POPC   C4A 1761   2.453   5.249   5.365 -0.0056 -0.2664  0.0210
  121POPC   C1B 1762   3.022   6.281   6.104  0.1739 -0.3313 -0.1239
  121POPC   C2B 1763   2.945   6.483   5.656  0.2673 -0.0440 -0.2004
  121POPC   C3B 1764   3.047   6.805   5.432  0.0982 -0.3078 -0.1869
  121POPC   C4B 1765   2.912   6.898   5.040 -0.1069 -0.1222 -0.2621
  122POPC   NC3 1766   1.964   7.617   7.165 -0.0344  0.1361 -0.1610
  122POPC   PO4 1767   2.328   7.398   7.322  0.1778 -0.0388  0.1229
  122POPC   GL1 1768   2.433   7.489   6.826 -0.1063  0.2300 -0.0208
  122POPC   GL2 1769   2.170   7.336   6.792 -0.0356 -0.2138 -0.0558
  122POPC   C1A 1770   2.573   7.463   6.330  0.1685 -0.0343 -0.2134
  122POPC   D2A 1771   2.359   7.636   5.978  0.2012 -0.1717  0.1536
  122POPC   C3A 1772   2.626   7.430   5.557 -0.1235  0.3477 -0.1987
  122POPC   C4A 1773   2.645   7.040   5.492 -0.0685 -0.1470 -0.3639
  122POPC   C1B 1774   2.049   7.451   6.369 -0.0653 -0.0681  0.0260
  122POPC   C2B 1775   1.804   7.626   5.983  0.0621  0.1471 -0.2006
  122POPC   C3B 1776   1.459   7.665   5.710  0.0176 -0.0604  0.0211
  122POPC   C4B 1777   1.302   7.744   5.255 -0.3019 -0.1690  0.0192
  123POPC   NC3 1778   2.708   4.002   7.000  0.1552  0.1525 -0.1463
  123POPC   PO4 1779   3.154   4.200   6.989  0.0935 -0.1515 -0.1852
  123POPC   GL1 1780   3.034   3.865   6.648 -0.0113 -0.0877 -0.0947
  123POPC   GL2 1781   2.814   3.526   6.731  0.2979  0.2943  0.2681
  123POPC   C1A 1782   3.177   3.787   6.207 -0.1882  0.0974  0.0035
  123POPC   D2A 1783   3.159   3.608   5.831 -0.0853  0.2320  0.5594
  123POPC   C3A 1784   3.218   3.332   5.542  0.2426  0.2068 -0.0959
  123POPC   C4A 1785   3.137   3.117   5.175 -0.1182  0.0768 -0.1169
  123POPC   C1B 1786   2.629   3.771   6.269 -0.1625 -0.0182 -0.0592
  123POPC   C2B 1787   2.671   3.830   5.791 -0.0311 -0.1180 -0.1517
  123POPC   C3B 1788   2.831   3.684   5.458 -0.0871  0.1375 -0.4644
  123POPC   C4B 1789   2.956   3.572   5.058  0.1418  0.1721 -0.0406
  124POPC   NC3 1790   5.819   6.563   7.208 -0.0317  0.0767 -0.1513
  124POPC   PO4 1791   5.964   6.102   7.066  0.1802 -0.0097 -0.2633
  124POPC   GL1 1792   5.801   6.375   6.725 -0.2533  0.2474  0.1423
  124POPC   GL2 1793   5.532   6.276   6.637  0.1411 -0.0094 -0.2102
  124POPC   C1A 1794   5.895   6.653   6.436  0.0650  0.1763 -0.3218
  124POPC   D2A 1795   5.752   6.878   6.032 -0.0177  0.1008  0.2580
  124POPC   C3A 1796   5.640   6.972   5.571 -0.0256 -0.0337 -0.0019
  124POPC   C4A 1797   5.646   7.409   5.437 -0.0100 -0.1872 -0.2471
  124POPC   C1B 1798   5.432   6.544   6.250 -0.1660  0.1437  0.1540
  124POPC   C2B 1799   5.320   6.721   5.842 -0.1970  0.0202  0.0916
  124POPC   C3B 1800   5.163   6.814   5.397  0.1121  0.0983 -0.2067
  124POPC   C4B 1801   4.782   6.995   5.518 -0.0114  0.2775 -0.0852
  125POPC   NC3 1802   7.963   4.059   6.970 -0.0230  0.0391 -0.2364
  125POPC   PO4 1803   8.273   3.846   6.843 -0.1135 -0.1549  0.1922
  125POPC   GL1 1804   8.080   3.912   6.491 -0.0377  0.0996  0.0904
  125POPC   GL2 1805   8.282   4.132   6.312  0.2482  0.2810 -0.1031
  125POPC   C1A 1806   7.754   3.729   6.200  0.0790 -0.0495 -0.0159
  125POPC   D2A 1807   7.398   3.556   6.179  0.2341 -0.0046  0.2943
  125POPC   C3A 1808   7.194   3.700   5.965 -0.1293  0.1078  0.0871
  125POPC   C4A 1809   6.909   4.060   5.916 -0.0418 -0.3479 -0.0242
  125POPC   C1B 1810   8.353   4.487   6.176 -0.0982  0.1646  0.0741
  125POPC   C2B 1811   8.389   4.665   5.761 -0.2130  0.2050 -0.1579
  125POPC   C3B 1812   8.601   4.855   5.386 -0.3782  0.3882  0.2189
  125POPC   C4B 1813   9.043   4.820   5.107 -0.0398 -0.4062 -0.1417
  126POPC   NC3 1814   7.310   6.102   7.671  0.2142  0.3525  0.0564
  126POPC   PO4 1815   6.954   5.787   7.536  0.4125 -0.1007 -0.3416
  126POPC   GL1 1816   6.994   6.002   7.061  0.4289  0.2204  0.1236
  126POPC   GL2 1817   7.095   5.768   6.827 -0.0212 -0.2320 -0.2269
  126POPC   C1A 1818   6.903   6.213   6.684 -0.0110  0.0057 -0.1983
  126POPC   D2A 1819   6.822   6.300   6.293  0.0347  0.0442 -0.0408
  126POPC   C3A 1820   6.551   6.080   6.087  0.3238 -0.1609  0.1766
  126POPC   C4A 1821   6.637   5.928   5.762  0.0179 -0.0562  0.1204
  126POPC   C1B 1822   7.452   6.081   6.743 -0.0227  0.3290  0.2957
  126POPC   C2B 1823   7.429   6.235   6.333  0.2244 -0.1778  0.1699
  126POPC   C3B 1824   7.511   6.582   6.080  0.3413  0.0628 -0.0224
  126POPC   C4B 1825   7.688   6.933   5.903  0.1279 -0.1110  0.1574
  127POPC   NC3 1826   5.878   2.354   7.403  0.1432  0.0495  0.2227
  127POPC   PO4 1827   5.744   2.617   7.169 -0.3132 -0.0810  0.1554
  127POPC   GL1 1828   5.872   2.682   6.780  0.1361  0.0981  0.1355
  127POPC   GL2 1829   5.498   2.508   6.689  0.0755  0.3814  0.0656
  127POPC   C1A 1830   5.926   2.550   6.390 -0.1601 -0.2092  0.2348
  127POPC   D2A 1831   6.243   2.790   6.105 -0.0056 -0.0851 -0.2684
  127POPC   C3A 1832   6.433   2.684   5.695  0.0779  0.0893 -0.0018
  127POPC   C4A 1833   6.276   2.608   5.417  0.1811  0.0477 -0.1908
  127POPC   C1B 1834   5.440   2.639   6.306  0.1883 -0.4261 -0.0106
  127POPC   C2B 1835   5.714   2.664   5.962  0.3243 -0.1871 -0.0434
  127POPC   C3B 1836   5.867   2.861   5.615 -0.4086 -0.1860 -0.4524
  127POPC   C4B 1837   5.899   3.339   5.425 -0.0398  0.1374 -0.3926
  128POPC   NC3 1838   4.953   1.248   7.219  0.2902  0.1751  0.2300
  128POPC   PO4 1839   4.765   1.639   7.143  0.3012 -0.2341 -0.2313
  128POPC   GL1 1840   4.773   1.415   6.780  0.0622 -0.1597 -0.4637
  128POPC   GL2 1841   5.019   1.429   6.572  0.1354 -0.3242 -0.0972
  128POPC   C1A 1842   4.567   1.284   6.441 -0.2084 -0.1532  0.0362
  128POPC   D2A 1843   4.776   1.158   6.078  0.1165 -0.1649  0.2786
  128POPC   C3A 1844   4.735   1.282   5.648  0.1800  0.1225  0.0841
  128POPC   C4A 1845   4.866   1.337   5.273  0.1989 -0.0679  0.3332
  128POPC   C1B 1846   4.996   1.559   6.242 -0.0122 -0.2462  0.0736
  128POPC   C2B 1847   5.121   1.826   5.834 -0.0386 -0.1616 -0.1821
  128POPC   C3B 1848   4.898   1.775   5.574 -0.1631  0.1374 -0.0600
  128POPC   C4B 1849   4.662   1.975   5.350  0.2520 -0.1392  0.0232
  129POPC   NC3 1850   1.269   4.488   7.048  0.2357  0.0594  0.1110
  129POPC   PO4 1851   1.203   4.865   7.246 -0.0519 -0.0957  0.3465
  129POPC   GL1 1852   1.037   4.889   6.858 -0.1920  0.2586  0.0837
  129POPC   GL2 1853   0.760   5.123   6.873  0.1014 -0.0547 -0.2976
  129POPC   C1A 1854   1.109   4.786   6.422 -0.1737 -0.0010  0.0784
  129POPC   D2A 1855   1.334   4.884   6.123 -0.1346  0.0180  0.1803
  129POPC   C3A 1856   1.508   4.511   5.848  0.1917  0.2771  0.0724
  129POPC   C4A 1857   1.829   4.169   5.939  0.1693 -0.1150 -0.2083
  129POPC   C1B 1858   1.010   5.395   6.549 -0.0698  0.0391  0.2182
  129POPC   C2B 1859   1.133   5.322   6.198 -0.0246 -0.1499  0.0861
  129POPC   C3B 1860   1.297   5.459   5.883  0.0779  0.2441 -0.1645
  129POPC   C4B 1861   1.262   5.785   5.603 -0.1183 -0.1414  0.0359
  130POPC   NC3 1862   7.664   9.834   7.589 -0.4246 -0.1574  0.0355
  130POPC   PO4 1863   7.490  10.314   7.384 -0.1702  0.0566  0.0885
  130POPC   GL1 1864   7.818  10.038   7.062 -0.3576  0.0990 -0.0814
  130POPC   GL2 1865   7.798   9.874   6.715 -0.3637 -0.0813  0.0626
  130POPC   C1A 1866   8.164   9.749   7.113  0.0034 -0.0386  0.1482
  130POPC   D2A 1867   8.546   9.604   6.877 -0.0986  0.0993  0.1948
  130POPC   C3A 1868   8.313   9.632   6.513 -0.1863 -0.2360  0.2555
  130POPC   C4A 1869   8.216   9.492   6.021  0.4051 -0.0951  0.1694
  130POPC   C1B 1870   7.690   9.771   6.364 -0.2324  0.1746 -0.2541
  130POPC   C2B 1871   7.772   9.740   5.906 -0.0539 -0.0544 -0.1492
  130POPC   C3B 1872   7.824   9.332   5.705 -0.0904 -0.0356  0.2663
  130POPC   C4B 1873   7.885   8.955   5.533  0.1257  0.4430 -0.0794
  131POPC   NC3 1874   9.418   1.979   7.554 -0.2814  0.2180  0.0667
  131POPC   PO4 1875   9.050   1.996   7.266  0.0675  0.4080 -0.2305
  131POPC   GL1 1876   9.176   1.756   6.941  0.0052 -0.0996  0.1881
  131POPC   GL2 1877   8.889   1.668   6.805  0.0273 -0.1205 -0.2730
  131POPC   C1A 1878   9.315   1.766   6.571  0.0674 -0.0428 -0.1939
  131POPC   D2A 1879   9.211   1.393   6.244  0.0220 -0.3036 -0.0366
  131POPC   C3A 1880   9.340   1.475   5.779 -0.2752  0.1249  0.2616
  131POPC   C4A 1881   9.364   1.348   5.371 -0.1909  0.1045 -0.4621
  131POPC   C1B 1882   8.722   1.364   6.567  0.1295 -0.2484  0.1611
  131POPC   C2B 1883   8.761   1.060   6.337 -0.0917  0.1140 -0.2781
  131POPC   C3B 1884   8.704   0.753   5.958 -0.1857 -0.0035  0.0794
  131POPC   C4B 1885   8.762   0.616   5.564 -0.0203 -0.0500 -0.1789
  132POPC   NC3 1886   2.400  10.104   8.185 -0.1072 -0.2915  0.2762
  132POPC   PO4 1887   2.037  10.101   7.914  0.1344  0.0762 -0.0455
  132POPC   GL1 1888   1.650  10.095   7.452 -0.1124  0.4182 -0.1851
  132POPC   GL2 1889   1.651   9.907   7.162  0.0734  0.1850 -0.0161
  132POPC   C1A 1890   1.644  10.423   7.193  0.3296  0.0742  0.0769
  132POPC   D2A 1891   2.000  10.669   7.016  0.2686 -0.0087  0.2242
  132POPC   C3A 1892   2.035  11.047   6.723 -0.0156  0.1003  0.4401
  132POPC   C4A 1893   2.211  11.129   6.280  0.1124 -0.1700 -0.1250
  132POPC   C1B 1894   1.616   9.786   6.701 -0.2022 -0.1444 -0.1509
  132POPC   C2B 1895   1.531   9.792   6.196  0.0338  0.0045  0.4284
  132POPC   C3B 1896   1.074   9.931   6.083 -0.2175 -0.0005  0.2437
  132POPC   C4B 1897   0.701   9.922   5.915  0.2908  0.6919 -0.1031
  133POPC   NC3 1898   9.567  10.705   8.244  0.0342 -0.4893 -0.0873
  133POPC   PO4 1899   9.768  10.596   7.871  0.1455  0.3882 -0.1808
  133POPC   GL1 1900   9.922  10.194   7.725  0.0261  0.2232 -0.0360
  133POPC   GL2 1901  10.056   9.907   8.048 -0.0337  0.1089  0.0903
  133POPC   C1A 1902  10.016   9.854   7.528 -0.1491  0.0633 -0.0894
  133POPC   D2A 1903  10.231   9.449   7.600  0.1722  0.0817  0.0907
  133POPC   C3A 1904   9.899   9.060   7.584 -0.2191 -0.0219  0.2264
  133POPC   C4A 1905   9.622   8.811   7.356 -0.0464  0.1875 -0.3263
  133POPC   C1B 1906   9.885   9.485   7.966 -0.3725 -0.3516  0.1061
  133POPC   C2B 1907   9.543   9.352   7.700  0.1509 -0.0636  0.1511
  133POPC   C3B 1908   9.298   9.254   7.291  0.0077  0.3471  0.0968
  133POPC   C4B 1909   9.052   9.581   7.108 -0.1870  0.0445 -0.1976
  134POPC   NC3 1910   3.589   0.850   7.635 -0.0340 -0.2008  0.1202
  134POPC   PO4 1911   3.901   0.668   7.412 -0.2513 -0.1908  0.0212
  134POPC   GL1 1912   3.665   0.788   6.960 -0.2080  0.0231  0.2523
  134POPC   GL2 1913   3.414   0.600   6.873  0.0325  0.1077 -0.1137
  134POPC   C1A 1914   3.695   0.786   6.537 -0.0305  0.1796 -0.0653
  134POPC   D2A 1915   3.796   1.177   6.239 -0.0710  0.0288 -0.1638
  134POPC   C3A 1916   3.602   1.470   6.177 -0.0016  0.2378 -0.1082
  134POPC   C4A 1917   3.621   1.794   5.778 -0.1494 -0.0226 -0.1066
  134POPC   C1B 1918   3.181   0.350   6.673  0.1169  0.0777  0.3282
  134POPC   C2B 1919   3.170   0.006   6.322 -0.0347  0.1331  0.3654
  134POPC   C3B 1920   3.269  -0.139   5.890  0.0088 -0.2804 -0.0824
  134POPC   C4B 1921   3.506  -0.153   5.634  0.1599 -0.2405  0.1100
  135POPC   NC3 1922   1.836   1.267   7.610 -0.2959 -0.4453  0.2467
  135POPC   PO4 1923   1.763   1.297   7.184  0.0845  0.0106  0.2876
  135POPC   GL1 1924   1.722   1.546   6.814 -0.0621 -0.0766 -0.1707
  135POPC   GL2 1925   1.540   1.889   6.886 -0.0411 -0.2081  0.0502
  135POPC   C1A 1926   1.606   1.632   6.403  0.1169  0.1911  0.0854
  135POPC   D2A 1927   1.590   1.471   5.936  0.0780 -0.1593 -0.0488
  135POPC   C3A 1928   1.480   1.405   5.482  0.2202  0.0720  0.0383
  135POPC   C4A 1929   1.125   1.643   5.179 -0.1061 -0.2419 -0.2583
  135POPC   C1B 1930   1.875   1.947   6.654  0.3107 -0.1106  0.2054
  135POPC   C2B 1931   2.079   1.864   6.350 -0.2529 -0.1113  0.0806
  135POPC   C3B 1932   2.472   1.705   6.218  0.1126 -0.1304 -0.2171
  135POPC   C4B 1933   2.774   1.682   5.916 -0.1641 -0.0148 -0.1011
  136POPC   NC3 1934   8.856   9.820   7.832 -0.1218 -0.0821  0.0741
  136POPC   PO4 1935   8.579  10.142   7.638 -0.1563 -0.5437  0.0497
  136POPC   GL1 1936   8.935  10.104   7.348  0.1614  0.1327 -0.1279
  136POPC   GL2 1937   9.015  10.380   7.254  0.2025 -0.0852  0.1382
  136POPC   C1A 1938   9.405  10.068   7.240  0.1879 -0.0092 -0.2524
  136POPC   D2A 1939   9.798  10.208   7.029  0.0919 -0.2557 -0.1923
  136POPC   C3A 1940   9.721  10.298   6.581 -0.2875  0.0774  0.0299
  136POPC   C4A 1941   9.863  10.656   6.361  0.2815 -0.1638 -0.0663
  136POPC   C1B 1942   9.280  10.371   6.862  0.0201 -0.1919 -0.4703
  136POPC   C2B 1943   9.141  10.395   6.512 -0.1764 -0.0587 -0.2132
  136POPC   C3B 1944   8.697  10.485   6.286 -0.1894  0.0376  0.2450
  136POPC   C4B 1945   8.350  10.610   6.329 -0.1389  0.0730  0.0032
  137POPC   NC3 1946   2.689  10.104   7.360 -0.3525 -0.1308  0.0254
  137POPC   PO4 1947   2.475   9.904   7.606  0.1250  0.2678  0.0900
  137POPC   GL1 1948   2.274   9.841   7.067 -0.1295 -0.2952  0.0834
  137POPC   GL2 1949   2.038   9.565   7.019  0.0138 -0.2098  0.0426
  137POPC   C1A 1950   2.179   9.781   6.555 -0.1249 -0.2195 -0.0305
  137POPC   D2A 1951   2.090   9.818   6.170  0.0349 -0.1081 -0.2277
  137POPC   C3A 1952   1.841  10.227   6.209 -0.1069 -0.0094  0.0103
  137POPC   C4A 1953   1.600  10.458   5.938 -0.1019 -0.1907  0.0535
  137POPC   C1B 1954   1.833   9.246   6.747 -0.0377  0.2178  0.2147
  137POPC   C2B 1955   1.983   8.921   6.500  0.0551  0.0433  0.0318
  137POPC   C3B 1956   2.267   8.856   6.109  0.0988  0.2809 -0.1338
  137POPC   C4B 1957   2.425   8.931   5.757  0.1848  0.0391  0.1743
  138POPC   NC3 1958  10.693   6.875   8.756 -0.0719 -0.1166 -0.0506
  138POPC   PO4 1959  10.373   6.600   8.487  0.1566  0.1163 -0.1118
  138POPC   GL1 1960  10.243   6.736   8.088  0.3468  0.1424 -0.0858
  138POPC   GL2 1961   9.913   7.003   8.084 -0.0268  0.0448 -0.0507
  138POPC   C1A 1962  10.105   6.736   7.629 -0.2168 -0.0882 -0.0926
  138POPC   D2A 1963  10.026   6.532   7.234 -0.0152  0.1728 -0.0564
  138POPC   C3A 1964  10.165   6.527   6.808 -0.0547  0.1436 -0.0058
  138POPC   C4A 1965  10.475   6.670   6.460  0.2014  0.2501  0.0519
  138POPC   C1B 1966   9.697   7.022   7.701 -0.0609 -0.1479 -0.2136
  138POPC   C2B 1967   9.332   7.203   7.443 -0.1186 -0.0356  0.2344
  138POPC   C3B 1968   8.804   7.147   7.374 -0.1662 -0.1026 -0.0094
  138POPC   C4B 1969   8.467   7.466   7.333  0.2197  0.2327 -0.1107
  139POPC   NC3 1970   0.623   3.902   6.968  0.2172 -0.3967 -0.0580
  139POPC   PO4 1971   0.365   4.235   6.864 -0.3132  0.1574  0.0217
  139POPC   GL1 1972   0.364   4.535   6.581 -0.1918  0.0220  0.2808
  139POPC   GL2 1973   0.375   4.859   6.623 -0.2085 -0.0109  0.0057
  139POPC   C1A 1974   0.400   4.723   6.151  0.0123 -0.1415 -0.0700
  139POPC   D2A 1975   0.345   4.980   5.808  0.1167  0.1543  0.1124
  139POPC   C3A 1976   0.590   4.909   5.487  0.1473 -0.0067 -0.0648
  139POPC   C4A 1977   0.939   4.835   5.228  0.0728  0.0819  0.1622
  139POPC   C1B 1978   0.668   5.116   6.331 -0.4546 -0.1120  0.2326
  139POPC   C2B 1979   0.774   5.288   5.848 -0.0523  0.0955  0.0138
  139POPC   C3B 1980   0.937   5.391   5.482  0.3740 -0.0189 -0.1017
  139POPC   C4B 1981   1.259   5.199   5.192  0.1867 -0.2797 -0.1764
  140POPC   NC3 1982   1.299   6.508   7.541 -0.0111  0.3195  0.0327
  140POPC   PO4 1983   1.538   6.758   7.367 -0.0241 -0.0624  0.1973
  140POPC   GL1 1984   1.612   6.610   6.941 -0.0640 -0.6000  0.2640
  140POPC   GL2 1985   1.762   6.310   6.828 -0.3219 -0.0037 -0.2083
  140POPC   C1A 1986   1.300   6.710   6.561  0.2001  0.2382  0.1674
  140POPC   D2A 1987   0.919   6.717   6.216 -0.2978 -0.2644  0.0418
  140POPC   C3A 1988   0.712   6.255   6.145 -0.3134  0.1408 -0.2819
  140POPC   C4A 1989   0.308   6.080   5.994  0.0150 -0.0651 -0.2189
  140POPC   C1B 1990   1.765   6.184   6.477 -0.0345 -0.0435 -0.0463
  140POPC   C2B 1991   2.063   6.194   6.160 -0.2143  0.2356  0.1074
  140POPC   C3B 1992   2.084   6.123   5.688  0.0026 -0.1815 -0.1555
  140POPC   C4B 1993   1.767   5.951   5.446 -0.2426 -0.3238 -0.2338
  141POPC   NC3 1994   8.733   3.327   7.132  0.1484  0.0740  0.2680
  141POPC   PO4 1995   9.178   3.354   7.048 -0.1366 -0.0319  0.0029
  141POPC   GL1 1996   9.335   3.233   6.649  0.1099  0.2427  0.1292
  141POPC   GL2 1997   9.726   3.269   6.593 -0.1626 -0.0657 -0.5159
  141POPC   C1A 1998   9.523   2.834   6.419  0.0114 -0.1334  0.1077
  141POPC   D2A 1999   9.844   2.538   6.269  0.2560  0.1452  0.0067
  141POPC   C3A 2000   9.828   2.421   5.933  0.1370  0.2895  0.4129
  141POPC   C4A 2001   9.539   2.239   5.644  0.1458 -0.6209 -0.2552
  141POPC   C1B 2002   9.878   3.193   6.188  0.2066  0.0182  0.0232
  141POPC   C2B 2003   9.837   2.954   5.842 -0.1709  0.0109  0.2074
  141POPC   C3B 2004   9.690   2.692   5.517 -0.0306  0.0316 -0.0205
  141POPC   C4B 2005   9.340   2.543   5.233 -0.0925  0.0287  0.1082
  142POPC   NC3 2006   5.536   5.648   7.634  0.1519 -0.1164 -0.1965
  142POPC   PO4 2007   5.426   5.272   7.435  0.0647  0.0200 -0.0338
  142POPC   GL1 2008   5.163   5.185   6.959  0.1194 -0.0021  0.0336
  142POPC   GL2 2009   5.420   4.928   6.794 -0.0694  0.0477 -0.0348
  142POPC   C1A 2010   5.291   5.183   6.383 -0.1885 -0.0439  0.0732
  142POPC   D2A 2011   5.126   5.264   5.910  0.0496 -0.1035  0.1423
  142POPC   C3A 2012   5.284   5.586   5.691  0.1904 -0.0364  0.0800
  142POPC   C4A 2013   5.345   5.920   5.617 -0.1002 -0.1677 -0.2349
  142POPC   C1B 2014   5.135   4.761   6.585 -0.1914  0.2913  0.3361
  142POPC   C2B 2015   4.883   4.835   6.227 -0.0477 -0.1772  0.0880
  142POPC   C3B 2016   4.856   4.428   5.932  0.1735 -0.0693  0.0539
  142POPC   C4B 2017   4.990   4.118   5.700  0.0846  0.1949 -0.1416
  143POPC   NC3 2018   7.507   3.064   7.678  0.0410  0.2557 -0.0548
  143POPC   PO4 2019   7.528   2.962   7.240 -0.0167 -0.1077  0.1669
  143POPC   GL1 2020   7.572   3.218   6.941  0.0062  0.0246 -0.0658
  143POPC   GL2 2021   7.850   3.173   6.778 -0.0833 -0.2567  0.1636
  143POPC   C1A 2022   7.338   3.249   6.597 -0.0896 -0.3008  0.4001
  143POPC   D2A 2023   7.122   3.114   6.338 -0.1350 -0.0571 -0.0359
  143POPC   C3A 2024   7.135   3.137   5.867  0.2952 -0.1254 -0.1720
  143POPC   C4A 2025   7.343   3.447   5.476  0.1203  0.0240 -0.5991
  143POPC   C1B 2026   7.841   3.203   6.332 -0.1912  0.0337 -0.1011
  143POPC   C2B 2027   8.166   3.294   6.000  0.0743  0.0960  0.1087
  143POPC   C3B 2028   8.564   3.472   5.780  0.2814  0.1445 -0.1129
  143POPC   C4B 2029   9.027   3.535   5.894 -0.2824  0.1071 -0.0906
  144POPC   NC3 2030   1.426   2.393   7.579 -0.1574  0.1024  0.0990
  144POPC   PO4 2031   1.788   2.790   7.556  0.0583 -0.3399  0.0420
  144POPC   GL1 2032   1.948   2.774   7.121  0.0997 -0.1206 -0.0310
  144POPC   GL2 2033   2.297   2.827   6.927  0.0442  0.2162 -0.1641
  144POPC   C1A 2034   1.919   2.823   6.652 -0.1245 -0.0187 -0.2242
  144POPC   D2A 2035   1.807   2.888   6.196  0.2293  0.2694 -0.0924
  144POPC   C3A 2036   1.563   3.122   5.871 -0.2166 -0.0400 -0.1650
  144POPC   C4A 2037   1.192   3.136   5.594  0.0455 -0.1489 -0.1305
  144POPC   C1B 2038   2.352   2.950   6.499  0.1012  0.0594  0.2443
  144POPC   C2B 2039   2.232   2.670   6.148 -0.1040 -0.1194  0.1320
  144POPC   C3B 2040   1.932   2.385   6.077 -0.2825 -0.1618 -0.2675
  144POPC   C4B 2041   1.857   1.962   5.850 -0.0180  0.0284  0.0590
  145POPC   NC3 2042   0.552   1.644   7.604 -0.3491  0.2770  0.0966
  145POPC   PO4 2043   0.425   2.134   7.609 -0.0785 -0.1752 -0.2137
  145POPC   GL1 2044   0.681   1.901   7.174  0.0517  0.2193  0.1485
  145POPC   GL2 2045   0.907   1.768   7.274  0.2954  0.1544 -0.1538
  145POPC   C1A 2046   0.708   1.682   6.793  0.0450 -0.2374 -0.2342
  145POPC   D2A 2047   0.525   1.548   6.431 -0.1179 -0.3498  0.2497
  145POPC   C3A 2048   0.674   1.293   6.126 -0.1537 -0.0774  0.1880
  145POPC   C4A 2049   0.748   0.905   5.956 -0.0426  0.0674  0.3208
  145POPC   C1B 2050   1.147   1.502   6.998 -0.0050  0.1722 -0.1322
  145POPC   C2B 2051   1.159   1.384   6.519  0.3310 -0.0111  0.0603
  145POPC   C3B 2052   1.243   1.129   6.020 -0.3105  0.0737 -0.2803
  145POPC   C4B 2053   1.174   0.920   5.569 -0.0678  0.1296  0.0194
  146POPC   NC3 2054   3.368   8.323   7.563  0.0093 -0.1540 -0.2468
  146POPC   PO4 2055   3.235   8.377   7.098 -0.3989 -0.2298 -0.1118
  146POPC   GL1 2056   3.098   8.329   6.706 -0.1305 -0.0246  0.1300
  146POPC   GL2 2057   2.922   8.594   6.626 -0.1081  0.0470  0.2307
  146POPC   C1A 2058   3.324   8.248   6.283  0.4019 -0.0314  0.0345
  146POPC   D2A 2059   3.117   8.339   5.910 -0.1284  0.1043  0.2361
  146POPC   C3A 2060   3.095   8.027   5.651  0.0033 -0.2212 -0.3261
  146POPC   C4A 2061   2.945   7.891   5.390 -0.4320  0.0272  0.1073
  146POPC   C1B 2062   2.721   8.470   6.264  0.0979  0.1632 -0.0978
  146POPC   C2B 2063   2.494   8.386   5.816  0.2647 -0.0513  0.3467
  146POPC   C3B 2064   2.134   8.555   5.750  0.1054  0.0543  0.1609
  146POPC   C4B 2065   1.856   8.870   5.758  0.0653  0.0753  0.1296
  147POPC   NC3 2066   4.228   5.073   7.111  0.2223 -0.0622 -0.1352
  147POPC   PO4 2067   4.125   4.667   7.166 -0.2096  0.1670 -0.3285
  147POPC   GL1 2068   4.395   4.453   6.928 -0.0387  0.0203  0.0786
  147POPC   GL2 2069   4.390   4.111   6.972  0.2372 -0.0354 -0.4096
  147POPC   C1A 2070   4.691   4.533   6.589 -0.1145 -0.0448 -0.1096
  147POPC   D2A 2071   4.921   4.219   6.412 -0.1133  0.1025  0.4485
  147POPC   C3A 2072   4.754   3.861   6.244  0.2454 -0.2821  0.4045
  147POPC   C4A 2073   4.943   3.502   6.001 -0.2428 -0.1827  0.0164
  147POPC   C1B 2074   4.311   4.299   6.448  0.5543  0.2584 -0.3365
  147POPC   C2B 2075   4.363   4.438   6.104  0.0785 -0.1756 -0.0568
  147POPC   C3B 2076   4.410   4.648   5.716 -0.3869  0.0292 -0.1016
  147POPC   C4B 2077   4.694   4.492   5.298  0.2329  0.0882 -0.1248
  148POPC   NC3 2078   1.306  10.111   7.868 -0.0946  0.0727  0.0534
  148POPC   PO4 2079   1.558   9.803   7.805 -0.1246 -0.0288 -0.2520
  148POPC   GL1 2080   1.468   9.569   7.513  0.2037 -0.0036 -0.0108
  148POPC   GL2 2081   1.199   9.416   7.570  0.2695 -0.2802  0.2340
  148POPC   C1A 2082   1.442   9.420   7.014  0.0075 -0.2547 -0.2754
  148POPC   D2A 2083   1.157   9.413   6.680  0.0853 -0.1079  0.1118
  148POPC   C3A 2084   1.244   9.387   6.277 -0.3813  0.1568  0.2275
  148POPC   C4A 2085   1.274   9.330   5.879  0.0435 -0.2520 -0.1268
  148POPC   C1B 2086   0.757   9.515   7.611 -0.1032  0.2141 -0.0082
  148POPC   C2B 2087   0.421   9.597   7.296 -0.2479  0.1652  0.2094
  148POPC   C3B 2088   0.397   9.362   7.029  0.1321 -0.1138  0.1441
  148POPC   C4B 2089   0.104   9.067   6.938  0.1145 -0.1036 -0.1418
  149POPC   NC3 2090   7.309   6.948   7.846 -0.1233 -0.2887  0.0494
  149POPC   PO4 2091   7.512   6.540   7.837 -0.0634 -0.2925  0.3067
  149POPC   GL1 2092   7.234   6.601   7.476 -0.0100  0.0085 -0.0774
  149POPC   GL2 2093   7.318   6.348   7.248  0.2176  0.1885  0.1837
  149POPC   C1A 2094   7.096   6.836   7.087 -0.1270 -0.4342  0.1663
  149POPC   D2A 2095   7.097   7.220   6.904  0.3667  0.0485 -0.1638
  149POPC   C3A 2096   6.859   7.087   6.609 -0.2887 -0.2194  0.3357
  149POPC   C4A 2097   6.765   6.794   6.144  0.0505 -0.0905 -0.1802
  149POPC   C1B 2098   7.579   6.481   7.011 -0.0465 -0.0122  0.0093
  149POPC   C2B 2099   7.704   6.518   6.619 -0.1090  0.0622 -0.0107
  149POPC   C3B 2100   7.944   6.670   6.298 -0.2588 -0.1169  0.1334
  149POPC   C4B 2101   8.026   7.041   6.278  0.0378 -0.1609 -0.1934
  150POPC   NC3 2102   5.961   9.169   7.046  0.2203  0.1302  0.1769
  150POPC   PO4 2103   6.019   8.754   7.103 -0.0268  0.0587 -0.3287
  150POPC   GL1 2104   5.800   8.399   6.783  0.0118 -0.3465  0.0090
  150POPC   GL2 2105   5.623   8.134   6.959  0.0841  0.1441  0.1696
  150POPC   C1A 2106   5.884   8.531   6.375 -0.0617  0.3341 -0.1209
  150POPC   D2A 2107   5.964   8.517   5.989  0.1184 -0.0456 -0.1549
  150POPC   C3A 2108   5.801   8.430   5.596  0.1495 -0.1153  0.0764
  150POPC   C4A 2109   5.581   8.227   5.199 -0.0161 -0.0147 -0.2019
  150POPC   C1B 2110   5.464   8.007   6.524  0.0551 -0.0636  0.1724
  150POPC   C2B 2111   5.319   7.672   6.440 -0.0397  0.2046  0.1725
  150POPC   C3B 2112   4.937   7.612   6.215  0.2198  0.1495  0.3102
  150POPC   C4B 2113   4.642   7.377   5.796  0.1324 -0.2605 -0.0351
  151POPC   NC3 2114   5.996   1.326   7.274 -0.0427  0.0144  0.3030
  151POPC   PO4 2115   5.651   1.298   6.942  0.0430 -0.1615 -0.2178
  151POPC   GL1 2116   5.671   1.053   6.535  0.1007 -0.0256 -0.1016
  151POPC   GL2 2117   5.934   1.294   6.435  0.0124  0.1639 -0.1518
  151POPC   C1A 2118   5.848   0.629   6.279  0.0300  0.3615  0.2010
  151POPC   D2A 2119   6.149   0.292   6.269 -0.2291 -0.0099  0.0877
  151POPC   C3A 2120   6.452   0.329   5.930 -0.0539  0.0985  0.0199
  151POPC   C4A 2121   6.885   0.238   5.805  0.0477 -0.0266 -0.2220
  151POPC   C1B 2122   5.842   1.166   6.010 -0.0095 -0.4717 -0.2743
  151POPC   C2B 2123   5.740   1.157   5.586  0.1661 -0.0061  0.0043
  151POPC   C3B 2124   5.822   1.534   5.312 -0.1539  0.0920 -0.3614
  151POPC   C4B 2125   5.877   1.996   5.271 -0.0627  0.2189 -0.0012
  152POPC   NC3 2126  10.475   6.330   8.081 -0.0966 -0.1188  0.3376
  152POPC   PO4 2127  10.824   6.672   8.192 -0.1670  0.1691  0.0508
  152POPC   GL1 2128  10.664   7.011   7.832 -0.2350  0.2976  0.2327
  152POPC   GL2 2129  10.896   7.020   7.641 -0.0534  0.0471 -0.0186
  152POPC   C1A 2130  10.522   6.896   7.355  0.0684 -0.2303  0.2269
  152POPC   D2A 2131  10.187   6.957   6.987 -0.0750  0.0940  0.2048
  152POPC   C3A 2132  10.263   7.103   6.549  0.1040 -0.0984  0.1411
  152POPC   C4A 2133  10.337   7.058   6.080 -0.0668 -0.1921  0.2450
  152POPC   C1B 2134  10.919   7.237   7.285  0.1237 -0.2005 -0.0059
  152POPC   C2B 2135  10.558   7.542   7.244 -0.0387 -0.0658  0.0248
  152POPC   C3B 2136  10.339   7.903   6.961  0.2171 -0.2606 -0.0198
  152POPC   C4B 2137  10.272   8.126   6.630  0.0873  0.4596 -0.2045
  153POPC   NC3 2138  10.200   8.586   8.776 -0.1455 -0.5178  0.1713
  153POPC   PO4 2139  10.567   8.910   8.591  0.2350 -0.0611  0.5248
  153POPC   GL1 2140  10.746   8.689   8.195 -0.1653 -0.2348 -0.2362
  153POPC   GL2 2141  10.914   8.898   7.970  0.2297 -0.2825  0.2438
  153POPC   C1A 2142  10.627   8.483   7.879  0.2219  0.0518  0.0301
  153POPC   D2A 2143  10.215   8.168   7.821 -0.2500  0.2963  0.1079
  153POPC   C3A 2144  10.095   7.835   7.621  0.2034 -0.0909  0.1932
  153POPC   C4A 2145   9.775   7.545   7.718  0.1204  0.0158 -0.1823
  153POPC   C1B 2146  10.969   8.799   7.583  0.1479  0.0005  0.0977
  153POPC   C2B 2147  10.912   8.376   7.308 -0.0424 -0.3091  0.1967
  153POPC   C3B 2148  10.800   7.969   6.973  0.0272 -0.0920  0.0545
  153POPC   C4B 2149  10.839   7.929   6.493  0.0800  0.3719 -0.1496
  154POPC   NC3 2150   7.563   2.094   7.555  0.0021  0.2353  0.2014
  154POPC   PO4 2151   7.731   2.403   7.183  0.2157  0.3774  0.0485
  154POPC   GL1 2152   7.802   2.703   6.855 -0.3133  0.2279  0.0582
  154POPC   GL2 2153   8.029   2.436   6.693  0.1987  0.0172 -0.0798
  154POPC   C1A 2154   7.478   2.800   6.530  0.1126 -0.1680 -0.0619
  154POPC   D2A 2155   7.528   2.832   6.101  0.0506 -0.3859  0.4732
  154POPC   C3A 2156   7.605   3.182   5.828 -0.0885 -0.0841  0.0699
  154POPC   C4A 2157   8.000   3.139   5.587  0.1018 -0.1852 -0.0577
  154POPC   C1B 2158   8.015   1.914   6.539  0.2662  0.0090 -0.0621
  154POPC   C2B 2159   7.959   1.652   6.127 -0.1078  0.1341  0.1400
  154POPC   C3B 2160   8.280   1.634   5.731  0.2890  0.4941  0.0996
  154POPC   C4B 2161   8.386   1.571   5.299 -0.1557  0.0981 -0.2134
  155POPC   NC3 2162   4.387   2.000   7.077 -0.1214  0.3073  0.0019
  155POPC   PO4 2163   4.516   2.428   6.901  0.0598  0.0404  0.0111
  155POPC   GL1 2164   4.519   2.360   6.428 -0.1381 -0.0036 -0.3283
  155POPC   GL2 2165   4.304   2.230   6.305  0.0681 -0.0652 -0.1008
  155POPC   C1A 2166   4.672   2.625   6.042 -0.0962  0.2604  0.0015
  155POPC   D2A 2167   4.849   2.510   5.546 -0.2131  0.1708  0.0515
  155POPC   C3A 2168   4.510   2.526   5.187 -0.1788  0.0344  0.1330
  155POPC   C4A 2169   4.288   2.866   4.917 -0.3235 -0.2819 -0.2138
  155POPC   C1B 2170   4.129   2.545   5.986  0.2361 -0.1553 -0.0546
  155POPC   C2B 2171   3.956   2.704   5.592  0.4503 -0.4292  0.1547
  155POPC   C3B 2172   4.139   3.058   5.332 -0.1519  0.0569 -0.2406
  155POPC   C4B 2173   4.104   3.355   5.218  0.1849  0.3265 -0.3430
  156POPC   NC3 2174   3.066   1.784   7.302 -0.1311  0.3492  0.3395
  156POPC   PO4 2175   3.327   1.393   7.520 -0.2939 -0.3514 -0.2146
  156POPC   GL1 2176   3.240   1.343   7.080  0.0105 -0.0657  0.0454
  156POPC   GL2 2177   3.272   1.567   6.893  0.4016  0.1803 -0.1001
  156POPC   C1A 2178   3.551   1.222   6.712  0.0213 -0.2429 -0.2119
  156POPC   D2A 2179   4.010   1.257   6.677  0.0488 -0.1369 -0.0701
  156POPC   C3A 2180   4.236   1.623   6.522  0.1157  0.2028 -0.0655
  156POPC   C4A 2181   4.606   1.810   6.318  0.2792  0.0412 -0.2353
  156POPC   C1B 2182   3.611   1.759   6.589 -0.3778 -0.2300 -0.1602
  156POPC   C2B 2183   3.791   1.984   6.265  0.1524 -0.1478 -0.1348
  156POPC   C3B 2184   4.086   1.845   5.942  0.1463 -0.4940  0.0314
  156POPC   C4B 2185   4.470   1.728   5.796  0.0933  0.1175 -0.0172
  157POPC   NC3 2186   3.248  10.077   7.788  0.1047  0.1363  0.0673
  157POPC   PO4 2187   3.311   9.878   7.418 -0.1547 -0.0018  0.2227
  157POPC   GL1 2188   3.265   9.912   6.995  0.1977  0.3662  0.2293
  157POPC   GL2 2189   2.956   9.743   6.728  0.0849  0.4165 -0.2621
  157POPC   C1A 2190   3.525  10.060   6.667 -0.3522 -0.1277  0.0773
  157POPC   D2A 2191   3.648  10.315   6.324  0.0753  0.1513  0.1040
  157POPC   C3A 2192   3.786  10.274   5.919 -0.0624  0.0905 -0.2695
  157POPC   C4A 2193   4.141  10.495   5.705 -0.1281  0.1070  0.0435
  157POPC   C1B 2194   2.726   9.711   6.394  0.2480 -0.1806  0.1286
  157POPC   C2B 2195   2.500   9.545   6.016  0.1732 -0.1375 -0.0391
  157POPC   C3B 2196   2.214   9.376   5.759  0.2491  0.3479 -0.4626
  157POPC   C4B 2197   2.036   9.414   5.236  0.1126 -0.1519 -0.1120
  158POPC   NC3 2198  10.098   3.215   6.983  0.2782 -0.1382  0.1631
  158POPC   PO4 2199   9.951   3.670   6.925  0.1029  0.0183  0.5347
  158POPC   GL1 2200   9.904   3.764   6.517  0.2789  0.3470  0.2016
  158POPC   GL2 2201  10.270   3.795   6.357  0.3164 -0.1201  0.1441
  158POPC   C1A 2202   9.850   3.628   6.003  0.0062  0.0183  0.4933
  158POPC   D2A 2203   9.974   3.781   5.495 -0.0111  0.0444 -0.2238
  158POPC   C3A 2204   9.893   3.604   5.102  0.0039 -0.0475  0.3375
  158POPC   C4A 2205  10.090   3.231   4.891 -0.0695  0.0677 -0.1327
  158POPC   C1B 2206  10.080   4.051   6.045 -0.2403 -0.1199  0.1140
  158POPC   C2B 2207   9.863   4.181   5.699 -0.0462  0.0222  0.0906
  158POPC   C3B 2208   9.548   4.400   5.475 -0.1589  0.0342  0.2431
  158POPC   C4B 2209   9.371   4.868   5.516  0.2475  0.3325 -0.0834
  159POPC   NC3 2210   1.142   7.296   7.744 -0.2768 -0.0351 -0.0336
  159POPC   PO4 2211   1.216   7.683   7.569  0.2069 -0.1256  0.2750
  159POPC   GL1 2212   1.155   7.667   7.235  0.0925  0.0797  0.2412
  159POPC   GL2 2213   1.000   7.444   7.077 -0.0784  0.2290  0.0736
  159POPC   C1A 2214   1.129   7.872   6.707  0.1765  0.0069  0.0457
  159POPC   D2A 2215   0.962   7.953   6.311 -0.1427  0.1468 -0.3563
  159POPC   C3A 2216   0.972   7.629   5.988 -0.0641 -0.0847 -0.2323
  159POPC   C4A 2217   0.857   7.601   5.572  0.0221  0.2574 -0.0510
  159POPC   C1B 2218   1.279   7.312   6.838  0.1389 -0.3001  0.0452
  159POPC   C2B 2219   1.602   7.137   6.575 -0.4070  0.0515 -0.0969
  159POPC   C3B 2220   1.710   7.093   6.157 -0.7129  0.1306  0.0548
  159POPC   C4B 2221   1.824   6.897   5.881 -0.0277  0.0832  0.1335
  160POPC   NC3 2222   0.636   0.595   7.514  0.1713  0.0840  0.1715
  160POPC   PO4 2223   0.938   0.197   7.661  0.0582  0.4656  0.2116
  160POPC   GL1 2224   0.745   0.137   7.354  0.1615  0.0628  0.0374
  160POPC   GL2 2225   0.414   0.096   7.355 -0.4329 -0.1436 -0.0140
  160POPC   C1A 2226   0.751  -0.217   7.061  0.0813  0.1948  0.0594
  160POPC   D2A 2227   0.716  -0.313   6.664 -0.0017  0.0581  0.2546
  160POPC   C3A 2228   0.563  -0.591   6.438  0.0866 -0.0179  0.1434
  160POPC   C4A 2229   0.311  -0.479   6.097 -0.0909  0.0229  0.2412
  160POPC   C1B 2230   0.156   0.265   7.055  0.0518  0.1315  0.2030
  160POPC   C2B 2231  -0.052   0.053   6.703 -0.2252  0.0587  0.0512
  160POPC   C3B 2232  -0.101  -0.041   6.298 -0.1305 -0.0114 -0.0436
  160POPC   C4B 2233  -0.501   0.079   6.080 -0.2600  0.1574  0.1226
  161POPC   NC3 2234   6.933   1.325   6.929 -0.1438 -0.0543  0.0376
  161POPC   PO4 2235   7.386   1.582   7.061 -0.1148 -0.1811  0.2253
  161POPC   GL1 2236   7.034   1.777   6.791  0.1789  0.0357 -0.0526
  161POPC   GL2 2237   6.732   1.811   6.859  0.0111 -0.0587 -0.0988
  161POPC   C1A 2238   6.953   1.707   6.343 -0.0611  0.2540  0.2690
  161POPC   D2A 2239   6.980   1.984   5.975  0.1737  0.1807  0.0165
  161POPC   C3A 2240   7.297   1.849   5.620 -0.0666 -0.0478 -0.1177
  161POPC   C4A 2241   7.664   1.617   5.482  0.0964 -0.3362 -0.1199
  161POPC   C1B 2242   6.591   2.115   6.626 -0.1787  0.1741 -0.2029
  161POPC   C2B 2243   6.439   2.151   6.270 -0.1645  0.3602  0.1260
  161POPC   C3B 2244   6.208   2.303   5.916 -0.3239  0.2558 -0.0997
  161POPC   C4B 2245   5.895   2.317   5.649 -0.0002  0.1048  0.1751
  162POPC   NC3 2246   1.512   9.353   7.947  0.1967 -0.0498 -0.1563
  162POPC   PO4 2247   1.243   9.055   8.115  0.0264  0.1578 -0.0984
  162POPC   GL1 2248   0.993   8.915   7.724 -0.0543  0.4621  0.2392
  162POPC   GL2 2249   0.650   8.993   7.709 -0.1182 -0.0119 -0.0872
  162POPC   C1A 2250   0.909   8.662   7.290 -0.1280 -0.0343 -0.3987
  162POPC   D2A 2251   0.461   8.744   7.159  0.0380  0.2753 -0.1690
  162POPC   C3A 2252   0.285   8.487   6.755  0.0739 -0.0248  0.1363
  162POPC   C4A 2253  -0.157   8.431   6.782 -0.0413  0.3161  0.2557
  162POPC   C1B 2254   0.736   9.147   7.311  0.1267  0.4009  0.0478
  162POPC   C2B 2255   0.983   9.394   7.144 -0.0629  0.0668 -0.2761
  162POPC   C3B 2256   1.172   9.829   6.987 -0.1194 -0.0520  0.0338
  162POPC   C4B 2257   1.035   9.956   6.577 -0.1595  0.0095 -0.1073
  163POPC   NC3 2258   2.563   5.804   7.052  0.2100 -0.1627 -0.2768
  163POPC   PO4 2259   2.966   5.778   7.033  0.2599 -0.1335  0.0594
  163POPC   GL1 2260   2.930   5.558   6.603 -0.2060  0.1421 -0.1280
  163POPC   GL2 2261   2.530   5.498   6.606  0.0611  0.0502  0.3087
  163POPC   C1A 2262   3.138   5.232   6.325 -0.2055  0.1415  0.1458
  163POPC   D2A 2263   3.289   5.225   5.965  0.3674 -0.1287 -0.0344
  163POPC   C3A 2264   3.533   4.811   5.846  0.2545 -0.0080  0.1557
  163POPC   C4A 2265   3.987   4.787   5.866  0.2031 -0.3293  0.2242
  163POPC   C1B 2266   2.626   5.335   6.185 -0.4869  0.1460 -0.0055
  163POPC   C2B 2267   2.746   5.123   5.799 -0.2324  0.1246 -0.2212
  163POPC   C3B 2268   3.014   5.256   5.456 -0.1359  0.1414  0.4562
  163POPC   C4B 2269   3.016   5.546   5.147 -0.1845 -0.3440  0.0781
  164POPC   NC3 2270   3.768   5.569   7.361 -0.2607 -0.1669 -0.0376
  164POPC   PO4 2271   3.990   5.513   7.026  0.0098 -0.0801  0.0695
  164POPC   GL1 2272   3.904   5.573   6.609  0.2525  0.1214 -0.1067
  164POPC   GL2 2273   4.003   5.809   6.313 -0.1129  0.0238  0.0732
  164POPC   C1A 2274   3.540   5.562   6.377 -0.1217 -0.0206  0.2650
  164POPC   D2A 2275   3.570   5.753   5.970 -0.2386 -0.1791 -0.0871
  164POPC   C3A 2276   3.370   5.595   5.597  0.4089 -0.1188  0.0382
  164POPC   C4A 2277   3.503   5.706   5.181  0.0402  0.2241 -0.2441
  164POPC   C1B 2278   4.151   5.623   5.928 -0.0321  0.2448  0.0919
  164POPC   C2B 2279   4.362   5.800   5.606 -0.0764  0.0436  0.0207
  164POPC   C3B 2280   4.541   5.552   5.189 -0.0893  0.3741  0.2127
  164POPC   C4B 2281   4.539   5.578   4.756  0.1366  0.0215  0.0800
  165POPC   NC3 2282   0.663   5.105   7.817 -0.0449  0.1111  0.1472
  165POPC   PO4 2283   0.416   5.481   7.474 -0.3824  0.4420  0.1103
  165POPC   GL1 2284   0.348   5.565   7.097 -0.1621 -0.1476  0.1063
  165POPC   GL2 2285   0.067   5.711   7.048  0.0210  0.1685 -0.1773
  165POPC   C1A 2286   0.534   5.589   6.638  0.2864 -0.1838  0.1065
  165POPC   D2A 2287   0.565   5.684   6.192 -0.1059 -0.1547  0.0130
  165POPC   C3A 2288   0.295   5.409   6.027 -0.2303 -0.0378  0.0422
  165POPC   C4A 2289   0.019   5.053   6.126  0.0817  0.1313  0.1287
  165POPC   C1B 2290  -0.248   5.647   6.672  0.2490  0.1390  0.2141
  165POPC   C2B 2291  -0.278   5.450   6.217 -0.2745 -0.2480 -0.0483
  165POPC   C3B 2292  -0.091   5.375   5.763 -0.0731 -0.1450  0.2744
  165POPC   C4B 2293   0.371   5.492   5.546  0.2180  0.0729  0.0934
  166POPC   NC3 2294   8.812   2.429   7.115  0.1771  0.2255  0.0485
  166POPC   PO4 2295   8.660   2.113   6.879 -0.0449 -0.3369  0.4607
  166POPC   GL1 2296   8.926   2.168   6.628 -0.3292  0.0104  0.0740
  166POPC   GL2 2297   9.234   2.224   6.784 -0.1210 -0.1203 -0.0581
  166POPC   C1A 2298   8.883   1.877   6.303 -0.0397  0.0540  0.1165
  166POPC   D2A 2299   8.646   1.984   5.925 -0.0353  0.0079 -0.3441
  166POPC   C3A 2300   8.572   2.017   5.557 -0.0354  0.0487  0.2118
  166POPC   C4A 2301   8.604   2.307   5.285 -0.1143 -0.1298 -0.0604
  166POPC   C1B 2302   9.397   2.328   6.372  0.0569 -0.0448 -0.0828
  166POPC   C2B 2303   9.364   2.559   5.970 -0.1032  0.0895 -0.0330
  166POPC   C3B 2304   9.171   2.712   5.718 -0.2577 -0.3376 -0.1599
  166POPC   C4B 2305   8.877   2.799   5.381  0.1721 -0.1816  0.0874
  167POPC   NC3 2306   9.447   5.760   7.347 -0.0215  0.2805  0.0248
  167POPC   PO4 2307   9.866   5.474   7.215  0.2840 -0.0626  0.0958
  167POPC   GL1 2308   9.758   5.508   6.862  0.0086 -0.0705 -0.1359
  167POPC   GL2 2309   9.917   5.221   6.760 -0.0086 -0.0053 -0.2555
  167POPC   C1A 2310   9.748   5.714   6.573 -0.3705 -0.2096  0.1668
  167POPC   D2A 2311  10.130   5.845   6.269 -0.0598  0.0828  0.2308
  167POPC   C3A 2312  10.136   6.351   6.275 -0.3756  0.0486 -0.0369
  167POPC   C4A 2313   9.893   6.756   6.248 -0.0477 -0.1965  0.0112
  167POPC   C1B 2314   9.966   5.249   6.306  0.0571  0.0875  0.1570
  167POPC   C2B 2315   9.943   5.244   5.876  0.0702  0.0264 -0.4346
  167POPC   C3B 2316  10.238   5.514   5.557 -0.2394 -0.2347  0.1129
  167POPC   C4B 2317  10.415   5.899   5.271  0.3273 -0.1813  0.2439
  168POPC   NC3 2318   7.036  10.278   7.315  0.1649 -0.0099 -0.1140
  168POPC   PO4 2319   6.547  10.346   7.334  0.1223  0.0870  0.0636
  168POPC   GL1 2320   6.757  10.491   6.914  0.3572 -0.2588 -0.0239
  168POPC   GL2 2321   6.801  10.145   6.932  0.2043 -0.3346  0.0858
  168POPC   C1A 2322   6.969  10.465   6.539  0.0482  0.1293 -0.1341
  168POPC   D2A 2323   6.740  10.476   6.115  0.1184  0.1168  0.1520
  168POPC   C3A 2324   6.937  10.229   5.777  0.2312 -0.2138  0.1425
  168POPC   C4A 2325   7.057  10.547   5.566  0.3356 -0.1510  0.1473
  168POPC   C1B 2326   6.764   9.949   6.512 -0.0250 -0.3220 -0.3579
  168POPC   C2B 2327   6.690   9.947   6.106 -0.3634 -0.1754 -0.0569
  168POPC   C3B 2328   6.551   9.788   5.701 -0.0380  0.0401  0.3870
  168POPC   C4B 2329   6.714   9.616   5.320 -0.2176  0.3895  0.2465
  169POPC   NC3 2330   2.090   3.339   7.070  0.3180  0.0341 -0.0360
  169POPC   PO4 2331   2.287   3.516   6.830  0.0908  0.0006 -0.0096
  169POPC   GL1 2332   2.113   3.595   6.393  0.0888  0.1380 -0.0828
  169POPC   GL2 2333   2.010   3.352   6.426  0.0101  0.0950 -0.0072
  169POPC   C1A 2334   2.243   3.657   5.983  0.0642 -0.2003  0.0267
  169POPC   D2A 2335   2.327   3.534   5.526 -0.1932  0.0512 -0.0092
  169POPC   C3A 2336   2.096   3.232   5.476 -0.1993  0.2611  0.0089
  169POPC   C4A 2337   2.202   2.913   5.260 -0.0049  0.0012 -0.3583
  169POPC   C1B 2338   2.092   3.199   5.984 -0.0441 -0.1455  0.0338
  169POPC   C2B 2339   1.933   2.731   5.756  0.0260 -0.0939  0.1007
  169POPC   C3B 2340   1.876   2.381   5.516 -0.1018 -0.1028 -0.0549
  169POPC   C4B 2341   1.986   1.980   5.280  0.1036 -0.2124  0.1167
  170POPC   NC3 2342   4.085   8.316   7.110  0.0885 -0.0256  0.2125
  170POPC   PO4 2343   3.709   8.178   7.188 -0.0071  0.1833 -0.1037
  170POPC   GL1 2344   3.694   7.840   6.900 -0.1303  0.0140  0.0431
  170POPC   GL2 2345   3.739   8.052   6.690 -0.0019 -0.1972 -0.2351
  170POPC   C1A 2346   3.319   7.819   6.591 -0.1612  0.2539  0.1380
  170POPC   D2A 2347   2.850   7.927   6.422  0.1476 -0.1511 -0.1912
  170POPC   C3A 2348   2.722   7.933   5.963  0.1420 -0.0477  0.1345
  170POPC   C4A 2349   2.491   7.958   5.552  0.1003 -0.1183  0.2815
  170POPC   C1B 2350   3.728   8.484   6.522  0.0928  0.2190 -0.0088
  170POPC   C2B 2351   3.793   8.666   6.183  0.0141  0.6289  0.4157
  170POPC   C3B 2352   4.049   8.347   5.995  0.1175 -0.0325 -0.0996
  170POPC   C4B 2353   4.397   8.337   5.595  0.4142  0.0059  0.0008
  171POPC   NC3 2354   8.579   4.844   7.371 -0.2054 -0.0522 -0.4790
  171POPC   PO4 2355   8.303   4.794   7.016  0.0731 -0.0650  0.0958
  171POPC   GL1 2356   8.129   5.022   6.704 -0.3033 -0.1448  0.0777
  171POPC   GL2 2357   7.950   5.355   6.720  0.1366  0.0534 -0.0687
  171POPC   C1A 2358   8.130   4.893   6.304  0.1046 -0.1192  0.0859
  171POPC   D2A 2359   8.166   5.076   6.004  0.3756 -0.0100  0.0774
  171POPC   C3A 2360   7.998   4.893   5.676  0.2993  0.1452 -0.5359
  171POPC   C4A 2361   8.000   4.665   5.284 -0.1023  0.0120  0.2919
  171POPC   C1B 2362   8.059   5.510   6.353  0.1148 -0.2675  0.4032
  171POPC   C2B 2363   7.934   5.523   5.986 -0.1761 -0.5466 -0.1090
  171POPC   C3B 2364   8.160   5.480   5.703  0.0953  0.0575 -0.3685
  171POPC   C4B 2365   8.378   5.798   5.451 -0.2471  0.3061 -0.0416
  172POPC   NC3 2366   8.728   5.084   6.903 -0.0240 -0.0857 -0.0935
  172POPC   PO4 2367   9.119   5.025   6.895 -0.0005  0.0227  0.2920
  172POPC   GL1 2368   8.983   5.011   6.493  0.0277  0.0102 -0.1828
  172POPC   GL2 2369   9.148   4.818   6.180 -0.3095 -0.3336 -0.4594
  172POPC   C1A 2370   9.047   5.290   6.129 -0.0332 -0.2242 -0.0103
  172POPC   D2A 2371   9.136   5.399   5.664 -0.2470 -0.5317 -0.3571
  172POPC   C3A 2372   9.257   5.399   5.225  0.0504 -0.1594  0.1300
  172POPC   C4A 2373   9.520   5.494   4.841  0.4334 -0.0365 -0.2047
  172POPC   C1B 2374   8.896   4.711   5.804  0.0727 -0.3825 -0.1068
  172POPC   C2B 2375   9.024   4.471   5.497 -0.1686  0.0794 -0.0103
  172POPC   C3B 2376   8.945   3.974   5.587 -0.2314 -0.0313 -0.0210
  172POPC   C4B 2377   8.769   3.638   5.342  0.0478  0.3893  0.2261
  173POPC   NC3 2378   2.228   6.887   7.448 -0.1500  0.1355  0.1690
  173POPC   PO4 2379   1.961   7.096   7.223  0.0976 -0.0058  0.0775
  173POPC   GL1 2380   2.014   6.890   6.874 -0.0085 -0.2354  0.0114
  173POPC   GL2 2381   2.280   6.669   6.917 -0.2820  0.1524 -0.0457
  173POPC   C1A 2382   1.956   6.719   6.439  0.1367  0.2105  0.1345
  173POPC   D2A 2383   1.576   6.546   6.137  0.0463  0.0732 -0.1490
  173POPC   C3A 2384   1.622   6.449   5.611 -0.1720  0.0795  0.0954
  173POPC   C4A 2385   1.732   6.415   5.199  0.0581 -0.1374  0.0148
  173POPC   C1B 2386   2.427   7.013   6.534  0.3492  0.2327  0.0646
  173POPC   C2B 2387   2.301   7.087   6.052 -0.2130  0.1721  0.0820
  173POPC   C3B 2388   2.201   7.241   5.716 -0.0970  0.2461  0.1004
  173POPC   C4B 2389   2.074   7.095   5.322 -0.0463  0.1568 -0.0979
  174POPC   NC3 2390   9.358   2.350   3.096  0.2323 -0.1668 -0.0171
  174POPC   PO4 2391   9.083   2.046   3.358  0.1775  0.1514  0.0632
  174POPC   GL1 2392   8.951   2.288   3.698  0.0967  0.3390  0.1359
  174POPC   GL2 2393   9.044   2.564   3.875 -0.1590  0.3851  0.2609
  174POPC   C1A 2394   8.643   2.287   4.026  0.0182  0.0325  0.2853
  174POPC   D2A 2395   8.582   2.469   4.419  0.0435  0.3956 -0.1673
  174POPC   C3A 2396   8.578   2.860   4.445 -0.0909 -0.0305 -0.3029
  174POPC   C4A 2397   8.523   3.224   4.312  0.0067 -0.0641  0.3401
  174POPC   C1B 2398   9.029   2.633   4.361 -0.1696 -0.0640 -0.0098
  174POPC   C2B 2399   8.879   2.736   4.810  0.2093  0.1109 -0.0329
  174POPC   C3B 2400   8.562   2.682   4.975 -0.3750  0.4753  0.3664
  174POPC   C4B 2401   8.194   2.728   4.728  0.3729 -0.1867  0.0912
  175POPC   NC3 2402  10.076   7.142   3.357  0.3041 -0.0732  0.0982
  175POPC   PO4 2403   9.655   6.914   3.344 -0.0582  0.1581 -0.2751
  175POPC   GL1 2404   9.445   6.692   3.753  0.1388 -0.0727  0.1370
  175POPC   GL2 2405   9.168   6.560   3.759  0.1599 -0.0742  0.1229
  175POPC   C1A 2406   9.401   6.821   4.240  0.3222  0.0674 -0.1323
  175POPC   D2A 2407   9.314   6.850   4.785  0.1103  0.0499  0.1778
  175POPC   C3A 2408   9.085   6.512   5.008 -0.0268  0.0095 -0.2893
  175POPC   C4A 2409   9.096   6.306   5.340 -0.1395 -0.2648 -0.0537
  175POPC   C1B 2410   9.297   6.329   4.149  0.0502  0.0143  0.0245
  175POPC   C2B 2411   9.695   6.235   4.404 -0.0796 -0.4438  0.2421
  175POPC   C3B 2412   9.837   5.800   4.560  0.2254 -0.2269 -0.0638
  175POPC   C4B 2413  10.041   5.759   4.922 -0.2319  0.1224 -0.0839
  176POPC   NC3 2414   8.792   0.940   3.170  0.0227  0.2237  0.0079
  176POPC   PO4 2415   8.927   0.950   3.557 -0.0391 -0.1530 -0.2651
  176POPC   GL1 2416   8.640   1.244   3.879 -0.0615  0.2129 -0.1945
  176POPC   GL2 2417   8.275   1.258   3.839  0.0065 -0.5605 -0.2492
  176POPC   C1A 2418   8.494   1.460   4.243  0.3319  0.2805  0.1239
  176POPC   D2A 2419   8.697   1.531   4.683  0.1671  0.2492 -0.0795
  176POPC   C3A 2420   8.459   1.943   4.801 -0.1672 -0.0341  0.1745
  176POPC   C4A 2421   8.291   2.279   4.870  0.2183 -0.0875  0.3788
  176POPC   C1B 2422   8.119   1.132   4.202 -0.0096  0.0565 -0.0450
  176POPC   C2B 2423   8.064   1.096   4.576  0.2726 -0.0442  0.0814
  176POPC   C3B 2424   8.257   0.841   4.843 -0.2364 -0.1478 -0.1891
  176POPC   C4B 2425   8.337   0.449   5.068  0.3082  0.1219  0.1898
  177POPC   NC3 2426   7.884   5.101   3.067 -0.1660  0.2100  0.1087
  177POPC   PO4 2427   7.523   4.919   3.338  0.2045 -0.1756 -0.2059
  177POPC   GL1 2428   7.341   4.982   3.883 -0.1151 -0.2555 -0.0258
  177POPC   GL2 2429   7.120   4.753   4.049 -0.0235  0.1277  0.0465
  177POPC   C1A 2430   7.305   5.206   4.249 -0.1441  0.0747 -0.1396
  177POPC   D2A 2431   7.195   5.290   4.665 -0.4315 -0.0260 -0.0153
  177POPC   C3A 2432   7.488   5.361   5.051  0.2091  0.0765 -0.0908
  177POPC   C4A 2433   7.753   5.262   5.455  0.0251 -0.0213  0.0781
  177POPC   C1B 2434   7.224   4.375   4.292 -0.0728  0.0834 -0.2557
  177POPC   C2B 2435   6.873   4.183   4.577 -0.3850  0.0664 -0.2029
  177POPC   C3B 2436   6.651   4.151   4.868  0.0516 -0.0783  0.1825
  177POPC   C4B 2437   6.439   4.463   5.119 -0.3017 -0.3820  0.0827
  178POPC   NC3 2438   8.175  10.313   3.535 -0.3248  0.1991  0.2778
  178POPC   PO4 2439   8.056   9.926   3.472 -0.2736  0.0685 -0.0112
  178POPC   GL1 2440   7.965   9.841   3.927 -0.1861  0.0410 -0.1066
  178POPC   GL2 2441   7.652   9.714   4.030 -0.0448  0.0327 -0.1493
  178POPC   C1A 2442   8.034  10.307   4.209  0.1073 -0.0202 -0.0197
  178POPC   D2A 2443   7.939  10.332   4.630 -0.0853 -0.0452 -0.0882
  178POPC   C3A 2444   8.321  10.459   4.936 -0.0140 -0.2141 -0.1845
  178POPC   C4A 2445   8.287  10.726   5.251 -0.1451 -0.0557 -0.0162
  178POPC   C1B 2446   7.737   9.733   4.410 -0.0302 -0.0720 -0.1510
  178POPC   C2B 2447   7.907   9.825   4.843 -0.0149 -0.2789 -0.0500
  178POPC   C3B 2448   7.985  10.068   5.104  0.0035  0.1547 -0.1327
  178POPC   C4B 2449   8.187  10.284   5.486  0.0742 -0.0788 -0.1431
  179POPC   NC3 2450   5.693   1.795   3.245  0.2647 -0.0267  0.1130
  179POPC   PO4 2451   5.427   2.076   3.139  0.1865 -0.1291  0.1152
  179POPC   GL1 2452   5.273   2.044   3.517 -0.1803  0.0739  0.0282
  179POPC   GL2 2453   5.500   2.191   3.663  0.0277  0.0421 -0.2180
  179POPC   C1A 2454   5.095   1.994   3.916 -0.1133  0.0843 -0.0423
  179POPC   D2A 2455   4.783   2.031   4.278  0.2057  0.0349  0.3441
  179POPC   C3A 2456   4.428   2.249   4.340  0.0808  0.4311 -0.2874
  179POPC   C4A 2457   4.381   2.489   4.672  0.0201  0.1492  0.2263
  179POPC   C1B 2458   5.879   2.386   3.843 -0.0758  0.4965  0.0489
  179POPC   C2B 2459   6.074   2.646   4.098  0.1406  0.1965  0.4478
  179POPC   C3B 2460   6.119   2.490   4.521 -0.1396 -0.0772 -0.4623
  179POPC   C4B 2461   6.003   2.414   4.837 -0.1884  0.2418 -0.0992
  180POPC   NC3 2462   6.497  10.207   3.444  0.3295 -0.1971  0.0716
  180POPC   PO4 2463   6.200  10.535   3.389  0.0372 -0.1840 -0.1321
  180POPC   GL1 2464   6.389  10.543   3.779 -0.0843  0.1255  0.3484
  180POPC   GL2 2465   6.638  10.545   3.796  0.0163 -0.1939  0.3185
  180POPC   C1A 2466   6.269  10.673   4.257  0.2032 -0.2779  0.2249
  180POPC   D2A 2467   6.294  10.680   4.654 -0.4151  0.2179  0.1879
  180POPC   C3A 2468   6.299  10.395   5.014 -0.1780  0.0483  0.4463
  180POPC   C4A 2469   6.614  10.265   5.297 -0.0846  0.0987 -0.0607
  180POPC   C1B 2470   6.594  10.356   4.236  0.0221 -0.1550  0.0782
  180POPC   C2B 2471   6.586   9.883   4.430 -0.0774  0.1357  0.1164
  180POPC   C3B 2472   6.695   9.401   4.609  0.0353 -0.2044  0.2307
  180POPC   C4B 2473   6.462   9.047   4.652  0.0695 -0.1079  0.1342
  181POPC   NC3 2474   0.236  10.666   3.554  0.1319 -0.1376 -0.3016
  181POPC   PO4 2475   0.409  11.042   3.739  0.1216 -0.1411 -0.2992
  181POPC   GL1 2476   0.495  11.298   4.125  0.1032  0.3583  0.2950
  181POPC   GL2 2477   0.205  11.466   4.036  0.0846  0.2747 -0.1840
  181POPC   C1A 2478   0.595  11.584   4.464  0.0077  0.0484 -0.0416
  181POPC   D2A 2479   0.555  11.827   4.881 -0.1198 -0.1577  0.2298
  181POPC   C3A 2480   0.331  11.880   5.330  0.0673  0.1153  0.1524
  181POPC   C4A 2481   0.025  12.203   5.454  0.0055  0.0871 -0.2076
  181POPC   C1B 2482   0.115  11.195   4.424  0.1854  0.1950  0.2836
  181POPC   C2B 2483   0.014  11.210   4.872 -0.5797 -0.1198  0.0771
  181POPC   C3B 2484   0.317  11.349   5.175 -0.1412 -0.0527 -0.1010
  181POPC   C4B 2485   0.699  11.555   5.282 -0.0794 -0.1901  0.2571
  182POPC   NC3 2486   3.452   1.900   3.077 -0.0685  0.0231  0.0244
  182POPC   PO4 2487   3.601   1.566   3.194 -0.0701 -0.1225 -0.0249
  182POPC   GL1 2488   3.654   1.581   3.713  0.3134  0.0391 -0.0919
  182POPC   GL2 2489   3.675   1.286   3.978 -0.2059  0.0063 -0.0984
  182POPC   C1A 2490   3.899   1.860   4.058 -0.0089  0.0418 -0.2443
  182POPC   D2A 2491   3.905   1.899   4.478 -0.0277  0.1768 -0.0826
  182POPC   C3A 2492   4.241   2.024   4.841 -0.0610  0.1487  0.1623
  182POPC   C4A 2493   4.708   2.135   4.843 -0.1010  0.1053  0.0593
  182POPC   C1B 2494   3.514   1.186   4.431  0.0512 -0.0827  0.1766
  182POPC   C2B 2495   3.620   1.215   4.858  0.2572 -0.4068 -0.3309
  182POPC   C3B 2496   3.809   1.295   5.365  0.0135  0.0051 -0.3168
  182POPC   C4B 2497   3.924   1.398   5.821  0.4958  0.0357 -0.2107
  183POPC   NC3 2498   4.676   6.308   3.308 -0.2976 -0.0660 -0.0792
  183POPC   PO4 2499   4.272   6.116   3.465  0.0015 -0.1297  0.0063
  183POPC   GL1 2500   4.528   6.007   3.820 -0.0088 -0.2265  0.0332
  183POPC   GL2 2501   4.744   5.795   3.811  0.0947  0.2146 -0.3684
  183POPC   C1A 2502   4.567   5.912   4.328 -0.2461  0.2296  0.2579
  183POPC   D2A 2503   4.851   6.102   4.550 -0.2269 -0.0468  0.2795
  183POPC   C3A 2504   4.762   5.981   4.954  0.2711  0.0144  0.0845
  183POPC   C4A 2505   4.863   5.836   5.477 -0.3866  0.2705 -0.0811
  183POPC   C1B 2506   4.686   5.510   4.101  0.2899  0.1895  0.1677
  183POPC   C2B 2507   4.953   5.594   4.439 -0.1835  0.0262  0.0975
  183POPC   C3B 2508   5.104   5.615   4.999  0.3812 -0.0167  0.0752
  183POPC   C4B 2509   5.505   5.576   5.229  0.2469  0.2953  0.0041
  184POPC   NC3 2510   3.821   0.762   3.084  0.0568  0.3208  0.1169
  184POPC   PO4 2511   3.778   0.391   3.333 -0.0486 -0.0905  0.2440
  184POPC   GL1 2512   3.631   0.524   3.630 -0.2887 -0.4118  0.1178
  184POPC   GL2 2513   3.587   0.415   3.892  0.0469  0.0046  0.0005
  184POPC   C1A 2514   3.396   0.883   3.828  0.0239  0.0055  0.0714
  184POPC   D2A 2515   3.181   1.172   4.071 -0.0286 -0.0297  0.5292
  184POPC   C3A 2516   3.089   0.918   4.515  0.1217 -0.0226 -0.0814
  184POPC   C4A 2517   3.105   0.771   4.852 -0.0215  0.1334  0.2996
  184POPC   C1B 2518   3.568   0.660   4.295  0.2156  0.3040 -0.1930
  184POPC   C2B 2519   3.717   0.728   4.659 -0.3360 -0.0017 -0.1604
  184POPC   C3B 2520   4.023   0.914   4.984 -0.0561 -0.1864  0.0054
  184POPC   C4B 2521   4.345   1.151   5.279 -0.0656 -0.1743  0.1917
  185POPC   NC3 2522   1.083   5.889   2.990  0.0434 -0.4283  0.2448
  185POPC   PO4 2523   0.953   5.930   3.384 -0.0299 -0.1605  0.2197
  185POPC   GL1 2524   0.842   6.076   3.861 -0.0169 -0.1404  0.1107
  185POPC   GL2 2525   0.691   5.830   4.007  0.1750  0.3252  0.0253
  185POPC   C1A 2526   0.794   6.213   4.342  0.4276  0.1816 -0.0304
  185POPC   D2A 2527   1.070   6.066   4.678 -0.4440  0.0691 -0.2219
  185POPC   C3A 2528   1.221   6.168   5.212 -0.0963 -0.1657 -0.1049
  185POPC   C4A 2529   1.063   6.555   5.442 -0.1468  0.1572  0.0958
  185POPC   C1B 2530   0.707   5.724   4.401  0.0018 -0.0261 -0.1733
  185POPC   C2B 2531   0.637   5.438   4.720  0.0719  0.1531 -0.3514
  185POPC   C3B 2532   0.384   5.191   5.092  0.0539  0.1459  0.2696
  185POPC   C4B 2533   0.072   4.995   5.360  0.2202  0.1730  0.7245
  186POPC   NC3 2534  10.243   3.111   3.226 -0.0361  0.1176 -0.3117
  186POPC   PO4 2535  10.740   3.221   3.102 -0.3180  0.1758  0.0431
  186POPC   GL1 2536  10.798   3.127   3.538  0.1306  0.0819  0.1745
  186POPC   GL2 2537  10.538   2.905   3.610 -0.4073 -0.1642 -0.0541
  186POPC   C1A 2538  10.925   3.144   3.950 -0.0323 -0.1573  0.0967
  186POPC   D2A 2539  11.048   3.339   4.337  0.2353 -0.6296  0.0316
  186POPC   C3A 2540  10.638   3.353   4.655  0.0193 -0.0631 -0.0026
  186POPC   C4A 2541  10.474   3.329   5.120 -0.3822  0.1939  0.2272
  186POPC   C1B 2542  10.253   3.032   3.837  0.4434 -0.2048 -0.3351
  186POPC   C2B 2543   9.962   2.840   4.163 -0.2791 -0.0106 -0.0304
  186POPC   C3B 2544   9.701   3.115   4.445 -0.1655  0.1748 -0.1026
  186POPC   C4B 2545   9.380   2.792   4.672 -0.2638  0.2819  0.0747
  187POPC   NC3 2546   0.069   9.199   3.055 -0.2335  0.0287 -0.2455
  187POPC   PO4 2547   0.459   9.242   3.342  0.1194  0.0508  0.4955
  187POPC   GL1 2548   0.449   9.215   3.761  0.1546  0.1762  0.0094
  187POPC   GL2 2549   0.524   9.511   3.867 -0.0907  0.0647 -0.2599
  187POPC   C1A 2550   0.628   9.123   4.192  0.0622 -0.1267 -0.1721
  187POPC   D2A 2551   0.587   9.269   4.581  0.1411  0.2213 -0.0628
  187POPC   C3A 2552   0.585   9.205   4.961 -0.0784 -0.2118  0.1123
  187POPC   C4A 2553   0.794   9.306   5.334  0.1867  0.1406  0.1207
  187POPC   C1B 2554   0.402   9.622   4.192  0.1444 -0.2777 -0.3373
  187POPC   C2B 2555   0.687   9.770   4.541  0.2722 -0.1465 -0.1481
  187POPC   C3B 2556   0.779   9.701   5.030  0.0079  0.0283  0.0336
  187POPC   C4B 2557   0.713   9.986   5.386 -0.1044  0.2057 -0.2018
  188POPC   NC3 2558   5.117   6.042   3.557 -0.1207  0.2108  0.2330
  188POPC   PO4 2559   5.117   5.647   3.571 -0.0290  0.0756  0.0442
  188POPC   GL1 2560   5.193   5.495   3.914  0.0445 -0.3276  0.0228
  188POPC   GL2 2561   5.132   5.809   4.055  0.0275 -0.2649  0.0784
  188POPC   C1A 2562   5.397   5.414   4.320 -0.0219 -0.1957 -0.2338
  188POPC   D2A 2563   5.580   5.453   4.733 -0.0721  0.0014 -0.1785
  188POPC   C3A 2564   5.955   5.746   5.012 -0.2367 -0.1159 -0.1681
  188POPC   C4A 2565   6.300   5.829   5.325 -0.1338  0.2109 -0.2395
  188POPC   C1B 2566   5.322   5.920   4.459  0.0202 -0.0388  0.2188
  188POPC   C2B 2567   5.500   5.969   4.756  0.1017  0.1189 -0.0548
  188POPC   C3B 2568   5.592   6.303   4.871  0.1509 -0.3488 -0.1194
  188POPC   C4B 2569   5.788   6.656   4.690 -0.0094 -0.0553  0.2730
  189POPC   NC3 2570   4.668   3.357   2.694  0.1489  0.1357 -0.3331
  189POPC   PO4 2571   4.406   3.331   3.032  0.1939 -0.0521 -0.0120
  189POPC   GL1 2572   4.554   3.240   3.440 -0.0061  0.0375  0.1134
  189POPC   GL2 2573   4.876   3.299   3.668  0.1344 -0.2241 -0.0501
  189POPC   C1A 2574   4.405   3.158   3.923 -0.1015  0.1212  0.1356
  189POPC   D2A 2575   4.066   3.089   4.228  0.1700  0.2057  0.0882
  189POPC   C3A 2576   4.126   3.263   4.526 -0.0703  0.0889 -0.1590
  189POPC   C4A 2577   4.567   3.583   4.528 -0.3166 -0.1060  0.0613
  189POPC   C1B 2578   4.688   3.625   3.965 -0.0830  0.1580 -0.0595
  189POPC   C2B 2579   4.472   3.963   4.161  0.0447 -0.1790  0.2078
  189POPC   C3B 2580   4.131   3.942   4.180  0.1729 -0.0130 -0.2016
  189POPC   C4B 2581   3.854   4.197   4.176 -0.1291  0.0215 -0.4762
  190POPC   NC3 2582   1.811  10.706   3.798 -0.0821 -0.0671 -0.2362
  190POPC   PO4 2583   1.964  10.283   3.945  0.2981 -0.2375 -0.0395
  190POPC   GL1 2584   1.949  10.457   4.383 -0.0798 -0.2465  0.1655
  190POPC   GL2 2585   2.084  10.206   4.577  0.0201  0.0328  0.0493
  190POPC   C1A 2586   1.788  10.817   4.606  0.1156 -0.0811 -0.3536
  190POPC   D2A 2587   1.628  10.741   5.004 -0.0652  0.0347  0.3116
  190POPC   C3A 2588   1.505  11.078   5.192  0.1497 -0.0526  0.0301
  190POPC   C4A 2589   1.511  11.224   5.515  0.0528 -0.1664  0.0794
  190POPC   C1B 2590   1.880  10.291   4.966 -0.0680  0.0303  0.0959
  190POPC   C2B 2591   1.653  10.352   5.367  0.0513 -0.2567 -0.0565
  190POPC   C3B 2592   1.399  10.728   5.494 -0.1145 -0.1006  0.0580
  190POPC   C4B 2593   1.200  10.776   5.933 -0.0661 -0.1116 -0.4016
  191POPC   NC3 2594   9.241   1.936   3.903 -0.0374  0.1809 -0.1779
  191POPC   PO4 2595   9.501   2.244   3.668  0.0227 -0.2289  0.0932
  191POPC   GL1 2596   9.689   2.506   3.928  0.0377  0.0636  0.0302
  191POPC   GL2 2597   9.625   2.442   4.184 -0.0030  0.0523 -0.0075
  191POPC   C1A 2598   9.405   2.841   3.974 -0.2531  0.0721 -0.2516
  191POPC   D2A 2599   9.475   3.281   3.946 -0.2337 -0.4305  0.0059
  191POPC   C3A 2600   9.792   3.447   4.083 -0.1352  0.0286  0.0883
  191POPC   C4A 2601   9.972   3.803   4.060 -0.2332 -0.1686 -0.4549
  191POPC   C1B 2602   9.451   2.251   4.538 -0.1142 -0.5113 -0.2042
  191POPC   C2B 2603   9.613   1.953   4.869 -0.0149 -0.0173 -0.1090
  191POPC   C3B 2604   9.822   2.185   5.176 -0.1859 -0.0434 -0.0689
  191POPC   C4B 2605  10.131   2.440   5.387  0.3190  0.1376  0.1568
  192POPC   NC3 2606   6.851   9.021   3.242  0.0259 -0.0036  0.6079
  192POPC   PO4 2607   7.099   8.828   3.450 -0.0101 -0.1550  0.3977
  192POPC   GL1 2608   6.974   8.472   3.779 -0.1129 -0.0214  0.0656
  192POPC   GL2 2609   6.735   8.654   3.824 -0.0828 -0.1098  0.0223
  192POPC   C1A 2610   6.833   8.195   4.176  0.0878  0.5368  0.0899
  192POPC   D2A 2611   6.844   8.031   4.623  0.0915 -0.1607  0.1096
  192POPC   C3A 2612   6.820   8.223   5.010  0.1870 -0.2252 -0.0019
  192POPC   C4A 2613   6.741   8.290   5.414 -0.1209 -0.1994  0.0053
  192POPC   C1B 2614   6.937   8.805   4.158  0.0025 -0.2537  0.1532
  192POPC   C2B 2615   6.847   8.778   4.549 -0.1512 -0.0783  0.1651
  192POPC   C3B 2616   6.890   8.731   4.949  0.1027  0.1356 -0.2060
  192POPC   C4B 2617   6.565   8.821   5.290 -0.0729 -0.0859 -0.2375
  193POPC   NC3 2618   0.193   2.814   2.981 -0.1602 -0.0406 -0.1429
  193POPC   PO4 2619   0.164   2.599   3.419 -0.1377 -0.1691 -0.2154
  193POPC   GL1 2620   0.397   2.734   3.769  0.0700  0.1282  0.0439
  193POPC   GL2 2621   0.572   2.914   3.680  0.1471  0.0800 -0.0065
  193POPC   C1A 2622   0.549   2.560   4.115 -0.2234 -0.3384 -0.2175
  193POPC   D2A 2623   0.894   2.539   4.413  0.1393 -0.0044  0.3967
  193POPC   C3A 2624   0.979   2.384   4.838 -0.0495  0.1779  0.0884
  193POPC   C4A 2625   1.091   2.157   5.099  0.0013  0.1863  0.0444
  193POPC   C1B 2626   0.660   3.016   4.168 -0.1132 -0.0337 -0.3698
  193POPC   C2B 2627   0.690   3.123   4.556  0.2910  0.1347  0.0722
  193POPC   C3B 2628   0.610   2.857   4.835 -0.1172 -0.0185 -0.0932
  193POPC   C4B 2629   0.477   2.782   5.290  0.0683 -0.1334  0.1069
  194POPC   NC3 2630   7.572   7.727   3.497  0.2049  0.2682 -0.0904
  194POPC   PO4 2631   7.567   7.463   3.875  0.0128  0.0661  0.3144
  194POPC   GL1 2632   7.503   7.233   4.277 -0.0276 -0.1449  0.2126
  194POPC   GL2 2633   7.397   6.907   4.186 -0.2017  0.1107 -0.0998
  194POPC   C1A 2634   7.510   7.469   4.704 -0.2496 -0.4168  0.4774
  194POPC   D2A 2635   7.678   7.453   5.118 -0.1764 -0.1181  0.0204
  194POPC   C3A 2636   7.713   7.738   5.397  0.0852  0.1910 -0.3532
  194POPC   C4A 2637   8.048   7.971   5.342 -0.1279  0.0764  0.1812
  194POPC   C1B 2638   7.496   6.727   4.589  0.0698  0.2137 -0.2395
  194POPC   C2B 2639   7.435   6.528   5.078  0.0339 -0.1750  0.0026
  194POPC   C3B 2640   7.679   6.188   5.434 -0.1369 -0.0208  0.0772
  194POPC   C4B 2641   7.849   5.950   5.735  0.0191  0.0135 -0.1081
  195POPC   NC3 2642   8.563   8.057   3.562 -0.2140  0.2968  0.0445
  195POPC   PO4 2643   8.117   7.883   3.539 -0.1514 -0.2002 -0.3000
  195POPC   GL1 2644   8.018   7.765   3.961  0.1794 -0.0758 -0.1114
  195POPC   GL2 2645   8.039   7.408   4.008  0.2901  0.1716  0.3036
  195POPC   C1A 2646   7.701   7.815   4.387  0.4644  0.0641  0.2306
  195POPC   D2A 2647   7.872   7.902   4.844 -0.1538  0.0444 -0.0281
  195POPC   C3A 2648   7.660   8.106   5.060 -0.1732 -0.1233  0.0580
  195POPC   C4A 2649   7.281   8.407   5.214 -0.2087 -0.0955 -0.0401
  195POPC   C1B 2650   8.036   7.455   4.410 -0.1070 -0.0865 -0.0336
  195POPC   C2B 2651   8.218   7.530   4.863  0.3621 -0.1476 -0.1283
  195POPC   C3B 2652   8.246   7.411   5.349  0.0978  0.0808  0.0050
  195POPC   C4B 2653   7.929   7.194   5.557 -0.3835 -0.0891  0.0317
  196POPC   NC3 2654   2.528   2.277   2.832  0.0714 -0.1611  0.0370
  196POPC   PO4 2655   2.417   2.069   3.270 -0.0484  0.3130 -0.2764
  196POPC   GL1 2656   2.547   1.838   3.679  0.1625  0.2987 -0.2203
  196POPC   GL2 2657   2.830   1.572   3.699 -0.0229  0.1868 -0.0198
  196POPC   C1A 2658   2.669   1.981   4.013  0.1336 -0.0580 -0.2144
  196POPC   D2A 2659   2.998   1.950   4.324 -0.1826  0.2544 -0.1817
  196POPC   C3A 2660   3.093   2.336   4.467 -0.2150 -0.1834  0.1486
  196POPC   C4A 2661   3.146   2.406   4.857  0.5618 -0.1065  0.4049
  196POPC   C1B 2662   2.836   1.553   4.074  0.0361 -0.0388  0.0282
  196POPC   C2B 2663   3.026   1.507   4.480  0.2725 -0.0448  0.2759
  196POPC   C3B 2664   3.116   1.289   4.847  0.0189  0.1397  0.0656
  196POPC   C4B 2665   2.956   1.110   5.239  0.0855  0.0604  0.2938
  197POPC   NC3 2666   6.775   6.346   2.836  0.0536 -0.0629 -0.0482
  197POPC   PO4 2667   6.539   6.173   3.313 -0.0362 -0.0825  0.0488
  197POPC   GL1 2668   6.362   5.988   3.737  0.1003  0.1082  0.3162
  197POPC   GL2 2669   6.061   6.108   3.772  0.2078  0.1368 -0.0231
  197POPC   C1A 2670   6.395   5.665   3.970  0.2418  0.0163  0.1166
  197POPC   D2A 2671   6.169   5.419   4.066  0.2827 -0.0164 -0.0726
  197POPC   C3A 2672   6.531   5.416   4.462  0.0255  0.0079 -0.2509
  197POPC   C4A 2673   6.768   5.464   4.691 -0.0566  0.2102  0.1519
  197POPC   C1B 2674   6.174   6.086   4.167 -0.1471  0.1997  0.0086
  197POPC   C2B 2675   6.451   5.925   4.436  0.0043 -0.1640  0.0266
  197POPC   C3B 2676   6.475   5.861   4.856 -0.0074  0.1523 -0.1249
  197POPC   C4B 2677   6.362   5.386   4.960  0.4578 -0.0100  0.0592
  198POPC   NC3 2678   7.699   2.357   2.950 -0.3431 -0.3822 -0.1996
  198POPC   PO4 2679   7.471   2.047   3.246  0.0600  0.2115  0.0795
  198POPC   GL1 2680   7.337   2.200   3.632  0.1292  0.1185 -0.3207
  198POPC   GL2 2681   7.192   2.443   3.818 -0.0261  0.2405 -0.1200
  198POPC   C1A 2682   7.215   1.957   3.932 -0.1353 -0.2951  0.0092
  198POPC   D2A 2683   7.000   1.580   4.077  0.0088 -0.1772  0.1145
  198POPC   C3A 2684   6.571   1.716   4.083  0.0565  0.0248  0.1044
  198POPC   C4A 2685   6.354   2.126   4.159 -0.0976 -0.0037 -0.0018
  198POPC   C1B 2686   7.241   2.438   4.206 -0.2268  0.1792 -0.3237
  198POPC   C2B 2687   7.147   2.259   4.615  0.0314 -0.1022 -0.0585
  198POPC   C3B 2688   6.917   2.036   4.944 -0.0197  0.0403 -0.0515
  198POPC   C4B 2689   6.780   1.597   4.982  0.1860 -0.1311  0.1256
  199POPC   NC3 2690   5.016   0.562   3.326 -0.4500 -0.1829  0.3175
  199POPC   PO4 2691   5.551   0.508   3.309  0.1650 -0.1704 -0.0722
  199POPC   GL1 2692   5.660   0.557   3.726  0.2007 -0.0143 -0.1845
  199POPC   GL2 2693   5.684   0.926   3.803  0.0363  0.1315  0.1506
  199POPC   C1A 2694   5.830   0.444   4.155 -0.1369 -0.1295 -0.0145
  199POPC   D2A 2695   6.018   0.418   4.565  0.0578  0.0579  0.0157
  199POPC   C3A 2696   5.861   0.706   4.847  0.1635  0.2677  0.0428
  199POPC   C4A 2697   5.687   0.822   5.200 -0.1419  0.0631  0.0366
  199POPC   C1B 2698   5.793   0.950   4.343 -0.0448 -0.3381  0.0017
  199POPC   C2B 2699   5.738   1.191   4.746 -0.0101  0.0781  0.2701
  199POPC   C3B 2700   6.077   1.163   5.105  0.0792  0.0931  0.1765
  199POPC   C4B 2701   6.494   1.167   5.240 -0.1152 -0.2560 -0.1300
  200POPC   NC3 2702   5.402   2.575   3.291  0.0164  0.0650 -0.4865
  200POPC   PO4 2703   5.357   3.120   3.211 -0.0891  0.1503  0.1241
  200POPC   GL1 2704   5.388   3.013   3.601 -0.2537 -0.1630 -0.2856
  200POPC   GL2 2705   5.700   2.860   3.672  0.0122  0.0564  0.0934
  200POPC   C1A 2706   5.066   3.033   4.022 -0.1880 -0.0149  0.1290
  200POPC   D2A 2707   5.158   2.860   4.363  0.0684 -0.0833 -0.0226
  200POPC   C3A 2708   5.146   3.083   4.757 -0.0447  0.0432  0.2457
  200POPC   C4A 2709   4.963   2.858   5.118  0.2386  0.0194 -0.2536
  200POPC   C1B 2710   5.603   3.112   4.076  0.0223  0.1515 -0.1465
  200POPC   C2B 2711   5.540   3.304   4.497 -0.0486  0.1745 -0.0641
  200POPC   C3B 2712   5.700   3.389   4.888 -0.3424  0.0853  0.0987
  200POPC   C4B 2713   5.911   3.774   5.060  0.1728 -0.0511 -0.1504
  201POPC   NC3 2714   7.709  10.501   3.026  0.1975  0.0847 -0.0457
  201POPC   PO4 2715   7.601  10.930   3.122  0.0060 -0.1133  0.2980
  201POPC   GL1 2716   7.682  11.035   3.537  0.0646 -0.2852 -0.0890
  201POPC   GL2 2717   7.438  11.224   3.851  0.0954 -0.0648 -0.0085
  201POPC   C1A 2718   7.969  11.248   3.834 -0.1238  0.1760 -0.0508
  201POPC   D2A 2719   8.009  11.376   4.319 -0.0683 -0.1840  0.1653
  201POPC   C3A 2720   8.080  10.959   4.615  0.3325  0.2273 -0.4842
  201POPC   C4A 2721   7.861  10.749   4.942  0.0158  0.5135  0.0161
  201POPC   C1B 2722   7.654  11.095   4.252  0.1756  0.1519  0.2059
  201POPC   C2B 2723   7.607  11.046   4.670 -0.0042  0.1848 -0.1759
  201POPC   C3B 2724   7.850  11.304   4.915  0.4448  0.3099 -0.0094
  201POPC   C4B 2725   7.902  11.555   5.235 -0.1681 -0.3611  0.0574
  202POPC   NC3 2726   2.510  10.397   3.302  0.3112  0.1233 -0.3463
  202POPC   PO4 2727   2.470  10.240   3.725  0.2451  0.1066 -0.0631
  202POPC   GL1 2728   2.531  10.475   4.111  0.1884 -0.0791 -0.0795
  202POPC   GL2 2729   2.708  10.723   4.133  0.1010 -0.1325 -0.0618
  202POPC   C1A 2730   2.422  10.565   4.535 -0.0310  0.1921 -0.2067
  202POPC   D2A 2731   2.326  10.459   4.921  0.2348  0.0644 -0.0811
  202POPC   C3A 2732   2.442  10.124   5.032  0.0337  0.1600  0.0676
  202POPC   C4A 2733   2.516   9.663   4.931 -0.1265 -0.4124  0.0751
  202POPC   C1B 2734   2.805  10.840   4.536  0.1867  0.0199 -0.1684
  202POPC   C2B 2735   2.807  11.033   4.882 -0.1508  0.0410  0.2815
  202POPC   C3B 2736   2.970  11.223   5.194 -0.1128 -0.1750 -0.1428
  202POPC   C4B 2737   3.073  11.435   5.475  0.2547  0.0246  0.2504
  203POPC   NC3 2738   9.766   6.651   2.819  0.2408  0.1485  0.2871
  203POPC   PO4 2739   9.976   6.414   3.175  0.1662 -0.0151  0.2670
  203POPC   GL1 2740   9.957   6.057   3.508  0.4125  0.1353 -0.3130
  203POPC   GL2 2741   9.972   5.714   3.552  0.3160 -0.0279 -0.0030
  203POPC   C1A 2742  10.115   6.009   3.919 -0.1294  0.1588 -0.0764
  203POPC   D2A 2743  10.423   5.817   4.107 -0.2094 -0.0394 -0.2980
  203POPC   C3A 2744  10.403   5.787   4.528 -0.1649 -0.1207 -0.2257
  203POPC   C4A 2745  10.592   6.073   4.841 -0.1865  0.2005  0.0596
  203POPC   C1B 2746   9.958   5.471   3.949  0.2085 -0.0116  0.2775
  203POPC   C2B 2747  10.225   5.308   4.257  0.0752 -0.3019 -0.0167
  203POPC   C3B 2748  10.515   4.899   4.438 -0.2067 -0.1757 -0.0269
  203POPC   C4B 2749  10.764   4.863   4.831 -0.0364  0.0195  0.0016
  204POPC   NC3 2750   1.543  10.081   3.820  0.1066 -0.2469  0.2415
  204POPC   PO4 2751   1.464  10.385   4.064  0.0975  0.3044 -0.3143
  204POPC   GL1 2752   1.685  10.061   4.328 -0.1806  0.0361  0.1570
  204POPC   GL2 2753   1.448  10.231   4.557  0.0233 -0.0175  0.0315
  204POPC   C1A 2754   1.805   9.735   4.558  0.1062  0.1028  0.0551
  204POPC   D2A 2755   2.031   9.769   4.913  0.0225 -0.0476 -0.0626
  204POPC   C3A 2756   1.702   9.813   5.263 -0.1835 -0.3239  0.0267
  204POPC   C4A 2757   1.507  10.015   5.709  0.0426  0.2778  0.0101
  204POPC   C1B 2758   1.456   9.912   4.837 -0.2635 -0.1641  0.0235
  204POPC   C2B 2759   1.195   9.961   5.212 -0.2099  0.2574  0.0482
  204POPC   C3B 2760   1.059  10.233   5.588 -0.0942 -0.0664  0.2749
  204POPC   C4B 2761   0.713  10.544   5.722 -0.2718 -0.2014 -0.0979
  205POPC   NC3 2762  10.183   5.085   3.286  0.0880 -0.0962 -0.0469
  205POPC   PO4 2763  10.400   4.676   3.213 -0.1097  0.0674  0.1632
  205POPC   GL1 2764  10.519   4.478   3.535  0.0133 -0.0345  0.0232
  205POPC   GL2 2765  10.223   4.416   3.718  0.3212 -0.2537 -0.0090
  205POPC   C1A 2766  10.801   4.214   3.862  0.3155 -0.0170  0.1122
  205POPC   D2A 2767  11.258   4.201   4.025  0.2836  0.1414  0.0961
  205POPC   C3A 2768  11.449   4.037   4.422  0.1002  0.2059 -0.2028
  205POPC   C4A 2769  11.487   4.051   4.873  0.0450 -0.0047  0.0078
  205POPC   C1B 2770   9.872   4.296   4.015  0.1140  0.2935 -0.0594
  205POPC   C2B 2771   9.708   4.150   4.319 -0.1679 -0.0847 -0.0212
  205POPC   C3B 2772   9.511   4.129   4.705  0.1244  0.0592 -0.4029
  205POPC   C4B 2773   9.747   4.066   5.113  0.0964  0.1001  0.1196
  206POPC   NC3 2774   1.608   8.131   3.583  0.2352  0.1634  0.0971
  206POPC   PO4 2775   1.643   8.561   3.465  0.0184  0.2465 -0.0399
  206POPC   GL1 2776   2.025   8.411   3.765  0.0724 -0.1509 -0.3866
  206POPC   GL2 2777   2.150   8.328   3.652 -0.0931  0.1438  0.1358
  206POPC   C1A 2778   2.000   8.498   4.187  0.2643 -0.0331 -0.2174
  206POPC   D2A 2779   1.910   8.710   4.575 -0.1100  0.3778 -0.0151
  206POPC   C3A 2780   2.200   8.582   4.890  0.0322  0.0902 -0.0854
  206POPC   C4A 2781   2.392   8.662   5.345  0.0340  0.0246  0.0567
  206POPC   C1B 2782   2.495   8.365   3.938  0.1858  0.0054  0.5417
  206POPC   C2B 2783   2.849   8.293   4.218 -0.2532 -0.0936  0.2555
  206POPC   C3B 2784   2.944   8.211   4.522 -0.3444 -0.1604 -0.0270
  206POPC   C4B 2785   3.014   8.165   4.939 -0.2123  0.1561 -0.1000
  207POPC   NC3 2786   8.244   5.584   3.127  0.3603  0.2799 -0.2528
  207POPC   PO4 2787   8.359   5.107   3.075 -0.1570  0.1570 -0.1645
  207POPC   GL1 2788   8.152   5.018   3.516  0.0979 -0.0060 -0.0730
  207POPC   GL2 2789   7.868   5.185   3.694  0.1134 -0.1254 -0.0460
  207POPC   C1A 2790   8.198   4.742   3.784 -0.0316 -0.0428  0.0602
  207POPC   D2A 2791   8.239   4.474   4.102  0.1683 -0.1424  0.0580
  207POPC   C3A 2792   8.127   4.759   4.453 -0.1036 -0.0377  0.3063
  207POPC   C4A 2793   8.041   4.859   4.813 -0.0949  0.0344  0.2140
  207POPC   C1B 2794   8.047   5.091   4.076  0.0343  0.2705 -0.0445
  207POPC   C2B 2795   8.388   5.149   4.411  0.2379 -0.0485  0.1320
  207POPC   C3B 2796   8.490   5.263   4.796  0.2762  0.2168 -0.0529
  207POPC   C4B 2797   9.012   5.229   4.820  0.0500  0.0825  0.1910
  208POPC   NC3 2798   1.557   4.256   3.291 -0.0539 -0.0214  0.0434
  208POPC   PO4 2799   1.811   4.042   3.199  0.0746  0.0571 -0.0356
  208POPC   GL1 2800   1.647   3.870   3.624  0.1858  0.1825  0.0121
  208POPC   GL2 2801   1.266   3.920   3.661  0.2992 -0.1021 -0.0213
  208POPC   C1A 2802   1.547   3.919   4.123  0.0926 -0.0677  0.0607
  208POPC   D2A 2803   1.332   3.882   4.529 -0.4115  0.2093  0.0972
  208POPC   C3A 2804   1.583   3.845   4.919 -0.1347  0.0051  0.0062
  208POPC   C4A 2805   1.870   3.599   5.204 -0.2879  0.0794  0.2910
  208POPC   C1B 2806   0.916   3.812   3.785 -0.2807  0.3233  0.0537
  208POPC   C2B 2807   0.731   3.591   4.218 -0.0241 -0.0910 -0.1638
  208POPC   C3B 2808   0.839   3.615   4.652  0.0104  0.0099  0.3448
  208POPC   C4B 2809   1.165   3.569   4.911  0.1147 -0.2313 -0.0856
  209POPC   NC3 2810   3.838   3.366   2.975 -0.3389  0.0008  0.1024
  209POPC   PO4 2811   3.432   3.542   3.157  0.2541  0.2911  0.4089
  209POPC   GL1 2812   3.596   3.392   3.580 -0.0928  0.1667  0.0807
  209POPC   GL2 2813   3.754   3.522   3.936  0.2584 -0.1392  0.0215
  209POPC   C1A 2814   3.582   3.040   3.962 -0.2982  0.1583  0.1669
  209POPC   D2A 2815   3.386   2.737   4.274 -0.0330 -0.0106  0.1201
  209POPC   C3A 2816   3.405   2.848   4.760  0.0671  0.2449 -0.2680
  209POPC   C4A 2817   3.451   2.702   5.141 -0.0488 -0.1389 -0.0475
  209POPC   C1B 2818   3.780   3.690   4.465 -0.1049 -0.1340 -0.2115
  209POPC   C2B 2819   4.088   3.644   4.832  0.2076  0.0110  0.2286
  209POPC   C3B 2820   4.498   3.720   5.001 -0.1081 -0.0586 -0.0441
  209POPC   C4B 2821   4.723   3.997   5.243 -0.1224 -0.1228  0.2894
  210POPC   NC3 2822   8.030   9.399   3.345 -0.1489  0.1249  0.0405
  210POPC   PO4 2823   7.777   9.004   3.393  0.1834  0.2624  0.3042
  210POPC   GL1 2824   7.743   8.853   3.743  0.0492 -0.1654  0.0290
  210POPC   GL2 2825   7.474   8.744   3.804 -0.0785  0.3111 -0.2452
  210POPC   C1A 2826   7.642   9.169   4.124 -0.3182 -0.2170 -0.1562
  210POPC   D2A 2827   7.572   9.265   4.627 -0.2582 -0.3797  0.5361
  210POPC   C3A 2828   7.488   9.609   4.959  0.4341  0.0491 -0.1455
  210POPC   C4A 2829   7.390  10.078   4.892 -0.0220 -0.3575 -0.1258
  210POPC   C1B 2830   7.396   8.647   4.242 -0.0902  0.0596  0.2264
  210POPC   C2B 2831   7.729   8.490   4.666  0.0177  0.0456  0.0007
  210POPC   C3B 2832   7.739   8.663   5.166 -0.0033 -0.3460  0.0414
  210POPC   C4B 2833   7.578   8.627   5.564  0.1887 -0.3041  0.1567
  211POPC   NC3 2834   1.799   0.800   3.735  0.1111  0.0938 -0.0430
  211POPC   PO4 2835   2.119   0.406   3.636 -0.0429  0.0872  0.4905
  211POPC   GL1 2836   1.981   0.370   4.038  0.1221 -0.1528  0.2662
  211POPC   GL2 2837   2.167   0.119   4.132 -0.2328  0.1493 -0.3817
  211POPC   C1A 2838   1.755   0.492   4.379  0.1730  0.1859 -0.0893
  211POPC   D2A 2839   1.435   0.392   4.685  0.2840 -0.0792  0.0844
  211POPC   C3A 2840   1.308  -0.030   4.616 -0.0938  0.2218  0.0677
  211POPC   C4A 2841   1.237  -0.315   4.969  0.1019 -0.0582  0.4355
  211POPC   C1B 2842   2.291   0.317   4.638  0.2040  0.3312  0.0651
  211POPC   C2B 2843   2.162   0.124   5.108 -0.0630 -0.1621  0.1549
  211POPC   C3B 2844   1.916  -0.008   5.507 -0.2330 -0.0090  0.3308
  211POPC   C4B 2845   2.093  -0.122   5.922  0.0896  0.1463  0.0270
  212POPC   NC3 2846   7.632   3.941   3.443  0.2956  0.5474  0.3201
  212POPC   PO4 2847   7.877   4.194   3.228  0.1735 -0.0639 -0.0233
  212POPC   GL1 2848   8.021   4.215   3.672 -0.1700  0.2400  0.3145
  212POPC   GL2 2849   7.785   4.574   3.636 -0.4165  0.0879 -0.2501
  212POPC   C1A 2850   8.228   3.995   3.960  0.0583 -0.1825 -0.2061
  212POPC   D2A 2851   8.526   4.115   4.240  0.2500  0.1847 -0.0850
  212POPC   C3A 2852   8.577   4.486   4.563  0.3721 -0.0596 -0.1043
  212POPC   C4A 2853   8.588   4.759   4.912  0.2689  0.3157  0.0925
  212POPC   C1B 2854   7.742   4.693   4.027  0.0456  0.2993 -0.0725
  212POPC   C2B 2855   7.607   4.756   4.348  0.1323  0.0208 -0.0935
  212POPC   C3B 2856   7.560   4.963   4.734  0.3225 -0.0417 -0.2540
  212POPC   C4B 2857   7.492   4.777   5.193 -0.1618  0.1072 -0.0434
  213POPC   NC3 2858   0.305   3.629   3.221 -0.2525  0.1852  0.1677
  213POPC   PO4 2859  -0.174   3.799   3.099  0.2392  0.0048  0.1819
  213POPC   GL1 2860  -0.212   3.601   3.440 -0.0113  0.3451  0.1317
  213POPC   GL2 2861  -0.378   3.966   3.647 -0.0030  0.1491  0.2612
  213POPC   C1A 2862  -0.307   3.581   3.929  0.1050 -0.0511  0.1494
  213POPC   D2A 2863  -0.515   3.297   4.407  0.3072  0.1277  0.3308
  213POPC   C3A 2864  -0.376   2.937   4.563  0.0747 -0.1064 -0.2576
  213POPC   C4A 2865  -0.210   2.847   4.918 -0.0754  0.2160 -0.1984
  213POPC   C1B 2866  -0.373   4.113   4.082  0.0130 -0.1149 -0.0610
  213POPC   C2B 2867  -0.578   4.085   4.464 -0.2783  0.1151  0.0457
  213POPC   C3B 2868  -0.673   4.288   4.826  0.1089 -0.0890  0.0367
  213POPC   C4B 2869  -0.694   4.400   5.259  0.0149 -0.1392 -0.0759
  214POPC   NC3 2870   9.091  10.044   3.459 -0.0647 -0.0583  0.0074
  214POPC   PO4 2871   9.582  10.163   3.611  0.0035  0.0661  0.2374
  214POPC   GL1 2872   9.639  10.385   4.008 -0.3363  0.0310 -0.1581
  214POPC   GL2 2873   9.900  10.346   4.222  0.2261  0.1464 -0.0390
  214POPC   C1A 2874   9.353  10.536   4.355 -0.3831  0.0078 -0.2101
  214POPC   D2A 2875   9.309  10.776   4.652  0.2612 -0.2179 -0.0873
  214POPC   C3A 2876   8.941  10.712   4.866 -0.1138 -0.1043  0.0511
  214POPC   C4A 2877   8.724  10.893   5.087  0.0153 -0.2520 -0.0994
  214POPC   C1B 2878  10.175  10.628   4.482  0.3202  0.0563 -0.3127
  214POPC   C2B 2879  10.124  10.625   5.040 -0.1121 -0.0405  0.0171
  214POPC   C3B 2880  10.294  10.669   5.367 -0.0137 -0.2059 -0.0974
  214POPC   C4B 2881  10.208  11.043   5.639  0.1390 -0.0411  0.1024
  215POPC   NC3 2882   5.313   8.786   3.338  0.3432  0.1169  0.1617
  215POPC   PO4 2883   5.066   9.137   3.317  0.1506  0.2224 -0.2303
  215POPC   GL1 2884   4.963   8.998   3.741 -0.1358  0.3605  0.1262
  215POPC   GL2 2885   4.710   8.860   3.906  0.0358  0.4727  0.0461
  215POPC   C1A 2886   5.181   8.815   4.119 -0.0387 -0.0732  0.1246
  215POPC   D2A 2887   5.194   8.721   4.553 -0.1690 -0.0600 -0.0978
  215POPC   C3A 2888   5.525   8.958   4.767  0.2179 -0.0990 -0.0413
  215POPC   C4A 2889   5.586   9.113   5.180  0.2582 -0.1981 -0.2067
  215POPC   C1B 2890   4.751   8.948   4.305  0.1526 -0.0483  0.3233
  215POPC   C2B 2891   4.655   8.989   4.681 -0.3108  0.1096 -0.1355
  215POPC   C3B 2892   4.235   8.927   4.936  0.2016 -0.1069 -0.2223
  215POPC   C4B 2893   3.986   8.895   5.243  0.4783 -0.0854  0.2854
  216POPC   NC3 2894   5.214   5.372   3.170  0.0993 -0.1458  0.0534
  216POPC   PO4 2895   4.744   5.357   3.103  0.1753  0.4247 -0.5614
  216POPC   GL1 2896   4.824   5.227   3.555  0.2081  0.0127  0.0189
  216POPC   GL2 2897   4.542   5.236   3.743  0.0052  0.3535 -0.1183
  216POPC   C1A 2898   4.985   5.064   3.907  0.1992 -0.0349  0.3044
  216POPC   D2A 2899   5.289   4.930   4.245 -0.1042 -0.1893 -0.0260
  216POPC   C3A 2900   5.164   4.974   4.635 -0.1942  0.0054 -0.2904
  216POPC   C4A 2901   4.793   5.136   4.943  0.1038 -0.4068  0.0608
  216POPC   C1B 2902   4.572   5.033   4.133 -0.0580  0.3491 -0.0377
  216POPC   C2B 2903   4.508   4.960   4.530 -0.1029  0.0189 -0.0715
  216POPC   C3B 2904   4.273   4.664   4.861  0.0772 -0.0336  0.2948
  216POPC   C4B 2905   3.966   4.838   5.185  0.0829 -0.1038  0.0910
  217POPC   NC3 2906   6.134   6.485   3.473 -0.0507 -0.1771 -0.1890
  217POPC   PO4 2907   5.687   6.564   3.694  0.0254 -0.1509  0.1502
  217POPC   GL1 2908   5.914   6.588   3.989 -0.1798 -0.3993  0.0738
  217POPC   GL2 2909   6.195   6.778   3.849  0.1307  0.0326  0.3515
  217POPC   C1A 2910   6.176   6.729   4.338  0.2188  0.0186 -0.0054
  217POPC   D2A 2911   6.431   6.897   4.707 -0.2260  0.1480 -0.1586
  217POPC   C3A 2912   6.146   7.046   4.923  0.0935 -0.0362  0.0771
  217POPC   C4A 2913   6.009   7.206   5.218  0.2384  0.2866 -0.0265
  217POPC   C1B 2914   6.471   6.525   3.973 -0.0865 -0.2476  0.2793
  217POPC   C2B 2915   6.660   6.385   4.295 -0.0265  0.1492 -0.2239
  217POPC   C3B 2916   6.535   6.422   4.724 -0.0887 -0.0672  0.0683
  217POPC   C4B 2917   6.438   6.569   5.181 -0.0043 -0.1867  0.2492
  218POPC   NC3 2918   6.753   9.808   3.540 -0.2634  0.0455  0.1139
  218POPC   PO4 2919   7.137   9.757   3.440  0.0774  0.1565  0.1468
  218POPC   GL1 2920   7.182   9.627   3.892 -0.1366 -0.2895 -0.0907
  218POPC   GL2 2921   7.213   9.263   3.992  0.0431 -0.0917  0.3577
  218POPC   C1A 2922   7.194   9.703   4.435  0.0802 -0.0946 -0.2195
  218POPC   D2A 2923   6.960   9.723   4.932 -0.0046 -0.0084  0.1672
  218POPC   C3A 2924   7.178   9.510   5.268  0.1274  0.0921 -0.0147
  218POPC   C4A 2925   7.328   9.584   5.754  0.2995  0.0911 -0.1184
  218POPC   C1B 2926   7.093   9.199   4.349 -0.1774  0.1026  0.1495
  218POPC   C2B 2927   7.121   9.230   4.798  0.2604 -0.3662 -0.2423
  218POPC   C3B 2928   6.833   9.199   5.125  0.0180  0.5149 -0.0385
  218POPC   C4B 2929   6.444   9.274   5.178  0.1531 -0.0230  0.0769
  219POPC   NC3 2930   9.990   2.291   3.644  0.0169 -0.0113  0.0072
  219POPC   PO4 2931  10.264   1.922   3.688 -0.3069 -0.0243  0.1663
  219POPC   GL1 2932  10.383   2.049   4.082  0.1244  0.0301  0.1997
  219POPC   GL2 2933  10.222   2.435   4.076 -0.2987  0.3189 -0.1282
  219POPC   C1A 2934  10.315   1.850   4.493  0.1114 -0.1002  0.1446
  219POPC   D2A 2935  10.448   1.795   4.905  0.1793 -0.0235 -0.0530
  219POPC   C3A 2936  10.262   1.612   5.235  0.0425  0.1167 -0.2255
  219POPC   C4A 2937  10.180   1.294   5.546 -0.1495 -0.3094 -0.0663
  219POPC   C1B 2938  10.563   2.756   4.112  0.0604 -0.2781 -0.0121
  219POPC   C2B 2939  10.865   2.745   4.299 -0.2009 -0.1660 -0.1754
  219POPC   C3B 2940  10.912   2.711   4.626 -0.1100  0.0327 -0.0478
  219POPC   C4B 2941  10.823   2.315   4.889 -0.0585 -0.0974  0.1310
  220POPC   NC3 2942   5.982   9.460   3.650  0.1176  0.1008  0.1662
  220POPC   PO4 2943   6.401   9.499   3.650  0.1887  0.1296 -0.1322
  220POPC   GL1 2944   6.220   9.500   4.136  0.2161 -0.0027  0.3253
  220POPC   GL2 2945   5.972   9.595   4.223 -0.0963  0.0686 -0.0534
  220POPC   C1A 2946   6.239   9.532   4.651  0.0572  0.2577  0.2077
  220POPC   D2A 2947   6.450   9.814   4.944 -0.2240 -0.6407  0.1336
  220POPC   C3A 2948   6.242   9.951   5.289 -0.0074  0.1406  0.0403
  220POPC   C4A 2949   6.310  10.224   5.693  0.2683 -0.1225 -0.1820
  220POPC   C1B 2950   5.795   9.444   4.527 -0.0229  0.0855 -0.1204
  220POPC   C2B 2951   5.534   9.464   4.877  0.1362 -0.0392  0.1363
  220POPC   C3B 2952   5.180   9.417   5.245  0.1633  0.0362 -0.0802
  220POPC   C4B 2953   4.848   9.437   5.573 -0.4012 -0.3493 -0.2050
  221POPC   NC3 2954   6.916   7.192   3.444  0.3640  0.1039  0.0603
  221POPC   PO4 2955   7.082   7.704   3.445 -0.0037  0.0347 -0.0288
  221POPC   GL1 2956   6.893   7.523   3.826 -0.2760  0.0096  0.1693
  221POPC   GL2 2957   6.780   7.736   3.986 -0.1520 -0.0473  0.2685
  221POPC   C1A 2958   6.922   7.334   4.241 -0.1399  0.4582  0.1639
  221POPC   D2A 2959   6.973   7.492   4.673 -0.1573 -0.0341  0.1144
  221POPC   C3A 2960   6.671   7.285   4.917  0.0276  0.1725 -0.2144
  221POPC   C4A 2961   6.507   7.062   5.287 -0.0441 -0.4312 -0.0397
  221POPC   C1B 2962   6.513   7.712   4.247  0.2726  0.3736  0.0289
  221POPC   C2B 2963   6.067   7.615   4.265  0.0126  0.0365  0.2672
  221POPC   C3B 2964   5.739   7.897   4.523 -0.0550 -0.2926  0.1029
  221POPC   C4B 2965   5.322   7.810   4.543  0.2254 -0.2509  0.1414
  222POPC   NC3 2966   8.636   3.172   2.533  0.0505  0.2185  0.2979
  222POPC   PO4 2967   8.291   3.365   2.808 -0.1818 -0.1134  0.0044
  222POPC   GL1 2968   8.356   3.203   3.265 -0.1028 -0.2424  0.3357
  222POPC   GL2 2969   8.645   3.129   3.383 -0.2737  0.0197 -0.0265
  222POPC   C1A 2970   8.309   3.396   3.689 -0.3294  0.2222  0.0994
  222POPC   D2A 2971   8.156   3.517   4.130  0.1517  0.4527 -0.2343
  222POPC   C3A 2972   8.214   3.670   4.568 -0.0867  0.1022 -0.0225
  222POPC   C4A 2973   8.461   3.822   4.998 -0.2001 -0.2336  0.0191
  222POPC   C1B 2974   8.711   3.598   3.444 -0.2863  0.2615  0.1403
  222POPC   C2B 2975   8.571   3.926   3.634  0.1003 -0.1058 -0.1265
  222POPC   C3B 2976   8.618   4.424   3.821 -0.5090 -0.0959 -0.1943
  222POPC   C4B 2977   8.820   4.669   3.541  0.0415 -0.0053 -0.0025
  223POPC   NC3 2978   5.705   4.038   3.255 -0.1079  0.1034 -0.1288
  223POPC   PO4 2979   5.240   4.176   3.378 -0.1395 -0.2146  0.3569
  223POPC   GL1 2980   5.512   4.098   3.683  0.3529 -0.0215  0.1855
  223POPC   GL2 2981   5.630   4.323   3.730  0.2297  0.2417 -0.1366
  223POPC   C1A 2982   5.387   3.949   4.059 -0.4524  0.1806  0.1523
  223POPC   D2A 2983   5.426   3.813   4.463 -0.1886  0.2490 -0.2491
  223POPC   C3A 2984   5.429   4.112   4.723  0.2295 -0.2616 -0.0898
  223POPC   C4A 2985   5.814   4.463   4.671  0.1469  0.2132  0.0844
  223POPC   C1B 2986   5.334   4.449   4.118 -0.2260  0.0262 -0.0076
  223POPC   C2B 2987   5.383   4.514   4.472 -0.1517 -0.1165  0.3689
  223POPC   C3B 2988   5.360   4.567   4.886  0.3119  0.0438 -0.0697
  223POPC   C4B 2989   5.029   4.841   5.273 -0.4421  0.3870  0.1700
  224POPC   NC3 2990   8.090   6.718   2.822 -0.1619 -0.0014 -0.2502
  224POPC   PO4 2991   8.087   6.654   3.200  0.0639  0.2148 -0.3613
  224POPC   GL1 2992   8.254   6.355   3.527 -0.0365 -0.1270  0.2912
  224POPC   GL2 2993   8.534   6.597   3.690 -0.3393  0.1511 -0.0018
  224POPC   C1A 2994   8.268   6.192   3.893  0.2009  0.0579 -0.2669
  224POPC   D2A 2995   8.501   6.160   4.213  0.1387  0.1347 -0.2237
  224POPC   C3A 2996   8.368   6.129   4.584  0.1600  0.2233  0.0206
  224POPC   C4A 2997   8.263   5.789   4.874 -0.0387  0.1652  0.3733
  224POPC   C1B 2998   8.785   6.568   4.084  0.0293 -0.1118  0.2005
  224POPC   C2B 2999   8.815   6.428   4.454  0.1716 -0.1599  0.1641
  224POPC   C3B 3000   8.595   6.519   4.852  0.0148 -0.0370 -0.1486
  224POPC   C4B 3001   8.688   6.564   5.339 -0.2704 -0.1150 -0.2561
  225POPC   NC3 3002   7.592   1.510   3.276  0.0406 -0.0964  0.3492
  225POPC   PO4 3003   8.003   1.324   3.435  0.1264  0.0799  0.1046
  225POPC   GL1 3004   7.713   1.177   3.625  0.2530 -0.0339  0.0496
  225POPC   GL2 3005   7.660   0.852   3.642  0.1399  0.1067  0.2160
  225POPC   C1A 3006   7.397   1.324   3.980  0.1065  0.3308  0.0740
  225POPC   D2A 3007   7.256   1.184   4.437 -0.0549  0.0848  0.1664
  225POPC   C3A 3008   7.090   1.250   4.875  0.0883 -0.2729  0.1994
  225POPC   C4A 3009   6.976   1.299   5.417 -0.1945  0.1624  0.0055
  225POPC   C1B 3010   7.617   0.845   4.077  0.0851 -0.2704  0.3346
  225POPC   C2B 3011   7.564   0.777   4.486 -0.0279 -0.0042  0.2150
  225POPC   C3B 3012   7.557   1.019   4.856  0.0313  0.1249  0.0135
  225POPC   C4B 3013   7.518   1.189   5.300  0.0494 -0.0396  0.0548
  226POPC   NC3 3014   4.511  10.070   3.327 -0.2159 -0.1124  0.4257
  226POPC   PO4 3015   4.414  10.529   3.443 -0.1061 -0.0138 -0.1463
  226POPC   GL1 3016   4.488  10.548   3.929 -0.1110 -0.0737 -0.0329
  226POPC   GL2 3017   4.439  10.842   4.050 -0.0385  0.0132 -0.3544
  226POPC   C1A 3018   4.719  10.489   4.304  0.0628 -0.2206 -0.0036
  226POPC   D2A 3019   5.048  10.205   4.465  0.1232 -0.1113 -0.0632
  226POPC   C3A 3020   5.018  10.103   4.885  0.1457  0.2367 -0.1209
  226POPC   C4A 3021   4.937   9.869   5.308 -0.2476 -0.0962  0.0787
  226POPC   C1B 3022   4.529  10.969   4.517 -0.0656 -0.0754 -0.0544
  226POPC   C2B 3023   4.443  10.873   4.953  0.1720 -0.1513 -0.0424
  226POPC   C3B 3024   4.461  10.745   5.421 -0.0631 -0.0263 -0.2132
  226POPC   C4B 3025   4.507  10.760   5.931  0.0299 -0.0992 -0.0407
  227POPC   NC3 3026   1.879   9.427   3.604 -0.0270 -0.0798 -0.2723
  227POPC   PO4 3027   1.389   9.534   3.755 -0.1408 -0.1345 -0.0734
  227POPC   GL1 3028   1.611   9.192   4.145 -0.0430  0.0977  0.3094
  227POPC   GL2 3029   1.953   9.152   4.225  0.1428  0.0006  0.3778
  227POPC   C1A 3030   1.476   8.803   4.339  0.1544 -0.0915  0.2883
  227POPC   D2A 3031   1.486   8.861   4.859 -0.1552 -0.0269 -0.0535
  227POPC   C3A 3032   1.472   9.029   5.313  0.1203  0.0157  0.0022
  227POPC   C4A 3033   1.675   9.276   5.558  0.3354  0.0422 -0.3622
  227POPC   C1B 3034   1.867   9.225   4.563  0.1555 -0.1068 -0.3054
  227POPC   C2B 3035   1.646   9.369   4.930 -0.1129 -0.0636 -0.1652
  227POPC   C3B 3036   1.273   9.477   5.171  0.2385 -0.0946 -0.0098
  227POPC   C4B 3037   1.069   9.672   5.599 -0.1439  0.2782  0.1941
  228POPC   NC3 3038   7.900   7.362   3.482 -0.0208  0.0909  0.2406
  228POPC   PO4 3039   7.726   6.926   3.379  0.1137 -0.0260  0.2238
  228POPC   GL1 3040   7.774   6.861   3.773 -0.1488 -0.1400  0.0230
  228POPC   GL2 3041   7.887   6.621   3.812 -0.1124  0.0806 -0.0383
  228POPC   C1A 3042   7.874   7.011   4.212 -0.0142 -0.0827  0.1962
  228POPC   D2A 3043   7.823   7.088   4.627 -0.1791 -0.0165 -0.0469
  228POPC   C3A 3044   7.812   6.934   5.022 -0.1836  0.5041 -0.3129
  228POPC   C4A 3045   7.610   6.828   5.418  0.4074 -0.3787  0.2797
  228POPC   C1B 3046   7.674   6.473   4.187 -0.1991  0.0774  0.0782
  228POPC   C2B 3047   7.404   6.220   4.625 -0.2929  0.2074  0.4576
  228POPC   C3B 3048   7.430   6.027   5.032 -0.0908 -0.1634  0.3919
  228POPC   C4B 3049   7.380   5.718   5.371 -0.2514 -0.0029  0.1046
  229POPC   NC3 3050   2.518   0.706   3.486 -0.1424 -0.5252  0.0015
  229POPC   PO4 3051   2.748   1.151   3.432  0.0754  0.0557  0.0317
  229POPC   GL1 3052   2.553   1.177   3.795 -0.2476  0.0330 -0.1028
  229POPC   GL2 3053   2.375   1.467   3.903  0.2935  0.0910 -0.2874
  229POPC   C1A 3054   2.621   1.036   4.212  0.0415  0.0097  0.0962
  229POPC   D2A 3055   2.656   1.126   4.675 -0.1477  0.0051  0.6756
  229POPC   C3A 3056   2.652   1.533   4.834 -0.3390 -0.3732  0.2285
  229POPC   C4A 3057   2.367   1.831   5.066 -0.4512 -0.2560 -0.0745
  229POPC   C1B 3058   2.434   1.646   4.301  0.2417  0.0491 -0.2060
  229POPC   C2B 3059   2.209   1.415   4.706  0.0220  0.2349 -0.0092
  229POPC   C3B 3060   1.861   1.575   4.913  0.0126  0.3011 -0.1710
  229POPC   C4B 3061   1.418   1.377   4.967  0.0546  0.0552 -0.1801
  230POPC   NC3 3062   2.121   5.294   3.388 -0.3676  0.3767  0.1014
  230POPC   PO4 3063   2.100   5.742   3.496 -0.1802  0.3050 -0.3879
  230POPC   GL1 3064   2.064   5.799   3.906  0.1144 -0.0574 -0.3301
  230POPC   GL2 3065   1.839   6.162   3.977 -0.0800  0.0858  0.0102
  230POPC   C1A 3066   2.074   5.761   4.365  0.2076  0.0808 -0.0117
  230POPC   D2A 3067   2.050   5.857   4.811 -0.1187 -0.0720 -0.1689
  230POPC   C3A 3068   1.951   5.629   5.058 -0.0155  0.0000  0.0944
  230POPC   C4A 3069   2.112   5.570   5.550 -0.1087 -0.6002  0.0891
  230POPC   C1B 3070   1.791   6.163   4.406 -0.1860  0.2671 -0.1548
  230POPC   C2B 3071   1.592   6.026   4.890 -0.1421 -0.1620 -0.0210
  230POPC   C3B 3072   1.480   5.695   5.040  0.2902 -0.0307 -0.0232
  230POPC   C4B 3073   1.591   5.463   5.385  0.4415 -0.0641  0.1324
  231POPC   NC3 3074   3.118   9.742   3.108 -0.2302  0.1415 -0.2015
  231POPC   PO4 3075   2.921   9.535   3.369 -0.0445  0.1792 -0.1276
  231POPC   GL1 3076   2.888   9.296   3.775 -0.4313  0.1162 -0.1733
  231POPC   GL2 3077   3.262   9.191   3.937 -0.1023  0.0267 -0.2069
  231POPC   C1A 3078   2.687   9.354   4.136 -0.1234  0.0315 -0.3104
  231POPC   D2A 3079   2.834   9.388   4.616 -0.0388  0.1147 -0.0653
  231POPC   C3A 3080   2.895   8.964   4.815  0.2102 -0.0700 -0.0139
  231POPC   C4A 3081   2.710   8.611   4.818 -0.0440  0.0544 -0.1940
  231POPC   C1B 3082   3.310   9.256   4.328  0.0322  0.2032 -0.2297
  231POPC   C2B 3083   3.328   9.280   4.738 -0.0867 -0.2995 -0.0192
  231POPC   C3B 3084   3.304   8.883   5.062 -0.1751 -0.1629  0.2596
  231POPC   C4B 3085   3.278   8.494   5.283 -0.0134 -0.1965  0.0529
  232POPC   NC3 3086   3.149   3.042   3.037  0.1900 -0.1113 -0.1647
  232POPC   PO4 3087   3.530   2.965   3.126  0.0597  0.1047  0.1773
  232POPC   GL1 3088   3.226   3.002   3.631 -0.1321 -0.2072 -0.0369
  232POPC   GL2 3089   3.054   3.293   3.493 -0.0284  0.3273 -0.1489
  232POPC   C1A 3090   3.217   3.322   3.990 -0.0647 -0.1990  0.2998
  232POPC   D2A 3091   3.311   3.645   4.247 -0.0580  0.2611  0.1633
  232POPC   C3A 3092   3.381   3.657   4.738  0.0103  0.1551 -0.3444
  232POPC   C4A 3093   3.493   3.512   5.093  0.0457 -0.2334  0.0015
  232POPC   C1B 3094   2.730   3.505   3.831 -0.1136 -0.1761 -0.2017
  232POPC   C2B 3095   2.826   3.711   4.162 -0.0215 -0.0123 -0.1964
  232POPC   C3B 3096   2.917   3.908   4.643  0.2536  0.0520  0.1582
  232POPC   C4B 3097   3.101   4.157   4.976 -0.0819  0.0659 -0.4288
  233POPC   NC3 3098  10.723   5.041   3.231 -0.2059 -0.1580  0.2197
  233POPC   PO4 3099  10.461   5.496   3.334  0.2858  0.1258 -0.4080
  233POPC   GL1 3100  10.478   5.382   3.719 -0.0038 -0.0233 -0.2036
  233POPC   GL2 3101  10.594   5.050   3.695 -0.0023 -0.1103  0.2786
  233POPC   C1A 3102  10.698   5.289   4.123 -0.0308  0.0314 -0.2822
  233POPC   D2A 3103  10.935   5.271   4.472 -0.1820 -0.1681  0.1289
  233POPC   C3A 3104  10.703   5.404   4.806  0.1962  0.3748  0.0736
  233POPC   C4A 3105  10.570   5.399   5.195 -0.3748 -0.1793 -0.1801
  233POPC   C1B 3106  10.618   4.710   3.959  0.2895  0.0210  0.1442
  233POPC   C2B 3107  10.695   4.418   4.364  0.4415 -0.2116 -0.2546
  233POPC   C3B 3108  10.539   4.410   4.857 -0.0636 -0.0277  0.0913
  233POPC   C4B 3109  10.597   4.543   5.276  0.1816 -0.2035  0.0558
  234POPC   NC3 3110   6.583   4.468   3.439  0.0552 -0.0093  0.0716
  234POPC   PO4 3111   6.220   4.183   3.211 -0.1728  0.0400 -0.3428
  234POPC   GL1 3112   6.227   4.130   3.641 -0.0238 -0.0458 -0.2826
  234POPC   GL2 3113   6.212   4.405   3.816  0.1953  0.1223 -0.3336
  234POPC   C1A 3114   5.896   3.805   3.906  0.0034  0.0298 -0.0369
  234POPC   D2A 3115   5.894   3.585   4.237 -0.0233 -0.1262  0.1521
  234POPC   C3A 3116   6.343   3.459   4.294  0.2614 -0.1200  0.2579
  234POPC   C4A 3117   6.746   3.615   4.137  0.1209  0.0218 -0.1758
  234POPC   C1B 3118   6.029   4.313   4.231 -0.0822 -0.0783  0.1364
  234POPC   C2B 3119   5.967   3.929   4.597 -0.0274 -0.1242  0.1479
  234POPC   C3B 3120   6.180   3.567   4.715  0.3187  0.0289 -0.0091
  234POPC   C4B 3121   6.352   3.340   5.089 -0.2800  0.3175  0.0019
  235POPC   NC3 3122   5.375   6.937   3.501  0.0048 -0.2765  0.0580
  235POPC   PO4 3123   5.125   6.512   3.292 -0.1907  0.2366  0.1820
  235POPC   GL1 3124   5.015   6.581   3.674 -0.0581  0.2360 -0.0380
  235POPC   GL2 3125   5.227   6.551   3.863  0.0415  0.1733  0.0305
  235POPC   C1A 3126   4.787   6.402   4.023  0.2887 -0.1016  0.2925
  235POPC   D2A 3127   4.456   6.360   4.308  0.1779  0.2205 -0.2307
  235POPC   C3A 3128   4.531   6.364   4.770  0.1851 -0.0534 -0.0660
  235POPC   C4A 3129   4.476   6.662   5.143 -0.0100  0.0390 -0.2325
  235POPC   C1B 3130   5.224   6.451   4.340 -0.0200  0.0817  0.0754
  235POPC   C2B 3131   5.267   6.820   4.616 -0.1364  0.2693  0.0213
  235POPC   C3B 3132   5.088   7.030   4.884  0.2668  0.0735  0.0566
  235POPC   C4B 3133   5.233   7.427   4.878 -0.1023  0.1375  0.0822
  236POPC   NC3 3134   1.224   0.550   2.936 -0.3879  0.1384  0.1318
  236POPC   PO4 3135   0.957   0.713   3.233  0.2529  0.1813 -0.2202
  236POPC   GL1 3136   1.068   0.939   3.708  0.0243  0.0999 -0.1406
  236POPC   GL2 3137   1.388   1.021   3.821  0.2056 -0.3190 -0.1704
  236POPC   C1A 3138   1.058   0.759   4.162 -0.0195 -0.0052 -0.0542
  236POPC   D2A 3139   1.079   0.965   4.648  0.0652 -0.2344 -0.0433
  236POPC   C3A 3140   1.296   0.778   4.878  0.0308 -0.0034  0.3603
  236POPC   C4A 3141   1.574   0.882   5.194 -0.0666  0.2730  0.1502
  236POPC   C1B 3142   1.507   0.960   4.293 -0.2482  0.0852 -0.0860
  236POPC   C2B 3143   1.731   0.933   4.664 -0.2575  0.5141  0.0410
  236POPC   C3B 3144   1.879   0.547   4.936 -0.1864  0.0135 -0.0197
  236POPC   C4B 3145   1.994   0.562   5.320 -0.1763 -0.1257 -0.0786
  237POPC   NC3 3146   3.711   2.373   3.190 -0.0277 -0.0649 -0.0868
  237POPC   PO4 3147   3.185   2.528   3.255 -0.1193  0.0060  0.1349
  237POPC   GL1 3148   3.416   2.408   3.589 -0.0972 -0.0336  0.1175
  237POPC   GL2 3149   3.648   2.683   3.640  0.0350  0.1547  0.1223
  237POPC   C1A 3150   3.384   2.297   4.075  0.3394  0.1832  0.2948
  237POPC   D2A 3151   3.480   2.144   4.462  0.1081  0.3048  0.0360
  237POPC   C3A 3152   3.659   2.286   4.926 -0.1950 -0.1403  0.2087
  237POPC   C4A 3153   3.930   2.545   5.079 -0.0102  0.2235 -0.0293
  237POPC   C1B 3154   4.028   2.827   3.787 -0.1593 -0.0417  0.1845
  237POPC   C2B 3155   4.256   2.654   4.160 -0.2260 -0.2129  0.1557
  237POPC   C3B 3156   4.559   2.881   4.345  0.0842  0.2586 -0.1457
  237POPC   C4B 3157   4.787   2.748   4.640 -0.1233 -0.0436 -0.1252
  238POPC   NC3 3158   9.820  10.606   3.631 -0.0231  0.0191  0.0102
  238POPC   PO4 3159  10.075  11.000   3.559  0.1730  0.1212 -0.1643
  238POPC   GL1 3160   9.755  11.133   3.868  0.1481  0.1042  0.0392
  238POPC   GL2 3161   9.794  10.897   4.132  0.2073 -0.2692 -0.4385
  238POPC   C1A 3162   9.761  11.402   4.387  0.0551 -0.1350  0.0581
  238POPC   D2A 3163   9.886  11.475   4.731  0.2050 -0.2461 -0.0214
  238POPC   C3A 3164  10.321  11.515   4.821 -0.0402 -0.3185  0.0403
  238POPC   C4A 3165  10.620  11.645   5.080 -0.0591  0.1376  0.2544
  238POPC   C1B 3166   9.289  11.073   4.271 -0.2203  0.0511 -0.0216
  238POPC   C2B 3167   8.926  10.818   4.292  0.3571  0.0858  0.0097
  238POPC   C3B 3168   8.514  10.947   4.136  0.1693 -0.0352 -0.1733
  238POPC   C4B 3169   8.093  10.762   4.079  0.0249 -0.1097 -0.1022
  239POPC   NC3 3170   2.017   1.594   3.558 -0.0040  0.1512 -0.4191
  239POPC   PO4 3171   2.107   1.148   3.518  0.1525 -0.1745 -0.4503
  239POPC   GL1 3172   1.970   1.242   3.925  0.2529 -0.1194  0.3193
  239POPC   GL2 3173   1.733   1.424   3.976  0.1981  0.3337  0.2110
  239POPC   C1A 3174   2.047   1.049   4.335 -0.0787 -0.0673 -0.3753
  239POPC   D2A 3175   2.198   0.773   4.576  0.1832  0.0297  0.4592
  239POPC   C3A 3176   2.102   0.979   4.964 -0.1121  0.1494 -0.0692
  239POPC   C4A 3177   2.411   1.110   5.129  0.1211  0.0815  0.0219
  239POPC   C1B 3178   1.530   1.826   4.242 -0.1228  0.1202 -0.1210
  239POPC   C2B 3179   1.424   1.798   4.728 -0.1288 -0.0496  0.3479
  239POPC   C3B 3180   1.558   1.834   5.152 -0.0009 -0.3143 -0.0318
  239POPC   C4B 3181   1.502   1.984   5.528  0.0546  0.0216 -0.1267
  240POPC   NC3 3182  10.002   1.431   3.970 -0.2542 -0.2779 -0.0746
  240POPC   PO4 3183   9.778   1.884   3.804  0.0812 -0.1595  0.1697
  240POPC   GL1 3184   9.878   1.981   4.157  0.1648 -0.0164 -0.1133
  240POPC   GL2 3185   9.821   1.801   4.346  0.2328 -0.1831  0.0344
  240POPC   C1A 3186   9.931   2.228   4.489 -0.4147 -0.0559  0.1926
  240POPC   D2A 3187   9.950   2.636   4.625 -0.1231 -0.0434  0.1255
  240POPC   C3A 3188   9.852   2.793   5.056  0.0305 -0.0812 -0.4383
  240POPC   C4A 3189  10.241   2.912   5.357 -0.2565  0.0613  0.0974
  240POPC   C1B 3190   9.464   1.671   4.476  0.0838 -0.0991  0.2368
  240POPC   C2B 3191   9.239   1.551   4.908 -0.1914 -0.0264  0.3344
  240POPC   C3B 3192   8.933   1.260   5.059  0.1124 -0.0896  0.0636
  240POPC   C4B 3193   8.556   1.103   5.156 -0.1119  0.1003 -0.1780
  241POPC   NC3 3194   1.338   5.058   3.579  0.0283 -0.1825 -0.2171
  241POPC   PO4 3195   1.236   5.507   3.399 -0.1321  0.0530 -0.0902
  241POPC   GL1 3196   1.177   5.678   3.788 -0.0544  0.0570  0.3596
  241POPC   GL2 3197   1.369   5.944   3.783  0.0096 -0.1235  0.0548
  241POPC   C1A 3198   1.144   5.814   4.241  0.1524  0.1104  0.1535
  241POPC   D2A 3199   1.156   5.553   4.624  0.1531  0.0401 -0.1532
  241POPC   C3A 3200   0.969   5.624   5.023 -0.4704 -0.2377 -0.5234
  241POPC   C4A 3201   0.715   5.833   5.283  0.4056 -0.3048 -0.2236
  241POPC   C1B 3202   1.606   5.772   4.096 -0.2987 -0.3780 -0.0415
  241POPC   C2B 3203   1.636   5.653   4.549 -0.3383 -0.1126  0.3777
  241POPC   C3B 3204   1.576   5.260   4.759  0.0946  0.3831  0.3287
  241POPC   C4B 3205   1.776   4.996   5.096 -0.2870  0.0199  0.2565
  242POPC   NC3 3206   4.684   2.409   3.141  0.4903 -0.0094 -0.1600
  242POPC   PO4 3207   5.018   2.359   3.139 -0.1164  0.0826 -0.0555
  242POPC   GL1 3208   4.924   2.390   3.573  0.3678 -0.1160  0.2694
  242POPC   GL2 3209   5.198   2.597   3.771  0.1193 -0.2016  0.1166
  242POPC   C1A 3210   4.625   2.216   3.789 -0.1678 -0.3928 -0.0872
  242POPC   D2A 3211   4.384   1.928   3.972  0.0294 -0.1355  0.0981
  242POPC   C3A 3212   4.534   1.647   3.960  0.1835 -0.2530  0.5429
  242POPC   C4A 3213   4.132   1.390   4.093  0.2960 -0.0316  0.1036
  242POPC   C1B 3214   5.461   2.576   4.054  0.0065 -0.2536 -0.2095
  242POPC   C2B 3215   5.681   2.691   4.434  0.0295 -0.1260  0.1857
  242POPC   C3B 3216   5.759   2.881   4.760 -0.3161  0.1133 -0.2447
  242POPC   C4B 3217   6.038   2.877   5.128 -0.2644  0.0619  0.1178
  243POPC   NC3 3218   9.847   9.698   3.605  0.0492 -0.1954  0.0784
  243POPC   PO4 3219  10.107   9.596   4.058 -0.0776 -0.0088  0.0999
  243POPC   GL1 3220  10.203   9.967   4.216 -0.1393  0.2086 -0.2789
  243POPC   GL2 3221  10.488   9.959   4.120 -0.5154  0.0252 -0.3142
  243POPC   C1A 3222  10.363  10.168   4.663  0.0039  0.2900 -0.4328
  243POPC   D2A 3223  10.742  10.262   4.828 -0.1979 -0.1469  0.0347
  243POPC   C3A 3224  11.144  10.555   4.830  0.0306  0.2058  0.2210
  243POPC   C4A 3225  11.544  10.660   4.772 -0.2092 -0.0895 -0.3610
  243POPC   C1B 3226  10.658  10.365   4.325  0.1682  0.2244 -0.3225
  243POPC   C2B 3227  10.724  10.725   4.561  0.2107  0.2013  0.2068
  243POPC   C3B 3228  10.716  10.761   5.017  0.0502 -0.3056 -0.2153
  243POPC   C4B 3229  10.728  10.966   5.354 -0.1202  0.1647 -0.2359
  244POPC   NC3 3230   4.790   8.722   3.324  0.0318 -0.1521 -0.0535
  244POPC   PO4 3231   4.920   8.436   3.220  0.2546 -0.1271 -0.0536
  244POPC   GL1 3232   5.126   8.411   3.725 -0.1129  0.2786  0.1637
  244POPC   GL2 3233   5.495   8.422   3.851 -0.2762 -0.0363 -0.2979
  244POPC   C1A 3234   4.938   8.336   4.171 -0.0409 -0.3330 -0.2392
  244POPC   D2A 3235   4.723   8.422   4.520 -0.2979 -0.1537  0.1310
  244POPC   C3A 3236   4.399   8.134   4.761 -0.0010 -0.1801  0.0851
  244POPC   C4A 3237   4.084   8.010   5.066 -0.2161 -0.1182 -0.2074
  244POPC   C1B 3238   5.686   8.655   4.170  0.2270  0.0412 -0.0557
  244POPC   C2B 3239   5.966   8.496   4.558 -0.0920 -0.3762  0.0707
  244POPC   C3B 3240   6.001   8.198   4.932 -0.2785  0.2367  0.0318
  244POPC   C4B 3241   6.318   8.050   5.174 -0.0034 -0.0376 -0.1218
  245POPC   NC3 3242   4.352   5.062   3.299 -0.3146  0.1752  0.0538
  245POPC   PO4 3243   4.320   4.633   3.128  0.0248  0.2413  0.4367
  245POPC   GL1 3244   4.428   4.660   3.561  0.0545 -0.1077  0.1851
  245POPC   GL2 3245   4.149   4.846   3.696 -0.0887 -0.2487  0.0116
  245POPC   C1A 3246   4.732   4.652   3.903  0.0424  0.2223  0.0611
  245POPC   D2A 3247   4.854   4.571   4.384  0.1518 -0.0660  0.1505
  245POPC   C3A 3248   4.581   4.312   4.514  0.1098 -0.1892 -0.1752
  245POPC   C4A 3249   4.221   4.177   4.725  0.1372  0.1508  0.2795
  245POPC   C1B 3250   3.756   4.676   3.825 -0.0439  0.1335 -0.3063
  245POPC   C2B 3251   3.511   4.632   4.227 -0.2392  0.2127 -0.2806
  245POPC   C3B 3252   3.344   4.635   4.664  0.1072  0.2276  0.0234
  245POPC   C4B 3253   3.537   4.498   5.040  0.1810  0.1323  0.0246
  246POPC   NC3 3254   6.873   5.793   3.364 -0.1678  0.1131  0.2493
  246POPC   PO4 3255   7.348   5.863   3.485 -0.1017  0.3588 -0.1909
  246POPC   GL1 3256   7.468   5.610   3.808  0.1870 -0.0310 -0.2250
  246POPC   GL2 3257   7.137   5.502   3.921 -0.0205  0.5982  0.2352
  246POPC   C1A 3258   7.624   5.598   4.310  0.0565 -0.1716  0.0846
  246POPC   D2A 3259   7.930   5.352   4.525  0.1655 -0.1690  0.2282
  246POPC   C3A 3260   8.016   5.365   4.966  0.2303  0.1025 -0.0509
  246POPC   C4A 3261   8.269   5.213   5.324 -0.2706  0.2027  0.0420
  246POPC   C1B 3262   6.914   5.867   4.184 -0.2224  0.0237 -0.1852
  246POPC   C2B 3263   6.907   6.019   4.613  0.0649 -0.3589 -0.0859
  246POPC   C3B 3264   6.943   6.173   5.035  0.0290 -0.1449 -0.2690
  246POPC   C4B 3265   7.074   6.281   5.405 -0.2214  0.2263  0.1990
  247POPC   NC3 3266   6.875   1.139   3.272  0.1704  0.0719  0.2467
  247POPC   PO4 3267   7.321   1.075   3.278  0.1979  0.2576 -0.1782
  247POPC   GL1 3268   7.152   0.937   3.707  0.2191 -0.1550  0.1293
  247POPC   GL2 3269   6.889   1.048   3.739  0.2476  0.0940  0.0799
  247POPC   C1A 3270   7.113   0.747   4.146 -0.2522 -0.4125 -0.0394
  247POPC   D2A 3271   7.090   0.413   4.478 -0.0037 -0.1950 -0.0560
  247POPC   C3A 3272   7.144   0.564   4.877  0.2009  0.0446  0.0725
  247POPC   C4A 3273   7.398   0.641   5.180 -0.0522 -0.1206 -0.3118
  247POPC   C1B 3274   6.752   1.091   4.090  0.1980  0.1164 -0.0816
  247POPC   C2B 3275   6.724   0.814   4.419  0.1550  0.0160 -0.2684
  247POPC   C3B 3276   6.729   0.802   4.867 -0.0946  0.1368  0.0093
  247POPC   C4B 3277   6.814   0.826   5.268 -0.2370 -0.0665 -0.1452
  248POPC   NC3 3278   7.060   3.899   2.997  0.0895 -0.2415  0.0479
  248POPC   PO4 3279   7.217   3.715   3.360  0.2586 -0.0224  0.0672
  248POPC   GL1 3280   7.192   3.883   3.707 -0.0403 -0.1143  0.1682
  248POPC   GL2 3281   7.423   4.209   3.785 -0.1568  0.0359  0.0064
  248POPC   C1A 3282   7.221   3.846   4.135 -0.0499 -0.2887 -0.1172
  248POPC   D2A 3283   7.269   3.869   4.517  0.0090  0.2322  0.1681
  248POPC   C3A 3284   7.468   4.194   4.738  0.2026 -0.0974  0.2223
  248POPC   C4A 3285   7.758   4.469   4.696 -0.0719  0.2754  0.2533
  248POPC   C1B 3286   7.734   4.228   4.160  0.4800  0.0301  0.0377
  248POPC   C2B 3287   8.057   4.189   4.494 -0.3678 -0.0125 -0.0179
  248POPC   C3B 3288   8.171   4.355   4.932 -0.1852  0.2747 -0.0171
  248POPC   C4B 3289   8.428   4.434   5.288 -0.0106  0.0379  0.0557
  249POPC   NC3 3290   1.892   4.690   3.200  0.1160 -0.0646  0.0640
  249POPC   PO4 3291   1.855   4.884   3.600 -0.1287 -0.0971  0.1385
  249POPC   GL1 3292   2.079   5.021   3.964  0.2020 -0.1896  0.0526
  249POPC   GL2 3293   1.822   4.756   4.145 -0.0093  0.1969 -0.0418
  249POPC   C1A 3294   2.267   4.920   4.339  0.2752 -0.2004  0.1281
  249POPC   D2A 3295   2.614   4.962   4.724  0.1235 -0.0670  0.2533
  249POPC   C3A 3296   2.726   5.189   4.929  0.2800 -0.0203 -0.1596
  249POPC   C4A 3297   2.444   5.639   5.043  0.1146  0.1388 -0.0949
  249POPC   C1B 3298   1.617   4.413   4.389 -0.0781 -0.0161 -0.0036
  249POPC   C2B 3299   1.720   4.329   4.820  0.4626  0.1936  0.2587
  249POPC   C3B 3300   1.621   4.235   5.259  0.2440 -0.0777  0.0649
  249POPC   C4B 3301   1.494   4.040   5.565 -0.1913 -0.1058 -0.0865
  250POPC   NC3 3302   5.942   0.833   3.376  0.2209  0.1541  0.1517
  250POPC   PO4 3303   6.256   0.614   3.313 -0.1105  0.2593 -0.1493
  250POPC   GL1 3304   6.362   0.760   3.791  0.1038  0.2373  0.3030
  250POPC   GL2 3305   6.150   1.110   3.919 -0.3049 -0.0746 -0.1743
  250POPC   C1A 3306   6.258   0.677   4.204  0.1593 -0.2927  0.0497
  250POPC   D2A 3307   6.268   0.892   4.629  0.0189 -0.0837  0.1605
  250POPC   C3A 3308   6.274   0.640   5.088  0.0461  0.0141  0.1912
  250POPC   C4A 3309   6.531   0.474   5.471  0.3187  0.0075 -0.0366
  250POPC   C1B 3310   6.328   1.221   4.292 -0.1155  0.2300 -0.0555
  250POPC   C2B 3311   6.202   1.360   4.665  0.1608  0.2434 -0.1847
  250POPC   C3B 3312   6.224   1.681   5.020 -0.4418  0.1620 -0.0268
  250POPC   C4B 3313   6.354   2.038   4.974  0.2098 -0.0595  0.0472
  251POPC   NC3 3314  10.035   0.786   3.622  0.1381  0.4575  0.4410
  251POPC   PO4 3315   9.636   0.839   3.661  0.2014  0.3429  0.3414
  251POPC   GL1 3316   9.729   1.035   4.079  0.2249 -0.3288  0.1768
  251POPC   GL2 3317  10.017   0.916   4.133  0.0526  0.1639  0.1602
  251POPC   C1A 3318   9.581   1.121   4.475  0.0404 -0.1803  0.0282
  251POPC   D2A 3319   9.255   0.983   4.699  0.1780  0.1853 -0.2610
  251POPC   C3A 3320   9.402   0.598   4.898 -0.0596 -0.1504 -0.1733
  251POPC   C4A 3321   9.722   0.353   5.084  0.1596  0.2337 -0.4146
  251POPC   C1B 3322  10.139   1.098   4.506 -0.2470 -0.0628 -0.0168
  251POPC   C2B 3323   9.970   1.552   4.758 -0.3173  0.0755  0.3191
  251POPC   C3B 3324   9.727   1.629   5.195 -0.1273 -0.1611  0.1675
  251POPC   C4B 3325   9.386   1.821   5.359  0.0926 -0.1529 -0.0321
  252POPC   NC3 3326   2.824   4.492   3.424  0.1268  0.3121 -0.0505
  252POPC   PO4 3327   2.535   4.141   3.266  0.3023 -0.5463 -0.1352
  252POPC   GL1 3328   2.619   4.049   3.731  0.2452  0.1107  0.0716
  252POPC   GL2 3329   2.878   4.071   3.789 -0.4150 -0.0112  0.1763
  252POPC   C1A 3330   2.480   4.054   4.190 -0.1747  0.1167  0.0034
  252POPC   D2A 3331   2.438   3.884   4.576  0.0616  0.0211 -0.0595
  252POPC   C3A 3332   2.616   3.482   4.605 -0.0387  0.5182  0.0397
  252POPC   C4A 3333   2.629   3.115   4.831  0.0041  0.0685 -0.1193
  252POPC   C1B 3334   3.123   4.273   4.137  0.3871  0.0228 -0.1246
  252POPC   C2B 3335   3.362   4.142   4.435 -0.3620  0.1055 -0.0629
  252POPC   C3B 3336   3.678   4.050   4.758  0.3440  0.3832  0.1015
  252POPC   C4B 3337   3.846   4.025   5.190 -0.1669 -0.0661  0.2881
  253POPC   NC3 3338   5.318   7.838   2.942  0.5643  0.1712  0.1514
  253POPC   PO4 3339   5.056   7.937   3.282 -0.0862  0.1169 -0.0224
  253POPC   GL1 3340   5.010   7.863   3.728  0.2578  0.3012 -0.0064
  253POPC   GL2 3341   4.702   7.854   3.870  0.0028  0.2155 -0.2971
  253POPC   C1A 3342   5.330   7.909   4.036  0.0357 -0.1439 -0.3419
  253POPC   D2A 3343   5.613   7.585   4.141 -0.0822  0.2640  0.0082
  253POPC   C3A 3344   5.494   7.259   4.132 -0.0620  0.3513 -0.1523
  253POPC   C4A 3345   5.500   6.861   4.201 -0.1003  0.1478 -0.2420
  253POPC   C1B 3346   4.874   7.849   4.278 -0.1359  0.1820  0.0107
  253POPC   C2B 3347   4.889   7.863   4.719  0.1088  0.1342  0.0200
  253POPC   C3B 3348   5.088   7.873   5.109 -0.0586  0.0384  0.2195
  253POPC   C4B 3349   5.367   7.830   5.372 -0.4913  0.2660 -0.1354
  254POPC   NC3 3350   0.612   4.449   3.434  0.0622 -0.2356 -0.0108
  254POPC   PO4 3351   0.891   4.799   3.473 -0.0814  0.0663  0.1931
  254POPC   GL1 3352   0.858   4.654   3.878  0.2092 -0.3179 -0.0958
  254POPC   GL2 3353   0.976   4.398   3.833 -0.0271  0.0159  0.0173
  254POPC   C1A 3354   0.760   4.525   4.312  0.1784 -0.0555 -0.6180
  254POPC   D2A 3355   0.812   4.584   4.793  0.0070 -0.0428 -0.0570
  254POPC   C3A 3356   0.744   4.363   5.241 -0.0835 -0.0029 -0.1586
  254POPC   C4A 3357   1.066   4.460   5.555  0.0716 -0.0481 -0.0594
  254POPC   C1B 3358   1.079   4.158   4.144  0.1108  0.2101 -0.1190
  254POPC   C2B 3359   1.186   4.340   4.601 -0.0333  0.2257  0.1924
  254POPC   C3B 3360   1.208   4.253   4.994 -0.3294 -0.0103 -0.0540
  254POPC   C4B 3361   1.149   3.910   5.264  0.4310 -0.0486  0.0044
  255POPC   NC3 3362   5.253   9.549   3.060 -0.0940  0.4605  0.1396
  255POPC   PO4 3363   5.497   9.401   3.487 -0.0616  0.1269 -0.0567
  255POPC   GL1 3364   5.559   9.387   3.941 -0.3844 -0.0360  0.0598
  255POPC   GL2 3365   5.551   9.120   4.213 -0.0398  0.0570 -0.3236
  255POPC   C1A 3366   5.488   9.743   4.194 -0.0860  0.1407  0.0597
  255POPC   D2A 3367   5.574   9.897   4.639 -0.0952 -0.0234 -0.1004
  255POPC   C3A 3368   5.623  10.292   4.767 -0.0163 -0.2160 -0.1418
  255POPC   C4A 3369   5.804  10.579   4.967 -0.0679  0.0693 -0.2126
  255POPC   C1B 3370   5.917   8.973   4.466  0.3988  0.2989 -0.0995
  255POPC   C2B 3371   6.007   9.145   4.891  0.5500  0.0888 -0.1640
  255POPC   C3B 3372   6.027   9.470   5.129 -0.1343 -0.1970 -0.0701
  255POPC   C4B 3373   5.939   9.516   5.543  0.0071  0.1859 -0.0703
  256POPC   NC3 3374   0.927   3.147   2.684  0.2385  0.0988  0.0303
  256POPC   PO4 3375   0.935   3.262   3.090  0.1758 -0.1011  0.0539
  256POPC   GL1 3376   0.874   3.349   3.525  0.2041 -0.0447  0.0017
  256POPC   GL2 3377   0.527   3.411   3.656 -0.1928 -0.0803  0.2643
  256POPC   C1A 3378   1.019   3.071   3.797  0.2347 -0.1131 -0.0908
  256POPC   D2A 3379   1.325   3.057   4.075  0.2014  0.0942 -0.0558
  256POPC   C3A 3380   1.359   2.851   4.433  0.1169 -0.1434 -0.1506
  256POPC   C4A 3381   1.591   2.768   4.747  0.0979  0.3930  0.2703
  256POPC   C1B 3382   0.230   3.702   3.896  0.1410 -0.0456 -0.0845
  256POPC   C2B 3383   0.037   3.855   4.260 -0.1099  0.0756  0.2759
  256POPC   C3B 3384   0.064   4.042   4.759  0.0546  0.1399  0.0356
  256POPC   C4B 3385   0.268   4.168   5.139 -0.2009  0.0395  0.0095
  257POPC   NC3 3386   5.164   1.423   3.133 -0.0268 -0.1614 -0.1509
  257POPC   PO4 3387   5.362   1.481   3.486 -0.0228 -0.1129 -0.0256
  257POPC   GL1 3388   5.323   1.445   3.860 -0.1313  0.0855  0.0598
  257POPC   GL2 3389   5.478   1.316   4.126  0.0964 -0.0345  0.1669
  257POPC   C1A 3390   4.996   1.546   4.160  0.2529 -0.0913 -0.1085
  257POPC   D2A 3391   4.900   1.659   4.566 -0.1411  0.0176  0.1388
  257POPC   C3A 3392   4.569   1.623   4.909  0.0478  0.1898  0.2074
  257POPC   C4A 3393   4.256   1.638   5.369 -0.4067  0.4183  0.0745
  257POPC   C1B 3394   5.300   1.232   4.433 -0.2715 -0.2428 -0.3053
  257POPC   C2B 3395   5.383   0.875   4.690  0.0442  0.3003 -0.1861
  257POPC   C3B 3396   5.190   0.762   5.076  0.0281  0.0073 -0.1005
  257POPC   C4B 3397   5.322   0.440   5.466  0.1798 -0.2420  0.1093
  258POPC   NC3 3398   8.401   0.940   3.478 -0.5514 -0.0202 -0.0964
  258POPC   PO4 3399   8.425   0.566   3.223 -0.1284 -0.0434  0.0812
  258POPC   GL1 3400   8.453   0.477   3.697  0.0375 -0.1586  0.2238
  258POPC   GL2 3401   8.817   0.535   3.811 -0.2749 -0.2924 -0.1261
  258POPC   C1A 3402   8.429   0.713   4.139  0.2363  0.1173  0.1420
  258POPC   D2A 3403   8.540   0.994   4.473  0.0089 -0.3280  0.0604
  258POPC   C3A 3404   8.870   1.139   4.437 -0.0192 -0.1267 -0.1584
  258POPC   C4A 3405   9.151   1.352   4.284  0.1900  0.6864  0.0003
  258POPC   C1B 3406   8.976   0.702   4.173  0.1550  0.2851  0.1781
  258POPC   C2B 3407   8.995   0.588   4.613  0.0786  0.1748 -0.1809
  258POPC   C3B 3408   8.867   0.654   5.030 -0.0121  0.0039 -0.3986
  258POPC   C4B 3409   9.269   0.881   5.263  0.1000 -0.0030 -0.1044
  259POPC   NC3 3410   6.172   8.401   3.422 -0.1997  0.1000  0.0893
  259POPC   PO4 3411   5.930   8.602   3.471  0.0220 -0.0222 -0.2961
  259POPC   GL1 3412   6.150   8.557   3.914 -0.2035 -0.1079  0.2088
  259POPC   GL2 3413   6.329   8.253   3.897 -0.1978  0.0594  0.1277
  259POPC   C1A 3414   6.451   8.688   4.276 -0.0318  0.2122 -0.4157
  259POPC   D2A 3415   6.534   8.470   4.675 -0.3869  0.0008  0.0291
  259POPC   C3A 3416   6.280   8.613   4.993 -0.3208 -0.0307  0.3695
  259POPC   C4A 3417   5.893   8.654   5.051  0.1456 -0.1265 -0.4617
  259POPC   C1B 3418   6.282   8.099   4.377  0.0763  0.0546  0.1160
  259POPC   C2B 3419   6.393   7.883   4.697  0.3005 -0.1304  0.1248
  259POPC   C3B 3420   6.787   7.763   5.071 -0.3187 -0.0419  0.0144
  259POPC   C4B 3421   6.906   7.442   5.336  0.1876  0.1115 -0.2928
  260POPC   NC3 3422   4.717   4.240   3.156 -0.0196 -0.2393 -0.0397
  260POPC   PO4 3423   4.752   3.778   3.383  0.0927 -0.2169  0.3592
  260POPC   GL1 3424   4.584   4.082   3.615  0.0995  0.1059  0.0787
  260POPC   GL2 3425   4.789   4.254   3.661 -0.0321 -0.1997  0.1147
  260POPC   C1A 3426   4.258   4.345   3.896 -0.1295 -0.4123  0.2058
  260POPC   D2A 3427   4.223   4.627   4.322 -0.1118  0.4341  0.1781
  260POPC   C3A 3428   4.006   4.993   4.172  0.0345 -0.2164 -0.1992
  260POPC   C4A 3429   3.950   5.292   3.889  0.1773 -0.1858 -0.1169
  260POPC   C1B 3430   4.891   4.123   4.084 -0.0758  0.2232 -0.2906
  260POPC   C2B 3431   4.923   4.012   4.504  0.3487  0.1367 -0.2371
  260POPC   C3B 3432   4.916   4.253   4.877  0.2823 -0.3808  0.3936
  260POPC   C4B 3433   4.777   4.610   4.854  0.0912 -0.0526  0.1315
  261POPC   NC3 3434   3.243   8.806   2.935  0.1743  0.0969  0.1860
  261POPC   PO4 3435   3.332   8.530   3.174  0.1482 -0.0426 -0.0700
  261POPC   GL1 3436   3.530   8.332   3.540  0.2542 -0.0316  0.0515
  261POPC   GL2 3437   3.758   8.371   3.850 -0.2561 -0.1896 -0.3553
  261POPC   C1A 3438   3.333   7.925   3.629 -0.1819 -0.0527 -0.1062
  261POPC   D2A 3439   3.310   7.459   3.806 -0.2853  0.0609  0.1601
  261POPC   C3A 3440   3.729   7.318   3.823 -0.1649 -0.0313 -0.0990
  261POPC   C4A 3441   4.137   7.160   3.913  0.2679 -0.1265 -0.1409
  261POPC   C1B 3442   3.811   8.470   4.279  0.3500 -0.1686 -0.0176
  261POPC   C2B 3443   4.169   8.623   4.569  0.2013  0.0364  0.0446
  261POPC   C3B 3444   4.343   8.501   5.057  0.0351  0.2236 -0.0621
  261POPC   C4B 3445   4.709   8.217   5.098  0.1177 -0.1244 -0.1981
  262POPC   NC3 3446   1.735   3.592   3.123 -0.0249  0.0182  0.0267
  262POPC   PO4 3447   1.902   3.116   3.199  0.0304 -0.2083  0.1214
  262POPC   GL1 3448   1.717   3.265   3.589 -0.1990 -0.2270 -0.1075
  262POPC   GL2 3449   1.789   3.392   3.879  0.1884 -0.0724 -0.2405
  262POPC   C1A 3450   1.295   3.478   3.762  0.1815 -0.0190 -0.1155
  262POPC   D2A 3451   1.210   3.594   4.147  0.2268  0.1446 -0.0832
  262POPC   C3A 3452   1.215   3.312   4.482 -0.1513 -0.2763 -0.0764
  262POPC   C4A 3453   1.095   3.048   4.901  0.0190  0.2453  0.1069
  262POPC   C1B 3454   1.680   3.466   4.249  0.0205 -0.1766 -0.2197
  262POPC   C2B 3455   1.641   3.437   4.739 -0.0304  0.3243  0.1292
  262POPC   C3B 3456   1.478   3.238   5.101 -0.1458 -0.1788 -0.3497
  262POPC   C4B 3457   1.628   2.970   5.412 -0.1805 -0.1969  0.0276
  263POPC   NC3 3458   2.568   7.933   2.865  0.0435 -0.1658 -0.0919
  263POPC   PO4 3459   2.335   7.601   2.966 -0.0169 -0.1759  0.1819
  263POPC   GL1 3460   2.753   7.626   3.382  0.0284 -0.1744  0.1417
  263POPC   GL2 3461   2.549   7.874   3.394  0.0244  0.0249 -0.0040
  263POPC   C1A 3462   2.839   7.907   3.822  0.1028 -0.0064  0.0037
  263POPC   D2A 3463   3.088   7.876   4.168 -0.1560 -0.3107 -0.0128
  263POPC   C3A 3464   3.118   7.416   4.328 -0.2291 -0.2504  0.0993
  263POPC   C4A 3465   3.296   7.275   4.719  0.0094  0.1618 -0.0444
  263POPC   C1B 3466   2.331   7.892   3.847  0.0181 -0.0827  0.0533
  263POPC   C2B 3467   2.133   7.964   4.126 -0.0318  0.0265  0.0310
  263POPC   C3B 3468   1.891   8.067   4.559  0.1329  0.0974 -0.0968
  263POPC   C4B 3469   1.625   7.868   4.883 -0.0070  0.0274 -0.3589
  264POPC   NC3 3470   7.960   3.595   3.090  0.1180  0.1118 -0.0916
  264POPC   PO4 3471   7.678   3.420   3.356  0.2035 -0.0071  0.5503
  264POPC   GL1 3472   7.763   3.330   3.761  0.1741 -0.0339  0.0197
  264POPC   GL2 3473   7.411   3.418   3.761 -0.1245  0.1560 -0.2574
  264POPC   C1A 3474   7.629   3.466   4.235 -0.4286  0.2834  0.1681
  264POPC   D2A 3475   7.754   3.790   4.568  0.0290 -0.3635  0.1763
  264POPC   C3A 3476   7.870   3.911   4.924  0.1092 -0.3553 -0.1484
  264POPC   C4A 3477   8.045   4.038   5.332 -0.1990 -0.1116 -0.1517
  264POPC   C1B 3478   7.138   3.298   4.171 -0.0480  0.1615 -0.1141
  264POPC   C2B 3479   7.236   3.329   4.519  0.0138  0.1936 -0.1743
  264POPC   C3B 3480   7.397   3.396   4.925 -0.3483 -0.1268  0.0014
  264POPC   C4B 3481   7.912   3.431   4.907  0.0027 -0.2801 -0.1798
  265POPC   NC3 3482   7.728   6.331   3.387 -0.0872  0.1446 -0.2356
  265POPC   PO4 3483   7.942   5.989   3.175  0.2688  0.1878 -0.3221
  265POPC   GL1 3484   7.889   5.875   3.647 -0.3420 -0.2834  0.2636
  265POPC   GL2 3485   8.113   5.640   3.762 -0.0821  0.1266 -0.1646
  265POPC   C1A 3486   7.804   5.985   4.082 -0.2782 -0.0889  0.0544
  265POPC   D2A 3487   7.889   5.985   4.513 -0.4482  0.3154 -0.0525
  265POPC   C3A 3488   7.744   5.740   4.784  0.0186 -0.1150 -0.2734
  265POPC   C4A 3489   7.911   5.739   5.254 -0.2478  0.0220  0.0347
  265POPC   C1B 3490   8.182   5.625   4.234 -0.1475 -0.0574  0.2173
  265POPC   C2B 3491   8.548   5.676   4.426  0.0491 -0.0165  0.0112
  265POPC   C3B 3492   8.931   5.545   4.475 -0.2501 -0.0109  0.0043
  265POPC   C4B 3493   9.339   5.457   4.292 -0.1365  0.2520  0.1452
  266POPC   NC3 3494   7.021   0.155   3.389  0.1479 -0.1381  0.0682
  266POPC   PO4 3495   7.217  -0.108   3.157 -0.2906 -0.2070  0.0143
  266POPC   GL1 3496   7.470  -0.170   3.553  0.0956 -0.2845  0.2086
  266POPC   GL2 3497   7.719  -0.320   3.597  0.1341 -0.0095  0.1164
  266POPC   C1A 3498   7.469  -0.032   3.998 -0.0296 -0.0072 -0.0489
  266POPC   D2A 3499   7.681  -0.127   4.360 -0.0433 -0.0380  0.3541
  266POPC   C3A 3500   7.446  -0.209   4.754  0.2151 -0.1329  0.0621
  266POPC   C4A 3501   7.359   0.013   5.121  0.0340  0.0156  0.1779
  266POPC   C1B 3502   7.628  -0.513   3.949  0.2718 -0.2032  0.1155
  266POPC   C2B 3503   7.502  -0.598   4.389  0.2769 -0.0247 -0.0629
  266POPC   C3B 3504   7.064  -0.588   4.541  0.1701  0.1583  0.1978
  266POPC   C4B 3505   6.682  -0.495   4.805 -0.4033  0.3638 -0.2239
  267POPC   NC3 3506   3.002   3.861   3.281  0.0925 -0.0785 -0.5143
  267POPC   PO4 3507   3.167   4.359   3.097 -0.1815  0.2990 -0.0051
  267POPC   GL1 3508   3.371   4.531   3.455  0.0553 -0.0809 -0.0979
  267POPC   GL2 3509   3.157   4.674   3.770 -0.1503  0.0711 -0.1633
  267POPC   C1A 3510   3.490   4.224   3.786  0.0671 -0.0471  0.1549
  267POPC   D2A 3511   3.977   4.019   3.696  0.3439 -0.2424  0.0513
  267POPC   C3A 3512   4.229   3.664   3.799  0.0559  0.2352  0.0150
  267POPC   C4A 3513   4.081   3.271   3.583 -0.1542  0.3750 -0.1337
  267POPC   C1B 3514   3.069   4.807   4.216  0.2299 -0.0119  0.0133
  267POPC   C2B 3515   3.111   5.057   4.490  0.1601  0.0207 -0.0443
  267POPC   C3B 3516   3.286   4.995   5.001 -0.0787  0.0348  0.1324
  267POPC   C4B 3517   3.545   5.005   5.363 -0.1957  0.1390 -0.1613
  268POPC   NC3 3518   9.411   7.795   3.713  0.1191 -0.2359 -0.3514
  268POPC   PO4 3519   9.062   8.017   3.928 -0.1720  0.0406 -0.0876
  268POPC   GL1 3520   8.745   7.675   4.083  0.1068 -0.2490  0.3370
  268POPC   GL2 3521   8.457   7.852   4.285 -0.0871 -0.0707 -0.2225
  268POPC   C1A 3522   8.535   7.309   4.252 -0.0696  0.2019  0.2129
  268POPC   D2A 3523   8.366   6.996   4.563  0.2769 -0.0528 -0.0272
  268POPC   C3A 3524   8.301   7.014   5.015  0.1111  0.0141 -0.0586
  268POPC   C4A 3525   8.140   6.706   5.321  0.1433  0.0652 -0.0541
  268POPC   C1B 3526   8.695   7.591   4.649 -0.2735 -0.0527  0.0310
  268POPC   C2B 3527   8.669   7.475   5.105  0.1037 -0.0585 -0.2993
  268POPC   C3B 3528   8.949   7.361   5.430 -0.2578 -0.0172  0.1096
  268POPC   C4B 3529   8.949   7.281   5.877  0.3204 -0.1670 -0.1484
  269POPC   NC3 3530   0.650   1.236   3.376 -0.2221 -0.1652  0.0658
  269POPC   PO4 3531   0.449   1.577   3.401  0.2554  0.1027 -0.0189
  269POPC   GL1 3532   0.314   1.568   3.849 -0.1173  0.1105 -0.1494
  269POPC   GL2 3533   0.080   1.794   3.825 -0.1031  0.3765  0.3270
  269POPC   C1A 3534   0.724   1.549   4.040  0.0551 -0.0461 -0.0954
  269POPC   D2A 3535   1.038   1.237   4.199  0.0677  0.2865 -0.1150
  269POPC   C3A 3536   1.346   1.388   4.431  0.3185 -0.1747 -0.1713
  269POPC   C4A 3537   1.728   1.415   4.492 -0.0056 -0.1426 -0.1269
  269POPC   C1B 3538   0.130   1.748   4.226 -0.1089  0.3754  0.1183
  269POPC   C2B 3539   0.134   1.840   4.631  0.0662  0.1757  0.0040
  269POPC   C3B 3540   0.212   1.879   5.089 -0.0536  0.0286 -0.1517
  269POPC   C4B 3541  -0.085   1.959   5.281  0.0204  0.0989  0.0443
  270POPC   NC3 3542   0.730   2.636   3.313 -0.0770 -0.0776 -0.3801
  270POPC   PO4 3543   0.958   2.393   3.168 -0.2382  0.0340 -0.2347
  270POPC   GL1 3544   1.067   2.300   3.591 -0.1756 -0.2900 -0.0741
  270POPC   GL2 3545   0.939   2.573   3.828  0.1368 -0.1742 -0.1978
  270POPC   C1A 3546   1.147   1.870   3.959  0.0585 -0.1749 -0.2669
  270POPC   D2A 3547   1.036   1.864   4.400  0.1750  0.0498 -0.3432
  270POPC   C3A 3548   0.987   1.464   4.712  0.0145  0.3692  0.0953
  270POPC   C4A 3549   1.003   1.145   5.122 -0.0197 -0.2839  0.2398
  270POPC   C1B 3550   1.262   2.478   4.031 -0.1322 -0.0833 -0.0002
  270POPC   C2B 3551   1.364   2.291   4.413  0.2260  0.0169 -0.0331
  270POPC   C3B 3552   1.637   2.264   4.743 -0.2596  0.0324  0.0248
  270POPC   C4B 3553   1.902   2.506   5.036 -0.2735  0.2557 -0.0243
  271POPC   NC3 3554   7.329   7.079   3.633  0.0519  0.0780 -0.2792
  271POPC   PO4 3555   7.276   6.759   3.448 -0.0775 -0.1828 -0.3988
  271POPC   GL1 3556   7.347   6.522   3.735  0.1954  0.3171 -0.0578
  271POPC   GL2 3557   7.497   6.206   3.795 -0.3518 -0.0616 -0.0569
  271POPC   C1A 3558   7.177   6.481   4.181 -0.1936 -0.1875  0.0323
  271POPC   D2A 3559   7.025   6.533   4.720  0.2040 -0.0646  0.1424
  271POPC   C3A 3560   6.808   6.821   4.972 -0.2622  0.0652  0.1976
  271POPC   C4A 3561   7.041   7.006   5.383  0.0497  0.3697  0.2342
  271POPC   C1B 3562   7.345   5.994   4.152  0.1083 -0.0145 -0.0355
  271POPC   C2B 3563   7.309   5.750   4.592 -0.1210 -0.1958  0.3658
  271POPC   C3B 3564   7.120   5.670   4.910 -0.3698 -0.2492  0.0385
  271POPC   C4B 3565   6.854   5.670   5.269 -0.0623  0.0373  0.2109
  272POPC   NC3 3566   7.139   4.621   3.570  0.0153  0.2197  0.1591
  272POPC   PO4 3567   7.010   4.237   3.401 -0.1994 -0.2024  0.0796
  272POPC   GL1 3568   6.787   4.138   3.840  0.1214 -0.0544 -0.0703
  272POPC   GL2 3569   6.781   4.372   4.036 -0.4470  0.2424  0.1119
  272POPC   C1A 3570   6.440   4.002   4.038 -0.2795  0.1915 -0.2507
  272POPC   D2A 3571   6.402   4.002   4.422  0.0696  0.1399  0.0773
  272POPC   C3A 3572   6.682   3.700   4.677 -0.2429 -0.1854 -0.1537
  272POPC   C4A 3573   6.980   3.703   4.980 -0.1546  0.0524  0.3152
  272POPC   C1B 3574   6.555   4.465   4.282  0.0250  0.0051  0.1965
  272POPC   C2B 3575   6.449   4.554   4.635 -0.1344 -0.0640 -0.0857
  272POPC   C3B 3576   6.585   4.894   4.835  0.1763 -0.0197 -0.0930
  272POPC   C4B 3577   6.535   4.990   5.259 -0.1102  0.1365 -0.1666
  273POPC   NC3 3578   2.988   6.628   3.508 -0.1576 -0.0724 -0.2578
  273POPC   PO4 3579   2.542   6.622   3.609  0.1905 -0.3166  0.0810
  273POPC   GL1 3580   2.439   6.498   4.028  0.0047  0.4968  0.2018
  273POPC   GL2 3581   2.292   6.173   4.140 -0.0338 -0.2152 -0.0610
  273POPC   C1A 3582   2.157   6.540   4.520 -0.2885  0.1235 -0.0483
  273POPC   D2A 3583   1.938   6.740   4.761  0.1270 -0.0559 -0.0329
  273POPC   C3A 3584   1.903   7.156   4.847 -0.1359  0.1351 -0.0591
  273POPC   C4A 3585   1.511   7.319   4.947 -0.1726  0.0925 -0.1620
  273POPC   C1B 3586   2.371   6.115   4.564  0.1487  0.0065  0.0912
  273POPC   C2B 3587   2.255   6.374   4.990  0.0202 -0.2620 -0.1361
  273POPC   C3B 3588   2.123   6.569   5.413 -0.1368 -0.2416  0.2347
  273POPC   C4B 3589   2.381   6.555   5.736 -0.1225  0.0120 -0.1142
  274POPC   NC3 3590  10.515   7.353   2.735 -0.3129 -0.0502  0.2600
  274POPC   PO4 3591  10.517   7.271   3.102  0.0475  0.3342 -0.0574
  274POPC   GL1 3592  10.531   6.953   3.439  0.0614  0.0729 -0.0393
  274POPC   GL2 3593  10.666   7.113   3.692 -0.1901  0.0201 -0.2948
  274POPC   C1A 3594  10.306   6.773   3.888  0.3394 -0.3733 -0.0185
  274POPC   D2A 3595  10.258   6.865   4.417 -0.0875  0.1760  0.1130
  274POPC   C3A 3596   9.851   6.826   4.550  0.2833  0.1836  0.3351
  274POPC   C4A 3597   9.702   6.535   4.833 -0.2394 -0.1830  0.0117
  274POPC   C1B 3598  10.777   6.812   4.081  0.0728 -0.3484  0.0270
  274POPC   C2B 3599  10.899   6.901   4.488  0.3695  0.0458 -0.1226
  274POPC   C3B 3600  10.886   6.867   5.011 -0.3115  0.0243  0.2611
  274POPC   C4B 3601  10.908   7.053   5.374  0.1444  0.1216 -0.2607
  275POPC   NC3 3602   4.900   7.188   2.893 -0.2235  0.0632  0.3586
  275POPC   PO4 3603   5.163   7.420   3.190 -0.0241  0.2987  0.1273
  275POPC   GL1 3604   5.031   7.316   3.700  0.0870  0.0188  0.0398
  275POPC   GL2 3605   4.926   6.998   3.846 -0.1037  0.0615  0.0690
  275POPC   C1A 3606   5.076   7.451   4.136 -0.0616 -0.2637 -0.0194
  275POPC   D2A 3607   4.959   7.264   4.443 -0.1516  0.1769  0.0962
  275POPC   C3A 3608   4.670   7.390   4.771 -0.0712 -0.2117 -0.0741
  275POPC   C4A 3609   4.680   7.597   5.200 -0.0521  0.1792 -0.1394
  275POPC   C1B 3610   4.829   6.893   4.150 -0.0464  0.1312  0.1334
  275POPC   C2B 3611   4.798   6.747   4.523 -0.1859 -0.1058  0.2351
  275POPC   C3B 3612   5.007   6.511   4.878  0.0838  0.3150 -0.3510
  275POPC   C4B 3613   5.186   6.113   5.179 -0.3316 -0.0320  0.1111
  276POPC   NC3 3614   4.637   9.545   3.484  0.0502 -0.1693 -0.1883
  276POPC   PO4 3615   4.253   9.634   3.247  0.1813  0.1177 -0.2424
  276POPC   GL1 3616   4.163   9.712   3.655  0.2207 -0.0872 -0.1224
  276POPC   GL2 3617   4.293   9.976   3.775  0.4509 -0.1416  0.2267
  276POPC   C1A 3618   3.813   9.853   3.925 -0.0538  0.0853 -0.0278
  276POPC   D2A 3619   3.791  10.284   3.917 -0.2215 -0.2051 -0.1788
  276POPC   C3A 3620   3.992  10.441   4.309  0.1876 -0.1549 -0.0034
  276POPC   C4A 3621   4.320  10.551   4.623 -0.1041  0.1288 -0.0483
  276POPC   C1B 3622   4.392  10.149   4.204  0.2033  0.1883 -0.1106
  276POPC   C2B 3623   4.601  10.144   4.650 -0.0415  0.2224 -0.0313
  276POPC   C3B 3624   4.490   9.894   5.138  0.4098 -0.1672 -0.5334
  276POPC   C4B 3625   4.413   9.719   5.487 -0.3699 -0.0507  0.1050
  277POPC   NC3 3626   2.655   4.508   2.887  0.0984  0.2361  0.0602
  277POPC   PO4 3627   2.375   4.800   3.125 -0.2239  0.2422 -0.0134
  277POPC   GL1 3628   2.345   4.785   3.570  0.2126 -0.2109  0.3315
  277POPC   GL2 3629   2.455   5.079   3.666  0.1478 -0.1678  0.3358
  277POPC   C1A 3630   2.249   4.486   3.956  0.2421  0.2543 -0.0408
  277POPC   D2A 3631   2.119   4.331   4.428 -0.1608 -0.0337 -0.1394
  277POPC   C3A 3632   2.291   4.518   4.754  0.3503  0.0808  0.1867
  277POPC   C4A 3633   2.246   4.536   5.205  0.1566 -0.2696 -0.1843
  277POPC   C1B 3634   2.621   4.896   3.979  0.4442  0.0299  0.1838
  277POPC   C2B 3635   2.699   4.539   4.204  0.0680  0.0291  0.0119
  277POPC   C3B 3636   2.840   4.424   4.612 -0.0637  0.2370  0.3285
  277POPC   C4B 3637   2.731   4.606   5.054 -0.2643  0.0398  0.1365
  278POPC   NC3 3638   1.187   7.356   3.593 -0.4770 -0.3497 -0.4070
  278POPC   PO4 3639   1.204   6.928   3.424 -0.0314 -0.2094  0.2206
  278POPC   GL1 3640   0.879   6.994   3.759 -0.0023  0.5804  0.0261
  278POPC   GL2 3641   0.653   6.627   3.872 -0.2375 -0.2027  0.1681
  278POPC   C1A 3642   0.549   7.028   4.136  0.0884  0.0092  0.3651
  278POPC   D2A 3643   0.629   6.746   4.491  0.2048  0.2461 -0.1040
  278POPC   C3A 3644   0.622   6.896   4.852  0.1945 -0.0966  0.1025
  278POPC   C4A 3645   0.622   6.697   5.223  0.1199  0.2004  0.0031
  278POPC   C1B 3646   0.311   6.443   4.212  0.2791 -0.1527 -0.0031
  278POPC   C2B 3647   0.236   6.400   4.675 -0.1723  0.0258 -0.0444
  278POPC   C3B 3648   0.288   6.327   5.070 -0.0860 -0.0352  0.2662
  278POPC   C4B 3649   0.187   6.505   5.503 -0.1302  0.2384  0.1964
  279POPC   NC3 3650   0.488   4.538   2.868  0.2943 -0.1794 -0.0133
  279POPC   PO4 3651   0.198   4.665   3.098 -0.0567 -0.2593  0.0367
  279POPC   GL1 3652   0.231   4.765   3.531  0.1449  0.2202 -0.2227
  279POPC   GL2 3653   0.341   5.080   3.617  0.0799  0.2612  0.2641
  279POPC   C1A 3654   0.334   4.672   3.982  0.2437 -0.1221  0.1647
  279POPC   D2A 3655   0.223   4.877   4.252  0.1116  0.0266  0.2183
  279POPC   C3A 3656   0.558   4.944   4.535  0.0613 -0.1920  0.1493
  279POPC   C4A 3657   0.899   5.043   4.768 -0.1852 -0.1769  0.1350
  279POPC   C1B 3658   0.498   5.210   4.016 -0.1329  0.0782  0.1615
  279POPC   C2B 3659   0.934   5.358   4.134  0.1679  0.3959 -0.3463
  279POPC   C3B 3660   1.370   5.385   4.217  0.0183  0.0630 -0.3592
  279POPC   C4B 3661   1.843   5.311   4.253  0.1143  0.0307  0.1476
  280POPC   NC3 3662   3.835   7.120   3.017 -0.0581 -0.1690 -0.0333
  280POPC   PO4 3663   3.893   6.827   3.151  0.4075  0.1383 -0.1608
  280POPC   GL1 3664   3.977   6.777   3.569  0.1921 -0.0966 -0.0829
  280POPC   GL2 3665   4.011   6.438   3.723 -0.1547  0.0301 -0.1126
  280POPC   C1A 3666   3.581   6.809   3.817  0.0417 -0.0669  0.0016
  280POPC   D2A 3667   3.242   6.574   4.073  0.1664 -0.1975 -0.0663
  280POPC   C3A 3668   2.832   6.695   4.260  0.0374  0.0863 -0.0230
  280POPC   C4A 3669   2.773   7.079   4.400  0.1919 -0.0360 -0.0004
  280POPC   C1B 3670   3.768   6.362   4.045 -0.3377  0.3294  0.0511
  280POPC   C2B 3671   4.047   6.126   4.383 -0.3107 -0.4096 -0.2056
  280POPC   C3B 3672   4.130   6.086   4.798  0.1635 -0.3326  0.1750
  280POPC   C4B 3673   4.375   6.167   5.200 -0.2650  0.0432 -0.3200
  281POPC   NC3 3674   4.942   9.973   2.959  0.1921  0.0932  0.1584
  281POPC   PO4 3675   5.032   9.895   3.399 -0.2767  0.0155  0.3978
  281POPC   GL1 3676   5.189   9.714   3.734 -0.1757  0.1337  0.0238
  281POPC   GL2 3677   5.058   9.481   3.749  0.4305  0.0524  0.0852
  281POPC   C1A 3678   4.960   9.878   4.146 -0.1525 -0.0359 -0.0517
  281POPC   D2A 3679   5.064   9.734   4.559  0.1339  0.1241 -0.1941
  281POPC   C3A 3680   4.910   9.578   4.886 -0.1177 -0.1093 -0.0564
  281POPC   C4A 3681   4.621   9.359   5.033  0.0442  0.2895  0.1360
  281POPC   C1B 3682   5.042   9.324   4.157  0.0391 -0.4551 -0.0310
  281POPC   C2B 3683   5.127   9.237   4.544  0.2273  0.2391 -0.0823
  281POPC   C3B 3684   5.117   8.995   5.034  0.1407 -0.2274 -0.1320
  281POPC   C4B 3685   4.897   8.693   5.062  0.2798  0.0869  0.0184
  282POPC   NC3 3686   0.042   9.426   3.518  0.1995 -0.1724 -0.1154
  282POPC   PO4 3687   0.020   9.816   3.731 -0.1548  0.0939  0.0645
  282POPC   GL1 3688   0.303  10.039   4.000  0.2359 -0.0241 -0.2274
  282POPC   GL2 3689   0.338  10.441   3.995 -0.1339  0.2327  0.2234
  282POPC   C1A 3690   0.747   9.999   4.133  0.0944  0.0714 -0.0201
  282POPC   D2A 3691   1.206   9.992   4.200 -0.1089 -0.0741  0.1354
  282POPC   C3A 3692   1.341   9.701   4.397 -0.1258  0.0044  0.0577
  282POPC   C4A 3693   1.112   9.604   4.686 -0.1007  0.2002  0.1699
  282POPC   C1B 3694   0.426  10.791   4.376  0.2607  0.2509 -0.4237
  282POPC   C2B 3695   0.490  11.037   4.727 -0.2151 -0.3921  0.0787
  282POPC   C3B 3696   0.524  10.911   5.117 -0.1770 -0.3217 -0.2139
  282POPC   C4B 3697   0.412  10.949   5.519  0.0981 -0.1272 -0.1604
  283POPC   NC3 3698   2.993   1.583   3.187  0.0621 -0.0097 -0.2484
  283POPC   PO4 3699   2.928   2.042   3.170 -0.1645 -0.1214 -0.2982
  283POPC   GL1 3700   3.032   2.125   3.598  0.0754 -0.1688  0.0985
  283POPC   GL2 3701   3.282   1.928   3.761  0.1204 -0.2733 -0.2790
  283POPC   C1A 3702   2.936   2.535   3.907  0.0993  0.0283  0.0059
  283POPC   D2A 3703   2.874   2.760   4.293 -0.1272 -0.2053  0.2205
  283POPC   C3A 3704   2.692   2.650   4.623  0.1136  0.2163  0.0610
  283POPC   C4A 3705   2.393   2.607   4.833 -0.0345 -0.1039 -0.1863
  283POPC   C1B 3706   3.365   1.648   4.129  0.0855  0.0215 -0.2115
  283POPC   C2B 3707   3.466   1.623   4.635  0.1727 -0.1776 -0.2078
  283POPC   C3B 3708   3.544   1.774   4.912  0.2794 -0.2634 -0.1199
  283POPC   C4B 3709   3.726   1.899   5.270  0.0259  0.1227 -0.1308
  284POPC   NC3 3710  10.131   8.621   3.709 -0.1717  0.1216  0.2938
  284POPC   PO4 3711  10.048   8.029   3.626 -0.1027  0.0169  0.1266
  284POPC   GL1 3712  10.118   7.942   3.995  0.1873  0.1152 -0.1814
  284POPC   GL2 3713   9.975   7.940   4.291 -0.0317 -0.1063 -0.2416
  284POPC   C1A 3714  10.153   7.490   4.253 -0.1935  0.0214 -0.0730
  284POPC   D2A 3715  10.537   7.247   4.294  0.0995 -0.1611  0.4019
  284POPC   C3A 3716  10.556   7.137   4.772 -0.0903  0.0773 -0.0628
  284POPC   C4A 3717  10.155   6.770   4.953 -0.1945 -0.2308  0.1448
  284POPC   C1B 3718  10.447   7.894   4.342 -0.1306 -0.1812 -0.2094
  284POPC   C2B 3719  10.665   7.594   4.604  0.1264  0.3416 -0.0634
  284POPC   C3B 3720  10.976   7.390   4.766 -0.0244 -0.0909 -0.1115
  284POPC   C4B 3721  11.200   7.468   5.062 -0.1235 -0.0087  0.1147
  285POPC   NC3 3722   6.136   7.364   3.100  0.1028  0.2239 -0.2258
  285POPC   PO4 3723   6.419   7.090   3.359 -0.0878  0.0890 -0.2987
  285POPC   GL1 3724   6.584   7.105   3.779  0.0463 -0.1902  0.0008
  285POPC   GL2 3725   6.785   6.936   3.953 -0.0786 -0.0074  0.0299
  285POPC   C1A 3726   6.389   7.171   4.177 -0.3291  0.0343 -0.0661
  285POPC   D2A 3727   6.331   7.406   4.615 -0.1403 -0.0222 -0.1753
  285POPC   C3A 3728   5.981   7.548   4.829  0.1816 -0.0245  0.1878
  285POPC   C4A 3729   5.632   7.738   4.972  0.0384 -0.2542 -0.1327
  285POPC   C1B 3730   6.843   6.860   4.354  0.1543  0.1868 -0.0075
  285POPC   C2B 3731   7.104   7.001   4.578  0.2639 -0.1223 -0.3394
  285POPC   C3B 3732   7.313   7.117   5.042  0.0584  0.1021 -0.3288
  285POPC   C4B 3733   7.364   7.385   5.472 -0.0104 -0.2602  0.0047
  286POPC   NC3 3734   0.439   7.970   3.216  0.0452  0.0117  0.0847
  286POPC   PO4 3735   0.612   7.770   3.538 -0.1787 -0.2113 -0.0840
  286POPC   GL1 3736   0.717   7.914   3.899  0.0445 -0.0389 -0.0975
  286POPC   GL2 3737   0.632   8.156   4.091 -0.2436 -0.0102  0.0791
  286POPC   C1A 3738   0.817   7.656   4.238  0.0450 -0.1974 -0.2242
  286POPC   D2A 3739   0.720   7.332   4.580  0.3029  0.0868  0.1820
  286POPC   C3A 3740   0.973   7.271   4.973  0.2959  0.0263  0.1532
  286POPC   C4A 3741   1.195   7.244   5.341  0.2272  0.2233  0.3008
  286POPC   C1B 3742   0.853   8.095   4.472  0.2671 -0.0480 -0.0310
  286POPC   C2B 3743   0.748   7.825   4.771 -0.1237 -0.2216  0.1850
  286POPC   C3B 3744   0.659   7.923   5.192  0.0773 -0.0808 -0.0385
  286POPC   C4B 3745   0.434   8.185   5.426  0.0442  0.0880  0.0218
  287POPC   NC3 3746   9.825   5.585   2.589 -0.2464  0.2038 -0.1949
  287POPC   PO4 3747   9.956   5.465   2.962 -0.0009  0.3933  0.1516
  287POPC   GL1 3748   9.720   5.379   3.324  0.1744  0.2054 -0.0999
  287POPC   GL2 3749   9.792   5.133   3.582 -0.0986 -0.0165 -0.3331
  287POPC   C1A 3750   9.477   5.501   3.773 -0.0693  0.1774 -0.0978
  287POPC   D2A 3751   9.613   5.840   4.040 -0.1353 -0.0057  0.1896
  287POPC   C3A 3752   9.343   5.908   4.442  0.0034 -0.3611 -0.0475
  287POPC   C4A 3753   9.249   6.212   4.604 -0.4452  0.1035  0.0562
  287POPC   C1B 3754  10.058   4.941   3.963  0.6120 -0.3869 -0.2233
  287POPC   C2B 3755  10.138   4.615   4.317 -0.1750 -0.0154 -0.0577
  287POPC   C3B 3756   9.963   4.782   4.822 -0.0332  0.0821  0.0480
  287POPC   C4B 3757   9.663   4.586   5.005  0.0124 -0.3252  0.4110
  288POPC   NC3 3758   2.709   8.725   3.010  0.0112 -0.0437  0.1849
  288POPC   PO4 3759   2.568   8.319   3.222  0.0771 -0.1730  0.2506
  288POPC   GL1 3760   2.925   8.497   3.475 -0.1714 -0.1455  0.0715
  288POPC   GL2 3761   3.020   8.333   3.731  0.1269 -0.0706 -0.0509
  288POPC   C1A 3762   2.886   8.799   3.852 -0.0446  0.0572 -0.1814
  288POPC   D2A 3763   2.831   8.878   4.273  0.1062  0.1541 -0.0995
  288POPC   C3A 3764   3.188   8.709   4.449  0.1279 -0.2910  0.1157
  288POPC   C4A 3765   3.359   8.458   4.780  0.0169 -0.0892 -0.0306
  288POPC   C1B 3766   3.338   8.467   4.066  0.2607 -0.1581 -0.0307
  288POPC   C2B 3767   3.466   8.178   4.388  0.1100  0.2576 -0.0472
  288POPC   C3B 3768   3.383   7.955   4.734  0.2487 -0.0008  0.0102
  288POPC   C4B 3769   3.427   7.646   5.095  0.0836 -0.0490 -0.0463
  289POPC   NC3 3770   0.545   6.237   3.444 -0.1096  0.0283 -0.2659
  289POPC   PO4 3771   0.212   6.081   3.437 -0.2998 -0.1588  0.2218
  289POPC   GL1 3772   0.104   6.017   3.869 -0.0599  0.4486  0.2066
  289POPC   GL2 3773   0.109   5.688   3.742  0.1069  0.0264  0.0724
  289POPC   C1A 3774  -0.106   6.178   4.343 -0.2517  0.0244  0.1731
  289POPC   D2A 3775  -0.240   6.514   4.583  0.2020  0.0433  0.2353
  289POPC   C3A 3776  -0.177   6.502   5.044 -0.1494  0.3534  0.1687
  289POPC   C4A 3777  -0.302   6.416   5.404  0.2293 -0.2896  0.1034
  289POPC   C1B 3778   0.255   5.665   4.198  0.0151 -0.3097 -0.2263
  289POPC   C2B 3779   0.303   5.897   4.632  0.2814  0.2117 -0.0186
  289POPC   C3B 3780   0.216   5.839   5.023  0.1441  0.0398  0.0045
  289POPC   C4B 3781   0.226   6.025   5.496 -0.1538 -0.0088  0.0034
  290POPC   NC3 3782   1.838   6.243   3.462  0.1149 -0.3122  0.0998
  290POPC   PO4 3783   2.024   6.584   3.539  0.1513 -0.0822 -0.0505
  290POPC   GL1 3784   1.963   6.639   3.931  0.0678  0.0726  0.0928
  290POPC   GL2 3785   1.865   6.985   4.076  0.0199  0.1408  0.2447
  290POPC   C1A 3786   1.630   6.555   4.240  0.0113 -0.0059  0.0375
  290POPC   D2A 3787   1.488   6.525   4.637  0.1571  0.0470 -0.0449
  290POPC   C3A 3788   1.425   6.823   5.039  0.0265 -0.1730  0.2649
  290POPC   C4A 3789   1.587   6.902   5.431  0.2464 -0.3603 -0.5581
  290POPC   C1B 3790   1.468   7.003   4.433 -0.0608  0.3623 -0.1318
  290POPC   C2B 3791   1.073   6.867   4.655  0.0104  0.0613 -0.1261
  290POPC   C3B 3792   0.996   6.505   4.819  0.1460 -0.1821  0.1670
  290POPC   C4B 3793   0.757   6.258   5.004  0.0951  0.0379  0.0358
  291POPC   NC3 3794   0.481   6.816   2.875  0.1866  0.2072  0.0762
  291POPC   PO4 3795   0.223   6.407   2.971 -0.2794 -0.1331 -0.1012
  291POPC   GL1 3796   0.177   6.619   3.380 -0.0297 -0.0940  0.2829
  291POPC   GL2 3797   0.207   6.513   3.678 -0.1536  0.2588 -0.1537
  291POPC   C1A 3798   0.418   7.051   3.671  0.0693 -0.0235 -0.4077
  291POPC   D2A 3799   0.512   7.421   3.887  0.2530  0.2422 -0.2537
  291POPC   C3A 3800   0.158   7.541   4.121 -0.0869  0.0564  0.1407
  291POPC   C4A 3801  -0.215   7.701   3.893 -0.0458 -0.0801  0.3425
  291POPC   C1B 3802  -0.207   6.377   3.849 -0.2218  0.0635 -0.2575
  291POPC   C2B 3803  -0.554   6.364   4.223 -0.0291 -0.1200 -0.0532
  291POPC   C3B 3804  -0.621   6.182   4.593  0.1234 -0.1044 -0.0261
  291POPC   C4B 3805  -0.620   6.266   4.975  0.1998 -0.0354  0.0173
  292POPC   NC3 3806   9.088   6.845   3.407 -0.3297  0.0631  0.1804
  292POPC   PO4 3807   8.845   6.385   3.409 -0.0516  0.1247  0.0689
  292POPC   GL1 3808   8.909   6.124   3.723  0.1129  0.1782 -0.2751
  292POPC   GL2 3809   9.095   5.815   3.661  0.2466  0.2168 -0.1248
  292POPC   C1A 3810   8.963   6.001   4.181  0.2430  0.3660 -0.1589
  292POPC   D2A 3811   8.814   6.007   4.666  0.1574 -0.2231 -0.0981
  292POPC   C3A 3812   9.153   5.964   4.993  0.1537 -0.4843 -0.0795
  292POPC   C4A 3813   9.377   5.905   5.400 -0.0094  0.1979  0.3966
  292POPC   C1B 3814   9.431   6.113   3.665  0.0166  0.0371  0.0110
  292POPC   C2B 3815   9.738   6.305   3.889  0.2340  0.0477  0.0329
  292POPC   C3B 3816   9.858   6.631   3.970  0.4182 -0.0861  0.7521
  292POPC   C4B 3817   9.844   7.115   4.134  0.0448  0.0272  0.1175
  293POPC   NC3 3818   4.953   0.012   2.901  0.0614  0.1868  0.0459
  293POPC   PO4 3819   5.235   0.081   3.231 -0.3791 -0.0186 -0.2157
  293POPC   GL1 3820   5.405   0.060   3.662  0.0535  0.2669  0.0475
  293POPC   GL2 3821   5.300   0.278   3.940  0.3507 -0.3074 -0.1560
  293POPC   C1A 3822   5.666  -0.047   3.928  0.0957 -0.0191 -0.1907
  293POPC   D2A 3823   5.755  -0.092   4.468 -0.0588  0.0188  0.0962
  293POPC   C3A 3824   5.319  -0.107   4.852 -0.1608  0.0904  0.3004
  293POPC   C4A 3825   4.817  -0.194   4.754  0.0394 -0.0354  0.1596
  293POPC   C1B 3826   5.162  -0.090   4.232 -0.0604 -0.5256  0.2179
  293POPC   C2B 3827   5.473  -0.485   4.208  0.0971 -0.0485  0.0911
  293POPC   C3B 3828   5.908  -0.576   4.313 -0.0368  0.2967 -0.1780
  293POPC   C4B 3829   6.044  -0.720   4.740  0.1835  0.1530 -0.2168
  294POPC   NC3 3830   5.277   0.873   2.918 -0.0674  0.0971  0.3979
  294POPC   PO4 3831   5.364   0.962   3.353 -0.1677  0.1660  0.0504
  294POPC   GL1 3832   5.171   0.754   3.781 -0.0260  0.1307 -0.2014
  294POPC   GL2 3833   4.984   1.066   4.004  0.4117  0.2280  0.2735
  294POPC   C1A 3834   5.327   0.734   4.175 -0.0290 -0.3527  0.0273
  294POPC   D2A 3835   5.470   0.416   4.500  0.0303 -0.2342  0.0019
  294POPC   C3A 3836   5.500   0.331   4.856 -0.2346  0.3353  0.2564
  294POPC   C4A 3837   5.791   0.376   5.217  0.1475 -0.1966 -0.2821
  294POPC   C1B 3838   4.877   0.922   4.399  0.1542  0.1062 -0.0234
  294POPC   C2B 3839   4.869   0.736   4.674 -0.1243 -0.0143 -0.0548
  294POPC   C3B 3840   4.698   0.564   5.032  0.2690  0.1769  0.0206
  294POPC   C4B 3841   4.645   0.836   5.459 -0.1371  0.0578  0.1192
  295POPC   NC3 3842   9.333   9.172   3.532  0.0267 -0.1828 -0.2001
  295POPC   PO4 3843   8.962   9.469   3.615  0.0194 -0.3556 -0.2634
  295POPC   GL1 3844   9.145   9.550   3.965  0.0962 -0.0808 -0.3042
  295POPC   GL2 3845   9.379   9.715   3.760  0.2239  0.0438  0.2101
  295POPC   C1A 3846   9.035   9.752   4.338 -0.2149 -0.0549 -0.1604
  295POPC   D2A 3847   9.027   9.737   4.766 -0.1587  0.0488 -0.0315
  295POPC   C3A 3848   9.008  10.032   5.118  0.1458  0.1440  0.1866
  295POPC   C4A 3849   8.697  10.421   5.269  0.1555  0.0284  0.2119
  295POPC   C1B 3850   9.220  10.099   4.112 -0.1057 -0.0463 -0.0007
  295POPC   C2B 3851   8.892  10.332   4.365 -0.1010 -0.1634 -0.0604
  295POPC   C3B 3852   8.722  10.105   4.563  0.0117 -0.1590  0.0683
  295POPC   C4B 3853   8.544  10.041   4.951  0.1895  0.2389 -0.3424
  296POPC   NC3 3854   2.535   9.587   2.954  0.1215 -0.0622 -0.0621
  296POPC   PO4 3855   2.415   9.265   3.283  0.0674 -0.0809 -0.1584
  296POPC   GL1 3856   2.387   9.238   3.639  0.0572  0.1834  0.0074
  296POPC   GL2 3857   2.281   9.421   3.890  0.1491 -0.1599  0.1660
  296POPC   C1A 3858   2.395   8.898   4.007  0.0272  0.3462  0.1457
  296POPC   D2A 3859   2.356   8.854   4.388 -0.0197 -0.1082  0.0275
  296POPC   C3A 3860   2.439   8.439   4.488 -0.1869  0.0898 -0.1618
  296POPC   C4A 3861   2.372   8.052   4.650  0.1866  0.1357 -0.1183
  296POPC   C1B 3862   2.304   9.468   4.392 -0.0709  0.1962 -0.0784
  296POPC   C2B 3863   2.330   9.205   4.761 -0.0101 -0.2845  0.0471
  296POPC   C3B 3864   2.539   9.058   5.155 -0.2233 -0.1201  0.0035
  296POPC   C4B 3865   2.875   8.925   5.341  0.1981 -0.2687 -0.4325
  297POPC   NC3 3866   7.184   5.340   3.418 -0.1346 -0.1803  0.1879
  297POPC   PO4 3867   6.862   4.994   3.627 -0.3556  0.3944 -0.0939
  297POPC   GL1 3868   6.582   4.772   3.876  0.1945  0.1647 -0.1512
  297POPC   GL2 3869   6.294   4.916   3.939  0.0687  0.2971 -0.2949
  297POPC   C1A 3870   6.756   4.899   4.397 -0.2416  0.0980  0.3856
  297POPC   D2A 3871   7.095   4.808   4.634  0.0120  0.1852  0.2338
  297POPC   C3A 3872   7.042   4.595   4.950  0.2482 -0.1565  0.0324
  297POPC   C4A 3873   7.074   4.673   5.439  0.0049  0.2458 -0.1952
  297POPC   C1B 3874   6.270   4.969   4.469  0.1110 -0.0865  0.1236
  297POPC   C2B 3875   6.018   4.946   4.822 -0.1495  0.0570  0.1974
  297POPC   C3B 3876   5.612   4.976   4.921  0.0094  0.3384 -0.1539
  297POPC   C4B 3877   5.320   5.177   5.110  0.2415 -0.2047  0.2524
  298POPC   NC3 3878   7.210   3.169   3.349  0.0824  0.1070 -0.1640
  298POPC   PO4 3879   6.830   3.027   3.413 -0.2115  0.1015 -0.1742
  298POPC   GL1 3880   6.962   2.992   3.841 -0.0052 -0.1114  0.0157
  298POPC   GL2 3881   6.634   3.124   3.981 -0.1595 -0.0063 -0.3547
  298POPC   C1A 3882   6.955   2.811   4.126 -0.0365 -0.2406  0.2702
  298POPC   D2A 3883   7.331   2.860   4.502  0.0196 -0.0835 -0.1195
  298POPC   C3A 3884   7.772   2.967   4.842 -0.0766  0.0772 -0.0531
  298POPC   C4A 3885   8.131   3.009   5.100 -0.0583  0.3307  0.3426
  298POPC   C1B 3886   6.741   3.144   4.472  0.2030  0.0694  0.2422
  298POPC   C2B 3887   6.814   3.230   4.877 -0.5145 -0.0407 -0.0415
  298POPC   C3B 3888   7.058   3.114   5.218  0.0779 -0.1439 -0.0107
  298POPC   C4B 3889   7.392   2.935   5.476 -0.1121  0.3129 -0.3445
  299POPC   NC3 3890   6.787   7.979   3.103  0.0914 -0.0747  0.4162
  299POPC   PO4 3891   6.300   7.933   3.100 -0.3117  0.0785  0.0406
  299POPC   GL1 3892   6.163   7.824   3.532  0.0321  0.0796 -0.0950
  299POPC   GL2 3893   6.249   7.465   3.709  0.2473 -0.2148  0.1947
  299POPC   C1A 3894   5.869   7.917   3.908 -0.0746  0.2243  0.1767
  299POPC   D2A 3895   5.801   8.195   4.174  0.0597 -0.1542  0.0934
  299POPC   C3A 3896   5.418   8.304   4.412  0.2811  0.1816  0.1549
  299POPC   C4A 3897   5.167   8.255   4.794 -0.2197  0.1480 -0.0637
  299POPC   C1B 3898   5.952   7.184   4.009 -0.0720 -0.1921  0.1058
  299POPC   C2B 3899   5.904   7.120   4.458  0.0106  0.1296 -0.0220
  299POPC   C3B 3900   5.659   7.150   4.778  0.1963  0.2268 -0.0458
  299POPC   C4B 3901   5.517   6.876   5.097  0.0148 -0.2216 -0.2482
  300POPC   NC3 3902   8.891   2.679   3.386  0.1918 -0.1238 -0.0606
  300POPC   PO4 3903   9.147   3.133   3.301  0.1279 -0.1096  0.1315
  300POPC   GL1 3904   9.077   3.336   3.704  0.2172 -0.0889 -0.2115
  300POPC   GL2 3905   8.867   3.148   3.915  0.0862 -0.0976 -0.0079
  300POPC   C1A 3906   8.709   3.556   4.019  0.1461 -0.1234 -0.1024
  300POPC   D2A 3907   8.789   3.663   4.460  0.2192  0.0348 -0.2639
  300POPC   C3A 3908   8.942   3.803   4.882 -0.1410 -0.1904  0.0474
  300POPC   C4A 3909   8.779   4.124   5.164  0.2829  0.0651 -0.0990
  300POPC   C1B 3910   9.126   3.166   4.312 -0.2616 -0.1961 -0.0123
  300POPC   C2B 3911   9.257   3.303   4.670  0.0411  0.0529 -0.0099
  300POPC   C3B 3912   9.328   3.596   5.053  0.1007  0.3267  0.3951
  300POPC   C4B 3913   9.317   3.999   5.220  0.2175  0.3845  0.0038
  301POPC   NC3 3914   1.279   2.198   2.437  0.0974  0.0963 -0.4045
  301POPC   PO4 3915   1.454   2.171   2.974 -0.0202 -0.0400  0.1719
  301POPC   GL1 3916   1.535   2.427   3.435 -0.3317  0.1095 -0.2143
  301POPC   GL2 3917   1.246   2.776   3.460  0.0088  0.1498 -0.1045
  301POPC   C1A 3918   1.651   2.249   3.825  0.0546 -0.0954 -0.1060
  301POPC   D2A 3919   1.812   2.364   4.212  0.0953 -0.2001 -0.1927
  301POPC   C3A 3920   2.031   2.579   4.533 -0.1812 -0.0368  0.1322
  301POPC   C4A 3921   2.326   3.015   4.485  0.0900 -0.1158 -0.0306
  301POPC   C1B 3922   1.563   2.755   3.772  0.0073 -0.4027  0.1487
  301POPC   C2B 3923   1.791   2.855   4.122 -0.2533  0.1209 -0.0650
  301POPC   C3B 3924   1.841   3.048   4.474 -0.3209 -0.4311  0.1468
  301POPC   C4B 3925   1.950   3.048   4.864 -0.2504  0.2733  0.1347
  302POPC   NC3 3926   7.905   2.982   3.396  0.0607  0.2133 -0.2901
  302POPC   PO4 3927   7.531   2.798   3.261  0.0547  0.2239  0.1074
  302POPC   GL1 3928   7.445   2.842   3.660  0.0903  0.2313  0.0849
  302POPC   GL2 3929   7.707   2.603   3.817 -0.2776  0.0285 -0.0767
  302POPC   C1A 3930   7.494   2.969   4.018 -0.2002  0.1277 -0.1424
  302POPC   D2A 3931   7.802   2.713   4.372 -0.0458  0.1964 -0.3326
  302POPC   C3A 3932   7.581   2.477   4.659 -0.2321 -0.0821  0.0405
  302POPC   C4A 3933   7.487   2.054   4.905  0.0886  0.0129  0.0184
  302POPC   C1B 3934   7.657   2.188   4.020  0.1772 -0.2628 -0.1867
  302POPC   C2B 3935   7.411   1.852   4.373  0.1248 -0.1882  0.1429
  302POPC   C3B 3936   7.088   1.713   4.625  0.0155  0.2719  0.1004
  302POPC   C4B 3937   6.761   1.412   4.482 -0.1246  0.2046 -0.0113
  303POPC   NC3 3938   2.720   2.450   3.303  0.0768  0.0593  0.0387
  303POPC   PO4 3939   2.347   2.675   3.178 -0.3397  0.1098 -0.1625
  303POPC   GL1 3940   2.334   2.595   3.577  0.1005  0.0354 -0.3993
  303POPC   GL2 3941   2.052   2.869   3.657  0.3236 -0.2459  0.1074
  303POPC   C1A 3942   2.127   2.233   3.824 -0.4608 -0.3734  0.0463
  303POPC   D2A 3943   1.984   1.915   4.011 -0.2330 -0.2858 -0.2331
  303POPC   C3A 3944   1.960   1.872   4.515  0.1593  0.1093 -0.1042
  303POPC   C4A 3945   2.108   2.129   4.741 -0.2924 -0.0577 -0.1033
  303POPC   C1B 3946   2.304   2.744   4.040  0.3009 -0.0283  0.0175
  303POPC   C2B 3947   2.386   2.318   4.314 -0.1485 -0.1809 -0.1760
  303POPC   C3B 3948   2.688   2.089   4.700  0.0079 -0.2309  0.1838
  303POPC   C4B 3949   3.079   1.857   4.799  0.0391 -0.0261  0.0040
  304POPC   NC3 3950   9.302   3.958   2.629  0.0089 -0.0544  0.2365
  304POPC   PO4 3951   9.185   4.371   2.830 -0.1643 -0.1011  0.0480
  304POPC   GL1 3952   9.148   4.267   3.247 -0.0105  0.6291  0.0176
  304POPC   GL2 3953   9.295   3.996   3.325 -0.0549  0.0379 -0.2818
  304POPC   C1A 3954   9.132   4.320   3.730  0.1284 -0.2339 -0.0886
  304POPC   D2A 3955   9.020   4.630   4.012  0.2544 -0.2314 -0.0656
  304POPC   C3A 3956   9.246   4.493   4.290 -0.0329 -0.0939  0.1859
  304POPC   C4A 3957   9.527   4.625   4.521  0.1412 -0.2898  0.1122
  304POPC   C1B 3958   9.073   3.890   3.644  0.4224 -0.0443  0.0420
  304POPC   C2B 3959   9.045   3.995   4.131 -0.1669 -0.0571  0.3943
  304POPC   C3B 3960   9.014   4.177   4.609  0.1817  0.0001 -0.2269
  304POPC   C4B 3961   9.071   4.524   4.759  0.3662  0.0915  0.0605
  305POPC   NC3 3962   2.557   6.710   3.132 -0.2252 -0.1478  0.2587
  305POPC   PO4 3963   2.940   6.999   3.172  0.0626  0.1103  0.0214
  305POPC   GL1 3964   3.013   7.142   3.587  0.0859  0.1846  0.1162
  305POPC   GL2 3965   2.736   7.079   3.609  0.4178 -0.2950 -0.0260
  305POPC   C1A 3966   3.083   7.063   3.989 -0.3410 -0.3500 -0.0434
  305POPC   D2A 3967   3.267   6.937   4.351 -0.0457 -0.2036 -0.0214
  305POPC   C3A 3968   3.262   6.641   4.668  0.3260 -0.1268 -0.0692
  305POPC   C4A 3969   3.093   6.445   4.983  0.0526  0.1582 -0.4396
  305POPC   C1B 3970   2.714   7.423   3.917 -0.2685  0.3137 -0.2003
  305POPC   C2B 3971   2.604   7.541   4.273  0.0691 -0.3229 -0.2738
  305POPC   C3B 3972   2.743   7.780   4.652 -0.1120 -0.2050 -0.0384
  305POPC   C4B 3973   2.955   7.687   4.891 -0.2546 -0.0603  0.0447
  306POPC   NC3 3974   6.124   3.369   2.576  0.0564  0.0242  0.2551
  306POPC   PO4 3975   5.932   3.336   2.958  0.0930  0.2491 -0.3459
  306POPC   GL1 3976   5.856   3.228   3.371 -0.1814 -0.1823  0.1580
  306POPC   GL2 3977   5.684   3.412   3.616 -0.3371  0.0238 -0.1048
  306POPC   C1A 3978   6.096   3.078   3.830 -0.2178  0.0661 -0.1520
  306POPC   D2A 3979   6.024   3.108   4.394 -0.1508  0.0432 -0.1123
  306POPC   C3A 3980   6.305   3.073   4.710 -0.0198 -0.4664  0.0872
  306POPC   C4A 3981   6.574   2.892   5.102  0.0106  0.1255 -0.1174
  306POPC   C1B 3982   5.331   3.491   3.970 -0.2120 -0.0480  0.2009
  306POPC   C2B 3983   5.039   3.555   4.290 -0.2778 -0.0664 -0.2398
  306POPC   C3B 3984   5.017   3.540   4.739  0.0147 -0.1644  0.0430
  306POPC   C4B 3985   5.320   3.707   4.973 -0.1960  0.1566 -0.3067
  307POPC   NC3 3986   2.480   7.211   3.231 -0.4176 -0.0443  0.3288
  307POPC   PO4 3987   2.046   6.950   3.194 -0.0481  0.0878 -0.3697
  307POPC   GL1 3988   2.212   7.065   3.683  0.1028 -0.2076  0.0808
  307POPC   GL2 3989   2.160   7.381   3.773 -0.1650 -0.1367  0.0833
  307POPC   C1A 3990   2.415   7.057   4.034  0.2262 -0.0195  0.0023
  307POPC   D2A 3991   2.252   7.027   4.462  0.0418  0.2195  0.1058
  307POPC   C3A 3992   2.457   7.302   4.739 -0.2703 -0.2958  0.1072
  307POPC   C4A 3993   2.523   7.517   5.053  0.1792  0.3197  0.2626
  307POPC   C1B 3994   2.112   7.449   4.254 -0.2824 -0.2245 -0.4221
  307POPC   C2B 3995   2.068   7.601   4.710  0.2164  0.1803  0.0594
  307POPC   C3B 3996   2.069   7.868   5.082  0.1467 -0.0550 -0.2017
  307POPC   C4B 3997   2.081   8.288   5.303  0.1599  0.0000 -0.1874
  308POPC   NC3 3998   2.308   3.164   2.906 -0.1385  0.2022  0.3518
  308POPC   PO4 3999   2.611   3.075   2.986 -0.0926  0.1607 -0.0864
  308POPC   GL1 4000   2.689   2.955   3.390 -0.1220 -0.1567  0.0020
  308POPC   GL2 4001   2.492   3.175   3.474 -0.0220 -0.0934  0.0636
  308POPC   C1A 4002   2.774   2.998   3.818 -0.0017  0.0531 -0.1295
  308POPC   D2A 4003   2.756   3.200   4.202  0.2756  0.0164 -0.2923
  308POPC   C3A 4004   3.121   3.207   4.513  0.2146  0.2069 -0.2004
  308POPC   C4A 4005   3.555   3.236   4.442 -0.1127  0.1101 -0.0425
  308POPC   C1B 4006   2.291   3.215   3.913 -0.1515 -0.3467 -0.1190
  308POPC   C2B 4007   2.205   3.489   4.314  0.0829  0.3709 -0.0753
  308POPC   C3B 4008   2.133   3.519   4.714 -0.0192 -0.0316 -0.0755
  308POPC   C4B 4009   2.456   3.549   5.043 -0.2897 -0.3822 -0.2179
  309POPC   NC3 4010   1.105   5.131   3.089  0.1077  0.2924 -0.3655
  309POPC   PO4 4011   1.352   4.730   3.248  0.1220 -0.0482  0.1748
  309POPC   GL1 4012   1.451   4.571   3.701  0.2996 -0.1071 -0.4036
  309POPC   GL2 4013   1.664   4.362   3.934 -0.2961  0.1085  0.2874
  309POPC   C1A 4014   1.307   4.707   4.098  0.1175  0.2952  0.1901
  309POPC   D2A 4015   1.344   4.865   4.515  0.0522 -0.1543 -0.2354
  309POPC   C3A 4016   1.316   4.743   4.869 -0.0328  0.0674  0.0109
  309POPC   C4A 4017   1.424   4.719   5.248 -0.0006  0.1407 -0.1594
  309POPC   C1B 4018   2.013   3.985   4.063  0.0006 -0.0647  0.1004
  309POPC   C2B 4019   1.930   3.886   4.515  0.1156 -0.0345  0.2867
  309POPC   C3B 4020   2.061   3.959   4.978  0.0193  0.0932  0.2677
  309POPC   C4B 4021   2.135   4.055   5.397 -0.0451  0.1311 -0.0049
  310POPC   NC3 4022   8.553   6.785   3.202 -0.0020 -0.0427  0.1523
  310POPC   PO4 4023   8.698   7.200   3.409 -0.3567 -0.1080 -0.0553
  310POPC   GL1 4024   8.698   7.147   3.793 -0.1537  0.0839  0.0316
  310POPC   GL2 4025   8.897   7.099   3.916 -0.0422  0.0046  0.1577
  310POPC   C1A 4026   8.379   6.938   3.994  0.0076 -0.1881  0.1318
  310POPC   D2A 4027   8.287   6.568   4.213 -0.0158 -0.0322 -0.2075
  310POPC   C3A 4028   8.048   6.566   4.505  0.0942 -0.1597 -0.1496
  310POPC   C4A 4029   7.855   6.373   4.861 -0.2454 -0.0246  0.4642
  310POPC   C1B 4030   8.979   7.096   4.378 -0.0521  0.1455  0.0829
  310POPC   C2B 4031   8.829   6.985   4.722 -0.1917 -0.1346 -0.1280
  310POPC   C3B 4032   8.801   6.955   5.061  0.0080 -0.0504 -0.0410
  310POPC   C4B 4033   8.588   7.065   5.469  0.1536  0.1769 -0.4638
  311POPC   NC3 4034   6.899   2.547   3.445 -0.1218 -0.0490 -0.1689
  311POPC   PO4 4035   6.443   2.440   3.386  0.1568  0.0764 -0.3287
  311POPC   GL1 4036   6.512   2.728   3.783 -0.0077  0.1189  0.1657
  311POPC   GL2 4037   6.650   2.472   3.888 -0.2825  0.2826  0.1154
  311POPC   C1A 4038   6.518   2.749   4.304  0.2551 -0.1782 -0.0276
  311POPC   D2A 4039   6.620   2.511   4.709 -0.2190 -0.0629 -0.1456
  311POPC   C3A 4040   6.967   2.694   4.838  0.2152 -0.0099  0.0809
  311POPC   C4A 4041   7.344   2.694   5.024 -0.0983 -0.2797  0.2545
  311POPC   C1B 4042   6.834   2.173   4.201  0.0923 -0.0842 -0.1688
  311POPC   C2B 4043   6.607   1.910   4.498  0.2099 -0.0939 -0.0759
  311POPC   C3B 4044   6.156   1.911   4.531 -0.1020 -0.2443  0.2257
  311POPC   C4B 4045   5.794   2.153   4.340  0.0415 -0.0040  0.2991
  312POPC   NC3 4046   3.512  10.698   3.811  0.0317  0.0424  0.1889
  312POPC   PO4 4047   3.363  10.360   3.629 -0.2215  0.0321  0.2460
  312POPC   GL1 4048   3.323  10.219   4.048  0.0318 -0.0807 -0.0463
  312POPC   GL2 4049   2.988  10.249   4.161  0.3577 -0.0865  0.1748
  312POPC   C1A 4050   3.321  10.458   4.433 -0.2660 -0.2138 -0.1800
  312POPC   D2A 4051   3.162  10.647   4.798 -0.3625  0.1776 -0.2082
  312POPC   C3A 4052   3.131  10.778   5.276 -0.0512  0.0978  0.0157
  312POPC   C4A 4053   3.366  11.048   5.467 -0.1992 -0.2113 -0.0066
  312POPC   C1B 4054   2.858  10.339   4.561  0.2290 -0.1118  0.4597
  312POPC   C2B 4055   2.835  10.381   5.130 -0.0626  0.3635  0.1251
  312POPC   C3B 4056   3.232  10.264   5.281 -0.2718  0.1686 -0.0802
  312POPC   C4B 4057   3.401   9.861   5.206 -0.3804 -0.1850 -0.0835
  313POPC   NC3 4058   3.781   9.450   3.328  0.2780 -0.2150  0.0252
  313POPC   PO4 4059   3.432   9.419   3.380  0.0869 -0.1825  0.2416
  313POPC   GL1 4060   3.733   9.399   3.870 -0.0627 -0.2982 -0.2298
  313POPC   GL2 4061   3.955   9.059   3.762  0.2949  0.1966  0.0284
  313POPC   C1A 4062   3.706   9.486   4.303  0.0233 -0.0863 -0.1312
  313POPC   D2A 4063   3.504   9.843   4.381  0.2517  0.0464 -0.0664
  313POPC   C3A 4064   3.090   9.781   4.317  0.1578 -0.2023  0.0375
  313POPC   C4A 4065   2.641   9.870   4.449 -0.1782  0.1677 -0.1455
  313POPC   C1B 4066   3.709   8.968   4.207 -0.4815 -0.1918 -0.1122
  313POPC   C2B 4067   3.620   8.874   4.655  0.0383 -0.0232  0.3457
  313POPC   C3B 4068   3.790   8.488   4.924 -0.1158  0.1371 -0.2764
  313POPC   C4B 4069   3.629   8.129   5.188  0.3284 -0.0910  0.2582
  314POPC   NC3 4070   3.054   5.489   3.234 -0.3364  0.1146  0.1251
  314POPC   PO4 4071   3.465   5.671   3.258  0.0924 -0.1822 -0.0371
  314POPC   GL1 4072   3.603   5.625   3.675 -0.2099 -0.4310  0.2883
  314POPC   GL2 4073   3.915   5.804   3.709 -0.1355  0.2241 -0.0774
  314POPC   C1A 4074   3.714   5.782   4.194  0.2109  0.2140  0.0083
  314POPC   D2A 4075   3.647   5.753   4.600 -0.3948 -0.0045 -0.0424
  314POPC   C3A 4076   3.649   6.120   4.843  0.0584  0.4475  0.1401
  314POPC   C4A 4077   3.555   6.536   5.092  0.0535  0.0073 -0.4260
  314POPC   C1B 4078   4.225   5.729   4.045 -0.2182  0.1097 -0.0552
  314POPC   C2B 4079   4.185   5.597   4.404 -0.0128 -0.1406 -0.0232
  314POPC   C3B 4080   4.099   5.345   4.654 -0.0216  0.0645 -0.0947
  314POPC   C4B 4081   4.225   5.225   4.985  0.0373  0.2147 -0.2611
  315POPC   NC3 4082   1.712   7.112   3.586 -0.2747 -0.0857  0.1199
  315POPC   PO4 4083   1.644   7.555   3.725 -0.2265  0.0424  0.1421
  315POPC   GL1 4084   1.720   7.718   4.017 -0.0652 -0.3096  0.0664
  315POPC   GL2 4085   1.639   8.121   4.071  0.1118  0.0641  0.0243
  315POPC   C1A 4086   1.676   7.477   4.406  0.1454  0.0165 -0.1982
  315POPC   D2A 4087   1.241   7.431   4.596 -0.1253  0.2007 -0.0561
  315POPC   C3A 4088   1.038   7.208   4.216 -0.1273 -0.0261 -0.0950
  315POPC   C4A 4089   1.048   6.715   4.191  0.2885 -0.0002 -0.0332
  315POPC   C1B 4090   1.357   7.894   4.439  0.1839 -0.1918 -0.0415
  315POPC   C2B 4091   1.180   8.049   4.849 -0.0577  0.2126  0.2012
  315POPC   C3B 4092   1.008   8.442   4.927  0.0950 -0.0973  0.2929
  315POPC   C4B 4093   0.790   8.762   4.801 -0.0187  0.0695  0.0907
  316POPC   NC3 4094   8.760   4.720   2.532  0.1141 -0.2477  0.0516
  316POPC   PO4 4095   9.122   4.934   2.645  0.0376  0.0027  0.0409
  316POPC   GL1 4096   9.102   5.140   3.180  0.0252 -0.0534 -0.1341
  316POPC   GL2 4097   8.849   5.452   3.307 -0.1393  0.0400 -0.2008
  316POPC   C1A 4098   9.310   5.002   3.642 -0.0411 -0.0433 -0.6474
  316POPC   D2A 4099   9.059   5.140   3.985  0.1068 -0.3524  0.2147
  316POPC   C3A 4100   8.778   5.445   4.034  0.2452 -0.2584  0.0572
  316POPC   C4A 4101   8.594   5.745   3.880 -0.0418  0.1847  0.0526
  316POPC   C1B 4102   8.574   5.166   3.661  0.2912 -0.4241  0.1370
  316POPC   C2B 4103   8.607   4.886   4.001 -0.4644  0.0362  0.1889
  316POPC   C3B 4104   8.768   4.872   4.344 -0.2270  0.0609 -0.2303
  316POPC   C4B 4105   9.192   4.976   4.434 -0.1384  0.1583 -0.1543
  317POPC   NC3 4106   3.509   6.129   3.029  0.2253  0.2524 -0.0480
  317POPC   PO4 4107   3.093   6.043   3.208 -0.2353  0.2173 -0.2385
  317POPC   GL1 4108   2.938   6.080   3.631 -0.0489 -0.0177  0.2532
  317POPC   GL2 4109   3.107   5.769   3.633 -0.2156  0.0330  0.3604
  317POPC   C1A 4110   2.944   6.225   4.040 -0.1311 -0.0225  0.1156
  317POPC   D2A 4111   2.865   6.239   4.439  0.1660 -0.1570 -0.0292
  317POPC   C3A 4112   2.662   6.577   4.697  0.1701  0.1837 -0.0596
  317POPC   C4A 4113   2.414   6.842   5.028  0.0959 -0.0368  0.0333
  317POPC   C1B 4114   3.337   5.949   3.975  0.2636  0.0315  0.1177
  317POPC   C2B 4115   3.443   6.214   4.375 -0.1341  0.1542 -0.1184
  317POPC   C3B 4116   3.731   6.481   4.539  0.1816 -0.2561 -0.2108
  317POPC   C4B 4117   3.714   6.887   4.709  0.1003  0.0337 -0.1697
  318POPC   NC3 4118   6.485   0.231   3.476 -0.2010 -0.0287 -0.0391
  318POPC   PO4 4119   6.790   0.695   3.426 -0.0677  0.0884  0.2314
  318POPC   GL1 4120   6.826   0.469   3.862 -0.0148  0.0880 -0.0296
  318POPC   GL2 4121   6.986   0.156   3.948  0.1311  0.2144 -0.0030
  318POPC   C1A 4122   6.643   0.277   4.270 -0.0699 -0.4067  0.2287
  318POPC   D2A 4123   6.644   0.310   4.732  0.0856 -0.2931 -0.3620
  318POPC   C3A 4124   6.675   0.055   5.149  0.0694  0.1094 -0.5129
  318POPC   C4A 4125   6.571  -0.097   5.602  0.2139  0.0935 -0.0681
  318POPC   C1B 4126   7.077  -0.062   4.357  0.2816 -0.1218  0.1446
  318POPC   C2B 4127   6.993  -0.075   4.809  0.1949 -0.0507 -0.0815
  318POPC   C3B 4128   7.076  -0.371   5.120 -0.0356 -0.0876 -0.1364
  318POPC   C4B 4129   7.089  -0.706   5.306  0.1328  0.1213 -0.1427
  319POPC   NC3 4130   4.241   0.494   3.071  0.1412 -0.1541 -0.1193
  319POPC   PO4 4131   4.569   0.712   3.343 -0.1532  0.1242 -0.0958
  319POPC   GL1 4132   4.539   0.576   3.756  0.0598 -0.2241 -0.0848
  319POPC   GL2 4133   4.756   0.397   3.785 -0.3078 -0.0523  0.0127
  319POPC   C1A 4134   4.402   0.551   4.193 -0.4402 -0.2928 -0.0702
  319POPC   D2A 4135   4.376   0.647   4.669 -0.2416 -0.0602  0.0982
  319POPC   C3A 4136   4.516   1.125   4.834  0.2841  0.2456 -0.0108
  319POPC   C4A 4137   4.941   1.229   4.812 -0.4241  0.1217  0.1013
  319POPC   C1B 4138   4.936   0.360   4.221 -0.2992 -0.3552  0.1332
  319POPC   C2B 4139   5.005   0.256   4.731  0.1850 -0.5502  0.0101
  319POPC   C3B 4140   4.999   0.158   5.148 -0.0754  0.0452 -0.1574
  319POPC   C4B 4141   4.794   0.344   5.493  0.1328 -0.1392  0.2548
  320POPC   NC3 4142   8.276   1.706   3.486 -0.3230 -0.2208  0.1513
  320POPC   PO4 4143   7.938   1.930   3.205  0.0155  0.0087  0.0679
  320POPC   GL1 4144   7.893   1.871   3.694  0.0068  0.1104  0.0751
  320POPC   GL2 4145   8.130   2.134   3.843 -0.2135  0.0936  0.2816
  320POPC   C1A 4146   7.905   1.606   4.061  0.1012  0.1447 -0.0191
  320POPC   D2A 4147   7.733   1.374   4.363  0.3612  0.2471  0.2790
  320POPC   C3A 4148   7.530   1.530   4.822  0.1654  0.1778 -0.0624
  320POPC   C4A 4149   7.239   1.702   5.104 -0.2266 -0.0759  0.1134
  320POPC   C1B 4150   8.325   1.937   4.133  0.0645  0.1204 -0.1390
  320POPC   C2B 4151   8.788   1.939   4.336 -0.3232 -0.2520  0.0331
  320POPC   C3B 4152   8.956   2.170   4.588 -0.1711 -0.0734 -0.1426
  320POPC   C4B 4153   9.168   2.173   4.985 -0.3691  0.1172 -0.0577
  321POPC   NC3 4154   4.111   9.125   3.195 -0.0865  0.1347 -0.0374
  321POPC   PO4 4155   4.486   9.022   3.500  0.0590 -0.3293  0.3154
  321POPC   GL1 4156   4.395   9.292   3.921  0.1512  0.0372  0.0055
  321POPC   GL2 4157   4.652   9.499   4.016  0.0844  0.1331  0.0394
  321POPC   C1A 4158   4.182   9.639   4.173 -0.0066 -0.2288  0.0203
  321POPC   D2A 4159   4.046   9.996   4.493  0.1494 -0.2287  0.1349
  321POPC   C3A 4160   4.031  10.046   4.888  0.0387 -0.0078 -0.2553
  321POPC   C4A 4161   3.841  10.245   5.356  0.0833  0.4174 -0.0846
  321POPC   C1B 4162   4.589   9.485   4.405 -0.1962  0.1488 -0.2959
  321POPC   C2B 4163   4.346   9.682   4.654 -0.3414 -0.2365  0.2082
  321POPC   C3B 4164   4.066   9.570   5.149 -0.3345  0.3261  0.5000
  321POPC   C4B 4165   3.676   9.405   5.221 -0.0943  0.0263 -0.2498
  322POPC   NC3 4166   4.065   1.388   2.993  0.1650 -0.3261  0.1999
  322POPC   PO4 4167   4.268   0.955   2.925  0.0210  0.0530  0.0754
  322POPC   GL1 4168   4.147   1.060   3.360  0.2516  0.2139 -0.4268
  322POPC   GL2 4169   4.076   0.759   3.521 -0.4850  0.1591 -0.1003
  322POPC   C1A 4170   4.367   1.213   3.703  0.0756  0.0076  0.1218
  322POPC   D2A 4171   4.504   1.063   4.050  0.2163 -0.0069 -0.0090
  322POPC   C3A 4172   4.588   1.368   4.362 -0.0516 -0.3754  0.1931
  322POPC   C4A 4173   4.368   1.739   4.447 -0.4332 -0.1563  0.1388
  322POPC   C1B 4174   3.967   0.791   3.914  0.3966  0.1297 -0.0665
  322POPC   C2B 4175   4.021   0.917   4.301 -0.4135 -0.0070 -0.0233
  322POPC   C3B 4176   4.092   1.257   4.609 -0.0708  0.1379 -0.0320
  322POPC   C4B 4177   4.028   1.500   4.980  0.3507  0.2151 -0.2414
  323POPC   NC3 4178   7.662   8.533   3.388  0.1013  0.0802 -0.1768
  323POPC   PO4 4179   7.769   8.116   3.266  0.2588 -0.2662 -0.0122
  323POPC   GL1 4180   7.560   8.154   3.721 -0.3015 -0.2308 -0.0481
  323POPC   GL2 4181   7.275   7.914   3.985  0.0821 -0.0278 -0.1965
  323POPC   C1A 4182   7.667   8.299   4.160 -0.1020 -0.1617  0.3216
  323POPC   D2A 4183   7.280   8.289   4.613 -0.1596 -0.3159  0.1185
  323POPC   C3A 4184   7.332   8.782   4.796 -0.1970  0.1299  0.1992
  323POPC   C4A 4185   7.477   9.104   5.182  0.0289  0.3772  0.1724
  323POPC   C1B 4186   7.209   7.811   4.423 -0.1583 -0.5603 -0.2442
  323POPC   C2B 4187   7.259   7.822   4.950  0.0718 -0.1167 -0.0806
  323POPC   C3B 4188   7.121   7.914   5.392 -0.2381 -0.1672 -0.3049
  323POPC   C4B 4189   7.125   7.632   5.807 -0.0314 -0.0010  0.1363
  324POPC   NC3 4190   4.352   2.710   2.698 -0.0390  0.3090 -0.0335
  324POPC   PO4 4191   4.201   2.438   2.980  0.3234 -0.1869 -0.2725
  324POPC   GL1 4192   4.148   2.443   3.410  0.2020  0.2407 -0.0382
  324POPC   GL2 4193   4.406   2.716   3.531 -0.1207  0.2712 -0.4102
  324POPC   C1A 4194   4.056   2.312   3.831  0.0109  0.1101  0.0350
  324POPC   D2A 4195   3.809   2.530   4.221  0.0993  0.2176 -0.2077
  324POPC   C3A 4196   3.910   2.758   4.592  0.2981  0.0561 -0.2384
  324POPC   C4A 4197   3.829   3.023   4.905  0.1680  0.2224 -0.2541
  324POPC   C1B 4198   4.669   2.740   3.870 -0.2293  0.1574 -0.1019
  324POPC   C2B 4199   4.839   2.527   4.150  0.0624  0.0139  0.1929
  324POPC   C3B 4200   5.137   2.360   4.448 -0.6882  0.0236  0.0880
  324POPC   C4B 4201   5.291   2.582   4.766 -0.0909  0.0045 -0.1808
  325POPC   NC3 4202   8.081   2.724   2.983  0.0929 -0.0769 -0.1603
  325POPC   PO4 4203   8.399   2.701   3.283 -0.0158  0.0603  0.4752
  325POPC   GL1 4204   8.311   2.825   3.703  0.0452 -0.0086 -0.3331
  325POPC   GL2 4205   8.553   2.733   3.888  0.0691  0.0233 -0.2581
  325POPC   C1A 4206   8.087   3.037   4.099 -0.1980 -0.0816  0.1165
  325POPC   D2A 4207   8.075   3.213   4.523  0.2514  0.1228 -0.1452
  325POPC   C3A 4208   8.424   3.294   4.792 -0.1140  0.1970 -0.4447
  325POPC   C4A 4209   8.819   3.285   4.945 -0.0439  0.0671 -0.3657
  325POPC   C1B 4210   8.233   2.563   4.133  0.0014  0.1843 -0.0257
  325POPC   C2B 4211   8.031   2.304   4.384  0.2518  0.0064  0.1813
  325POPC   C3B 4212   7.936   1.918   4.535 -0.1291 -0.3323  0.3030
  325POPC   C4B 4213   8.100   1.613   4.663  0.0650  0.3527  0.0110
  326POPC   NC3 4214  10.402   0.538   3.359  0.1113 -0.2471  0.1829
  326POPC   PO4 4215  10.590   0.237   3.543  0.1572  0.0364  0.2125
  326POPC   GL1 4216  10.435   0.511   3.869 -0.0603 -0.2252 -0.3025
  326POPC   GL2 4217  10.449   0.818   3.981  0.0312 -0.3201  0.0080
  326POPC   C1A 4218  10.279   0.389   4.279  0.2328  0.3005  0.0862
  326POPC   D2A 4219  10.273   0.319   4.655 -0.1169  0.0565  0.2658
  326POPC   C3A 4220  10.285   0.329   5.098 -0.1249  0.0470 -0.0444
  326POPC   C4A 4221  10.149   0.715   5.350 -0.2931 -0.0096  0.0789
  326POPC   C1B 4222  10.556   0.818   4.382  0.2175  0.0486 -0.4707
  326POPC   C2B 4223  10.914   0.977   4.686  0.1728 -0.0368  0.2190
  326POPC   C3B 4224  10.959   1.381   4.896 -0.2169  0.1853  0.1007
  326POPC   C4B 4225  11.353   1.565   5.074 -0.2013 -0.2510  0.0947
  327POPC   NC3 4226   0.681   1.968   3.261 -0.0874 -0.1253  0.0517
  327POPC   PO4 4227   0.436   2.309   3.068 -0.1920  0.2116 -0.2586
  327POPC   GL1 4228   0.393   2.190   3.636  0.3687 -0.0530  0.1401
  327POPC   GL2 4229   0.678   2.055   3.781 -0.2571  0.0714 -0.0562
  327POPC   C1A 4230   0.170   2.246   4.022  0.0140  0.1305 -0.0724
  327POPC   D2A 4231  -0.010   2.274   4.377  0.4529  0.1352 -0.2023
  327POPC   C3A 4232  -0.378   2.447   4.535  0.2150  0.1846  0.0366
  327POPC   C4A 4233  -0.487   2.252   4.892 -0.0495 -0.1680 -0.2019
  327POPC   C1B 4234   0.556   2.100   4.242 -0.1261 -0.1212 -0.1880
  327POPC   C2B 4235   0.465   2.341   4.595  0.0950  0.1024  0.1127
  327POPC   C3B 4236   0.545   2.323   5.068  0.0306 -0.0061  0.2824
  327POPC   C4B 4237   0.664   2.054   5.395  0.0214 -0.1859 -0.3289
  328POPC   NC3 4238   1.152   8.675   3.454 -0.1861 -0.0067  0.1210
  328POPC   PO4 4239   0.951   8.417   3.739 -0.2523 -0.1546 -0.2850
  328POPC   GL1 4240   0.962   8.634   4.062 -0.0031  0.0362 -0.4153
  328POPC   GL2 4241   1.027   8.906   3.989  0.2467  0.0871 -0.0998
  328POPC   C1A 4242   1.148   8.431   4.446 -0.0435  0.0356 -0.0122
  328POPC   D2A 4243   1.546   8.376   4.605  0.0606  0.0053  0.0827
  328POPC   C3A 4244   1.667   8.388   4.955 -0.3794 -0.1946 -0.1843
  328POPC   C4A 4245   1.921   8.859   5.162  0.0156 -0.1907 -0.1998
  328POPC   C1B 4246   1.061   9.017   4.430  0.1368 -0.3046  0.3022
  328POPC   C2B 4247   1.064   9.119   4.869  0.2014 -0.0739  0.1749
  328POPC   C3B 4248   0.978   8.858   5.263  0.1315  0.0301 -0.1616
  328POPC   C4B 4249   0.916   9.006   5.717 -0.2530  0.2054 -0.0688
  329POPC   NC3 4250   6.376   1.982   3.565  0.2604  0.3387  0.1053
  329POPC   PO4 4251   6.166   1.779   3.171 -0.1244 -0.2159  0.1149
  329POPC   GL1 4252   5.965   1.551   3.592  0.1762  0.1364  0.5193
  329POPC   GL2 4253   5.903   1.858   3.696 -0.3431 -0.1527 -0.1131
  329POPC   C1A 4254   6.012   1.571   4.128  0.2060 -0.1807  0.2893
  329POPC   D2A 4255   5.775   1.629   4.394  0.1003 -0.1689 -0.0404
  329POPC   C3A 4256   5.781   1.775   4.846 -0.3798  0.0361 -0.0232
  329POPC   C4A 4257   5.472   2.035   4.992  0.0129 -0.0301 -0.0646
  329POPC   C1B 4258   5.593   1.829   3.919 -0.0762  0.2570 -0.1823
  329POPC   C2B 4259   5.318   1.851   4.339 -0.2150  0.3449 -0.1297
  329POPC   C3B 4260   5.343   1.553   4.789 -0.1591 -0.1361  0.1270
  329POPC   C4B 4261   5.398   1.228   5.118 -0.1134  0.1407  0.1549
  330POPC   NC3 4262  10.251   4.196   3.198 -0.0876  0.0236  0.1262
  330POPC   PO4 4263   9.966   3.807   3.132 -0.3574  0.0779 -0.0473
  330POPC   GL1 4264   9.814   4.055   3.591 -0.1663 -0.0859  0.1834
  330POPC   GL2 4265   9.612   4.353   3.492  0.0477 -0.0364 -0.0597
  330POPC   C1A 4266   9.493   3.963   3.870 -0.0342 -0.1185 -0.2126
  330POPC   D2A 4267   9.375   3.704   4.311  0.0668  0.0081  0.2854
  330POPC   C3A 4268   9.816   3.662   4.593  0.2567 -0.1547  0.0505
  330POPC   C4A 4269  10.268   3.674   4.724 -0.0388 -0.2655  0.0462
  330POPC   C1B 4270   9.711   4.648   3.677  0.3170 -0.0422 -0.2264
  330POPC   C2B 4271   9.587   5.014   4.086  0.0568 -0.0297 -0.1623
  330POPC   C3B 4272   9.745   5.074   4.463 -0.1927 -0.1950  0.2804
  330POPC   C4B 4273   9.533   5.035   4.905 -0.0994 -0.0906  0.3606
  331POPC   NC3 4274   4.020   8.199   3.333 -0.4512 -0.0903  0.1331
  331POPC   PO4 4275   4.246   7.822   3.171 -0.0028 -0.1191 -0.1157
  331POPC   GL1 4276   4.247   7.777   3.671  0.0904  0.0441 -0.2780
  331POPC   GL2 4277   4.179   8.034   3.840  0.1027  0.1253 -0.2564
  331POPC   C1A 4278   4.247   7.670   4.179  0.0233 -0.0690  0.0299
  331POPC   D2A 4279   4.396   7.723   4.462 -0.2225 -0.1132 -0.2964
  331POPC   C3A 4280   4.258   7.532   4.938  0.0389  0.0983  0.3528
  331POPC   C4A 4281   4.402   7.185   5.241 -0.1105 -0.4226 -0.0584
  331POPC   C1B 4282   3.741   7.897   4.008 -0.0485 -0.2306 -0.0241
  331POPC   C2B 4283   3.605   7.647   4.277 -0.0672 -0.3699 -0.0851
  331POPC   C3B 4284   3.880   7.335   4.351  0.1807  0.1129 -0.1324
  331POPC   C4B 4285   3.763   6.935   4.240 -0.1349 -0.0370  0.3400
  332POPC   NC3 4286   8.855  10.444   3.068 -0.1640  0.2033 -0.1530
  332POPC   PO4 4287   8.545  10.531   3.286  0.1804  0.1056  0.3972
  332POPC   GL1 4288   8.781  10.478   3.594  0.1317  0.1900  0.0386
  332POPC   GL2 4289   9.000  10.389   3.793  0.1975 -0.1063  0.1173
  332POPC   C1A 4290   8.554  10.438   4.017 -0.0792  0.0132  0.1059
  332POPC   D2A 4291   8.422  10.481   4.426  0.0433  0.2189  0.0103
  332POPC   C3A 4292   8.542  10.841   4.630  0.0301  0.0035  0.2306
  332POPC   C4A 4293   8.499  11.238   4.594 -0.0167 -0.1919 -0.0322
  332POPC   C1B 4294   8.741   9.986   3.984  0.2066  0.0635 -0.0243
  332POPC   C2B 4295   8.572   9.648   4.079  0.3651 -0.3120 -0.1686
  332POPC   C3B 4296   8.237   9.417   4.278 -0.1490 -0.0610  0.4660
  332POPC   C4B 4297   8.120   9.416   4.704 -0.0483  0.0437  0.0121
  333POPC   NC3 4298   4.205   0.222   3.513  0.0316 -0.2472 -0.0432
  333POPC   PO4 4299   4.002  -0.126   3.681 -0.0108 -0.4718 -0.1043
  333POPC   GL1 4300   3.945   0.070   4.055  0.1240  0.2025 -0.5745
  333POPC   GL2 4301   3.650   0.111   4.259 -0.4574  0.1864  0.1317
  333POPC   C1A 4302   3.992   0.421   4.436  0.1769  0.0375  0.0961
  333POPC   D2A 4303   4.009   0.387   4.914  0.1313 -0.1833  0.0085
  333POPC   C3A 4304   3.658   0.624   5.178  0.0567  0.1706 -0.0997
  333POPC   C4A 4305   3.443   0.966   5.448 -0.0311  0.2174  0.1690
  333POPC   C1B 4306   3.750   0.022   4.635 -0.0383 -0.1467 -0.1048
  333POPC   C2B 4307   3.660  -0.404   4.803  0.1787  0.1049 -0.0417
  333POPC   C3B 4308   3.285  -0.705   4.727  0.0422  0.0733 -0.1317
  333POPC   C4B 4309   2.966  -0.850   4.896  0.2209 -0.0494 -0.0814
  334POPC   NC3 4310   4.549   8.191   2.898  0.0686  0.4035  0.3050
  334POPC   PO4 4311   4.368   8.515   3.172 -0.0135 -0.0982 -0.1713
  334POPC   GL1 4312   4.232   8.586   3.661 -0.0984  0.0302  0.0772
  334POPC   GL2 4313   4.581   8.398   3.839 -0.0195  0.1806 -0.1280
  334POPC   C1A 4314   4.182   8.772   4.078  0.0765  0.2281 -0.1033
  334POPC   D2A 4315   4.232   9.135   4.387 -0.0267  0.0839 -0.0893
  334POPC   C3A 4316   3.945   9.375   4.707  0.3965  0.2790 -0.0732
  334POPC   C4A 4317   3.651   9.736   4.819  0.0377  0.2551 -0.1074
  334POPC   C1B 4318   4.358   8.289   4.228  0.1015 -0.0983  0.0009
  334POPC   C2B 4319   4.047   8.056   4.400 -0.1597 -0.2783  0.1251
  334POPC   C3B 4320   3.842   7.773   4.708 -0.2258  0.4608 -0.0454
  334POPC   C4B 4321   3.753   7.390   4.829 -0.1045  0.3122  0.0934
  335POPC   NC3 4322   5.703   5.598   3.070  0.1712 -0.2128 -0.0108
  335POPC   PO4 4323   5.583   5.640   3.476 -0.0772 -0.2008 -0.2499
  335POPC   GL1 4324   5.636   5.841   3.927 -0.1378  0.2617  0.0149
  335POPC   GL2 4325   5.597   6.143   3.962 -0.2359  0.0432 -0.1409
  335POPC   C1A 4326   5.800   5.780   4.369 -0.0783  0.0853  0.1917
  335POPC   D2A 4327   6.002   5.568   4.567 -0.0264  0.0271 -0.0681
  335POPC   C3A 4328   5.828   5.178   4.410  0.4039  0.0041 -0.0371
  335POPC   C4A 4329   5.789   4.771   4.304  0.1390 -0.1063  0.1051
  335POPC   C1B 4330   5.702   6.295   4.380  0.1749  0.0105  0.0714
  335POPC   C2B 4331   6.017   6.210   4.647 -0.1206  0.3886  0.0730
  335POPC   C3B 4332   6.072   6.237   5.032  0.1062  0.1161  0.0584
  335POPC   C4B 4333   5.829   6.035   5.383 -0.1820  0.0136 -0.1640
  336POPC   NC3 4334   2.775   5.797   2.933  0.3066  0.0055  0.0864
  336POPC   PO4 4335   2.652   5.741   3.350 -0.0364  0.3325  0.0513
  336POPC   GL1 4336   2.536   5.581   3.715  0.0152  0.1564 -0.2006
  336POPC   GL2 4337   2.617   5.832   3.871 -0.2136  0.0074 -0.0504
  336POPC   C1A 4338   2.452   5.400   4.028  0.3090  0.1142  0.3294
  336POPC   D2A 4339   2.362   5.414   4.474 -0.1584 -0.0501 -0.0273
  336POPC   C3A 4340   2.061   5.219   4.733 -0.0427  0.0874 -0.0482
  336POPC   C4A 4341   1.826   4.872   4.616 -0.2000 -0.1437 -0.0906
  336POPC   C1B 4342   2.735   5.797   4.171  0.3659  0.1218 -0.0251
  336POPC   C2B 4343   2.750   5.708   4.686 -0.1687 -0.0337 -0.0806
  336POPC   C3B 4344   2.695   6.092   4.975 -0.0175  0.0128 -0.0188
  336POPC   C4B 4345   2.628   6.481   5.245 -0.0234 -0.1863  0.2462
  337POPC   NC3 4346   2.902  10.506   3.744 -0.3601 -0.2261  0.1262
  337POPC   PO4 4347   3.052  10.837   3.856 -0.0669  0.0746 -0.0248
  337POPC   GL1 4348   3.095  11.092   4.093  0.2462  0.0462  0.3368
  337POPC   GL2 4349   3.038  11.376   4.129  0.1250  0.3743 -0.0594
  337POPC   C1A 4350   3.227  11.053   4.481 -0.0527  0.4138 -0.1809
  337POPC   D2A 4351   3.361  11.082   4.927  0.2371 -0.1276  0.2261
  337POPC   C3A 4352   3.592  10.763   5.147  0.1759  0.0475  0.0283
  337POPC   C4A 4353   3.978  10.780   5.259 -0.1546 -0.1479  0.2543
  337POPC   C1B 4354   2.729  11.329   4.470  0.0818  0.0463  0.3035
  337POPC   C2B 4355   2.571  11.429   4.885 -0.0997 -0.1296 -0.2893
  337POPC   C3B 4356   2.500  11.223   5.225 -0.0848 -0.0011 -0.2073
  337POPC   C4B 4357   2.586  10.794   5.317 -0.2537 -0.2477  0.3879
  338POPC   NC3 4358   3.923   6.299   3.203  0.0012 -0.1974  0.0157
  338POPC   PO4 4359   4.340   6.516   3.054  0.1835 -0.0449 -0.4412
  338POPC   GL1 4360   4.423   6.837   3.313  0.0182  0.1173  0.0182
  338POPC   GL2 4361   4.471   6.652   3.590 -0.2229 -0.0024 -0.2092
  338POPC   C1A 4362   4.491   7.119   3.642 -0.4062 -0.0853 -0.2083
  338POPC   D2A 4363   4.566   7.338   4.000 -0.0605  0.0780 -0.1027
  338POPC   C3A 4364   4.314   7.157   4.387 -0.0618 -0.3282 -0.0556
  338POPC   C4A 4365   4.296   7.017   4.799 -0.1309  0.0279 -0.1751
  338POPC   C1B 4366   4.367   6.737   4.027 -0.0231  0.2642 -0.0981
  338POPC   C2B 4367   4.156   6.688   4.468 -0.0272  0.1324 -0.3203
  338POPC   C3B 4368   4.073   6.527   4.930  0.3841 -0.1460 -0.0356
  338POPC   C4B 4369   4.024   6.548   5.315 -0.0415 -0.2178 -0.1576
  339POPC   NC3 4370  10.545   1.528   3.490  0.3392  0.0148 -0.1974
  339POPC   PO4 4371  10.437   1.100   3.496 -0.2634  0.2552 -0.1605
  339POPC   GL1 4372  10.601   1.338   3.957 -0.1320  0.1686  0.2524
  339POPC   GL2 4373  10.481   1.463   4.125  0.1658 -0.1979  0.1473
  339POPC   C1A 4374  10.905   1.178   4.183  0.2297 -0.0921 -0.0664
  339POPC   D2A 4375  11.188   1.275   4.442  0.2139  0.0475 -0.0879
  339POPC   C3A 4376  11.331   1.641   4.505  0.1556  0.1600  0.0986
  339POPC   C4A 4377  11.517   1.919   4.800  0.4759 -0.0939 -0.0500
  339POPC   C1B 4378  10.623   1.395   4.532 -0.0852  0.1502 -0.0128
  339POPC   C2B 4379  10.411   1.300   4.831  0.1826 -0.0781  0.0444
  339POPC   C3B 4380  10.156   1.164   5.018 -0.0615  0.0039 -0.1287
  339POPC   C4B 4381   9.699   1.182   4.990 -0.0060 -0.1432 -0.0773
  340POPC   NC3 4382   0.915   0.404   3.656  0.1142  0.0885 -0.1147
  340POPC   PO4 4383   0.828  -0.028   3.538  0.1088 -0.0036  0.0961
  340POPC   GL1 4384   0.791  -0.081   3.924 -0.2374 -0.2068 -0.2057
  340POPC   GL2 4385   0.982   0.165   4.070 -0.3238  0.0445  0.2240
  340POPC   C1A 4386   0.890  -0.260   4.312 -0.0537  0.0817  0.2117
  340POPC   D2A 4387   0.982  -0.612   4.656 -0.2550  0.0406  0.0032
  340POPC   C3A 4388   0.798  -0.548   4.971  0.0506 -0.0276 -0.0527
  340POPC   C4A 4389   0.549  -0.312   5.263 -0.0734  0.1053  0.0613
  340POPC   C1B 4390   0.877   0.383   4.396  0.0018 -0.1409 -0.3859
  340POPC   C2B 4391   0.882   0.478   4.827 -0.3661 -0.1653  0.0527
  340POPC   C3B 4392   1.054   0.502   5.186  0.0799 -0.0442  0.3094
  340POPC   C4B 4393   0.868   0.382   5.690  0.1592 -0.1834 -0.0298
  341POPC   NC3 4394   3.035   4.850   3.155 -0.0014 -0.1066  0.0029
  341POPC   PO4 4395   3.393   5.121   3.020 -0.1624 -0.3652  0.2706
  341POPC   GL1 4396   3.394   5.223   3.512 -0.0368 -0.1282  0.0357
  341POPC   GL2 4397   3.022   5.102   3.557 -0.0571 -0.4426  0.2033
  341POPC   C1A 4398   3.503   5.125   3.976 -0.0053  0.0053  0.2427
  341POPC   D2A 4399   3.650   5.244   4.377  0.2608  0.1419 -0.1440
  341POPC   C3A 4400   3.763   4.916   4.602  0.1951  0.0279  0.1553
  341POPC   C4A 4401   3.832   4.494   4.646 -0.0262  0.1595  0.2795
  341POPC   C1B 4402   3.011   5.441   3.908 -0.0396  0.0897 -0.1159
  341POPC   C2B 4403   3.134   5.551   4.350 -0.0603 -0.3079 -0.1032
  341POPC   C3B 4404   3.341   5.393   4.747 -0.1053  0.1559 -0.1251
  341POPC   C4B 4405   3.669   5.280   5.001  0.0768 -0.1087  0.1925
  342W        W 4406   0.036   5.667  10.933  0.0057 -0.0439 -0.0852
  343W        W 4407   6.985   1.108   8.187 -0.0172 -0.1921  0.1318
  344W        W 4408   1.799   9.671   1.880  0.0315  0.2885  0.0687
  345W        W 4409   6.765   6.400  10.678  0.0966  0.1681 -0.1912
  346W        W 4410   6.647   6.480   1.274 -0.0818 -0.0416  0.1617
  347W        W 4411   6.742   9.205   2.264  0.4844  0.4542 -0.2480
  348W        W 4412   7.131   9.291   1.235 -0.1749  0.0400 -0.0356
  349W        W 4413   0.593   9.815  11.276  0.1381  0.1096  0.1921
  350W        W 4414   2.273   1.016  10.820 -0.2823 -0.1734  0.1009
  351W        W 4415   8.250  10.089   1.067 -0.1701  0.1608  0.0127
  352W        W 4416   6.023   1.077  10.396  0.0396 -0.0473  0.0256
  353W        W 4417   3.240   8.074   0.196  0.2366 -0.0472 -0.1275
  354W        W 4418   4.843   0.858   7.581  0.0963 -0.3255  0.1364
  355W        W 4419   1.092   3.507   8.858 -0.2809  0.1692  0.2397
  356W        W 4420   6.439   3.659   2.070  0.3505 -0.0217 -0.2593
  357W        W 4421   5.046   5.844  10.516 -0.1111  0.1656  0.2911
  358W        W 4422   7.734   5.650   0.714  0.1937 -0.1222  0.0516
  359W        W 4423   5.579   0.492   8.167 -0.0583  0.2264  0.0822
  360W        W 4424   2.288   0.399   9.782  0.2274 -0.0251  0.3719
  361W        W 4425   5.202   2.526   1.064 -0.2268  0.3135 -0.0441
  362W        W 4426   9.471   3.463  10.751  0.0005 -0.3111  0.2827
  363W        W 4427   1.135   5.782   8.147 -0.0704  0.0797  0.0109
  364W        W 4428   6.696   1.471   2.352  0.0511 -0.0160 -0.0904
  365W        W 4429   4.362   4.518   1.880  0.1661 -0.3114 -0.1476
  366W        W 4430   1.694   2.006   8.897  0.1161 -0.2179  0.0639
  367W        W 4431   3.503   7.491   0.154  0.0036  0.2169 -0.0188
  368W        W 4432   1.296   9.274   0.602 -0.0884 -0.0338 -0.2879
  369W        W 4433   4.611   9.429   8.349 -0.2025 -0.1561 -0.0823
  370W        W 4434   6.413   9.050   6.990 -0.1058  0.0760  0.2622
  371W        W 4435   2.328   0.260   1.279 -0.1874 -0.3045  0.2946
  372W        W 4436   2.243   9.965   1.732  0.2994  0.3516  0.1411
  373W        W 4437   2.664   3.646   0.337 -0.1086  0.0184 -0.3130
  374W        W 4438  10.098   8.589   0.094 -0.3227 -0.0770  0.2490
  375W        W 4439   5.226   2.287   1.800  0.1796  0.0853 -0.1640
  376W        W 4440   5.031   5.462  10.889 -0.1489 -0.0587 -0.4635
  377W        W 4441   5.326   5.172   0.938 -0.2047  0.0360  0.1584
  378W        W 4442   1.321   6.925   2.448 -0.0300 -0.3513 -0.3299
  379W        W 4443   5.748   3.202   9.103 -0.3792 -0.2117 -0.2557
  380W        W 4444   6.430   9.160   7.930 -0.1997 -0.4120  0.0869
  381W        W 4445   4.073   5.187  10.730 -0.0751 -0.1910  0.0204
  382W        W 4446  10.662   6.561   7.637  0.1485 -0.0971  0.1715
  383W        W 4447   2.315   9.968   9.638 -0.0381 -0.0143  0.2715
  384W        W 4448   0.565   4.369   7.789 -0.0303  0.3231  0.1044
  385W        W 4449   1.504   8.890   0.868  0.2156 -0.1521 -0.4036
  386W        W 4450   4.128   8.592  10.322 -0.4153  0.0769 -0.0729
  387W        W 4451   8.777   5.363   8.072 -0.0144 -0.0056 -0.0377
  388W        W 4452   1.422   3.075   7.639  0.0639  0.0801  0.1483
  389W        W 4453   4.801   1.517   8.865  0.3579 -0.3405  0.0920
  390W        W 4454   9.289   2.813  11.130  0.0419  0.1801  0.1516
  391W        W 4455   3.451   1.277   1.795  0.1834  0.1436 -0.2286
  392W        W 4456   0.223   0.376   1.872  0.0065  0.0786  0.0657
  393W        W 4457   6.781  10.668   1.374  0.0350  0.0207  0.1883
  394W        W 4458   2.751   8.472  10.211 -0.1213 -0.0732 -0.0781
  395W        W 4459   9.100   8.787   2.208  0.3186 -0.0918 -0.1141
  396W        W 4460   0.359   0.662  11.245 -0.2076  0.1328  0.1257
  397W        W 4461   6.964   2.233   1.181  0.0198  0.1105  0.2261
  398W        W 4462   0.124   2.670   0.790 -0.0887  0.1464  0.3472
  399W        W 4463   8.347   5.283   8.322 -0.1289 -0.0116  0.2441
  400W        W 4464   6.621   5.235   1.376 -0.3777  0.2710  0.0909
  401W        W 4465   7.301   9.839   1.249 -0.2040  0.1695 -0.3487
  402W        W 4466   1.834   1.802   8.451  0.0206  0.0250  0.1516
  403W        W 4467   4.026   3.632   8.997 -0.0224 -0.1639 -0.0647
  404W        W 4468   3.630   1.251   0.319  0.0349 -0.2009 -0.3922
  405W        W 4469   3.637   2.509  10.022  0.0422  0.0774  0.3941
  406W        W 4470   6.486   7.072   2.831  0.1451 -0.0927  0.3666
  407W        W 4471   3.073   6.447  10.482  0.3143  0.0343 -0.0031
  408W        W 4472   7.289   4.793   2.814  0.1250  0.2534  0.2608
  409W        W 4473   1.699  10.433   9.104 -0.1890  0.0955  0.1426
  410W        W 4474   5.139   4.198  10.371  0.0639 -0.1206 -0.0716
  411W        W 4475   3.548   7.325   7.016  0.0692 -0.5817  0.1651
  412W        W 4476   7.488   8.610   0.301  0.1685  0.0206  0.2267
  413W        W 4477   5.358   2.585  11.100  0.0933  0.1520  0.1279
  414W        W 4478   6.035   3.841   2.355  0.0324 -0.0470 -0.0023
  415W        W 4479   6.505   7.573   0.626 -0.3289 -0.0273  0.0195
  416W        W 4480   1.744   0.662  11.038 -0.0248  0.3068  0.0295
  417W        W 4481   9.695   8.210   3.944 -0.0502 -0.2809 -0.1800
  418W        W 4482   4.102   4.936   9.689 -0.3817 -0.1021 -0.1103
  419W        W 4483   8.957   1.227   2.141  0.2800 -0.0075 -0.1461
  420W        W 4484   0.217   4.323   1.154 -0.2074  0.2072  0.1248
  421W        W 4485   1.589   3.005   0.328  0.1676 -0.0246 -0.3584
  422W        W 4486  10.135   9.974   1.894 -0.1945  0.1161 -0.2159
  423W        W 4487   8.965   5.068   7.706 -0.3025  0.0116 -0.3382
  424W        W 4488   2.317   7.674   0.277 -0.2315 -0.2747  0.2721
  425W        W 4489   2.258   0.646   2.625 -0.1795  0.0382 -0.0772
  426W        W 4490   1.645   5.020   2.826 -0.0415  0.1945  0.1659
  427W        W 4491   0.270   3.478   0.242 -0.0627  0.1357  0.0329
  428W        W 4492   3.181   8.507   9.989  0.0667  0.2670  0.0756
  429W        W 4493   5.635   0.475   0.773 -0.3603 -0.0294 -0.1136
  430W        W 4494   4.784   6.688   2.900  0.2203  0.1633 -0.0535
  431W        W 4495   5.885   1.501   9.111  0.0631  0.1413  0.1323
  432W        W 4496   8.698   9.502  10.846  0.1477  0.0121 -0.0450
  433W        W 4497   5.035  10.292   9.929 -0.0877 -0.0718 -0.2038
  434W        W 4498   4.710   7.301   7.246  0.0712 -0.3241 -0.0699
  435W        W 4499   7.401   6.986   8.983 -0.0041 -0.0687  0.1352
  436W        W 4500   8.209   5.561  10.874 -0.1161  0.0525  0.0059
  437W        W 4501   3.043   0.270   3.011 -0.1943 -0.1126  0.1249
  438W        W 4502   7.973   3.094   2.305  0.4326 -0.1435  0.0804
  439W        W 4503   8.542   0.793   0.397 -0.3119  0.2567 -0.0722
  440W        W 4504   4.913   6.582   9.831 -0.0187 -0.3224 -0.2683
  441W        W 4505   9.276   6.568  10.532 -0.0953 -0.0505  0.0658
  442W        W 4506   1.028   4.882   1.454  0.1703  0.1524  0.0683
  443W        W 4507  10.675   8.000   3.461  0.2211  0.0878  0.0402
  444W        W 4508  10.138   4.476   0.476 -0.1349  0.1922 -0.2161
  445W        W 4509   9.370   4.777   9.322  0.0938 -0.0196  0.0062
  446W        W 4510   3.773   5.071   8.852  0.3077 -0.0392  0.3091
  447W        W 4511   2.418  10.295   1.256 -0.0081 -0.0429  0.3291
  448W        W 4512   2.527   8.712   7.825  0.1375  0.0326 -0.0131
  449W        W 4513   8.030   6.178   0.120 -0.2067  0.0463 -0.0878
  450W        W 4514   9.957   8.850   3.229  0.3014 -0.1459 -0.1964
  451W        W 4515   9.568   8.981   0.702 -0.1993  0.1555 -0.2955
  452W        W 4516  10.454   9.997  10.064 -0.1157 -0.3427 -0.3080
  453W        W 4517   0.861   1.191  11.208  0.1054 -0.0464 -0.2776
  454W        W 4518   3.723   6.319   2.265  0.0644  0.0281 -0.0155
  455W        W 4519   4.990   5.823   0.924 -0.2479 -0.2477  0.1571
  456W        W 4520   6.037   2.499   8.966  0.0215  0.1443  0.0019
  457W        W 4521   3.863   6.381   1.659  0.0988  0.0073 -0.0070
  458W        W 4522  10.438   2.811   0.013 -0.1199  0.0800  0.2559
  459W        W 4523   3.144   2.139   7.649  0.2356  0.1181 -0.1580
  460W        W 4524   7.002   6.136   3.767  0.0081 -0.0733 -0.1623
  461W        W 4525   4.094   7.789   8.532 -0.0556 -0.1979 -0.3001
  462W        W 4526   4.392   8.336   0.700  0.2412  0.1294  0.1343
  463W        W 4527   9.174   4.737   7.360 -0.1967 -0.1627 -0.0783
  464W        W 4528   5.955   9.075   3.348  0.1905  0.0497  0.2592
  465W        W 4529   0.653  10.757   1.874  0.1043 -0.1508  0.2046
  466W        W 4530   8.433   3.830   3.167 -0.0301  0.0712 -0.0045
  467W        W 4531   3.517   0.783   9.971 -0.0633  0.0640 -0.1557
  468W        W 4532   4.787   9.122   1.982  0.3986 -0.0246 -0.1278
  469W        W 4533   4.620   4.179   0.122  0.0693 -0.0062  0.2522
  470W        W 4534   7.729  10.584  10.792 -0.0271 -0.1985  0.0415
  471W        W 4535  10.320   9.550   3.600 -0.0660 -0.0895  0.0517
  472W        W 4536   0.362   4.707   1.417  0.3104  0.0084 -0.0677
  473W        W 4537   2.356   1.668   9.176 -0.1497 -0.0850  0.1774
  474W        W 4538   1.363   0.047   0.365 -0.3038 -0.0906 -0.0961
  475W        W 4539   8.941   7.795   0.838 -0.1224  0.1467  0.0396
  476W        W 4540  10.243   8.990  11.147  0.1771  0.0718  0.0348
  477W        W 4541   1.175   7.507   8.201  0.2200  0.2617 -0.1709
  478W        W 4542   6.533   7.820   0.155 -0.1286  0.1131  0.1169
  479W        W 4543  10.699   6.805   2.951  0.1325 -0.0306  0.0061
  480W        W 4544   6.267   0.954   9.525  0.1890  0.0085  0.0130
  481W        W 4545   1.253   2.761   7.284 -0.1230  0.3277  0.1851
  482W        W 4546  10.533   4.362   7.707  0.3509 -0.0555  0.3078
  483W        W 4547   1.100   4.153   0.880  0.0207 -0.1102  0.2036
  484W        W 4548   7.690   0.564   0.373  0.4372 -0.0232  0.3865
  485W        W 4549   9.286   1.606  11.078 -0.2625 -0.1353 -0.0766
  486W        W 4550   5.267   3.013   1.198 -0.2539 -0.0861 -0.1520
  487W        W 4551   7.900   4.543   9.287 -0.4049  0.1478 -0.1927
  488W        W 4552   9.358   7.398   2.017 -0.2387 -0.0898  0.1479
  489W        W 4553   5.302   2.126  10.564  0.0540  0.1095  0.0243
  490W        W 4554   7.866   4.691   7.926  0.0763  0.0895  0.0187
  491W        W 4555   5.923   8.081   7.415 -0.0361  0.0627 -0.2127
  492W        W 4556   5.929   1.106   8.704  0.3105  0.0175 -0.1997
  493W        W 4557   4.404   1.325  11.061  0.2991  0.0846  0.0230
  494W        W 4558   7.478   3.746   7.885 -0.2241  0.1473 -0.0828
  495W        W 4559   1.742   0.269   8.301 -0.2789 -0.0798 -0.0818
  496W        W 4560   0.959   4.120  10.104 -0.0550 -0.4756  0.0045
  497W        W 4561   2.114   3.575   8.638  0.1321 -0.0199 -0.0673
  498W        W 4562  10.228   6.814   2.933  0.1140  0.0208  0.2271
  499W        W 4563   6.568   3.690   1.133 -0.1627  0.4489 -0.1471
  500W        W 4564   8.824   4.546   7.715  0.0859 -0.0219 -0.1892
  501W        W 4565   5.994   8.491   2.548 -0.1575 -0.1334 -0.4065
  502W        W 4566   7.956   6.538   9.408 -0.0962 -0.1885 -0.2236
  503W        W 4567   4.603   9.900   7.509  0.1936 -0.1682  0.1179
  504W        W 4568   8.175   0.242   1.315  0.0071 -0.1888 -0.0191
  505W        W 4569   6.133   5.429   7.908  0.1381  0.0441 -0.0678
  506W        W 4570   0.100   6.259  10.285  0.0247 -0.2986 -0.0227
  507W        W 4571   7.804   1.861  10.616  0.3326 -0.0561 -0.2815
  508W        W 4572   5.611   2.643   1.879  0.2123 -0.0587 -0.1543
  509W        W 4573   7.601   2.425   8.842 -0.0263  0.0220  0.1011
  510W        W 4574   4.498   2.301   0.450 -0.2697 -0.0517  0.2076
  511W        W 4575   8.948   4.367   8.617 -0.1913  0.0679  0.0861
  512W        W 4576   9.322   8.369  11.096  0.0500  0.1860  0.0291
  513W        W 4577   1.195   3.659  10.144 -0.0262  0.1145 -0.0651
  514W        W 4578   5.086   6.143  10.074  0.1087  0.1046  0.2739
  515W        W 4579   7.192   8.244   9.062 -0.0377  0.2959  0.0161
  516W        W 4580   3.464   5.630   6.954 -0.0495 -0.0111 -0.0466
  517W        W 4581   6.938   4.043   1.831 -0.3756  0.0145  0.2291
  518W        W 4582   6.440   3.740   2.972  0.2381  0.0958 -0.1671
  519W        W 4583   6.231   0.254   1.313  0.3612  0.0231  0.0378
  520W        W 4584   3.553   9.034   9.062  0.2919  0.0961 -0.2059
  521W        W 4585   8.887   1.301  10.970  0.1321  0.2219 -0.2218
  522W        W 4586   4.783   2.142  10.464 -0.0975  0.0929  0.2402
  523W        W 4587   1.754   0.700   0.183 -0.3509 -0.3585 -0.2028
  524W        W 4588   1.205   0.614   7.316  0.1237 -0.0159  0.3526
  525W        W 4589   4.288   8.158  10.878 -0.1651  0.1852  0.2126
  526W        W 4590   7.046   6.434  11.212 -0.0093  0.0171  0.0947
  527W        W 4591   1.240   0.321   0.841  0.1521  0.1506  0.3233
  528W        W 4592   0.229   9.312   9.362  0.3533  0.0171 -0.1641
  529W        W 4593   3.878   9.955   1.610  0.2034 -0.0670  0.2255
  530W        W 4594   2.990   3.592   8.724  0.1130 -0.1005 -0.2255
  531W        W 4595   0.549   9.324  10.609 -0.0141 -0.0235 -0.2189
  532W        W 4596   4.200  10.136   7.636  0.2832  0.2139 -0.4104
  533W        W 4597   4.311   5.807   6.756 -0.1626  0.0840 -0.0056
  534W        W 4598   1.927   4.788   9.304 -0.1299 -0.1592  0.1552
  535W        W 4599   0.659   1.708  11.053  0.1698 -0.2370 -0.1902
  536W        W 4600   4.100   7.313   3.397  0.0193  0.3120 -0.3133
  537W        W 4601   9.458   2.992  10.272 -0.5807 -0.0531  0.1206
  538W        W 4602   8.211  10.441  10.844 -0.1087 -0.0246 -0.0735
  539W        W 4603   7.037   4.451  10.457 -0.0353 -0.2861 -0.2322
  540W        W 4604   1.363   0.518   3.888 -0.3552  0.0896  0.1734
  541W        W 4605   1.013  10.246   1.205  0.0927  0.2301 -0.1647
  542W        W 4606   2.852   6.320   0.226 -0.1016 -0.0863  0.0219
  543W        W 4607   5.278   1.343   9.945 -0.3478  0.2569 -0.0143
  544W        W 4608   1.505   6.014   2.637 -0.2806 -0.2301  0.1027
  545W        W 4609   9.660   9.222  10.751  0.1648 -0.3318 -0.1825
  546W        W 4610   6.310   7.575   9.575  0.1149  0.3810  0.2659
  547W        W 4611   1.500   0.790   3.361  0.1337  0.2621  0.2230
  548W        W 4612  10.228   1.780   8.676  0.1468 -0.1532  0.0173
  549W        W 4613   3.665   0.638   1.245  0.1528  0.0468  0.1869
  550W        W 4614   6.612   2.446   2.605  0.0517 -0.2685  0.0832
  551W        W 4615   3.358   6.637   1.597 -0.0932  0.2288 -0.0117
  552W        W 4616  10.524   2.916   2.721  0.0542  0.1170 -0.0488
  553W        W 4617   9.347   3.665   9.685 -0.0960 -0.0508  0.2452
  554W        W 4618   3.244   8.576   2.383 -0.0694 -0.1226  0.2948
  555W        W 4619   2.011   2.259   7.277 -0.2399 -0.2291  0.0005
  556W        W 4620   7.876   9.491  11.004 -0.3167  0.1424 -0.1666
  557W        W 4621   8.252   4.049  10.811 -0.1102 -0.0656 -0.3894
  558W        W 4622   4.209   1.089   7.539 -0.0566 -0.2160 -0.1114
  559W        W 4623   1.190   5.360   1.946  0.2974  0.0450  0.0649
  560W        W 4624   9.570   3.200   8.049 -0.1220 -0.0075  0.0829
  561W        W 4625   6.845   7.810   1.003 -0.4226  0.1553 -0.0166
  562W        W 4626   6.845   6.900   7.625  0.1481  0.1052 -0.1029
  563W        W 4627   9.451   9.273   1.770  0.0191  0.1158  0.2901
  564W        W 4628   4.132   0.505   0.144  0.1071 -0.0251 -0.0107
  565W        W 4629   3.077   9.160   0.057 -0.1681  0.0885 -0.3812
  566W        W 4630   3.563   1.065   9.063  0.0662  0.1009  0.1393
  567W        W 4631   7.009   6.812  10.279  0.2867 -0.0876 -0.2092
  568W        W 4632   4.679   0.258   8.479  0.2160 -0.0460  0.2906
  569W        W 4633  10.186   3.703   8.777 -0.1731 -0.1907 -0.0564
  570W        W 4634   3.159   1.839   9.716 -0.0843  0.2339  0.1242
  571W        W 4635   9.683  10.172   1.612  0.0496  0.3151  0.0459
  572W        W 4636   6.515   5.464   7.599 -0.1708  0.4790 -0.3193
  573W        W 4637   3.064   1.696   8.474  0.1916  0.0700 -0.1675
  574W        W 4638   6.715   8.514   3.337 -0.0042 -0.0396 -0.2094
  575W        W 4639   3.165   9.706  11.236  0.2526 -0.3707 -0.0857
  576W        W 4640  10.608   6.024   8.470  0.1646  0.4060  0.1955
  577W        W 4641   9.244   1.043   3.953 -0.0727 -0.1905 -0.1479
  578W        W 4642   5.452   7.599   1.489 -0.1545  0.1253  0.0077
  579W        W 4643   0.686   9.151   0.551 -0.0485 -0.0368 -0.0543
  580W        W 4644   1.405   5.529  10.032  0.2648 -0.2660 -0.3228
  581W        W 4645   1.077  10.355   3.167  0.0527 -0.1743 -0.2979
  582W        W 4646   2.912   8.777   0.735  0.2956 -0.1250  0.0909
  583W        W 4647   2.640   4.628   0.253  0.0632 -0.4424 -0.2871
  584W        W 4648   7.241   2.543   9.185 -0.0530 -0.2748 -0.0879
  585W        W 4649   3.736   0.422   8.361 -0.0469  0.2091 -0.2357
  586W        W 4650   8.436   2.908   1.966  0.2846  0.1697  0.0986
  587W        W 4651   4.299   3.839  10.249 -0.0051  0.0432  0.0531
  588W        W 4652   0.599   3.587   2.784  0.0982  0.0344  0.1660
  589W        W 4653   7.492   4.268   8.233  0.0468  0.1772 -0.1770
  590W        W 4654   9.587   1.230   8.882 -0.1702  0.1563  0.3234
  591W        W 4655   9.086   8.230   3.417  0.1796  0.0479 -0.1095
  592W        W 4656   4.866   2.488   7.745  0.0967  0.1106  0.0571
  593W        W 4657   4.127   0.500   0.695 -0.2167  0.0614  0.1723
  594W        W 4658   8.834   4.653   9.296  0.0020 -0.5073 -0.0274
  595W        W 4659   8.519   5.374   1.784  0.1731  0.1222  0.0293
  596W        W 4660   8.268   2.272   2.955  0.0357  0.1431 -0.2233
  597W        W 4661   4.435   8.944  10.537 -0.0731  0.0445  0.3461
  598W        W 4662   1.331   8.243   2.018  0.2046  0.0975  0.0121
  599W        W 4663   3.468   0.543   9.243  0.0202  0.2291 -0.0793
  600W        W 4664   7.836   7.934   1.059  0.2014  0.4706  0.3572
  601W        W 4665   1.938   3.856  10.560  0.1364 -0.0569  0.0253
  602W        W 4666   5.956   5.771   9.928 -0.0046  0.0306 -0.2680
  603W        W 4667   8.648   5.211   2.696  0.1178 -0.1943  0.2445
  604W        W 4668   1.960  10.442   9.544  0.2047 -0.0650 -0.1357
  605W        W 4669   3.187   0.871   9.542  0.2347 -0.1992  0.0124
  606W        W 4670   5.207   3.613  10.505  0.2262 -0.0602  0.1105
  607W        W 4671   4.680   2.507   0.911  0.2484  0.0440  0.1768
  608W        W 4672   0.012   0.054   4.002  0.1574 -0.0464  0.1594
  609W        W 4673   7.922   5.270  10.551  0.2994  0.2008 -0.0343
  610W        W 4674   5.299   0.702   7.393 -0.1945  0.0444  0.0849
  611W        W 4675   0.624   7.213   7.668 -0.2429 -0.4872 -0.0321
  612W        W 4676   7.720   4.035   9.193 -0.0923  0.0070  0.0740
  613W        W 4677   2.882   2.040   0.801  0.1914 -0.2593  0.0220
  614W        W 4678   7.306   3.135  10.042  0.2546  0.3085 -0.1904
  615W        W 4679   2.347  10.507   2.470  0.0383  0.1732  0.3457
  616W        W 4680   1.765   3.118   2.749 -0.3579 -0.0634  0.1530
  617W        W 4681   7.202   1.743   8.144 -0.2014  0.1673 -0.1563
  618W        W 4682   3.514   0.053   9.386 -0.2046 -0.0888 -0.1012
  619W        W 4683   4.546   4.600  11.081  0.0833  0.0901  0.0756
  620W        W 4684   0.369   1.977  10.761 -0.1811  0.3275 -0.5794
  621W        W 4685   4.734   0.529  11.293 -0.0929  0.1323  0.0630
  622W        W 4686   6.520   5.885   8.667 -0.4423 -0.1079  0.0461
  623W        W 4687  10.183   1.365   8.373  0.0239 -0.0161  0.1901
  624W        W 4688   4.900   1.630   2.667 -0.0871 -0.0386  0.2895
  625W        W 4689   6.973   9.370   7.788  0.2021 -0.1123 -0.3719
  626W        W 4690   0.233  10.565   2.071 -0.5091  0.1934 -0.2336
  627W        W 4691  10.041   3.650   7.414 -0.0651 -0.2645  0.0658
  628W        W 4692   6.516   6.830  10.460 -0.1146  0.2251 -0.1584
  629W        W 4693   7.794   3.137   2.909 -0.1867 -0.1250 -0.0903
  630W        W 4694   5.642   4.187  10.375 -0.0459  0.4839  0.0089
  631W        W 4695   2.904   5.029   0.028 -0.0130  0.4685  0.0659
  632W        W 4696   8.398   3.649  11.079 -0.0705 -0.1070 -0.1453
  633W        W 4697   8.798   6.773   0.987  0.0831 -0.1831  0.1209
  634W        W 4698   0.310   9.498  10.999 -0.0368 -0.1347  0.2288
  635W        W 4699   4.745   7.351   0.548 -0.0675 -0.2123  0.0869
  636W        W 4700   3.395   6.934   2.943  0.0554 -0.0207  0.1371
  637W        W 4701   5.497   3.580   3.066 -0.2252 -0.1860 -0.0330
  638W        W 4702   2.624  10.360   1.805 -0.0182  0.2601 -0.4854
  639W        W 4703   0.645   8.036   9.914  0.1139  0.1894  0.0747
  640W        W 4704   9.643   8.330   0.128  0.1221 -0.1876 -0.0793
  641W        W 4705   3.068   0.811  11.205 -0.4011  0.1937  0.1626
  642W        W 4706   9.434   8.076   8.829  0.0708 -0.0494  0.0446
  643W        W 4707   3.566   1.865   1.868  0.1510  0.1983 -0.1605
  644W        W 4708   3.330   5.458   8.915 -0.2578  0.0803  0.1017
  645W        W 4709   3.402   5.948   2.376 -0.0511 -0.1327  0.1733
  646W        W 4710  10.417   9.460   9.499  0.1288 -0.0447  0.2064
  647W        W 4711   9.388   4.301  10.419  0.0516  0.0955 -0.0009
  648W        W 4712   0.339   4.356   8.594  0.0459  0.1091  0.3178
  649W        W 4713   1.279   9.365   2.734 -0.1740 -0.1519  0.0475
  650W        W 4714   2.794  10.267   2.485 -0.0583  0.0536 -0.3612
  651W        W 4715  10.240   7.381  10.839  0.4198  0.0879 -0.2093
  652W        W 4716  10.108   1.070   8.005 -0.1377 -0.0973 -0.0034
  653W        W 4717   4.667   2.809   0.323 -0.0382 -0.0237  0.1672
  654W        W 4718   0.639   7.529  11.308 -0.0325  0.1267 -0.1057
  655W        W 4719   8.927   9.990  10.795  0.1515 -0.0043  0.0446
  656W        W 4720  10.516   6.410   3.297  0.1918 -0.2893 -0.1429
  657W        W 4721   7.057   3.562   7.010 -0.2769  0.0342 -0.0750
  658W        W 4722   4.837   4.965  11.025  0.1057 -0.0267  0.3129
  659W        W 4723   9.752   6.472   1.765 -0.1991  0.0472  0.0639
  660W        W 4724   4.889   5.004   0.215  0.2301  0.0403 -0.0713
  661W        W 4725   7.154   8.596  10.431 -0.1650 -0.1691 -0.0813
  662W        W 4726   0.502   4.505  11.074  0.0834  0.1883 -0.0942
  663W        W 4727   9.191   7.442   1.314  0.0397 -0.3095 -0.1339
  664W        W 4728   5.400   0.414   1.397  0.1546  0.2143  0.0223
  665W        W 4729   8.239   1.338   1.254 -0.3276  0.1192  0.2560
  666W        W 4730   7.942   3.794  10.564 -0.0727  0.0047 -0.6569
  667W        W 4731   3.074  10.608   0.138 -0.0315 -0.0389 -0.1871
  668W        W 4732   2.279   2.612   8.805  0.3530 -0.0754  0.1286
  669W        W 4733   5.658   5.021  10.553  0.1521  0.1585  0.0435
  670W        W 4734   7.474  10.103   8.058 -0.1503  0.3269 -0.0391
  671W        W 4735   1.777   5.637   1.202 -0.2418  0.0410 -0.0074
  672W        W 4736   0.617  10.104   3.096  0.1326 -0.4996  0.1456
  673W        W 4737   5.862   8.976   0.577 -0.0773 -0.4152  0.0101
  674W        W 4738   0.948   7.743   3.128 -0.2716 -0.0035 -0.2945
  675W        W 4739   8.614   6.699   0.501 -0.0745  0.0290 -0.2174
  676W        W 4740  10.338   1.394   9.465  0.2605 -0.1212  0.0717
  677W        W 4741   1.614   0.436   8.792 -0.0777 -0.0508 -0.0852
  678W        W 4742   8.139   9.205   0.656  0.0466  0.1681  0.3978
  679W        W 4743   7.975   2.962   7.569  0.3447 -0.2823 -0.0439
  680W        W 4744  10.636   9.768   1.867  0.2174  0.0919  0.0842
  681W        W 4745   4.702   7.829   2.419 -0.1562  0.2704 -0.1922
  682W        W 4746   3.866   5.350   3.309  0.1280 -0.1043  0.1173
  683W        W 4747   3.501   9.702  10.367  0.1071  0.0229 -0.0519
  684W        W 4748   4.202   8.564   7.947  0.1302  0.0744 -0.0485
  685W        W 4749   9.244   8.829   1.670 -0.2588 -0.0839  0.1922
  686W        W 4750   1.608   7.532  10.461 -0.2197 -0.0583 -0.0381
  687W        W 4751   5.331   0.676   1.840  0.5467  0.2353 -0.0439
  688W        W 4752   0.427   1.996   0.413  0.1307  0.0669  0.0002
  689W        W 4753   4.068   1.534   9.424 -0.0166 -0.0779 -0.1015
  690W        W 4754   6.205   7.702   1.790  0.0317  0.1297  0.0111
  691W        W 4755   3.177   1.914   9.188 -0.1564  0.0461 -0.0895
  692W        W 4756  10.674   1.290   0.059  0.2327 -0.0346 -0.0899
  693W        W 4757   0.629   3.377   7.537 -0.0685 -0.1401  0.2450
  694W        W 4758   3.257   7.859   2.770  0.0266 -0.0232 -0.1157
  695W        W 4759   1.460   3.495   0.528 -0.0493 -0.2178 -0.2390
  696W        W 4760   6.700   9.588   4.049 -0.0448  0.4118 -0.1634
  697W        W 4761   1.762   7.649   2.841  0.2486  0.0813  0.0088
  698W        W 4762   6.632   4.191  10.170 -0.0694  0.2470  0.1668
  699W        W 4763   5.931   7.313   8.844 -0.0316 -0.0073 -0.1159
  700W        W 4764   4.338   2.101  10.158 -0.0371  0.1585 -0.1906
  701W        W 4765   4.918   1.155   3.491  0.2316 -0.0146  0.2165
  702W        W 4766   8.778   5.644   9.011  0.1784 -0.1997  0.2841
  703W        W 4767   6.850   1.698   1.965  0.0008  0.1983  0.2852
  704W        W 4768   9.236   0.664   3.282  0.0828  0.2152  0.2272
  705W        W 4769   5.543   7.593   8.657 -0.0273 -0.1525  0.0929
  706W        W 4770   3.176   5.682   8.460 -0.1996  0.0183  0.1500
  707W        W 4771   3.522   1.503   1.344  0.2022 -0.2870  0.2697
  708W        W 4772   8.054   2.744   9.697 -0.0589 -0.0370 -0.0926
  709W        W 4773   4.191   6.745   1.747 -0.1478 -0.0860  0.1869
  710W        W 4774   4.937   6.895   0.844  0.2865 -0.1185  0.0148
  711W        W 4775   3.484   2.789   9.353  0.2185 -0.0399  0.1902
  712W        W 4776   7.108   5.293   1.583  0.0128 -0.0862  0.2587
  713W        W 4777   0.549   8.090   2.295 -0.4744 -0.3282 -0.2834
  714W        W 4778   9.488   4.946   7.754 -0.0396  0.1663  0.1859
  715W        W 4779   1.924   4.317  11.161 -0.1072  0.1158 -0.1521
  716W        W 4780   8.699   5.898   7.969  0.1595  0.2308 -0.2917
  717W        W 4781   4.955   3.186   1.742 -0.1896 -0.1551 -0.3645
  718W        W 4782   5.585   5.715   9.649 -0.0065  0.4322  0.3185
  719W        W 4783   7.176   8.306  10.842 -0.0953 -0.0208 -0.1229
  720W        W 4784  10.542   7.917   1.268 -0.0215  0.1589 -0.1119
  721W        W 4785   4.050   4.785  10.408  0.0790  0.0704 -0.2894
  722W        W 4786   9.001   1.619   0.840 -0.0272  0.2946  0.1980
  723W        W 4787   6.961   1.445   0.905  0.2658  0.2831  0.1661
  724W        W 4788   8.377   2.711   7.878  0.0252  0.2052 -0.0513
  725W        W 4789   9.558   4.656  10.866  0.1420 -0.1539 -0.3257
  726W        W 4790   4.704   3.570   1.787  0.1406 -0.1774 -0.1376
  727W        W 4791  10.150   3.157   0.588 -0.0550  0.2064  0.2049
  728W        W 4792   4.856   7.794   0.114  0.0825  0.0869  0.0682
  729W        W 4793   2.338   9.478   0.456 -0.1810 -0.0937  0.0007
  730W        W 4794   4.321   4.851   1.109  0.2421 -0.3104 -0.0492
  731W        W 4795   9.231   6.950   1.266  0.0879  0.0149 -0.3547
  732W        W 4796  10.001   5.932  10.710 -0.2851 -0.0690 -0.1548
  733W        W 4797   7.928   6.998  10.329  0.2810 -0.1504  0.1507
  734W        W 4798   9.490   3.282   2.133 -0.0064 -0.2593  0.0898
  735W        W 4799   3.010   4.059   0.323 -0.1057 -0.1025  0.1337
  736W        W 4800   0.518   5.110  10.175 -0.0273 -0.1780  0.0804
  737W        W 4801   0.061   7.459   1.324  0.0839 -0.3304  0.1129
  738W        W 4802   7.175   2.366   8.137 -0.0445 -0.0622 -0.0865
  739W        W 4803   7.686   8.851   9.764 -0.0536 -0.1268  0.0261
  740W        W 4804   0.777   2.214  10.541 -0.2279  0.2037 -0.2495
  741W        W 4805   1.018   9.460   4.086  0.3048  0.1106  0.2431
  742W        W 4806   9.627   0.514   9.548  0.1399  0.0548 -0.2836
  743W        W 4807   7.961   7.854  10.643 -0.0556 -0.0054 -0.0497
  744W        W 4808   8.807   5.946   0.674  0.0897 -0.2012 -0.3071
  745W        W 4809  10.656   4.670   1.216 -0.0290 -0.1009 -0.0829
  746W        W 4810   6.914   2.124   1.655 -0.0298 -0.0592 -0.0334
  747W        W 4811   6.678   6.448  10.146 -0.1369 -0.1750  0.3016
  748W        W 4812   2.927   3.363   9.771 -0.0293 -0.5335 -0.1153
  749W        W 4813  10.343   5.905   1.384  0.0642  0.1319 -0.2475
  750W        W 4814   7.512   0.439   1.676  0.0968  0.3200  0.1213
  751W        W 4815   2.515  10.603   8.253  0.1657  0.1141 -0.0735
  752W        W 4816   5.219   4.292   7.884 -0.0611  0.2140  0.2491
  753W        W 4817   5.712   2.996   9.876  0.3099 -0.1478  0.2232
  754W        W 4818   2.996   9.346  10.909  0.0850 -0.1890 -0.1592
  755W        W 4819   4.996   9.436   0.593 -0.2146 -0.0760 -0.0348
  756W        W 4820   1.970   0.569   9.291 -0.2648 -0.2694 -0.4461
  757W        W 4821   0.573   6.191   8.829 -0.1474 -0.0115 -0.1550
  758W        W 4822   3.082   6.548   3.005  0.1779 -0.3567  0.1760
  759W        W 4823   9.465   9.014   8.085  0.1667 -0.1311  0.1862
  760W        W 4824   3.171  10.613  10.277  0.3863 -0.0856  0.1352
  761W        W 4825   7.037   5.972   2.601  0.0106  0.1339  0.1455
  762W        W 4826   7.737   5.993   2.438  0.3043  0.2691  0.1501
  763W        W 4827   1.034   5.933   1.511  0.0002  0.2507  0.0550
  764W        W 4828   4.854  10.082   8.379 -0.0697  0.0221 -0.0487
  765W        W 4829   1.527   3.414   7.991  0.0446 -0.2833  0.3393
  766W        W 4830   8.486   9.978   8.150  0.2370  0.1038  0.0741
  767W        W 4831   7.425   0.734   0.801  0.2548  0.1689 -0.0839
  768W        W 4832   9.598   2.099   8.022 -0.0695  0.3263  0.2623
  769W        W 4833   8.991   2.140   9.879 -0.0280 -0.0517 -0.2495
  770W        W 4834   1.148   1.285   1.435 -0.2446  0.0893  0.0159
  771W        W 4835   1.018   5.151  10.288 -0.0783  0.1561 -0.1585
  772W        W 4836  10.162   4.830   2.342  0.1350  0.2007 -0.0985
  773W        W 4837  10.659   4.866   2.223 -0.3032  0.0960  0.0247
  774W        W 4838   3.059   5.659  10.994  0.0355  0.1124  0.0031
  775W        W 4839   3.170   6.800   8.945 -0.2756  0.3359 -0.0221
  776W        W 4840  10.744   6.491   9.861  0.4956  0.0920  0.2043
  777W        W 4841   5.686  10.667   0.793 -0.0543  0.0476 -0.0140
  778W        W 4842   9.582   2.784   9.828  0.0833 -0.1005 -0.1484
  779W        W 4843   7.068   3.966   7.545  0.1459 -0.1541 -0.0298
  780W        W 4844   8.812   3.416   2.934  0.0554 -0.0735  0.0153
  781W        W 4845   3.197   8.143   2.301 -0.0602  0.4716  0.0854
  782W        W 4846   1.462   2.551   8.896  0.1409  0.0855 -0.3150
  783W        W 4847   5.235   4.782   9.124 -0.2101  0.3609  0.0969
  784W        W 4848   5.269   2.774   0.216 -0.0269  0.2670  0.1286
  785W        W 4849   3.135   6.785   9.708  0.0800 -0.1640  0.0353
  786W        W 4850   5.555   8.296   7.846  0.2029 -0.0612  0.2588
  787W        W 4851   4.021   7.406   1.167 -0.0203 -0.1638 -0.0304
  788W        W 4852   9.480   0.446   1.687 -0.1098 -0.0949 -0.2911
  789W        W 4853   2.188   1.925   0.215  0.0603  0.0503 -0.0515
  790W        W 4854  10.018   0.796  10.244 -0.2618 -0.1669  0.0395
  791W        W 4855   4.776   8.267   1.523  0.2377  0.0591 -0.0794
  792W        W 4856   3.216   5.814   1.079  0.1312 -0.2965 -0.1890
  793W        W 4857   9.020   5.919   0.232  0.0587 -0.2351  0.1302
  794W        W 4858  10.285   9.017   2.703  0.4115  0.2743  0.0478
  795W        W 4859   1.430   8.584   3.938 -0.3666  0.0808  0.1789
  796W        W 4860   2.879   7.360   1.511 -0.0493 -0.2642  0.0313
  797W        W 4861   5.165   7.397   0.184  0.0132 -0.1229  0.2839
  798W        W 4862   7.823   3.742  11.076  0.1808  0.1164 -0.0453
  799W        W 4863   6.694   4.979   7.525  0.0998 -0.3109  0.0998
  800W        W 4864   4.661   7.369   1.936 -0.0945 -0.1416  0.0700
  801W        W 4865   3.290   3.472   7.706 -0.0234 -0.0566 -0.0162
  802W        W 4866   8.457   6.611   0.043 -0.3106 -0.1738 -0.1184
  803W        W 4867   8.638   1.664   7.229  0.3004 -0.1220  0.1003
  804W        W 4868   3.060   4.579   1.409  0.0702 -0.0740 -0.1077
  805W        W 4869   2.457   8.422   2.684  0.2364  0.3385 -0.0461
  806W        W 4870   0.965   7.176   8.663  0.1360  0.2153  0.0323
  807W        W 4871   8.005   5.402  11.331  0.2965  0.0199  0.0742
  808W        W 4872   5.187   0.846   9.896 -0.1444  0.1029 -0.3846
  809W        W 4873   7.720  10.120   0.157 -0.1526  0.3773  0.2145
  810W        W 4874   9.760   2.472   9.238 -0.1123 -0.1667  0.2205
  811W        W 4875   8.619   4.258   3.351 -0.0414 -0.0062 -0.0849
  812W        W 4876   6.787   0.880   9.741 -0.0438  0.0064  0.1885
  813W        W 4877   9.933   0.737   0.253  0.1496 -0.2811  0.3657
  814W        W 4878   4.343   2.966   1.917 -0.1716  0.1848 -0.2234
  815W        W 4879   5.819   5.776   7.988 -0.2044 -0.0061  0.0629
  816W        W 4880   4.395   5.112   8.888 -0.3452  0.3426 -0.3101
  817W        W 4881   4.932   4.688   7.773 -0.1895  0.1196 -0.2880
  818W        W 4882   6.671   7.896  10.223 -0.0946  0.0764 -0.6017
  819W        W 4883   1.051  10.656  11.217  0.1507  0.1578  0.3361
  820W        W 4884   8.653   8.345   4.063  0.0930  0.0066  0.0648
  821W        W 4885   4.440   4.312  10.106 -0.0856 -0.4367 -0.1722
  822W        W 4886   8.015   3.580  10.083 -0.0969 -0.1117 -0.0617
  823W        W 4887   5.601   8.912   3.720  0.2031 -0.2408 -0.0504
  824W        W 4888   7.886   8.469   1.932 -0.1514  0.1071  0.1063
  825W        W 4889   7.041  10.512   9.999  0.1522 -0.0144  0.3918
  826W        W 4890   4.282   3.979   3.173 -0.1783  0.2026  0.1329
  827W        W 4891   2.808   0.160   9.456  0.3034 -0.1139  0.1353
  828W        W 4892   0.932   9.534   0.318  0.2960  0.2628 -0.1181
  829W        W 4893   9.189   5.372  10.991 -0.2913 -0.1340  0.1234
  830W        W 4894   6.600   8.646   2.428  0.0304  0.1649 -0.2300
  831W        W 4895   0.835   0.753   0.113  0.1693  0.1770 -0.4682
  832W        W 4896   7.299   5.086   2.370  0.1470 -0.0249 -0.0536
  833W        W 4897   7.298   5.628   2.249 -0.1889  0.1970 -0.3408
  834W        W 4898   6.283   4.603   8.304  0.0112 -0.0204 -0.0497
  835W        W 4899   7.559   9.373   8.427 -0.1703 -0.2758  0.1182
  836W        W 4900   8.686   1.135   8.544 -0.2070  0.1838 -0.0833
  837W        W 4901   5.106   6.387   9.360  0.1546  0.0193 -0.1910
  838W        W 4902   6.253   2.676   7.182  0.0508  0.0312 -0.3471
  839W        W 4903   1.093   4.314   3.364 -0.0157  0.0509  0.3259
  840W        W 4904   4.512   5.380   1.435  0.0236 -0.2597  0.1541
  841W        W 4905   4.234   6.024  10.543  0.1652  0.2638  0.1845
  842W        W 4906  10.538   1.787   1.234  0.0698  0.1575 -0.1229
  843W        W 4907  10.088   6.455   9.794 -0.3682 -0.4705  0.1548
  844W        W 4908   2.501   4.156   0.494  0.2061 -0.5011 -0.0687
  845W        W 4909   0.088   2.167   0.718  0.0790  0.1276  0.2419
  846W        W 4910   3.201   7.763   1.449  0.0552 -0.1105  0.1799
  847W        W 4911   6.327   1.745  11.241  0.2812 -0.1697  0.3038
  848W        W 4912   3.527   6.775   0.683 -0.1302 -0.2029 -0.4835
  849W        W 4913   5.846   4.852   2.281 -0.2531  0.3395  0.2293
  850W        W 4914   2.769   9.390   2.279 -0.0443  0.0960 -0.0675
  851W        W 4915   9.665   5.986   1.929 -0.2412 -0.1260 -0.0940
  852W        W 4916   7.842   1.670   7.800  0.1474 -0.2568  0.3993
  853W        W 4917  10.527   7.094   8.340  0.0248  0.0781  0.1215
  854W        W 4918   1.932   1.587  10.121  0.3278  0.0013  0.1655
  855W        W 4919   4.423  10.722   1.485  0.1224  0.0374 -0.3541
  856W        W 4920   3.106   5.150   9.553 -0.0334 -0.3008 -0.0706
  857W        W 4921   1.783   3.955   8.878  0.0533  0.1118 -0.1255
  858W        W 4922   7.297   8.719   1.226 -0.1967  0.3234  0.0619
  859W        W 4923   9.257   6.451   7.217 -0.2582  0.0688  0.1132
  860W        W 4924   7.110   4.136  10.861  0.1387 -0.1828 -0.0361
  861W        W 4925   9.499   0.274  11.308  0.0579 -0.1408 -0.0648
  862W        W 4926   5.948   7.251   9.755  0.0606 -0.1850 -0.3274
  863W        W 4927   4.316   3.736   0.261  0.0500 -0.1040 -0.1123
  864W        W 4928   3.563   7.378  10.489  0.0542 -0.0390  0.1677
  865W        W 4929   9.194   3.455   1.327 -0.0497  0.0370  0.0927
  866W        W 4930   3.734   5.726   9.263  0.1527 -0.2679 -0.0954
  867W        W 4931   8.430   8.354   9.599 -0.0971  0.1352 -0.2818
  868W        W 4932  10.512   6.989   0.184 -0.0257  0.1880  0.4379
  869W        W 4933   1.060   6.141   2.477  0.0140  0.1146  0.0627
  870W        W 4934   7.353   0.240  11.334  0.2223 -0.0871 -0.1361
  871W        W 4935   4.699   9.564   0.096 -0.0472  0.0421  0.0294
  872W        W 4936   4.191   2.681   0.282  0.0754 -0.1822 -0.1618
  873W        W 4937   8.199   1.127   0.675  0.0422  0.0307  0.0472
  874W        W 4938   2.784   8.859   2.456  0.0774 -0.2866  0.0850
  875W        W 4939   9.464   1.708   3.469  0.0178 -0.0622  0.0320
  876W        W 4940   0.592   3.843   0.511 -0.0013  0.0984  0.0724
  877W        W 4941   5.488   7.650   0.481 -0.0573  0.0481  0.0666
  878W        W 4942   2.031   0.231  11.013 -0.3033 -0.2167 -0.0354
  879W        W 4943  10.100   2.569   9.977  0.1530  0.1061 -0.1863
  880W        W 4944   3.627   5.494   1.685 -0.0852 -0.0753  0.2210
  881W        W 4945   0.101   0.284   3.158 -0.0830 -0.0847 -0.3486
  882W        W 4946   6.214   2.390   2.906  0.0729 -0.2826  0.1256
  883W        W 4947   3.924   3.176   7.119  0.2320 -0.3592 -0.0940
  884W        W 4948   4.365   5.516  10.463 -0.4876  0.2444 -0.2490
  885W        W 4949   2.658   1.451   1.560 -0.3661 -0.0322 -0.0573
  886W        W 4950   2.472   8.168   7.681  0.3701  0.0144  0.0334
  887W        W 4951   7.305   7.436   9.713  0.0055  0.2544  0.1550
  888W        W 4952   1.645   8.071   0.941  0.0804 -0.0482 -0.0383
  889W        W 4953   9.601   5.701   9.544 -0.0453 -0.0859 -0.1192
  890W        W 4954   6.225   4.537  10.000  0.4449  0.1934  0.0337
  891W        W 4955  10.060   2.381   0.035 -0.0706  0.0781 -0.0011
  892W        W 4956   3.520   0.278   0.939  0.1450  0.0682 -0.0410
  893W        W 4957  10.296   0.390  11.293 -0.2435 -0.4645  0.0871
  894W        W 4958   9.192   7.909   0.017 -0.2403  0.0799 -0.2154
  895W        W 4959  10.373   3.421   7.915  0.1467  0.1692  0.2540
  896W        W 4960   9.203   4.910   8.656  0.2018 -0.3444  0.2101
  897W        W 4961   7.387   7.030   0.702 -0.2398 -0.3720  0.2476
  898W        W 4962   9.296   9.700  10.537 -0.3878  0.0289 -0.0109
  899W        W 4963   7.011   9.240  11.298 -0.2115  0.1242 -0.2655
  900W        W 4964   5.321   8.509  11.261  0.2743  0.1887  0.2795
  901W        W 4965   5.101   3.882   3.028  0.0938 -0.0100 -0.1171
  902W        W 4966   3.503   4.035   3.341  0.2872 -0.4134 -0.3590
  903W        W 4967  10.322   4.055   7.357 -0.2094  0.0162  0.0743
  904W        W 4968   8.918   7.867   2.173 -0.3615  0.1474 -0.3313
  905W        W 4969   1.284   5.110   0.994  0.1420 -0.0694 -0.2250
  906W        W 4970  10.155   4.005   9.304  0.0277  0.0039 -0.2199
  907W        W 4971   1.253   2.178   1.812 -0.1577  0.1429  0.0024
  908W        W 4972   5.705   2.264  10.816 -0.0833 -0.0288 -0.3025
  909W        W 4973   4.848   2.381   0.018  0.3852  0.1665  0.0449
  910W        W 4974   9.280   9.346   2.257 -0.1031  0.0333  0.2211
  911W        W 4975   1.795   9.968  11.289 -0.0203  0.1893 -0.1710
  912W        W 4976   9.317   7.896   0.502  0.1151 -0.1101 -0.1292
  913W        W 4977   2.575   0.348   3.858 -0.2225 -0.1060 -0.0981
  914W        W 4978   2.341   0.842   1.026 -0.0544  0.1312  0.0006
  915W        W 4979   2.220   7.737   1.795 -0.3598 -0.2480 -0.1775
  916W        W 4980   5.426   1.547   2.720  0.0866  0.1628 -0.1047
  917W        W 4981   1.081   0.029   9.774  0.2560 -0.0851 -0.1056
  918W        W 4982   5.267  10.710   9.993 -0.0953 -0.0574  0.0070
  919W        W 4983   6.622   0.617   0.126 -0.2917 -0.0685  0.1139
  920W        W 4984   9.922   5.971   9.090 -0.0468 -0.0566 -0.0528
  921W        W 4985   7.582   8.278  10.544  0.4106  0.1845 -0.2594
  922W        W 4986   7.416   5.473   1.061  0.1486 -0.0863 -0.1244
  923W        W 4987   5.704   4.872   3.714  0.0061  0.0257  0.0029
  924W        W 4988   5.978   5.225   9.723  0.2022 -0.3074 -0.0984
  925W        W 4989   2.182   9.001   0.359 -0.4571  0.1863 -0.2971
  926W        W 4990   3.759   9.669   7.692  0.0015  0.2831  0.4005
  927W        W 4991   5.234   8.026  10.217  0.4409  0.5110  0.0267
  928W        W 4992   8.057   1.261  11.170 -0.2344 -0.0161 -0.1998
  929W        W 4993   7.784   0.409   1.029  0.1927  0.3816  0.2830
  930W        W 4994   5.636   8.063   9.239  0.0116  0.0120  0.1904
  931W        W 4995   8.492   6.438   9.098  0.0774 -0.0859  0.2250
  932W        W 4996   4.311   4.295   1.428 -0.0125  0.1121 -0.1458
  933W        W 4997   1.530   5.673   0.662 -0.1170 -0.3192  0.1538
  934W        W 4998   1.610   3.896   0.735 -0.2115 -0.2608  0.1261
  935W        W 4999   4.301  10.628   1.002  0.0870 -0.0633  0.0314
  936W        W 5000   5.006   6.398   2.471 -0.0459  0.0908  0.0162
  937W        W 5001  10.648   0.317   2.728 -0.1203  0.1696 -0.0640
  938W        W 5002   5.064   4.469   8.745 -0.0339  0.2259 -0.1215
  939W        W 5003   4.447   2.720  10.868 -0.0806  0.2811  0.3001
  940W        W 5004   7.410   1.205   1.021  0.2001  0.1306 -0.1948
  941W        W 5005   7.541   2.951   9.625  0.0558 -0.0562  0.1470
  942W        W 5006   6.738   9.948   8.363 -0.2332 -0.1745  0.7219
  943W        W 5007   5.959   8.488  10.600 -0.0772 -0.2566 -0.1694
  944W        W 5008   9.935  10.567  10.631 -0.0445  0.2580  0.1986
  945W        W 5009   3.229  10.542   2.182  0.1420  0.0400  0.0213
  946W        W 5010   7.697   6.485   2.442 -0.0026 -0.0063 -0.0541
  947W        W 5011   0.539   5.775   0.475 -0.0998  0.0402 -0.0121
  948W        W 5012   0.822   8.880   0.103 -0.1393 -0.0912 -0.0209
  949W        W 5013   3.357   0.214   0.032 -0.3202  0.3329 -0.3433
  950W        W 5014   7.245   4.706   9.943 -0.3542 -0.0705  0.3373
  951W        W 5015   6.456   8.310  11.271 -0.0145 -0.2945  0.0936
  952W        W 5016   2.399   6.531   0.331  0.0518 -0.2772  0.0722
  953W        W 5017   5.020   2.022   7.877 -0.0695 -0.1860  0.1417
  954W        W 5018   1.856   7.524   1.571  0.2582  0.0475 -0.2381
  955W        W 5019   0.512   8.857   8.610  0.1086  0.1391  0.0483
  956W        W 5020   6.208   8.652   8.876 -0.0949 -0.1463 -0.0466
  957W        W 5021  10.566   2.027   1.686 -0.0795  0.1053  0.0043
  958W        W 5022  10.026   0.074  11.047  0.3924  0.3303  0.1738
  959W        W 5023   8.815  10.415   1.248 -0.1887  0.0702 -0.1548
  960W        W 5024   1.346   5.293   6.960  0.4369 -0.0759  0.1344
  961W        W 5025   3.431   2.330  11.005  0.1436 -0.1875 -0.0086
  962W        W 5026   4.818   9.777   7.980  0.0728 -0.1652 -0.1931
  963W        W 5027   0.347  10.571   9.325  0.1609 -0.0300  0.1853
  964W        W 5028  10.268   3.443   2.876 -0.2007  0.1577 -0.1849
  965W        W 5029   4.656   6.571   0.098  0.0556  0.1996 -0.0572
  966W        W 5030   4.064   8.608   9.687  0.0842 -0.1497 -0.0593
  967W        W 5031   9.244   0.703   9.818  0.3098  0.3610  0.1010
  968W        W 5032   3.057   7.522  10.673  0.3348 -0.0037  0.0799
  969W        W 5033   5.776   8.404   8.848  0.0095 -0.1590  0.0973
  970W        W 5034   3.932   0.286  10.148  0.0550 -0.0539 -0.0769
  971W        W 5035   7.960   3.513   8.967  0.2374  0.0568 -0.0696
  972W        W 5036   6.548  10.398   0.686 -0.0088  0.0446 -0.0076
  973W        W 5037  10.535   0.436   8.912  0.1753 -0.1320 -0.1090
  974W        W 5038   4.094   0.951   8.585 -0.0391  0.1237  0.0019
  975W        W 5039   4.463   2.033   3.382  0.0002 -0.2037 -0.0909
  976W        W 5040  10.623   1.567  10.612 -0.0583 -0.2903  0.0174
  977W        W 5041   5.853   7.291  10.789 -0.2428  0.0247 -0.2342
  978W        W 5042   3.190   6.059   9.706  0.2538 -0.3190  0.2036
  979W        W 5043   5.779   8.670   7.614  0.2889 -0.3455 -0.2935
  980W        W 5044   1.799   1.145  10.796  0.0618  0.0554  0.0762
  981W        W 5045   5.401   1.747   8.893 -0.1068 -0.1051 -0.0383
  982W        W 5046   8.232   1.701   8.191 -0.0723  0.0859 -0.2427
  983W        W 5047   0.578   2.447   8.436  0.1169  0.1640 -0.5287
  984W        W 5048   8.487   2.219   8.506 -0.1043 -0.1237 -0.0321
  985W        W 5049   2.427   6.539   8.222 -0.3145 -0.1716  0.2663
  986W        W 5050  10.390  10.285   0.501 -0.0037  0.0620 -0.1336
  987W        W 5051   8.844   5.501   1.086  0.1036  0.2350 -0.2381
  988W        W 5052   2.469   3.711   8.172 -0.2540  0.1898 -0.1598
  989W        W 5053   2.156   9.397   8.804  0.0404 -0.2079  0.1755
  990W        W 5054   0.774   5.996   8.397  0.0414 -0.0339  0.0728
  991W        W 5055   2.588   9.076   9.019  0.2861 -0.0126 -0.0989
  992W        W 5056   5.338   8.672   8.655 -0.2309  0.1697 -0.1049
  993W        W 5057   5.782   7.833   0.037  0.3498  0.0910  0.3178
  994W        W 5058   0.761   4.831   0.591 -0.0503  0.0323  0.2391
  995W        W 5059   2.667   0.871   0.201 -0.0973  0.0387 -0.1899
  996W        W 5060   0.620   9.897   9.733  0.0583 -0.1390  0.0399
  997W        W 5061   0.671   5.560   1.872  0.0165 -0.2572 -0.1458
  998W        W 5062   2.082   0.072   2.770  0.1281 -0.0496 -0.1211
  999W        W 5063   3.690   2.862   0.926 -0.0621  0.2209 -0.0554
 1000W        W 5064   4.457   1.893  11.368 -0.0010 -0.0952  0.2792
 1001W        W 5065   9.400   6.217   0.113 -0.1120 -0.0273 -0.1094
 1002W        W 5066   6.084   8.506   0.737  0.2401 -0.0348  0.2705
 1003W        W 5067   5.421  10.423   9.535  0.2488  0.2943 -0.3451
 1004W        W 5068   4.499   8.934   8.139 -0.1442 -0.2179 -0.0383
 1005W        W 5069   9.005   8.036  10.212 -0.3161  0.1636  0.0378
 1006W        W 5070   3.581   7.455  10.998 -0.0121 -0.1046  0.0085
 1007W        W 5071   5.011  10.597   2.128 -0.0249 -0.1888  0.1703
 1008W        W 5072   5.092   1.155   7.876 -0.2176 -0.0955  0.1040
 1009W        W 5073   9.515  10.660  10.303 -0.0173  0.2402 -0.1273
 1010W        W 5074   0.174   7.913   1.610  0.1885 -0.0420  0.0177
 1011W        W 5075   3.341   7.196   8.303  0.0272 -0.3461 -0.2050
 1012W        W 5076   4.134   1.288   1.095 -0.1056  0.1312 -0.1007
 1013W        W 5077   3.732   9.051   9.654 -0.2967 -0.0734  0.1608
 1014W        W 5078   3.997   0.013   8.225  0.0442 -0.0041 -0.2322
 1015W        W 5079   6.600   5.540   9.001  0.2813  0.0768  0.0362
 1016W        W 5080   4.189   6.043   7.761  0.0139 -0.4112  0.0795
 1017W        W 5081   8.630   1.261   0.955 -0.0679 -0.1501  0.0132
 1018W        W 5082   6.902   5.975  11.232  0.4509 -0.0157 -0.1230
 1019W        W 5083   2.932   5.245   2.789  0.0939  0.1124  0.1700
 1020W        W 5084   7.191   3.282   0.263 -0.0492 -0.0422 -0.1016
 1021W        W 5085   1.864   5.667   9.900  0.3885  0.0290  0.0097
 1022W        W 5086   0.583   0.318  10.701  0.2291  0.0908  0.1680
 1023W        W 5087   8.070   9.557   1.854  0.2553 -0.1211 -0.1745
 1024W        W 5088   1.181   1.142   3.220  0.3734  0.1214 -0.3029
 1025W        W 5089   0.163   3.867   8.108 -0.2241 -0.2202 -0.2198
 1026W        W 5090   2.396   7.296   1.774 -0.0793 -0.0771  0.0321
 1027W        W 5091   9.238   6.648   8.405 -0.0233 -0.2192  0.0200
 1028W        W 5092   0.716   0.697  10.379  0.0718 -0.1073  0.0707
 1029W        W 5093   9.506   9.454   8.314  0.3508  0.4872 -0.2809
 1030W        W 5094   2.749   3.934   0.879 -0.0579 -0.2425 -0.5609
 1031W        W 5095   6.533   2.629  10.241 -0.1211 -0.1642 -0.1445
 1032W        W 5096  10.599   1.399   8.615 -0.1599  0.2847 -0.2920
 1033W        W 5097   4.897   6.180   2.894 -0.1511  0.0838  0.2142
 1034W        W 5098   4.407   7.321   9.394 -0.3579 -0.2508  0.0295
 1035W        W 5099   6.377   3.236   0.837 -0.1688 -0.1298  0.1897
 1036W        W 5100   8.049   4.186   8.838 -0.1141  0.1664  0.0530
 1037W        W 5101   5.007   8.924   8.374 -0.2290  0.2107 -0.1294
 1038W        W 5102   0.305   7.845   2.666  0.1848 -0.1709  0.0789
 1039W        W 5103   8.358   1.636   0.142  0.1666  0.1939  0.2805
 1040W        W 5104   1.610  10.037   8.262 -0.0785 -0.2187 -0.3872
 1041W        W 5105   9.286   4.499   7.886  0.1109  0.1149  0.2517
 1042W        W 5106   2.128   9.427   2.813  0.0031  0.1350  0.4172
 1043W        W 5107   4.482   4.417   7.984  0.1282  0.0943 -0.1600
 1044W        W 5108   9.987   4.873   9.368 -0.2123  0.2775  0.1182
 1045W        W 5109   3.649   3.902   6.960  0.3179  0.1419 -0.3184
 1046W        W 5110   2.057   8.530   3.164 -0.3217  0.4534 -0.0998
 1047W        W 5111   7.379   6.552  10.819  0.1597 -0.2627  0.0752
 1048W        W 5112   7.538   3.044  11.334 -0.1609  0.0916  0.2925
 1049W        W 5113   9.366  10.691   0.439  0.1772 -0.4718  0.1009
 1050W        W 5114   5.154   2.083   2.707  0.0202 -0.1261  0.4191
 1051W        W 5115   2.838   7.667   1.072 -0.0838 -0.0011  0.2815
 1052W        W 5116   1.609   9.336   1.096 -0.0616 -0.0252 -0.4313
 1053W        W 5117   3.650   2.600   0.124  0.2159 -0.0759  0.1670
 1054W        W 5118   1.930  10.467   1.944  0.2009  0.0230 -0.3300
 1055W        W 5119  10.718   3.331   8.244  0.0812 -0.0716 -0.1243
 1056W        W 5120   3.618   0.613  10.471 -0.0116 -0.1295  0.0705
 1057W        W 5121   0.786   5.477   3.007 -0.1655  0.0848 -0.1985
 1058W        W 5122   5.879   2.506   7.894  0.1082 -0.1331  0.2717
 1059W        W 5123   8.610   3.496  10.081 -0.2030 -0.2791 -0.2294
 1060W        W 5124   6.491   9.646   9.208  0.2402  0.1230  0.0614
 1061W        W 5125   5.025   5.206   1.615  0.5085  0.1883 -0.0233
 1062W        W 5126   1.337   1.110  11.016 -0.1263  0.1197  0.1628
 1063W        W 5127   3.579   7.671   2.432  0.0061 -0.0068  0.1226
 1064W        W 5128   6.096   8.103   8.455 -0.0199  0.1231  0.1242
 1065W        W 5129   6.596   2.073   9.380  0.2639 -0.2634 -0.0353
 1066W        W 5130   2.139   2.913  10.432 -0.0302 -0.0177 -0.1487
 1067W        W 5131   4.870   8.871   9.046  0.3019  0.0260  0.1933
 1068W        W 5132   6.890   2.970  10.351  0.0569  0.0342  0.1709
 1069W        W 5133   3.468  10.159   8.213 -0.0859  0.2083 -0.3292
 1070W        W 5134   5.442   9.441   1.561 -0.1581 -0.1984  0.2095
 1071W        W 5135   1.307   8.700   9.698  0.0022 -0.1954  0.1000
 1072W        W 5136   2.180  10.343   2.923  0.7672  0.2504 -0.1062
 1073W        W 5137   6.384   8.064   0.725 -0.0553 -0.0550  0.0713
 1074W        W 5138   7.556   5.862   1.878 -0.0941  0.0510  0.0819
 1075W        W 5139   9.968   9.541   8.515 -0.1947 -0.0908  0.5243
 1076W        W 5140   4.255  10.603   7.852  0.3164 -0.0617  0.0150
 1077W        W 5141   3.864   4.195   7.427  0.2624 -0.1090 -0.1133
 1078W        W 5142   5.772   6.562   1.947 -0.0102 -0.2128 -0.2110
 1079W        W 5143   8.125  10.020  10.604 -0.0738  0.0219  0.1953
 1080W        W 5144   0.147   8.828  10.548 -0.1413  0.0813 -0.1590
 1081W        W 5145   9.611   3.114   2.588  0.0992 -0.1554 -0.0715
 1082W        W 5146   5.474   2.129   0.685 -0.3338  0.2628  0.0030
 1083W        W 5147   3.719   4.334  11.121 -0.0643  0.1239  0.0647
 1084W        W 5148   9.122  10.493  10.529 -0.1291  0.1956 -0.0769
 1085W        W 5149   8.957   8.277   8.774 -0.1242  0.0499 -0.0907
 1086W        W 5150   4.962  10.476   1.628  0.1061 -0.1628  0.0101
 1087W        W 5151   2.352   8.676   2.260  0.1411 -0.2535 -0.0209
 1088W        W 5152   5.093   4.705   8.245 -0.0188  0.0571 -0.0233
 1089W        W 5153   2.667   7.815   1.524 -0.2203  0.0021 -0.2869
 1090W        W 5154   3.825   8.967  10.444 -0.3011  0.0605  0.2366
 1091W        W 5155   1.286   4.874   0.376 -0.0622 -0.0538  0.0047
 1092W        W 5156   2.165   2.697   9.970 -0.0244  0.2219 -0.2911
 1093W        W 5157   6.218   4.985   7.646  0.2579  0.0299  0.0023
 1094W        W 5158   7.599   9.508   1.601  0.0967 -0.2000 -0.2129
 1095W        W 5159  10.082   4.840   1.816  0.1533 -0.0966 -0.1969
 1096W        W 5160   7.537   4.491   0.420 -0.0143 -0.1601  0.0626
 1097W        W 5161   1.255   1.074   7.497 -0.0332  0.0105  0.0882
 1098W        W 5162   2.416   5.785   8.577 -0.0862  0.0991 -0.0184
 1099W        W 5163   9.273   0.532   3.773  0.0297  0.3528 -0.0213
 1100W        W 5164   8.666   8.601   3.278  0.0310  0.0704 -0.1146
 1101W        W 5165  10.553   0.610  10.133 -0.0433 -0.0443 -0.0075
 1102W        W 5166   5.531   3.016   8.606  0.1183 -0.1919  0.1807
 1103W        W 5167  10.220   4.920   1.345  0.0063  0.3813 -0.1365
 1104W        W 5168   3.163   7.132  10.121  0.2933  0.0182  0.0134
 1105W        W 5169   4.389   2.784   8.714  0.0287  0.1488 -0.2032
 1106W        W 5170   7.308   8.512   0.796  0.2530  0.1604  0.0156
 1107W        W 5171   2.241   8.909   2.921 -0.0216  0.1394 -0.1611
 1108W        W 5172   7.963   5.308   7.902  0.0136  0.3357 -0.0166
 1109W        W 5173   5.994   0.354   9.933 -0.0108  0.2267  0.2290
 1110W        W 5174   6.377   9.270   3.194  0.1390 -0.2467 -0.0025
 1111W        W 5175   4.628   6.344   7.844 -0.0535 -0.2774  0.2759
 1112W        W 5176   1.819   1.270   9.750 -0.0902  0.1606 -0.0396
 1113W        W 5177   6.776   9.964   1.728  0.4439  0.3216  0.1826
 1114W        W 5178   5.221   7.169   7.777  0.0136  0.3023 -0.1980
 1115W        W 5179   4.187   1.702   7.462  0.2067 -0.2539 -0.0395
 1116W        W 5180   6.935   7.951   1.616 -0.0263  0.1842 -0.0179
 1117W        W 5181   4.376  10.280   9.887 -0.0894 -0.0282  0.1442
 1118W        W 5182   4.807   7.733  10.280  0.0947 -0.2194  0.1299
 1119W        W 5183   2.685   0.850   8.810 -0.2883  0.0565  0.4238
 1120W        W 5184   6.832   4.923   1.674 -0.3768 -0.4415  0.1013
 1121W        W 5185   4.519   7.885   1.848 -0.2684 -0.2959 -0.2139
 1122W        W 5186   2.457   1.621  10.921 -0.2085 -0.2873 -0.0006
 1123W        W 5187   2.233   9.888   4.148  0.2552  0.0791 -0.1617
 1124W        W 5188   4.587   2.862   6.622 -0.0222 -0.2999  0.1431
 1125W        W 5189   6.390   1.397   2.794 -0.1894  0.3124  0.2038
 1126W        W 5190   8.009   4.342   8.274  0.2186 -0.1132 -0.0623
 1127W        W 5191   9.295   2.250   0.474  0.1414  0.3268  0.1984
 1128W        W 5192   9.230   6.838   8.874  0.1677  0.0106  0.1708
 1129W        W 5193   6.265   0.455   8.594 -0.1199  0.0474  0.0714
 1130W        W 5194   0.646   7.817   9.412 -0.1673  0.0645 -0.1697
 1131W        W 5195   5.074   5.488   9.985 -0.0452 -0.1631 -0.1779
 1132W        W 5196   8.748   3.367   8.454 -0.1199 -0.1516  0.0336
 1133W        W 5197   0.481   9.267   0.033 -0.2652  0.1501 -0.0226
 1134W        W 5198   6.109   4.397   1.562 -0.2634  0.0256 -0.1853
 1135W        W 5199  10.260   7.478   9.863  0.0470  0.0253  0.1326
 1136W        W 5200   1.513   3.552   2.655  0.0696 -0.0582  0.3315
 1137W        W 5201   6.578   6.172   2.398 -0.3287  0.0856 -0.2446
 1138W        W 5202   5.928   7.810   8.975 -0.0403  0.2961 -0.5737
 1139W        W 5203  10.379   8.438   2.652  0.0693 -0.0403 -0.2047
 1140W        W 5204   9.863   8.304  10.578 -0.0988 -0.2134  0.0234
 1141W        W 5205   9.693   7.993   9.545 -0.4034 -0.1506 -0.1424
 1142W        W 5206   6.484   2.328   0.720  0.2534  0.1399 -0.0890
 1143W        W 5207   3.659   3.528   0.127 -0.2126 -0.1486 -0.1505
 1144W        W 5208   3.644   4.541  10.658  0.3573  0.1419  0.1318
 1145W        W 5209   2.761   1.222   7.255 -0.2256  0.0561 -0.1042
 1146W        W 5210   3.267   7.245   8.777 -0.2664 -0.0865 -0.0548
 1147W        W 5211   8.403   4.646   9.613 -0.0798 -0.0721 -0.0963
 1148W        W 5212   7.511   9.184  10.181 -0.0436  0.1159 -0.3086
 1149W        W 5213   8.976   0.662   8.803  0.2540  0.3023  0.1036
 1150W        W 5214   6.321   8.545   1.589  0.2746 -0.0621  0.1249
 1151W        W 5215   7.223   4.293   2.766  0.2287  0.1891 -0.3048
 1152W        W 5216   2.688   3.983   8.571 -0.0478 -0.2630  0.1330
 1153W        W 5217   1.880   7.688   2.250  0.0602  0.1524  0.0883
 1154W        W 5218   2.392   8.617  10.467  0.2958  0.2383 -0.0668
 1155W        W 5219   9.307   5.169   1.234  0.0915  0.1248  0.1304
 1156W        W 5220   2.473   0.439   3.048  0.0127  0.0888 -0.1026
 1157W        W 5221   2.081  10.057   2.252 -0.2408 -0.1726  0.0071
 1158W        W 5222   5.256   3.864   7.164 -0.0957  0.3407  0.2939
 1159W        W 5223   2.963   1.256   0.232  0.0473 -0.0255 -0.0783
 1160W        W 5224   9.049   4.705   1.294  0.2053  0.2762 -0.0523
 1161W        W 5225   8.260   2.899   0.163  0.2040 -0.2921  0.2893
 1162W        W 5226  10.424   6.539   1.962  0.0872  0.1192  0.1412
 1163W        W 5227   1.025   0.744   7.812  0.0291  0.2010  0.1201
 1164W        W 5228   1.949   7.542   8.730 -0.0508  0.2528  0.0194
 1165W        W 5229   5.480   6.154   1.828 -0.0023  0.1887  0.0919
 1166W        W 5230   0.193   2.155   8.181  0.2038  0.2120  0.2332
 1167W        W 5231   9.869   4.357   1.649  0.2570  0.1885 -0.0766
 1168W        W 5232   2.061   4.939   1.597 -0.0186 -0.0402 -0.0831
 1169W        W 5233   3.190   1.704   2.681 -0.0204  0.0625 -0.0620
 1170W        W 5234   7.923   6.168   7.893 -0.1924 -0.0645 -0.2533
 1171W        W 5235   7.683   9.987   0.918  0.0230  0.0655  0.1113
 1172W        W 5236   3.782   1.457   8.700  0.0092  0.1409  0.0074
 1173W        W 5237   7.000   5.685   1.887  0.0041  0.1556  0.0939
 1174W        W 5238   2.132   4.384  10.293 -0.2267 -0.0880  0.0314
 1175W        W 5239   5.075   0.879  10.717 -0.6726 -0.3582 -0.3732
 1176W        W 5240   1.825   8.970   3.217 -0.0829  0.0804 -0.0786
 1177W        W 5241   0.626   2.460   7.952  0.2438  0.3932 -0.3338
 1178W        W 5242   5.309   2.821  10.114 -0.1368 -0.0133  0.1486
 1179W        W 5243   1.007   7.832   1.583 -0.0894 -0.0408 -0.4367
 1180W        W 5244   8.688   5.750   8.445 -0.1807 -0.1671 -0.3241
 1181W        W 5245   0.505   6.865   0.579  0.0429  0.0840 -0.2786
 1182W        W 5246   4.762   5.187   7.816  0.1040 -0.2596  0.3494
 1183W        W 5247   8.956   9.356  10.251 -0.1023 -0.0608 -0.2678
 1184W        W 5248   4.351   0.243  11.118 -0.2038 -0.1353  0.2781
 1185W        W 5249   8.651   9.674   1.031 -0.0135 -0.2431 -0.0314
 1186W        W 5250   8.004   2.768   8.982 -0.2074  0.0529  0.0216
 1187W        W 5251   8.316   6.796   9.446 -0.0775 -0.2136 -0.1643
 1188W        W 5252   9.515   2.440   1.726  0.0991  0.1561 -0.2228
 1189W        W 5253   6.856   1.225  10.763 -0.0125 -0.2721  0.0311
 1190W        W 5254   0.755   5.029   1.971  0.1252 -0.0920  0.0508
 1191W        W 5255   4.564   0.153  10.703 -0.0428  0.0773  0.0965
 1192W        W 5256   2.327   3.120   0.897  0.0165 -0.0745 -0.0146
 1193W        W 5257   8.938   5.536   7.692 -0.1133 -0.1023  0.0890
 1194W        W 5258   0.204   4.093   0.161 -0.0915 -0.0265 -0.1681
 1195W        W 5259   2.827   8.458   2.156  0.0845  0.2058 -0.1367
 1196W        W 5260   8.802   9.149   8.563 -0.0341  0.1078 -0.0175
 1197W        W 5261   9.641   5.892   7.913 -0.2119  0.0241  0.1830
 1198W        W 5262   3.863   9.807   8.287 -0.2441  0.0879  0.1061
 1199W        W 5263   6.803   1.169   8.630  0.2989 -0.2378  0.1600
 1200W        W 5264   3.834   0.435   9.661  0.1167  0.0326 -0.1756
 1201W        W 5265   3.479   2.962  10.985  0.0096 -0.3522 -0.0622
 1202W        W 5266   9.448   2.503   0.895 -0.0537  0.1475  0.3101
 1203W        W 5267   9.360   4.362   8.930  0.0856  0.0304  0.1334
 1204W        W 5268   4.737   0.432   9.484 -0.0636  0.1432 -0.3144
 1205W        W 5269   9.871   5.694   0.280  0.4487  0.0141  0.1268
 1206W        W 5270   2.852   7.871   6.954 -0.0694 -0.0525 -0.2047
 1207W        W 5271   3.075  10.300   9.170 -0.1312 -0.2578 -0.0588
 1208W        W 5272   7.637   0.611   9.903  0.2027  0.3828  0.1150
 1209W        W 5273   2.347   8.266   8.156  0.2236 -0.2654  0.0146
 1210W        W 5274  10.759   5.367   2.339 -0.0158  0.0327 -0.2708
 1211W        W 5275   8.142   5.121   9.612  0.0155  0.2899  0.1221
 1212W        W 5276  10.689  10.470   3.173  0.1758  0.1841  0.2091
 1213W        W 5277   6.983   5.944   9.487  0.2684  0.0434 -0.2276
 1214W        W 5278   7.264   9.386   8.866 -0.2866 -0.0966  0.1794
 1215W        W 5279   2.751   7.222  10.432 -0.1055 -0.2043 -0.3679
 1216W        W 5280   7.283   0.739   9.546 -0.0850  0.2276 -0.0229
 1217W        W 5281   4.084   8.669  10.837  0.2987 -0.1044 -0.4141
 1218W        W 5282   4.949   1.142  10.217 -0.1324 -0.0075  0.1139
 1219W        W 5283   3.682   8.383   2.223  0.0376 -0.1005  0.3062
 1220W        W 5284   5.436   9.583   7.305 -0.1322 -0.1436  0.2511
 1221W        W 5285   9.935   9.998  10.192  0.0864  0.0922 -0.0029
 1222W        W 5286   2.268   7.238   0.870  0.2826  0.1670 -0.1558
 1223W        W 5287   7.852   4.375   0.777  0.0586 -0.1240 -0.3758
 1224W        W 5288   5.495   6.267   0.489  0.0870 -0.0704  0.0775
 1225W        W 5289   4.615   3.159  10.298 -0.1994 -0.3331  0.2756
 1226W        W 5290   4.560   2.350   8.465  0.0368  0.2817  0.1310
 1227W        W 5291   8.150   7.942  11.164 -0.2125 -0.1480 -0.1727
 1228W        W 5292  10.732   1.985   0.273 -0.2605 -0.1808  0.3140
 1229W        W 5293   0.599   0.746   3.618  0.1484 -0.0014 -0.3635
 1230W        W 5294   1.047   7.391  10.998 -0.2384  0.0668  0.1558
 1231W        W 5295   9.259   4.839   9.802  0.2409 -0.0653  0.0561
 1232W        W 5296   9.641   6.306  10.780 -0.1996 -0.0697  0.0080
 1233W        W 5297   4.907   3.340   9.328 -0.0420  0.0981  0.2142
 1234W        W 5298   8.483   2.356   1.067 -0.0656 -0.1057  0.1121
 1235W        W 5299   2.752   0.196  10.005  0.2522  0.2034  0.2703
 1236W        W 5300   8.746   6.654   1.491  0.0876 -0.4455 -0.0659
 1237W        W 5301   6.221   9.834   2.245 -0.0606  0.1916 -0.1094
 1238W        W 5302   3.474  10.305   9.985 -0.0891  0.2798  0.3295
 1239W        W 5303   1.784   1.266   8.556  0.1259 -0.2234  0.1775
 1240W        W 5304   1.105   4.290   1.935 -0.1212 -0.3401 -0.0413
 1241W        W 5305   3.774   1.695   0.068 -0.2160  0.1576  0.0973
 1242W        W 5306   8.635  10.362  10.598  0.1285  0.2014  0.0650
 1243W        W 5307   6.347   4.666   3.003 -0.1610  0.0035  0.2791
 1244W        W 5308   5.967   8.740   1.293  0.1924  0.0921  0.1340
 1245W        W 5309   8.656   1.934   2.100 -0.0306 -0.0343  0.1352
 1246W        W 5310   6.668   0.523   2.090 -0.1295  0.1389  0.1418
 1247W        W 5311   5.329   2.602   9.626 -0.0607  0.1173  0.0993
 1248W        W 5312   8.185   9.408   0.177  0.0255  0.1163 -0.2562
 1249W        W 5313   7.740   9.998   2.875  0.1829  0.1182  0.0349
 1250W        W 5314   8.101   0.600  10.770 -0.1816  0.0357 -0.3441
 1251W        W 5315   4.952   0.416  10.003 -0.1679  0.2731  0.0955
 1252W        W 5316   2.993   8.786   1.490 -0.1407 -0.2403  0.3148
 1253W        W 5317   4.421   8.748   9.229 -0.0428 -0.0066  0.1753
 1254W        W 5318  10.270   4.246   8.865 -0.0122 -0.5221 -0.0416
 1255W        W 5319   5.238  10.143   1.321  0.0214 -0.0806 -0.0631
 1256W        W 5320  10.649   7.794  10.098 -0.0521  0.0892  0.4813
 1257W        W 5321   0.720   3.431   1.330  0.0419 -0.1715 -0.4186
 1258W        W 5322   1.117   2.547   8.529  0.0372  0.0430  0.2295
 1259W        W 5323   0.377   7.908  10.862 -0.1378  0.1243  0.2795
 1260W        W 5324   6.942   6.207   0.322  0.1953 -0.0701  0.3863
 1261W        W 5325   9.906   4.414   8.562 -0.1704 -0.1851 -0.3462
 1262W        W 5326   7.505   2.749   2.733  0.0383 -0.1232  0.0963
 1263W        W 5327   7.094   1.063   0.597  0.0708 -0.1743 -0.4078
 1264W        W 5328   8.889   9.200   9.614  0.0922  0.4795  0.0355
 1265W        W 5329   2.955   9.974   8.745 -0.1596  0.2246  0.0247
 1266W        W 5330   2.441   9.771   2.495  0.1010 -0.0578  0.2783
 1267W        W 5331   0.378   5.310   1.039  0.2794  0.0982 -0.2247
 1268W        W 5332   1.444   2.675   1.187 -0.3837 -0.2499  0.0953
 1269W        W 5333   5.303   4.086   1.264  0.1175  0.2421 -0.1427
 1270W        W 5334  10.296   3.623   8.335 -0.1684  0.2134  0.1489
 1271W        W 5335   9.972   5.987   9.857 -0.0590 -0.1944 -0.0295
 1272W        W 5336   6.412   3.932   1.554  0.1553  0.1951 -0.3795
 1273W        W 5337   0.708   4.509   1.067 -0.1909  0.0801  0.0005
 1274W        W 5338   3.054   6.582   7.054  0.1075  0.0448  0.0334
 1275W        W 5339   8.924   0.803  10.817 -0.1930  0.0720 -0.1029
 1276W        W 5340   3.143  10.131  10.443 -0.2199 -0.0497 -0.0219
 1277W        W 5341   1.331   9.133   1.484  0.3494  0.1273 -0.0495
 1278W        W 5342   1.430   1.666   8.697  0.0359  0.1270 -0.1325
 1279W        W 5343   6.028   8.342   7.906 -0.3828  0.0322  0.2509
 1280W        W 5344   9.629   7.076   0.589 -0.0078  0.0501  0.0283
 1281W        W 5345   3.035   1.462   1.096  0.0224  0.0170 -0.3389
 1282W        W 5346   0.514   7.633   1.371 -0.1495  0.1168  0.0917
 1283W        W 5347   0.022   0.449  10.577 -0.2592 -0.1838  0.0099
 1284W        W 5348   6.263   0.312   3.918 -0.3412 -0.0028 -0.1663
 1285W        W 5349   3.926  10.208   3.394 -0.1404 -0.0278  0.1512
 1286W        W 5350   1.539   0.122   4.177  0.0095 -0.2268  0.0208
 1287W        W 5351   8.423   5.794  11.245 -0.0468 -0.0524  0.0175
 1288W        W 5352   0.603   0.782   0.736 -0.0533  0.0894  0.1008
 1289W        W 5353   3.741   7.035   8.690  0.3575  0.3309 -0.0168
 1290W        W 5354   6.310   3.810   0.691  0.0649 -0.1952  0.1896
 1291W        W 5355   6.514   5.890   7.281  0.2321 -0.1502  0.2291
 1292W        W 5356   1.070   9.885   9.333 -0.2461  0.2201 -0.1191
 1293W        W 5357   5.791   2.042   9.261  0.4504 -0.1687 -0.0949
 1294W        W 5358   0.653   2.632  10.194 -0.2001  0.0267  0.2006
 1295W        W 5359  10.381   2.589   3.224 -0.1428  0.2592  0.3885
 1296W        W 5360   0.538   1.256   2.845 -0.6743  0.0907  0.2248
 1297W        W 5361   6.926   1.832  10.217  0.1313  0.2905 -0.0492
 1298W        W 5362   9.685   0.289  10.590  0.3434  0.2567  0.2476
 1299W        W 5363   9.543   6.583   0.418  0.0147 -0.1521 -0.2653
 1300W        W 5364   1.117  10.521   8.610 -0.2113  0.0697 -0.1232
 1301W        W 5365   4.360   7.738   8.953  0.0917  0.1108  0.0855
 1302W        W 5366   1.249   0.090   3.214 -0.1337 -0.2314 -0.2188
 1303W        W 5367   2.333   1.702   0.638  0.2262  0.3678 -0.2211
 1304W        W 5368   0.260   3.798   9.902  0.1186  0.2754 -0.0055
 1305W        W 5369   3.815   7.643   2.933  0.0077  0.3098 -0.0106
 1306W        W 5370   6.064   1.494   0.762  0.2826 -0.0083 -0.2347
 1307W        W 5371   6.266   2.435   9.508 -0.1868 -0.1919  0.1141
 1308W        W 5372   7.831   0.921   0.981 -0.1498 -0.0679 -0.0869
 1309W        W 5373   1.335   2.222   1.268  0.1503  0.2459 -0.0352
 1310W        W 5374   2.951   7.357   0.336 -0.2183  0.2833 -0.0243
 1311W        W 5375   1.808   4.837   7.830  0.1897  0.1464  0.1338
 1312W        W 5376   5.527   6.774   6.814 -0.0378  0.1776 -0.3963
 1313W        W 5377   3.118   0.118   8.914 -0.0095 -0.1759  0.1337
 1314W        W 5378   4.435   6.901  10.476 -0.0460  0.2355  0.0035
 1315W        W 5379   7.355   3.643   8.329  0.1220  0.0870 -0.2660
 1316W        W 5380   1.267   5.792   1.070  0.0061 -0.2216 -0.1048
 1317W        W 5381   9.193   8.900   7.627  0.0521 -0.0599 -0.2944
 1318W        W 5382   5.749   7.442   3.535  0.5076  0.0759  0.1168
 1319W        W 5383   2.931   7.231   9.671  0.1107 -0.2621  0.0684
 1320W        W 5384   7.723   1.371  10.322 -0.0758 -0.1494 -0.2247
 1321W        W 5385   3.188   7.892   7.818 -0.0930 -0.3120  0.2660
 1322W        W 5386   3.523   5.467   1.178  0.1311 -0.1936  0.1070
 1323W        W 5387   3.857   1.018   1.444  0.2195 -0.2246 -0.2087
 1324W        W 5388   9.209   1.529   0.411 -0.0752 -0.0658 -0.3322
 1325W        W 5389   5.949   2.239   3.324 -0.1610 -0.0325 -0.0377
 1326W        W 5390   2.536   6.186  10.289 -0.1133  0.2502 -0.0966
 1327W        W 5391   5.828   0.672   2.356 -0.0132 -0.0958 -0.0979
 1328W        W 5392   9.945   1.709   3.401  0.0085  0.1474  0.0150
 1329W        W 5393  10.751   3.050   7.856 -0.0159 -0.1236  0.1869
 1330W        W 5394   3.581   5.814  11.188 -0.0270  0.0648 -0.1209
 1331W        W 5395  10.757  10.506   0.798  0.1080 -0.0504 -0.0153
 1332W        W 5396   6.791   0.521   9.356  0.1593  0.2299 -0.0753
 1333W        W 5397   0.746   0.960   8.162  0.5582 -0.0112 -0.2905
 1334W        W 5398   9.898   2.306   2.312  0.0837 -0.0556 -0.0768
 1335W        W 5399   6.454   8.031   9.803  0.1189  0.2455 -0.1617
 1336W        W 5400   6.291   9.298   1.998  0.2524 -0.1099 -0.2049
 1337W        W 5401   8.655   7.421   2.096  0.2407 -0.0944 -0.0951
 1338W        W 5402   3.704   4.302   9.080 -0.1050  0.2512 -0.0736
 1339W        W 5403   8.170   0.391   0.186  0.1492 -0.0995 -0.0435
 1340W        W 5404   0.272   2.780   1.682  0.2014  0.4140  0.0339
 1341W        W 5405   7.935   0.538   1.876 -0.3495  0.1719 -0.0630
 1342W        W 5406   9.607   8.329   3.384  0.1934 -0.0148  0.0455
 1343W        W 5407   5.427   6.942  11.087 -0.1703 -0.1774 -0.1842
 1344W        W 5408   3.809   4.921   1.045 -0.0877  0.0269 -0.0075
 1345W        W 5409   9.743   4.244   2.486 -0.0267  0.1538  0.0164
 1346W        W 5410   3.547   6.114   3.589 -0.1602 -0.0363  0.1708
 1347W        W 5411   4.832   3.886  10.078 -0.2463  0.0064 -0.3872
 1348W        W 5412   0.123   6.758  11.195 -0.1241 -0.2143 -0.0774
 1349W        W 5413   2.184   5.767  10.424  0.2583 -0.0648  0.2208
 1350W        W 5414   1.145   7.753  11.309 -0.0748  0.1376  0.1953
 1351W        W 5415   3.770   9.894   2.570  0.1553  0.3175  0.3442
 1352W        W 5416   1.623   0.976   9.371 -0.1353  0.0321  0.0154
 1353W        W 5417   4.334   9.578   9.467 -0.0237 -0.0282  0.0001
 1354W        W 5418   5.029   2.729   9.227  0.0492  0.0377 -0.4256
 1355W        W 5419   8.201   7.234   2.093  0.0135  0.1528 -0.2355
 1356W        W 5420   8.056   3.980   2.795 -0.2054 -0.2225  0.2495
 1357W        W 5421   0.410   1.309   9.797 -0.0932  0.4801  0.1039
 1358W        W 5422   0.991   4.257   7.445  0.2723 -0.3141  0.0740
 1359W        W 5423   8.572   2.652   8.834 -0.0778  0.0349  0.1038
 1360W        W 5424   1.418   1.305  10.542  0.2335 -0.2838  0.2907
 1361W        W 5425   3.352   1.216   9.915 -0.3000  0.0804  0.1330
 1362W        W 5426   3.733   7.786   1.461 -0.0316  0.0462  0.3590
 1363W        W 5427   6.692   1.034   9.268  0.0961  0.0440 -0.1737
 1364W        W 5428   3.779   5.287   8.250 -0.0433  0.1779 -0.3373
 1365W        W 5429   5.153   4.348   9.907  0.3865 -0.1266 -0.3234
 1366W        W 5430   3.995   7.083   0.296  0.0268 -0.1867  0.2001
 1367W        W 5431  10.089   4.034   0.899  0.0746  0.0954 -0.0022
 1368W        W 5432   7.753   6.240   7.423  0.2180  0.0143  0.0561
 1369W        W 5433   9.910   6.523   0.780 -0.3427  0.6864 -0.0992
 1370W        W 5434  10.513   5.336   7.995 -0.0060 -0.1149 -0.2585
 1371W        W 5435   5.660   5.360   8.211 -0.4422  0.0359  0.0223
 1372W        W 5436   2.319   4.987   9.499  0.0632 -0.0499 -0.1389
 1373W        W 5437   9.720   9.899   4.028 -0.0661  0.1194 -0.3031
 1374W        W 5438   2.545   1.076   8.291 -0.1921  0.0185  0.2602
 1375W        W 5439   0.941   6.721   0.776 -0.0931  0.2559  0.0633
 1376W        W 5440   8.445   0.201   9.983 -0.3344 -0.0310 -0.2155
 1377W        W 5441   6.936   7.812   0.463  0.3476 -0.4187 -0.1782
 1378W        W 5442   3.180   3.053   1.946 -0.0539 -0.3404  0.1268
 1379W        W 5443   8.226   8.369  10.432 -0.0666  0.3208  0.2924
 1380W        W 5444   3.231   5.324   8.137 -0.3616  0.4934 -0.0087
 1381W        W 5445   7.640   1.069   0.540 -0.2460 -0.1284 -0.1628
 1382W        W 5446   7.938   0.086   0.688  0.1378 -0.0387  0.0751
 1383W        W 5447   5.009   5.675   2.194 -0.1803  0.4569  0.2370
 1384W        W 5448   5.933  10.150   1.818  0.0313 -0.0766 -0.0960
 1385W        W 5449   4.939   9.327   8.815  0.3410 -0.0378 -0.2175
 1386W        W 5450   4.775   2.343   9.441 -0.0443  0.2006  0.0366
 1387W        W 5451   5.705   9.191   7.593  0.0358 -0.1075  0.0776
 1388W        W 5452   0.273   7.575   9.855  0.2189 -0.2127 -0.0520
 1389W        W 5453   6.659   9.302   8.331  0.2935 -0.0559 -0.0337
 1390W        W 5454   5.841  10.538  10.759 -0.3166  0.2648  0.3959
 1391W        W 5455   1.252   3.439   9.321 -0.1333 -0.0056 -0.1445
 1392W        W 5456   8.141   4.624   3.226  0.2300 -0.3223 -0.0594
 1393W        W 5457   1.350   6.323  10.115 -0.0145 -0.2236  0.1267
 1394W        W 5458   8.648   8.578   8.983  0.2733  0.0952  0.0283
 1395W        W 5459   0.323   7.973   8.596  0.1765  0.0675  0.0120
 1396W        W 5460  10.215   8.648  10.252  0.0241  0.0220 -0.0170
 1397W        W 5461   6.188   1.052   0.528  0.0243 -0.0336  0.1049
 1398W        W 5462   9.120   2.725   0.476 -0.0713  0.2813  0.0096
 1399W        W 5463   6.449   2.372   1.747 -0.0268  0.1505 -0.0519
 1400W        W 5464   0.099   7.541   3.570  0.2598 -0.3064  0.1544
 1401W        W 5465   0.650   3.168   0.409 -0.0792 -0.3165  0.0646
 1402W        W 5466   5.781   8.091   0.658  0.0974 -0.1282  0.0874
 1403W        W 5467   5.964   2.204   8.372  0.0021  0.0822 -0.0377
 1404W        W 5468   4.625   9.172   2.508  0.0947  0.3045 -0.1137
 1405W        W 5469   1.916   8.128   9.831  0.0790 -0.2010  0.2011
 1406W        W 5470   1.117   1.651   8.271 -0.1349 -0.0620  0.0547
 1407W        W 5471   2.375   1.456   2.092  0.2485  0.1364  0.2221
 1408W        W 5472   8.516   6.094  10.673  0.1881 -0.0960  0.1399
 1409W        W 5473   5.702   6.592   0.066 -0.0335 -0.0971  0.4439
 1410W        W 5474   7.791   9.947   9.110 -0.0636 -0.1935  0.2217
 1411W        W 5475   9.194   5.605   0.650  0.2619 -0.0317  0.0751
 1412W        W 5476   9.347   0.651   0.829 -0.0081  0.3377 -0.2824
 1413W        W 5477   7.147   8.088  10.309  0.1079  0.2339  0.3959
 1414W        W 5478   7.152   9.840  10.718  0.1120  0.0773 -0.0480
 1415W        W 5479   8.318   6.838   1.405  0.0012  0.2551 -0.1118
 1416W        W 5480   4.986   0.065   8.863  0.4416  0.0163  0.4499
 1417W        W 5481   6.377   1.174  10.034 -0.0603 -0.1861  0.2719
 1418W        W 5482   7.272   6.651   2.148 -0.2897  0.1107  0.1537
 1419W        W 5483   6.048   0.733   8.168  0.1926  0.3624  0.0675
 1420W        W 5484   7.048  10.193  10.348 -0.2588  0.0314  0.1601
 1421W        W 5485   7.011   9.962   9.860 -0.0304  0.1105 -0.1511
 1422W        W 5486   7.292   0.500   2.460 -0.0189  0.1984 -0.3277
 1423W        W 5487   0.137   8.295   2.524 -0.0866  0.1328  0.2542
 1424W        W 5488   3.683   9.219   7.942  0.2082 -0.0870  0.0593
 1425W        W 5489   3.632  10.241  10.553  0.1914  0.0504 -0.4077
 1426W        W 5490   6.879   4.762   3.118 -0.1017  0.1373  0.1273
 1427W        W 5491   5.318   9.846   0.447  0.1352  0.2686 -0.0215
 1428W        W 5492  10.726   4.289   2.102 -0.1739 -0.0691 -0.0373
 1429W        W 5493   7.730   4.307  10.870  0.0845  0.0687 -0.1304
 1430W        W 5494   1.277   6.417  10.618 -0.1003  0.1219 -0.0258
 1431W        W 5495   5.612   0.614  10.902 -0.0497 -0.2344 -0.1533
 1432W        W 5496   1.107   1.674  10.750 -0.0957 -0.0889 -0.0282
 1433W        W 5497   5.096   2.927   7.634  0.6844  0.0397  0.4725
 1434W        W 5498   2.772  10.271   7.830  0.5294 -0.2832 -0.0064
 1435W        W 5499   3.871   0.361   2.627  0.1645 -0.0387 -0.0709
 1436W        W 5500   5.159   0.650   9.414 -0.1537  0.2810 -0.1156
 1437W        W 5501   7.477   3.195   2.416 -0.2117 -0.1621  0.0457
 1438W        W 5502   0.897   3.455   1.848 -0.2966  0.0628 -0.1313
 1439W        W 5503   8.518  10.464   9.736  0.0188 -0.1044  0.0230
 1440W        W 5504   8.643   4.250   0.559  0.1087  0.1648  0.1474
 1441W        W 5505   3.508   3.419   1.089 -0.1483 -0.2238 -0.4021
 1442W        W 5506   2.375   0.204   9.225  0.0735  0.0899  0.5932
 1443W        W 5507   1.952   7.394   0.433  0.1104  0.0642 -0.0433
 1444W        W 5508  10.668   5.102   0.375  0.2279 -0.3064  0.1599
 1445W        W 5509   9.587  10.618   1.316 -0.2365 -0.1241  0.2718
 1446W        W 5510   6.209   0.297   2.039  0.1912  0.0349  0.0503
 1447W        W 5511   0.602   9.046   2.192  0.1242  0.0620 -0.0165
 1448W        W 5512   1.179   9.877   2.794 -0.1758 -0.0631  0.1126
 1449W        W 5513   1.266   2.139   0.024 -0.3462  0.1335  0.4192
 1450W        W 5514   6.301   5.742   1.588  0.2521 -0.2158 -0.2172
 1451W        W 5515   0.717   4.508   8.298  0.1012 -0.3219  0.0540
 1452W        W 5516   2.963   6.627   1.237  0.3101  0.4026  0.0160
 1453W        W 5517   7.228   8.761   2.566  0.2472 -0.1060 -0.0383
 1454W        W 5518   7.388   1.378   6.587  0.3035  0.2463 -0.0267
 1455W        W 5519   1.805  10.303   1.176  0.1288  0.3098  0.2950
 1456W        W 5520   0.557   2.780   2.271 -0.0053  0.2128 -0.1201
 1457W        W 5521   3.728   0.397  11.147  0.0545  0.1172 -0.1778
 1458W        W 5522   9.901   2.841   7.287 -0.0963  0.1209 -0.1888
 1459W        W 5523   7.890   9.775   0.560 -0.1333  0.0918  0.1900
 1460W        W 5524   9.907   6.617   9.331 -0.1621 -0.0304 -0.1617
 1461W        W 5525   5.578  10.624   2.059 -0.0132  0.1191  0.4275
 1462W        W 5526   6.509   3.099   8.372 -0.0584  0.1057  0.1496
 1463W        W 5527   8.213  10.559   7.907 -0.0907 -0.1315 -0.0376
 1464W        W 5528   4.293   8.587   1.542  0.0563 -0.3610 -0.0516
 1465W        W 5529  10.388   5.371   1.496  0.1437  0.3067 -0.0269
 1466W        W 5530   7.931  10.299   9.830 -0.1522 -0.1968  0.1052
 1467W        W 5531   5.388  10.442   7.551 -0.0112 -0.2762  0.0472
 1468W        W 5532   9.270   1.213  11.370 -0.1464  0.0110 -0.0070
 1469W        W 5533   1.193   2.746   2.916 -0.0776  0.3421  0.2565
 1470W        W 5534   0.216   7.410   1.789 -0.0527 -0.1855 -0.1183
 1471W        W 5535   8.874   3.036   8.832 -0.0357  0.0932  0.1022
 1472W        W 5536   7.683   6.251  10.634 -0.1673  0.1704 -0.1094
 1473W        W 5537   6.701   2.456   9.768  0.1988  0.1235 -0.0834
 1474W        W 5538  10.572   6.679   1.120 -0.3003  0.2834 -0.0845
 1475W        W 5539   3.968   1.267   8.269 -0.0404 -0.1577  0.1576
 1476W        W 5540   3.978   2.962  10.829  0.0088  0.2039  0.1802
 1477W        W 5541   0.903   9.305  11.108  0.4917 -0.0640  0.2010
 1478W        W 5542   7.829   9.120   2.032 -0.0205  0.0888  0.1956
 1479W        W 5543   7.591   0.234   7.790 -0.0533  0.0482 -0.0355
 1480W        W 5544   5.054   2.670   8.686 -0.0106  0.0890 -0.1869
 1481W        W 5545   6.274   2.072   9.010  0.2116  0.1814  0.0160
 1482W        W 5546   9.311  10.365   9.978  0.1948 -0.0350 -0.3191
 1483W        W 5547   4.593   6.514   8.496 -0.2468  0.0753  0.1653
 1484W        W 5548   8.247   9.754   9.178  0.0607 -0.1653  0.1053
 1485W        W 5549   2.298   6.782   2.739  0.1945 -0.1313  0.0445
 1486W        W 5550   5.103   4.407   0.959  0.0132  0.0174  0.0417
 1487W        W 5551   2.373   1.576   7.920 -0.3062  0.2034  0.1688
 1488W        W 5552   4.976   8.183   7.514 -0.1712  0.0714  0.0753
 1489W        W 5553   8.707   2.856   2.940  0.0887  0.0766 -0.0266
 1490W        W 5554   4.381   3.529   8.600 -0.1857 -0.0445 -0.0999
 1491W        W 5555   7.985   0.961   9.883 -0.0588  0.2272 -0.0607
 1492W        W 5556   2.643   4.282   7.424  0.0318 -0.1518 -0.2201
 1493W        W 5557   7.249   7.762   8.463  0.2613 -0.1358  0.0320
 1494W        W 5558   4.481   0.189  10.232  0.0116  0.0950 -0.3000
 1495W        W 5559   8.755   9.777  10.366  0.1122  0.1934  0.0629
 1496W        W 5560   1.012   5.262   0.628 -0.2210  0.1099  0.2438
 1497W        W 5561   9.901   3.206   7.587  0.0902 -0.2189  0.0065
 1498W        W 5562   5.739   4.795   9.168 -0.1737  0.0560  0.1416
 1499W        W 5563   1.912   9.640   8.206 -0.1514  0.0680  0.0682
 1500W        W 5564   7.441   8.371   2.885  0.0863 -0.4734  0.0186
 1501W        W 5565   1.483   7.383   0.107  0.0964 -0.3011  0.3705
 1502W        W 5566   4.139  10.428   2.666 -0.1355  0.1144  0.0922
 1503W        W 5567   1.143  10.596   0.764  0.0170  0.3365 -0.0786
 1504W        W 5568   9.735   7.805  10.560  0.1156  0.1891 -0.1205
 1505W        W 5569   2.286   8.330   1.466 -0.1588 -0.0543  0.2849
 1506W        W 5570   1.936   9.120   2.168  0.0742 -0.0877  0.0697
 1507W        W 5571   7.306   8.062   0.754 -0.3835 -0.1586  0.1443
 1508W        W 5572   8.390   3.051  11.085 -0.0257 -0.1592 -0.2247
 1509W        W 5573   9.763   7.557  11.091  0.1754  0.0875 -0.1037
 1510W        W 5574   7.452   1.541   0.655 -0.3013  0.0115 -0.2512
 1511W        W 5575   7.232   6.038  10.816 -0.1306  0.0511  0.1883
 1512W        W 5576   2.167   0.010   0.479  0.2803  0.2125 -0.1522
 1513W        W 5577   4.365   8.212   8.529  0.1688 -0.2357  0.0745
 1514W        W 5578  10.190   2.514  10.925  0.1309  0.0901 -0.4850
 1515W        W 5579   5.550   8.641   2.155 -0.3199  0.1570 -0.3299
 1516W        W 5580   8.776   2.491   7.626 -0.2003 -0.0684  0.0325
 1517W        W 5581   2.283   7.107  10.277  0.1092  0.0127  0.2002
 1518W        W 5582  10.256   4.066  10.918 -0.1030  0.2923  0.0718
 1519W        W 5583   0.150  10.700   1.302  0.1953  0.2973  0.0032
 1520W        W 5584   6.971   9.122   9.192 -0.4470  0.3586 -0.1891
 1521W        W 5585   5.453   2.279   0.187  0.3374 -0.2590  0.0482
 1522W        W 5586   3.865   9.190   0.196 -0.1212 -0.0943  0.2092
 1523W        W 5587   0.984   5.177   8.927  0.0886  0.1987  0.1850
 1524W        W 5588  10.487   8.517   2.105 -0.2066  0.0986 -0.2974
 1525W        W 5589   1.347   9.563   2.233  0.0749  0.3045  0.0668
 1526W        W 5590   9.995   7.430   1.875 -0.3190  0.2119 -0.0195
 1527W        W 5591   8.622  10.111   9.343  0.1474 -0.1870 -0.1016
 1528W        W 5592   3.098   8.908   9.680 -0.0816  0.1006  0.0314
 1529W        W 5593   6.435   3.091  10.079 -0.2700 -0.0661  0.0742
 1530W        W 5594   6.841   8.265   0.749  0.2018 -0.2961 -0.0479
 1531W        W 5595   0.433   2.294   1.700 -0.0369  0.0151  0.1660
 1532W        W 5596   1.683   1.874   9.796 -0.3721  0.1279  0.2404
 1533W        W 5597   1.703   8.621   2.168 -0.0152 -0.1102 -0.1827
 1534W        W 5598   7.204   8.811   9.975  0.0916 -0.3088 -0.1630
 1535W        W 5599   3.773   5.452   2.765  0.0551  0.0609  0.1575
 1536W        W 5600   2.355   2.220   0.610 -0.0807 -0.1927  0.0094
 1537W        W 5601   8.700   1.253  10.495 -0.0924  0.0038 -0.1723
 1538W        W 5602   6.372   0.952   8.543  0.1763 -0.1936 -0.2548
 1539W        W 5603   8.391   0.970   2.505  0.0016 -0.0939 -0.0309
 1540W        W 5604   5.763  10.231   0.041 -0.1648 -0.0963 -0.2216
 1541W        W 5605   2.626   8.920  10.043 -0.1611 -0.3712  0.0014
 1542W        W 5606   8.788   1.246   0.516 -0.0536  0.1042 -0.1321
 1543W        W 5607   1.075   7.847   9.775 -0.2975  0.2195 -0.0322
 1544W        W 5608   2.501   9.680   1.323  0.0699 -0.1011 -0.1354
 1545W        W 5609   5.476   4.869   8.708  0.4633 -0.1197 -0.0378
 1546W        W 5610   5.184   4.958  10.635 -0.1771  0.0777  0.0820
 1547W        W 5611   9.958   0.858   9.068 -0.1040 -0.3211  0.0156
 1548W        W 5612   4.616   7.181   8.957  0.0077 -0.0922 -0.0312
 1549W        W 5613   3.439   4.081   6.502  0.0920 -0.0838  0.0839
 1550W        W 5614   8.392   5.809   1.457  0.0515  0.2387  0.0019
 1551W        W 5615   8.868   1.692   9.573  0.3530 -0.0103  0.2161
 1552W        W 5616   8.296   8.987   3.079 -0.1643  0.2226  0.2476
 1553W        W 5617  10.593   3.663  10.011  0.0124 -0.0677  0.0014
 1554W        W 5618   7.931   6.476   1.011  0.1755 -0.2074 -0.2265
 1555W        W 5619   5.710   7.621   1.894  0.1300  0.2716 -0.1678
 1556W        W 5620   2.693   7.365  10.985  0.0581  0.1159  0.0774
 1557W        W 5621   9.606   4.739   1.446 -0.2234 -0.0764 -0.1488
 1558W        W 5622   4.946   6.525   0.520 -0.1050 -0.0256 -0.1277
 1559W        W 5623   2.317  10.691   3.681 -0.4169  0.1142 -0.1454
 1560W        W 5624   2.344   6.948   9.200 -0.0853  0.2175  0.0949
 1561W        W 5625   1.996   3.300  10.851 -0.0525  0.3562  0.1314
 1562W        W 5626   3.883   5.888   1.053  0.0035  0.1383 -0.0462
 1563W        W 5627   9.765   1.651  10.932  0.1090  0.0802  0.1860
 1564W        W 5628   4.413   8.246   1.195 -0.1192 -0.2028  0.2697
 1565W        W 5629   7.094   9.509   8.340  0.0443 -0.0978 -0.1923
 1566W        W 5630   1.164  10.337   9.130 -0.1975 -0.2023  0.0833
 1567W        W 5631   5.101   9.025   0.874  0.0324  0.3132 -0.1637
 1568W        W 5632   5.089  10.289   7.922 -0.3928  0.3548  0.2576
 1569W        W 5633   6.241   0.025   2.970  0.1158  0.1770  0.1492
 1570W        W 5634   1.590   7.924  10.111  0.1395  0.0356  0.1666
 1571W        W 5635   2.680   5.135  10.868 -0.1082  0.1440  0.2800
 1572W        W 5636   7.913   4.044   7.779 -0.2323  0.1061  0.1807
 1573W        W 5637  10.197   7.155   0.476  0.2118 -0.0278 -0.2135
 1574W        W 5638   9.471   4.734   0.967  0.0204  0.0629  0.1123
 1575W        W 5639   0.958   0.547   9.451  0.1257 -0.1714  0.3565
 1576W        W 5640   4.366   0.914   0.002 -0.2682 -0.0353  0.0593
 1577W        W 5641   8.237   3.992   9.306  0.0638  0.1752  0.0753
 1578W        W 5642   0.511   3.956  10.319  0.3809 -0.0496  0.1766
 1579W        W 5643   2.315   4.588   9.779  0.0277 -0.0189 -0.1610
 1580W        W 5644   8.510   3.565  10.594 -0.2666  0.0221  0.1832
 1581W        W 5645   8.080   2.489   2.018 -0.0151 -0.1868 -0.0959
 1582W        W 5646   6.098   1.655  10.107  0.0250 -0.0073 -0.0549
 1583W        W 5647   3.570   8.055   9.691  0.0235  0.2741 -0.1625
 1584W        W 5648   1.017   0.775   1.554  0.0121 -0.3696 -0.0610
 1585W        W 5649   4.941   5.329   0.718  0.2364 -0.1382  0.3048
 1586W        W 5650   9.660   1.079   7.791  0.0539  0.0802  0.1391
 1587W        W 5651   6.596   0.631   1.140 -0.1951  0.3798 -0.1282
 1588W        W 5652   1.795   4.454   9.825  0.0492  0.1954 -0.0632
 1589W        W 5653   8.265   0.224   8.509  0.1638 -0.2088 -0.3271
 1590W        W 5654   7.414   4.501   7.571 -0.1938 -0.2748  0.2447
 1591W        W 5655   4.333   2.364   1.909 -0.1249 -0.1376 -0.0749
 1592W        W 5656   4.439   3.947   8.202  0.0840  0.1347 -0.0101
 1593W        W 5657   0.762   0.614   2.578  0.0127 -0.1393 -0.2500
 1594W        W 5658   4.407   6.913  11.181 -0.2905  0.0515 -0.0945
 1595W        W 5659   9.957   5.579   1.775 -0.5223 -0.3290 -0.0235
 1596W        W 5660   8.088   3.346  10.712 -0.0944  0.2068 -0.0162
 1597W        W 5661   5.796   4.780   1.543 -0.1756  0.0987 -0.2512
 1598W        W 5662   5.019   9.427  10.057 -0.2072  0.1206 -0.0497
 1599W        W 5663   5.793   9.786   1.260  0.0835 -0.1811  0.0804
 1600W        W 5664   1.325   1.816   9.229 -0.0564  0.1143 -0.0709
 1601W        W 5665   2.148   9.751  10.100  0.0769 -0.2217 -0.1354
 1602W        W 5666  10.212   9.408  10.798  0.3535 -0.1050 -0.0689
 1603W        W 5667   6.290   7.172   0.264  0.0145  0.0669  0.1523
 1604W        W 5668   8.899   1.889   8.627  0.1231  0.0268  0.2173
 1605W        W 5669   6.398   6.769   0.759  0.0997  0.1362 -0.2429
 1606W        W 5670   5.376   6.972   0.264  0.1007  0.0798  0.1228
 1607W        W 5671   9.635  10.211   2.140  0.1778 -0.0226 -0.1895
 1608W        W 5672   8.440   1.875   2.666  0.0367 -0.2275 -0.0594
 1609W        W 5673   8.137   2.099   1.733 -0.1630 -0.0520  0.1004
 1610W        W 5674   1.674  10.602   3.009 -0.3982  0.0463  0.1648
 1611W        W 5675   8.845   3.233   7.983  0.1277  0.0762  0.0956
 1612W        W 5676   7.503   8.771   8.391 -0.3465 -0.3168  0.0577
 1613W        W 5677   3.125   2.573   1.214  0.0794  0.0578 -0.0917
 1614W        W 5678   8.322   8.878   0.270 -0.0348 -0.0925 -0.5704
 1615W        W 5679   0.373   9.630   0.855  0.1689 -0.3144  0.1350
 1616W        W 5680   6.983   4.135  11.354 -0.0633 -0.1660  0.2096
 1617W        W 5681   8.091   5.848   7.521  0.0443  0.2571 -0.1462
 1618W        W 5682   7.740   5.365   9.730 -0.0541 -0.3272  0.1224
 1619W        W 5683   9.764   9.510   0.512  0.1373 -0.0199  0.0732
 1620W        W 5684   3.924   1.430   0.646 -0.0035 -0.3116 -0.1933
 1621W        W 5685   4.819   9.093   0.275 -0.4926  0.1726 -0.2610
 1622W        W 5686   0.675   2.291   2.149  0.3894  0.1135 -0.1750
 1623W        W 5687   3.649   1.675   9.880 -0.3050  0.0381 -0.1250
 1624W        W 5688   7.866   4.431   7.309  0.1606  0.1576 -0.1574
 1625W        W 5689   8.867   6.358  10.058  0.2854  0.1292 -0.0508
 1626W        W 5690   3.222   0.365  10.242 -0.0918 -0.1185  0.0873
 1627W        W 5691   1.590   1.324   9.031  0.0817  0.1871  0.0296
 1628W        W 5692   0.517   6.713  10.016 -0.1264 -0.0186  0.0179
 1629W        W 5693   2.603   3.407   8.517 -0.1559  0.1306 -0.0813
 1630W        W 5694   0.212   4.624   7.527 -0.3364 -0.1595  0.1694
 1631W        W 5695   7.268   7.700   7.915 -0.1471 -0.0983 -0.0380
 1632W        W 5696   3.040   4.586  10.390 -0.1891 -0.1116 -0.1670
 1633W        W 5697   9.569   8.119  10.169 -0.1741 -0.2523 -0.0081
 1634W        W 5698   4.192   9.995  10.984 -0.3426  0.0722  0.0487
 1635W        W 5699   5.788   0.861   7.294 -0.3111  0.3217  0.1038
 1636W        W 5700   6.437   0.251   9.158  0.3400  0.1002 -0.1796
 1637W        W 5701   0.521   7.347   0.934 -0.0065  0.0588  0.1440
 1638W        W 5702   7.769   5.639   8.874 -0.1262  0.0864  0.1164
 1639W        W 5703   5.492  10.467   1.611 -0.3612  0.1105 -0.0181
 1640W        W 5704   8.362   5.156   1.208 -0.3353  0.0053 -0.2679
 1641W        W 5705   1.757   9.120   2.751  0.2264 -0.2654  0.1055
 1642W        W 5706   9.196   8.750   3.308 -0.1425  0.0930 -0.0801
 1643W        W 5707   2.084   9.887   3.673  0.0207  0.1498 -0.1902
 1644W        W 5708   3.426   6.242   1.901  0.2668 -0.5008 -0.0295
 1645W        W 5709   7.354   3.496   7.431  0.0714  0.3044  0.0282
 1646W        W 5710   8.644   9.232   0.477  0.0377 -0.2846 -0.0863
 1647W        W 5711   8.258   5.800   2.533  0.1906 -0.0410  0.0769
 1648W        W 5712   4.256  10.127   8.706 -0.0676 -0.1052 -0.0015
 1649W        W 5713   8.091   3.346   1.871 -0.1574  0.0851  0.1757
 1650W        W 5714   7.821   4.407   2.766 -0.0372 -0.0975  0.1226
 1651W        W 5715  10.272   2.567   7.551  0.2469 -0.0486  0.0305
 1652W        W 5716   7.857   6.955   0.563  0.0172  0.0058  0.0334
 1653W        W 5717   3.235   9.243   1.567 -0.2403 -0.0803 -0.1304
 1654W        W 5718   6.244  10.641   7.641 -0.1650 -0.2929 -0.0010
 1655W        W 5719   6.905   9.868   8.806 -0.0461 -0.1327  0.0389
 1656W        W 5720   0.414   0.355   2.772  0.0338 -0.0653 -0.0066
 1657W        W 5721   9.557  10.178  10.459 -0.0871  0.0525 -0.1353
 1658W        W 5722   7.868   7.992   2.309 -0.0138  0.1890 -0.0336
 1659W        W 5723   4.648   5.897  10.127  0.0031  0.1006  0.1417
 1660W        W 5724  10.414  10.507   1.237  0.0112 -0.0773 -0.0961
 1661W        W 5725   6.740   0.310  10.116 -0.1676  0.0245 -0.0239
 1662W        W 5726   7.227   3.806   0.349 -0.0672  0.0292 -0.1619
 1663W        W 5727   4.136   6.161   2.183 -0.0112 -0.0358 -0.1596
 1664W        W 5728   3.379   4.322   0.723  0.3264  0.1486  0.2151
 1665W        W 5729   7.278   1.879   2.207 -0.1040  0.0370 -0.0522
 1666W        W 5730  10.728   0.394   1.404 -0.4083  0.1796 -0.1342
 1667W        W 5731   2.289   8.857  11.260 -0.2027 -0.2487  0.1032
 1668W        W 5732   7.378   6.941   2.602  0.1556  0.1149  0.1271
 1669W        W 5733   6.898   0.126   8.285  0.1535 -0.1456  0.5898
 1670W        W 5734   5.608   6.472   9.278  0.0818 -0.3853  0.0280
 1671W        W 5735   1.470   8.772   8.576  0.0663  0.0184 -0.0152
 1672W        W 5736   9.155   6.328   0.758  0.1474  0.0870  0.1057
 1673W        W 5737   6.843   5.978  10.411  0.1621 -0.0347  0.2530
 1674W        W 5738   9.620   3.955   9.384  0.0418  0.0279  0.2175
 1675W        W 5739   6.689   9.869   2.570 -0.2483 -0.1106  0.0438
 1676W        W 5740   1.875   1.661   2.093  0.2251  0.3443 -0.1332
 1677W        W 5741   5.385   4.349   8.377 -0.1297 -0.3606  0.2111
 1678W        W 5742   5.941   0.075   8.499  0.2778 -0.0109 -0.0296
 1679W        W 5743   9.350   2.480  10.653 -0.0973 -0.1506  0.1706
 1680W        W 5744   4.214   2.156   0.844 -0.0172  0.0706  0.0422
 1681W        W 5745  10.508   1.386   0.972 -0.1668 -0.1008  0.1600
 1682W        W 5746   7.742   6.559   8.786  0.0905  0.3259  0.1339
 1683W        W 5747   2.972  10.148   8.290 -0.0759 -0.2343  0.1730
 1684W        W 5748   2.786   0.428   1.092 -0.1342 -0.1669  0.1237
 1685W        W 5749   5.280   5.926   3.092  0.4300 -0.0656  0.2086
 1686W        W 5750   4.096  10.548  10.630  0.0576  0.3188  0.0011
 1687W        W 5751   6.131   1.996  10.887 -0.0894  0.0969  0.1339
 1688W        W 5752   8.712   2.384   0.533  0.0896  0.1392  0.1325
 1689W        W 5753   4.124   7.306   8.664 -0.1708  0.0446  0.0084
 1690W        W 5754   8.216   8.956   1.771  0.2009  0.3478 -0.2423
 1691W        W 5755   8.531   6.405   9.668  0.0878 -0.0080 -0.0107
 1692W        W 5756   6.444   8.879   3.489 -0.3291  0.2650  0.2512
 1693W        W 5757   0.238   5.600   2.686  0.4410  0.0786  0.1325
 1694W        W 5758   9.634   4.163   3.030 -0.0866 -0.2554  0.1826
 1695W        W 5759   9.397   0.585  10.928  0.3142  0.1346  0.0223
 1696W        W 5760   9.015   7.253   8.327  0.1825  0.2232  0.0894
 1697W        W 5761   9.446   5.586   0.048 -0.0102 -0.1251  0.2689
 1698W        W 5762   6.154   1.377   2.320  0.0282 -0.1639  0.0880
 1699W        W 5763   5.862   9.775  10.944 -0.0603  0.0591 -0.1765
 1700W        W 5764   7.947   1.324   9.337  0.0679  0.2025  0.4128
 1701W        W 5765   3.695   4.746   9.451 -0.1957 -0.0179  0.3346
 1702W        W 5766  10.418   0.854   9.316  0.1558 -0.0069  0.1139
 1703W        W 5767   6.398   2.326   7.494 -0.1726  0.3214  0.3411
 1704W        W 5768   9.631   0.506  10.043  0.0106 -0.0152 -0.1123
 1705W        W 5769   7.803   8.183   0.607  0.3690 -0.3525  0.0574
 1706W        W 5770   6.678  10.589   3.174 -0.2113  0.1755 -0.0343
 1707W        W 5771   5.782   1.969  10.353 -0.3215 -0.0046  0.1872
 1708W        W 5772   2.319   3.112   2.381  0.2408  0.0047 -0.0227
 1709W        W 5773   5.185   6.886   2.494  0.0920  0.2212 -0.1493
 1710W        W 5774   8.381   4.439   1.831 -0.2407  0.2693 -0.2029
 1711W        W 5775   7.145   0.724   8.539 -0.0745 -0.1005  0.0534
 1712W        W 5776   1.554   9.449  11.159  0.3927  0.2725  0.0236
 1713W        W 5777   7.336   2.803   8.601 -0.1231  0.0700 -0.0787
 1714W        W 5778   3.631   6.228  10.382  0.1294  0.0759  0.0939
 1715W        W 5779   8.425   9.246   1.062  0.0871 -0.1021 -0.0550
 1716W        W 5780   6.392   1.445   8.548  0.0016  0.1619 -0.2128
 1717W        W 5781   9.712   8.930  11.192 -0.0618 -0.3045 -0.0623
 1718W        W 5782   9.928   2.795   6.780 -0.1593  0.0427 -0.0874
 1719W        W 5783  10.623   5.117  10.283 -0.2054 -0.1529 -0.0272
 1720W        W 5784   2.198   2.015   2.024 -0.0399 -0.1164  0.1763
 1721W        W 5785   6.261   2.786   8.106 -0.0551 -0.0676 -0.1891
 1722W        W 5786   1.973   3.726   9.953  0.2116  0.0983 -0.0018
 1723W        W 5787   6.286   7.894  10.957 -0.1019  0.1125 -0.1267
 1724W        W 5788   2.251   4.231  10.800 -0.0835 -0.0471 -0.1637
 1725W        W 5789   3.788   5.656   2.315  0.0633  0.2586 -0.2286
 1726W        W 5790   7.645  10.616   9.599  0.3718 -0.1925 -0.3800
 1727W        W 5791   2.193   0.733  10.146  0.1419 -0.3746  0.0515
 1728W        W 5792   8.001   5.898  10.476  0.2403 -0.1233 -0.0733
 1729W        W 5793   0.752   9.735   1.154 -0.2894 -0.2184 -0.3240
 1730W        W 5794   1.749   2.141  10.208  0.0285 -0.1174 -0.0385
 1731W        W 5795   4.466   6.924   0.433  0.0574 -0.2122 -0.1596
 1732W        W 5796   6.773   4.127   1.267 -0.1748 -0.1823 -0.0673
 1733W        W 5797   1.439   3.961   2.882 -0.1286 -0.2843 -0.1470
 1734W        W 5798   3.629   9.037   3.041 -0.0242 -0.5140 -0.2430
 1735W        W 5799   6.949   8.317   0.262  0.0383  0.0102 -0.1541
 1736W        W 5800   4.528  10.547   8.367 -0.2768 -0.0737 -0.4300
 1737W        W 5801   1.252   9.498  10.732  0.2289  0.4006  0.3029
 1738W        W 5802   3.959   1.534  10.954  0.0726 -0.0017 -0.2390
 1739W        W 5803   8.730   1.802  10.270  0.0246 -0.1344  0.3788
 1740W        W 5804   6.500   9.342  10.017  0.0431 -0.3306 -0.0737
 1741W        W 5805   9.958   2.707   8.291  0.2287 -0.1446 -0.0581
 1742W        W 5806   6.576   8.837   9.184  0.1319 -0.0123  0.1638
 1743W        W 5807   3.612   2.162   7.803 -0.1636 -0.1157 -0.2872
 1744W        W 5808   8.712  10.669   2.143 -0.3083 -0.1993 -0.2422
 1745W        W 5809   6.167   7.669   1.016 -0.1834  0.0208 -0.2607
 1746W        W 5810   5.342   1.160   2.094  0.1289 -0.1330  0.1277
 1747W        W 5811   3.128   5.357   0.928 -0.0177  0.1288 -0.1424
 1748W        W 5812   2.861   0.587   2.123  0.2954 -0.3143  0.0660
 1749W        W 5813   3.538   4.505   1.209 -0.0776 -0.0812 -0.1515
 1750W        W 5814   5.828   2.741  10.741 -0.2194  0.1688  0.1491
 1751W        W 5815   3.240   1.111  10.457  0.2784  0.0535 -0.1238
 1752W        W 5816   1.244   8.177  11.126 -0.1292 -0.0309  0.0421
 1753W        W 5817  10.477   3.704   0.827  0.1540 -0.0808 -0.2115
 1754W        W 5818   7.455   6.596   0.893  0.1525 -0.0359  0.0911
 1755W        W 5819   7.550   4.949   9.577 -0.2337 -0.0778 -0.1435
 1756W        W 5820   5.393   2.325   9.186 -0.0519  0.1076 -0.0649
 1757W        W 5821   2.971   7.626   2.458 -0.2610 -0.0911  0.1122
 1758W        W 5822  10.467   3.591  10.894 -0.0876  0.0188 -0.0475
 1759W        W 5823   2.650   5.953  11.060 -0.3277  0.1226 -0.0804
 1760W        W 5824   5.159   5.923   9.588 -0.1641  0.0968 -0.1372
 1761W        W 5825   4.934   8.106   1.033 -0.3528 -0.1360 -0.1028
 1762W        W 5826   3.151   2.622   1.747  0.1624 -0.2045  0.1909
 1763W        W 5827  10.089  10.026   1.334 -0.0563  0.0597  0.0266
 1764W        W 5828   1.366  10.183   0.896 -0.0554  0.3891  0.0108
 1765W        W 5829   4.767  10.606   1.144 -0.2889  0.0417  0.2734
 1766W        W 5830   4.433   6.531  10.832 -0.0440 -0.5997  0.0428
 1767W        W 5831   8.721   5.759   2.851  0.2617  0.1995 -0.3304
 1768W        W 5832   0.445   6.915   9.456 -0.0905 -0.0135 -0.0076
 1769W        W 5833   6.874   7.763  10.664  0.0863  0.1818  0.1724
 1770W        W 5834   1.953   8.532   0.150  0.1003 -0.1856  0.0596
 1771W        W 5835   2.315   6.702   0.906 -0.1716 -0.0005 -0.2055
 1772W        W 5836   1.825   9.770   8.692  0.1948 -0.0565  0.0832
 1773W        W 5837   5.399   9.963   8.209 -0.1248  0.3645  0.4951
 1774W        W 5838   9.108   6.910   0.392  0.0255  0.0316 -0.1470
 1775W        W 5839   4.872   2.854  11.078  0.0320 -0.0515  0.2055
 1776W        W 5840   2.848   8.599   8.810 -0.0483  0.0000  0.1333
 1777W        W 5841   0.455   9.016  10.170 -0.1521 -0.0183  0.1367
 1778W        W 5842  10.189   6.648   2.440  0.0355  0.0519  0.0797
 1779W        W 5843   5.243   5.712   1.762 -0.0578  0.1555 -0.0964
 1780W        W 5844   4.027  10.353   9.190  0.1369  0.3008 -0.1767
 1781W        W 5845   7.728   1.307   7.387 -0.2142 -0.1647 -0.1704
 1782W        W 5846   1.322   5.633   7.289 -0.2903 -0.1054 -0.4581
 1783W        W 5847   5.695   5.306   3.893  0.2373  0.1752 -0.1374
 1784W        W 5848   7.421   4.110   0.819 -0.0823  0.3497 -0.1897
 1785W        W 5849   8.212   5.702   9.119 -0.2094 -0.0515  0.0905
 1786W        W 5850   1.744   5.420   3.736 -0.0122  0.1790  0.1462
 1787W        W 5851   0.380   3.071   8.378  0.2958  0.2325  0.1411
 1788W        W 5852   8.185   6.644   9.955 -0.0822 -0.0930 -0.1385
 1789W        W 5853   3.386   9.457   0.267 -0.0568  0.1035 -0.1078
 1790W        W 5854   6.931   7.395   1.459 -0.0176 -0.3214 -0.1043
 1791W        W 5855  10.232   8.480   0.799 -0.0855  0.0442 -0.2889
 1792W        W 5856   9.585  10.050   0.617  0.0603  0.0987 -0.1450
 1793W        W 5857  10.294  10.428  10.273  0.2392  0.0277 -0.2118
 1794W        W 5858   2.640   8.674   9.276  0.2174 -0.0536  0.3237
 1795W        W 5859   3.223   7.523   2.057 -0.2504 -0.4691  0.2776
 1796W        W 5860   1.459   4.445  11.368  0.1022 -0.0889 -0.2043
 1797W        W 5861   8.853   9.043   3.117  0.2819 -0.0890 -0.2465
 1798W        W 5862  10.382   0.073   3.098 -0.2083 -0.2873 -0.1501
 1799W        W 5863   2.357   3.239   0.355 -0.3748 -0.1389  0.0044
 1800W        W 5864   7.224   0.912  11.104 -0.2668  0.0130  0.0458
 1801W        W 5865   7.988   8.626   9.443  0.0804  0.1881 -0.0098
 1802W        W 5866   3.973   9.284   9.230 -0.1177 -0.0734 -0.0480
 1803W        W 5867   2.647   1.720   9.841 -0.3137 -0.1725  0.3094
 1804W        W 5868   7.081   3.059   2.892 -0.0337  0.3293 -0.2815
 1805W        W 5869   0.040   9.287   1.804 -0.0741 -0.1278 -0.0530
 1806W        W 5870   1.738   6.540  10.313 -0.2345 -0.1031 -0.2659
 1807W        W 5871   6.475   7.368   9.990  0.2069  0.2530  0.1128
 1808W        W 5872   0.905   6.388   3.120 -0.2261 -0.1208  0.0645
 1809W        W 5873   9.594   0.166   0.887  0.2036  0.3258 -0.1055
 1810W        W 5874   4.616   8.156   3.442 -0.0198 -0.2197 -0.1926
 1811W        W 5875  10.225   5.347   2.366  0.2415 -0.0809  0.0206
 1812W        W 5876   5.983   2.267   0.480  0.2317  0.2963  0.2370
 1813W        W 5877   9.513   3.253  11.199 -0.0855  0.0104  0.2728
 1814W        W 5878   0.374   0.691   7.910 -0.2377 -0.2857 -0.4393
 1815W        W 5879   6.849   2.418   7.767  0.1253 -0.1271  0.4948
 1816W        W 5880   8.586   8.491   0.432 -0.0309  0.0158  0.2528
 1817W        W 5881   0.852  10.135   0.750  0.3258 -0.1092  0.0485
 1818W        W 5882   4.657   0.201   3.283 -0.0142  0.2141  0.2368
 1819W        W 5883   5.902   4.253   8.293 -0.1448  0.1971  0.1419
 1820W        W 5884   7.840   3.484   7.611  0.1589 -0.2413  0.1013
 1821W        W 5885   7.548   7.360   8.218 -0.3254 -0.1033 -0.0008
 1822W        W 5886   0.154   1.404  10.216 -0.1105 -0.1998 -0.0954
 1823W        W 5887   9.107   1.469   3.197  0.1054  0.0589  0.2137
 1824W        W 5888   3.264   0.273   8.308  0.1971 -0.1312  0.0285
 1825W        W 5889   6.636   6.999   7.086 -0.2094 -0.1536 -0.1208
 1826W        W 5890   2.261   9.098   8.028 -0.2032 -0.1336  0.1071
 1827W        W 5891   4.465   1.872   2.844  0.2025 -0.1302 -0.1473
 1828W        W 5892   5.149   1.346   0.202  0.1250  0.2742  0.1916
 1829W        W 5893   0.328  10.129  10.896 -0.1197 -0.1909 -0.2470
 1830W        W 5894   7.155   9.229   2.710 -0.1229  0.1104  0.0325
 1831W        W 5895   0.297  10.308   7.986  0.0934  0.3615 -0.1898
 1832W        W 5896   3.244   9.679   3.851  0.2062 -0.2143  0.1996
 1833W        W 5897   0.796   1.571   1.256 -0.1805  0.0542  0.0728
 1834W        W 5898   6.373   9.456   2.711  0.0233  0.0576  0.2664
 1835W        W 5899   0.132   2.479   0.210  0.2976 -0.1318 -0.1549
 1836W        W 5900   0.102   5.985   8.936 -0.3582  0.0710 -0.0761
 1837W        W 5901   0.600   2.694   0.589 -0.0400 -0.0117 -0.2816
 1838W        W 5902   5.024   2.870   0.693  0.1132 -0.0525 -0.2436
 1839W        W 5903   3.522   4.313   7.766  0.2870  0.0777 -0.0515
 1840W        W 5904   6.271   8.484   2.096  0.0894  0.2919  0.1827
 1841W        W 5905  10.440   8.507  10.688  0.0727  0.2289  0.0860
 1842W        W 5906   8.386   2.771  10.658  0.3178  0.0588 -0.0569
 1843W        W 5907   6.526   4.127   2.125 -0.4993  0.1254 -0.0742
 1844W        W 5908   8.776   3.948   9.999  0.0360 -0.4712 -0.0612
 1845W        W 5909   7.502   8.768   2.040 -0.1138  0.0962  0.1146
 1846W        W 5910  10.535  10.422   2.493  0.0450  0.3267 -0.0724
 1847W        W 5911   2.509   9.077   0.801 -0.2543  0.6427 -0.1424
 1848W        W 5912   4.480   6.604   0.913 -0.0856 -0.1157  0.1082
 1849W        W 5913   6.965  10.096   0.793 -0.1229 -0.2818  0.1274
 1850W        W 5914   9.380   3.467   2.957  0.1098 -0.0473  0.0532
 1851W        W 5915   8.667   8.633   8.470 -0.1136  0.1084  0.0889
 1852W        W 5916   4.207   3.248   0.351  0.0592 -0.0340  0.0901
 1853W        W 5917   4.520   6.339   1.626  0.2483 -0.2009 -0.1626
 1854W        W 5918   0.847   9.536   2.474  0.0242  0.1327  0.0933
 1855W        W 5919   3.657   4.689   0.595  0.0064 -0.0941 -0.3143
 1856W        W 5920   2.153   4.985   7.440  0.0431  0.2033  0.0741
 1857W        W 5921   1.862   7.435   8.216  0.1381 -0.0365 -0.1212
 1858W        W 5922   6.532   4.484   9.544 -0.1661  0.0877  0.1474
 1859W        W 5923   1.993   6.386   1.633 -0.0172  0.2368 -0.2186
 1860W        W 5924   4.022   0.115   9.254 -0.2952  0.2282  0.2755
 1861W        W 5925   8.239   2.524   1.505  0.1482  0.0137 -0.2065
 1862W        W 5926   3.384   1.778  11.079 -0.1981 -0.0781 -0.2553
 1863W        W 5927   7.938   5.228   9.152 -0.2059  0.0965  0.0886
 1864W        W 5928  10.519   6.369   0.195  0.1360  0.0751 -0.0495
 1865W        W 5929   2.240   6.137  10.790 -0.0153 -0.1161  0.0091
 1866W        W 5930   8.294   3.885   0.652  0.0080 -0.1803  0.0399
 1867W        W 5931   0.970   9.422   1.453  0.0206 -0.0318 -0.2681
 1868W        W 5932   0.726   4.108   2.644  0.0552  0.1520 -0.1406
 1869W        W 5933   1.036   5.454   1.394  0.1886  0.0594 -0.1773
 1870W        W 5934   1.876   0.258   0.136  0.0135  0.0400 -0.0125
 1871W        W 5935  10.157   4.338   9.641  0.2587  0.0807 -0.0732
 1872W        W 5936   6.673   1.319   1.421 -0.0326  0.2225  0.0872
 1873W        W 5937   5.706   5.157   7.793 -0.1651 -0.2644 -0.0184
 1874W        W 5938   8.845  10.692  10.942  0.2778  0.0520 -0.2227
 1875W        W 5939   3.597  10.495   0.121  0.2981 -0.1615  0.1432
 1876W        W 5940   9.044   3.340   7.568 -0.0255  0.0278 -0.0649
 1877W        W 5941   2.641   6.049   9.622  0.0005 -0.3312  0.4017
 1878W        W 5942   1.565   4.679  10.961  0.1447  0.0488  0.2327
 1879W        W 5943   4.404   3.743   6.582  0.0094 -0.3554 -0.0453
 1880W        W 5944   1.563   3.970  10.071  0.0170 -0.3282 -0.1063
 1881W        W 5945   0.270   4.686   1.882 -0.2241  0.0141 -0.0178
 1882W        W 5946   0.914   4.598  10.350 -0.0859 -0.4142 -0.2846
 1883W        W 5947   7.140   4.695  10.875  0.0820  0.1941  0.2556
 1884W        W 5948   8.932   4.477  10.264  0.1494  0.1064 -0.1269
 1885W        W 5949   3.511   0.092   9.898 -0.0181 -0.4865 -0.1367
 1886W        W 5950   6.151   1.718   8.183  0.0797  0.3462  0.0525
 1887W        W 5951   7.756   2.540   9.348  0.0439  0.3229  0.3154
 1888W        W 5952   7.025   3.621   8.797 -0.1660 -0.3515  0.4237
 1889W        W 5953   3.322   4.993   8.602 -0.1654 -0.0464 -0.0104
 1890W        W 5954   3.397   3.502   2.612 -0.2488 -0.0075 -0.0223
 1891W        W 5955   2.481   9.268   0.021  0.1118  0.0558  0.0049
 1892W        W 5956  10.726   4.113  10.242 -0.0873  0.1439 -0.2114
 1893W        W 5957   0.965   7.216   0.839 -0.0974  0.1316  0.3146
 1894W        W 5958   4.487  10.487  10.305  0.0065 -0.1791 -0.1363
 1895W        W 5959   5.545   1.727  10.766  0.1391 -0.0822 -0.0631
 1896W        W 5960   1.485   5.711   2.205 -0.0095  0.1293 -0.1862
 1897W        W 5961   6.124   2.616   1.476 -0.2814 -0.0703  0.1559
 1898W        W 5962   5.631   8.969   2.519  0.1567 -0.1201  0.0069
 1899W        W 5963   1.682   2.495   0.721  0.0842 -0.2760  0.0977
 1900W        W 5964   6.722   8.742   0.038 -0.1471 -0.1513  0.0929
 1901W        W 5965   6.193   6.656   6.888  0.0721 -0.1268 -0.3501
 1902W        W 5966   7.012   5.041   9.014 -0.1092  0.0396  0.1708
 1903W        W 5967  10.036   3.183   8.225 -0.1733  0.2334 -0.0116
 1904W        W 5968   8.225   0.080   3.465  0.1380  0.0871 -0.4254
 1905W        W 5969   8.075   5.432   0.478 -0.0873  0.0371  0.1983
 1906W        W 5970   1.571   4.322   1.033 -0.1577  0.0054  0.1041
 1907W        W 5971   8.457   9.035   8.221  0.2094  0.0057  0.2744
 1908W        W 5972   1.466   4.322   0.527  0.1547  0.0372  0.1175
 1909W        W 5973   6.625   6.650   0.315  0.0597  0.0090 -0.0659
 1910W        W 5974   1.886   2.895   8.084  0.1864  0.4273 -0.1506
 1911W        W 5975   3.073   3.132   8.547  0.0847 -0.1938  0.0856
 1912W        W 5976   4.158   4.733   2.566  0.1737 -0.2333 -0.2533
 1913W        W 5977   1.804   5.209  11.287  0.2970  0.5318 -0.0258
 1914W        W 5978   0.241   3.344   1.642  0.0645 -0.1389 -0.0405
 1915W        W 5979   4.499   8.688   0.358 -0.0022 -0.1022  0.2484
 1916W        W 5980  10.393   4.026   0.462 -0.0145  0.0751  0.1646
 1917W        W 5981   9.979   0.185  10.193 -0.2131  0.2198  0.1944
 1918W        W 5982   6.897   7.436   0.112  0.0628  0.2082 -0.2591
 1919W        W 5983   3.371   9.279  10.621  0.1212 -0.2212  0.2064
 1920W        W 5984   2.984   2.962   9.315 -0.0006 -0.0472 -0.0762
 1921W        W 5985   2.922   9.778   2.629 -0.0327 -0.0001  0.1361
 1922W        W 5986  10.149   9.043   0.833  0.0503 -0.1365  0.2829
 1923W        W 5987   7.845   0.720   7.923 -0.0195  0.1073  0.0616
 1924W        W 5988   4.045   6.634   1.293  0.0823 -0.1453  0.0496
 1925W        W 5989   4.908   4.188   8.297 -0.1477  0.1661 -0.1155
 1926W        W 5990   0.538   9.754   8.953  0.3227  0.1553  0.3053
 1927W        W 5991   8.993   8.488  10.653  0.0116 -0.1667 -0.0469
 1928W        W 5992   9.743   9.482   1.032 -0.1155  0.2748 -0.2773
 1929W        W 5993   7.303   6.926   1.733  0.1336  0.0519  0.0148
 1930W        W 5994   1.913   6.142  10.135  0.0229  0.0801 -0.0494
 1931W        W 5995   2.477   4.972   2.055 -0.2293  0.1592 -0.1022
 1932W        W 5996   9.524   0.432   0.424  0.2621  0.0447 -0.0117
 1933W        W 5997   9.370   3.956   8.577 -0.3508  0.3064 -0.2874
 1934W        W 5998   1.576   4.632   8.699  0.0489  0.0821  0.0243
 1935W        W 5999   8.128   8.636   8.476 -0.2215 -0.2492  0.0275
 1936W        W 6000   5.554   5.367   2.106  0.4227  0.1768 -0.1332
 1937W        W 6001   0.199   3.165   0.690 -0.4765 -0.0410 -0.2887
 1938W        W 6002   6.847   2.624   1.438  0.2662  0.1449  0.4435
 1939W        W 6003   1.958   6.553   7.263  0.2962  0.3206 -0.0505
 1940W        W 6004   3.700   8.653   8.691 -0.2684  0.0404 -0.0935
 1941W        W 6005   8.448   1.664   7.716 -0.1457  0.0020  0.0161
 1942W        W 6006   1.247   3.425   1.442 -0.0078  0.2816  0.2059
 1943W        W 6007   3.134  10.500   1.676 -0.0574  0.1238 -0.2851
 1944W        W 6008   3.587   2.811   1.460 -0.1868  0.1336 -0.2391
 1945W        W 6009   6.392   6.348   8.827  0.3453  0.1441  0.0679
 1946W        W 6010   8.223   2.672  10.206 -0.0290  0.0416 -0.0544
 1947W        W 6011   0.554  10.579   0.928  0.2497 -0.0588  0.0886
 1948W        W 6012   2.151   7.087   8.734  0.0098  0.1020 -0.1776
 1949W        W 6013   5.962   7.405   7.715  0.0159  0.3195 -0.0765
 1950W        W 6014   9.431   8.146   2.801 -0.1150 -0.3685  0.1940
 1951W        W 6015   2.987   0.593   3.626 -0.1695 -0.3211 -0.2515
 1952W        W 6016  10.702   3.218   9.686 -0.0367 -0.1140  0.1164
 1953W        W 6017   3.945   0.640   9.016  0.1129 -0.0950 -0.1629
 1954W        W 6018   8.381  10.723   0.974  0.1268 -0.1254 -0.0938
 1955W        W 6019   3.888   8.332   1.178 -0.1709 -0.2131  0.1477
 1956W        W 6020   8.450   5.724  10.307  0.1035  0.0106  0.1499
 1957W        W 6021   2.543   8.988  10.883 -0.2234 -0.2039 -0.1610
 1958W        W 6022   0.229   4.810   8.493 -0.2562 -0.1920 -0.1433
 1959W        W 6023   6.431   0.501   9.682  0.0623 -0.0776 -0.1477
 1960W        W 6024   3.449   3.030   2.397  0.0519 -0.2046 -0.0621
 1961W        W 6025   1.126   7.943   9.245 -0.0702  0.1161 -0.1932
 1962W        W 6026   5.777   8.702   2.971 -0.0708 -0.2027 -0.0651
 1963W        W 6027  10.262   5.901   3.080  0.2893  0.0727  0.0049
 1964W        W 6028   9.243   3.471   8.694  0.3796  0.1453  0.1564
 1965W        W 6029   9.652   4.558   9.661  0.0969 -0.0925 -0.0023
 1966W        W 6030   7.963   9.312   1.321 -0.2149 -0.2030  0.0794
 1967W        W 6031   1.440   9.358   3.292 -0.1198  0.2796 -0.0745
 1968W        W 6032  10.286   4.327   1.408 -0.0310  0.3346 -0.1316
 1969W        W 6033  10.154   5.232   8.816  0.0439  0.1323 -0.0614
 1970W        W 6034   9.243   1.483   9.304  0.0975 -0.1601 -0.1173
 1971W        W 6035   7.190   7.890   9.424  0.2650 -0.0326  0.0295
 1972W        W 6036   3.460   2.306   1.464  0.2356  0.4141  0.0243
 1973W        W 6037   2.520   3.614   8.982 -0.1571  0.1120  0.0073
 1974W        W 6038   0.056  10.500  11.075 -0.0108 -0.1117 -0.2363
 1975W        W 6039   2.669   9.944  10.091  0.2932  0.2963 -0.0370
 1976W        W 6040   1.670   3.508  10.316  0.1874  0.1656  0.1474
 1977W        W 6041   8.483   7.796   8.873 -0.2938  0.1997  0.0002
 1978W        W 6042   3.460   2.499   2.380  0.1139  0.1419  0.3158
 1979W        W 6043   6.940   5.345   9.428  0.1463 -0.3970  0.0572
 1980W        W 6044   1.775   4.285   7.897  0.1669 -0.1232  0.3561
 1981W        W 6045  10.124   3.487   9.220  0.0018 -0.1521 -0.2831
 1982W        W 6046   6.324   9.775   1.735  0.3918  0.0059  0.0152
 1983W        W 6047   6.155   6.362   9.904 -0.3176  0.0390  0.2030
 1984W        W 6048   2.119   9.725   3.229  0.5134  0.1080  0.1690
 1985W        W 6049   7.636   0.952   8.350  0.1609 -0.1199  0.4087
 1986W        W 6050   9.338   4.413   1.697 -0.1694 -0.1628 -0.0343
 1987W        W 6051  10.508   5.559   8.973  0.0041 -0.2496  0.2067
 1988W        W 6052   8.314   0.287   7.699  0.0429  0.2555 -0.1326
 1989W        W 6053   7.583   5.674  10.691 -0.1047 -0.0159 -0.2116
 1990W        W 6054   9.869   4.420   9.174 -0.0441  0.1867 -0.0102
 1991W        W 6055   2.572   7.467   9.472  0.0403  0.1045 -0.0876
 1992W        W 6056   3.245   1.998   1.165  0.2741 -0.1389 -0.2204
 1993W        W 6057   8.434   1.729   9.227 -0.0932  0.5250  0.3804
 1994W        W 6058   8.288   9.212   2.208 -0.0680 -0.1001 -0.1648
 1995W        W 6059   1.538   8.443  10.158 -0.1210 -0.0076 -0.0338
 1996W        W 6060   0.256   5.234   8.709 -0.0759 -0.2299 -0.0676
 1997W        W 6061   0.502   3.717   1.922 -0.1297  0.0878 -0.1034
 1998W        W 6062   3.780   5.904   1.881 -0.2403  0.2548 -0.2631
 1999W        W 6063   2.515   2.763   0.530  0.0447 -0.2593  0.1143
 2000W        W 6064   6.191   3.213   2.102  0.4000 -0.1091  0.0124
 2001W        W 6065   4.932  10.676   3.645  0.1197 -0.0487 -0.0260
 2002W        W 6066   1.632   7.300   2.440  0.1761  0.2357 -0.0520
 2003W        W 6067   9.529   7.147   1.669  0.1510  0.1620 -0.1104
 2004W        W 6068   6.640   2.832   8.752 -0.3543 -0.0260 -0.1329
 2005W        W 6069   3.574   2.609   8.016 -0.1033  0.2957  0.2001
 2006W        W 6070   2.652   3.096   8.903 -0.0284 -0.0026  0.2316
 2007W        W 6071   4.561  10.223   7.977  0.3060  0.1023  0.1010
 2008W        W 6072   2.662   9.857   2.049  0.0036  0.0458  0.1336
 2009W        W 6073   3.021   0.728   8.229 -0.2906  0.4890  0.0779
 2010W        W 6074   6.982   0.848   7.728 -0.1815 -0.2786 -0.1801
 2011W        W 6075  10.037   1.501   2.931  0.0333  0.2707 -0.0807
 2012W        W 6076   3.541   1.615   8.340  0.2435 -0.0431  0.2682
 2013W        W 6077   5.908  10.381   3.775 -0.0347 -0.0081  0.1275
 2014W        W 6078   8.376   7.589   0.170 -0.1376 -0.0032  0.0279
 2015W        W 6079   7.154   3.276  11.054  0.0000  0.0126  0.0656
 2016W        W 6080   1.469   8.234   8.354 -0.1563 -0.0378  0.1977
 2017W        W 6081   8.377   1.748   8.728  0.0910  0.3741 -0.1259
 2018W        W 6082   0.981  10.484   2.243 -0.1223  0.1591  0.1710
 2019W        W 6083   0.740   2.165  10.024 -0.1331 -0.4357  0.0449
 2020W        W 6084   8.419   3.454   1.506 -0.1939 -0.0850  0.0239
 2021W        W 6085   3.564   5.722   0.695 -0.0407  0.0095  0.1659
 2022W        W 6086   6.796   0.424   7.852 -0.0867  0.1090  0.1152
 2023W        W 6087   7.054   2.105  10.662 -0.0133  0.1278  0.1779
 2024W        W 6088   1.954   6.759   9.487  0.0305  0.1745 -0.0518
 2025W        W 6089   8.232   3.399   8.494 -0.1121 -0.2724  0.1049
 2026W        W 6090   2.835   8.260   1.380 -0.0558 -0.0025  0.0118
 2027W        W 6091   4.881   5.005   9.766  0.1540 -0.1849 -0.0597
 2028W        W 6092   8.908   9.852   2.323  0.0701  0.0174  0.2045
 2029W        W 6093   0.354   3.406   8.982  0.3483 -0.2904  0.0463
 2030W        W 6094   2.026   4.468   8.908  0.3153 -0.1309  0.2079
 2031W        W 6095   2.006  10.265   8.671  0.1522 -0.1191 -0.2518
 2032W        W 6096   7.239  10.748   7.528  0.1482 -0.3423  0.3104
 2033W        W 6097   6.942   0.474  11.041  0.0258  0.2371 -0.1214
 2034W        W 6098   0.094   5.384   9.946  0.0224 -0.2034 -0.0295
 2035W        W 6099   1.862   0.085   2.310 -0.0438  0.2793 -0.0967
 2036W        W 6100   7.407   2.016  10.245 -0.1662  0.1300 -0.2286
 2037W        W 6101   5.798   8.274  11.140  0.0749 -0.0140 -0.0871
 2038W        W 6102   4.594   9.037   0.696 -0.3699 -0.1082 -0.0717
 2039W        W 6103   8.793   9.197   4.044  0.1692 -0.0111 -0.0711
 2040W        W 6104   4.817   1.745   1.304 -0.0440  0.2447  0.1750
 2041W        W 6105   8.065   5.692   1.924  0.0237  0.0734 -0.0042
 2042W        W 6106   5.726   3.090   0.953  0.2653  0.1096 -0.3841
 2043W        W 6107   5.322   7.207   0.714 -0.1900  0.0299 -0.0340
 2044W        W 6108   0.034   1.185   0.571  0.3862 -0.1007 -0.1676
 2045W        W 6109   2.165   0.534  10.620  0.0784 -0.0629 -0.1796
 2046W        W 6110   6.708  10.416  11.069  0.0636  0.0277  0.3633
 2047W        W 6111   1.599   9.813   3.421  0.1222  0.2335 -0.0166
 2048W        W 6112   9.713   7.234  10.650 -0.2385 -0.2194 -0.0553
 2049W        W 6113   3.613   4.679   7.287 -0.1262 -0.0922 -0.2355
 2050W        W 6114   3.107   0.920   1.872 -0.1163 -0.0336 -0.0676
 2051W        W 6115   2.808   5.307   1.938 -0.0069  0.0064 -0.0440
 2052W        W 6116   3.625   9.504   8.939 -0.2080 -0.0274  0.2632
 2053W        W 6117   9.976   4.874   7.887 -0.0406  0.2099 -0.0952
 2054W        W 6118   9.424   6.688   0.908 -0.2104  0.0081  0.0264
 2055W        W 6119   8.722   1.316   2.807  0.1899  0.0790 -0.1999
 2056W        W 6120   2.149   3.524   9.405  0.1520  0.1195  0.0549
 2057W        W 6121   0.130   4.010   0.683 -0.0831 -0.0369  0.0787
 2058W        W 6122   2.936   8.086   7.438  0.0456  0.2336 -0.1977
 2059W        W 6123   0.852  10.178  11.072  0.1366  0.1435 -0.0301
 2060W        W 6124   5.616   5.403   9.205  0.0724  0.0880  0.2292
 2061W        W 6125   8.787   5.753  10.902  0.2804  0.0046 -0.1270
 2062W        W 6126  10.111   3.228   8.703 -0.3414  0.1557 -0.0327
 2063W        W 6127   1.968   6.873   2.305  0.3397  0.0063  0.2352
 2064W        W 6128   2.016   1.183   8.039 -0.1015 -0.1696 -0.0112
 2065W        W 6129   9.732   2.537  10.335 -0.1596 -0.0077 -0.3591
 2066W        W 6130   0.293   8.448   0.911  0.0532  0.0538 -0.0913
 2067W        W 6131  10.677   8.661   0.663  0.1220 -0.2302  0.0646
 2068W        W 6132   7.410   1.943  11.013  0.0795 -0.1259  0.0133
 2069W        W 6133   3.074   3.644   1.756 -0.1563 -0.2339  0.0451
 2070W        W 6134   7.165   1.164   7.451 -0.2263  0.0007  0.0315
 2071W        W 6135   0.785   3.650  10.599  0.3287 -0.0848 -0.1243
 2072W        W 6136   0.214  10.156   3.377  0.0320 -0.1859 -0.1785
 2073W        W 6137   7.976   6.124   1.633 -0.1758 -0.0919 -0.2230
 2074W        W 6138  10.232   3.408  10.207 -0.1714  0.0852  0.0961
 2075W        W 6139   2.947   3.620   8.128  0.0271 -0.0019  0.0757
 2076W        W 6140   5.682   3.471   8.179 -0.3438  0.0074  0.1202
 2077W        W 6141  10.698   4.020   7.090 -0.1070 -0.0483  0.1712
 2078W        W 6142   0.723   4.522   2.304  0.0630 -0.1666  0.1009
 2079W        W 6143   5.273   6.877   2.983  0.3387  0.0510 -0.2082
 2080W        W 6144   8.518   0.337  10.909 -0.2656 -0.2667 -0.0085
 2081W        W 6145   2.648   1.171  11.142  0.1873 -0.0189  0.0022
 2082W        W 6146   3.094  10.569   3.271  0.0002 -0.1530  0.1453
 2083W        W 6147   6.143  10.510   8.192 -0.0739  0.1964  0.1022
 2084W        W 6148   7.922   4.681   9.783  0.0668  0.1608  0.3153
 2085W        W 6149   4.503   3.773  11.175 -0.0052  0.2060 -0.0052
 2086W        W 6150   8.984   0.361   2.459 -0.0168 -0.0859 -0.5231
 2087W        W 6151   1.598   8.387   3.000  0.0206  0.0179  0.0163
 2088W        W 6152   3.266   4.797   0.914  0.0177 -0.2432  0.3193
 2089W        W 6153   6.563   3.434   9.657  0.0532  0.1733 -0.1375
 2090W        W 6154   3.413   9.548   9.777 -0.2412  0.1802  0.1040
 2091W        W 6155   4.864   1.699   3.573  0.0662 -0.1171  0.1590
 2092W        W 6156  10.419   5.764   2.640  0.0262 -0.0888  0.4975
 2093W        W 6157   6.161   2.402   2.360  0.1524 -0.0945  0.3360
 2094W        W 6158   3.618   5.506  10.805  0.0362  0.1085 -0.2399
 2095W        W 6159   1.080   4.380   2.876 -0.1990  0.3807  0.2143
 2096W        W 6160   7.907   8.146   8.670  0.1933 -0.0193 -0.0351
 2097W        W 6161   5.154   6.622   2.057  0.1293 -0.0037 -0.0057
 2098W        W 6162   1.078   3.748   7.870 -0.0404 -0.0469 -0.0812
 2099W        W 6163   0.966   3.528   0.461 -0.1274  0.0668 -0.0400
 2100W        W 6164   8.250   1.513   2.984 -0.0075 -0.2507 -0.2352
 2101W        W 6165   6.487   6.160   8.264 -0.1036 -0.3197  0.2302
 2102W        W 6166   6.239   6.332  10.578  0.0110  0.0873 -0.3459
 2103W        W 6167   6.144   2.823   2.725  0.0538 -0.0836 -0.0722
 2104W        W 6168   4.121  10.586   8.686  0.0933 -0.0413 -0.0966
 2105W        W 6169   2.797   6.032   8.414  0.0741  0.0071  0.0729
 2106W        W 6170  10.684   9.044   3.798  0.0202  0.1766  0.0041
 2107W        W 6171   5.544   7.092  10.139 -0.0583  0.0242  0.2186
 2108W        W 6172   5.665   3.115  10.465  0.0362 -0.0493 -0.1502
 2109W        W 6173   1.901   1.722   7.842  0.0920 -0.3736  0.2002
 2110W        W 6174   1.222   6.428   1.193  0.0055 -0.1514  0.2294
 2111W        W 6175  10.729   9.894   0.530  0.1770  0.0350 -0.1282
 2112W        W 6176   9.117   8.876  11.038  0.2496 -0.3921  0.1630
 2113W        W 6177   0.296   0.074   0.571 -0.0504 -0.0738  0.0159
 2114W        W 6178   3.561   9.870   3.537 -0.0960  0.1116  0.2737
 2115W        W 6179   1.394   9.754   8.961  0.1427  0.0920 -0.0041
 2116W        W 6180   2.681   4.895   7.627  0.2275  0.0026  0.0763
 2117W        W 6181   4.738   2.026   9.860  0.2690 -0.0917  0.1061
 2118W        W 6182   3.600   0.276   8.801 -0.0713  0.0822  0.0260
 2119W        W 6183   9.961   2.366   0.945  0.1699  0.1737  0.3176
 2120W        W 6184   8.293   8.255   2.186  0.2770  0.0466  0.1226
 2121W        W 6185   7.684   7.621   9.424  0.1461  0.1009 -0.3308
 2122W        W 6186   8.075   7.404   0.669  0.1533  0.4040  0.3226
 2123W        W 6187   1.443   0.521   9.247 -0.1286  0.2264  0.0270
 2124W        W 6188   4.431   7.785  10.593  0.5038  0.0502  0.0616
 2125W        W 6189   4.552   0.534   1.270  0.0969  0.0048  0.1127
 2126W        W 6190   2.612   2.007  11.268  0.1483 -0.0301 -0.0814
 2127W        W 6191   0.585   8.404   8.531 -0.1331  0.0675 -0.3652
 2128W        W 6192   5.858   3.913   9.507 -0.2494 -0.1410  0.0161
 2129W        W 6193   6.281   4.712   0.100 -0.1955  0.0359 -0.1553
 2130W        W 6194   0.449   5.645  10.143 -0.2067 -0.1647 -0.2450
 2131W        W 6195   6.055   2.872  10.346 -0.1423  0.1181  0.0552
 2132W        W 6196   9.547   3.779   1.009 -0.0847 -0.0171  0.0008
 2133W        W 6197   5.570   2.777   9.087 -0.0416 -0.0957  0.0853
 2134W        W 6198   3.282   6.562   2.579 -0.2163 -0.0894 -0.1581
 2135W        W 6199   1.216   2.647   0.206 -0.1745 -0.2323 -0.2023
 2136W        W 6200   6.780   1.418   9.854  0.0726  0.0281  0.3283
 2137W        W 6201   7.123   6.062   1.099 -0.1282  0.0931 -0.2640
 2138W        W 6202   2.328   3.638   0.844  0.1808  0.1647  0.0456
 2139W        W 6203   0.127   1.388   7.552 -0.0143 -0.1711  0.0477
 2140W        W 6204   9.976  10.277   8.742  0.1001  0.0470  0.1175
 2141W        W 6205   1.732   2.758  10.180 -0.3010 -0.1141 -0.2531
 2142W        W 6206   1.660   0.874   7.874 -0.1362  0.1473  0.0764
 2143W        W 6207   8.600   1.373   3.290 -0.2263 -0.1680 -0.1554
 2144W        W 6208   4.393   7.817   9.458  0.1997  0.1954 -0.0768
 2145W        W 6209   4.124   3.443  11.290  0.1020 -0.1473  0.1481
 2146W        W 6210   4.711   8.659   7.726 -0.0704 -0.1365  0.0897
 2147W        W 6211   6.091   6.580   9.249  0.0579  0.0712  0.2189
 2148W        W 6212   8.099   9.198   3.839 -0.1274  0.1726  0.0390
 2149W        W 6213   7.382   6.115   9.257  0.0233  0.0587 -0.0916
 2150W        W 6214   8.861   8.840  10.041 -0.1438  0.3252  0.3470
 2151W        W 6215  10.606   3.012   8.569 -0.2398 -0.1772  0.1908
 2152W        W 6216   2.209   7.860   9.039 -0.0013  0.2434  0.0340
 2153W        W 6217   4.484   2.824   7.652  0.0516 -0.0136  0.3006
 2154W        W 6218   0.859   3.912   1.500 -0.1889  0.3519 -0.0671
 2155W        W 6219   6.531   1.860   9.846  0.1496 -0.2549  0.0692
 2156W        W 6220   8.592   5.464   9.412 -0.3595 -0.3148 -0.0431
 2157W        W 6221   9.248   0.416   8.304  0.1648 -0.2359  0.1534
 2158W        W 6222   2.676   0.029   0.402  0.0059 -0.2412  0.0070
 2159W        W 6223   6.085   5.789   7.501  0.3728 -0.1105  0.0019
 2160W        W 6224   2.534   2.422  10.102  0.0425 -0.0489  0.0481
 2161W        W 6225   7.887   0.878   7.116 -0.0807  0.1357  0.2996
 2162W        W 6226   5.627   7.100   1.758 -0.3558  0.1564  0.2521
 2163W        W 6227   8.904   0.507   2.914  0.2064 -0.3732 -0.0522
 2164W        W 6228   4.011   2.657   2.193 -0.2994 -0.1057 -0.0043
 2165W        W 6229   8.489   2.967   1.237  0.1352 -0.1190 -0.1526
 2166W        W 6230   4.921   7.790   1.385 -0.3899  0.0127  0.2514
 2167W        W 6231  10.475   7.682   9.367  0.0470 -0.0262 -0.1063
 2168W        W 6232   6.868   3.455   3.631 -0.2766 -0.1067  0.2573
 2169W        W 6233   7.942   0.164   8.118  0.0723  0.0321 -0.0142
 2170W        W 6234   3.359  10.118   9.544  0.0326  0.1303  0.1069
 2171W        W 6235   4.017   4.176   1.824  0.0288 -0.1025  0.1541
 2172W        W 6236   2.567   8.161  10.597 -0.0013  0.0906  0.1934
 2173W        W 6237   6.137   9.587  10.472 -0.0027 -0.0952 -0.3173
 2174W        W 6238   6.019   8.703   0.114 -0.0278 -0.0525  0.2760
 2175W        W 6239   0.309   5.179   1.913 -0.0914  0.0995  0.3079
 2176W        W 6240   3.757   8.857   1.006  0.0790 -0.0620  0.0337
 2177W        W 6241   8.585   3.397   0.092  0.0651 -0.2959  0.0709
 2178W        W 6242   9.393   1.184   3.429  0.2092  0.1070  0.1284
 2179W        W 6243   9.924   3.878   1.361 -0.0984 -0.3396 -0.0199
 2180W        W 6244   3.200   0.682   0.989  0.1180 -0.0691  0.2034
 2181W        W 6245   0.263   2.717   9.848  0.0421 -0.0316 -0.1437
 2182W        W 6246  10.005   5.314   9.687  0.0784  0.2542 -0.1165
 2183W        W 6247   1.560   6.498  11.068  0.2625  0.0102  0.0880
 2184W        W 6248   7.071   0.554   1.425 -0.0847  0.1449  0.1094
 2185W        W 6249   4.508   1.336   1.975  0.3317  0.3541  0.0279
 2186W        W 6250   8.821   0.337   1.955 -0.0677  0.1084 -0.1397
 2187W        W 6251   7.883   4.997   2.122  0.0197 -0.0120 -0.0434
 2188W        W 6252   5.779   7.773  10.816 -0.2904 -0.4383 -0.1159
 2189W        W 6253   5.856   6.620   7.726 -0.5212  0.0838 -0.2011
 2190W        W 6254   7.578   4.076   1.533  0.0866  0.0733 -0.2034
 2191W        W 6255   9.749   7.074   0.051  0.1051 -0.2290  0.1565
 2192W        W 6256   0.593   2.697   9.365 -0.2613 -0.0952  0.1001
 2193W        W 6257   7.962   5.379   1.070  0.1327 -0.2499 -0.0045
 2194W        W 6258   7.936   2.000   2.672 -0.1350  0.2576 -0.0304
 2195W        W 6259   1.855   0.136   9.103 -0.0403 -0.2183 -0.1026
 2196W        W 6260   8.298   8.117   1.180 -0.1443  0.0278 -0.2721
 2197W        W 6261   1.658   5.224   3.233 -0.0746  0.0011  0.1098
 2198W        W 6262   1.295   5.052   7.756 -0.0079  0.0331  0.1810
 2199W        W 6263   2.761   1.572   7.608  0.0071  0.2144  0.0385
 2200W        W 6264   9.216   3.310   9.216  0.4251  0.3416  0.2682
 2201W        W 6265   4.085   9.526   8.673 -0.1300  0.1763 -0.3032
 2202W        W 6266   0.929   7.401   9.091  0.2638 -0.3157 -0.2347
 2203W        W 6267   2.473   6.856   9.737  0.3157  0.0682 -0.1096
 2204W        W 6268   3.111   7.453   7.576 -0.0040  0.3774  0.1769
 2205W        W 6269   7.365   9.208   2.215  0.2541  0.1173 -0.1293
 2206W        W 6270  10.201   5.300  10.890  0.2599 -0.2633  0.1431
 2207W        W 6271   6.580   4.086   9.228 -0.2816 -0.1507 -0.1756
 2208W        W 6272   7.144  10.538   2.235  0.2489 -0.1139  0.2199
 2209W        W 6273   2.238   8.255   9.493 -0.1244 -0.0844  0.2045
 2210W        W 6274   7.143   0.703   1.918  0.0391  0.2001 -0.1015
 2211W        W 6275   3.647  10.096   2.007 -0.7553 -0.1100 -0.0041
 2212W        W 6276   6.397   0.173   8.173  0.3196 -0.3669 -0.2976
 2213W        W 6277   2.666   4.147   8.024 -0.0548  0.0852 -0.0908
 2214W        W 6278   9.840   4.886   7.310  0.1610 -0.0466 -0.0072
 2215W        W 6279  10.107   7.110  10.302 -0.3323 -0.0130 -0.2041
 2216W        W 6280   6.162   0.703   9.009 -0.1547 -0.1711 -0.3016
 2217W        W 6281   1.696   5.601   9.432 -0.0726 -0.5121  0.0390
 2218W        W 6282   4.959   0.407  10.897 -0.0237  0.0560  0.0077
 2219W        W 6283   7.012   3.625   2.113 -0.0629 -0.2624  0.0469
 2220W        W 6284   4.523   7.212   1.028  0.0493 -0.3651  0.0325
 2221W        W 6285   4.491  10.067   9.210  0.0669 -0.2505 -0.1507
 2222W        W 6286  10.642   5.580   9.498  0.1621 -0.0388  0.2579
 2223W        W 6287   7.375   2.091   9.305 -0.1175 -0.0141 -0.1667
 2224W        W 6288   7.403   9.816   8.648 -0.1009 -0.1062 -0.0779
 2225W        W 6289   6.242   3.024   9.088  0.2355 -0.3474  0.0452
 2226W        W 6290   0.517   7.277   2.188 -0.1131  0.0603 -0.0455
 2227W        W 6291   6.337   4.831   6.708  0.1092  0.2873 -0.3085
 2228W        W 6292   2.982   3.497   2.935 -0.1357 -0.0284 -0.0158
 2229W        W 6293   8.205   8.945   9.779  0.0118 -0.2328 -0.2811
 2230W        W 6294   9.033   7.204   9.365  0.1056  0.0685 -0.1587
 2231W        W 6295   0.121   1.345   1.900  0.0312 -0.0460  0.0525
 2232W        W 6296   4.665   0.841   9.820  0.0658  0.1489 -0.0558
 2233W        W 6297   2.528   0.109   0.874 -0.2292  0.2302  0.1178
 2234W        W 6298   7.476   4.934   8.861 -0.0651  0.0160  0.2096
 2235W        W 6299   5.770   4.399   1.161 -0.0174 -0.0734 -0.1244
 2236W        W 6300   0.144   0.911   0.989 -0.1060  0.0530 -0.1553
 2237W        W 6301   5.804   4.505   8.723 -0.4502  0.2111  0.0429
 2238W        W 6302   3.990   6.190   9.261  0.5116  0.0109  0.0555
 2239W        W 6303   3.226   1.344   3.566 -0.0366 -0.1106 -0.4346
 2240W        W 6304   1.346   4.896  10.560 -0.0666  0.1201 -0.0871
 2241W        W 6305   4.172   3.299  10.374  0.0547  0.0420 -0.0104
 2242W        W 6306   9.723   5.196   8.638  0.0987  0.2014  0.3139
 2243W        W 6307   5.993   8.018   2.147 -0.1445  0.0203 -0.3565
 2244W        W 6308   1.776   5.329  10.327 -0.1861  0.1280  0.3423
 2245W        W 6309   5.436   3.770   7.645 -0.1044  0.0198  0.0423
 2246W        W 6310   7.200  10.277   8.994 -0.0685  0.0119 -0.2686
 2247W        W 6311   0.992  10.404  10.078  0.0336  0.0098 -0.0645
 2248W        W 6312   7.213   3.698   2.535 -0.0366 -0.0228  0.1711
 2249W        W 6313   1.194   4.672   0.830  0.2648  0.0416 -0.0468
 2250W        W 6314   1.288   0.874   9.726 -0.0999  0.4034  0.2360
 2251W        W 6315   1.841   5.686  10.794 -0.1550  0.0762 -0.0097
 2252W        W 6316   8.326   3.205   7.910  0.1832  0.3415  0.2554
 2253W        W 6317  10.348   3.910   2.204  0.3879  0.2431 -0.2036
 2254W        W 6318   7.652   4.448  10.106 -0.3629 -0.1172 -0.2980
 2255W        W 6319   1.908   4.346   0.669 -0.0229 -0.2060 -0.1963
 2256W        W 6320   3.624  10.742  10.438 -0.0265  0.2219 -0.1016
 2257W        W 6321   2.587  10.285   8.693  0.1750  0.0132  0.1284
 2258W        W 6322   9.466   1.961   0.834  0.1444 -0.0138  0.3317
 2259W        W 6323   2.834   7.106   8.487  0.3578 -0.3688 -0.1691
 2260W        W 6324  10.048   9.835   3.156  0.1305  0.3208  0.3452
 2261W        W 6325   6.658   0.487   7.373  0.0128 -0.0698 -0.1477
 2262W        W 6326   2.791   2.346   0.359 -0.0056  0.0716  0.1210
 2263W        W 6327   5.822   5.680   1.789 -0.2416 -0.0296  0.1102
 2264W        W 6328   5.102   9.038   1.357 -0.0934  0.2150  0.2893
 2265W        W 6329   6.833   4.543   8.248  0.0211 -0.1600  0.2175
 2266W        W 6330   6.796   6.595   2.276 -0.5002  0.1245  0.3957
 2267W        W 6331   7.671   1.567   8.301  0.1859  0.1355  0.0703
 2268W        W 6332   1.479   8.138  10.644 -0.0902  0.2700  0.2207
 2269W        W 6333   0.945   8.259   9.542 -0.2097 -0.3223  0.0334
 2270W        W 6334   4.218   1.683   9.887  0.2853  0.0386  0.0396
 2271W        W 6335   6.898   0.986   0.101  0.2964 -0.3066  0.0087
 2272W        W 6336   7.064   1.436   8.952 -0.2662 -0.2952  0.1682
 2273W        W 6337   1.943   4.593   1.170  0.0248 -0.1732  0.2024
 2274W        W 6338   1.744   4.312  10.635 -0.0600 -0.1282 -0.0917
 2275W        W 6339   2.854   6.202   0.941  0.2842 -0.2867 -0.2520
 2276W        W 6340   5.713   2.581   2.428 -0.0785  0.3102  0.3579
 2277W        W 6341  10.032   5.777   8.126  0.1181  0.0991  0.1607
 2278W        W 6342   2.449  10.384   0.734  0.1405  0.2578  0.0328
 2279W        W 6343   7.000   4.347   9.528 -0.0067  0.1938  0.4275
 2280W        W 6344   4.018   2.023  11.103  0.0373 -0.2415  0.1381
 2281W        W 6345   7.607   3.554   1.149 -0.1851  0.0870 -0.0007
 2282W        W 6346   2.110   8.257   0.928 -0.2578 -0.0759 -0.1291
 2283W        W 6347   7.223   4.044   9.076 -0.3036  0.0607 -0.3115
 2284W        W 6348   6.587   1.711   8.948 -0.2785  0.0888 -0.2460
 2285W        W 6349   8.076   0.245   7.092 -0.1425 -0.1781 -0.0385
 2286W        W 6350   6.494   6.500   7.879 -0.1507 -0.1735 -0.4575
 2287W        W 6351   9.366   6.731   9.380  0.2684  0.0790 -0.1360
 2288W        W 6352   1.345   5.498   2.870 -0.0649 -0.0012  0.1107
 2289W        W 6353  10.018   6.995   1.560 -0.0776  0.3027 -0.2147
 2290W        W 6354   9.748   0.618   2.070  0.1767  0.0267 -0.0174
 2291W        W 6355   5.633   9.412  10.293  0.1388 -0.0694 -0.0178
 2292W        W 6356   4.044   4.361   9.506 -0.0640  0.0721  0.1633
 2293W        W 6357   7.967   0.616   8.556  0.3008  0.5466  0.2638
 2294W        W 6358   1.379   7.096   1.970  0.3523  0.0048 -0.0808
 2295W        W 6359   5.843   9.656   0.629  0.1687  0.0176  0.2258
 2296W        W 6360   3.665   4.605   2.933  0.3854  0.2360  0.2848
 2297W        W 6361   2.078   6.002   9.545 -0.1287  0.1367  0.3684
 2298W        W 6362   9.968   8.382   1.838 -0.1257  0.0538 -0.0371
 2299W        W 6363   7.011   2.015   8.975 -0.0782  0.2096 -0.1514
 2300W        W 6364   0.594   6.611  11.025 -0.0321  0.0911  0.0444
 2301W        W 6365   0.548   7.113   8.984  0.4756  0.1394  0.0519
 2302W        W 6366   8.125   4.208   9.749 -0.0416  0.1681  0.1517
 2303W        W 6367   0.800   7.233   3.229 -0.6197 -0.0919 -0.0474
 2304W        W 6368   7.639   7.834  11.013 -0.0301 -0.2355 -0.1588
 2305W        W 6369   8.875   8.593   2.833 -0.0241 -0.0963  0.0531
 2306W        W 6370   3.943   6.015   2.733 -0.0265 -0.0333  0.2690
 2307W        W 6371   7.119   9.680   2.351  0.0834  0.0338 -0.2574
 2308W        W 6372   4.464   5.617   7.974  0.1346  0.0691 -0.3258
 2309W        W 6373   1.526   3.501  10.861 -0.0010  0.0070 -0.3687
 2310W        W 6374   0.964   6.855   2.012 -0.1215 -0.2546  0.0099
 2311W        W 6375  10.518   2.300  11.223  0.2299 -0.0819  0.3160
 2312W        W 6376   6.076   1.906   2.345  0.2098 -0.0006 -0.2722
 2313W        W 6377   0.828   0.538   1.127  0.2080  0.3286  0.0183
 2314W        W 6378   0.155   8.358   1.993 -0.0715  0.0262 -0.4001
 2315W        W 6379   3.866   2.247  10.360  0.2434  0.1487 -0.3382
 2316W        W 6380   8.302   7.853   0.815  0.0498  0.2202  0.0444
 2317W        W 6381   8.508   6.176   0.275 -0.1122  0.3433 -0.0078
 2318W        W 6382   5.810   2.056  11.269  0.1732  0.1110 -0.2746
 2319W        W 6383   8.778   8.006   0.425  0.0910 -0.1498  0.2225
 2320W        W 6384   2.548   7.930   8.631  0.1285  0.1902 -0.2740
 2321W        W 6385   9.755   7.834   0.102 -0.0181  0.0929 -0.0353
 2322W        W 6386   9.808   2.231   0.476 -0.0358  0.3165  0.1912
 2323W        W 6387   8.190   3.673   7.898  0.2654  0.2058 -0.0918
 2324W        W 6388   7.666  10.534   2.090 -0.0299  0.0284  0.1704
 2325W        W 6389   9.187  10.626   1.598  0.0239 -0.0890  0.0853
 2326W        W 6390   0.020   4.603  11.292 -0.2490  0.0995 -0.1117
 2327W        W 6391   0.888   6.264   7.463  0.0012  0.1013  0.2852
 2328W        W 6392   0.409   6.158  10.985  0.0483 -0.0821  0.1381
 2329W        W 6393   4.995   2.373   0.481  0.0743 -0.0612 -0.1381
 2330W        W 6394   7.056   2.474  10.235  0.3374 -0.0934 -0.0181
 2331W        W 6395   9.030   7.295   8.828  0.2197  0.3169 -0.0443
 2332W        W 6396   3.420   4.266   1.717 -0.0080  0.2640 -0.0181
 2333W        W 6397  10.448   5.239   1.961  0.1533 -0.0016  0.1791
 2334W        W 6398   7.548   3.915   2.902 -0.2199 -0.0008 -0.1808
 2335W        W 6399   4.330   7.501   8.193  0.0918 -0.0464  0.1732
 2336W        W 6400   7.974   8.402  10.861 -0.1062  0.3196 -0.0838
 2337W        W 6401   0.082   2.517   6.713 -0.2941 -0.0544  0.1694
 2338W        W 6402   0.260   4.916  10.513 -0.1298  0.1180 -0.0540
 2339W        W 6403   6.512  10.161   9.016  0.0331  0.3682 -0.0028
 2340W        W 6404   5.445   5.045   9.617 -0.1522  0.2970  0.0923
 2341W        W 6405   2.386   8.438  10.972  0.3058  0.1022 -0.2485
 2342W        W 6406   4.733   5.598  11.325 -0.2728 -0.0701 -0.1090
 2343W        W 6407   9.064  10.582   9.620 -0.0087 -0.0522 -0.5003
 2344W        W 6408   6.674   5.472  10.419  0.0914 -0.0962 -0.0649
 2345W        W 6409   4.134   3.538   9.881  0.0659  0.1516 -0.2363
 2346W        W 6410   3.462  10.180   1.428 -0.2001  0.2473  0.3544
 2347W        W 6411   6.749   8.315   1.248  0.1160  0.0995 -0.1371
 2348W        W 6412   8.368  10.280   8.906  0.2126  0.0986  0.1888
 2349W        W 6413   1.108   9.194   8.606 -0.1399  0.0641 -0.1744
 2350W        W 6414   0.628   8.238   2.808  0.1197 -0.0055 -0.0408
 2351W        W 6415   1.107   3.001   0.596 -0.2345 -0.1551 -0.0357
 2352W        W 6416   1.479   4.827   6.772 -0.2354 -0.1389  0.4289
 2353W        W 6417   1.300   1.541   1.892 -0.3189  0.1114  0.0088
 2354W        W 6418   6.587   3.191   1.277  0.0343 -0.0333 -0.1328
 2355W        W 6419  10.544   1.034  10.346 -0.0516 -0.2596  0.0682
 2356W        W 6420   9.265   9.271   0.433  0.1183  0.0304 -0.0291
 2357W        W 6421   0.392   0.790   2.980 -0.1437  0.0825  0.0910
 2358W        W 6422   4.113   0.623   1.579 -0.3052  0.0845  0.0116
 2359W        W 6423   5.058  10.327  11.190 -0.2587  0.1436  0.1346
 2360W        W 6424   6.351   4.854   0.610  0.2200  0.1314 -0.4790
 2361W        W 6425   2.512   1.461   1.036 -0.1135  0.1011 -0.0942
 2362W        W 6426   4.822   1.866   8.455 -0.0964 -0.2012 -0.2405
 2363W        W 6427   3.809   2.836   2.723 -0.2830 -0.1736 -0.0273
 2364W        W 6428   6.950   5.234   2.114  0.0444 -0.1006 -0.0485
 2365W        W 6429  10.076   1.472   0.081 -0.1503  0.1584 -0.2801
 2366W        W 6430   3.180  10.568   9.654  0.0384 -0.0932 -0.1066
 2367W        W 6431  10.743   6.202   1.821 -0.0272 -0.0490 -0.0496
 2368W        W 6432   8.587   2.070   7.468  0.4789  0.3009 -0.3071
 2369W        W 6433   8.796   2.722  10.981  0.2896 -0.0904 -0.2053
 2370W        W 6434   1.419   2.583   9.415 -0.2312  0.1530 -0.1611
 2371W        W 6435   9.464   3.757   2.215  0.2795 -0.0883  0.1648
 2372W        W 6436   1.233   1.063   8.112  0.1160 -0.5506  0.1400
 2373W        W 6437   5.432   5.159   0.464  0.2523  0.1593 -0.1776
 2374W        W 6438   5.641   7.182   3.102 -0.1934 -0.1777  0.2536
 2375W        W 6439   3.518   6.873  10.431 -0.2778  0.2621  0.1306
 2376W        W 6440   0.308   5.364  11.336 -0.0200 -0.0677  0.0658
 2377W        W 6441   2.245   6.578  10.426  0.0549 -0.1444  0.2337
 2378W        W 6442   4.747   8.705   2.726  0.0990  0.0185  0.0314
 2379W        W 6443   5.284   6.068   1.384  0.0239 -0.0649 -0.0047
 2380W        W 6444   6.524   2.813   7.618  0.3819 -0.1670 -0.0489
 2381W        W 6445   2.602   2.757   2.579 -0.0481 -0.0430  0.1341
 2382W        W 6446   0.522   5.246   0.450 -0.4213  0.1142 -0.2300
 2383W        W 6447   2.809   3.318   0.009  0.1767 -0.1085  0.1832
 2384W        W 6448   8.900   6.453   0.245  0.0410  0.1513  0.0979
 2385W        W 6449   4.132   1.153  10.667  0.2073  0.1129  0.1076
 2386W        W 6450   2.966   5.648   9.865  0.3279 -0.1293  0.1835
 2387W        W 6451   5.860   4.521  11.289 -0.1418  0.1420 -0.0279
 2388W        W 6452   2.962   5.245   7.073  0.5552  0.3086  0.0852
 2389W        W 6453   8.956   1.945   7.805 -0.0657 -0.0315  0.1641
 2390W        W 6454   5.082   4.453   6.918  0.0493  0.1602 -0.2005
 2391W        W 6455   5.665   5.793   6.594  0.1721 -0.0951 -0.2003
 2392W        W 6456   9.427   3.620   6.264  0.1080 -0.1347 -0.0669
 2393W        W 6457   1.042   3.699   2.676 -0.1596 -0.2438 -0.1020
 2394W        W 6458  10.657   4.327   2.930  0.2425  0.2610 -0.4831
 2395W        W 6459   9.257   7.360   3.147  0.1065 -0.1751  0.0352
 2396W        W 6460   7.743   7.644   3.015  0.0310 -0.3257  0.1642
 2397W        W 6461   0.753   3.668   9.284 -0.2220 -0.0585 -0.0590
 2398W        W 6462   6.558  10.423   0.157  0.0310  0.2582 -0.1110
 2399W        W 6463   7.452   1.253   7.954 -0.3037  0.5923 -0.4589
 2400W        W 6464   8.284   1.880   1.187 -0.1964  0.1141  0.1327
 2401W        W 6465   2.416   7.455   8.441 -0.0237  0.0709 -0.0085
 2402W        W 6466   6.594   9.584   0.048 -0.4080  0.2474 -0.1389
 2403W        W 6467   7.126   3.859   6.630 -0.1135  0.2239 -0.0827
 2404W        W 6468   8.748   9.031  10.606  0.0508  0.1818  0.0827
 2405W        W 6469   1.294   6.896  10.353  0.0417  0.3898 -0.0145
 2406W        W 6470   8.579   7.362   9.114 -0.2863 -0.1979  0.1299
 2407W        W 6471   3.852   8.609   3.154 -0.1313  0.1520 -0.2855
 2408W        W 6472   5.329   3.305   7.870  0.0727 -0.2702 -0.1864
 2409W        W 6473  10.559   9.265   1.345  0.1518 -0.0546  0.2472
 2410W        W 6474   1.588   5.562   8.224 -0.1861 -0.1123 -0.1674
 2411W        W 6475   0.534   5.663   3.520  0.0792  0.0961 -0.2256
 2412W        W 6476  10.204   7.660  10.402  0.3648 -0.1104 -0.1532
 2413W        W 6477   1.091   9.250   1.986 -0.1140  0.1501  0.0074
 2414W        W 6478   6.148   9.486   9.597 -0.0775 -0.0014  0.0922
 2415W        W 6479   6.748   7.146   0.475 -0.1087 -0.1213 -0.1152
 2416W        W 6480   9.665   0.913   1.637  0.2303  0.1341 -0.1662
 2417W        W 6481   4.619   1.440   3.207 -0.0399 -0.0263  0.2206
 2418W        W 6482   5.484   9.940   1.659 -0.4195 -0.1347 -0.0315
 2419W        W 6483   3.501   6.554   3.307  0.0069 -0.3956  0.1849
 2420W        W 6484   3.905   8.455   0.665 -0.0588 -0.0319 -0.1440
 2421W        W 6485   5.687   8.337   1.137  0.1183 -0.2253 -0.3385
 2422W        W 6486   2.827   1.578   9.330  0.2032  0.0750 -0.0098
 2423W        W 6487   3.269   1.658   0.183  0.2196  0.1071  0.2282
 2424W        W 6488  10.399   2.155   9.836 -0.0544 -0.1007  0.1060
 2425W        W 6489   8.343   0.191   1.813  0.0683 -0.2247 -0.1646
 2426W        W 6490   6.575   9.804   0.783  0.2472 -0.1845  0.0967
 2427W        W 6491   0.833   5.312   3.519 -0.0304  0.3276  0.0507
 2428W        W 6492   0.972   9.985   8.799 -0.2151  0.1158 -0.1570
 2429W        W 6493   4.064   7.065   9.664  0.2673  0.0305  0.1578
 2430W        W 6494   4.762   4.716   2.748 -0.0228 -0.2272 -0.1505
 2431W        W 6495   3.244   2.752   8.891 -0.0357  0.0022 -0.1756
 2432W        W 6496   2.045   5.853   0.628 -0.2661 -0.0157 -0.0931
 2433W        W 6497   9.286   9.648  11.109 -0.3338 -0.1832  0.1279
 2434W        W 6498  10.240   6.239   1.037 -0.1146  0.2370 -0.3751
 2435W        W 6499   5.552  10.316   8.540 -0.1360  0.6066  0.3539
 2436W        W 6500   9.850   2.891   0.910 -0.2722  0.0387 -0.2457
 2437W        W 6501   5.188   3.158   8.993 -0.0962  0.0508  0.1241
 2438W        W 6502   5.019   8.185   2.724  0.1264  0.0540 -0.1000
 2439W        W 6503   8.784   9.645   9.899  0.0809 -0.1272 -0.2589
 2440W        W 6504   8.527   2.246  10.262  0.1270 -0.1585 -0.2906
 2441W        W 6505   6.184  10.475  11.163 -0.0916 -0.0217 -0.0778
 2442W        W 6506   9.812   0.674   3.159  0.0867  0.1090 -0.0541
 2443W        W 6507   5.093   7.803   8.371 -0.0902  0.4561  0.1439
 2444W        W 6508   0.029   9.214   9.807  0.0137  0.4662 -0.0776
 2445W        W 6509   5.544  10.675   9.083  0.4866  0.1128  0.0594
 2446W        W 6510   5.272   2.629   2.792 -0.2848 -0.1961 -0.0148
 2447W        W 6511   4.554   5.468   7.019 -0.0026 -0.1405  0.1687
 2448W        W 6512   4.158   5.297   2.443  0.1623  0.0817  0.1318
 2449W        W 6513   3.246   6.093   7.703 -0.3096  0.0153 -0.1812
 2450W        W 6514   1.755   9.201   7.277 -0.1431 -0.1418  0.1455
 2451W        W 6515   9.628   7.273   1.090  0.0434 -0.1146  0.2189
 2452W        W 6516   8.815   5.068   2.202 -0.1252 -0.0123  0.1130
 2453W        W 6517   3.620  10.655   1.901  0.0908  0.3633 -0.0697
 2454W        W 6518   6.867   9.819   7.918 -0.0032 -0.0384 -0.0687
 2455W        W 6519   5.176   9.299   9.456  0.0465  0.3956 -0.1137
 2456W        W 6520   1.169   0.155   8.358 -0.0159 -0.0433  0.1620
 2457W        W 6521   5.670   6.627   3.175  0.3196 -0.2146  0.1971
 2458W        W 6522   3.304  10.145   0.907  0.0496  0.1965 -0.1428
 2459W        W 6523   6.854   0.289   8.773 -0.0875  0.0697 -0.1067
 2460W        W 6524  10.552   9.679  10.439 -0.1964  0.0604 -0.0466
 2461W        W 6525   5.237   3.531   6.825  0.0843  0.1309 -0.3953
 2462W        W 6526   3.650  10.652   3.321 -0.0139  0.1102  0.0085
 2463W        W 6527   0.806   6.069   1.088 -0.1300  0.0239 -0.0902
 2464W        W 6528   6.402   2.816  10.678  0.2424 -0.2286  0.1309
 2465W        W 6529  10.064   7.209   2.588  0.2284 -0.1570 -0.2110
 2466W        W 6530   5.396   3.106   9.442  0.2754 -0.2870  0.0554
 2467W        W 6531   6.039   6.979  11.248 -0.1486 -0.0251 -0.3239
 2468W        W 6532   5.659   1.463  10.306 -0.1027  0.1243 -0.1217
 2469W        W 6533   4.132   7.324  10.593 -0.0515 -0.0831  0.0431
 2470W        W 6534   5.117   7.160  10.577  0.1267 -0.1257  0.1266
 2471W        W 6535  10.696   9.716   1.302 -0.0106 -0.2658  0.1052
 2472W        W 6536   3.547   0.204   1.498 -0.0909 -0.0927  0.1803
 2473W        W 6537   8.690   8.943   2.478 -0.3834  0.0927  0.0445
 2474W        W 6538   9.755   1.740   0.473 -0.0455  0.0081 -0.2209
 2475W        W 6539   9.552   2.395   0.076 -0.0753  0.0881  0.0940
 2476W        W 6540   2.247   1.420   8.446 -0.0888  0.0887  0.2759
 2477W        W 6541   4.542   9.631  10.896  0.0882  0.0649 -0.1421
 2478W        W 6542   9.123   1.198   9.709  0.0576  0.0328  0.2751
 2479W        W 6543   0.007   0.203   9.249  0.1280  0.2079 -0.0039
 2480W        W 6544   1.951   8.869   3.791 -0.1001 -0.3323  0.0897
 2481W        W 6545   9.761   2.896  10.791 -0.1463  0.0967  0.0295
 2482W        W 6546   0.830   5.002   1.045  0.0283  0.2241  0.3632
 2483W        W 6547   5.712   6.281  10.880  0.1057  0.0216 -0.1136
 2484W        W 6548   0.409   1.332  11.239  0.1759 -0.0273 -0.1511
 2485W        W 6549   6.690   9.668   2.127  0.1860 -0.1519 -0.0655
 2486W        W 6550   3.727   9.188   1.804 -0.4505 -0.2038 -0.0878
 2487W        W 6551   1.134   6.284   8.224 -0.2583  0.2842 -0.1514
 2488W        W 6552   8.943   9.204   0.900 -0.1658 -0.1257  0.4135
 2489W        W 6553  10.558   2.317   3.587  0.1145 -0.1644  0.0924
 2490W        W 6554   9.640   7.635   1.617  0.0574 -0.1327  0.3875
 2491W        W 6555   4.704   6.836   2.410  0.0682  0.0227  0.3108
 2492W        W 6556   2.903   0.154  11.120  0.2920 -0.1181 -0.1879
 2493W        W 6557   2.034   3.396   1.954 -0.0872 -0.1352  0.3095
 2494W        W 6558   9.993   2.057  10.115  0.0456  0.2574 -0.2176
 2495W        W 6559   3.526   3.949   0.394 -0.2455  0.0074  0.1729
 2496W        W 6560   7.792   5.649   1.455 -0.0362 -0.0833  0.2286
 2497W        W 6561   4.036   8.850   8.366  0.1722 -0.0483  0.2138
 2498W        W 6562   6.422   5.967   9.776 -0.2486  0.0223 -0.0560
 2499W        W 6563   6.259   6.871   8.885  0.0406  0.0358 -0.0382
 2500W        W 6564  10.305   2.272   1.315 -0.0727 -0.0000  0.0013
 2501W        W 6565   1.385   6.208   3.261 -0.2480 -0.0472  0.0734
 2502W        W 6566   0.555   2.780  10.803 -0.1307  0.0177  0.1470
 2503W        W 6567   4.604   5.843   7.570 -0.1286 -0.3303  0.1252
 2504W        W 6568   9.235   5.187   8.144 -0.0348  0.1248 -0.3551
 2505W        W 6569   2.907   4.391   8.400 -0.1433  0.4404 -0.0288
 2506W        W 6570   8.401   3.746   8.814 -0.2302 -0.0002  0.1874
 2507W        W 6571   5.502   4.498   9.492  0.0936 -0.0325  0.0199
 2508W        W 6572   6.396   9.981   3.841  0.0014  0.0314 -0.2577
 2509W        W 6573   7.220   1.255   1.461  0.0086 -0.3289 -0.1903
 2510W        W 6574   1.116   3.325   8.297 -0.0749  0.0817  0.0265
 2511W        W 6575   6.876   3.302   2.517 -0.2251  0.0445  0.1156
 2512W        W 6576   0.587   3.862   7.712  0.1826  0.0787  0.1169
 2513W        W 6577   3.758   2.790   8.931 -0.0739  0.1994 -0.1256
 2514W        W 6578   0.723   0.768  10.904 -0.2379 -0.1137 -0.0322
 2515W        W 6579   8.865   5.267   0.542 -0.0279  0.2295 -0.1166
 2516W        W 6580   8.247   8.444   0.856  0.0429 -0.1548  0.0955
 2517W        W 6581   2.951   4.282   2.522  0.0814  0.1308  0.0370
 2518W        W 6582   8.122   4.443   6.731 -0.1208  0.2179 -0.0153
 2519W        W 6583  10.570   7.041   1.531 -0.0065 -0.3635 -0.1466
 2520W        W 6584  10.202   9.580   1.555  0.0870  0.0328  0.1192
 2521W        W 6585   3.369   7.563   9.116  0.1010  0.1687  0.1616
 2522W        W 6586   9.559   1.619   3.016  0.1022 -0.0000  0.0181
 2523W        W 6587   8.219   8.806   9.003  0.1376  0.0706 -0.2452
 2524W        W 6588   2.438   4.905   9.013 -0.3000  0.0614 -0.2449
 2525W        W 6589   4.541   8.231  10.264  0.1861 -0.4150  0.1929
 2526W        W 6590   2.430   4.460   8.597 -0.0726 -0.1106 -0.0221
 2527W        W 6591   2.281   0.136  10.281  0.0099 -0.4821  0.2544
 2528W        W 6592   9.202   0.096   2.104  0.2039 -0.2040  0.0345
 2529W        W 6593   5.412   7.286   9.666 -0.2526 -0.1875  0.1435
 2530W        W 6594   3.316   7.371   2.721 -0.1071 -0.0717 -0.2485
 2531W        W 6595   1.156   1.021  10.180  0.1231  0.2600  0.2200
 2532W        W 6596   2.258  10.682   8.655  0.1196 -0.0525  0.3469
 2533W        W 6597   6.118   3.080   1.233  0.0011  0.0133  0.2204
 2534W        W 6598  10.751   6.430  10.766  0.1637 -0.1654  0.2137
 2535W        W 6599  10.666   5.582   0.100  0.0214  0.0198 -0.0740
 2536W        W 6600   0.018   4.143  11.073 -0.0176  0.2964  0.0178
 2537W        W 6601   0.620   6.138   7.044  0.0354  0.0139  0.0017
 2538W        W 6602   8.219   9.733   3.028  0.2419 -0.3293 -0.0274
 2539W        W 6603   7.408   1.727   1.133 -0.2365 -0.0976 -0.3778
 2540W        W 6604   0.325   7.729   8.166  0.0028  0.0789 -0.2386
 2541W        W 6605   8.596   2.433   1.934  0.0289 -0.0167 -0.2484
 2542W        W 6606   0.271   1.765   1.648  0.0997 -0.6144  0.2015
 2543W        W 6607   3.931   2.295   8.155 -0.3384 -0.5081 -0.0272
 2544W        W 6608   0.821   5.576  10.439  0.0834 -0.0386 -0.1103
 2545W        W 6609   6.900   9.468  10.905 -0.1117 -0.0128 -0.3432
 2546W        W 6610   9.759   1.948   9.210 -0.0640 -0.0092 -0.3287
 2547W        W 6611  10.693   2.758   9.058 -0.2213  0.2744 -0.1170
 2548W        W 6612   7.561   0.990   2.290 -0.0363 -0.0022  0.1034
 2549W        W 6613   1.559   1.094   2.335  0.0643  0.1605 -0.1734
 2550W        W 6614   4.374   9.002   1.776  0.2356 -0.1396 -0.0942
 2551W        W 6615   6.126   5.620  11.316  0.1332  0.0891 -0.0482
 2552W        W 6616   3.774   9.019  10.975 -0.3966  0.0098 -0.1247
 2553W        W 6617   1.297   3.875   1.315 -0.2923 -0.3837  0.1262
 2554W        W 6618   4.976   2.437   8.232 -0.3068 -0.0799 -0.1137
 2555W        W 6619   0.797   0.689   9.917  0.2126 -0.0290 -0.1641
 2556W        W 6620   6.962   8.080   8.647  0.1373 -0.1436  0.0668
 2557W        W 6621   0.895   8.842   1.543 -0.2139  0.0133 -0.1113
 2558W        W 6622   1.472   4.702   1.275 -0.2741  0.2209 -0.0480
 2559W        W 6623   9.173   0.292   1.228  0.3194  0.2879  0.2392
 2560W        W 6624   5.573   5.805   7.173 -0.2314 -0.0462  0.4064
 2561W        W 6625   1.096  10.450   1.667 -0.0927 -0.1045  0.0754
 2562W        W 6626   0.680   7.347   9.521 -0.0377  0.0344 -0.0623
 2563W        W 6627   7.509   3.342   8.737  0.3064  0.0360 -0.2120
 2564W        W 6628   1.718   5.212  10.790  0.1780  0.2010  0.1666
 2565W        W 6629   2.565   6.910   1.455 -0.0427 -0.0208  0.0122
 2566W        W 6630  10.234   3.269   0.072  0.2777  0.0009 -0.0419
 2567W        W 6631   7.658   3.521   0.218  0.0686 -0.2319 -0.1679
 2568W        W 6632   4.896   4.682  10.274  0.0716 -0.2140  0.0780
 2569W        W 6633   6.765   3.670  11.369  0.0083 -0.2063  0.1711
 2570W        W 6634  10.612   9.470   4.042  0.1904  0.2304  0.1865
 2571W        W 6635   9.308   6.279   2.125 -0.1535  0.0195 -0.0016
 2572W        W 6636   5.127   0.260   8.135  0.0010  0.0399 -0.2732
 2573W        W 6637   6.323   3.416   1.653  0.1428  0.1917  0.0806
 2574W        W 6638   4.130  10.440   0.475  0.1848 -0.4646 -0.1183
 2575W        W 6639   5.994  10.007   8.134  0.0113  0.1386  0.3341
 2576W        W 6640   0.717   6.955   1.237  0.2172 -0.0276  0.0230
 2577W        W 6641   8.207   5.746   8.565  0.1108 -0.0954 -0.2421
 2578W        W 6642   7.111   4.952   1.201 -0.0949 -0.1390 -0.2121
 2579W        W 6643   7.842   5.860  11.109 -0.2514  0.2356  0.2272
 2580W        W 6644   8.669   9.600   8.438 -0.2309 -0.3121  0.0171
 2581W        W 6645   8.332   3.912  10.194 -0.0462  0.0520 -0.0624
 2582W        W 6646   5.725   1.546   8.291  0.0479  0.3277 -0.0098
 2583W        W 6647   3.246   7.024   1.187  0.2805  0.0742  0.0553
 2584W        W 6648   2.081   6.377   2.561  0.0132 -0.0961 -0.0087
 2585W        W 6649   4.499   0.126   8.999 -0.0530  0.1541  0.1255
 2586W        W 6650   1.995   8.112   0.406 -0.1080  0.1645  0.0142
 2587W        W 6651   9.991   8.848  10.648 -0.1566  0.0078  0.1202
 2588W        W 6652   6.273   5.704   3.200 -0.0707 -0.0043  0.0638
 2589W        W 6653   7.381   5.360   9.190 -0.0011 -0.3330 -0.1406
 2590W        W 6654   7.641   6.348   1.922 -0.1459 -0.1221 -0.2044
 2591W        W 6655   0.314   5.910  10.586  0.0248  0.1536 -0.1520
 2592W        W 6656   7.207   0.490   7.508 -0.2150  0.0481 -0.0410
 2593W        W 6657   2.273   5.090   8.458 -0.1129  0.2224  0.3459
 2594W        W 6658   8.974   6.193   8.245 -0.1148  0.1217 -0.1373
 2595W        W 6659  10.136   8.645   8.192 -0.2085  0.1361  0.0827
 2596W        W 6660   0.315   0.796   1.414  0.2148 -0.0564 -0.1888
 2597W        W 6661   0.938   7.418   1.320  0.1148  0.0764  0.2260
 2598W        W 6662   4.020   4.582   9.982 -0.2444  0.1693  0.1177
 2599W        W 6663   8.994   0.112   0.804 -0.2678 -0.2337 -0.2305
 2600W        W 6664   5.587   1.092   8.041 -0.0019 -0.2017 -0.1294
 2601W        W 6665   9.921   0.149   1.596 -0.0492  0.1613  0.1387
 2602W        W 6666   1.721   6.571   1.241  0.1175  0.3296 -0.1964
 2603W        W 6667   7.344   2.106   8.478 -0.3394  0.1184  0.2576
 2604W        W 6668   0.395   9.035   1.605 -0.1214 -0.0009  0.3949
 2605W        W 6669   7.161   6.349  10.407 -0.4343  0.1920  0.5030
 2606W        W 6670   5.334   9.909  11.278 -0.0420  0.0019  0.0613
 2607W        W 6671   9.074   5.881   9.365 -0.0432  0.0273 -0.2003
 2608W        W 6672   8.875   6.719  11.125 -0.2396  0.1702  0.1569
 2609W        W 6673   6.971   4.591   7.359 -0.0599  0.1640  0.2283
 2610W        W 6674  10.710   8.808   9.505  0.1678 -0.0090 -0.0619
 2611W        W 6675  10.734   0.780   0.152 -0.0373  0.0974 -0.3825
 2612W        W 6676  10.108   1.168   2.549  0.1666 -0.0658 -0.0391
 2613W        W 6677   5.400   0.106  10.832 -0.2139 -0.0670  0.4076
 2614W        W 6678   6.880   3.164   0.741  0.0451  0.0355 -0.1564
 2615W        W 6679   2.120   1.455  10.542  0.1240  0.0866  0.1404
 2616W        W 6680   6.509   0.953   3.009 -0.1712 -0.0860  0.1420
 2617W        W 6681   4.245   9.645   2.562  0.0511 -0.3583 -0.0132
 2618W        W 6682   1.907   9.836   0.432 -0.2732 -0.0761  0.2705
 2619W        W 6683   1.326   6.564   1.683 -0.1208  0.0637 -0.1384
 2620W        W 6684   4.513   3.287  10.919 -0.0621  0.3385 -0.2623
 2621W        W 6685   2.062   6.986   1.301  0.2223 -0.1240 -0.3695
 2622W        W 6686   5.060   9.375   2.398 -0.0679  0.3835  0.0161
 2623W        W 6687   1.372   7.465   1.526 -0.0361 -0.4065  0.3462
 2624W        W 6688  10.180   6.121   1.860  0.1131 -0.1063 -0.0918
 2625W        W 6689   3.676   1.327  10.568  0.1676  0.1747 -0.0479
 2626W        W 6690   6.089   9.522   6.685  0.4433  0.1682  0.1121
 2627W        W 6691   1.784   5.093   1.120  0.2299  0.2015  0.0951
 2628W        W 6692   8.149   7.166   7.551  0.1390  0.1720 -0.0296
 2629W        W 6693  10.447   1.878   8.209 -0.1810  0.2156  0.1897
 2630W        W 6694   3.835   8.574   9.151  0.0688  0.2292 -0.3337
 2631W        W 6695  10.088   6.176   8.495  0.2118  0.2083 -0.1746
 2632W        W 6696  10.569   0.855   1.340 -0.1494 -0.0425 -0.1425
 2633W        W 6697   0.354   7.190   0.182 -0.2506  0.0268  0.1579
 2634W        W 6698   7.880   4.444  11.355  0.1419  0.3721  0.2184
 2635W        W 6699   7.570   0.352   8.410  0.0126 -0.2550  0.1291
 2636W        W 6700   5.435   5.530   2.624  0.3641  0.3082 -0.1136
 2637W        W 6701  10.511   5.324   2.865 -0.0027 -0.2548 -0.0968
 2638W        W 6702   5.222   8.618  10.604 -0.1876  0.0960  0.4042
 2639W        W 6703   2.040   3.344   1.211 -0.0392 -0.0060 -0.1609
 2640W        W 6704   4.979   8.535  10.081  0.0308 -0.0376  0.0394
 2641W        W 6705   1.807   8.376   8.758  0.0151 -0.0937 -0.1634
 2642W        W 6706   3.870   2.540   7.621  0.0432 -0.3229  0.0426
 2643W        W 6707   8.260  10.372   8.402  0.4103 -0.1243  0.5632
 2644W        W 6708   6.855   6.197   8.999 -0.0180 -0.2604  0.1079
 2645W        W 6709   2.141   4.441   0.255  0.1116 -0.2620  0.0803
 2646W        W 6710   6.055   5.357   3.555 -0.0540  0.0085  0.1758
 2647W        W 6711   9.078   1.248   8.046  0.3348  0.0867 -0.0186
 2648W        W 6712   2.596   5.898   7.647  0.0473 -0.1678  0.0816
 2649W        W 6713   8.741   6.449   8.601 -0.1635 -0.1020 -0.3094
 2650W        W 6714   1.592   6.654   3.148 -0.1313  0.0067  0.1762
 2651W        W 6715   7.886  10.144   8.666  0.1213  0.2206  0.0344
 2652W        W 6716   1.448   3.533   7.444 -0.2916 -0.2429  0.1289
 2653W        W 6717   4.280   8.315   1.953 -0.1809 -0.4087  0.1408
 2654W        W 6718   5.691   8.524   8.312  0.0494 -0.1155 -0.1257
 2655W        W 6719   1.731   1.160  11.344  0.2664 -0.0308  0.1231
 2656W        W 6720   1.817   2.804   9.223 -0.0297 -0.0183  0.4266
 2657W        W 6721   9.980   9.553  10.403 -0.3083 -0.0697  0.2393
 2658W        W 6722   2.947   6.707   0.742  0.2965  0.1555 -0.0577
 2659W        W 6723   1.193  10.328   9.656  0.0321 -0.1695  0.1232
 2660W        W 6724   1.822   2.836   1.834  0.1396 -0.2268  0.3294
 2661W        W 6725   8.409   8.672  10.792  0.2594  0.0774 -0.0607
 2662W        W 6726   2.833   1.332   2.000  0.3411  0.0044 -0.2225
 2663W        W 6727  10.179   7.421   1.403 -0.0707  0.2220 -0.0686
 2664W        W 6728   9.197   8.624   9.026 -0.0239 -0.1594  0.1648
 2665W        W 6729   6.638   1.483   3.670  0.2733  0.1885 -0.0856
 2666W        W 6730   5.593   8.167   2.592  0.1110 -0.1110  0.1460
 2667W        W 6731   7.643   4.563   1.668 -0.0998 -0.0999  0.0034
 2668W        W 6732   5.382   3.836  11.310 -0.0784  0.0331  0.2914
 2669W        W 6733   6.908   6.410   0.796 -0.0406 -0.1641 -0.1457
 2670W        W 6734   9.544   0.722   8.877 -0.0667  0.0905 -0.2610
 2671W        W 6735   2.510   0.257  10.856 -0.1266  0.3152 -0.2096
 2672W        W 6736   7.912   9.232   2.859  0.1978 -0.2367 -0.1743
 2673W        W 6737   1.571   3.313   8.888 -0.2203 -0.0998  0.4286
 2674W        W 6738   4.957   6.842   8.645  0.2017  0.2861 -0.1855
 2675W        W 6739   9.962   8.306   9.816  0.0752 -0.1910  0.0386
 2676W        W 6740   0.676  10.738   8.300  0.2141  0.1896 -0.1992
 2677W        W 6741   8.317   9.851   8.638  0.0830  0.0045 -0.1361
 2678W        W 6742   0.614   5.578   8.858  0.2136  0.0217  0.0694
 2679W        W 6743   1.383   0.509   8.097  0.3237 -0.0453  0.2646
 2680W        W 6744   5.250   8.540   1.767  0.2059 -0.1298 -0.2781
 2681W        W 6745   6.491   4.099   8.266  0.0013 -0.0590  0.1660
 2682W        W 6746   7.417   7.583   0.453 -0.2561  0.2263  0.0732
 2683W        W 6747   3.601   6.549   8.963  0.2899  0.0106  0.2021
 2684W        W 6748   4.005   0.145   1.721  0.0006  0.0089  0.1438
 2685W        W 6749   8.984   5.699  10.195 -0.1012  0.1457  0.3303
 2686W        W 6750   4.827   0.740   0.880 -0.3447  0.0605  0.0385
 2687W        W 6751   0.562   1.557   2.062 -0.1876  0.0119  0.3751
 2688W        W 6752   2.388   4.132   2.562  0.1440 -0.1130  0.1255
 2689W        W 6753   5.250   8.281   9.618  0.0048  0.4227 -0.0043
 2690W        W 6754   4.559   0.945   2.473 -0.2367  0.5294 -0.0400
 2691W        W 6755   3.529   4.963   1.494 -0.1159  0.1965 -0.0457
 2692W        W 6756   7.510   7.936   9.804 -0.1018 -0.1190  0.3325
 2693W        W 6757   4.394   2.407   7.919  0.1750  0.0755 -0.2314
 2694W        W 6758   7.902   3.770   9.583 -0.0199  0.0597  0.3674
 2695W        W 6759   9.696   9.369   3.979 -0.0671  0.4446  0.0259
 2696W        W 6760   7.719   0.060   0.228 -0.1070  0.0383  0.0571
 2697W        W 6761   8.423   9.346   2.679  0.1832  0.0084  0.1984
 2698W        W 6762   6.825   5.385   8.554 -0.2445 -0.2623 -0.0438
 2699W        W 6763   9.310  10.336   7.718  0.0353 -0.2090  0.2819
 2700W        W 6764   6.120   0.518  11.221 -0.0096  0.2816  0.0605
 2701W        W 6765   6.130  10.222   9.852 -0.0781  0.0488  0.1373
 2702W        W 6766   0.333   0.382  10.198  0.0417 -0.1813  0.2769
 2703W        W 6767  10.278   1.095   0.377 -0.5046 -0.0989 -0.0430
 2704W        W 6768   7.704   3.365  10.415  0.4061  0.0126 -0.0746
 2705W        W 6769  10.338   0.543   0.454 -0.0387 -0.0288 -0.1284
 2706W        W 6770   8.327   0.830   1.099 -0.1182  0.0979 -0.1043
 2707W        W 6771   0.470   3.348   6.953  0.0996  0.0091 -0.3166
 2708W        W 6772  10.671   5.107   0.904 -0.0633  0.2954  0.0937
 2709W        W 6773   4.437   6.365   7.385  0.2155  0.1751  0.1802
 2710W        W 6774   1.455   7.510   9.107  0.0701  0.1671 -0.0260
 2711W        W 6775   5.029   0.995   8.803  0.2289 -0.1036  0.0948
 2712W        W 6776   6.573   2.780   0.996 -0.1341 -0.0629 -0.0162
 2713W        W 6777   6.121   2.480  11.025 -0.0203  0.0831  0.0832
 2714W        W 6778   7.555   2.924   9.059 -0.0085  0.2599  0.0106
 2715W        W 6779  10.355   2.699   0.867  0.0896  0.1001  0.1727
 2716W        W 6780   6.474   1.478   9.448 -0.1270  0.1843 -0.0178
 2717W        W 6781   4.878   6.982   0.187  0.0817  0.0869  0.2992
 2718W        W 6782   7.762   0.950  10.893  0.2391 -0.0387 -0.2383
 2719W        W 6783   5.432   3.915   1.776  0.0075 -0.2249 -0.2499
 2720W        W 6784   7.434   8.278   8.637  0.0266  0.0689  0.1819
 2721W        W 6785   2.567   3.472   1.745  0.0081  0.2439 -0.1028
 2722W        W 6786   5.448   5.642  11.118 -0.2918 -0.0856  0.0688
 2723W        W 6787  10.368   0.918   8.677 -0.0605 -0.2330  0.2299
 2724W        W 6788  10.702   2.004   8.593 -0.0652 -0.3282 -0.0229
 2725W        W 6789   4.419   5.280   9.498  0.0657 -0.0490  0.3385
 2726W        W 6790   6.204   4.099   1.093  0.0160 -0.3970 -0.0287
 2727W        W 6791   6.372   3.991   9.777  0.2697  0.3424 -0.1578
 2728W        W 6792   6.599   7.356   1.051  0.1714  0.0307 -0.1817
 2729W        W 6793   6.493   6.627   3.130 -0.1123  0.1117 -0.2947
 2730W        W 6794   8.515   6.039   8.842  0.2366  0.0433  0.0773
 2731W        W 6795   4.422   5.722   0.994  0.3836 -0.0003 -0.1330
 2732W        W 6796   4.941   8.128  10.614  0.1664  0.2371  0.2818
 2733W        W 6797   2.917   9.049   3.369  0.3007 -0.0454 -0.2087
 2734W        W 6798   8.141   2.257   8.131 -0.4453 -0.0640 -0.4650
 2735W        W 6799   6.095   3.233  10.772  0.0436 -0.2092  0.0106
 2736W        W 6800   6.051  10.558   2.042  0.1750 -0.2954  0.0069
 2737W        W 6801   2.559   5.368  10.318  0.1437 -0.1642  0.0905
 2738W        W 6802   9.492   6.992  10.260 -0.1025 -0.3323  0.3888
 2739W        W 6803  10.602   2.971  10.096 -0.0206  0.0529  0.0993
 2740W        W 6804  10.423   4.529   7.173 -0.0319  0.0584 -0.1314
 2741W        W 6805   3.685   9.240   8.534 -0.0414  0.2703  0.2382
 2742W        W 6806   1.162   8.096   4.064 -0.2177  0.0962 -0.1648
 2743W        W 6807   9.727   8.932   4.114 -0.0991  0.0436 -0.0485
 2744W        W 6808   7.773   3.573   2.598  0.0284 -0.2106  0.0238
 2745W        W 6809   5.647   9.839   7.662 -0.0057 -0.2114 -0.0890
 2746W        W 6810   8.604  10.723   9.302 -0.3045  0.3038  0.0849
 2747W        W 6811   6.224   4.571   2.030  0.4164  0.1096 -0.1018
 2748W        W 6812   6.876   3.580   1.550  0.1783 -0.2370  0.3763
 2749W        W 6813   3.610   4.428   2.446 -0.1005 -0.2093  0.0865
 2750W        W 6814  10.078   6.162  10.306 -0.1366 -0.1693  0.2651
 2751W        W 6815   7.010   0.246   1.859 -0.2866 -0.0403 -0.1413
 2752W        W 6816   1.718  10.514   7.723 -0.4443  0.0490 -0.0796
 2753W        W 6817  10.603  10.491   9.336 -0.0935 -0.0013  0.2041
 2754W        W 6818   3.933   7.702   9.188  0.0466  0.2997 -0.0960
 2755W        W 6819   8.473   7.301   7.902 -0.2846 -0.2891  0.1767
 2756W        W 6820   1.048   2.119   8.912 -0.1156  0.3740  0.0781
 2757W        W 6821  10.182   7.377  11.358 -0.2271 -0.2216  0.0140
 2758W        W 6822   7.632   2.502   8.333 -0.0249  0.1124 -0.0528
 2759W        W 6823   8.635   2.278  10.836  0.1742  0.1518  0.1495
 2760W        W 6824   2.809   2.802   7.634  0.2324  0.0778 -0.0614
 2761W        W 6825   9.087   6.030   8.700 -0.2843  0.0675 -0.1602
 2762W        W 6826   6.508   5.026  11.132  0.1973 -0.4614 -0.0964
 2763W        W 6827   5.336   4.041  10.791 -0.1626  0.2837 -0.3102
 2764W        W 6828   4.631   5.560   8.748  0.2234  0.1035 -0.3724
 2765W        W 6829   9.120   9.758   8.256  0.2160  0.0889 -0.1783
 2766W        W 6830   8.891   4.933   0.107  0.1456 -0.2295 -0.1500
 2767W        W 6831   3.637   9.937  11.345  0.2205  0.1347  0.2154
 2768W        W 6832   0.261   3.698   7.299  0.0920 -0.2307 -0.0733
 2769W        W 6833   9.769   5.059   1.130 -0.2113  0.1517  0.1885
 2770W        W 6834   0.652   8.598   1.915 -0.0660 -0.1255 -0.3174
 2771W        W 6835   4.813   3.610   7.149  0.0454  0.0844 -0.0458
 2772W        W 6836   4.418   4.853   7.598  0.1055 -0.1198 -0.4484
 2773W        W 6837   8.036   8.515   9.945  0.4336  0.2706 -0.1990
 2774W        W 6838   7.744   7.098   2.900  0.0801 -0.0867  0.1924
 2775W        W 6839   6.771   2.798   0.450 -0.1139  0.1672  0.1091
 2776W        W 6840   4.674   8.027   8.143  0.0309  0.0745  0.2805
 2777W        W 6841   9.798   3.613   2.621 -0.2297  0.1435 -0.4197
 2778W        W 6842  10.269   5.451   0.503 -0.0802 -0.0231  0.0373
 2779W        W 6843   4.725   9.189  10.843  0.1227  0.0360 -0.1178
 2780W        W 6844   7.027   4.017   8.028 -0.0964 -0.1406  0.3068
 2781W        W 6845  10.245  10.331   2.927  0.1136 -0.0574  0.1833
 2782W        W 6846   5.535   2.602   0.607 -0.0647  0.0023  0.0973
 2783W        W 6847   4.305   0.756   9.496 -0.0585 -0.3092  0.1744
 2784W        W 6848   6.554   7.592   3.349  0.0546 -0.1234 -0.1498
 2785W        W 6849  10.222   6.521   1.504 -0.1062  0.1989  0.0100
 2786W        W 6850   6.029  10.351  10.331  0.1631 -0.1918  0.0818
 2787W        W 6851   8.875   5.154   1.455 -0.0875 -0.4006  0.0156
 2788W        W 6852   6.584   1.460  10.384  0.1710 -0.1752 -0.0563
 2789W        W 6853   4.156   9.037  10.071 -0.0779  0.0078 -0.1157
 2790W        W 6854   7.191   8.223   1.251 -0.2802 -0.2203 -0.0879
 2791W        W 6855   8.411   3.508   9.294  0.3438 -0.0061  0.4599
 2792W        W 6856   1.497   5.942   9.156 -0.1114 -0.3509  0.0940
 2793W        W 6857   2.332   8.370   8.672  0.0872  0.2522 -0.0694
 2794W        W 6858   1.393  10.751   9.344 -0.1783  0.3160 -0.0169
 2795W        W 6859   9.611   1.504   9.699 -0.2262 -0.0218  0.2979
 2796W        W 6860   2.907   9.504   9.643  0.2801 -0.0605 -0.1109
 2797W        W 6861   6.341   5.437  10.792 -0.2167  0.1423  0.2102
 2798W        W 6862   6.909   9.889  11.154  0.1395  0.0912  0.1121
 2799W        W 6863   8.076   0.132   9.553 -0.0214 -0.1375  0.0417
 2800W        W 6864   3.911   8.356   8.364 -0.1748 -0.0407  0.1672
 2801W        W 6865   4.017   2.222   0.193  0.4337  0.1364 -0.0200
 2802W        W 6866   3.380   6.514  10.031 -0.3125  0.1615  0.1066
 2803W        W 6867   8.823   4.932   0.892  0.0347 -0.1347 -0.0023
 2804W        W 6868   0.234   6.333   0.040 -0.2028 -0.1395  0.1279
 2805W        W 6869   3.361   2.216   7.227 -0.0993  0.4541 -0.1427
 2806W        W 6870   5.093   1.848   9.310 -0.0655  0.1353 -0.1467
 2807W        W 6871   0.221   7.398  11.069  0.0853  0.0397 -0.0344
 2808W        W 6872   6.854   6.512   8.466  0.0655  0.3728 -0.0919
 2809W        W 6873   1.057   8.557   2.920  0.0576 -0.1094  0.1584
 2810W        W 6874   3.314   5.246   2.440 -0.0125  0.0014 -0.0088
 2811W        W 6875   6.320   6.968   1.242 -0.0828  0.2331 -0.1409
 2812W        W 6876   7.092   5.119  11.186 -0.4370 -0.1621  0.1215
 2813W        W 6877   4.024   0.256  10.773  0.1683  0.1482  0.1913
 2814W        W 6878   2.926   9.628   8.386  0.0536 -0.1046  0.1603
 2815W        W 6879  10.710   3.296  11.293  0.2234 -0.2560 -0.0326
 2816W        W 6880  10.604   8.626   9.065 -0.0380  0.1269 -0.2453
 2817W        W 6881   8.354   1.738   0.688 -0.2293  0.1992  0.2134
 2818W        W 6882   5.338   8.998   9.071 -0.0940  0.0144 -0.1624
 2819W        W 6883   8.401   1.366   9.644 -0.1996 -0.1228 -0.1082
 2820W        W 6884   3.568   0.973   8.504  0.0203  0.3242  0.1682
 2821W        W 6885   1.957   2.286   1.185  0.0606 -0.0241 -0.0096
 2822W        W 6886   3.717   3.315  10.000  0.1583 -0.0282  0.0863
 2823W        W 6887   1.741   3.280   9.367  0.1743 -0.2053 -0.1979
 2824W        W 6888   9.778   1.855   2.175  0.2396 -0.0431  0.0497
 2825W        W 6889   0.757   7.638   7.922 -0.2023 -0.2288 -0.0567
 2826W        W 6890   1.715   5.234   0.443 -0.2098 -0.4129  0.1769
 2827W        W 6891   2.077   3.698   3.488 -0.0139 -0.0410  0.0774
 2828W        W 6892   5.611   2.250   8.742  0.1392 -0.2009  0.1636
 2829W        W 6893   9.607   4.702   2.674  0.0520  0.3500  0.1096
 2830W        W 6894  10.581  10.172   1.546  0.0627  0.2679  0.0543
 2831W        W 6895   4.164   2.812   9.256  0.0252  0.3268  0.3079
 2832W        W 6896   2.367   0.155   0.001  0.0068  0.2748 -0.2382
 2833W        W 6897   7.688   1.443   2.746  0.3863 -0.3404 -0.1792
 2834W        W 6898   3.545   8.864   2.143  0.0359 -0.2515 -0.0351
 2835W        W 6899   9.085  10.178   0.567 -0.4543 -0.1022  0.1970
 2836W        W 6900   1.139   7.388  10.496  0.1522 -0.1589 -0.1131
 2837W        W 6901  10.232   1.380   7.502  0.1466  0.0792 -0.2215
 2838W        W 6902   5.700   6.156   7.510  0.0185 -0.0869  0.1546
 2839W        W 6903   7.753   0.284   6.732  0.0878  0.0554 -0.1683
 2840W        W 6904   3.143   6.031  10.210  0.1009 -0.0141  0.3100
 2841W        W 6905   9.393   3.716   0.468 -0.0588 -0.0217  0.1972
 2842W        W 6906   9.880   6.962   2.102  0.1724 -0.1131 -0.1931
 2843W        W 6907   4.432   8.332   9.584 -0.0863  0.1582 -0.1111
 2844W        W 6908   1.907   6.467   0.583  0.4102 -0.0196 -0.2908
 2845W        W 6909   1.436   0.056   2.603  0.0130  0.1132 -0.2948
 2846W        W 6910   8.660   6.934   8.379  0.0670  0.3035  0.0235
 2847W        W 6911   9.647   3.038   8.547  0.2372  0.2374  0.3023
 2848W        W 6912  10.756   7.698   3.066 -0.1832  0.1118 -0.1185
 2849W        W 6913   6.486   8.241   8.089  0.1520  0.0310  0.1316
 2850W        W 6914   4.340   2.530   1.335  0.0159 -0.0162  0.2264
 2851W        W 6915   2.984   5.474   0.295 -0.2439  0.3009  0.3029
 2852W        W 6916   7.627   1.443  10.936 -0.1082  0.1451  0.0733
 2853W        W 6917   0.380   8.422  11.357 -0.0545  0.0430 -0.2274
 2854W        W 6918   8.789   3.898   0.182  0.2115  0.2406  0.3807
 2855W        W 6919   4.855   0.216   2.396  0.0833 -0.1613 -0.0569
 2856W        W 6920   0.118   1.184   3.183  0.1071 -0.2629 -0.0510
 2857W        W 6921   2.558  10.546  11.140 -0.0641  0.2129  0.2175
 2858W        W 6922   4.435   1.864   9.463  0.1602  0.1418  0.0618
 2859W        W 6923   2.931  10.320   0.500  0.0097  0.1706 -0.1940
 2860W        W 6924  10.705   1.739  11.174  0.0550 -0.0940 -0.2465
 2861W        W 6925   0.339  10.249   0.623  0.0595 -0.1773 -0.0786
 2862W        W 6926   9.437   7.573  10.201  0.0550  0.1646 -0.1754
 2863W        W 6927   5.587   7.925   8.282  0.0941 -0.3135 -0.3868
 2864W        W 6928   5.184   3.533   1.457 -0.2173  0.0562  0.2124
 2865W        W 6929   8.809   7.127   2.904  0.0629 -0.1330 -0.2587
 2866W        W 6930   8.079   4.835   0.463  0.2065  0.0803  0.3498
 2867W        W 6931   1.859   2.422   0.203  0.0078 -0.2422  0.0011
 2868W        W 6932   5.362   6.782   9.572  0.3821 -0.0685 -0.0730
 2869W        W 6933   2.482   5.491   2.740  0.0597 -0.1341 -0.2967
 2870W        W 6934   6.438   7.590   2.790  0.0403  0.3405  0.0816
 2871W        W 6935   4.267   9.233   2.179 -0.3372 -0.3093 -0.1946
 2872W        W 6936   2.006   5.879   2.438  0.1681 -0.0472  0.0389
 2873W        W 6937   7.404   8.866   3.042  0.0291 -0.1679 -0.2888
 2874W        W 6938   9.617   3.196   1.215 -0.1570  0.1819 -0.1201
 2875W        W 6939   4.197   2.471   9.865 -0.0412 -0.2271  0.0280
 2876W        W 6940   2.152   9.250   9.763  0.0752 -0.3458  0.1236
 2877W        W 6941   9.859   8.000   3.129 -0.0613 -0.3033 -0.0879
 2878W        W 6942   2.919  10.663   8.556  0.0939  0.1467  0.0139
 2879W        W 6943   7.358  10.498   0.345  0.0532  0.3121  0.1188
 2880W        W 6944   3.727   1.167   2.670  0.1966 -0.1614 -0.0977
 2881W        W 6945   3.526   0.705   1.710  0.0524  0.1080 -0.1286
 2882W        W 6946   9.838   1.244  10.648 -0.0740  0.3102  0.0652
 2883W        W 6947   5.238   1.346  10.607 -0.1732  0.0617 -0.0125
 2884W        W 6948   3.459   8.282   8.053 -0.1974 -0.3038 -0.1366
 2885W        W 6949   9.159   5.372   1.915  0.3579 -0.3373 -0.1398
 2886W        W 6950   8.180   7.595  10.272  0.0578 -0.2458 -0.1510
 2887W        W 6951   9.622   5.933  10.305 -0.1324  0.0032 -0.0559
 2888W        W 6952   6.103   2.663   9.897  0.0999  0.0235  0.2536
 2889W        W 6953   2.726   3.528  10.336  0.1278  0.1757  0.0415
 2890W        W 6954   2.828   4.245   1.765  0.0179  0.1864 -0.1387
 2891W        W 6955   4.390   8.295   0.019 -0.2729  0.1267 -0.3637
 2892W        W 6956   9.191   0.943   2.910 -0.2051  0.0678  0.0334
 2893W        W 6957   4.574   3.076   9.066 -0.0205 -0.0450  0.3434
 2894W        W 6958   6.024   3.228   8.549 -0.1824 -0.4563  0.0415
 2895W        W 6959   8.669   4.280   1.477 -0.1673 -0.1542  0.1903
 2896W        W 6960   7.501   4.482   1.183 -0.1909 -0.0726 -0.1579
 2897W        W 6961   8.017   1.412   8.594  0.1248  0.0653  0.0854
 2898W        W 6962   7.416   3.922   9.640 -0.0608  0.1778 -0.2549
 2899W        W 6963   8.649   8.387   7.733  0.5365  0.0771 -0.1698
 2900W        W 6964   5.226   8.313   2.288 -0.0770 -0.1256 -0.1129
 2901W        W 6965   2.697   1.856   1.907  0.0975  0.0460 -0.0672
 2902W        W 6966   3.892   4.347   3.339 -0.0957 -0.0255  0.5963
 2903W        W 6967   8.705   8.453   1.277  0.1985  0.0162  0.1199
 2904W        W 6968   9.887   1.215   3.342  0.2372 -0.0623  0.1963
 2905W        W 6969   8.062   2.192   8.965  0.1916 -0.2349 -0.0179
 2906W        W 6970   1.023   0.812   2.072  0.3860  0.0271  0.0410
 2907W        W 6971   1.603   3.021  10.697  0.0973 -0.1057  0.1888
 2908W        W 6972   3.515   8.038   9.185  0.2238  0.0355 -0.1194
 2909W        W 6973   2.475   8.754   3.523 -0.3882 -0.0541  0.1999
 2910W        W 6974   0.860   3.924   2.206 -0.2129  0.0573  0.0813
 2911W        W 6975   6.029   7.949   9.515  0.0673 -0.3447 -0.0330
 2912W        W 6976   3.179   0.791   2.739  0.0722  0.3110  0.0168
 2913W        W 6977   6.476   2.874   1.678 -0.1471 -0.1493  0.1812
 2914W        W 6978   2.386   0.196   2.361  0.3535 -0.2612 -0.2239
 2915W        W 6979   5.930   8.264   3.052 -0.0495 -0.1059 -0.0987
 2916W        W 6980   3.960  10.437  10.110  0.1992 -0.1568  0.1149
 2917W        W 6981   8.859   5.618   2.399  0.0895  0.0502 -0.0426
 2918W        W 6982   5.814   2.615  11.370 -0.0053  0.2148  0.0457
 2919W        W 6983   1.096   2.749  10.575  0.0735 -0.0044 -0.1228
 2920W        W 6984   6.806   3.645  10.851  0.1243  0.3364 -0.0368
 2921W        W 6985   6.189   9.378  11.076 -0.0440 -0.3179 -0.0377
 2922W        W 6986   6.600   1.868   7.713 -0.1452 -0.2374 -0.2151
 2923W        W 6987   2.689   2.021   7.888 -0.2396 -0.1195 -0.2393
 2924W        W 6988   0.820   5.377   9.351 -0.1542 -0.0471  0.3182
 2925W        W 6989   1.822   6.095  11.190  0.1278  0.1957  0.0537
 2926W        W 6990   8.407   5.379   2.281  0.3431 -0.0386  0.2726
 2927W        W 6991   3.894   4.338   6.803 -0.3026  0.0247  0.2408
 2928W        W 6992   4.191   9.935   0.782 -0.0862  0.3120 -0.0947
 2929W        W 6993  10.305   4.142   6.809  0.0406 -0.1847  0.1091
 2930W        W 6994   3.201   9.384   7.676 -0.0995 -0.1200 -0.0539
 2931W        W 6995   1.028   9.981   1.592  0.2437  0.3402  0.0262
 2932W        W 6996   9.535   1.419   0.800 -0.2864  0.0488  0.0564
 2933W        W 6997   3.527   5.730   7.982  0.3500 -0.1740 -0.2665
 2934W        W 6998   5.167   2.720   1.587 -0.0368 -0.2262 -0.1750
 2935W        W 6999   2.294   0.571   0.273  0.1283 -0.1501 -0.2786
 2936W        W 7000  10.593   9.490   2.601 -0.1205  0.1468 -0.2649
 2937W        W 7001   5.411   9.651   9.133  0.2415  0.1215  0.4402
 2938W        W 7002   3.810   8.292   1.708  0.1032 -0.1331 -0.1646
 2939W        W 7003   6.577   8.396  10.123  0.1346  0.2827  0.1579
 2940W        W 7004   5.917   7.914   1.480  0.0672  0.1539  0.1101
 2941W        W 7005   7.507   1.623   9.464  0.1210  0.1631  0.0199
 2942W        W 7006   8.998   8.831   0.487  0.1436 -0.0806  0.4798
 2943W        W 7007   9.416   8.459   9.632 -0.2119  0.1533 -0.3318
 2944W        W 7008   1.527   3.101  11.203  0.1155 -0.2269  0.1610
 2945W        W 7009   0.746   3.528   0.009 -0.0011  0.1793 -0.2655
 2946W        W 7010   3.130   1.777   1.624 -0.0428 -0.2490 -0.0636
 2947W        W 7011   6.763   7.312  10.404  0.1863  0.1113  0.0317
 2948W        W 7012   9.730   0.244   2.437 -0.0505 -0.0794  0.3772
 2949W        W 7013  10.605   2.690  10.667  0.0094  0.1456  0.0889
 2950W        W 7014   6.040   2.938   7.651  0.3439 -0.0862  0.0197
 2951W        W 7015   7.943  10.078   2.084  0.2385  0.0974 -0.1018
 2952W        W 7016   2.463   8.073   0.594  0.0793  0.0469  0.1530
 2953W        W 7017   4.886  10.310   9.450 -0.0259  0.0981 -0.1282
 2954W        W 7018   4.004   8.167   8.875 -0.0426  0.2449 -0.3711
 2955W        W 7019  10.051   1.933   1.688  0.0801 -0.1378 -0.1245
 2956W        W 7020   5.286   6.503  10.949  0.4010  0.0369 -0.3055
 2957W        W 7021   8.491   4.453  10.556 -0.3396 -0.2242  0.2222
 2958W        W 7022   4.132  10.044  10.386 -0.0087 -0.0372  0.1928
 2959W        W 7023   8.883   1.544   8.938  0.2052  0.1060 -0.2660
 2960W        W 7024   3.463   2.363   9.118  0.1503 -0.1988 -0.1508
 2961W        W 7025   6.780   4.636   9.950  0.2864  0.1069  0.1785
 2962W        W 7026   3.934   5.021   2.917 -0.2758 -0.2578  0.0544
 2963W        W 7027   1.949   5.292   9.177 -0.0743  0.4053 -0.0743
 2964W        W 7028   6.091   5.297   1.441  0.1040 -0.0734  0.2717
 2965W        W 7029   2.938   1.478  10.097  0.1197 -0.2092  0.3229
 2966W        W 7030   5.515   8.398  10.090  0.0584 -0.0577 -0.3767
 2967W        W 7031   0.453   4.273   9.953  0.2420 -0.0855  0.4708
 2968W        W 7032   9.216   6.628   2.539  0.1813  0.0244  0.2274
 2969W        W 7033   4.027  10.027   9.592 -0.2246 -0.3991 -0.0695
 2970W        W 7034   5.900   2.787   9.431 -0.3159 -0.1313 -0.0257
 2971W        W 7035   3.946   3.641   3.331  0.2107  0.2906 -0.2302
 2972W        W 7036   3.156   0.757   0.357 -0.0586  0.2602  0.0543
 2973W        W 7037   9.762   0.555   1.188 -0.0734  0.2430 -0.0853
 2974W        W 7038   5.704   3.072   2.145 -0.1461  0.0473  0.1905
 2975W        W 7039   4.144   4.796   8.529 -0.0411 -0.0891 -0.0870
 2976W        W 7040   0.952   2.636   8.998  0.2057 -0.0323  0.0198
 2977W        W 7041  10.750   0.862   2.071  0.1350  0.0004 -0.1212
 2978W        W 7042   9.173   1.413   8.565 -0.0558 -0.0919  0.0345
 2979W        W 7043   5.919   7.019   3.532 -0.2661 -0.1617 -0.2086
 2980W        W 7044   7.083   8.966  10.859 -0.2177  0.5394  0.0292
 2981W        W 7045   3.309   9.285   9.422  0.0977 -0.0344  0.4899
 2982W        W 7046   0.605   1.935   8.051  0.5059  0.1180  0.0707
 2983W        W 7047   2.756   6.306   8.823  0.2329  0.1928 -0.0730
 2984W        W 7048  10.077   7.517   0.943  0.1300 -0.1843  0.1687
 2985W        W 7049   3.910   2.887  10.112 -0.2491 -0.2327  0.1692
 2986W        W 7050   0.470  10.304   0.015  0.1753 -0.1310 -0.0987
 2987W        W 7051   1.162   1.790   9.706  0.1644 -0.1943  0.1712
 2988W        W 7052   7.501  10.488  11.238  0.1418 -0.0920  0.0866
 2989W        W 7053   2.006   2.933   0.021 -0.2284  0.0747  0.0619
 2990W        W 7054   0.078   6.305   0.834  0.0698  0.1234 -0.0944
 2991W        W 7055   7.345   7.763   1.323  0.1025 -0.1698 -0.0892
 2992W        W 7056   8.311   4.836  10.076  0.0490 -0.0445 -0.0724
 2993W        W 7057   8.900  10.359   2.562 -0.1761  0.2695 -0.0380
 2994W        W 7058   7.886   2.496   2.505 -0.0545  0.1444  0.0741
 2995W        W 7059   5.658   6.944   2.573  0.2960 -0.0624  0.0197
 2996W        W 7060   7.106   4.463   1.516 -0.1498 -0.1132  0.0305
 2997W        W 7061   3.682  10.145   0.496 -0.0041 -0.2535  0.3151
 2998W        W 7062   7.745   4.924   2.602 -0.1132  0.1522 -0.3236
 2999W        W 7063   6.642   3.335   8.909 -0.1882 -0.0493  0.1643
 3000W        W 7064   5.399   3.962   9.571 -0.0770  0.4242 -0.1279
 3001W        W 7065   6.286   7.070   9.438  0.0550 -0.3247 -0.0994
 3002W        W 7066   8.539   4.675   0.302  0.2437 -0.0616 -0.0966
 3003W        W 7067   5.300  10.715   1.218 -0.0619  0.2027  0.0189
 3004W        W 7068   1.414   3.154   3.171  0.1817 -0.2537  0.1348
 3005W        W 7069   2.001   7.047  11.091  0.0431 -0.2946 -0.3580
 3006W        W 7070   0.550   7.716   1.893 -0.3235  0.2442  0.1004
 3007W        W 7071   1.845   5.155   6.931 -0.0793  0.2322  0.0471
 3008W        W 7072  10.618   5.181  11.124 -0.0867  0.2388 -0.0414
 3009W        W 7073   8.566   7.687   1.211 -0.2693  0.0366 -0.0177
 3010W        W 7074   6.113   7.452  11.170  0.1552 -0.2547  0.1727
 3011W        W 7075   0.404   8.850   9.678 -0.0665 -0.3289  0.0176
 3012W        W 7076   2.927   7.946  10.858  0.2656  0.1057  0.0362
 3013W        W 7077   2.095   3.174   9.004 -0.0332 -0.0224 -0.0908
 3014W        W 7078   4.893   5.359  10.431 -0.0754 -0.0191  0.1169
 3015W        W 7079   4.517   7.372   0.070 -0.2040 -0.0383  0.0051
 3016W        W 7080   7.351   9.653   7.973 -0.0163 -0.2473  0.1501
 3017W        W 7081   4.382  10.425  11.088  0.0811 -0.4330  0.0320
 3018W        W 7082   8.844   1.559   0.049  0.0463  0.1921  0.0153
 3019W        W 7083   7.633   3.823   2.042  0.1177 -0.1580  0.2647
 3020W        W 7084   0.461   0.495   0.371  0.1002 -0.1198 -0.2533
 3021W        W 7085   5.890   8.960   8.562  0.0547  0.0910 -0.1222
 3022W        W 7086   6.468   5.907   7.812  0.1622  0.1181  0.2325
 3023W        W 7087   3.112   4.192   1.106 -0.0707  0.1610 -0.0329
 3024W        W 7088   2.083   2.343  10.496  0.0749 -0.0758 -0.4317
 3025W        W 7089   5.319   7.690  10.608  0.2025  0.1213 -0.0661
 3026W        W 7090   9.118   3.342  10.261  0.0286 -0.2469 -0.1904
 3027W        W 7091   8.412   0.713  11.240  0.0376 -0.0496  0.1797
 3028W        W 7092   7.710   9.148   8.909 -0.0266 -0.0794 -0.2175
 3029W        W 7093   0.168   4.079   3.406  0.4590 -0.0680  0.0490
 3030W        W 7094   1.461   5.177   1.497  0.2925 -0.1170  0.2436
 3031W        W 7095   6.407   0.183   0.119  0.0039  0.2249 -0.3376
 3032W        W 7096   4.287   5.280   8.420 -0.1052  0.1418 -0.0761
 3033W        W 7097   2.352   0.690   2.127  0.1944 -0.1370 -0.0531
 3034W        W 7098   4.232   8.710   1.019 -0.0467  0.1511 -0.0124
 3035W        W 7099   3.939   9.438   2.864  0.0995  0.0807  0.0529
 3036W        W 7100   2.458   5.771   9.980  0.0776  0.0900  0.0447
 3037W        W 7101   4.335   3.855   9.493 -0.1219 -0.1652 -0.0187
 3038W        W 7102   7.765   3.976   0.453 -0.0190 -0.1384  0.0749
 3039W        W 7103   4.388   6.577   9.475 -0.0849  0.2108 -0.0027
 3040W        W 7104   4.940   0.740   1.471 -0.3283 -0.0173 -0.0964
 3041W        W 7105   9.443   6.184   8.368  0.2078 -0.1324 -0.0060
 3042W        W 7106   8.149   0.535  10.241  0.0511 -0.1591 -0.0185
 3043W        W 7107   2.936   2.020  10.176 -0.2286 -0.2313 -0.0747
 3044W        W 7108   3.221   4.754   2.662 -0.1624 -0.2294 -0.0564
 3045W        W 7109   0.428   1.938   8.561 -0.1648  0.2087 -0.1270
 3046W        W 7110   8.639   0.678   7.755  0.0572 -0.1141 -0.4255
 3047W        W 7111   9.135  10.654   0.009  0.1338  0.2044  0.2729
 3048W        W 7112   3.521   2.916   8.473 -0.0285 -0.1878 -0.0193
 3049W        W 7113   9.295   3.918  10.767  0.0157 -0.0661 -0.0203
 3050W        W 7114   7.323  10.621  10.447  0.1323 -0.2122  0.0768
 3051W        W 7115   3.155   9.862  10.032  0.0724  0.1586 -0.0751
 3052W        W 7116   0.089   7.013   9.783  0.3385 -0.0484 -0.0504
 3053W        W 7117   3.440   7.532   1.010 -0.2703  0.1117  0.1110
 3054W        W 7118   3.992   4.268   2.790  0.0722  0.3964 -0.1415
 3055W        W 7119   0.532   1.287   0.741  0.3081 -0.1819  0.0273
 3056W        W 7120   5.742   5.273  11.365  0.0917 -0.0751  0.3196
 3057W        W 7121   8.338   1.936  10.644  0.3557 -0.2009 -0.0062
 3058W        W 7122   3.714   8.770   7.706 -0.1928 -0.1285  0.1913
 3059W        W 7123   2.621   4.484   2.249 -0.2409 -0.4388  0.1970
 3060W        W 7124   5.493  10.359  10.384  0.0515  0.0661  0.1846
 3061W        W 7125   0.188   7.887   9.475  0.0123 -0.2021  0.2059
 3062W        W 7126   9.716   5.429   8.184 -0.0749  0.0214  0.0935
 3063W        W 7127   2.965   6.318   9.306  0.0772  0.3075 -0.2280
 3064W        W 7128   3.447   3.296   0.667 -0.0704  0.2018 -0.2036
 3065W        W 7129   0.117   1.604   8.284  0.2633  0.0588 -0.0955
 3066W        W 7130   3.580  10.615   8.489 -0.3738 -0.0514 -0.2994
 3067W        W 7131   1.646   2.512   2.586  0.1054  0.0744 -0.0415
 3068W        W 7132   9.610   5.337  10.514 -0.4868  0.3004  0.0289
 3069W        W 7133   0.594   6.475   8.278 -0.1383 -0.1995  0.0045
 3070W        W 7134   5.725   4.838   9.986 -0.2956 -0.1716 -0.2189
 3071W        W 7135   9.210   3.589   8.227  0.1750 -0.1139  0.1042
 3072W        W 7136   1.778   0.854   8.901 -0.0178 -0.2748  0.1550
 3073W        W 7137   6.501   0.974   2.516  0.0901  0.0029  0.1100
 3074W        W 7138   5.281   1.956   8.387 -0.2210 -0.0291  0.0730
 3075W        W 7139   7.719   7.226   7.749  0.4037 -0.1363 -0.1866
 3076W        W 7140   6.344   3.548  11.113 -0.3736  0.0316 -0.0684
 3077W        W 7141   3.696   7.521   7.419  0.0805 -0.2002  0.0037
 3078W        W 7142  10.541   1.730   7.368  0.0003  0.4912 -0.0929
 3079W        W 7143   4.174   5.804   9.541 -0.2672  0.1898 -0.1373
 3080W        W 7144   3.004   1.032   7.728  0.1399 -0.2267  0.1195
 3081W        W 7145   0.623  10.313   3.613  0.4215 -0.0313  0.0278
 3082W        W 7146   2.463   8.749   8.329  0.3450  0.3598  0.0756
 3083W        W 7147   5.054   9.097   2.824  0.0533 -0.0462  0.0359
 3084W        W 7148   5.844   3.610   1.904 -0.2181  0.2183 -0.0914
 3085W        W 7149   2.193   5.316  10.002 -0.1232 -0.1467  0.2623
 3086W        W 7150   3.282   0.227   3.465  0.0640  0.3626  0.0478
 3087W        W 7151   4.146   9.567  11.287  0.0452  0.1061 -0.2904
 3088W        W 7152   4.120   3.196   7.533 -0.0667  0.0223 -0.0231
 3089W        W 7153   6.758   8.885   8.739  0.1120  0.3424  0.1537
 3090W        W 7154   8.973   6.474   2.939  0.0837  0.2571 -0.1136
 3091W        W 7155   4.896   9.687   9.262  0.1075 -0.1130  0.1011
 3092W        W 7156   9.795   4.519  10.129  0.0844 -0.1067  0.1209
 3093W        W 7157   4.897   9.187   7.984 -0.1563 -0.1809  0.2047
 3094W        W 7158   8.353   3.367   6.730  0.0672 -0.1766 -0.2728
 3095W        W 7159   1.555   1.461   8.118  0.0958 -0.0617 -0.1016
 3096W        W 7160   7.008  10.273   7.824 -0.0986  0.0516  0.1201
 3097W        W 7161   4.697   7.584   3.384  0.0468 -0.0921 -0.0078
 3098W        W 7162   0.608   1.013   4.041 -0.1857  0.1169 -0.0876
 3099W        W 7163   0.558   9.697   3.420 -0.0735 -0.1809  0.1304
 3100W        W 7164  10.230   2.681   8.781 -0.0163  0.1451 -0.1657
 3101W        W 7165   3.049   6.141   2.719 -0.3512 -0.1927  0.0851
 3102W        W 7166   4.735   8.314   2.295  0.0989 -0.1418  0.0915
 3103W        W 7167   4.527   4.662   0.244 -0.1375 -0.3021  0.2242
 3104W        W 7168   4.234   6.356   8.841  0.1874 -0.0170 -0.3860
 3105W        W 7169   4.455   5.091   2.776  0.0466 -0.2360 -0.3366
 3106W        W 7170   0.332   7.834  10.314  0.0881 -0.0554  0.4064
 3107W        W 7171   2.085   1.099   9.163 -0.1061 -0.1602 -0.0480
 3108W        W 7172  10.271   4.773   8.934  0.0910 -0.0627  0.1362
 3109W        W 7173   4.467   7.566   1.429  0.0468  0.1368 -0.1879
 3110W        W 7174   1.025   3.263   7.844 -0.2025 -0.0353  0.1332
 3111W        W 7175   6.264   9.587   8.661 -0.2202 -0.1271  0.0973
 3112W        W 7176   8.094   4.993   7.443 -0.0444 -0.2286 -0.2579
 3113W        W 7177   0.526   0.672   8.492  0.0136 -0.0049 -0.3120
 3114W        W 7178   4.974   0.015   0.477  0.2207  0.1141 -0.0354
 3115W        W 7179   8.452   4.973   9.228 -0.0811  0.3109  0.0332
 3116W        W 7180   6.163  10.125  10.745  0.4082  0.0966  0.0762
 3117W        W 7181   5.967   5.324   7.397 -0.0052 -0.4785 -0.1385
 3118W        W 7182   9.148   4.266   0.726 -0.0139  0.0223  0.1240
 3119W        W 7183   5.258   1.606   8.016 -0.0024  0.2090 -0.0766
 3120W        W 7184   5.300   0.346   2.768  0.1384  0.1228 -0.1364
 3121W        W 7185   1.337   3.005   2.447  0.1769  0.0270  0.0543
 3122W        W 7186   6.980   5.595   0.203 -0.1767  0.1250  0.1738
 3123W        W 7187   9.918  10.339   8.277 -0.0258  0.0598 -0.1705
 3124W        W 7188   9.612   6.219   9.436  0.1019  0.2414 -0.1506
 3125W        W 7189   0.733   3.892   9.750  0.0865 -0.1813  0.0657
 3126W        W 7190   4.087   4.293   2.286  0.1144 -0.2122 -0.0145
 3127W        W 7191   0.694   6.625   0.176  0.0258  0.0442  0.0230
 3128W        W 7192   8.595   6.174   2.441  0.2316  0.0486  0.0776
 3129W        W 7193   1.855   7.547   9.975 -0.0561  0.0587  0.3431
 3130W        W 7194   0.067   0.505   7.544 -0.1395  0.1849  0.1308
 3131W        W 7195   6.142   9.138   0.939 -0.0699 -0.1556  0.0406
 3132W        W 7196  10.542   4.766   2.751  0.0061  0.0166  0.1491
 3133W        W 7197   6.642   9.280   0.942  0.0959  0.0833  0.2228
 3134W        W 7198   7.944   1.269   8.004  0.1953  0.3014  0.0681
 3135W        W 7199   3.158   5.022  10.149 -0.0243 -0.0854  0.1393
 3136W        W 7200   8.763   5.265   8.598 -0.0694  0.1031 -0.1641
 3137W        W 7201   7.152   2.332  11.243  0.1101 -0.2470 -0.1319
 3138W        W 7202   8.059   0.131   2.246 -0.2395 -0.4562 -0.2564
 3139W        W 7203   2.132   8.853   8.680 -0.1593  0.3839 -0.0964
 3140W        W 7204   5.086   9.498   8.332  0.0493 -0.0167 -0.3507
 3141W        W 7205   2.066   5.892   1.513 -0.0662 -0.1389 -0.0784
 3142W        W 7206   4.958   7.381   0.974  0.2021 -0.2430 -0.2950
 3143W        W 7207   6.796  10.556   9.191  0.2111 -0.0730 -0.0791
 3144W        W 7208  10.572   5.068   8.567  0.2512  0.3764  0.1024
 3145W        W 7209   1.111   2.145   0.493  0.0027  0.1957 -0.1461
 3146W        W 7210   2.386   6.325  11.267  0.0685  0.2814  0.0301
 3147W        W 7211  10.008   2.181   8.845  0.0925  0.3223 -0.1157
 3148W        W 7212   7.972   0.667   3.292 -0.0223 -0.1723 -0.0275
 3149W        W 7213   3.489   3.426   7.221 -0.0452  0.0674  0.2673
 3150W        W 7214   9.585   5.843   3.063 -0.0892  0.1431 -0.0326
 3151W        W 7215   4.388   0.765   2.024  0.1443  0.1266  0.1257
 3152W        W 7216   8.793   0.574  10.040 -0.1285 -0.3839  0.0792
 3153W        W 7217   6.575   7.263   8.595  0.2080  0.0362 -0.0173
 3154W        W 7218   4.156   1.612   3.395 -0.2164 -0.0294  0.1190
 3155W        W 7219   6.180   3.626   7.081  0.0784 -0.0489 -0.0889
 3156W        W 7220   0.328   1.774   9.879 -0.1787  0.2758  0.2446
 3157W        W 7221   7.399   9.381   7.502  0.3042  0.1713  0.2539
 3158W        W 7222   2.307   3.793   7.258 -0.1594  0.3982  0.1515
 3159W        W 7223   7.720   2.663   0.661 -0.1671 -0.1022  0.0889
 3160W        W 7224   7.379   5.933  10.310 -0.1325 -0.1942  0.0952
 3161W        W 7225   6.351   6.674   8.395 -0.1005 -0.0851  0.0223
 3162W        W 7226   7.672   5.765   7.810  0.1363 -0.0734  0.3104
 3163W        W 7227   7.796   3.999   1.121 -0.0144  0.2371 -0.1602
 3164W        W 7228   6.072   6.868   2.989 -0.1063  0.0452  0.0094
 3165W        W 7229   7.155   3.087   2.051 -0.0660  0.0270  0.3431
 3166W        W 7230  10.394   1.554   1.810  0.0594 -0.1595  0.1550
 3167W        W 7231   8.031  10.112   8.040 -0.0284 -0.0650 -0.1829
 3168W        W 7232   7.358   0.159   1.235  0.0015  0.0248  0.0289
 3169W        W 7233   2.560   2.727  10.504  0.1700  0.1986  0.0910
 3170W        W 7234   7.990   3.321  11.240 -0.1355 -0.2500 -0.1708
 3171W        W 7235   5.582   6.080   8.407 -0.3050 -0.1083 -0.0784
 3172W        W 7236   4.174   4.359   0.047 -0.0385  0.3709  0.0133
 3173W        W 7237   2.215   2.340   2.415 -0.0434 -0.0820 -0.0356
 3174W        W 7238   8.156   5.350   2.690 -0.0002  0.1227 -0.0497
 3175W        W 7239   9.056   2.197   1.835 -0.1794  0.5456  0.0242
 3176W        W 7240   8.666   7.153   0.117  0.0656  0.1150 -0.0829
 3177W        W 7241   8.415   3.926   1.930  0.3085  0.0267 -0.2281
 3178W        W 7242   9.892   6.329   8.077  0.0440  0.0456  0.0988
 3179W        W 7243   1.127   0.313  10.694 -0.0345  0.0449  0.0792
 3180W        W 7244   3.235   2.241  10.481  0.1532  0.1171  0.4318
 3181W        W 7245  10.573   7.200  10.227  0.2985 -0.1669 -0.1450
 3182W        W 7246   3.911   3.628   7.472  0.2753  0.2853 -0.0529
 3183W        W 7247   3.747   2.033   3.534 -0.1270  0.1697  0.1685
 3184W        W 7248   8.128   7.312   9.377  0.0818  0.2307  0.0848
 3185W        W 7249   2.891   4.951   2.329  0.2944 -0.0622 -0.4122
 3186W        W 7250   9.397   4.638   0.059 -0.1664  0.3148 -0.3298
 3187W        W 7251   1.258   8.950  10.948 -0.0413  0.1519 -0.3979
 3188W        W 7252   3.732  10.421   2.421 -0.3398  0.2559  0.1351
 3189W        W 7253   3.566   5.337   7.770  0.0273 -0.0466 -0.1898
 3190W        W 7254   7.037   6.438   7.977  0.0658  0.0583 -0.0082
 3191W        W 7255   4.408   9.912   0.303 -0.2735 -0.0949 -0.3525
 3192W        W 7256   5.258   3.658   3.486 -0.0978 -0.1801 -0.3756
 3193W        W 7257   9.794   4.020   8.860 -0.1232 -0.0207  0.3234
 3194W        W 7258   7.450   3.698  10.781 -0.2177  0.1241  0.0519
 3195W        W 7259   1.873   9.336  10.184  0.1991 -0.0085  0.2416
 3196W        W 7260   2.075   1.787   3.034 -0.0120 -0.1237  0.0838
 3197W        W 7261   2.004   7.439   3.286 -0.1447 -0.1490 -0.1607
 3198W        W 7262   6.625   0.310   3.012 -0.4032 -0.0002  0.1079
 3199W        W 7263   3.935   0.785   8.023  0.4412  0.3290  0.1632
 3200W        W 7264   4.208  10.121   1.244  0.2709 -0.1518 -0.2898
 3201W        W 7265   1.891   0.718   2.089  0.3857 -0.1500 -0.0258
 3202W        W 7266   3.679   8.698  10.021 -0.0655 -0.1806 -0.0904
 3203W        W 7267   4.386   1.013   8.034  0.3822 -0.2136 -0.3854
 3204W        W 7268   6.456   2.033   8.551  0.3522  0.1927  0.0830
 3205W        W 7269   6.657   8.818   9.840  0.1800  0.1354  0.1902
 3206W        W 7270   9.261   5.107   0.765  0.3012 -0.2883  0.2305
 3207W        W 7271  10.636   4.525  10.024  0.4067 -0.0331  0.0590
 3208W        W 7272   8.928   3.923   2.956 -0.2792 -0.0809  0.0054
 3209W        W 7273   5.800  10.280   7.793 -0.0381 -0.2622 -0.1669
 3210W        W 7274   2.852   3.024  10.234  0.0110  0.1340 -0.0208
 3211W        W 7275   9.906   3.659   9.696 -0.0660  0.1964 -0.0296
 3212W        W 7276   2.296   7.784   8.077  0.0763  0.0935  0.0521
 3213W        W 7277   8.847   3.931  10.999 -0.2010  0.2081 -0.1221
 3214W        W 7278   0.525   5.596  10.936 -0.1843 -0.2444  0.2377
 3215W        W 7279   8.434   6.308   7.882  0.0417  0.3319  0.0364
 3216W        W 7280   7.205   0.174   9.584 -0.0530 -0.1116 -0.0823
 3217W        W 7281   8.468   1.166   0.096 -0.1372  0.0642  0.1537
 3218W        W 7282   4.940   4.121  11.119  0.0955  0.0257  0.2307
 3219W        W 7283   8.598   9.432   7.992  0.0497 -0.4294  0.1129
 3220W        W 7284   1.088   8.504  10.542  0.1760 -0.2750 -0.0111
 3221W        W 7285   1.769   3.912   1.228 -0.0590  0.0123 -0.0550
 3222W        W 7286   8.267  10.100   2.530 -0.0088  0.0806  0.0778
 3223W        W 7287   2.753   1.697   8.863  0.0761  0.0294 -0.0222
 3224W        W 7288   6.869   3.648   8.333 -0.3466 -0.0191  0.0821
 3225W        W 7289   1.791   9.700   4.034  0.1789  0.7148 -0.0693
 3226W        W 7290   1.923   7.045  10.582  0.1230  0.1061 -0.1154
 3227W        W 7291   3.182   0.882   7.260 -0.2223  0.1575 -0.0302
 3228W        W 7292   5.522   0.678   0.354 -0.0502 -0.0732 -0.0037
 3229W        W 7293   2.723   2.121   9.141 -0.3491  0.1857 -0.1099
 3230W        W 7294   6.491   8.881   1.908 -0.0860  0.0893 -0.1062
 3231W        W 7295   8.822   6.086   1.180 -0.0681 -0.1293 -0.0472
 3232W        W 7296   3.851   1.264  10.062  0.0842  0.0020  0.1452
 3233W        W 7297  10.081   0.468   8.736  0.0754  0.0569  0.0685
 3234W        W 7298   8.588   4.103   7.640 -0.1528 -0.5077 -0.3447
 3235W        W 7299   3.301  10.284   8.693  0.1022 -0.1004  0.3350
 3236W        W 7300   5.777   5.045   1.059  0.0186 -0.0075 -0.1790
 3237W        W 7301   8.748   0.252   7.946 -0.1853 -0.0434  0.1855
 3238W        W 7302   0.922   0.191   2.751  0.1007  0.3423  0.0208
 3239W        W 7303   1.984  10.693   1.475 -0.0528 -0.0927  0.3009
 3240W        W 7304   2.439   9.299   8.442 -0.2535  0.2311  0.2387
 3241W        W 7305   4.585  10.318   1.961  0.0533  0.0655  0.4380
 3242W        W 7306   9.214   7.267  10.688 -0.1391 -0.0860  0.1937
 3243W        W 7307   5.845   6.962   0.493 -0.0233 -0.0052 -0.1218
 3244W        W 7308   4.844   8.578   0.837  0.4218  0.1108  0.2002
 3245W        W 7309   0.646   3.509   8.598 -0.2105  0.0783 -0.1853
 3246W        W 7310   7.850   8.985   0.234  0.1619  0.0863  0.0642
 3247W        W 7311   8.125   6.564  10.535  0.0769 -0.1585 -0.0040
 3248W        W 7312   9.365   8.488   0.615  0.2445 -0.0311 -0.2288
 3249W        W 7313  10.590   7.671   8.427  0.4814 -0.0391  0.0701
 3250W        W 7314   1.349   2.948   8.598 -0.2687 -0.0274  0.0357
 3251W        W 7315   0.163   3.610   0.994  0.1400 -0.1838 -0.2242
 3252W        W 7316   2.614   7.695   7.657 -0.1035 -0.1345  0.1917
 3253W        W 7317  10.307   6.206   7.639 -0.1559 -0.1144  0.1878
 3254W        W 7318   4.675   1.363   7.619 -0.0044 -0.1500  0.0513
 3255W        W 7319   3.413   5.434   9.892  0.0638 -0.3017  0.0779
 3256W        W 7320   6.226   5.738   2.143  0.3348 -0.1457 -0.0874
 3257W        W 7321   0.939   6.538   8.645 -0.2113  0.1724 -0.1521
 3258W        W 7322   3.060   3.890   9.567  0.0144 -0.1176 -0.1439
 3259W        W 7323   7.835   9.498  10.496  0.0273  0.2024  0.1738
 3260W        W 7324   7.606   7.455   2.533  0.1669 -0.2677 -0.0385
 3261W        W 7325   7.876   8.121   2.800  0.0857 -0.0943 -0.0166
 3262W        W 7326   6.418   9.979  10.226  0.2261 -0.5900 -0.1863
 3263W        W 7327  10.467   6.170   2.297  0.1746 -0.0075  0.0639
 3264W        W 7328   4.073   7.538   1.756 -0.1591 -0.3132 -0.3230
 3265W        W 7329   5.252   3.317  10.107  0.3280 -0.2274 -0.3562
 3266W        W 7330   3.952   7.732  10.276 -0.3603  0.0540  0.1098
 3267W        W 7331   1.124   4.071  11.349  0.0219  0.0268  0.2783
 3268W        W 7332   1.201   8.003   0.629  0.0677  0.0394 -0.1603
 3269W        W 7333   2.582   6.519  10.786 -0.2111  0.5286 -0.3020
 3270W        W 7334   7.673   5.491  10.213  0.0922  0.0605 -0.2224
 3271W        W 7335   0.449   1.249   1.578 -0.2212  0.0150  0.0134
 3272W        W 7336   7.412   1.665   1.663 -0.1665  0.3968  0.1443
 3273W        W 7337   2.355   7.166   2.251 -0.3182 -0.3115  0.2026
 3274W        W 7338   1.353   1.346   2.769  0.3047  0.0788 -0.0097
 3275W        W 7339   5.864   4.301   9.290 -0.0313  0.0771 -0.0550
 3276W        W 7340   3.188   2.990   0.986  0.0024 -0.0025 -0.1200
 3277W        W 7341   3.031   0.019   7.618 -0.2667 -0.2022 -0.2057
 3278W        W 7342   3.923   4.806   0.111  0.0174 -0.2786 -0.3331
 3279W        W 7343   3.132   0.550   1.482  0.3554  0.0584  0.3837
 3280W        W 7344   8.740   2.609   8.200 -0.2593 -0.1041 -0.1618
 3281W        W 7345   6.014   9.195  10.108 -0.1755 -0.0276  0.0449
 3282W        W 7346   3.252   5.824   1.652 -0.1938  0.0229  0.0526
 3283W        W 7347   1.570   1.635   3.154 -0.3777 -0.0052  0.1550
 3284W        W 7348   1.928   8.803  10.375  0.0630 -0.3460 -0.0531
 3285W        W 7349   0.933   6.373   1.971  0.1841 -0.2061 -0.1349
 3286W        W 7350   1.414   8.224   9.686 -0.1235 -0.0574 -0.1474
 3287W        W 7351   9.574   7.070   8.509  0.2341 -0.1374 -0.1925
 3288W        W 7352   4.832   9.906   1.013 -0.0628 -0.2781  0.3386
 3289W        W 7353  10.483   4.354   0.870  0.0228  0.0104 -0.1288
 3290W        W 7354   0.634   7.058  10.979 -0.1401  0.2130  0.0413
 3291W        W 7355   8.205   1.028   8.393 -0.1210  0.2476 -0.1486
 3292W        W 7356   5.188   7.767   9.654  0.0394 -0.0636  0.1041
 3293W        W 7357   0.776   0.243   8.655  0.2215 -0.4832 -0.0684
 3294W        W 7358   5.123   1.222   2.505 -0.4209  0.0020 -0.1155
 3295W        W 7359   8.641  10.605   8.276  0.1514  0.0476  0.1327
 3296W        W 7360   5.421   4.168   0.713  0.0171  0.1054 -0.0979
 3297W        W 7361  10.202   9.903  11.134  0.1155  0.1652  0.4682
 3298W        W 7362   7.019   0.963   2.366 -0.3575  0.0934  0.3334
 3299W        W 7363   1.829   6.205   2.033 -0.0706  0.2739 -0.4473
 3300W        W 7364   4.945   3.551   8.850 -0.0604  0.1443  0.0777
 3301W        W 7365   2.495   4.926   2.644 -0.0225 -0.3678 -0.0011
 3302W        W 7366   6.056   2.083   1.434 -0.2460 -0.4036 -0.1568
 3303W        W 7367   3.294   5.667   2.775  0.0304  0.0067  0.0578
 3304W        W 7368   5.627  10.533   3.353 -0.0447  0.2102 -0.1532
 3305W        W 7369   1.939   9.370   7.762 -0.2234  0.2815 -0.0036
 3306W        W 7370  10.595   3.877   9.063 -0.0381  0.0390  0.0025
 3307W        W 7371   7.849  10.577   2.532 -0.1623 -0.0705 -0.2666
 3308W        W 7372   7.599   5.156   8.214  0.3625  0.3120 -0.0650
 3309W        W 7373   4.365   8.960  11.192  0.1291  0.2876  0.0233
 3310W        W 7374   1.968   8.562   2.587  0.6107 -0.2205 -0.3596
 3311W        W 7375   6.404  10.624   8.725  0.0343 -0.2565 -0.1578
 3312W        W 7376   8.124   3.600   1.069 -0.0220  0.0273 -0.0646
 3313W        W 7377   8.615   9.996   2.848 -0.1520  0.1733 -0.1388
 3314W        W 7378   8.337   2.719   0.604  0.4293  0.1784 -0.0430
 3315W        W 7379   9.301   9.045   8.579 -0.1211 -0.3309 -0.1124
 3316W        W 7380   9.871   0.162   3.029  0.2574 -0.4708  0.0328
 3317W        W 7381   5.957  10.447   8.833 -0.1905 -0.2992 -0.1615
 3318W        W 7382   4.130   9.261   8.156 -0.1648 -0.2658  0.0745
 3319W        W 7383   0.341   8.638   9.129 -0.1371 -0.5856 -0.2809
 3320W        W 7384   4.162   3.685  10.718 -0.1638  0.2519 -0.1466
 3321W        W 7385   2.271   3.000   7.450  0.3349  0.0187  0.2728
 3322W        W 7386   5.020   5.742   9.112 -0.0051 -0.0927 -0.3626
 3323W        W 7387   2.035   7.473   9.231  0.1972 -0.2218 -0.1494
 3324W        W 7388   0.918   4.869   9.316  0.1466  0.5439  0.0009
 3325W        W 7389   6.689   6.790   9.649 -0.0477  0.0217 -0.0821
 3326W        W 7390   6.904   0.296   0.353  0.3400 -0.1281  0.0130
 3327W        W 7391   6.733   6.041   1.411  0.1305  0.1988 -0.2464
 3328W        W 7392   4.521   5.359  10.926 -0.2674 -0.0309  0.0016
 3329W        W 7393   9.273   6.612  10.000 -0.1326  0.1479  0.0394
 3330W        W 7394   5.965   4.737   9.572  0.1715  0.1548 -0.1227
 3331W        W 7395   9.696   4.780   8.860  0.2278  0.0648 -0.2906
 3332W        W 7396   7.190   0.502   9.973  0.2457 -0.2836  0.1656
 3333W        W 7397   2.274  10.710   9.827  0.1284  0.1873 -0.1361
 3334W        W 7398  10.298   9.066   9.740 -0.1476  0.1084  0.0072
 3335W        W 7399   3.197   2.907   9.735 -0.3474 -0.0111  0.1511
 3336W        W 7400  10.083  10.438   1.705  0.0927 -0.0264 -0.0777
 3337W        W 7401   0.678   1.881   9.064 -0.1194  0.1672 -0.3141
 3338W        W 7402   1.637   7.093   7.680  0.0730 -0.0769  0.1747
 3339W        W 7403   6.484  10.129   7.799  0.0737 -0.0735  0.1496
 3340W        W 7404   3.013   8.063   3.222 -0.0017 -0.1615  0.4435
 3341W        W 7405   0.802   0.094  10.308 -0.0589  0.0111 -0.1499
 3342W        W 7406   8.091   1.023  10.412 -0.2273  0.0640  0.1777
 3343W        W 7407   0.255   0.273   8.794  0.1870  0.2282 -0.0953
 3344W        W 7408   8.280   3.173  10.289  0.0429  0.0463 -0.2382
 3345W        W 7409   7.576   5.048   1.376  0.0492 -0.3287  0.5074
 3346W        W 7410   0.333   2.107  11.284  0.0370  0.1778  0.2118
 3347W        W 7411   9.256   5.773   1.147  0.1128 -0.5338  0.0587
 3348W        W 7412   0.607   1.151   2.325 -0.0099 -0.0912  0.1135
 3349W        W 7413   0.280   0.506   2.320  0.0576 -0.1840 -0.0839
 3350W        W 7414   7.813   0.038   1.712 -0.1988 -0.1124  0.2272
 3351W        W 7415   9.603   6.322   8.882  0.1780 -0.0643  0.3590
 3352W        W 7416   0.345   6.645   9.052 -0.0884  0.2809  0.0183
 3353W        W 7417   3.313   5.548   2.089  0.0009 -0.0772 -0.0070
 3354W        W 7418   2.111   7.759   0.824 -0.0621 -0.1809 -0.0369
 3355W        W 7419   4.432   8.234   9.095  0.3009  0.3942 -0.2285
 3356W        W 7420   2.678   7.133   7.544 -0.3585 -0.1759  0.0320
 3357W        W 7421   7.296   7.163   1.222  0.1217  0.0644 -0.0972
 3358W        W 7422  10.098   6.242  11.229 -0.0576  0.1745 -0.1122
 3359W        W 7423   5.550   4.541   3.304 -0.0968 -0.1272 -0.0172
 3360W        W 7424   1.970   1.178   1.858  0.0646 -0.3484 -0.3333
 3361W        W 7425   3.661   7.671   8.684  0.1704 -0.0771 -0.2577
 3362W        W 7426   4.000   0.744  10.973 -0.3562 -0.0785 -0.2181
 3363W        W 7427   1.942   6.731   8.448  0.2981  0.0716 -0.2797
 3364W        W 7428   7.322   1.005   2.791  0.0379  0.0495  0.0877
 3365W        W 7429   6.060   8.213   0.227 -0.0871 -0.0654 -0.0270
 3366W        W 7430  10.129   3.355   1.566  0.1489  0.0366  0.3057
 3367W        W 7431   2.173   6.422   3.051 -0.2057 -0.1202  0.2794
 3368W        W 7432  10.694   9.150   0.853  0.0954  0.0264  0.0217
 3369W        W 7433   2.748   3.783   7.537  0.1820 -0.1810 -0.0046
 3370W        W 7434  10.021   3.554   3.635 -0.0577 -0.1487 -0.0494
 3371W        W 7435  10.195   5.293   0.018 -0.0478  0.3810  0.0652
 3372W        W 7436   2.848   3.526  10.817  0.2681  0.3212  0.1433
 3373W        W 7437   7.945   6.185   8.433 -0.0085 -0.1991 -0.0217
 3374W        W 7438  10.345   4.300   0.029  0.0979 -0.1386 -0.0732
 3375W        W 7439   4.053   0.996   0.368  0.1785 -0.2142 -0.2332
 3376W        W 7440   1.728   6.454   9.790  0.2362 -0.1408  0.1366
 3377W        W 7441   4.210   0.021   7.009  0.1646 -0.0638 -0.1233
 3378W        W 7442   5.103   4.169   0.302 -0.0526  0.1345 -0.0308
 3379W        W 7443   4.461   3.542   0.718 -0.2786  0.1292  0.4966
 3380W        W 7444  10.290   3.822  10.469 -0.0300 -0.2146  0.0369
 3381W        W 7445   9.362   4.874   2.167  0.3557 -0.0623  0.4226
 3382W        W 7446   9.063   4.216   7.455 -0.0873 -0.1367  0.1759
 3383W        W 7447   3.900   7.053   7.180  0.3967  0.0566 -0.3581
 3384W        W 7448  10.119   4.555  10.947 -0.3741  0.1860  0.0768
 3385W        W 7449   5.367   6.438   2.843 -0.0231  0.1366 -0.0760
 3386W        W 7450   1.895   2.401   7.827 -0.1651  0.1426  0.0038
 3387W        W 7451   2.455   0.335   7.068 -0.1888 -0.1594 -0.3720
 3388W        W 7452   7.484   6.489   8.395 -0.0881 -0.4724 -0.0861
 3389W        W 7453   5.724   3.645  10.472 -0.2245 -0.1831  0.0097
 3390W        W 7454   9.526   8.704   2.448  0.0637 -0.3599  0.1398
 3391W        W 7455   3.723   1.050   9.603  0.3503 -0.2145  0.0167
 3392W        W 7456   8.081   7.911   1.601  0.0233  0.4416 -0.2377
 3393W        W 7457   5.165   4.574   2.174  0.1242 -0.0741  0.0964
 3394W        W 7458   0.256   7.209   3.200  0.1067  0.0344 -0.2393
 3395W        W 7459   8.099   1.810  11.152  0.1012  0.0754 -0.4962
 3396W        W 7460   3.657   7.935   7.743  0.1645 -0.0090  0.3053
 3397W        W 7461   4.073   3.698   7.003 -0.0378 -0.0869  0.1104
 3398W        W 7462   5.012   2.102   8.809  0.0823  0.2119  0.0114
 3399W        W 7463   7.324   5.658  11.221  0.2139 -0.1245  0.0205
 3400W        W 7464   7.929   6.928   9.070 -0.0044 -0.0326 -0.3251
 3401W        W 7465   8.690   9.510   3.162  0.0427 -0.3786  0.0563
 3402W        W 7466   0.885   6.091  10.662  0.0317  0.0182  0.1400
 3403W        W 7467   6.168  10.074   1.378  0.0863 -0.4355 -0.0529
 3404W        W 7468   9.168   2.853   1.293 -0.1633  0.0254  0.0111
 3405W        W 7469   9.579   9.308  10.272  0.2078 -0.0966 -0.0494
 3406W        W 7470  10.017   9.496  11.280  0.3904 -0.2136 -0.1436
 3407W        W 7471   4.980   1.545   0.713 -0.0023  0.0753 -0.1190
 3408W        W 7472   8.779   0.876   9.663  0.1605  0.0163  0.1006
 3409W        W 7473   3.273   7.570   3.238 -0.1249  0.1562  0.0143
 3410W        W 7474   4.549   7.350   2.438 -0.1941  0.0554 -0.0212
 3411W        W 7475   7.565   0.699   8.882  0.1092  0.0562 -0.0212
 3412W        W 7476   2.700   5.245   8.002  0.3511  0.3863  0.0500
 3413W        W 7477  10.694   6.113   9.439 -0.0039 -0.1140  0.0981
 3414W        W 7478   2.003   9.014   0.920  0.1588  0.0307  0.2967
 3415W        W 7479   7.267   6.466   8.883  0.1989  0.2659  0.0516
 3416W        W 7480   3.479   0.855   2.255  0.1844  0.0990  0.2983
 3417W        W 7481  10.404  10.400   9.794  0.0439 -0.3336 -0.3953
 3418W        W 7482   9.965  10.725   9.495 -0.0788  0.1331  0.0920
 3419W        W 7483  10.488   4.889  10.705  0.3981 -0.1265  0.1693
 3420W        W 7484   3.916   5.837   3.217  0.1383 -0.0513  0.0665
 3421W        W 7485   9.307   4.911  10.521  0.0325  0.2840 -0.1984
 3422W        W 7486   3.122   2.583   8.490 -0.0287 -0.0607  0.1802
 3423W        W 7487   7.157   0.303   2.901  0.2464 -0.0491  0.2040
 3424W        W 7488   5.089   8.670   0.403 -0.2990  0.1037  0.1605
 3425W        W 7489   5.961   4.650   7.894  0.2237  0.3868  0.0994
 3426W        W 7490   8.272   3.262   7.292  0.3997 -0.1382 -0.1296
 3427W        W 7491   7.185   8.328   3.299 -0.0409  0.2521  0.1785
 3428W        W 7492   1.409   4.750   9.510 -0.2635 -0.0139  0.2603
 3429W        W 7493   0.699   8.013  11.222 -0.0785  0.3539  0.1144
 3430W        W 7494   4.640   3.584  10.505  0.3100 -0.2590  0.3185
 3431W        W 7495   9.404   4.459   8.425 -0.0573  0.3039  0.0289
 3432W        W 7496   9.467   6.886  10.898 -0.2881  0.0161  0.2682
 3433W        W 7497   5.767   9.918  10.404  0.1332 -0.4066  0.3903
 3434W        W 7498   0.766   9.581   2.981  0.2253 -0.0336  0.4069
 3435W        W 7499   5.876   6.477   2.704  0.0670 -0.0567 -0.1072
 3436W        W 7500   5.834   3.511  11.031 -0.0741  0.1974  0.0911
 3437W        W 7501   7.410   0.513  10.891 -0.1246 -0.0458 -0.2769
 3438W        W 7502   5.775   9.713   8.548  0.3066  0.1160 -0.1702
 3439W        W 7503   8.125   0.983   7.581 -0.1225 -0.0417 -0.0766
 3440W        W 7504   9.838  10.548   0.452 -0.2035  0.0509 -0.1062
 3441W        W 7505   0.029   7.745   8.984  0.0287 -0.0034 -0.1656
 3442W        W 7506   1.209   0.777  10.644 -0.0607 -0.0775  0.3621
 3443W        W 7507   2.279   3.682   2.961 -0.2654  0.0858 -0.1715
 3444W        W 7508   2.619   6.236   3.256  0.2005 -0.0757  0.0524
 3445W        W 7509   9.020   6.108  10.481 -0.0804 -0.1919 -0.1402
 3446W        W 7510   4.453   0.125   2.785 -0.0268  0.1906 -0.0697
 3447W        W 7511   6.048   0.245  10.799 -0.0082 -0.2426 -0.1295
 3448W        W 7512   3.207   4.587   2.156 -0.0952 -0.0566  0.1581
 3449W        W 7513   7.590   2.514  10.059 -0.1825 -0.0946  0.0544
 3450W        W 7514   8.931   5.742   1.555 -0.4342 -0.1097  0.0755
 3451W        W 7515   0.751   6.119   7.927  0.0920 -0.2014  0.2682
 3452W        W 7516   6.771   6.946   1.452 -0.2950 -0.0412  0.1714
 3453W        W 7517   1.342   7.425  10.033 -0.0750 -0.1108  0.2939
 3454W        W 7518   3.111   2.606  11.267  0.1798  0.2004 -0.2591
 3455W        W 7519   6.722   3.833   2.580  0.3248  0.2153  0.0636
 3456W        W 7520   2.811   7.907   8.150  0.1714 -0.1243  0.2086
 3457W        W 7521   6.538   2.246  10.822 -0.0703  0.1559  0.3051
 3458W        W 7522   7.433   0.077  10.033  0.1455  0.2322  0.0610
 3459W        W 7523   2.947   3.207   2.531 -0.2015 -0.3797 -0.4009
 3460W        W 7524   2.462   3.173  10.779 -0.0196  0.1138  0.0733
 3461W        W 7525   4.178   1.462   0.160  0.0358 -0.0304 -0.2652
 3462W        W 7526   0.595   6.142  10.188  0.0706  0.0273  0.5074
 3463W        W 7527   8.175   8.701   3.529 -0.0850  0.1147  0.2472
 3464W        W 7528   7.924   4.920   1.005 -0.0550 -0.1122  0.2320
 3465W        W 7529   0.154   5.166   9.492  0.0126 -0.1149 -0.1371
 3466W        W 7530   9.680   2.573   8.682  0.1748  0.1626  0.1529
 3467W        W 7531   3.049   4.851   6.743  0.2466 -0.0899 -0.1152
 3468W        W 7532   9.602  10.661   1.883 -0.4785  0.2303 -0.0216
 3469W        W 7533   0.126   5.189   7.735 -0.1234  0.0158  0.1861
 3470W        W 7534   5.914   5.093   1.871  0.1055 -0.1548 -0.2982
 3471W        W 7535  10.517   3.234  10.567  0.4280 -0.0876  0.3209
 3472W        W 7536   6.331   2.701   0.212 -0.2272 -0.0766 -0.0049
 3473W        W 7537   1.315   7.026   1.121 -0.2008  0.0400  0.2153
 3474W        W 7538   3.789   5.614  10.159 -0.0213 -0.3318 -0.3011
 3475W        W 7539   2.357   6.412   9.318  0.1689 -0.3857  0.3289
 3476W        W 7540   0.441  10.668  10.101 -0.1176 -0.0310 -0.1928
 3477W        W 7541   4.577  10.118  10.681 -0.1229 -0.1670  0.2530
 3478W        W 7542   9.387   0.104   9.322 -0.1087  0.0454  0.3073
 3479W        W 7543   9.115   0.314  10.542  0.1785 -0.4253 -0.0647
 3480W        W 7544   0.227   5.518   9.168 -0.1997 -0.0132 -0.2014
 3481W        W 7545   1.766   7.100   9.089  0.2099  0.0367 -0.2713
 3482W        W 7546  10.710   9.957   2.339  0.1634  0.1812 -0.2088
 3483W        W 7547   4.737   8.618   1.851  0.2139 -0.0721 -0.2455
 3484W        W 7548   6.919   6.949  11.337  0.0228 -0.1916  0.1919
 3485W        W 7549   3.173   7.733   0.607  0.5819 -0.3942 -0.0080
 3486W        W 7550   9.976   5.856   0.808 -0.0436 -0.1789 -0.1061
 3487W        W 7551   7.448  10.189   9.984  0.2265  0.0608  0.1849
 3488W        W 7552   3.045   8.073   8.869  0.1532  0.1487  0.0079
 3489W        W 7553   3.761   4.639   2.007  0.0155  0.2545 -0.2452
 3490W        W 7554   3.905   8.251   2.817  0.0502 -0.2186 -0.0540
 3491W        W 7555   1.212   2.410   8.082 -0.0158  0.0353  0.5170
 3492W        W 7556   9.646   1.128   2.837  0.1135 -0.0986  0.2411
 3493W        W 7557   8.611   6.635   2.679 -0.0419 -0.1214  0.0986
 3494W        W 7558   6.104   6.296  11.150  0.3131  0.0762 -0.0226
 3495W        W 7559   6.654   1.323   0.456  0.3182 -0.0441 -0.1040
 3496W        W 7560   8.866   9.060   9.093  0.4018 -0.0111  0.0641
 3497W        W 7561   7.659   7.104   9.430 -0.0227  0.2312  0.1454
 3498W        W 7562   2.326   4.041   7.725 -0.0348  0.0739  0.3769
 3499W        W 7563  10.499  10.719  10.744  0.0973 -0.0790  0.2515
 3500W        W 7564   2.752   6.767   7.922 -0.3771  0.0240 -0.4045
 3501W        W 7565   7.348   5.434   7.625 -0.1741 -0.0167 -0.0336
 3502W        W 7566   0.406   4.166   7.346  0.1677 -0.0886 -0.0400
 3503W        W 7567   2.381   9.581   7.977  0.2561  0.1563 -0.0623
 3504W        W 7568   7.547   8.408  10.051  0.1312  0.2197 -0.3282
 3505W        W 7569   8.538   2.528   9.813 -0.0351  0.1453  0.3908
 3506W        W 7570   8.652   8.023  11.268 -0.0011 -0.1053 -0.0226
 3507W        W 7571   2.912   3.793  11.223 -0.2368 -0.3236  0.1536
 3508W        W 7572   3.381   2.705   0.518 -0.3584  0.4122  0.2723
 3509W        W 7573   3.626   8.337   0.259 -0.2870 -0.3781  0.0686
 3510W        W 7574   2.663   3.870   1.391  0.6380  0.2442 -0.1168
 3511W        W 7575   4.919   1.671  11.228 -0.0906  0.1844 -0.0436
 3512W        W 7576   2.346   4.109   8.959 -0.1783  0.1037 -0.1760
 3513W        W 7577   0.896   6.417   9.831  0.0068 -0.0540 -0.0679
 3514W        W 7578   4.176   8.072   8.025  0.0586 -0.2106  0.1749
 3515W        W 7579   4.281   3.167   2.392 -0.0429 -0.1567  0.0531
 3516W        W 7580   3.306   9.699   1.190 -0.1327 -0.0686  0.1201
 3517W        W 7581   4.366   6.371   2.594  0.1350  0.0218 -0.3437
 3518W        W 7582   2.467   1.462   0.166 -0.0999  0.0985  0.2133
 3519W        W 7583   9.063   9.456   8.851 -0.2886 -0.0245  0.5954
 3520W        W 7584   2.005   8.412   7.803  0.2295  0.1969 -0.0953
 3521W        W 7585   2.121   8.538   9.114 -0.0300  0.3311  0.1628
 3522W        W 7586   4.994  10.341  10.512 -0.0572  0.2945  0.1774
 3523W        W 7587   6.635   7.545  11.073 -0.1369 -0.0879 -0.0119
 3524W        W 7588   2.644   7.997   9.590 -0.4230  0.2221  0.1701
 3525W        W 7589   6.004   5.635   9.443 -0.2897 -0.3236  0.0562
 3526W        W 7590   9.165   4.229   9.490  0.0865  0.1051  0.0936
 3527W        W 7591   4.204   7.133   2.039 -0.3743 -0.0656 -0.4119
 3528W        W 7592   2.841   2.984  11.045 -0.4633  0.1962  0.0804
 3529W        W 7593   8.370   7.489   3.654 -0.1027  0.5249  0.1696
 3530W        W 7594   9.194   1.825   2.248 -0.1260  0.1482  0.0327
 3531W        W 7595   0.724   1.123   8.761 -0.0556  0.1114  0.2383
 3532W        W 7596   5.743   3.844   8.496 -0.2195  0.0591 -0.0936
 3533W        W 7597   5.807   8.831   9.121  0.0779 -0.0004 -0.4435
 3534W        W 7598   1.862   8.053   1.853  0.1473 -0.1617 -0.0250
 3535W        W 7599   8.507   4.421   8.068  0.0947  0.2666  0.0109
 3536W        W 7600   4.987   3.224  10.727  0.0345  0.0384  0.0596
 3537W        W 7601  10.526   9.452   8.633  0.1428  0.0987 -0.0597
 3538W        W 7602   6.324   6.832   1.786  0.3527  0.0316 -0.1964
 3539W        W 7603   2.512   6.705   8.699  0.2092 -0.1241  0.0166
 3540W        W 7604   6.540   1.031   7.933  0.2025 -0.0982  0.0488
 3541W        W 7605   5.350   7.157   1.218 -0.0067 -0.0056  0.0768
 3542W        W 7606   1.041   1.891   2.143 -0.1068 -0.1027 -0.2393
 3543W        W 7607  10.116  10.280   9.322  0.1115  0.0501 -0.3495
 3544W        W 7608   1.696   4.638   1.811  0.3292  0.0295  0.0696
 3545W        W 7609   0.530   5.386   2.336  0.0667 -0.3112  0.3432
 3546W        W 7610   4.843   3.836   6.734  0.0520 -0.1792 -0.2594
 3547W        W 7611  10.536   2.156  10.685 -0.1933 -0.1807 -0.1807
 3548W        W 7612   1.991   1.365   0.923  0.1157 -0.0468  0.1402
 3549W        W 7613   9.060   3.248   0.255 -0.0969 -0.3511  0.0573
 3550W        W 7614   7.523   3.563   9.266 -0.1885 -0.0622 -0.0742
 3551W        W 7615   1.073   8.356   1.556 -0.0624  0.2795 -0.2605
 3552W        W 7616   8.654   1.136   7.508  0.1148 -0.2934  0.0809
 3553W        W 7617   5.632  10.244   0.565  0.0248  0.0233 -0.1219
 3554W        W 7618   7.034   3.368   1.137  0.3265 -0.1576 -0.1197
 3555W        W 7619   4.441   0.060   0.328 -0.3707 -0.0232  0.0813
 3556W        W 7620   2.071   0.451   0.719 -0.0136 -0.1403  0.0347
 3557W        W 7621   5.000   4.395   9.380 -0.1883  0.0470  0.4746
 3558W        W 7622   8.546   7.790   9.905 -0.1003 -0.7431  0.1713
 3559W        W 7623   9.754   7.217   2.965 -0.2930  0.0300  0.1935
 3560W        W 7624   8.785   0.741   8.236  0.1634  0.1256  0.1699
 3561W        W 7625   8.981   1.622   3.653 -0.2166 -0.1209 -0.0598
 3562W        W 7626   9.418   2.271   2.180 -0.3414 -0.3330  0.1723
 3563W        W 7627   9.393   1.513   7.789 -0.0303 -0.1274  0.0949
 3564W        W 7628   2.474   7.429   8.931 -0.0924  0.4544  0.0896
 3565W        W 7629   3.288   9.359   2.017 -0.3621  0.1790  0.5076
 3566W        W 7630   4.808   3.160   7.956 -0.4057 -0.1211  0.0103
 3567W        W 7631   3.523   5.175   9.288  0.2130  0.1291  0.2221
 3568W        W 7632   3.180   8.898   7.817 -0.4385 -0.0968  0.2057
 3569W        W 7633   9.775   4.243  11.125  0.0647  0.1016 -0.1142
 3570W        W 7634   9.833   2.917   9.046 -0.0580 -0.1791  0.0057
 3571W        W 7635   7.837   0.497   7.420 -0.2191 -0.2005  0.0255
 3572W        W 7636   7.862   9.852   1.375  0.2657 -0.2369 -0.0689
 3573W        W 7637  10.521   9.153   9.157  0.2832  0.3362 -0.1802
 3574W        W 7638   8.357   7.426   1.655  0.1604  0.3114  0.0408
 3575W        W 7639   8.523   1.005  10.083 -0.2390  0.2296 -0.2827
 3576W        W 7640   4.797   8.693  11.307  0.1422  0.1117  0.2441
 3577W        W 7641   1.465   7.741   1.960  0.0046 -0.3466  0.3416
 3578W        W 7642   7.707   1.642   2.340 -0.1024 -0.0284  0.2070
 3579W        W 7643   1.200   8.353   8.755 -0.0039  0.1914 -0.0644
 3580W        W 7644   5.114   6.338   0.034 -0.4785 -0.2159 -0.0088
 3581W        W 7645   3.648  10.408   2.916 -0.3926  0.0492  0.0043
 3582W        W 7646   7.934   9.806   9.615  0.4603  0.5093 -0.1276
 3583W        W 7647   9.262   8.235   0.990 -0.1303  0.1676  0.2356
 3584W        W 7648   4.453   4.896   1.562  0.1722  0.0215  0.0225
 3585W        W 7649  10.301   0.958  11.286 -0.2310 -0.0847  0.0677
 3586W        W 7650   3.048   8.340   9.455  0.3157 -0.4548 -0.0495
 3587W        W 7651   4.959   7.368   9.410  0.1400 -0.0611 -0.0099
 3588W        W 7652   7.670   1.711   0.010 -0.5607 -0.0405 -0.2829
 3589W        W 7653   9.313   2.428   7.308  0.0888 -0.0325  0.1694
 3590W        W 7654   2.780   2.189   9.750  0.1343  0.1189  0.1210
 3591W        W 7655   4.902  10.631  10.879 -0.2257 -0.1971 -0.3645
 3592W        W 7656   1.345   7.787   2.415  0.2113 -0.4037  0.1590
 3593W        W 7657   9.304   3.101   1.706 -0.1112 -0.0454  0.0727
 3594W        W 7658   5.193   7.801   2.455 -0.1443  0.1813  0.0813
 3595W        W 7659   9.342   9.627   0.806  0.1670 -0.2761 -0.2880
 3596W        W 7660   1.759   4.141   1.992  0.0287  0.0750 -0.1324
 3597W        W 7661   7.786   0.540   2.389  0.0687 -0.3346  0.1651
 3598W        W 7662   4.357   6.202  11.155  0.1934  0.2689  0.1343
 3599W        W 7663   2.851   4.769   9.385 -0.0077  0.0692  0.0500
 3600W        W 7664   3.446   9.993   9.076  0.1318 -0.0822  0.0962
 3601W        W 7665   8.058  10.447  11.318  0.1476 -0.2682 -0.1076
 3602W        W 7666   6.334  10.538   9.308  0.0631  0.0125 -0.1031
 3603W        W 7667   5.447   9.292   8.691  0.4361 -0.0035  0.1316
 3604W        W 7668   5.967   6.161   9.496 -0.1656 -0.1361 -0.0314
 3605W        W 7669   0.109   0.260  11.019 -0.0569  0.2221 -0.0439
 3606W        W 7670   3.687   7.313   0.669 -0.3111  0.1203  0.0638
 3607W        W 7671   1.168   7.644   8.715  0.2391  0.1432  0.1640
 3608W        W 7672   9.663   5.528  10.968  0.0016  0.1426  0.1240
 3609W        W 7673   3.230   6.102   8.182 -0.3337  0.0030 -0.1745
 3610W        W 7674   4.908   5.726   2.808  0.2029  0.0754 -0.0194
 3611W        W 7675   2.937   7.269   9.150  0.1479  0.2290  0.0306
 3612W        W 7676   8.968   9.272   0.001 -0.1465  0.1330 -0.1538
 3613W        W 7677   9.809   3.860  10.306 -0.1239 -0.0277 -0.0369
 3614W        W 7678   7.535   7.267  11.052  0.1924  0.0935  0.1975
 3615W        W 7679   5.195   9.547   7.815  0.0732  0.1252  0.0563
 3616W        W 7680   2.145   8.213   2.318 -0.3014 -0.3956 -0.2268
 3617W        W 7681   9.829   3.326   3.056 -0.1623  0.2195  0.4056
 3618W        W 7682   6.884   5.910   8.020 -0.0056  0.0697  0.2462
 3619W        W 7683   4.914   9.966   1.862 -0.2333 -0.0183  0.0113
 3620W        W 7684   9.091   2.525   2.600 -0.1015 -0.0766  0.3437
 3621W        W 7685   2.870   1.611  11.249 -0.1212  0.0410 -0.0309
 3622W        W 7686   4.059   7.882   0.877 -0.0339  0.1125  0.0366
 3623W        W 7687   4.466   8.249   7.628  0.2550  0.1765 -0.0277
 3624W        W 7688   1.634   7.565   7.790 -0.0486  0.0936  0.2264
 3625W        W 7689   1.926   8.520   8.315 -0.0022 -0.1190  0.1077
 3626W        W 7690  10.441   6.076   9.925  0.2532 -0.1790  0.0743
 3627W        W 7691   7.273   2.256   1.925  0.1447  0.0507 -0.1051
 3628W        W 7692   7.334   4.912   1.867  0.2201  0.2387 -0.0746
 3629W        W 7693   1.334   6.450   9.002 -0.0530 -0.0093  0.1447
 3630W        W 7694   0.744   9.983   7.953  0.0448  0.1111  0.1529
 3631W        W 7695   5.147   3.711   2.495 -0.1359 -0.3237 -0.0454
 3632W        W 7696   5.982   6.085   0.309 -0.1115  0.1600 -0.1613
 3633W        W 7697   6.133   1.939   7.670 -0.2595 -0.2077  0.1130
 3634W        W 7698   2.932   2.214   1.600  0.2886  0.2413  0.1537
 3635W        W 7699   8.913   7.664   3.646  0.1349  0.3103 -0.1298
 3636W        W 7700   0.762   5.584   0.955  0.2030  0.3457  0.1193
 3637W        W 7701   3.755   1.176   7.269  0.0897 -0.5467 -0.0334
 3638W        W 7702   6.135   0.342   7.349 -0.3680 -0.6511  0.0209
 3639W        W 7703   9.539   6.192   1.068  0.1263  0.0324 -0.0612
 3640W        W 7704   1.966   6.628   8.949  0.2184 -0.0009  0.0339
 3641W        W 7705   2.020   2.951   0.542  0.0971 -0.0535  0.2569
 3642W        W 7706  10.595   5.542   8.485 -0.4082 -0.0910  0.0501
 3643W        W 7707   7.702   6.630   1.502 -0.2116 -0.1482 -0.0642
 3644W        W 7708   3.707   9.846   3.040  0.0200 -0.0474  0.0660
 3645W        W 7709   6.921  10.066   4.018 -0.2677  0.1312  0.1844
 3646W        W 7710   2.626   5.273   9.845 -0.0343 -0.1227  0.0301
 3647W        W 7711   6.151   3.282   8.079  0.0952  0.0379 -0.2284
 3648W        W 7712   2.265   0.915   9.639 -0.0342 -0.0188  0.0835
 3649W        W 7713   2.121   9.443   1.116  0.4076 -0.3562 -0.0458
 3650W        W 7714   7.868   8.452   2.456 -0.0257 -0.0667  0.5102
 3651W        W 7715   6.086   3.569   1.222 -0.1188  0.0449  0.2581
 3652W        W 7716   1.281   5.484  10.609  0.0176  0.0968  0.0725
 3653W        W 7717  10.194   1.951   0.240  0.1502 -0.2937 -0.3089
 3654W        W 7718   9.357   2.655   8.302 -0.2338  0.2762  0.3363
 3655W        W 7719   5.506   0.203   9.577 -0.3143 -0.0649 -0.1168
 3656W        W 7720   0.462   0.053   0.040 -0.0154  0.0199 -0.1015
 3657W        W 7721  10.740   1.174  10.940 -0.3394 -0.1322  0.1352
 3658W        W 7722   2.757   7.855   0.267  0.3889 -0.1118  0.0495
 3659W        W 7723   4.180   5.862   8.883 -0.2352  0.0615 -0.0574
 3660W        W 7724   2.862   9.774   7.888  0.0355 -0.1621 -0.3119
 3661W        W 7725   1.800   9.594   9.700  0.0490 -0.1763 -0.0525
 3662W        W 7726   4.706   5.792   3.283  0.0453  0.2500  0.1625
 3663W        W 7727   4.342   1.389   7.166  0.0106 -0.3256  0.0325
 3664W        W 7728   3.210   2.189   2.047  0.1627  0.0161 -0.1184
 3665W        W 7729   8.413   5.220   0.199 -0.4134 -0.1120 -0.1329
 3666W        W 7730   8.348   2.519   9.302  0.3176 -0.2429 -0.1436
 3667W        W 7731   2.150   8.097  11.299  0.1249  0.1545 -0.0222
 3668W        W 7732   0.446   5.518   9.622  0.2605  0.1090 -0.2546
 3669W        W 7733   6.278   6.850   9.983  0.1337 -0.1788  0.0191
 3670W        W 7734   8.265   6.310  11.055  0.0078 -0.0466  0.0897
 3671W        W 7735   7.022   3.094   6.975  0.2635 -0.0609 -0.0356
 3672W        W 7736   0.099   7.218   0.652  0.0812 -0.4146 -0.2238
 3673W        W 7737   7.689   2.550   7.746  0.2054  0.1106  0.0102
 3674W        W 7738   8.632   4.202   9.544 -0.0135 -0.1184 -0.1872
 3675W        W 7739   5.626   7.936   9.762 -0.0749  0.0673  0.0738
 3676W        W 7740   1.096   7.829  10.274 -0.4006 -0.2833  0.0457
 3677W        W 7741   3.263   9.153   1.022 -0.2235 -0.0931 -0.2048
 3678W        W 7742   8.205   7.840   8.415 -0.2310 -0.0018  0.0757
 3679W        W 7743   2.078   8.721   1.789 -0.0470  0.0649 -0.1429
 3680W        W 7744   8.058   9.177   9.303  0.3375  0.0963 -0.0833
 3681W        W 7745   8.115   9.067  10.736  0.1716  0.2820  0.4197
 3682W        W 7746   1.057   1.334   0.881  0.3035  0.1155  0.1541
 3683W        W 7747   6.073   7.731   9.975 -0.1026 -0.1129  0.0717
 3684W        W 7748   4.336   7.875   9.957 -0.1304  0.0745 -0.0816
 3685W        W 7749   0.789   7.876   0.319 -0.0317  0.1173 -0.0722
 3686W        W 7750   5.742   6.893   1.057  0.0931  0.2085 -0.0502
 3687W        W 7751   3.509   8.519   9.518 -0.0756  0.1276  0.1088
 3688W        W 7752   9.230   8.954  10.401 -0.1526 -0.1547  0.0764
 3689W        W 7753   8.752   8.789   0.064 -0.0987  0.1067 -0.2637
 3690W        W 7754   4.798   8.502   8.712 -0.1702 -0.0567  0.0270
 3691W        W 7755   6.874   9.317   3.656 -0.0399  0.0086  0.1151
 3692W        W 7756   2.861   4.739   1.868  0.0470 -0.0440 -0.1591
 3693W        W 7757   9.036   9.250   8.121 -0.0204  0.0883 -0.0613
 3694W        W 7758   2.494   4.694  10.618 -0.0170 -0.3381 -0.2340
 3695W        W 7759   1.436   3.959   8.080 -0.1166  0.1665 -0.0526
 3696W        W 7760   0.151   3.021   7.422 -0.2404  0.3337  0.2052
 3697W        W 7761   6.965   7.427   8.202  0.4940 -0.2700  0.2807
 3698W        W 7762   7.377   6.109   0.095 -0.2512 -0.0838  0.1001
 3699W        W 7763   6.508   4.526  10.506  0.1515 -0.0505 -0.1025
 3700W        W 7764   1.157   5.725   9.545 -0.2094  0.0868  0.3057
 3701W        W 7765   2.329   2.418   0.115  0.2510 -0.0087  0.0161
 3702W        W 7766   4.938   3.579   7.780  0.0754  0.0924 -0.1447
 3703W        W 7767   2.242   8.745   9.547  0.3652  0.1539 -0.2336
 3704W        W 7768   3.708   3.493  10.989 -0.1693 -0.3175  0.1776
 3705W        W 7769   6.445  10.237   2.896  0.2799 -0.1542  0.2316
 3706W        W 7770   2.830   6.269   7.886 -0.0319  0.1414  0.0821
 3707W        W 7771   5.473   1.235   8.933  0.0256 -0.1770 -0.6757
 3708W        W 7772  10.137   2.873   1.329  0.1311 -0.1928 -0.0520
 3709W        W 7773  10.038   2.676   0.432 -0.2686  0.2984  0.0191
 3710W        W 7774   3.058   8.920   9.207 -0.1215  0.4080  0.1906
 3711W        W 7775   4.396   1.051   1.479 -0.1499  0.1175  0.1859
 3712W        W 7776   4.236   2.688   0.786  0.2026 -0.0667 -0.0283
 3713W        W 7777   6.093   0.202   0.647  0.1741 -0.2331  0.2235
 3714W        W 7778   2.241   5.073   7.942 -0.0438 -0.3843  0.0965
 3715W        W 7779   1.150   7.539   0.466  0.2014  0.0278  0.1366
 3716W        W 7780   3.424   3.855   1.325  0.4652  0.2325 -0.1236
 3717W        W 7781   1.317   9.213   9.965  0.0701  0.1577 -0.0246
 3718W        W 7782   0.054   2.884  11.076  0.1033 -0.2896 -0.0760
 3719W        W 7783   4.873   1.857   3.107 -0.0783  0.0588 -0.0180
 3720W        W 7784   3.129   4.268   9.963 -0.1188 -0.1491 -0.3073
 3721W        W 7785  10.059   7.507   8.480  0.2831  0.0402  0.1103
 3722W        W 7786   5.558   5.848  10.703 -0.1576 -0.0334  0.0449
 3723W        W 7787   1.285   7.021   9.010 -0.1652  0.0426 -0.0677
 3724W        W 7788   5.312   4.926   3.050  0.1678  0.1326 -0.1794
 3725W        W 7789   0.599   0.374   1.560 -0.2539  0.0682  0.1974
 3726W        W 7790   7.782   0.561  11.234  0.3373  0.1299 -0.2712
 3727W        W 7791   2.000   2.268   2.951 -0.1811 -0.1962 -0.3169
 3728W        W 7792   0.310   8.480   1.542  0.0101  0.1350  0.1822
 3729W        W 7793  10.251   1.502  10.960  0.3399 -0.1443 -0.1300
 3730W        W 7794   4.732   1.440   9.735  0.1554  0.0157 -0.2657
 3731W        W 7795   0.504  10.420   1.507 -0.1360 -0.1028 -0.3479
 3732W        W 7796   5.246   7.560  10.104  0.2082  0.2411 -0.1085
 3733W        W 7797   0.485   4.456  10.545  0.2115 -0.1739  0.2125
 3734W        W 7798   2.175   3.024   1.592  0.0213 -0.0849 -0.0998
 3735W        W 7799   1.749  10.503   0.188  0.2377  0.0463  0.3472
 3736W        W 7800   2.741   9.839   3.920  0.0269  0.0508  0.0882
 3737W        W 7801   4.611   2.728   2.231  0.0156 -0.0314  0.1449
 3738W        W 7802   3.503   0.799  10.913 -0.1720  0.0744  0.0224
 3739W        W 7803   8.395   3.094   8.975 -0.0515  0.0155  0.0891
 3740W        W 7804  10.691   7.705   0.833 -0.3149  0.0500  0.2104
 3741W        W 7805   2.423   9.110   1.881  0.1348  0.0819 -0.2355
 3742W        W 7806   5.184   9.094   7.521  0.0485  0.1084  0.1561
 3743W        W 7807   8.499   9.461   1.510  0.2348  0.1252 -0.1580
 3744W        W 7808   6.733   3.996   6.919 -0.1224 -0.1359 -0.3997
 3745W        W 7809   6.494   2.853   2.336 -0.0832  0.1312 -0.3651
 3746W        W 7810   4.369   3.201   8.220  0.0941  0.1234  0.0763
 3747W        W 7811   5.867   9.589   1.899 -0.3231  0.0016 -0.1180
 3748W        W 7812   8.948   2.700   9.701  0.1319  0.2888 -0.1803
 3749W        W 7813   8.947   5.462   0.085  0.2821 -0.1486  0.1221
 3750W        W 7814   4.777   1.580   8.041  0.0389 -0.2732  0.1561
 3751W        W 7815   4.042   9.844   9.111  0.2034 -0.0698  0.2821
 3752W        W 7816   3.209   2.976   7.971  0.0268 -0.0826  0.3912
 3753W        W 7817   6.406   3.326   3.313  0.3448 -0.0848 -0.4613
 3754W        W 7818   1.516   5.577  11.143 -0.4277  0.2970  0.1273
 3755W        W 7819   8.269   7.711   2.140 -0.3562  0.1782 -0.2789
 3756W        W 7820   4.673   3.748   2.339 -0.0557 -0.1281  0.2807
 3757W        W 7821   9.454   6.447   3.270 -0.0578  0.0671  0.0371
 3758W        W 7822   6.700   5.335   3.095  0.1770  0.1638 -0.1108
 3759W        W 7823   9.443   7.409   0.279  0.1270 -0.1575  0.0040
 3760W        W 7824   9.685   1.636  10.193 -0.1114  0.0157 -0.1708
 3761W        W 7825   9.581   0.732   8.149 -0.1211  0.2520 -0.0502
 3762W        W 7826   2.525   3.250   9.441 -0.0359 -0.1291  0.1776
 3763W        W 7827   6.852   9.187   1.768  0.0459 -0.1259 -0.0759
 3764W        W 7828   2.400   5.278   7.095  0.2818 -0.2225  0.3148
 3765W        W 7829   3.835   4.103   1.333 -0.3362  0.1253 -0.2159
 3766W        W 7830   7.870   5.845   9.929  0.1202 -0.0945  0.1960
 3767W        W 7831   7.782  10.511  10.305 -0.1109 -0.2373  0.2570
 3768W        W 7832   5.501   4.098   2.274  0.0220  0.1502  0.1841
 3769W        W 7833   5.352   3.466   0.953 -0.2132  0.0854 -0.2347
 3770W        W 7834   6.847   9.990   0.327  0.2081 -0.1250 -0.3317
 3771W        W 7835   8.960   1.672   1.834 -0.2472 -0.4590 -0.3061
 3772W        W 7836   9.395   3.700   6.789 -0.0602 -0.0352 -0.0588
 3773W        W 7837   9.291   8.398   7.926 -0.0013  0.3162  0.0120
 3774W        W 7838   1.598   3.018   0.844 -0.0211 -0.1885 -0.1249
 3775W        W 7839   8.140   3.489   0.351 -0.4739 -0.2259 -0.1944
 3776W        W 7840  10.108   4.768   9.850  0.3385  0.0026  0.3634
 3777W        W 7841   2.073   6.136   0.233  0.0226 -0.0884 -0.1156
 3778W        W 7842   6.477   7.831   1.319 -0.4895 -0.2208 -0.1631
 3779W        W 7843   0.705   7.536  10.106  0.0876 -0.1649  0.0157
 3780W        W 7844   7.360   7.299   3.170  0.1323 -0.1155 -0.1650
 3781W        W 7845   9.328   7.878   3.237  0.0311  0.2295  0.1833
 3782W        W 7846   1.079   0.252   1.794 -0.0957  0.0590 -0.1556
 3783W        W 7847   7.145   5.424  10.289  0.0409  0.0328 -0.2568
 3784W        W 7848   4.774   2.691   7.256  0.0517  0.0309  0.3640
 3785W        W 7849   4.399   9.670   1.176 -0.2313 -0.0428  0.1804
 3786W        W 7850   5.936   4.362   7.443 -0.3659 -0.1748  0.0622
 3787W        W 7851   0.629  10.570   8.798  0.0346 -0.0643 -0.2212
 3788W        W 7852   2.881   3.528   9.293 -0.2210 -0.1482  0.2166
 3789W        W 7853   5.471   5.647   0.701 -0.0585  0.1459 -0.0237
 3790W        W 7854   9.111   3.960   1.169 -0.0548  0.1397  0.1710
 3791W        W 7855   3.175  10.551   2.694 -0.0504 -0.1081  0.2617
 3792W        W 7856   9.809   2.962   1.701  0.1335  0.2435  0.0580
 3793W        W 7857   1.911   4.955   8.823 -0.0861 -0.2379 -0.0198
 3794W        W 7858   8.118   6.251   2.651  0.0382  0.3439 -0.1283
 3795W        W 7859   2.773   1.142   9.665 -0.0463  0.0884 -0.0271
 3796W        W 7860   7.542   5.345   0.204  0.2556 -0.1405 -0.3984
 3797W        W 7861   0.116   7.478   7.705 -0.0391  0.0020 -0.0315
 3798W        W 7862   0.105   2.329   2.102 -0.2001 -0.1521 -0.0163
 3799W        W 7863   5.698   6.031   2.801  0.1079  0.1755  0.0061
 3800W        W 7864   8.578   3.488   1.988 -0.0017 -0.2447 -0.1832
 3801W        W 7865   3.933   7.142   9.159  0.0768  0.0931 -0.2957
 3802W        W 7866   8.439   2.529  11.265 -0.1497  0.1020  0.0164
 3803W        W 7867   7.974   8.045  10.139 -0.3053 -0.1504 -0.1280
 3804W        W 7868   1.630   5.787   3.400 -0.1787  0.2325  0.1810
 3805W        W 7869   3.642   1.083   3.464  0.3477 -0.1166  0.0074
 3806W        W 7870   8.659   6.921   8.971  0.0002 -0.2190 -0.1181
 3807W        W 7871   1.852   1.464   2.610  0.3244  0.2139  0.2073
 3808W        W 7872   4.574   0.769   8.519 -0.0376  0.1824  0.0941
 3809W        W 7873   4.899   8.984  10.361  0.0131 -0.0984 -0.2096
 3810W        W 7874   5.634   6.380   1.127  0.2836  0.0527  0.0274
 3811W        W 7875  10.003  10.743   8.572  0.0736 -0.0684  0.1033
 3812W        W 7876   6.547   3.316  10.536  0.0628  0.0701 -0.1700
 3813W        W 7877   6.202   4.770   1.165  0.2385 -0.1101 -0.0656
 3814W        W 7878   2.053   8.906   7.041  0.0825 -0.0993 -0.4227
 3815W        W 7879   3.385  10.603   1.133  0.1615 -0.1030  0.1738
 3816W        W 7880   0.821   2.180  11.095  0.2489 -0.0702  0.2454
 3817W        W 7881   0.885   9.006   3.103 -0.1270 -0.2764 -0.1189
 3818W        W 7882   3.437   7.342   9.649  0.3572 -0.0150 -0.0740
 3819W        W 7883  10.686   9.191  10.842 -0.4287  0.0459 -0.2331
 3820W        W 7884   2.288   0.793   3.912  0.0349  0.2605  0.0724
 3821W        W 7885   4.333   5.375   7.486  0.1345 -0.0553 -0.2189
 3822W        W 7886   3.209   8.382   8.480 -0.0434  0.0686 -0.0258
 3823W        W 7887   3.573   6.480   7.669 -0.1723  0.2595 -0.0499
 3824W        W 7888   3.171   1.683   2.119 -0.2947  0.2560 -0.2470
 3825W        W 7889   9.825   6.720  10.511  0.0091 -0.2372 -0.0048
 3826W        W 7890   3.639   6.922   2.520  0.0498 -0.0647  0.1394
 3827W        W 7891   6.987   0.761  10.678  0.1344 -0.1571 -0.0630
 3828W        W 7892   3.084   2.494  10.136 -0.1878 -0.1076  0.2422
 3829W        W 7893   3.625   7.857   0.501  0.3390 -0.5345  0.1197
 3830W        W 7894   4.566   2.784   9.500 -0.1687 -0.1051  0.0061
 3831W        W 7895   4.678   6.868   1.921  0.0722  0.2442  0.4307
 3832W        W 7896   5.132   2.902   2.121 -0.4373 -0.2925  0.2633
 3833W        W 7897   8.929   2.138   0.912  0.2459 -0.0824  0.0653
 3834W        W 7898   4.053   3.302   0.844  0.1043  0.2055  0.2530
 3835W        W 7899   2.948   7.422   8.044  0.1745  0.1945 -0.3255
 3836W        W 7900   9.609   1.101  10.206  0.0411 -0.0778  0.2481
 3837W        W 7901   6.530   9.781   9.811  0.3611  0.0955  0.0886
 3838W        W 7902   2.981   9.608  10.499 -0.1565 -0.4218 -0.0305
 3839W        W 7903   8.394   5.152   0.731 -0.0500 -0.0760  0.4925
 3840W        W 7904   8.535   4.964   7.879  0.6985  0.2365 -0.2755
 3841W        W 7905   9.299  10.241   8.251 -0.0112  0.0372 -0.1618
 3842W        W 7906   7.061   2.024   9.713  0.0794  0.1404  0.0272
 3843W        W 7907   4.835   7.702   2.889 -0.4058  0.0438 -0.2017
 3844W        W 7908   4.268   9.826   9.955 -0.2633  0.1579 -0.2926
 3845W        W 7909   8.367   7.081   2.617 -0.0524  0.1196  0.1391
 3846W        W 7910   1.038   4.825   9.907  0.1211  0.0514 -0.0174
 3847W        W 7911   8.385   9.991   9.788  0.1430  0.0687  0.1209
 3848W        W 7912   8.754   6.584  10.660  0.1720 -0.0119 -0.0909
 3849W        W 7913   5.602   9.974   3.767 -0.0248  0.0595  0.0269
 3850W        W 7914  10.214   7.964   0.900 -0.2417 -0.0015 -0.2618
 3851W        W 7915   8.459   5.922   3.430  0.2063 -0.0731 -0.1722
 3852W        W 7916   2.721   0.130   3.411  0.0305 -0.0209  0.1608
 3853W        W 7917   3.766   6.899   8.163 -0.2145 -0.0798  0.1397
 3854W        W 7918  10.702  10.298   3.750  0.1739  0.1223 -0.1378
 3855W        W 7919   1.427   1.617   7.603  0.2593 -0.1098 -0.1290
 3856W        W 7920   5.986   8.268   9.921 -0.1217 -0.0619  0.0454
 3857W        W 7921   4.694   6.002   2.441  0.0384 -0.1629 -0.1019
 3858W        W 7922   5.881   0.593  10.388 -0.0245  0.4071  0.1899
 3859W        W 7923   2.320  10.469   7.798  0.3579 -0.1024  0.2558
 3860W        W 7924   9.192   3.122   9.862  0.1158  0.0261 -0.2966
 3861W        W 7925   2.226   2.596   0.897 -0.2194  0.4211 -0.0612
 3862W        W 7926   2.747  10.728   1.385  0.1097 -0.1919  0.2891
 3863W        W 7927   9.095  10.663   8.511 -0.2271  0.0703  0.2132
 3864W        W 7928   4.644   4.022  10.645 -0.1048  0.1123 -0.2503
 3865W        W 7929   1.599  10.692   8.683 -0.0929  0.4438  0.0223
 3866W        W 7930   5.543   9.295  11.085  0.2191 -0.1091  0.1456
 3867W        W 7931   5.255   1.388   1.189 -0.1116  0.0203 -0.0904
 3868W        W 7932   3.302   8.430  11.137 -0.0663 -0.1392  0.0922
 3869W        W 7933   1.407   4.038   7.593  0.0054 -0.0773  0.3335
 3870W        W 7934   5.905   3.821   2.881 -0.2575  0.0073 -0.3134
 3871W        W 7935   5.831   9.785   0.165 -0.1596 -0.0517 -0.0707
 3872W        W 7936   8.460   8.028   2.575 -0.2295 -0.1218 -0.1704
 3873W        W 7937   2.803   8.224  11.268 -0.1010  0.0549  0.2470
 3874W        W 7938   5.955   6.112   1.932  0.0199 -0.0339 -0.0171
 3875W        W 7939   7.158   5.295   0.625 -0.2562  0.2308 -0.1535
 3876W        W 7940   7.156   8.954   7.603  0.0932  0.2672 -0.4430
 3877W        W 7941   0.463   3.171  11.205 -0.3650 -0.0609  0.0835
 3878W        W 7942   6.960   1.707   9.375 -0.1730 -0.0048  0.0876
 3879W        W 7943   3.211   4.039   2.127  0.0217  0.0126 -0.2719
 3880W        W 7944   3.538   8.123   8.715  0.0381  0.1674  0.3306
 3881W        W 7945   1.705   2.481  11.065  0.2025  0.1197 -0.1612
 3882W        W 7946   6.127   6.962   7.393  0.2476 -0.1563 -0.0581
 3883W        W 7947   4.723   8.655  10.786 -0.2099 -0.1105  0.1413
 3884W        W 7948   7.186   6.956   8.369  0.0955 -0.1457 -0.1611
 3885W        W 7949   0.481   6.449   9.575  0.1673  0.0699 -0.0381
 3886W        W 7950   4.653  10.124   1.451  0.3590  0.0446  0.0292
 3887W        W 7951   5.755   6.702   8.867  0.0130  0.2346  0.4090
 3888W        W 7952   6.658   0.723   8.876  0.1482  0.1471  0.2157
 3889W        W 7953   7.277   2.332   2.546  0.1088  0.0135  0.2328
 3890W        W 7954   8.755   2.863   0.137  0.2483  0.1690  0.1108
 3891W        W 7955   5.685   1.321   3.179 -0.1725 -0.1296 -0.2501
 3892W        W 7956   9.625   5.528   2.097  0.4210 -0.1064  0.1644
 3893W        W 7957   4.416   7.722  11.136  0.0975  0.1752 -0.1979
 3894W        W 7958   2.862   4.675   9.934  0.0551 -0.3889 -0.0201
 3895W        W 7959   9.012   7.789   8.932  0.0974  0.0043 -0.4271
 3896W        W 7960   0.538   7.525   2.942  0.4036  0.3710 -0.0997
 3897W        W 7961   0.066   6.043   0.408 -0.2007  0.1020 -0.1617
 3898W        W 7962   2.700   5.972   1.388 -0.3322  0.3215  0.2084
 3899W        W 7963   5.102   5.966   0.384 -0.0063  0.5135 -0.2140
 3900W        W 7964   4.833   1.883   0.331 -0.3162 -0.2667  0.0434
 3901W        W 7965   8.091   9.644   1.006  0.0318  0.1716  0.1161
 3902W        W 7966   8.986   2.546   8.618  0.2284 -0.2057 -0.4790
 3903W        W 7967   2.714  10.631   9.066 -0.2400 -0.0160 -0.3290
 3904W        W 7968   1.980  10.339   3.440 -0.1111  0.0826 -0.0597
 3905W        W 7969  10.760   3.613   6.313 -0.0915  0.0816  0.1259
 3906W        W 7970   0.889   5.411   9.863  0.0248  0.4573  0.0578
 3907W        W 7971   7.570   6.602   2.988 -0.1113  0.4369  0.2875
 3908W        W 7972   8.160   1.860   2.171  0.0717  0.4330 -0.1917
 3909W        W 7973   1.317   7.990   2.831 -0.2854  0.1777  0.0176
 3910W        W 7974  10.007   1.810   0.986 -0.3777 -0.1221 -0.2060
 3911W        W 7975   0.287   1.397   1.162 -0.1982  0.1272  0.0258
 3912W        W 7976   1.208   3.832   9.688 -0.0144 -0.0168  0.0675
 3913W        W 7977   3.220   4.275   9.293 -0.1356  0.0464  0.2336
 3914W        W 7978   6.180   4.865   8.754  0.1125  0.2437  0.2279
 3915W        W 7979   2.385   8.995   1.385 -0.1537 -0.1377  0.1896
 3916W        W 7980   7.660   8.880   7.753 -0.0197 -0.0879 -0.1111
 3917W        W 7981   5.497   1.553  11.229 -0.0631 -0.3069  0.0620
 3918W        W 7982   8.471   9.357   8.961  0.3044  0.2297 -0.0140
 3919W        W 7983   6.402   4.984   3.394  0.0308  0.0897 -0.0751
 3920W        W 7984   6.971   3.830   0.831  0.2572  0.0432 -0.2334
 3921W        W 7985   8.033   3.719   3.582 -0.0011 -0.0150  0.2752
 3922W        W 7986   0.878  10.045   2.439 -0.1603  0.1532  0.2088
 3923W        W 7987   7.240   0.661   0.162  0.2543  0.4501  0.0904
 3924W        W 7988   8.809   9.384   2.209 -0.0629  0.1160  0.1360
 3925W        W 7989   0.493   3.172   1.993  0.2708  0.0254 -0.2733
 3926W        W 7990   7.283   7.342   8.678  0.0880  0.1920  0.1823
 3927W        W 7991   4.581   7.301  10.783 -0.2294 -0.1497 -0.2142
 3928W        W 7992   6.372   1.436   7.655  0.0405 -0.0357 -0.0174
 3929W        W 7993   9.928   4.036   7.742  0.0244 -0.0066 -0.0568
 3930W        W 7994   7.260   9.064   0.815 -0.1254  0.2410 -0.1875
 3931W        W 7995   9.715   5.395   7.690  0.1125 -0.6607  0.2664
 3932W        W 7996   1.168   0.686  11.129  0.4935  0.1527  0.0142
 3933W        W 7997   9.457   5.653   1.626 -0.0414  0.0361  0.0178
 3934W        W 7998   2.090   6.909   0.473 -0.0266 -0.2400 -0.2915
 3935W        W 7999   8.967   9.974   0.001  0.1314 -0.1240 -0.1831
 3936W        W 8000   8.998   0.617   1.599  0.3534  0.0456 -0.0214
 3937W        W 8001   2.810   6.774   9.303 -0.0579 -0.0382 -0.0224
 3938W        W 8002   6.194   1.486   0.288 -0.0710 -0.1350 -0.0548
 3939W        W 8003   5.526   5.647   8.731 -0.2537 -0.0480 -0.1859
 3940W        W 8004   2.971   8.793   8.204  0.3158 -0.3433  0.2677
 3941W        W 8005   6.971   3.864  10.399 -0.1015 -0.0780  0.1130
 3942W        W 8006   8.797   3.329   9.662  0.1500  0.1343  0.1580
 3943W        W 8007   9.993   2.424   1.735  0.4038  0.1200 -0.0994
 3944W        W 8008   5.434   3.868  10.092  0.2153  0.3566 -0.1186
 3945W        W 8009   4.524   3.093   0.899 -0.0587 -0.0749  0.0203
 3946W        W 8010   7.216   5.848   0.605 -0.1062 -0.1775  0.1366
 3947W        W 8011   4.818   4.104   7.243  0.1545  0.0852 -0.1639
 3948W        W 8012   3.975   4.622   1.571 -0.3055  0.4606  0.0576
 3949W        W 8013   4.464   1.687   0.793  0.0153  0.0777  0.1517
 3950W        W 8014   3.760   4.820   8.156  0.0420 -0.1053  0.0636
 3951W        W 8015   7.095   1.968   7.718  0.2580 -0.0558  0.2214
 3952W        W 8016   0.630   8.675  10.517 -0.0279  0.1031  0.1323
 3953W        W 8017   2.884   5.247   9.056  0.1304 -0.1619  0.4731
 3954W        W 8018   8.374   8.823  10.332  0.0575 -0.5252  0.0749
 3955W        W 8019   3.440   3.963   7.460  0.1564  0.0752  0.0005
 3956W        W 8020   8.926   8.032  10.840 -0.1303 -0.0637 -0.0913
 3957W        W 8021   8.517   6.946   1.878 -0.1334  0.0305 -0.0847
 3958W        W 8022   5.113   7.065   8.245  0.0768 -0.1689  0.0185
 3959W        W 8023   3.760   5.202   2.086  0.1355  0.0224  0.0661
 3960W        W 8024   5.914   2.708   8.540 -0.1289 -0.2380 -0.0864
 3961W        W 8025   3.751  10.266   0.993 -0.5298 -0.2313  0.2014
 3962W        W 8026   0.740   8.474   1.217 -0.1191  0.0519  0.1137
 3963W        W 8027   1.427   9.035   2.360 -0.5085 -0.1068  0.1105
 3964W        W 8028   1.845   9.509   9.186 -0.1320 -0.1929 -0.1084
 3965W        W 8029   1.005   3.819   8.367 -0.4665 -0.0531 -0.0747
 3966W        W 8030   4.022   6.615  11.260 -0.3277 -0.2742 -0.0113
 3967W        W 8031  10.495   3.677   9.513 -0.0723 -0.2633  0.0901
 3968W        W 8032   9.407   2.669   3.502  0.1155 -0.3164 -0.0639
 3969W        W 8033  10.112   0.214   2.080 -0.1232  0.3728  0.1040
 3970W        W 8034   0.177   8.836   2.056 -0.0016  0.2200 -0.4001
 3971W        W 8035   4.867   2.014   0.816 -0.0083  0.1079  0.1299
 3972W        W 8036   1.228   7.040   0.446  0.3299 -0.2070  0.1066
 3973W        W 8037   2.782   0.251   8.167  0.3164 -0.0478 -0.1933
 3974W        W 8038   5.375   6.292  10.486 -0.2275  0.3162 -0.0435
 3975W        W 8039   3.536   5.210   0.709  0.2348 -0.0114  0.1899
 3976W        W 8040   6.134   4.422  10.878 -0.2474  0.0963  0.0879
 3977W        W 8041   9.489   4.317   1.185 -0.0500 -0.0402 -0.2414
 3978W        W 8042   1.527   2.927   9.733  0.2664  0.1465 -0.3312
 3979W        W 8043   3.600   6.897   9.791  0.0184 -0.3926 -0.2680
 3980W        W 8044   2.993   1.963  10.866 -0.3748  0.0537 -0.2721
 3981W        W 8045   6.892   5.526   1.040 -0.2881 -0.0109  0.0174
 3982W        W 8046   0.169   0.870  10.047  0.2782  0.0300  0.1556
 3983W        W 8047   3.935   2.050   1.611 -0.3074 -0.1800 -0.2574
 3984W        W 8048   8.286   3.915   8.339 -0.2776 -0.1418 -0.1805
 3985W        W 8049   9.348   1.148  10.780 -0.0933  0.1486 -0.1214
 3986W        W 8050  10.145   8.094   9.264  0.3713  0.3842 -0.1778
 3987W        W 8051   6.132   7.150  10.317  0.1692 -0.3189 -0.1097
 3988W        W 8052   8.542   5.420   9.937 -0.1595  0.1118 -0.2853
 3989W        W 8053   4.986   2.329   6.886  0.0246  0.0029 -0.2356
 3990W        W 8054   7.691   5.810   0.262  0.3269 -0.0573 -0.0330
 3991W        W 8055   9.260   4.406   2.317  0.1471 -0.0416  0.0091
 3992W        W 8056   9.199   5.689   8.215  0.1289  0.1209 -0.1422
 3993W        W 8057   9.525   5.229   9.611 -0.1455  0.3143  0.0880
 3994W        W 8058   3.197   3.794   0.753  0.1583  0.3487  0.0449
 3995W        W 8059  10.050   5.846   2.279  0.2444  0.1523  0.3113
 3996W        W 8060   7.614   2.030   9.796 -0.2073  0.1166  0.2977
 3997W        W 8061   2.867   8.349   0.385 -0.2009 -0.0186 -0.0715
 3998W        W 8062   6.007   9.960   3.515 -0.0876  0.0640  0.3900
 3999W        W 8063   9.236   4.247   6.932 -0.1820 -0.1683  0.0047
 4000W        W 8064   2.349   3.916  10.272  0.0383  0.2805 -0.1246
 4001W        W 8065   0.202  10.637  10.570 -0.2384  0.1817 -0.1189
 4002W        W 8066   9.795  10.490   2.689 -0.0771  0.1997  0.0741
 4003W        W 8067   6.217   0.219  10.349  0.1946 -0.0169 -0.1428
 4004W        W 8068   7.754   4.794  10.964  0.2549 -0.2627  0.2052
 4005W        W 8069   0.419   8.140   9.089 -0.0884 -0.1744  0.1424
 4006W        W 8070   7.148   3.378   7.902 -0.2402  0.3346 -0.0823
 4007W        W 8071   8.836   1.815  10.805 -0.3330  0.2608  0.2001
 4008W        W 8072   5.374   2.537   7.739  0.0752 -0.1061  0.1502
 4009W        W 8073   4.069   2.601   6.918 -0.0722 -0.0500 -0.2117
 4010W        W 8074   2.124   7.776  10.333  0.0022  0.0250 -0.0285
 4011W        W 8075   4.298   7.805   2.661  0.3301 -0.1504 -0.1082
 4012W        W 8076   3.264   3.472  10.183  0.3201 -0.2202  0.2579
 4013W        W 8077   5.865  10.717   0.168 -0.1195 -0.1760  0.1143
 4014W        W 8078   0.227   1.216   8.010 -0.0989  0.0465 -0.0284
 4015W        W 8079  10.643   1.645   9.080  0.2534 -0.2214 -0.1431
 4016W        W 8080   1.465   1.490  10.069  0.1839 -0.1035  0.0740
 4017W        W 8081   0.406   7.976   1.031 -0.0249  0.3366 -0.2442
 4018W        W 8082   8.079   2.012   0.289 -0.2156  0.0126 -0.2562
 4019W        W 8083   7.208   2.443   3.018 -0.2443  0.1114 -0.0120
 4020W        W 8084   9.677   5.996  11.192  0.0516  0.0952  0.4085
 4021W        W 8085   1.572   6.114   1.374  0.0184 -0.2549 -0.0962
 4022W        W 8086   6.072   1.538  10.590 -0.1489 -0.2963 -0.0698
 4023W        W 8087   7.156   6.706   0.406  0.1833  0.1827  0.0652
 4024W        W 8088   0.634   1.494   8.346 -0.2938 -0.2620 -0.5052
 4025W        W 8089   4.524  10.354   0.172 -0.1311 -0.0968 -0.2313
 4026W        W 8090   2.316  10.115  11.004  0.0733  0.2291 -0.1229
 4027W        W 8091   4.952   4.521  10.765  0.0359  0.0362  0.1419
 4028W        W 8092   9.363   8.619   2.882  0.0344  0.1976 -0.1461
 4029W        W 8093   8.453   4.278  11.248  0.1025  0.0125 -0.4106
 4030W        W 8094   4.701   7.524   9.785 -0.0022 -0.0707 -0.2485
 4031W        W 8095   0.893   9.648   8.520  0.2038  0.1583 -0.0490
 4032W        W 8096   4.612   9.022   7.421  0.3672 -0.0310  0.2923
 4033W        W 8097   4.676   6.096   9.405  0.0707 -0.1409 -0.2056
 4034W        W 8098  10.191   0.040   2.624  0.1908  0.0406  0.1820
 4035W        W 8099   8.312   6.639   8.216 -0.2474  0.0072 -0.2379
 4036W        W 8100   4.772   2.241   2.116 -0.3888  0.1711 -0.0694
 4037W        W 8101   0.935   4.548  11.332  0.0867  0.0329 -0.5071
 4038W        W 8102   8.954   2.626   9.207 -0.1021  0.0284  0.3318
 4039W        W 8103   4.664   6.115   8.834  0.1742  0.0594  0.1268
 4040W        W 8104   0.068   2.403   9.416 -0.1769  0.1290  0.4451
 4041W        W 8105   0.205   1.450   2.403  0.6184 -0.1672  0.3341
 4042W        W 8106   1.050   5.746   0.497 -0.1411  0.1729 -0.0813
 4043W        W 8107   8.286   4.253   1.017 -0.3523 -0.3302  0.1289
 4044W        W 8108  10.175   4.836   8.412  0.3703 -0.0184  0.1138
 4045W        W 8109   5.891   9.414   2.324  0.1159  0.1692  0.3039
 4046W        W 8110   1.060   6.876   2.960 -0.1205  0.1011 -0.3881
 4047W        W 8111   6.491   8.260   2.813 -0.1609 -0.3354  0.0588
 4048W        W 8112   7.370   0.648   8.039  0.2998 -0.0817  0.2841
 4049W        W 8113   9.984   3.449   2.141  0.1079 -0.2023  0.1092
 4050W        W 8114   2.506   8.147   1.923  0.2080 -0.0023  0.3583
 4051W        W 8115   4.240   7.453   0.647 -0.0441  0.3047  0.1020
 4052W        W 8116   0.494   6.300   0.573 -0.1525 -0.0792 -0.2181
 4053W        W 8117   2.546   9.879   3.424  0.1129 -0.1006  0.1183
 4054W        W 8118   1.857   3.753   8.240 -0.2047  0.4332 -0.0955
 4055W        W 8119   7.375   9.515  10.984 -0.0941  0.2119  0.0572
 4056W        W 8120   6.307   0.851   2.026  0.0166  0.2837 -0.1028
 4057W        W 8121   0.049   0.661   8.543 -0.1207 -0.2964 -0.0419
 4058W        W 8122   7.439   1.901   2.782  0.2142 -0.3007  0.0013
 4059W        W 8123   0.735   0.343  11.141 -0.0087  0.0785  0.0230
 4060W        W 8124   5.018   6.248   8.327  0.0390  0.3565  0.2478
 4061W        W 8125   9.493   0.766   0.018 -0.2179  0.2203 -0.3863
 4062W        W 8126   1.596   7.142   3.081 -0.1361  0.4285  0.3219
 4063W        W 8127   4.575  10.380   2.890 -0.0116 -0.1774 -0.1356
 4064W        W 8128   2.101   8.929   7.544 -0.1036 -0.0762  0.0878
 4065W        W 8129   9.688   5.494  10.019  0.3232  0.0519  0.1980
 4066W        W 8130   8.332   5.331   8.888  0.1265 -0.1048  0.2119
 4067W        W 8131   1.138   1.876   0.944 -0.2285 -0.1028  0.0389
 4068W        W 8132   5.433   7.513   8.117  0.3686  0.0128 -0.1767
 4069W        W 8133   4.405   5.962   2.968  0.0307  0.0632  0.1613
 4070W        W 8134   8.291   6.849   0.874  0.1162 -0.0349 -0.1397
 4071W        W 8135   4.985   8.118   1.918  0.0680  0.1397 -0.0618
 4072W        W 8136   5.645   5.675   0.275  0.1760  0.2260  0.0431
 4073W        W 8137   7.325   3.592   1.660  0.0227 -0.1405  0.1271
 4074W        W 8138   5.776   6.552   8.254 -0.2091 -0.0534  0.1622
 4075W        W 8139   4.652   1.434   0.234 -0.0931 -0.2225 -0.1467
 4076W        W 8140   8.390   9.513   9.584 -0.0658 -0.2349 -0.0100
 4077W        W 8141   6.941   0.014  11.305  0.1202  0.2581 -0.0308
 4078W        W 8142  10.658  10.269  10.666  0.1529 -0.0272  0.0463
 4079W        W 8143   7.632   3.978   7.408  0.4129  0.0558 -0.3520
 4080W        W 8144   4.496   7.820   0.423  0.1502  0.1525 -0.1604
 4081W        W 8145  10.487   5.059   9.737  0.1484 -0.0413 -0.3059
 4082W        W 8146   1.244   2.565   9.981  0.0642 -0.0124  0.1946
 4083W        W 8147   6.309   6.329   1.605 -0.0057  0.1091  0.1141
 4084W        W 8148   4.766   1.936   6.752 -0.1721 -0.1939  0.1570
 4085W        W 8149   4.081   6.894  10.109  0.0634  0.1765  0.1258
 4086W        W 8150   1.972   7.985   3.282  0.1195  0.1493 -0.0256
 4087W        W 8151   4.766   3.266   2.224 -0.2108  0.2059  0.0005
 4088W        W 8152   9.411   0.936   2.425 -0.0057  0.1380  0.0680
 4089W        W 8153   1.113   6.981   7.382 -0.2709  0.0576 -0.1911
 4090W        W 8154   6.034   9.054   3.969  0.1827 -0.0494 -0.2334
 4091W        W 8155   0.216   2.860  10.428 -0.0548 -0.4651 -0.2072
 4092W        W 8156   4.230   5.522   2.967  0.0504 -0.0987  0.2398
 4093W        W 8157  10.616   3.515   1.344 -0.0226 -0.1078  0.0508
 4094W        W 8158   8.732   7.136  10.711 -0.1434  0.1624 -0.2056
 4095W        W 8159   1.089  10.048   8.347  0.0512 -0.1860 -0.0389
 4096W        W 8160   8.973   2.435   0.045  0.0982  0.1703  0.0823
 4097W        W 8161   0.593   6.263   2.644  0.2294  0.1152 -0.2805
 4098W        W 8162   8.181   9.452   8.202 -0.0450  0.0293 -0.1416
 4099W        W 8163   7.921   2.831   8.093 -0.0700 -0.0669 -0.0819
 4100W        W 8164   9.844   3.799  10.846  0.1973  0.3788  0.0374
 4101W        W 8165   1.331   9.824   1.228 -0.0543  0.0098 -0.0046
 4102W        W 8166  10.651   9.876  10.929 -0.0047  0.2851  0.1314
 4103W        W 8167   4.702   1.239  10.646 -0.1015 -0.0737 -0.1337
 4104W        W 8168   3.898   9.684  10.755  0.2063 -0.3665 -0.2098
 4105W        W 8169   5.179   2.329  10.140 -0.0415  0.5243 -0.0246
 4106W        W 8170  10.408  10.269   8.070  0.2449 -0.2044  0.1474
 4107W        W 8171   4.220   3.698   2.649 -0.1396  0.2719  0.1155
 4108W        W 8172   6.673   9.042   2.750 -0.3815 -0.2467  0.1347
 4109W        W 8173   4.878   2.275   1.383  0.2465 -0.1440 -0.1292
 4110W        W 8174   5.809   1.768   0.340  0.0772 -0.1969  0.0623
 4111W        W 8175   0.965   6.906   9.543 -0.0240  0.1023  0.3385
 4112W        W 8176   0.351   3.815   1.430  0.1279  0.0962  0.1263
 4113W        W 8177  10.448   2.388   0.431  0.2632 -0.4728 -0.1638
 4114W        W 8178  10.024   6.892  10.956 -0.0388  0.0667 -0.0803
 4115W        W 8179   1.138   8.840   8.928  0.1927 -0.5037  0.0053
 4116W        W 8180   4.019   5.722   1.487  0.3205 -0.0396  0.0542
 4117W        W 8181   7.887   2.244   1.292 -0.2251 -0.5029 -0.1204
 4118W        W 8182   1.544   6.180   0.755  0.1606  0.1042 -0.2992
 4119W        W 8183   6.554   9.067   3.994  0.1135 -0.0771 -0.1454
 4120W        W 8184   9.772   5.103   2.329  0.0847  0.2794  0.1564
 4121W        W 8185   0.668   2.726  11.290 -0.4599  0.2494  0.0516
 4122W        W 8186   8.049   9.164  10.205 -0.0996  0.1992  0.1710
 4123W        W 8187   2.852   0.104   2.538 -0.0123 -0.2686  0.2636
 4124W        W 8188   6.860   5.429   7.229  0.2015 -0.3034 -0.0713
 4125W        W 8189   3.217   4.330   8.769 -0.1240 -0.1910 -0.1418
 4126W        W 8190   1.765   6.320   9.302 -0.1343 -0.2829  0.0825
 4127W        W 8191   7.157   3.250   9.093 -0.0571 -0.1222  0.0778
 4128W        W 8192   7.418   4.430   3.198  0.0721 -0.0348  0.2883
 4129W        W 8193   9.082   4.901  11.023 -0.3880  0.1808 -0.1550
 4130W        W 8194   2.758   3.961   2.885  0.2327 -0.1547  0.3361
 4131W        W 8195   6.925  10.575   0.457  0.1020  0.4301 -0.1730
 4132W        W 8196   2.319   5.761   1.093  0.5005 -0.4558 -0.2604
 4133W        W 8197  10.594   0.664  10.965 -0.0784  0.5170  0.0455
 4134W        W 8198  10.292   5.402   1.017  0.1178  0.0831  0.1641
 4135W        W 8199   8.387   5.191  10.478 -0.0593  0.2746 -0.1671
 4136W        W 8200   7.914   0.959   2.632 -0.4133 -0.1281  0.1455
 4137W        W 8201   3.865   7.639   9.769  0.1039 -0.0907  0.4351
 4138W        W 8202   6.960   1.626   7.338 -0.0892  0.2515 -0.1236
 4139W        W 8203   1.436   8.615   2.594  0.0332 -0.0944 -0.2743
 4140W        W 8204   2.460   7.243   0.114 -0.1581 -0.1602  0.0710
 4141W        W 8205   0.751   1.053   1.191  0.0174 -0.2272  0.1632
 4142W        W 8206   5.637   1.866   9.858  0.0547  0.1918  0.0989
 4143W        W 8207   4.223   3.298   9.380 -0.0199 -0.1492 -0.0571
 4144W        W 8208   4.841   7.482   8.095 -0.1323 -0.0520 -0.1393
 4145W        W 8209   5.329   9.056  10.094  0.2033  0.5240 -0.0044
 4146W        W 8210   7.329   9.129   8.048 -0.2151 -0.2946 -0.0815
 4147W        W 8211   2.392  10.734   1.961 -0.1717  0.0485 -0.0009
 4148W        W 8212   8.372   9.745   0.619 -0.1960 -0.1276  0.1960
 4149W        W 8213   1.729   2.198   9.363 -0.0283 -0.0117 -0.1377
 4150W        W 8214   9.192   8.427   1.409  0.0162  0.0606  0.2498
 4151W        W 8215   6.331   9.129   8.845 -0.3287  0.0817  0.0125
 4152W        W 8216   9.222   0.717  10.295  0.1671  0.1733 -0.0193
 4153W        W 8217   2.042   6.781   9.998 -0.0629 -0.1935 -0.1040
 4154W        W 8218   7.626   4.433   8.866 -0.1955 -0.2530  0.2280
 4155W        W 8219   4.588  10.435   8.860 -0.1630  0.1304 -0.0147
 4156W        W 8220   0.106   1.989   3.309  0.1402 -0.0041  0.3303
 4157W        W 8221   1.520   7.308   0.724  0.3496  0.1515 -0.3782
 4158W        W 8222   9.107   3.055   2.634  0.3636 -0.0783  0.0563
 4159W        W 8223   6.663   1.405  11.300 -0.2654  0.4714 -0.0423
 4160W        W 8224   3.176   6.669  11.243 -0.2687  0.0152  0.3293
 4161W        W 8225   9.559   2.909   3.048 -0.1156 -0.3493  0.0159
 4162W        W 8226   9.244   9.507   9.798  0.1124 -0.1246  0.2177
 4163W        W 8227   2.279   1.853   2.518  0.3425 -0.3245 -0.0917
 4164W        W 8228   0.601  10.142   8.416  0.0682  0.1795  0.1423
 4165W        W 8229   8.545  10.175   2.114  0.0167 -0.0611  0.1217
 4166W        W 8230   3.133  10.540  10.805  0.2398  0.1350 -0.2111
 4167W        W 8231   8.725   1.198   9.255 -0.4396  0.2018  0.1137
 4168W        W 8232   2.689  10.325  10.550  0.1837  0.2371  0.0956
 4169W        W 8233   9.740   2.319  10.948  0.2325 -0.2471 -0.1529
 4170W        W 8234   9.819  10.219  11.046 -0.3466  0.2502  0.2829
 4171W        W 8235   6.171   8.726  11.041  0.1997 -0.0024 -0.2142
 4172W        W 8236   9.204   0.663   9.261  0.1514  0.1602 -0.2423
 4173W        W 8237   9.201   2.353   1.361 -0.0533 -0.0787 -0.1137
 4174W        W 8238   7.805   3.843   8.276 -0.0361  0.1063  0.0534
 4175W        W 8239   2.820   7.752   9.106 -0.2947  0.2222 -0.4860
 4176W        W 8240   9.731   3.545   8.466 -0.0509 -0.1345  0.0156
 4177W        W 8241   7.977   8.487   0.257  0.2124  0.0382  0.0964
 4178W        W 8242   6.337   5.928  10.322  0.2318  0.2596 -0.0684
 4179W        W 8243   4.460   3.178   1.501 -0.1088  0.1686 -0.0745
 4180W        W 8244   5.682   4.183   7.880 -0.1498 -0.0294  0.1099
 4181W        W 8245   3.441   7.017   0.272 -0.2544  0.1620 -0.1426
 4182W        W 8246   3.174   9.325   8.903  0.3287 -0.2469  0.0422
 4183W        W 8247   9.091  10.258   2.111  0.1022 -0.0231 -0.1748
 4184W        W 8248   0.967   1.015   2.814  0.2568 -0.0182  0.1124
 4185W        W 8249   0.197   5.513   3.164 -0.1857 -0.0020  0.2981
 4186W        W 8250   8.274   4.029   1.472  0.3944 -0.2531 -0.0153
 4187W        W 8251   1.329   6.489   2.804  0.3984  0.0358 -0.0438
 4188W        W 8252  10.297   3.001   9.184 -0.2968 -0.1138  0.1101
 4189W        W 8253   6.410   0.833   6.495 -0.3866 -0.1462 -0.1256
 4190W        W 8254   5.905   6.644  10.271 -0.2127 -0.2270 -0.1361
 4191W        W 8255  10.349   9.476  10.025 -0.0090 -0.2254  0.0856
 4192W        W 8256   7.750   6.777   9.816  0.0053 -0.0564 -0.3302
 4193W        W 8257   6.413   5.956   9.242 -0.1012  0.0239  0.3939
 4194W        W 8258   4.757   0.932   9.345  0.1972 -0.0064  0.0590
 4195W        W 8259   9.496   9.514   2.713  0.3136  0.4887 -0.0777
 4196W        W 8260   7.430   1.091   7.006 -0.2905 -0.1384 -0.2518
 4197W        W 8261   7.277   0.068  10.877  0.0551  0.2108  0.3818
 4198W        W 8262   7.793   2.190  11.297  0.1379  0.3154 -0.3549
 4199W        W 8263   8.739   4.679   3.026 -0.2509  0.0499  0.1076
 4200W        W 8264   1.426   9.791   0.386 -0.0199 -0.0935  0.0419
 4201W        W 8265   9.715   6.319   7.559 -0.1363 -0.3224  0.0376
 4202W        W 8266   2.323   4.966   0.977  0.1010 -0.1217  0.1825
 4203W        W 8267   3.281   8.271  10.669  0.0176 -0.0238 -0.0813
 4204W        W 8268   4.644   9.758   8.788  0.0746  0.2073  0.0485
 4205W        W 8269   8.623   4.780  11.114  0.2255  0.1951 -0.2864
 4206W        W 8270   4.721   4.047   0.608 -0.1510 -0.2702  0.3485
 4207W        W 8271   7.222   7.447   9.235  0.1012 -0.0494  0.1162
 4208W        W 8272   0.288   1.634   9.348 -0.1461 -0.1784  0.0708
 4209W        W 8273  10.075   2.339   7.955 -0.0158 -0.1513 -0.1328
 4210W        W 8274   9.444   0.533   2.831 -0.1765  0.0835 -0.0123
 4211W        W 8275   4.054   9.648   0.392 -0.0302 -0.1914  0.1714
 4212W        W 8276   5.705   7.513  10.394 -0.1732  0.2460  0.0969
 4213W        W 8277   7.165  10.340   1.330 -0.0308  0.3486 -0.0260
 4214W        W 8278   6.708   8.610  10.919 -0.0059 -0.0568  0.0472
 4215W        W 8279   7.976   0.692   1.377 -0.0825  0.1145  0.0803
 4216W        W 8280   3.890   3.218   8.392  0.1412  0.0780 -0.2450
 4217W        W 8281   6.955   9.377   7.279  0.1894  0.0186  0.1526
 4218W        W 8282   3.658   4.060   8.676 -0.0025  0.3061 -0.0835
 4219W        W 8283   9.775   9.399   3.170  0.1965  0.3447  0.1000
 4220W        W 8284   3.594   5.179  10.375  0.0341 -0.2294 -0.2428
 4221W        W 8285   9.590   2.861   0.396  0.0888  0.0232  0.2398
 4222W        W 8286   1.335  10.289   0.379  0.1194 -0.0717  0.0552
 4223W        W 8287   0.681   6.758   3.346 -0.3368 -0.2037  0.0966
 4224W        W 8288   9.280   6.159   1.508 -0.0462 -0.0638 -0.3903
 4225W        W 8289   6.210   8.694  10.036  0.4004  0.0143 -0.3672
 4226W        W 8290   9.682   8.660   1.065 -0.2830  0.2382  0.1360
 4227W        W 8291   3.642   5.966   9.784 -0.1466  0.0125 -0.1166
 4228W        W 8292   5.482   1.609   9.423 -0.2872  0.1197 -0.2378
 4229W        W 8293   6.155  10.050   0.819 -0.0800  0.1807 -0.0828
 4230W        W 8294   8.059   3.941   2.305 -0.4122  0.0021 -0.1591
 4231W        W 8295   4.934   0.510   7.081  0.2060 -0.2027 -0.2238
 4232W        W 8296   9.624   0.778  10.585  0.2466 -0.0313 -0.3870
 4233W        W 8297  10.176   9.797   9.112  0.2196  0.2795  0.3480
 4234W        W 8298   5.395   5.161  11.023  0.1610 -0.0149  0.0520
 4235W        W 8299   3.231   1.307  11.133 -0.1739  0.4865  0.0572
 4236W        W 8300  10.507   5.875   7.968  0.2551  0.0633  0.0756
 4237W        W 8301   3.299   7.837   7.272 -0.0129  0.0110 -0.0871
 4238W        W 8302   7.133   0.328  10.426 -0.2339 -0.0935  0.2339
 4239W        W 8303   0.200  10.246   2.868 -0.0745  0.3188 -0.1100
 4240W        W 8304   2.422   6.983  10.716 -0.3476  0.0757  0.1324
 4241W        W 8305   4.351   7.849   6.952 -0.0815  0.0337 -0.2103
 4242W        W 8306   8.402   1.259   8.933  0.1479 -0.1472 -0.3176
 4243W        W 8307   3.436   2.415   0.894 -0.2234 -0.0661 -0.0366
 4244W        W 8308   9.483   9.850   3.157  0.2367  0.0642  0.0989
 4245W        W 8309   8.475   8.157  10.819  0.0479 -0.1631 -0.0295
 4246W        W 8310   8.348   8.488  11.250 -0.0541 -0.0154  0.0676
 4247W        W 8311   5.804   3.407   7.691 -0.0898 -0.0645 -0.1046
 4248W        W 8312   3.995   4.191   0.586 -0.1838  0.1564  0.1290
 4249W        W 8313   5.915   1.541   2.765 -0.0408 -0.2438 -0.2079
 4250W        W 8314   9.390   1.397   2.011  0.3631 -0.0049  0.2192
 4251W        W 8315   3.116   4.033   7.809  0.1000 -0.1327  0.0588
 4252W        W 8316   8.740   0.241   3.351 -0.1847 -0.3601 -0.0636
 4253W        W 8317   8.728  10.166   8.537  0.0445 -0.1674  0.1699
 4254W        W 8318   3.714   7.042   1.117  0.2739  0.0396  0.2902
 4255W        W 8319   5.280   0.163   1.797 -0.0609  0.3191  0.2334
 4256W        W 8320   4.864   6.956   3.324 -0.0154  0.2238  0.2103
 4257W        W 8321  10.482   8.997   2.136  0.0666  0.0817  0.1802
 4258W        W 8322   3.521   8.814   1.453 -0.1396  0.0618  0.0176
 4259W        W 8323   1.760   2.449   9.787  0.1399 -0.1308 -0.0936
 4260W        W 8324   6.239   5.250   0.267 -0.1695  0.2698 -0.2514
 4261W        W 8325   8.330   8.681   2.693  0.0802 -0.0374 -0.1823
 4262W        W 8326   6.064   4.100   1.967  0.2798 -0.1866  0.4070
 4263W        W 8327   4.769   4.043   7.764  0.2011 -0.2017  0.0438
 4264W        W 8328   8.333   0.570   9.584  0.0631 -0.0805 -0.2187
 4265W        W 8329   4.708   0.662  10.395 -0.0653 -0.2964  0.2965
 4266W        W 8330   8.878   6.233   1.781  0.2360  0.4021  0.4273
 4267W        W 8331   7.697   8.963   1.108  0.3465 -0.1866 -0.1389
 4268W        W 8332   0.828   1.829   0.168  0.0189 -0.0353  0.1442
 4269W        W 8333   4.274   2.336   9.364  0.2848  0.0148 -0.0271
 4270W        W 8334   8.989   0.375  11.121  0.2268 -0.0028 -0.0238
 4271W        W 8335   9.059   6.044   2.552 -0.0235 -0.0607  0.0856
 4272W        W 8336  10.477   1.226   2.190 -0.0712 -0.0005 -0.1188
 4273W        W 8337   9.373   1.925   9.636  0.0482  0.2419  0.0110
 4274W        W 8338   3.877   2.188   2.123 -0.1586  0.1200 -0.2366
 4275W        W 8339   5.142   0.644   2.377 -0.2239 -0.2008  0.1602
 4276W        W 8340   4.240   6.866   8.913 -0.0560 -0.0134 -0.0250
 4277W        W 8341   3.404   2.955  10.230  0.2877 -0.1336 -0.1488
 4278W        W 8342   9.770   9.928   2.790  0.1590 -0.0826 -0.0706
 4279W        W 8343   1.674   6.987   0.261 -0.0241  0.2164  0.1255
 4280W        W 8344   5.471   4.556   2.588  0.2421  0.1083 -0.0351
 4281W        W 8345   1.548   1.618  11.011 -0.0184 -0.2598  0.1768
 4282W        W 8346   6.327   3.706   9.342 -0.0492 -0.1800  0.0503
 4283W        W 8347   0.756   1.710   0.671 -0.0570  0.1852  0.0772
 4284W        W 8348   4.621   6.430   2.139 -0.4260 -0.1643  0.3587
 4285W        W 8349   1.127   4.862   8.585  0.0834  0.3702  0.1543
 4286W        W 8350  10.368   5.503   7.141 -0.0027  0.0456  0.3477
 4287W        W 8351   4.235   8.878   2.770 -0.0236  0.0123  0.1590
 4288W        W 8352   6.324   1.293   1.777  0.1518 -0.2316 -0.0526
 4289W        W 8353   0.968   2.748   7.749  0.1043 -0.0192 -0.1756
 4290W        W 8354   8.128   4.755   8.861  0.2091  0.0855 -0.2595
 4291W        W 8355   0.192   5.263   8.238 -0.1556  0.0046 -0.0957
 4292W        W 8356   9.064   9.985   1.033 -0.0120 -0.0329  0.1972
 4293W        W 8357   9.980   1.999   8.316  0.2937 -0.0884 -0.0658
 4294W        W 8358   8.531   7.670  10.837  0.3634  0.1262 -0.0542
 4295W        W 8359   7.913   1.425   0.932 -0.0148  0.0645  0.0852
 4296W        W 8360   5.774   0.624   9.505  0.0929 -0.2092  0.1916
 4297W        W 8361   9.263   8.075   9.304 -0.0010  0.0337  0.2439
 4298W        W 8362   0.091   3.547   2.722  0.1773  0.0454 -0.0502
 4299W        W 8363   7.026   6.100   9.936  0.0943 -0.1238 -0.1881
 4300W        W 8364  10.425   5.710   1.960 -0.2255 -0.0820 -0.0794
 4301W        W 8365   8.219   8.772   1.263  0.0317  0.0768  0.1083
 4302W        W 8366   4.760   4.581   7.278 -0.1442 -0.1876 -0.2556
 4303W        W 8367  10.284   4.480   8.112 -0.3957  0.0491  0.0370
 4304W        W 8368   2.472   5.971   9.101 -0.0895 -0.1128 -0.1246
 4305W        W 8369   8.201   8.327   9.138  0.1171  0.2727  0.4368
 4306W        W 8370   6.708   1.731  10.815 -0.1191  0.2993 -0.5545
 4307W        W 8371   9.580   7.056   2.552  0.1264 -0.2245 -0.1889
 4308W        W 8372   0.688   7.585  10.614 -0.1030 -0.0811 -0.0694
 4309W        W 8373  10.042   9.908   0.647  0.1514 -0.1802  0.2654
 4310W        W 8374   1.541   7.219  10.993 -0.2876  0.1497 -0.1679
 4311W        W 8375   7.267   1.975   0.256 -0.1098  0.5171  0.2218
 4312W        W 8376   7.761   7.372  10.534  0.1719  0.1705 -0.1289
 4313W        W 8377   0.292   3.524   9.492 -0.1292  0.0971 -0.0258
 4314W        W 8378   5.592   7.950   3.456 -0.1745 -0.0940 -0.0674
 4315W        W 8379   2.598   1.129  10.421 -0.0146  0.0330 -0.1389
 4316W        W 8380   0.922   2.348   7.480 -0.0453 -0.1002 -0.0615
 4317W        W 8381   7.753   4.721   8.494  0.1183 -0.2099 -0.1448
 4318W        W 8382   2.012  10.512   8.218 -0.0212  0.2894 -0.2068
 4319W        W 8383   0.700   3.936   8.837 -0.1770  0.1040  0.4880
 4320W        W 8384   6.274   9.953  11.266  0.1299  0.0664 -0.0336
 4321W        W 8385  10.743   4.425  10.638 -0.0772 -0.0490 -0.2600
 4322W        W 8386   1.410   8.310   0.338  0.1798  0.0618  0.1465
 4323W        W 8387  10.609   8.311   9.443 -0.0349  0.1236 -0.1915
 4324W        W 8388   4.562   5.799   1.997  0.2555 -0.0044  0.2037
 4325W        W 8389   5.492   3.026   7.088  0.3145  0.2077  0.0251
 4326W        W 8390   9.413   2.847   9.345  0.0988  0.0946 -0.0850
 4327W        W 8391   0.377   6.466   7.599 -0.2386 -0.0657 -0.1572
 4328W        W 8392   0.478  10.622   3.123  0.2471 -0.1921 -0.2119
 4329W        W 8393   3.330   5.052   1.961  0.1823 -0.0313  0.0183
 4330W        W 8394   2.539   8.578   1.070 -0.1220 -0.2741 -0.1963
 4331W        W 8395   3.989   8.981   1.460  0.0066 -0.0692 -0.1684
 4332W        W 8396   1.477  10.188   8.728 -0.4058 -0.3165 -0.0416
 4333W        W 8397   8.552   3.514   7.588  0.0724 -0.1853  0.2116
 4334W        W 8398   0.584   9.318   8.713  0.1584 -0.1674  0.0113
 4335W        W 8399   5.667   0.004   2.928  0.0742  0.1423 -0.0413
 4336W        W 8400   4.017   3.994   7.868 -0.5305  0.0027 -0.0823
 4337W        W 8401   9.881   1.459   1.775  0.0759  0.2154  0.2223
 4338W        W 8402   3.351  10.170   3.190  0.0162 -0.0133 -0.0186
 4339W        W 8403   7.309   7.882   3.077 -0.0693  0.0339  0.2657
 4340W        W 8404   5.656   8.822  10.366  0.2468 -0.0358 -0.2687
 4341W        W 8405   8.132   9.162   8.593  0.1725  0.1959  0.1997
 4342W        W 8406   9.287   5.984   9.877  0.0171 -0.2734 -0.1672
 4343W        W 8407   9.095   2.166  10.449  0.1340 -0.1863  0.2793
 4344W        W 8408   8.874   9.759   0.628 -0.0836 -0.2244 -0.1573
 4345W        W 8409   3.914   1.015   1.953 -0.1691 -0.2494 -0.0342
 4346W        W 8410   1.185   3.262  10.450 -0.3211 -0.2171  0.0950
 4347W        W 8411   2.234   5.537   8.140 -0.1915 -0.1394 -0.2446
 4348W        W 8412   5.504   6.571   1.548  0.2001  0.4471 -0.1247
 4349W        W 8413   7.729   7.306   9.911 -0.1569 -0.0980 -0.3472
 4350W        W 8414  10.166   4.144  10.086 -0.2974 -0.0823  0.1681
 4351W        W 8415   7.427   8.037   0.268 -0.0146  0.1104 -0.1603
 4352W        W 8416   2.607   2.386   1.159  0.0006  0.0712  0.5965
 4353W        W 8417   7.271   1.321   8.479 -0.0365 -0.3419  0.1104
 4354W        W 8418   9.537   5.971   0.634  0.0638  0.3137  0.1369
 4355W        W 8419   5.990   9.197   1.513 -0.0055  0.1374 -0.2252
 4356W        W 8420   4.378   4.293   7.481 -0.2227 -0.2202 -0.0014
 4357W        W 8421   9.026   1.848   2.886 -0.1328 -0.2625  0.2241
 4358W        W 8422   9.338   2.329   8.991  0.1147 -0.0048 -0.1058
 4359W        W 8423   5.475   7.448  11.057  0.0947  0.1049 -0.3008
 4360W        W 8424   0.407   9.523  10.033 -0.0941  0.0666 -0.0347
 4361W        W 8425   8.496   4.401  10.070 -0.1605  0.2359  0.0608
 4362W        W 8426   2.463   1.509   3.307 -0.2537  0.1523  0.4149
 4363W        W 8427   0.540   4.357   9.056 -0.0246  0.0978 -0.1058
 4364W        W 8428   9.802   7.941   1.974  0.0936  0.0775  0.0705
 4365W        W 8429   5.856   4.003  10.843  0.0665  0.1477 -0.1643
 4366W        W 8430   1.861   0.164   9.585  0.0448  0.2108 -0.0493
 4367W        W 8431   9.274   2.395   7.810  0.0454 -0.0989  0.2131
 4368W        W 8432   0.762   7.159   2.625  0.2494  0.2747  0.2665
 4369W        W 8433   7.857  10.550   1.099 -0.3104  0.1526 -0.0624
 4370W        W 8434   5.937   0.215   7.862  0.0184 -0.1401  0.1676
 4371W        W 8435   1.049   8.339  10.006  0.0513 -0.2681 -0.2377
 4372W        W 8436   3.175   1.261   2.433  0.1962 -0.4316 -0.0471
 4373W        W 8437   7.500   3.978   8.676  0.3471 -0.0037 -0.1269
 4374W        W 8438   2.106   3.348   8.064  0.0522 -0.0071  0.1119
 4375W        W 8439   7.062   6.433   9.490  0.1066  0.0107 -0.2049
 4376W        W 8440   4.947   4.555   0.003  0.1600  0.1640  0.3683
 4377W        W 8441   9.405  10.531   2.464  0.1166  0.0872  0.0458
 4378W        W 8442   6.485   8.097   1.815 -0.0115  0.0528 -0.0173
 4379W        W 8443   4.860   4.769   3.329 -0.4333 -0.0711 -0.1316
 4380W        W 8444   8.133   6.177   9.677 -0.1798  0.0792 -0.2631
 4381W        W 8445   0.822   0.590   9.014  0.2073  0.2400  0.4358
 4382W        W 8446   1.685   9.756   0.859  0.0040 -0.3285 -0.1082
 4383W        W 8447   8.891   4.552   9.743  0.0691 -0.0729  0.1120
 4384W        W 8448  10.226   5.743  11.123  0.0550 -0.0712 -0.1035
 4385W        W 8449   7.514   9.075  11.192 -0.3910  0.1466  0.2143
 4386W        W 8450   1.334   0.059  10.258 -0.0876  0.3354 -0.2671
 4387W        W 8451   6.349   0.677  10.141 -0.0300  0.2600 -0.0101
 4388W        W 8452   8.189   9.947   0.149 -0.0285 -0.2348  0.1311
 4389W        W 8453   1.932   4.192   7.416  0.4887  0.2036  0.2228
 4390W        W 8454   8.158   2.257  10.939  0.0989 -0.3412 -0.1627
 4391W        W 8455   5.132   7.986   7.926 -0.1276 -0.1163  0.0670
 4392W        W 8456   9.301   0.030   3.803  0.0527  0.0775  0.3160
 4393W        W 8457   1.592   7.009   8.212  0.0885  0.0145 -0.0016
 4394W        W 8458   3.787   7.703   3.454  0.0475 -0.1692 -0.0871
 4395W        W 8459   2.297   3.535   7.663  0.0736 -0.1440  0.0478
 4396W        W 8460   7.882   8.786   0.681  0.0374 -0.1475 -0.0894
 4397W        W 8461   0.215   7.859  11.359  0.0661 -0.1916  0.1545
 4398W        W 8462   2.882  10.166   3.007  0.0648  0.1481  0.2574
 4399W        W 8463   7.776   5.468   2.313  0.0299 -0.1583 -0.0002
 4400W        W 8464   1.608  10.082   2.992  0.1762  0.0255  0.0070
 4401W        W 8465   5.770   7.515   9.402  0.0703  0.0646 -0.1505
 4402W        W 8466   0.480   7.636   8.974 -0.0184 -0.0763  0.1632
 4403W        W 8467   1.204   3.941   0.445 -0.0214 -0.0133 -0.0532
 4404W        W 8468   9.905   9.171   3.621  0.0590  0.1362 -0.2467
 4405W        W 8469   4.715   9.930   9.671  0.0727  0.0746  0.2294
 4406W        W 8470   1.565   1.587   0.676 -0.1356 -0.0084 -0.2044
 4407W        W 8471   5.449  10.183  10.849  0.0782  0.0976 -0.0758
 4408W        W 8472   5.820  10.588   9.859  0.0850 -0.0889 -0.2197
 4409W        W 8473   9.588   4.459   7.504  0.3876  0.2071  0.0040
 4410W        W 8474   4.337   0.400   2.381  0.0020 -0.1121 -0.0700
 4411W        W 8475   3.898   8.177  10.536 -0.1671 -0.1486 -0.0300
 4412W        W 8476   2.341   5.015  11.351 -0.0354  0.1429 -0.0191
 4413W        W 8477   1.897   3.456   0.702 -0.1924 -0.0187 -0.0352
 4414W        W 8478   1.474   7.763   3.264 -0.0411 -0.1094  0.0159
 4415W        W 8479   3.055   3.583   7.163  0.0809 -0.2036  0.1599
 4416W        W 8480   1.484   5.204   8.661  0.1044 -0.1010 -0.2151
 4417W        W 8481   0.943   5.249   7.403  0.2132 -0.0830 -0.1387
 4418W        W 8482   9.061   4.726   0.505  0.0006  0.0539  0.2441
 4419W        W 8483   2.564   4.459   1.293  0.0657 -0.1763  0.1388
 4420W        W 8484   2.930   8.961   1.980 -0.0959 -0.1910 -0.2420
 4421W        W 8485   6.933   3.137   7.514  0.0441  0.0430  0.2227
 4422W        W 8486   6.637   7.763   8.410  0.2065  0.1212 -0.1058
 4423W        W 8487   7.978   9.692   2.425 -0.0745 -0.0783 -0.2935
 4424W        W 8488   9.255   1.678  10.525 -0.1775  0.3335 -0.0436
 4425W        W 8489   4.882   6.757  10.853  0.0893 -0.0951 -0.1061
 4426W        W 8490   5.421  10.151   6.734  0.1440 -0.3240  0.0089
 4427W        W 8491   9.670   3.520   1.731  0.2885 -0.0621  0.0502
 4428W        W 8492   3.431   5.187   7.324  0.1938 -0.1591  0.2227
 4429W        W 8493   3.411   3.804   9.017 -0.1335  0.1336 -0.2059
 4430W        W 8494   8.482   2.949   9.493  0.0190 -0.1254 -0.3458
 4431W        W 8495   0.797   0.265   0.718 -0.0640  0.0424 -0.1550
 4432W        W 8496   3.583  10.504   9.004  0.0051 -0.0300  0.0760
 4433W        W 8497   6.285   7.595  10.480 -0.3549  0.1476  0.0297
 4434W        W 8498   9.219   1.082   7.543  0.2864 -0.0927 -0.1036
 4435W        W 8499   1.093   4.279   8.517 -0.0693  0.1267 -0.0191
 4436W        W 8500   8.982   3.547  10.689  0.1825 -0.0402 -0.0736
 4437W        W 8501   3.580   6.043   1.401 -0.3202 -0.2474  0.2189
 4438W        W 8502   9.612   3.385   0.733 -0.1993 -0.1990  0.2135
 4439W        W 8503   9.204   5.444   8.633 -0.1439 -0.1887  0.4517
 4440W        W 8504   6.041   6.182   8.483 -0.0221 -0.0239 -0.0764
 4441W        W 8505   4.173   4.804   0.583  0.1716 -0.3541 -0.2065
 4442W        W 8506   2.029   4.666   2.682  0.3118 -0.1619  0.0625
 4443W        W 8507   6.583   3.762   7.887  0.0493  0.0611 -0.1774
 4444W        W 8508   8.001   3.073   1.344 -0.1992  0.1544 -0.3985
 4445W        W 8509   6.441   4.132  11.193  0.0633  0.0732 -0.4043
 4446W        W 8510   6.282   4.900   2.610  0.1482 -0.1940  0.1725
 4447W        W 8511   0.204   8.941   0.276  0.0493 -0.2387 -0.1071
 4448W        W 8512   3.865  10.755   0.790 -0.0736 -0.1487 -0.1479
 4449W        W 8513   3.683   3.286  10.506  0.0888 -0.2240 -0.0796
 4450W        W 8514   6.836  10.034   3.092  0.1851 -0.1947  0.2667
 4451W        W 8515  10.137   8.583   9.365 -0.1096 -0.2962 -0.0509
 4452W        W 8516   7.278   0.970   9.965 -0.0651 -0.3164 -0.0029
 4453W        W 8517   1.297   4.010   8.928 -0.1609 -0.2441  0.0852
 4454W        W 8518   7.181   9.418  10.536 -0.0445 -0.0569 -0.0171
 4455W        W 8519   1.723   9.204  10.671 -0.1223 -0.1193 -0.3725
 4456W        W 8520   1.362   2.055  10.913  0.2100  0.1616  0.1883
 4457W        W 8521   4.569   4.873   2.311  0.0518  0.2546 -0.0875
 4458W        W 8522   7.984   6.738   0.030 -0.0522  0.3234 -0.1122
 4459W        W 8523   0.062   7.931   2.199  0.0115  0.2126 -0.2482
 4460W        W 8524   6.330   1.250   8.996  0.0963 -0.1517 -0.1997
 4461W        W 8525   9.220   5.224  10.176  0.0185 -0.1715 -0.2734
 4462W        W 8526   2.199   2.007  10.046  0.1024 -0.3212  0.1110
 4463W        W 8527   0.843   4.722   7.617 -0.1604 -0.0904 -0.0353
 4464W        W 8528   2.317   1.242  10.054  0.2240 -0.3690  0.2028
 4465W        W 8529   4.285   5.766   2.454 -0.0368  0.3405  0.0049
 4466W        W 8530   3.376   0.657   3.210  0.3108  0.2007  0.0373
 4467W        W 8531   5.881   6.169   8.972 -0.1034 -0.1044  0.0903
 4468W        W 8532   6.773  10.554   2.671 -0.3649 -0.2151  0.1212
 4469W        W 8533   4.768   4.838   0.699  0.1008 -0.2522  0.0925
 4470W        W 8534   0.288   3.689  11.169 -0.1610  0.2078 -0.1190
 4471W        W 8535   6.372   1.308  10.906  0.0829  0.1565  0.3002
 4472W        W 8536  10.281   1.660   2.358 -0.0225 -0.5125  0.1476
 4473W        W 8537   4.134   5.884   0.612 -0.1486  0.0381  0.2860
 4474W        W 8538   4.060   9.050   8.842  0.4365 -0.2013  0.1810
 4475W        W 8539   8.584   3.893   1.097  0.1068  0.0491 -0.2536
 4476W        W 8540   8.866   4.491   2.017 -0.1402 -0.3148  0.2540
 4477W        W 8541   5.602   3.080  11.205 -0.1300 -0.0298 -0.0138
 4478W        W 8542   6.089   3.709   3.386  0.1536 -0.3287  0.1152
 4479W        W 8543   2.782   5.832  10.526 -0.1797  0.0995  0.1311
 4480W        W 8544   6.738   8.437   8.991 -0.1127 -0.1696  0.2196
 4481W        W 8545   7.864   6.887  10.876  0.0485  0.0762  0.2540
 4482W        W 8546   1.502   9.634  10.157  0.2336  0.1519 -0.2045
 4483W        W 8547   2.566   2.494   7.925  0.0779 -0.0938  0.1455
 4484W        W 8548   1.094   9.773   9.921  0.0585 -0.1341 -0.0450
 4485W        W 8549   6.549   5.429   1.882 -0.1241  0.1553  0.2078
 4486W        W 8550   7.107   0.915   9.007  0.0368 -0.0507 -0.0124
 4487W        W 8551   7.929   0.136  10.009  0.1287 -0.0640  0.4485
 4488W        W 8552   7.884   9.949  10.192  0.4168  0.0879 -0.0050
 4489W        W 8553   5.321   8.222   0.817 -0.1871 -0.1403  0.0696
 4490W        W 8554   8.826   7.621   3.136 -0.1491 -0.2748  0.1836
 4491W        W 8555   0.550   9.427   1.832  0.1641  0.0552  0.1087
 4492W        W 8556   3.045   5.173   7.695  0.0862  0.0679  0.3660
 4493W        W 8557   9.354   6.931   2.957 -0.0357  0.2609  0.3497
 4494W        W 8558   1.731   5.432   2.534 -0.1279  0.5364 -0.0822
 4495W        W 8559   2.397   6.001   8.079  0.0462 -0.0415  0.1735
 4496W        W 8560   6.614   4.431   0.276  0.0843  0.0239  0.1706
 4497W        W 8561   2.673   6.932   7.089  0.3225  0.1648 -0.3285
 4498W        W 8562   5.326   5.767   8.137  0.3207 -0.0636  0.3208
 4499W        W 8563   3.222   8.870   7.069 -0.0518  0.1419 -0.0188
 4500W        W 8564   5.692   1.946   8.037 -0.0031  0.0278 -0.2798
 4501W        W 8565   2.728   4.443   9.003 -0.0781  0.1538 -0.0076
 4502W        W 8566   3.861   1.632   7.009  0.2388 -0.0484 -0.1024
 4503W        W 8567   9.255   7.425   2.528  0.2944 -0.0632  0.0257
 4504W        W 8568   4.367   1.961   8.129  0.0653 -0.0758  0.2063
 4505W        W 8569   8.612   0.879   1.994  0.0067 -0.1196 -0.2303
 4506W        W 8570   7.048   7.308  10.947  0.0940 -0.0302 -0.2416
 4507W        W 8571   1.157   8.766   0.471  0.0047 -0.0928 -0.0538
 4508W        W 8572   1.596   5.178   7.350 -0.0669  0.0097 -0.1478
 4509W        W 8573   2.756   3.175   8.138 -0.1020 -0.2155  0.1633
 4510W        W 8574   4.858   2.644  10.593 -0.0153  0.2856 -0.1217
 4511W        W 8575   3.630   4.394   0.226  0.0707  0.5089  0.3588
 4512W        W 8576   3.869   2.404   1.162  0.0021 -0.2753  0.0906
 4513W        W 8577   1.984   1.849  10.801 -0.4816  0.3742 -0.1071
 4514W        W 8578   1.790   5.717   0.202  0.2807 -0.2454  0.3672
 4515W        W 8579   4.000   7.555   7.824  0.2081 -0.1978 -0.0340
 4516W        W 8580   2.323   7.729   2.424  0.0732  0.0986  0.0277
 4517W        W 8581   6.818   2.246   2.202  0.1134  0.2621  0.2188
 4518W        W 8582  10.307   7.990   9.726  0.1932 -0.0411 -0.3390
 4519W        W 8583   0.448   1.164   9.245  0.0408 -0.3337  0.1662
 4520W        W 8584   0.737   1.675   9.527 -0.2320  0.2790 -0.3583
 4521W        W 8585   9.911   7.797  10.036  0.0292  0.2772 -0.1501
 4522W        W 8586   9.458   2.996   7.506 -0.2439 -0.0762 -0.2163
 4523W        W 8587   4.193   7.982   1.538  0.0033 -0.3359 -0.1085
 4524W        W 8588   7.889   1.538   9.782 -0.0222  0.2226 -0.0380
 4525W        W 8589   6.124   0.834  10.810  0.1840  0.2574  0.0873
 4526W        W 8590   8.484   2.228   3.413 -0.1736  0.0571 -0.1037
 4527W        W 8591   9.451  10.251   0.178  0.1329 -0.0235 -0.0775
 4528W        W 8592   2.912   8.301   2.790 -0.0940 -0.0819  0.0802
 4529W        W 8593   5.902   3.444   0.704 -0.0061 -0.3158  0.0150
 4530W        W 8594   3.744   9.887   9.962  0.3068 -0.1687 -0.2111
 4531W        W 8595   2.836   0.424   0.142 -0.0660 -0.1171 -0.3713
 4532W        W 8596   2.983  10.078   3.521 -0.1380  0.0900 -0.1892
 4533W        W 8597   8.665  10.258   0.809 -0.3009 -0.2010 -0.1666
 4534W        W 8598   9.350   2.775   2.283  0.2523  0.0017  0.4511
 4535W        W 8599   5.900   0.844   9.928 -0.0953  0.0898 -0.0942
 4536W        W 8600   0.868   8.055   7.606  0.0721  0.0430 -0.1317
 4537W        W 8601   4.251   5.703   0.068  0.1013 -0.2110  0.0008
 4538W        W 8602   2.974   3.105   1.483 -0.1546 -0.1369 -0.3027
 4539W        W 8603   6.128   2.737   2.044  0.0487  0.0959  0.0380
 4540W        W 8604   1.699   9.601   2.897  0.0105  0.1243 -0.1385
 4541W        W 8605   3.932   9.524  10.295  0.1811  0.2316 -0.1272
 4542W        W 8606   5.474   9.306   0.724  0.0813  0.0386  0.2767
 4543W        W 8607   2.923   6.551   8.409  0.0564  0.3710  0.1742
 4544W        W 8608   1.845  10.262  10.821 -0.0001  0.2360  0.2370
 4545W        W 8609   2.931   0.534   9.146 -0.0429 -0.1108  0.2953
 4546W        W 8610   8.805   3.817   1.589  0.1942  0.1192  0.0290
 4547W        W 8611   9.536   5.185   2.824 -0.0088  0.0530 -0.2638
 4548W        W 8612   8.257   0.065  10.523  0.1899  0.0102  0.4153
 4549W        W 8613   2.251   4.542   7.641 -0.1197  0.2584  0.0435
 4550W        W 8614   5.714   3.883   9.003  0.1498  0.0533 -0.0129
 4551W        W 8615  10.046  10.482   2.243  0.0791 -0.2748 -0.0728
 4552W        W 8616   6.961   1.908   3.322 -0.1491  0.1568 -0.0581
 4553W        W 8617   6.641  10.324   9.723  0.3562 -0.3288 -0.1267
 4554W        W 8618   1.383   6.794   9.863  0.0769 -0.1850 -0.3024
 4555W        W 8619   4.786   0.532   2.828 -0.0879 -0.1532  0.1858
 4556W        W 8620   9.862   0.350   8.288 -0.2024 -0.0495  0.3164
 4557W        W 8621   9.481   7.538   9.501  0.0133  0.1860  0.0510
 4558W        W 8622   1.363   5.545   7.764  0.1893 -0.0609  0.0527
 4559W        W 8623  10.592   8.740   3.017 -0.0741  0.1029  0.0713
 4560W        W 8624   7.027   0.425   0.898  0.1760  0.0581  0.0222
 4561W        W 8625  10.221   2.381   9.421  0.1648  0.2016  0.0106
 4562W        W 8626   8.741   0.060  10.385  0.0209 -0.2868 -0.0628
 4563W        W 8627   1.784   8.320  11.048  0.0529  0.3601 -0.1541
 4564W        W 8628   3.053   9.674   0.690  0.1846  0.2405 -0.0062
 4565W        W 8629   5.752   7.338   0.149  0.2496  0.1186 -0.3047
 4566W        W 8630   2.851   1.382   8.025  0.0230  0.1560  0.1006
 4567W        W 8631   8.954   4.698   8.245 -0.1837  0.3578 -0.0171
 4568W        W 8632   6.553   5.877   0.261 -0.0849 -0.2779 -0.0867
 4569W        W 8633   9.982   3.383  11.046  0.3265 -0.2186 -0.1070
 4570W        W 8634   0.709   0.453   2.079  0.2443  0.1493  0.0667
 4571W        W 8635   0.048   7.234   9.166 -0.0762 -0.1824 -0.0208
 4572W        W 8636   1.751   0.539   2.494 -0.2002 -0.1829  0.0819
 4573W        W 8637   0.972   2.315   9.441 -0.0592  0.2586  0.1384
 4574W        W 8638   7.396   5.171  10.646  0.2360 -0.1276 -0.1179
 4575W        W 8639   2.236   5.416   0.264 -0.0209  0.1338  0.2727
 4576W        W 8640   4.400   6.474  10.102 -0.0758  0.0509  0.1950
 4577W        W 8641   9.213   6.659   1.667 -0.0902 -0.0437  0.1137
 4578W        W 8642   8.149   3.175   0.810  0.2310  0.3351  0.3470
 4579W        W 8643   4.065   5.123   7.901 -0.1023 -0.3621  0.2380
 4580W        W 8644   9.043   2.015   9.230  0.0645 -0.0275 -0.2458
 4581W        W 8645   5.443   4.740   7.781 -0.0795  0.1927 -0.0102
 4582W        W 8646   7.776   1.410   1.905 -0.2322  0.5653  0.0803
 4583W        W 8647   3.345  10.082   2.671 -0.0329  0.2921  0.1362
 4584W        W 8648   4.447   4.504  10.590 -0.2852  0.0369  0.0390
 4585W        W 8649   3.971   9.497   9.794  0.3258  0.4218  0.2294
 4586W        W 8650   5.305   1.790   0.261  0.0425 -0.2106  0.1948
 4587W        W 8651   7.373   1.130  10.640 -0.0119  0.1627 -0.2389
 4588W        W 8652  10.407   3.919   7.958  0.0178 -0.2686 -0.1841
 4589W        W 8653   2.359   2.021   9.523 -0.0855  0.0506  0.0584
 4590W        W 8654   3.126   5.172  10.630 -0.0306  0.1524  0.4309
 4591W        W 8655   8.727  10.180  10.061 -0.5401 -0.0728  0.0165
 4592W        W 8656   9.907   9.096   0.292 -0.0949  0.1574 -0.0676
 4593W        W 8657   7.374   1.609   9.945 -0.2121 -0.0965 -0.0319
 4594W        W 8658   1.324   4.003   2.349 -0.0014 -0.0626 -0.2793
 4595W        W 8659   5.722   1.242   1.093  0.0037 -0.2442 -0.1915
 4596W        W 8660   7.872   7.079   1.596 -0.0438 -0.1524  0.1523
 4597W        W 8661   0.626   8.121   1.548 -0.0290  0.0211 -0.1227
 4598W        W 8662   0.176   9.680   3.036 -0.0090  0.1810  0.2527
 4599W        W 8663   9.772   4.581   2.118 -0.0030  0.0097 -0.1302
 4600W        W 8664   6.508   3.207   2.848  0.1365  0.0948  0.2020
 4601W        W 8665   3.655   4.617   8.584 -0.0882  0.1410  0.1752
 4602W        W 8666  10.513  10.313   2.002  0.1812 -0.1483  0.0051
 4603W        W 8667   5.319   2.027  11.144  0.3105 -0.1697  0.1213
 4604W        W 8668   1.347   6.108   1.907 -0.0730 -0.0428  0.1147
 4605W        W 8669   6.305  10.526   6.817  0.1310  0.3475  0.1946
 4606W        W 8670   2.512   5.618   0.648  0.0202 -0.0716 -0.0427
 4607W        W 8671   2.872   4.499   0.681 -0.0548  0.2535 -0.0211
 4608W        W 8672   0.950   9.491  10.334 -0.1799 -0.0240 -0.1285
 4609W        W 8673   8.700   0.147   1.467 -0.0993 -0.1657 -0.4254
 4610W        W 8674   7.152   1.475   3.539 -0.3041  0.0038  0.0381
 4611W        W 8675   1.903   7.214   1.951  0.0078  0.2053 -0.3262
 4612W        W 8676   2.730   7.615   2.014  0.1792 -0.0092  0.3566
 4613W        W 8677   8.913   5.194   9.060 -0.2846  0.1659 -0.0511
 4614W        W 8678   1.064   3.016  10.029  0.3809  0.2246 -0.2424
 4615W        W 8679   0.710   3.454   2.312 -0.1806 -0.1368 -0.0221
 4616W        W 8680   2.367   0.416   8.421  0.0526 -0.1474  0.1579
 4617W        W 8681   1.680   1.452   1.495 -0.2486 -0.2456  0.1140
 4618W        W 8682   5.616   9.121   1.146  0.0395  0.0103 -0.4089
 4619W        W 8683   4.257   7.136   1.506 -0.1087  0.4020  0.1534
 4620W        W 8684  10.436   9.068   3.399 -0.1875  0.0152 -0.0481
 4621W        W 8685   8.654   4.761   8.794 -0.0327 -0.3632  0.0158
 4622W        W 8686   4.898   3.745   0.147  0.3333 -0.1952 -0.0626
 4623W        W 8687   4.417   5.238   0.280  0.1125  0.4944  0.1224
 4624W        W 8688   1.416   4.441  10.273 -0.1395 -0.3271  0.1849
 4625W        W 8689   1.805  10.395   2.549  0.0610  0.1173 -0.2195
 4626W        W 8690   0.166   6.389   8.605 -0.0138  0.1668  0.0511
 4627W        W 8691   6.910   8.021   8.096 -0.1733 -0.2597  0.2106
 4628W        W 8692   4.505   4.472   0.796 -0.0535 -0.1261 -0.1037
 4629W        W 8693   6.913   7.166   9.876  0.2596  0.0908 -0.3021
 4630W        W 8694   6.709   3.194   0.080 -0.0226 -0.0785 -0.1574
 4631W        W 8695   3.155   8.706   0.271 -0.2091 -0.3143 -0.1764
 4632W        W 8696   9.113   2.692   1.828  0.0093  0.4327 -0.1539
 4633W        W 8697   0.756   8.254   0.737 -0.1915  0.2349 -0.0306
 4634W        W 8698   8.946   3.775   9.459 -0.0055 -0.0232 -0.4217
 4635W        W 8699   1.181   9.969  10.511 -0.0435 -0.3946  0.0142
 4636W        W 8700   3.154   6.641   2.062 -0.2106 -0.1523  0.1818
 4637W        W 8701   9.950  10.343   0.942  0.0546 -0.1354  0.1483
 4638W        W 8702   5.908   9.961   8.963 -0.2326 -0.0700 -0.2492
 4639W        W 8703   1.423   1.695   2.355  0.2257 -0.1311 -0.1510
 4640W        W 8704   7.409   1.620   7.578  0.4521  0.3992  0.0560
 4641W        W 8705   0.046   8.751  10.080 -0.2374  0.0869  0.3457
 4642W        W 8706   8.260   7.268  10.629  0.0942  0.2581  0.1438
 4643W        W 8707   7.394   9.976  11.187  0.0156  0.1009  0.0048
 4644W        W 8708   9.158   0.674   2.065 -0.3309  0.0123 -0.1551
 4645W        W 8709   4.390   1.536   1.498 -0.0107 -0.1090 -0.0742
 4646W        W 8710   0.675   3.139  10.496 -0.0511  0.3447 -0.2311
 4647W        W 8711   2.348   2.903   7.955  0.2021 -0.2567 -0.2948
 4648W        W 8712   3.185   3.196  10.653 -0.1949  0.0791 -0.1885
 4649W        W 8713   1.224  10.357   2.679  0.2210 -0.2468  0.0501
 4650W        W 8714   6.422   7.962   8.849 -0.2720  0.3159  0.1424
 4651W        W 8715   9.239   8.981   4.041  0.0862 -0.0654 -0.1486
 4652W        W 8716   6.032   4.618   3.425 -0.0733  0.2938  0.2223
 4653W        W 8717   8.390   2.289   2.378 -0.5925 -0.0281  0.0026
 4654W        W 8718   9.588   8.741   3.655 -0.0444  0.0078  0.1168
 4655W        W 8719  10.103   6.890   1.068 -0.1397  0.4032  0.1413
 4656W        W 8720   2.036   7.982   8.521 -0.2351  0.1090  0.3164
 4657W        W 8721   9.595  10.013   1.158  0.0573  0.0166 -0.0462
 4658W        W 8722   5.930   5.325   2.459 -0.1619  0.0995 -0.0343
 4659W        W 8723   3.697   3.246   9.238 -0.0123  0.0374  0.0607
 4660W        W 8724   5.531   6.177   3.468  0.2056 -0.0752  0.3720
 4661W        W 8725   1.013   1.316   9.103 -0.0320  0.0149 -0.0001
 4662W        W 8726   8.071   2.676   1.012 -0.0739  0.0891 -0.1640
 4663W        W 8727   1.802   8.916   1.350 -0.0848  0.1481 -0.1714
 4664W        W 8728   0.736   9.756  10.775 -0.4550  0.1736  0.1284
 4665W        W 8729   7.504   6.774  11.293 -0.2176 -0.0468  0.0009
 4666W        W 8730   9.729   7.464   2.335 -0.0344 -0.0066 -0.2579
 4667W        W 8731   4.043   7.609   0.151 -0.1494  0.2479  0.0458
 4668W        W 8732   6.448   8.384   9.517  0.0789 -0.1355 -0.1565
 4669W        W 8733   7.731   2.415   1.720 -0.1704 -0.0494  0.0308
 4670W        W 8734  10.326   7.160   9.338 -0.2392  0.1825  0.1024
 4671W        W 8735   6.701   8.051   7.114  0.2206 -0.0536 -0.0853
 4672W        W 8736   5.597   6.069  11.324 -0.3322 -0.1016 -0.0277
 4673W        W 8737   7.684   5.004  10.109  0.0235 -0.1001  0.2676
 4674W        W 8738   1.535   6.528   8.029 -0.1922  0.2627  0.0298
 4675W        W 8739   0.138   8.481   8.673  0.0891  0.1756  0.0487
 4676W        W 8740   1.460   9.280   9.000 -0.0946 -0.0715  0.0975
 4677W        W 8741  10.483   9.970   3.364 -0.0737  0.0777 -0.0288
 4678W        W 8742  10.088   4.476   7.567  0.0750 -0.0422  0.1025
 4679W        W 8743   8.827   0.887   1.171 -0.0910 -0.2920  0.1098
 4680W        W 8744   1.685  10.527  10.343  0.0617 -0.0852 -0.0854
 4681W        W 8745   2.431   6.813  11.253 -0.2971 -0.2901 -0.1911
 4682W        W 8746   5.798   7.722   3.052  0.0767  0.0938  0.1272
 4683W        W 8747   1.081   3.110   0.030 -0.0026 -0.0311 -0.2441
 4684W        W 8748   7.866   9.343   9.739 -0.0216  0.1002 -0.0344
 4685W        W 8749   0.031   0.677   0.602 -0.1699  0.1777 -0.0563
 4686W        W 8750   0.386   6.865   8.518  0.1482  0.0741 -0.0883
 4687W        W 8751   1.231   4.991  11.226  0.0290  0.1250 -0.2107
 4688W        W 8752  10.037   7.907   1.501 -0.1301  0.5689  0.2171
 4689W        W 8753  10.434   1.971   0.764  0.0183 -0.2025 -0.0565
 4690W        W 8754   4.382   9.620  10.451 -0.2539 -0.2177 -0.4604
 4691W        W 8755   3.365   1.127   8.034  0.0744  0.3442 -0.1614
 4692W        W 8756   1.069  10.290   3.805  0.0355 -0.0155  0.0054
 4693W        W 8757   7.399   2.821  10.412 -0.1957 -0.3201  0.0817
 4694W        W 8758   6.731   2.186   3.017 -0.0656  0.0616  0.1003
 4695W        W 8759   1.525   2.346  10.585  0.1908 -0.4296  0.0842
 4696W        W 8760   3.683   1.637   2.718  0.0480 -0.0956  0.3650
 4697W        W 8761   2.036   1.593  11.201  0.0562 -0.1040 -0.0626
 4698W        W 8762   5.669   0.403  11.364 -0.0599  0.4577  0.1617
 4699W        W 8763   0.116   6.516   2.218 -0.2433  0.1683 -0.2754
 4700W        W 8764   2.696   8.929   0.303 -0.1636 -0.0542  0.0523
 4701W        W 8765  10.032   6.727   0.247  0.2831 -0.1380 -0.1494
 4702W        W 8766   4.474   8.761   2.270  0.0886 -0.1922  0.2746
 4703W        W 8767   3.257   4.296  10.861 -0.0629  0.1253 -0.3799
 4704W        W 8768   0.061   3.710  10.513 -0.2407  0.2095 -0.0992
 4705W        W 8769   3.888   2.504  11.085 -0.2282 -0.1635  0.2625
 4706W        W 8770   8.070   7.635   9.723 -0.2616  0.3094  0.0636
 4707W        W 8771   1.570  10.635   9.857  0.0587  0.1596  0.1091
 4708W        W 8772   4.696   2.111  10.935 -0.1412 -0.1971 -0.1639
 4709W        W 8773   1.420   0.542   2.041 -0.2878  0.4532  0.2443
 4710W        W 8774   2.993   9.228   2.889  0.0046 -0.0714 -0.4755
 4711W        W 8775   1.817   6.953   0.891  0.3457  0.1887  0.0221
 4712W        W 8776   5.641   3.009   2.653 -0.0985 -0.0987 -0.0175
 4713W        W 8777   8.486  10.099   7.168  0.1646  0.2389  0.0768
 4714W        W 8778   2.408   8.578   7.343 -0.0286  0.0856 -0.0163
 4715W        W 8779  10.194   7.912  10.822  0.0178 -0.4238 -0.0234
 4716W        W 8780   4.993   6.117   1.881  0.4043  0.0071 -0.2367
 4717W        W 8781   6.234  10.143   8.580  0.0477  0.3581  0.0377
 4718W        W 8782   1.253   7.612   4.056  0.1953 -0.0372  0.1241
 4719W        W 8783   6.450   8.817  10.428  0.0802 -0.1414  0.1017
 4720W        W 8784   6.029   3.319  10.245  0.2211  0.2037  0.3605
 4721W        W 8785   0.458   3.170   3.220  0.0127  0.1124 -0.0244
 4722W        W 8786  10.106   1.510   1.373 -0.1097  0.0536  0.2141
 4723W        W 8787   3.809   9.236   2.412 -0.0296 -0.2350 -0.0033
 4724W        W 8788   1.676   3.157   1.459 -0.2289 -0.0457  0.0630
 4725W        W 8789   3.507   6.531  10.839 -0.0272 -0.0430  0.1132
 4726W        W 8790   3.167   4.576   0.305  0.1618  0.1237 -0.2920
 4727W        W 8791   5.009   7.339   2.305  0.0136 -0.1759 -0.2185
 4728W        W 8792   6.725   0.109   9.623 -0.1454  0.1381 -0.0263
 4729W        W 8793   9.927   3.378  10.553 -0.1096  0.3776  0.4324
 4730W        W 8794   9.941   0.462   0.737 -0.1125 -0.0185  0.0132
 4731W        W 8795   6.339   7.506   9.071  0.0538 -0.0703 -0.1174
 4732W        W 8796   2.553   5.907   0.203 -0.0806  0.3228 -0.3869
 4733W        W 8797   7.875   9.961  10.999 -0.0149 -0.4145  0.3674
 4734W        W 8798   6.455   8.494   0.408  0.1605 -0.0652  0.0360
 4735W        W 8799   9.671   4.867   8.301  0.0898  0.3023  0.2517
 4736W        W 8800   8.101   6.199   2.148  0.4094 -0.0154 -0.1654
 4737W        W 8801   4.037   0.840   2.398  0.1490 -0.2094  0.0012
 4738W        W 8802   3.519   8.835   8.178 -0.1043  0.1596  0.0454
 4739W        W 8803   0.248   0.871  10.531  0.1116 -0.0946 -0.1206
 4740W        W 8804   8.753   2.574   1.441  0.2088  0.0109  0.3123
 4741W        W 8805   2.361   7.490   1.257  0.1695  0.1208 -0.3415
 4742W        W 8806   0.939   6.499  10.308  0.3841 -0.1495 -0.0233
 4743W        W 8807   9.609   5.770   8.585  0.0198  0.0830 -0.0490
 4744W        W 8808   1.088   5.354   2.481  0.2220  0.1561 -0.1066
 4745W        W 8809   3.501   4.564  10.085 -0.2444 -0.0145  0.0197
 4746W        W 8810  10.192   1.989  11.006  0.5356 -0.5969  0.0619
 4747W        W 8811   7.347  10.659   1.676 -0.1809 -0.0470  0.4062
 4748W        W 8812  10.219   4.967   0.751  0.0180  0.1035  0.2062
 4749W        W 8813   4.904   0.911   2.022  0.2195 -0.2044 -0.3708
 4750W        W 8814   7.083   9.464  10.002 -0.1994 -0.2366  0.0285
 4751W        W 8815   1.131   9.758   0.757 -0.1727  0.0059 -0.1619
 4752W        W 8816   8.278   0.983   9.366 -0.2549 -0.1427 -0.3289
 4753W        W 8817   6.326   2.232   0.018 -0.1010  0.0442  0.2526
 4754W        W 8818   2.160   0.447   8.855 -0.0712 -0.0792  0.1229
 4755W        W 8819   9.720   6.590   1.294 -0.3108 -0.1222 -0.1250
 4756W        W 8820   6.861   4.839   6.566 -0.0924 -0.3039 -0.0714
 4757W        W 8821   9.774   6.397   2.335  0.2095  0.1891 -0.2091
 4758W        W 8822   4.184   7.100   7.941 -0.3259  0.1512  0.3210
 4759W        W 8823   7.539   1.254   9.014  0.2770  0.1112  0.0428
 4760W        W 8824   2.586   4.369  10.205 -0.0399 -0.0027  0.2350
 4761W        W 8825   6.415   8.662   1.058 -0.1712 -0.1227 -0.1811
 4762W        W 8826   2.749   2.535   8.865  0.0091  0.1598  0.1031
 4763W        W 8827   0.281   3.977   9.278 -0.1806  0.0887 -0.1586
 4764W        W 8828   7.348   9.204   0.321 -0.1107  0.1177  0.2160
 4765W        W 8829   3.632   9.320   0.669 -0.4044 -0.2489 -0.0942
 4766W        W 8830   5.681   4.463   1.905 -0.0901 -0.1282 -0.2060
 4767W        W 8831   2.819   8.734  11.212 -0.1066 -0.0442  0.2828
 4768W        W 8832   6.022   9.732  10.014  0.1503  0.0355  0.1736
 4769W        W 8833   1.639   2.443   1.629 -0.0289 -0.0348  0.0404
 4770W        W 8834   0.133   1.914  10.356  0.0213  0.2555  0.0388
 4771W        W 8835   7.791   2.983  10.048 -0.0453  0.0163  0.0256
 4772W        W 8836  10.501   8.190   8.842 -0.2489  0.2346  0.1749
 4773W        W 8837  10.151   5.715   8.683  0.0136  0.4324 -0.0336
 4774W        W 8838   6.962   6.841  10.774 -0.2654 -0.0807  0.0669
 4775W        W 8839   0.490   9.887   1.585  0.2035 -0.1558  0.1401
 4776W        W 8840   3.081   7.206  11.224 -0.0968  0.2771 -0.0679
 4777W        W 8841   7.945   3.678   1.563  0.1593  0.2837 -0.1725
 4778W        W 8842   9.333   4.712   3.235  0.1094  0.3013  0.2665
 4779W        W 8843   4.067   2.907   7.946  0.0704  0.2678  0.1405
 4780W        W 8844   6.162   5.687   2.661  0.1905  0.3261 -0.4566
 4781W        W 8845   5.787   5.388  10.897 -0.1325 -0.0739  0.2154
 4782W        W 8846  10.220   9.113   4.045  0.1921 -0.2354  0.0338
 4783W        W 8847   6.367   5.445  10.012 -0.3652 -0.1850  0.1808
 4784W        W 8848   0.608   0.374   3.250 -0.0438  0.1923  0.0487
 4785W        W 8849   8.542   0.252   0.524 -0.1312 -0.0402 -0.0921
 4786W        W 8850   9.752   4.403   8.030  0.0038  0.1544 -0.1430
 4787W        W 8851   2.442   3.585   2.489 -0.2350 -0.1302 -0.0361
 4788W        W 8852   0.195   5.408  10.503 -0.3715 -0.1244 -0.0143
 4789W        W 8853   7.610   6.310   9.765  0.0793 -0.1241 -0.0155
 4790W        W 8854   3.917   5.318  11.299  0.4041  0.0881  0.3063
 4791W        W 8855   4.439   1.062  10.203 -0.2689  0.2196 -0.1841
 4792W        W 8856   0.282   8.820   3.348  0.3096  0.2668  0.0953
 4793W        W 8857   5.203   6.270   0.893 -0.0838  0.1542  0.0554
 4794W        W 8858   7.780   6.339  11.108 -0.1471 -0.1622  0.3695
 4795W        W 8859   6.301   0.993   0.060  0.3313  0.1364 -0.0747
 4796W        W 8860   3.107   6.240   1.483 -0.1333  0.0543  0.3088
 4797W        W 8861   1.482  10.582  10.929 -0.1834 -0.1876  0.1181
 4798W        W 8862   4.070   7.374   2.550 -0.0580  0.1191 -0.0309
 4799W        W 8863   5.616   2.758   1.355 -0.5375  0.1328 -0.0399
 4800W        W 8864   2.777   1.610   2.402 -0.0942  0.1167 -0.1595
 4801W        W 8865   9.881   4.265  10.604 -0.3938 -0.0873  0.1506
 4802W        W 8866   9.466   3.549   7.710 -0.1580  0.0210  0.0335
 4803W        W 8867   4.205   9.720   7.925 -0.0224  0.1928  0.4159
 4804W        W 8868   3.686   8.696   7.209  0.1248  0.3785 -0.1283
 4805W        W 8869   0.770   5.959   9.712  0.1546  0.1558 -0.1006
 4806W        W 8870   9.434   6.242   2.813  0.0574 -0.0336  0.0747
 4807W        W 8871   4.602   6.771   1.386 -0.0401 -0.0941 -0.0880
 4808W        W 8872  10.146   4.001   2.681 -0.0267 -0.1133 -0.0360
 4809W        W 8873   1.091   6.326  11.086  0.0180 -0.3049  0.0502
 4810W        W 8874   3.375   3.483   9.562  0.3144 -0.0440 -0.0592
 4811W        W 8875   8.867   0.607   0.752  0.0458  0.2161 -0.0108
 4812W        W 8876  10.281   2.098   3.228 -0.2572  0.2092 -0.0770
 4813W        W 8877   2.076   9.099   9.271  0.1191 -0.0226 -0.1454
 4814W        W 8878   5.321   7.984  11.114  0.3006  0.3911  0.0835
 4815W        W 8879   0.129   1.672   0.756  0.0280  0.0537  0.1893
 4816W        W 8880   0.810   6.146   0.247 -0.1523 -0.0274  0.0599
 4817W        W 8881  10.195   0.566   2.849  0.2428 -0.2599 -0.3506
 4818W        W 8882   9.198  10.088   1.569  0.1961 -0.0204  0.0955
 4819W        W 8883   4.914  10.402   3.257 -0.0415  0.1968  0.0514
 4820W        W 8884   0.522   4.345   0.602  0.2232 -0.0194 -0.3560
 4821W        W 8885  10.460   6.353   8.951 -0.0503 -0.1582  0.0597
 4822W        W 8886   7.389   4.660   9.237  0.0621  0.0101  0.0202
 4823W        W 8887   2.106   4.416   2.225  0.1343 -0.1467 -0.2054
 4824W        W 8888   5.703   2.413   2.893 -0.2347  0.1223  0.1047
 4825W        W 8889   0.160  10.682   2.651 -0.1602 -0.0661  0.0684
 4826W        W 8890   7.651   5.145   0.712  0.0618 -0.4681  0.4196
 4827W        W 8891   0.034   3.973   7.623 -0.0609  0.2586 -0.0422
 4828W        W 8892   7.261   5.745   1.439  0.0553  0.2634 -0.1999
 4829W        W 8893   0.555  10.623  10.958  0.0826 -0.0024  0.1414
 4830W        W 8894   5.161   1.900   2.234  0.1330  0.0444  0.0518
 4831W        W 8895   7.592  10.161   9.497 -0.0333  0.2570  0.2475
 4832W        W 8896   3.567   3.835   7.953  0.2891  0.1092 -0.2473
 4833W        W 8897   6.697   0.801   1.596  0.1749 -0.2304 -0.0909
 4834W        W 8898   8.884   3.875   8.494  0.2336 -0.0706 -0.2683
 4835W        W 8899   2.187   0.166   8.016 -0.1353  0.2506 -0.1019
 4836W        W 8900   9.400   9.082   1.196 -0.0206  0.1605 -0.1842
 4837W        W 8901   6.422   1.922   0.408 -0.0026  0.0372 -0.1966
 4838W        W 8902   7.396   2.118   1.441 -0.1931  0.0673  0.0126
 4839W        W 8903   3.119   6.201  11.021 -0.2840 -0.0196  0.1630
 4840W        W 8904   4.013   8.661   0.068 -0.1077 -0.1367 -0.0581
 4841W        W 8905   6.857   3.455   3.117 -0.1329 -0.4067 -0.2961
 4842W        W 8906   1.789   4.773  10.436 -0.0135  0.1371 -0.2240
 4843W        W 8907   9.844  10.401   3.203 -0.0236 -0.1052 -0.3029
 4844W        W 8908   7.311   7.204  10.166  0.0962 -0.0986  0.0024
 4845W        W 8909   5.224   5.529   1.269 -0.0951 -0.1213 -0.2712
 4846W        W 8910   4.569   1.810   2.374  0.3107  0.2747 -0.3561
 4847W        W 8911   7.121   9.590   1.723  0.1673 -0.0738  0.0199
 4848W        W 8912   3.828   3.359   7.927  0.2223 -0.1843 -0.3916
 4849W        W 8913   1.565   4.358   9.197 -0.1724  0.1289 -0.1056
 4850W        W 8914   1.951   0.481   7.167 -0.1344 -0.0287 -0.1584
 4851W        W 8915   4.761  10.099   3.768  0.0206  0.1644  0.0729
 4852W        W 8916   0.301   2.373  10.494 -0.1517  0.0184  0.4481
 4853W        W 8917   3.061   7.692  11.255  0.0325 -0.1641  0.2661
 4854W        W 8918   5.237   2.123   9.671  0.1675 -0.3790 -0.1763
 4855W        W 8919   6.552   4.411   8.730  0.0164 -0.0457 -0.0339
 4856W        W 8920   9.313   5.101   0.278 -0.0185 -0.1603 -0.0802
 4857W        W 8921   1.179   1.979  10.214  0.1001  0.1801  0.5774
 4858W        W 8922   2.066   7.908   1.355 -0.2104  0.0863  0.0183
 4859W        W 8923   1.818   0.301   1.202 -0.0553  0.0191 -0.1538
 4860W        W 8924   4.932   3.346   0.600  0.0842  0.0494  0.4073
 4861W        W 8925   0.933   9.331   3.577 -0.1017 -0.1284  0.1273
 4862W        W 8926   3.181   3.922   8.377  0.1720  0.2403 -0.2059
 4863W        W 8927   3.144   1.733   7.899  0.1257  0.3123 -0.1341
 4864W        W 8928   2.823   1.834   0.356 -0.1490  0.1587 -0.0792
 4865W        W 8929   3.461   6.989   9.315 -0.4049 -0.1623  0.3416
 4866W        W 8930   4.089  10.703   0.019  0.0048  0.0327  0.1007
 4867W        W 8931  10.485   4.830   7.619 -0.0799 -0.0862  0.1673
 4868W        W 8932   6.302   9.381   0.471  0.1058 -0.0211 -0.0456
 4869W        W 8933   3.013   2.633   2.801  0.2309 -0.1230  0.1648
 4870W        W 8934   2.268   6.806   1.873  0.1048  0.1897 -0.0278
 4871W        W 8935   4.556   3.586   9.112  0.2062  0.1231 -0.1780
 4872W        W 8936   3.713   6.095   8.637 -0.2203  0.1416  0.1634
 4873W        W 8937   0.410   4.862   2.332  0.1401 -0.4306 -0.2338
 4874W        W 8938  10.567   4.067   8.490 -0.2118 -0.1325  0.1453
 4875W        W 8939   2.606   1.755  10.364 -0.1363  0.6009 -0.1453
 4876W        W 8940  10.052   1.941   2.661  0.2369  0.2115 -0.1606
 4877W        W 8941   1.158   1.584  11.256 -0.1216  0.1585  0.0364
 4878W        W 8942   6.484   7.313   1.564  0.0649 -0.1222  0.1229
 4879W        W 8943   2.852   9.640   7.375 -0.2356 -0.1540 -0.0412
 4880W        W 8944   4.320   5.272   6.581  0.0950  0.3123 -0.2888
 4881W        W 8945   1.409   8.916   3.027  0.4609  0.1750  0.0278
 4882W        W 8946   3.658   9.301   1.245  0.1166  0.0376 -0.1065
 4883W        W 8947   8.650   8.411  10.148  0.0210  0.1074 -0.1619
 4884W        W 8948   4.647   8.505   8.228  0.0441 -0.1757 -0.4528
 4885W        W 8949   9.734   1.638   8.619  0.1560  0.0714  0.0877
 4886W        W 8950   3.495   1.935   8.823  0.0260  0.0237 -0.3147
 4887W        W 8951   5.745  10.318   1.129 -0.1421  0.1206  0.0627
 4888W        W 8952   3.898   6.539   8.521 -0.0076 -0.1224 -0.0847
 4889W        W 8953   1.689   4.213   6.947 -0.2682 -0.1035  0.6613
 4890W        W 8954   3.608   2.679  10.561 -0.1451 -0.1672 -0.0677
 4891W        W 8955   6.107   0.607   0.347 -0.0836 -0.2693 -0.0572
 4892W        W 8956   9.846   0.255   7.532 -0.0513 -0.0530  0.0949
 4893W        W 8957   8.361   0.645   7.285  0.0058  0.0355  0.2927
 4894W        W 8958   2.070   0.723   3.249  0.1404  0.0009  0.0541
 4895W        W 8959   0.986   4.815   8.080  0.0282  0.0664 -0.0909
 4896W        W 8960   7.105  10.201   2.622  0.2551 -0.1356 -0.4521
 4897W        W 8961   5.244   1.751   1.655 -0.0111 -0.4412  0.1329
 4898W        W 8962   0.902   1.549   3.088  0.2759 -0.1280 -0.4425
 4899W        W 8963   1.293   8.368   7.481  0.1347  0.1699 -0.2054
 4900W        W 8964   4.086   4.752   9.183  0.0272 -0.2255  0.1411
 4901W        W 8965   2.027   4.248   1.511  0.0722 -0.0900 -0.0616
 4902W        W 8966   4.259   4.169  10.948 -0.1713 -0.1369 -0.2568
 4903W        W 8967   0.406   4.009   6.362  0.2280 -0.2307  0.1372
 4904W        W 8968   4.781   6.260  10.505 -0.1674  0.0692  0.0904
 4905W        W 8969   8.200   3.260   9.768 -0.2036 -0.0652  0.0726
 4906W        W 8970   6.026   1.054   7.695  0.0970 -0.1921 -0.0828
 4907W        W 8971   7.413   6.066   8.157  0.1589 -0.1716  0.3342
 4908W        W 8972   2.629   2.926   1.997 -0.1139  0.0610  0.0747
 4909W        W 8973   0.112   6.694   0.388 -0.0078  0.2480  0.1937
 4910W        W 8974   8.437   6.273   0.752 -0.2704  0.0995  0.1318
 4911W        W 8975  10.213   1.877   9.413  0.1989 -0.1983 -0.0478
 4912W        W 8976   9.710   8.627  10.168  0.0980  0.0298 -0.0527
 4913W        W 8977   4.378   2.954  11.303 -0.0636  0.1241 -0.0311
 4914W        W 8978   9.736  10.562   9.073  0.3196  0.0941  0.2809
 4915W        W 8979   3.583   2.006   9.486 -0.0338 -0.0034  0.1650
 4916W        W 8980   9.149   0.193  10.017 -0.1306 -0.1303  0.1131
 4917W        W 8981   9.667   7.459   8.192  0.5298 -0.0409  0.2006
 4918W        W 8982  10.315   9.550   2.187 -0.2474 -0.1165 -0.1169
 4919W        W 8983   5.868   3.908   0.479 -0.1199  0.2285 -0.0066
 4920W        W 8984   6.155   1.849   9.488  0.0376  0.2956  0.1382
 4921W        W 8985   2.455   5.700   2.180 -0.1937  0.4160 -0.0431
 4922W        W 8986   7.531   9.512   2.601 -0.0257  0.0373 -0.2870
 4923W        W 8987   6.042   5.106  10.206 -0.0539  0.0141 -0.0559
 4924W        W 8988  10.698   1.525   9.770  0.0721 -0.2985  0.2298
 4925W        W 8989   1.034  10.540  10.710  0.1150 -0.1586 -0.1708
 4926W        W 8990   5.505   3.489   8.757  0.0444  0.0632  0.0933
 4927W        W 8991   5.864   1.545   7.798 -0.0549  0.1614 -0.0470
 4928W        W 8992   9.840   8.460   2.869 -0.3140 -0.0648 -0.0960
 4929W        W 8993   4.534   0.752  10.924  0.2119  0.0677  0.3167
 4930W        W 8994   5.527   8.897   1.649  0.0436 -0.0565 -0.0593
 4931W        W 8995   7.172   3.380  10.540  0.2990 -0.1470 -0.0130
 4932W        W 8996  10.477   5.971   3.537  0.1809 -0.4859 -0.2792
 4933W        W 8997   5.518   1.533   0.695 -0.4099  0.3362  0.0588
 4934W        W 8998  10.573   1.020   8.208  0.1187 -0.0699 -0.2086
 4935W        W 8999   0.437   9.788   2.151 -0.0063  0.0434  0.0251
 4936W        W 9000   4.630   9.626   2.177  0.0358  0.3208 -0.1395
 4937W        W 9001   0.924   3.780   7.389 -0.1050  0.1493  0.1768
 4938W        W 9002   4.011   2.707   8.404  0.2385 -0.0208 -0.0236
 4939W        W 9003   3.020   1.046   9.101  0.2491 -0.1813  0.0247
 4940W        W 9004  10.045   0.425   9.257 -0.0407 -0.0505 -0.2353
 4941W        W 9005   0.917   8.793   0.887 -0.2125  0.2216 -0.0491
 4942W        W 9006   8.706   8.470   2.290  0.3656 -0.0476 -0.3494
 4943W        W 9007   2.870   1.387  10.716  0.0724  0.3104  0.0675
 4944W        W 9008   1.774   8.571   7.385  0.6107 -0.2801 -0.1910
 4945W        W 9009   8.455   3.739   9.718  0.0341  0.1926 -0.0174
 4946W        W 9010   4.032   4.392   1.018 -0.1819 -0.1648  0.0954
 4947W        W 9011   5.569   1.052   1.601 -0.1152 -0.2183 -0.0714
 4948W        W 9012   5.516   9.431   2.655 -0.0171  0.2132  0.3358
 4949W        W 9013   4.259   6.282   6.897  0.1420  0.0197  0.2428
 4950W        W 9014   3.033   9.327  10.079 -0.1875  0.0099 -0.1006
 4951W        W 9015   5.941   4.447   0.672 -0.0972  0.1055 -0.1020
 4952W        W 9016   7.954   1.668   9.026  0.1492 -0.1441 -0.0808
 4953W        W 9017   0.434   2.894   8.875 -0.0640  0.1483  0.3187
 4954W        W 9018   0.211   6.995  10.757  0.1123 -0.0543 -0.0422
 4955W        W 9019   2.015   8.105   2.828  0.3518 -0.0134  0.1378
 4956W        W 9020   3.492   0.006   7.953  0.1112 -0.1544 -0.0595
 4957W        W 9021   4.510   9.385  10.034  0.3099 -0.0328 -0.3273
 4958W        W 9022   6.882   1.889  11.251 -0.3615  0.3059  0.0006
 4959W        W 9023   3.445   8.017   0.994  0.0604 -0.1794 -0.0897
 4960W        W 9024   0.702   6.996  10.447  0.0780  0.0082  0.1509
 4961W        W 9025   3.199   7.082   2.264 -0.1497  0.1572 -0.0345
 4962W        W 9026   4.317   6.478   0.429 -0.1202  0.2584  0.1143
 4963W        W 9027   6.344   0.656   7.731  0.2304  0.0706  0.1617
 4964W        W 9028   1.453   8.992  10.351 -0.2225  0.0884  0.1103
 4965W        W 9029   8.751   1.621   2.443 -0.0745  0.0699  0.3694
 4966W        W 9030   8.006   1.845  10.203  0.0356 -0.2097 -0.0422
 4967W        W 9031   2.607   8.178   9.134  0.1839 -0.0088 -0.0593
 4968W        W 9032   2.917  10.567   0.945  0.0469  0.0243  0.0897
 4969W        W 9033   7.565   8.654  10.864  0.2235 -0.3970 -0.2104
 4970W        W 9034   9.218   2.178  11.003 -0.0472 -0.3850 -0.0616
 4971W        W 9035   2.141  10.644   0.984 -0.0677  0.2305  0.0116
 4972W        W 9036   0.116  10.245  10.208  0.1632  0.2335  0.0101
 4973W        W 9037   1.732   8.876   9.929 -0.1738  0.0336 -0.0831
 4974W        W 9038   4.880   7.886   9.314  0.0026 -0.1213  0.0614
 4975W        W 9039  10.317  10.484   3.481 -0.1167 -0.2292  0.2800
 4976W        W 9040   2.075   9.910   2.745 -0.1904 -0.0201 -0.0195
 4977W        W 9041   6.262   9.004   2.469  0.0989  0.3144 -0.0788
 4978W        W 9042   7.174   4.231  10.004 -0.1036  0.0847  0.1402
 4979W        W 9043   2.541   3.656   3.405  0.0810 -0.0041  0.0644
 4980W        W 9044   2.051   7.265   2.721 -0.1153 -0.0857  0.0023
 4981W        W 9045   3.394   3.701  10.633 -0.0725  0.1641 -0.2099
 4982W        W 9046   1.892  10.289   0.656  0.0606  0.0803  0.1267
 4983W        W 9047   1.534   7.265   8.612 -0.0596  0.1721 -0.1486
 4984W        W 9048   2.407   2.845   9.255 -0.3768 -0.0508 -0.1040
 4985W        W 9049   6.334   9.715   3.149  0.1556 -0.0143  0.1006
 4986W        W 9050  10.360   5.585   9.898  0.1771  0.2843 -0.1560
 4987W        W 9051   8.864   7.036   2.341 -0.1299 -0.0033 -0.1087
 4988W        W 9052   4.931  10.035   0.251  0.1124  0.4918  0.2320
 4989W        W 9053   3.911   6.655   9.388 -0.1982 -0.1927  0.0834
 4990W        W 9054  10.698   8.424   0.225 -0.0190  0.3858 -0.2692
 4991W        W 9055   8.470   4.287   2.868  0.2799 -0.2358 -0.0516
 4992W        W 9056   4.975   6.527   1.636 -0.0808  0.2373  0.0669
 4993W        W 9057   1.810   5.158   9.659 -0.3772 -0.0099 -0.0171
 4994W        W 9058  10.614   6.051  11.183 -0.0186 -0.2105 -0.0798
 4995W        W 9059   7.206   0.454   9.110 -0.1143 -0.3367 -0.3671
 4996W        W 9060  10.702   0.481   9.672  0.2264  0.0989 -0.2187
 4997W        W 9061   9.971   4.507   1.029  0.1118 -0.1029  0.1614
 4998W        W 9062   5.645   3.534   2.429  0.0076  0.0518 -0.0378
 4999W        W 9063   1.996   1.557   8.881  0.1806 -0.2886  0.0015
 5000W        W 9064   7.331   9.036   1.688  0.3954 -0.3586  0.1881
 5001W        W 9065  10.752   0.995   9.602  0.2155  0.3165 -0.4012
 5002W        W 9066  10.623   3.340   9.173  0.0168  0.2335  0.2483
 5003W        W 9067   3.909   9.601   2.075  0.1754  0.0265  0.1291
 5004W        W 9068   8.491   0.627   1.507 -0.0744  0.2698 -0.3123
 5005W        W 9069   4.760   8.200   0.381 -0.0211 -0.1284 -0.2189
 5006W        W 9070   8.882   7.609   1.682  0.0997 -0.1954 -0.1152
 5007W        W 9071   9.061   4.062   6.499 -0.2354  0.2717  0.0711
 5008W        W 9072   5.338   0.909   6.915  0.2986 -0.1727  0.0803
 5009W        W 9073   8.614   2.093   1.552 -0.1392 -0.2654 -0.0068
 5010W        W 9074   5.336   0.777   1.090  0.1945 -0.0965  0.1089
 5011W        W 9075   9.649   4.987  10.101  0.2406  0.0314  0.3246
 5012W        W 9076   1.046   1.977   7.858 -0.1209 -0.0043  0.1981
 5013W        W 9077   6.054   6.875   2.248  0.0909  0.0769 -0.3134
 5014W        W 9078   2.267   1.945   1.071 -0.5463 -0.0295  0.2567
 5015W        W 9079   4.306   5.628   3.500  0.2103 -0.4206  0.0108
 5016W        W 9080   8.136   2.175   7.658 -0.0705  0.1950  0.0150
 5017W        W 9081   9.561  10.340   9.504 -0.0417  0.2743 -0.2154
 5018W        W 9082   5.450   4.607  10.300 -0.0689 -0.1215 -0.1778
 5019W        W 9083   3.073   2.456   8.019 -0.0403  0.0604  0.0314
 5020W        W 9084   7.036  10.624   0.969  0.4129  0.0573  0.0750
 5021W        W 9085   7.552   6.053   8.713 -0.2278 -0.0115  0.2658
 5022W        W 9086   1.959   5.428   8.606  0.0912  0.0888  0.1601
 5023W        W 9087   7.249   2.550   9.716  0.0721  0.0191 -0.0522
 5024W        W 9088   1.723   4.794   0.185  0.0581 -0.0657  0.3530
 5025W        W 9089   8.940   4.192   8.106  0.0867 -0.0083  0.1353
 5026W        W 9090   7.061   4.414   1.005 -0.1856 -0.0356  0.0403
 5027W        W 9091   9.660   8.549   8.273 -0.0026 -0.0213  0.2297
 5028W        W 9092   5.235   4.772   7.241 -0.1218 -0.1850  0.1714
 5029W        W 9093  10.382   8.001   3.029  0.1242 -0.0711 -0.3690
 5030W        W 9094   6.305   6.168   2.862 -0.0519 -0.1807  0.3193
 5031W        W 9095   0.962   9.267   0.974 -0.0127 -0.0732 -0.3166
 5032W        W 9096   2.547   3.865   9.463  0.0169  0.1709  0.1493
 5033W        W 9097   3.407   2.084  10.038  0.0907  0.2340 -0.0321
 5034W        W 9098   0.293   0.784   8.988 -0.2527 -0.0454 -0.0530
 5035W        W 9099   8.700   5.846   9.823 -0.1283  0.3301  0.2498
 5036W        W 9100   9.680   1.485   2.495  0.0739  0.2386  0.0170
 5037W        W 9101   6.760   6.530   1.762  0.1988  0.0243  0.2541
 5038W        W 9102   1.502   1.793  10.496 -0.0809  0.0514  0.0220
 5039W        W 9103   1.563   1.609   0.132 -0.4861 -0.2921  0.2258
 5040W        W 9104   8.140   4.327   0.397  0.0669  0.1787 -0.1446
 5041W        W 9105   4.277   7.395  10.022  0.2482 -0.0365  0.3043
 5042W        W 9106   5.649   1.579   2.294  0.0207  0.1393  0.0863
 5043W        W 9107   2.203  10.478   9.113  0.1215  0.1799 -0.1422
 5044W        W 9108   0.678   5.767   2.595 -0.1274  0.1628  0.0272
 5045W        W 9109   2.024   0.698   8.248 -0.1132  0.1115  0.3832
 5046W        W 9110   4.069   2.357   8.786  0.0349  0.2954 -0.1149
 5047W        W 9111   6.255   4.942  10.652  0.2907  0.1594 -0.2354
 5048W        W 9112   0.423   0.692   9.529  0.0900  0.1136 -0.2203
 5049W        W 9113   5.035   4.243   2.567 -0.1953  0.0817 -0.1638
 5050W        W 9114   9.734   1.960  11.343  0.0620 -0.0024  0.2363
 5051W        W 9115   5.057   7.080   9.942  0.0798 -0.0401 -0.0206
 5052W        W 9116  10.414   4.378   2.429  0.0712  0.1376 -0.0720
 5053W        W 9117   3.277   1.365   9.430 -0.2017 -0.1195 -0.3215
 5054W        W 9118   3.529   2.124   0.108 -0.3626 -0.0459 -0.2808
 5055W        W 9119  10.398   0.037   0.605 -0.0734  0.0583  0.1401
 5056W        W 9120   2.343   1.945   8.683  0.1253  0.1492  0.0041
 5057W        W 9121   1.664   2.105   2.095  0.0624  0.2291 -0.3503
 5058W        W 9122   1.545   0.761   8.452 -0.1760 -0.1851 -0.1173
 5059W        W 9123  10.078   0.121   1.048  0.2453 -0.0315 -0.0161
 5060W        W 9124   1.808   8.123   9.283 -0.2182 -0.1082  0.1301
 5061W        W 9125   2.408   6.176   0.730  0.0502 -0.0516 -0.0718
 5062W        W 9126   5.696   9.229   9.455 -0.1625  0.2246 -0.0371
 5063W        W 9127   5.138   3.227   0.009 -0.1467  0.2222 -0.0815
 5064W        W 9128   3.306   0.364   1.976  0.0911 -0.2238 -0.0056
 5065W        W 9129   7.619   6.498   0.324 -0.2574 -0.0838 -0.2412
 5066W        W 9130   1.520   4.199   1.570 -0.2006 -0.5078 -0.0250
 5067W        W 9131   5.230   3.821   8.122  0.1098 -0.1448 -0.4531
 5068W        W 9132   5.318   5.115   3.563  0.0124  0.0449  0.1353
 5069W        W 9133   4.942   2.890   3.381 -0.0653  0.0987  0.0671
 5070W        W 9134   1.908   7.542  11.271 -0.1084 -0.0992  0.0554
 5071W        W 9135   4.925   9.009   9.847 -0.1341  0.2522  0.4338
 5072W        W 9136  10.732   7.439  10.671 -0.0466 -0.0703 -0.2557
 5073W        W 9137   7.828   2.876   1.771 -0.1377  0.2238  0.3127
 5074W        W 9138   1.478  10.387   3.429  0.0012  0.1512 -0.0451
 5075W        W 9139   9.090   2.168   8.255  0.3706 -0.0103 -0.1124
 5076W        W 9140   6.036   7.236   1.965 -0.1590  0.1259  0.0787
 5077W        W 9141   1.299   5.255   9.633 -0.0390  0.1054  0.0589
 5078W        W 9142   2.988   8.030   1.865  0.1210  0.0285 -0.0254
 5079W        W 9143   7.398   7.392   1.660  0.1215 -0.1664  0.3399
 5080W        W 9144   6.922   7.212   2.558 -0.1597  0.0518  0.2393
 5081W        W 9145   9.333   7.206   3.663 -0.2172 -0.1444 -0.4250
 5082W        W 9146  10.534   2.750   9.614 -0.0143 -0.2047  0.0907
 5083W        W 9147   7.712   7.860   7.669  0.0127 -0.0795  0.0955
 5084W        W 9148   3.130   4.804   7.286 -0.1722  0.1470  0.0986
 5085W        W 9149   9.144   3.614  11.242 -0.1588 -0.3290  0.2347
 5086W        W 9150   3.355   9.839  10.813  0.2763 -0.2756  0.1764
 5087W        W 9151   2.624   2.196  10.617  0.0171  0.4784  0.0412
 5088W        W 9152   5.894   1.836   8.704  0.2888 -0.2460 -0.1441
 5089W        W 9153   9.527   1.057   9.338 -0.1117 -0.2271 -0.2192
 5090W        W 9154   3.153  10.340   7.297  0.0340 -0.2644  0.1445
 5091W        W 9155   1.523   5.978   9.803 -0.4317  0.1294  0.0863
 5092W        W 9156   2.885   7.501   2.919 -0.1252 -0.1705  0.3383
 5093W        W 9157   8.719   2.732   2.325 -0.0298 -0.1633  0.0489
 5094W        W 9158   7.404   5.424   8.623 -0.4388 -0.2674  0.0189
 5095W        W 9159   9.196   7.320   0.803 -0.2070 -0.0183 -0.0471
 5096W        W 9160   9.859   2.779   2.137  0.2747  0.2240 -0.0665
 5097W        W 9161   2.743   5.369   8.578  0.0395 -0.1011  0.1471
 5098W        W 9162   0.898  10.759   1.301 -0.0676 -0.2426  0.2036
 5099W        W 9163   6.002   3.203   7.195  0.0467 -0.1739  0.0931
 5100W        W 9164   0.358   0.410   0.988  0.0518  0.0518 -0.2196
 5101W        W 9165   4.708   4.377   2.256  0.2394 -0.0090 -0.0398
 5102W        W 9166   2.954   6.914  10.824 -0.0553  0.2182  0.0027
 5103W        W 9167   5.721   1.138   2.532 -0.2161 -0.0294  0.3335
 5104W        W 9168   2.066   3.845   0.409  0.1550 -0.2031  0.3487
 5105W        W 9169   7.540   0.870   7.534 -0.0258  0.0496 -0.1574
 5106W        W 9170   8.810   3.807   0.695 -0.1390 -0.2842  0.0231
 5107W        W 9171   9.306   9.825   1.960 -0.2035 -0.0299 -0.4624
 5108W        W 9172   5.210   3.288   2.685 -0.2681 -0.1688 -0.1898
 5109W        W 9173   6.199   2.174   9.959 -0.2034 -0.0116  0.1372
 5110W        W 9174   1.249   0.840   1.085 -0.0944 -0.1732  0.0635
 5111W        W 9175  10.589   4.711   1.686 -0.0763 -0.1229 -0.1334
 5112W        W 9176   7.821   3.081   0.392 -0.3781 -0.3617  0.3136
 5113W        W 9177   6.066  10.416   0.522  0.2921 -0.2239 -0.1636
 5114W        W 9178   2.784   5.804   1.821 -0.3459 -0.3116  0.0320
 5115W        W 9179   3.762  10.154   8.661  0.0798  0.1503  0.0451
 5116W        W 9180   7.602   1.132   9.654 -0.0716 -0.2098 -0.2393
 5117W        W 9181   4.136   5.681  10.889 -0.0775 -0.3229 -0.3281
 5118W        W 9182   7.792  10.485   8.344  0.1402 -0.1225  0.0946
 5119W        W 9183  10.158   3.779  11.370  0.0450 -0.0531  0.0960
 5120W        W 9184   0.090   8.242   9.922 -0.0474  0.1171 -0.0061
 5121W        W 9185   2.326   9.836   8.630  0.1210  0.0461 -0.3428
 5122W        W 9186   6.624  10.189   1.190  0.0897 -0.2065  0.1015
 5123W        W 9187   1.526   3.414   9.828 -0.0340 -0.0858  0.0293
 5124W        W 9188   0.951   2.992   2.014 -0.2040 -0.0005 -0.0876
 5125W        W 9189  10.607   4.863   8.092 -0.1474  0.0829  0.1266
 5126W        W 9190   4.456   1.007   0.694  0.3227  0.1533  0.1625
 5127W        W 9191   4.914   2.918   2.626  0.0297  0.2151  0.0874
 5128W        W 9192   4.801   2.438   2.609 -0.1128  0.2456  0.0703
 5129W        W 9193   7.333   7.603   0.010  0.0864 -0.1361  0.2236
 5130W        W 9194   8.628   7.549   2.592 -0.2207 -0.0876  0.2940
 5131W        W 9195   9.046   3.799   7.787 -0.0194  0.1975  0.2148
 5132W        W 9196  10.734   9.657   9.044 -0.0624  0.0086 -0.2632
 5133W        W 9197   2.052   1.438   0.356  0.1753 -0.0300  0.1880
 5134W        W 9198   5.165   0.696   8.413  0.1387  0.2773  0.1544
 5135W        W 9199   5.854   9.282   0.147 -0.1058 -0.0147 -0.1439
 5136W        W 9200   5.123   0.089   9.327 -0.1930  0.1811 -0.1493
 5137W        W 9201   6.659   3.223   2.003  0.2740 -0.4605  0.2691
 5138W        W 9202   9.643   5.143   1.695 -0.2134 -0.1626 -0.3762
 5139W        W 9203   4.545   5.968   8.358  0.3844  0.1978 -0.1131
 5140W        W 9204  10.228   3.254   9.729 -0.0421  0.0258 -0.0054
 5141W        W 9205   1.228   1.757   1.429 -0.0400  0.0987  0.0164
 5142W        W 9206   9.380   6.486   7.964  0.2482  0.0498 -0.1850
 5143W        W 9207   1.385   7.029   3.937 -0.1172 -0.2601 -0.1982
 5144W        W 9208   2.570   9.893   0.473 -0.1040 -0.1290 -0.2517
 5145W        W 9209   6.693   3.123  10.944 -0.0272  0.0769  0.0511
 5146W        W 9210   8.561   5.829   1.993 -0.0226 -0.0350 -0.1124
 5147W        W 9211   2.225   7.436  10.862 -0.0711  0.0041  0.3813
 5148W        W 9212   9.966   2.809   9.582 -0.4247 -0.0230 -0.3839
 5149W        W 9213   3.390   8.883   3.505 -0.0940 -0.1260 -0.0661
 5150W        W 9214   7.590   7.505   0.934  0.0425  0.3875  0.2943
 5151W        W 9215   3.622   0.755   0.672 -0.0105  0.1284 -0.2054
 5152W        W 9216   6.085   2.734   0.901 -0.0660  0.1559 -0.0045
 5153W        W 9217   5.453   3.123   0.538  0.1637  0.2734 -0.0321
 5154W        W 9218   5.927   4.616  10.421 -0.2264 -0.1464  0.0397
 5155W        W 9219   6.694  10.155  10.644 -0.2205  0.0419 -0.2936
 5156W        W 9220   3.790   3.018   0.458  0.0405 -0.2555  0.4228
 5157W        W 9221   4.472   3.598   1.231 -0.0159 -0.0447 -0.0326
 5158W        W 9222   3.342   8.402   0.637 -0.2074 -0.0536 -0.2325
 5159W        W 9223   0.215   9.229   8.381 -0.0016 -0.0322  0.3081
 5160W        W 9224   3.577   6.504   1.148  0.2176  0.1163  0.2921
 5161W        W 9225   6.845   0.811  10.198  0.3656  0.0707  0.0880
 5162W        W 9226   6.815   9.501   3.025  0.0105 -0.0550 -0.0443
 5163W        W 9227   1.372   4.588   7.609 -0.0961  0.0169  0.2948
 5164W        W 9228   9.496   1.449   3.898 -0.0332 -0.2766 -0.0610
 5165W        W 9229   7.678   8.158   9.122 -0.0386 -0.0737  0.2061
 5166W        W 9230   1.003   4.402   0.425  0.0586  0.0270  0.0323
 5167W        W 9231   3.990   0.271   1.229  0.2395  0.1207  0.3107
 5168W        W 9232   5.471  10.589  11.195  0.1489 -0.2711 -0.1472
 5169W        W 9233   7.185   6.121   2.143 -0.0451 -0.3116 -0.3448
 5170W        W 9234   1.965   3.478   2.526  0.0440 -0.3781 -0.0666
 5171W        W 9235   1.470   1.099   0.527  0.1846 -0.1175  0.0046
 5172W        W 9236   7.299  10.522   6.919 -0.1955  0.2032  0.0826
 5173W        W 9237   4.807   5.781   1.465 -0.0167  0.0833 -0.0423
 5174W        W 9238   7.221   9.657   0.136 -0.2557  0.1595 -0.0340
 5175W        W 9239   1.287   3.830   1.838 -0.1417  0.2509  0.0124
 5176W        W 9240   1.232   3.672   3.255  0.1114 -0.2564 -0.0310
 5177W        W 9241   2.403   3.589   9.904 -0.0496  0.2663 -0.0016
 5178W        W 9242   6.659   0.724   0.610 -0.2019  0.0400 -0.1827
 5179W        W 9243   1.080   7.366   2.306 -0.1418  0.4469 -0.0712
 5180W        W 9244   6.950   9.533   9.509  0.0358 -0.3916 -0.0941
 5181W        W 9245   6.140   8.201   1.160 -0.3412  0.1925 -0.2135
 5182W        W 9246   4.138  10.390   1.847  0.0467  0.0805 -0.1440
 5183W        W 9247   6.229  10.607   1.005 -0.0067 -0.1452  0.2107
 5184W        W 9248   0.998   3.683   1.007  0.4365  0.0841  0.3022
 5185W        W 9249   3.599   4.296   9.631 -0.0332  0.1382  0.0126
 5186W        W 9250   6.529   0.204   1.674 -0.1308  0.1430  0.0882
 5187W        W 9251   3.767   3.787   9.445  0.3484 -0.2991  0.0798
 5188W        W 9252   1.747   3.264   8.431 -0.0798  0.0462 -0.2869
 5189W        W 9253   9.333  10.338   2.938 -0.1570 -0.0731 -0.1123
 5190W        W 9254   2.616   0.569   0.643  0.0763 -0.2614  0.1352
 5191W        W 9255   3.331   3.049   0.109 -0.1528  0.1361 -0.0617
 5192W        W 9256   3.360   8.268   1.440 -0.1277  0.3236 -0.2821
 5193W        W 9257   9.152   0.740   7.892 -0.2215  0.2334 -0.3103
 5194W        W 9258   0.062   4.368   8.155 -0.4212 -0.3089 -0.0352
 5195W        W 9259  10.254   0.747   2.240  0.2150 -0.1756  0.1510
 5196W        W 9260   9.657   3.218   9.619  0.2417  0.0548 -0.3248
 5197W        W 9261   4.532   4.055   1.874 -0.0613 -0.1822  0.1221
 5198W        W 9262   3.501   5.510   0.259 -0.0752  0.0041  0.0463
 5199W        W 9263   3.600   2.393   8.553  0.1438 -0.1507 -0.1442
 5200W        W 9264   1.699   8.914   0.399 -0.0391  0.0598  0.0615
 5201W        W 9265   1.921   5.868   8.432 -0.1329 -0.2349  0.4548
 5202W        W 9266   3.754   1.353   7.825 -0.4303 -0.1840  0.1401
 5203W        W 9267   0.287   0.312   8.224 -0.1490  0.2543  0.1029
 5204W        W 9268   9.763   8.195   0.902 -0.0475  0.0414  0.0587
 5205W        W 9269  10.612   8.845   1.662 -0.0959 -0.0747 -0.0840
 5206W        W 9270  10.231   1.039   3.031 -0.0954 -0.1252 -0.2450
 5207W        W 9271   7.926   4.160   1.834 -0.4347 -0.1417  0.3419
 5208W        W 9272   6.681   8.083   3.549  0.0037 -0.3255 -0.0689
 5209W        W 9273   8.896   8.292   9.754  0.0675  0.0758 -0.1822
 5210W        W 9274   6.277   4.118   2.690  0.0008  0.2063 -0.1411
 5211W        W 9275   6.738   4.851   8.620 -0.0103 -0.2103 -0.0635
 5212W        W 9276   7.138   2.331   0.560 -0.0902 -0.1398 -0.4467
 5213W        W 9277   0.238   3.083   1.173  0.0078  0.0254  0.1316
 5214W        W 9278   0.199   6.906   1.014 -0.1054 -0.2549 -0.0341
 5215W        W 9279   7.032  10.305   0.042 -0.3151 -0.0606 -0.0552
 5216W        W 9280   1.834   3.768   7.204  0.1193 -0.2470  0.1178
 5217W        W 9281   4.676   2.462   8.982  0.0016 -0.5395 -0.0820
 5218W        W 9282   1.627   1.820   1.101  0.0648  0.4168 -0.0610
 5219W        W 9283   7.660   0.925   1.785  0.0936 -0.3064 -0.1081
 5220W        W 9284   8.895   6.583   2.135  0.0293 -0.3513 -0.1266
 5221W        W 9285   7.841   8.636   2.950 -0.0316 -0.0663  0.3242
 5222W        W 9286  10.575   0.412   7.979 -0.2721  0.1855  0.0578
 5223W        W 9287   7.089   0.996   6.531 -0.0824 -0.2624 -0.2633
 5224W        W 9288  10.112   8.358   1.308  0.2781 -0.0862  0.2517
 5225W        W 9289   7.794   3.562   0.720  0.1677 -0.1981 -0.1899
 5226W        W 9290   4.828   3.126   8.609 -0.1825 -0.2028 -0.3489
 5227W        W 9291   7.775   6.884   8.128  0.4126  0.0755  0.1112
 5228W        W 9292   4.991   6.743  10.355  0.1094  0.0939  0.1903
 5229W        W 9293   7.335   9.996   0.489  0.0385  0.2717  0.0741
 5230W        W 9294   9.211   1.059   1.697 -0.0551  0.0555 -0.0079
 5231W        W 9295   9.752   2.080   3.196  0.3619 -0.0276 -0.4300
 5232W        W 9296   5.010   5.109   2.199 -0.2723 -0.0646  0.0247
 5233W        W 9297   0.650  10.359  10.520 -0.0351  0.2747  0.1506
 5234W        W 9298   9.717   8.320   9.187  0.1700  0.3240  0.0549
 5235W        W 9299   4.917   3.650  10.943  0.0100 -0.0200  0.0035
 5236W        W 9300   2.010   8.251  10.360  0.2802  0.0446 -0.1405
 5237W        W 9301   2.186   3.820   2.156 -0.1063  0.0524  0.0982
 5238W        W 9302   4.733   0.018   7.917 -0.0088 -0.2406 -0.2607
 5239W        W 9303   5.007   7.736   0.588 -0.1905 -0.0219  0.0689
 5240W        W 9304   2.828   3.398   2.127  0.1327  0.0433  0.1931
 5241W        W 9305  10.579   8.438   1.106  0.0040  0.1248 -0.0601
 5242W        W 9306   9.287   1.737   8.227  0.0079 -0.1965  0.4107
 5243W        W 9307   1.790   7.976   8.086  0.2600  0.1819  0.2755
 5244W        W 9308   4.709   7.251  10.272  0.2866  0.0841  0.0138
 5245W        W 9309   0.508   8.519  10.055 -0.2681 -0.0168 -0.0009
 5246W        W 9310   7.845  10.376   0.570 -0.0969  0.1815  0.1015
 5247W        W 9311   8.422   4.324   7.181  0.2511  0.1204 -0.2040
 5248W        W 9312   8.008   7.741   9.079 -0.1057  0.0931  0.0033
 5249W        W 9313   5.885   4.907   0.473  0.0217  0.0330  0.4095
 5250W        W 9314   1.387  10.629   1.202 -0.1435 -0.0047 -0.1380
 5251W        W 9315   8.273  10.585   0.373 -0.2461  0.1030  0.0317
 5252W        W 9316   8.929   9.464   2.700  0.0940 -0.1420 -0.0941
 5253W        W 9317   8.094   7.533   2.616 -0.0392 -0.1053  0.1120
 5254W        W 9318   4.107  10.758   9.744 -0.0354 -0.1158  0.1013
 5255W        W 9319   1.188   1.211   8.581 -0.0393  0.1675 -0.0290
 5256W        W 9320   4.788   1.839   1.803 -0.2341  0.0843  0.0149
 5257W        W 9321   6.045   5.825  10.863 -0.0171  0.0975 -0.0036
 5258W        W 9322   2.770   4.112  10.780  0.0892 -0.2277 -0.0546
 5259W        W 9323   5.412  10.163   2.145  0.3632  0.0134 -0.0225
 5260W        W 9324  10.276   8.423   3.257 -0.2270 -0.1570 -0.0777
 5261W        W 9325   4.929   3.958   1.540  0.2213  0.0025 -0.0061
 5262W        W 9326  10.215   0.546   1.423 -0.2520  0.3110 -0.1854
 5263W        W 9327   7.250   4.930   0.299 -0.0086 -0.1288 -0.0511
 5264W        W 9328   7.546   2.282  10.641 -0.2287 -0.0758  0.0784
 5265W        W 9329   6.426   8.869   8.348 -0.3144  0.0722 -0.0425
 5266W        W 9330   2.457   1.181   0.607  0.2563  0.0471 -0.3065
 5267W        W 9331   9.153   9.888  10.099 -0.2694 -0.1991 -0.0179
 5268W        W 9332   7.093   5.726   8.954 -0.1053  0.0496  0.2071
 5269W        W 9333   7.864   7.789   0.241 -0.0700 -0.2432  0.0835
 5270W        W 9334   2.570   7.270   2.645 -0.0014  0.0725 -0.0324
 5271W        W 9335   0.010  10.591   8.879  0.1309 -0.1001 -0.0685
 5272W        W 9336   1.830   2.790   8.662 -0.0562 -0.1083 -0.1655
 5273W        W 9337   8.538   0.730  10.505 -0.0647 -0.1671  0.0825
 5274W        W 9338   8.974   4.452  10.812  0.0499 -0.4065  0.1458
 5275W        W 9339   1.637   0.679  10.301  0.1085  0.0020 -0.0191
 5276W        W 9340   8.920   3.161  11.104  0.0464 -0.1442 -0.0137
 5277W        W 9341   3.237   8.488   1.874 -0.1059  0.0518  0.2799
 5278W        W 9342   4.157   6.631   7.782  0.4660  0.2965 -0.0165
 5279W        W 9343   9.327   3.003   0.854 -0.0933  0.1909  0.1881
 5280W        W 9344   2.553   1.197   9.144  0.1341  0.0626  0.1909
 5281W        W 9345   8.529   9.598   7.440  0.2125  0.2891  0.1726
 5282W        W 9346   8.184  10.267   2.997 -0.3700  0.3124 -0.0417
 5283W        W 9347   3.660   3.924   2.388 -0.1876 -0.1888  0.1956
 5284W        W 9348   1.322   3.887   7.100  0.1505  0.2026 -0.1327
 5285W        W 9349   8.751   4.207   2.465  0.2050  0.0737  0.2650
 5286W        W 9350   6.808   6.650   3.478  0.1879  0.0519  0.0352
 5287W        W 9351   7.687   0.264   9.204 -0.1499 -0.0695 -0.2594
 5288W        W 9352   3.888   3.466   2.213 -0.0288 -0.1766 -0.2022
 5289W        W 9353   0.515   8.666   0.533 -0.1459 -0.0475  0.1421
 5290W        W 9354   4.152   1.872   0.438  0.0878  0.3674  0.0269
 5291W        W 9355  10.710   8.167   0.644 -0.1000 -0.3127  0.0709
 5292W        W 9356   9.235   1.884   1.287 -0.0138 -0.0090 -0.0866
 5293W        W 9357   6.035   5.715   8.918 -0.1653 -0.0966 -0.0441
 5294W        W 9358   2.422   0.960   3.013  0.2744  0.3056  0.0276
 5295W        W 9359   9.663   3.547   8.997  0.1691  0.0927 -0.0786
 5296W        W 9360   6.344   7.396   6.991  0.1651  0.0599  0.0778
 5297W        W 9361   5.478   4.107   2.797  0.4111 -0.3556  0.4363
 5298W        W 9362   7.996   0.927   8.968  0.0541  0.1809  0.1904
 5299W        W 9363   1.561   5.646   1.678  0.0869 -0.0886 -0.0575
 5300W        W 9364   1.713   8.808   9.035  0.2850  0.2237 -0.1158
 5301W        W 9365   3.497   6.413   9.468 -0.0411  0.2248 -0.0412
 5302W        W 9366   8.784   2.318   3.005  0.0969 -0.0258  0.1979
 5303W        W 9367  10.508   7.856   2.579 -0.1811  0.1066  0.0987
 5304W        W 9368   8.585   8.000   1.773 -0.1861  0.4345 -0.0596
 5305W        W 9369  10.064   8.751   2.343  0.0604  0.0027 -0.0524
 5306W        W 9370   4.439   9.397   9.027  0.4858  0.0619 -0.0809
 5307W        W 9371   8.216   6.622   8.694 -0.0004 -0.1162  0.4307
 5308W        W 9372   6.089   1.585   6.821  0.0029 -0.2347 -0.0115
 5309W        W 9373   1.906   4.560   6.711 -0.1918  0.0578 -0.2793
 5310W        W 9374   0.274   5.678   7.923 -0.1826 -0.1893 -0.0534
 5311W        W 9375   9.689   7.502   3.414 -0.0431 -0.0557 -0.1647
 5312W        W 9376   0.069   2.680   8.206 -0.3595  0.1703 -0.2168
 5313W        W 9377   5.507   6.857  10.570 -0.0063  0.1838 -0.0982
 5314W        W 9378   1.428   0.257  11.194 -0.0791  0.0210 -0.2758
 5315W        W 9379   0.677  10.238   1.913 -0.1062  0.2928 -0.2580
 5316W        W 9380   6.725  10.222   2.165  0.1480 -0.2057  0.0665
 5317W        W 9381   9.343   9.021   9.832  0.1607 -0.0830 -0.0817
 5318W        W 9382   2.656   6.747  10.202 -0.1602 -0.1555 -0.0426
 5319W        W 9383   9.938   6.273   0.344  0.0727 -0.4126  0.0922
 5320W        W 9384   4.514   4.304   2.690 -0.0142 -0.1084  0.1489
 5321W        W 9385   4.809   6.240   1.184  0.0163  0.3715 -0.0327
 5322W        W 9386   2.244  10.626  10.710  0.0517  0.0700  0.0768
 5323W        W 9387   6.160   2.373  10.513  0.1119 -0.1082 -0.1233
 5324W        W 9388   8.460   9.145  11.158 -0.1357  0.4313 -0.1138
 5325W        W 9389   9.901   3.639   7.952 -0.1391 -0.1877 -0.1047
 5326W        W 9390   9.868   0.862   8.525 -0.2021  0.0227  0.0451
 5327W        W 9391   8.293   2.773   2.512  0.2352 -0.0496 -0.0243
 5328W        W 9392   0.144   8.332  10.396  0.1543 -0.4573 -0.1793
 5329W        W 9393   0.269   6.021   9.799  0.2191  0.1781  0.0481
 5330W        W 9394   3.202   7.252   0.735  0.3457  0.2489  0.1845
 5331W        W 9395   3.702  10.321   7.759  0.2882  0.1063 -0.0974
 5332W        W 9396   4.310   0.353   8.086  0.0957 -0.1517 -0.0306
 5333W        W 9397   9.443   7.849   2.274 -0.1249  0.0541  0.2976
 5334W        W 9398   9.288   5.338   2.408 -0.1348  0.2239  0.0022
 5335W        W 9399   9.395   9.907   2.462  0.2736 -0.0522 -0.1223
 5336W        W 9400   6.259   2.876   3.198 -0.0108  0.1561 -0.4009
 5337W        W 9401   1.639   3.647   2.162 -0.2784  0.1119  0.0766
 5338W        W 9402   7.219   9.806   2.839  0.0102  0.1377  0.0457
 5339W        W 9403   0.728   1.701  10.395  0.0023  0.0968 -0.2011
 5340W        W 9404   5.335   6.616   8.414 -0.0686  0.0731  0.1026
 5341W        W 9405   6.961   1.443   7.803 -0.1768 -0.0294 -0.3447
 5342W        W 9406   3.215   9.216   8.256  0.2300 -0.3221  0.1828
 5343W        W 9407   9.585   0.221   8.707  0.2192 -0.0731 -0.1414
 5344W        W 9408   8.245   8.364   3.110  0.0156  0.5099  0.0379
 5345W        W 9409   1.333   6.473   2.234 -0.0582  0.2444 -0.0776
 5346W        W 9410   3.657   6.974  11.213  0.0879 -0.2785  0.0398
 5347W        W 9411   9.050   8.767   9.500 -0.3117  0.1883 -0.2126
 5348W        W 9412  10.678   8.519   3.596 -0.2991 -0.4594 -0.2674
 5349W        W 9413   8.449   6.308   3.076  0.0902 -0.0876 -0.0547
 5350W        W 9414   6.487   8.132   2.327 -0.0287  0.0744 -0.3203
 5351W        W 9415  10.646   0.764   2.968 -0.0065  0.3500  0.0007
 5352W        W 9416   1.205   3.430   2.256 -0.1343  0.2103  0.0452
 5353W        W 9417   3.724   3.856   2.902  0.2997  0.1498  0.0302
 5354W        W 9418   0.445   3.970  10.835  0.0034 -0.1020  0.0712
 5355W        W 9419   2.926   2.965   0.363  0.1243 -0.3366 -0.1603
 5356W        W 9420   6.776   8.463   1.881 -0.0414 -0.0821 -0.0103
 5357W        W 9421   2.017   1.316   3.051 -0.0089  0.2776 -0.3924
 5358W        W 9422   1.974   6.310   8.167  0.0212 -0.1874 -0.2427
 5359W        W 9423  10.419   6.687   0.636  0.1560  0.0699  0.3123
 5360W        W 9424   2.718   0.616   9.630 -0.1201  0.4528  0.1746
 5361W        W 9425   9.099   6.499   1.221 -0.3293  0.0401  0.1966
 5362W        W 9426   9.823  10.433   9.898 -0.2148  0.5616 -0.2254
 5363W        W 9427   5.769  10.308   2.515  0.1389  0.1396  0.0474
 5364W        W 9428   0.827   2.907   8.214 -0.0687  0.0985  0.3042
 5365W        W 9429   8.588   9.120   3.547 -0.1320 -0.0874 -0.0287
 5366W        W 9430   7.839   6.995   1.101 -0.0723  0.1225 -0.1669
 5367W        W 9431   0.851   7.756   2.577  0.0018  0.3008 -0.1613
 5368W        W 9432   2.804   9.121  10.495 -0.1615  0.0294 -0.0866
 5369W        W 9433   6.729   2.706   3.017  0.0151  0.1320 -0.0534
 5370W        W 9434   7.642   2.692   1.248  0.0604  0.1288 -0.2550
 5371W        W 9435   0.850   5.678   7.144 -0.2377  0.0570 -0.1698
 5372W        W 9436   5.314   8.652   2.750  0.3362 -0.1061  0.0149
 5373W        W 9437   6.135   6.296   1.071  0.3271 -0.2598 -0.4002
 5374W        W 9438   7.881   5.194   8.599 -0.0530  0.1524  0.0137
 5375W        W 9439   7.621   3.147  10.844 -0.3207  0.3194  0.0951
 5376W        W 9440   1.790   2.008  11.280 -0.1952 -0.1054 -0.1064
 5377W        W 9441   6.527   4.960  10.232  0.6366 -0.0427  0.1921
 5378W        W 9442  10.147   5.169  10.136 -0.0441 -0.0425 -0.2587
 5379W        W 9443   5.950   1.403  11.113  0.1834 -0.1272  0.0440
 5380W        W 9444   7.094   4.261   0.455 -0.0964 -0.0317 -0.1032
 5381W        W 9445   8.110   2.567   8.541  0.0375  0.1264 -0.1822
 5382W        W 9446   1.574  10.158   1.621  0.0405  0.1683  0.2540
 5383W        W 9447   3.781   6.540   0.353  0.0195 -0.3386  0.0611
 5384W        W 9448   9.801   9.467   9.873  0.4384  0.2321  0.0552
 5385W        W 9449   0.841   8.704   9.539  0.3272 -0.0612 -0.0627
 5386W        W 9450   5.146   6.006  11.014 -0.0520 -0.1115  0.0909
 5387W        W 9451   9.781   9.713  10.878 -0.0065 -0.0897  0.0376
 5388W        W 9452  10.081   1.813  10.564 -0.4004 -0.0944 -0.2959
 5389W        W 9453   0.242   9.836  10.507 -0.1262  0.0265 -0.0183
 5390W        W 9454   2.436   6.370   1.278 -0.0555  0.1539  0.1738
 5391W        W 9455   7.195   8.501   1.691 -0.1503 -0.0224 -0.1431
 5392W        W 9456   2.949   6.183   2.145 -0.1200  0.0197  0.0870
 5393W        W 9457  10.387   2.645   2.336 -0.0405  0.0956 -0.1078
 5394W        W 9458   6.577   1.122   0.923  0.0581  0.0497 -0.0136
 5395W        W 9459  10.275   7.554   2.289 -0.0520  0.3424  0.0617
 5396W        W 9460   6.784   9.299   0.434  0.0231  0.0509  0.2015
 5397W        W 9461   5.974   7.374   1.424  0.1229  0.0068  0.3221
 5398W        W 9462   3.501   8.853  11.345 -0.0313 -0.3237  0.0785
 5399W        W 9463   8.028   6.153   8.976  0.1087  0.0798 -0.0847
 5400W        W 9464   9.474   8.716  10.726 -0.0162  0.4220  0.1581
 5401W        W 9465   6.342   1.961   2.749  0.2622 -0.0008  0.1307
 5402W        W 9466   1.788   8.573   9.514  0.5558 -0.1504 -0.0186
 5403W        W 9467   5.013  10.565   8.374 -0.3858  0.1684  0.1782
 5404W        W 9468   6.614  10.745   2.103 -0.0531  0.1814  0.0093
 5405W        W 9469   0.867   1.128   9.559 -0.1014 -0.2275 -0.0893
 5406W        W 9470  10.282   1.097   1.706 -0.1521 -0.4564  0.1763
 5407W        W 9471   5.572   9.453   8.086  0.1949 -0.0781  0.1639
 5408W        W 9472   7.851   1.983   8.506  0.0056 -0.2653 -0.0203
 5409W        W 9473  10.323   5.211   9.275 -0.0049  0.2237 -0.0300
 5410W        W 9474   6.636   5.553  11.220 -0.0668  0.0496  0.0946
 5411W        W 9475   2.888   8.637  10.725  0.0598 -0.4058  0.3056
 5412W        W 9476   0.667   5.524   8.146 -0.0112  0.0674 -0.4496
 5413W        W 9477   4.613   0.238   0.843 -0.1336 -0.2484 -0.1180
 5414W        W 9478   9.898   9.095   1.342  0.2818  0.1826  0.1454
 5415W        W 9479   4.035   5.770   8.354  0.0756  0.2705  0.2300
 5416W        W 9480   5.695   1.802   1.123  0.0251 -0.3055  0.3288
 5417W        W 9481   1.353   6.871  11.305  0.1385 -0.0247 -0.0255
 5418W        W 9482   1.245   4.387  10.803  0.3604  0.0030  0.0469
 5419W        W 9483   8.201   5.658   9.634  0.0667  0.0677 -0.0703
 5420W        W 9484   8.083   5.381  10.074 -0.0222  0.0229 -0.0222
 5421W        W 9485   4.837   9.400   1.065 -0.0186  0.1777  0.0587
 5422W        W 9486   2.130   1.081   2.378  0.0691  0.1950 -0.1684
 5423W        W 9487   7.423   8.400   9.570 -0.2840 -0.1951  0.1813
 5424W        W 9488   6.177   3.006  11.207 -0.0966 -0.0025 -0.1308
 5425W        W 9489   8.837  10.526   8.880  0.1471 -0.0316  0.0380
 5426W        W 9490   0.315   3.988   2.350 -0.0662  0.3248 -0.3602
 5427W        W 9491   6.436   3.660  10.171 -0.2296  0.0940 -0.1146
 5428W        W 9492   9.955   7.853   2.560 -0.0637  0.0775 -0.1449
 5429W        W 9493   6.161   4.120   8.872 -0.0400 -0.1356  0.3785
 5430W        W 9494   1.052   0.874   0.623 -0.0858 -0.3174  0.2099
 5431W        W 9495   8.899   7.604  10.517 -0.2010 -0.0823 -0.1047
 5432W        W 9496   0.008   3.002   2.082  0.4815 -0.0053 -0.0037
 5433W        W 9497   5.751   0.082  10.300 -0.4043  0.4752  0.1515
 5434W        W 9498   7.755   1.068   3.048 -0.1365 -0.0126  0.0355
 5435W        W 9499   6.321   9.892   0.372 -0.0839 -0.3000  0.3363
 5436W        W 9500   8.821   8.255   8.188  0.3374 -0.1366 -0.1931
 5437W        W 9501   6.136   7.101   8.411  0.2985 -0.3530 -0.4051
 5438W        W 9502   0.892   9.756   2.004  0.3281 -0.0640  0.0358
 5439W        W 9503   1.352   3.973  10.574 -0.0901 -0.2456  0.0488
 5440W        W 9504   9.883   4.664   3.232  0.0617  0.0656  0.1903
 5441W        W 9505   6.719   5.062   0.897 -0.0104  0.2042  0.0944
 5442W        W 9506   8.691   3.393   1.123 -0.0740  0.1683 -0.0312
 5443W        W 9507   2.975   4.755  10.899 -0.3654  0.2043  0.1337
 5444W        W 9508   3.368   6.049   9.155 -0.1200 -0.0403 -0.1672
 5445W        W 9509   1.920   2.846   1.195 -0.0292  0.0168 -0.1340
 5446W        W 9510   3.220   0.380   9.676  0.0327  0.1185  0.3175
 5447W        W 9511   1.524   4.032  11.077 -0.2106  0.1947  0.1053
 5448W        W 9512   7.349  10.648   8.120 -0.1150 -0.0774  0.2425
 5449W        W 9513   9.311   2.423   9.643  0.0372  0.3678  0.0599
 5450W        W 9514   0.210   0.934   2.553  0.0357 -0.1846 -0.0505
 5451W        W 9515   8.276   0.588   8.143 -0.1785 -0.1828 -0.0631
 5452W        W 9516   3.502   0.535   7.979 -0.0497 -0.0379  0.2206
 5453W        W 9517   9.940   0.204   0.268  0.3287  0.0251 -0.1551
 5454W        W 9518   5.466   9.532   9.829  0.1613  0.2525 -0.3497
 5455W        W 9519   7.573   7.739  10.270  0.1088 -0.2571 -0.0123
 5456W        W 9520  10.554   7.091  11.077 -0.1187  0.2070 -0.0876
 5457W        W 9521   4.108   1.103   9.194 -0.2908 -0.0256 -0.2963
 5458W        W 9522   4.628   7.135   8.418  0.0764  0.0604 -0.2483
 5459W        W 9523   9.932   3.051  10.044  0.4767  0.0921 -0.1718
 5460W        W 9524   5.388   5.436  10.521 -0.0574 -0.3352  0.0042
 5461W        W 9525  10.293   8.065   2.188 -0.2908  0.1630 -0.0531
 5462W        W 9526   0.289  10.213   8.886  0.4032 -0.1141 -0.2087
 5463W        W 9527   8.904   0.346   9.529 -0.2519  0.0786  0.1036
 5464W        W 9528   5.854   5.964   0.854 -0.4168  0.3247  0.4083
 5465W        W 9529   5.458   6.565  10.086  0.0432 -0.1330 -0.0553
 5466W        W 9530   1.416   6.724   8.576 -0.0226 -0.0931  0.0576
 5467W        W 9531   4.607   5.343  10.032 -0.0420  0.0975  0.0967
 5468W        W 9532   8.201   1.418   2.538 -0.2545  0.0172  0.2373
 5469W        W 9533   3.880   0.504   2.018  0.1160  0.1765  0.2113
 5470W        W 9534   1.204   6.049   8.692 -0.1294  0.3145  0.0618
 5471W        W 9535   2.186   5.315   1.298  0.1109  0.0328 -0.0628
 5472W        W 9536   0.336   2.044   2.487  0.2525 -0.1940 -0.1015
 5473W        W 9537   9.095   3.477   0.820 -0.2667  0.3090  0.1397
 5474W        W 9538   2.132   7.935  10.809 -0.0363  0.1423  0.0635
 5475W        W 9539   3.202   5.529  10.311 -0.2941 -0.3702 -0.0743
 5476W        W 9540   0.269   7.655   0.504  0.0038 -0.0808  0.2656
 5477W        W 9541   8.201   2.140   7.030 -0.1902 -0.1864 -0.1416
 5478W        W 9542  10.466   8.999  10.446  0.2844  0.4802  0.0161
 5479W        W 9543   3.293   0.375   2.478 -0.4879  0.2856  0.3679
 5480W        W 9544   2.881   4.805   8.755 -0.3402  0.0552  0.5453
 5481W        W 9545   9.386   8.221  10.604 -0.2208 -0.2147 -0.1734
 5482W        W 9546   0.090   9.787   0.031 -0.2051  0.1484 -0.0096
 5483W        W 9547   0.476   8.716   2.905 -0.2171 -0.3401 -0.0463
 5484W        W 9548   0.728   5.074   2.726 -0.0765  0.0191 -0.3424
 5485W        W 9549   3.905   8.350   7.633 -0.0051 -0.1961  0.0894
 5486W        W 9550   7.683   8.343  11.237  0.2051 -0.2318 -0.1249
 5487W        W 9551   8.230  10.475   1.882  0.1417 -0.1000  0.1961
 5488W        W 9552   3.369   8.482   9.038  0.2832  0.0077 -0.0755
 5489W        W 9553   8.479   0.408   2.513  0.2588 -0.1255  0.3233
 5490W        W 9554   1.572   9.973   2.480 -0.2252 -0.3499  0.0233
 5491W        W 9555   1.653   4.175   8.466 -0.0044 -0.1483  0.0324
 5492W        W 9556   1.272   6.330   9.515 -0.1158  0.0225  0.1120
 5493W        W 9557   5.242   2.874   8.122 -0.2708  0.0072  0.0274
 5494W        W 9558   8.370   6.803  10.887  0.0393 -0.2565 -0.2769
 5495W        W 9559   4.129   0.920   7.023 -0.0414 -0.0599  0.1661
 5496W        W 9560   5.297  10.696   2.565 -0.1089  0.3131 -0.0114
 5497W        W 9561   2.192   1.626   1.644 -0.0595 -0.0180  0.0595
 5498W        W 9562   0.692   2.186   0.799  0.0413  0.0803 -0.0598
 5499W        W 9563  10.342   1.159   9.905  0.1747  0.0063 -0.0955
 5500W        W 9564   9.211   9.435   3.135  0.1595 -0.1101  0.0450
 5501W        W 9565   2.119   1.186   1.388 -0.0620 -0.1909 -0.3677
 5502W        W 9566   2.286   9.787   0.058 -0.2297  0.3473  0.0401
 5503W        W 9567   0.274   7.253   8.144  0.1146  0.0701  0.1044
 5504W        W 9568   8.709   9.993   1.401  0.0090 -0.1554 -0.3039
 5505W        W 9569   5.141   5.232   9.008 -0.2357 -0.0275  0.0017
 5506W        W 9570   7.907   6.953   2.432  0.1282  0.0503  0.0241
 5507W        W 9571   6.612   6.056   1.927 -0.2313  0.0956 -0.0409
 5508W        W 9572   0.997   7.854   2.059  0.1593 -0.1354  0.2437
 5509W        W 9573   0.560  10.760   2.363 -0.0365  0.2824  0.2623
 5510W        W 9574   7.345   7.589  10.664  0.3146 -0.1415 -0.2661
 5511W        W 9575   3.542  10.678   7.451 -0.0090 -0.1932  0.4093
 5512W        W 9576  10.206  10.085  10.611 -0.0071  0.0302 -0.1337
 5513W        W 9577   6.249   4.222   7.834 -0.0883 -0.0890  0.1929
 5514W        W 9578  10.253   3.006   1.985 -0.0049  0.0061  0.0212
 5515W        W 9579   2.118   9.927   9.110 -0.2089 -0.0584 -0.0523
 5516W        W 9580   4.906   1.684  10.752  0.2202  0.3435  0.3627
 5517W        W 9581   4.272   1.185   9.733  0.0007 -0.1976 -0.3471
 5518W        W 9582   4.605   7.746   0.984 -0.1265 -0.0737  0.0924
 5519W        W 9583   6.178   1.998   0.946 -0.2240 -0.1380  0.3306
 5520W        W 9584   5.843   9.587   3.153 -0.0178 -0.2622  0.0809
 5521W        W 9585   7.761   8.447   1.064  0.1735  0.2225 -0.0253
 5522W        W 9586   8.509   7.434   8.474 -0.0336  0.0196 -0.0423
 5523W        W 9587   9.503   0.283   7.861 -0.0376  0.0164 -0.2581
 5524W        W 9588   0.755   4.529   1.676  0.1744  0.1081 -0.4218
 5525W        W 9589   1.922   3.202  10.014 -0.0234  0.3386 -0.3400
 5526W        W 9590   6.652   6.722   9.167 -0.2718  0.2211  0.0105
 5527W        W 9591  10.216   7.788   8.891 -0.2823  0.1284 -0.0953
 5528W        W 9592   1.936   3.746  11.088 -0.0864  0.0341  0.0549
 5529W        W 9593   3.401   6.722   8.520 -0.0638  0.1906 -0.1458
 5530W        W 9594   3.439   7.977  11.143  0.0318  0.1305  0.1462
 5531W        W 9595   0.992   3.265  10.880 -0.1306  0.0701 -0.3523
 5532W        W 9596   2.493   0.269   7.580 -0.2870 -0.2374  0.0742
 5533W        W 9597   2.328   4.479   1.818 -0.2876 -0.1279 -0.2595
 5534W        W 9598   5.216   0.475  10.492 -0.1686 -0.3019  0.1347
 5535W        W 9599   9.020   8.368   0.224  0.1070 -0.0775  0.1727
 5536W        W 9600   0.522   5.897   3.052 -0.0199 -0.0153 -0.1228
 5537W        W 9601  10.692   2.606   7.251  0.3062 -0.1529  0.0313
 5538W        W 9602   1.351   8.434   9.218 -0.2317  0.3298 -0.1137
 5539W        W 9603   4.648   3.421   9.824  0.2013  0.1258  0.1789
 5540W        W 9604   1.103   3.795  10.958  0.0239 -0.0536 -0.0011
 5541W        W 9605   8.280  10.458  10.167 -0.3105 -0.0979 -0.0593
 5542W        W 9606   5.833   8.429   1.797  0.0448  0.2287  0.0149
 5543W        W 9607   1.572  10.003   9.369 -0.4301 -0.1112 -0.2464
 5544W        W 9608   9.178   8.280   2.374  0.0655 -0.3366 -0.2719
 5545W        W 9609   2.791   9.443   1.700 -0.2552 -0.0768 -0.1191
 5546W        W 9610   7.247   7.170   0.247 -0.1406  0.0390  0.0571
 5547W        W 9611   0.750   1.702   2.602  0.0201  0.0982  0.2283
 5548W        W 9612   7.129   1.573   3.038  0.2196  0.0248 -0.0841
 5549W        W 9613   1.283   0.014   3.711  0.0044 -0.1811 -0.4830
 5550W        W 9614   0.279   4.953  11.008 -0.2374 -0.1603 -0.2324
 5551W        W 9615   7.606   0.606   2.865 -0.0525  0.1583 -0.2132
 5552W        W 9616   2.111   2.468   1.621 -0.0062 -0.0004  0.0249
 5553W        W 9617   3.733  10.458   9.606 -0.1937  0.0791 -0.0544
 5554W        W 9618   5.129   4.657   0.451 -0.0690  0.1152  0.1378
 5555W        W 9619   5.165   6.621   1.200  0.0617  0.3752  0.0930
 5556W        W 9620   1.063   6.807  10.797  0.0913  0.0750 -0.1096
 5557W        W 9621   6.576   9.074  10.955  0.2473  0.1947 -0.0005
 5558W        W 9622   2.450   5.498   1.689  0.1269 -0.0662  0.1712
 5559W        W 9623   5.922   2.921   0.379 -0.0681  0.1708  0.2617
 5560W        W 9624   4.633   3.305   7.485  0.1056  0.0054 -0.0022
 5561W        W 9625   7.057   4.929  10.356  0.2844  0.0644 -0.0762
 5562W        W 9626   5.399   2.032   7.588 -0.2354 -0.3220  0.0933
 5563W        W 9627   9.757   5.382   0.736  0.2557  0.1247  0.0141
 5564W        W 9628   3.123   6.602   7.544 -0.0050  0.3122 -0.0916
 5565W        W 9629   4.667   9.999  11.222  0.1471 -0.0112  0.0165
 5566W        W 9630   5.569   5.376  10.035 -0.0202  0.2709  0.2669
 5567W        W 9631   1.295   0.875   8.943 -0.0140  0.2079  0.3436
 5568W        W 9632   8.172   3.874   0.078  0.0778 -0.1721 -0.3239
 5569W        W 9633   0.632   0.213   9.754 -0.0170 -0.0935 -0.1703
 5570W        W 9634   6.565   4.322   0.774 -0.0062 -0.0950 -0.1663
 5571W        W 9635   5.831   1.023   9.215  0.1295  0.1400  0.1518
 5572W        W 9636   1.052   5.552   8.629  0.1420  0.3537  0.3779
 5573W        W 9637   1.358   9.630   1.690 -0.0633  0.4163  0.0274
 5574W        W 9638   5.917  10.175   2.974 -0.0185  0.0830 -0.0134
 5575W        W 9639   9.164   0.052   2.825 -0.4831 -0.0720  0.3301
 5576W        W 9640   5.494   8.903   0.096 -0.2628 -0.1579  0.0051
 5577W        W 9641   2.716   2.746   9.693  0.1069  0.2267 -0.0576
 5578W        W 9642   3.810   2.469   9.484  0.0130 -0.1323 -0.2614
 5579W        W 9643   3.529   7.451   7.866 -0.0121  0.2949  0.1396
 5580W        W 9644   5.316   6.767   9.072  0.2510 -0.1830  0.2776
 5581W        W 9645   3.341  10.614   0.623  0.1520  0.1519 -0.0190
 5582W        W 9646   8.353   4.870   2.221  0.0433 -0.0867 -0.0184
 5583W        W 9647   1.588   8.610   1.679  0.1584 -0.0089  0.0896
 5584W        W 9648   4.048   5.362   9.163 -0.1257  0.2712 -0.0332
 5585W        W 9649  10.470  10.046   0.952  0.1739  0.5663  0.0824
 5586W        W 9650   2.217   2.786  10.923 -0.0765  0.2632 -0.0760
 5587W        W 9651   5.949   9.733   2.699  0.4718 -0.0245 -0.3862
 5588W        W 9652   7.963   2.519   0.256  0.1915  0.1816 -0.2121
 5589W        W 9653   3.711   2.983   1.960 -0.0949  0.1348 -0.0787
 5590W        W 9654   3.075  10.571   8.102 -0.1813 -0.0221  0.3761
 5591W        W 9655   9.673   9.647   1.505  0.1953  0.1706  0.2065
 5592W        W 9656   0.949   9.809   3.757  0.0890  0.1843  0.4826
 5593W        W 9657  10.555   4.549   8.595 -0.0768  0.0357  0.0106
 5594W        W 9658   1.991   6.607   0.031  0.0510 -0.0495 -0.1204
 5595W        W 9659   6.715   1.080   7.402  0.3487 -0.0856 -0.0330
 5596W        W 9660   1.442   4.659   8.103  0.0578  0.1029  0.0906
 5597W        W 9661   8.124   0.543   2.835 -0.3418 -0.0442  0.4305
 5598W        W 9662   9.878   1.543   8.013 -0.0864  0.0290 -0.0736
 5599W        W 9663   7.140   6.318   3.197  0.0131 -0.0809  0.1005
 5600W        W 9664   8.739   8.245   0.840  0.2337  0.2856  0.1611
 5601W        W 9665  10.695   4.076   9.680 -0.0200  0.2371  0.2642
 5602W        W 9666   7.601   5.371   1.868 -0.1319 -0.0356 -0.2515
 5603W        W 9667   7.048   8.804   0.446  0.1177  0.0704  0.0054
 5604W        W 9668   2.622   6.038   2.493  0.0835  0.0587  0.0789
 5605W        W 9669   6.391   6.225   0.605  0.1471 -0.2001  0.1368
 5606W        W 9670   5.735   8.821   9.835 -0.2337  0.0089  0.0333
 5607W        W 9671   2.132   5.136   2.888  0.0772 -0.0686 -0.3034
 5608W        W 9672   7.238   5.309   9.816  0.0803 -0.2814 -0.0467
 5609W        W 9673   6.079   0.599   0.915  0.1460 -0.3294 -0.2144
 5610W        W 9674   8.908  10.262   7.974  0.0608 -0.0964  0.1475
 5611W        W 9675   1.781   9.355   0.626 -0.1069 -0.0861  0.1352
 5612W        W 9676   0.546   6.125   2.205 -0.4047  0.2232  0.0605
 5613W        W 9677   7.191   3.920   1.278  0.0429  0.1229 -0.0755
 5614W        W 9678   0.759   2.150   1.311 -0.1168  0.1612  0.1931
 5615W        W 9679   8.827   5.398  10.554 -0.0859  0.1398 -0.0827
 5616W        W 9680  10.132   8.108   0.407 -0.2160 -0.1368 -0.0186
 5617W        W 9681  10.395   2.423   8.344 -0.1027  0.0361 -0.1761
 5618W        W 9682   2.053   4.080   9.361 -0.1302 -0.1231 -0.0134
 5619W        W 9683   0.269   6.129   8.159 -0.1749  0.2606  0.2124
 5620W        W 9684   8.305   1.639   1.629 -0.3045  0.0224  0.0699
 5621W        W 9685   7.837   1.887   0.944 -0.0380  0.1069 -0.1864
 5622W        W 9686   7.698   4.916   0.081 -0.0129 -0.1597 -0.1597
 5623W        W 9687   6.294   0.873   7.260  0.0762  0.0097  0.2842
 5624W        W 9688   4.876   5.905   8.020 -0.1722  0.3615 -0.1860
 5625W        W 9689   3.311   7.743   8.276 -0.0870  0.0880  0.1095
 5626W        W 9690   8.431   1.844   9.862  0.0401 -0.2426 -0.0825
 5627W        W 9691   7.407   9.662   9.727  0.4536  0.1826  0.2264
 5628W        W 9692   2.162   7.241   9.649  0.0751  0.2852  0.2061
 5629W        W 9693   2.995   9.204   0.565  0.1599 -0.1974 -0.1574
 5630W        W 9694   3.843   3.775  10.311  0.0038 -0.2805  0.2698
 5631W        W 9695   4.051   4.689  10.907 -0.1597 -0.2006 -0.0965
 5632W        W 9696   8.452   4.691   1.304  0.2506 -0.0325  0.0882
 5633W        W 9697   7.689   5.557   3.283 -0.1850  0.0341 -0.1361
 5634W        W 9698   6.772   9.688   1.283  0.0790 -0.2288 -0.0486
 5635W        W 9699   0.591   3.071   9.871 -0.1231 -0.0184  0.2295
 5636W        W 9700  10.688   2.326   3.005  0.1692  0.0152  0.1755
 5637W        W 9701   0.108   5.173   1.422  0.0651 -0.2133 -0.1744
 5638W        W 9702   7.541   9.921   3.619  0.2288 -0.0423 -0.1007
 5639W        W 9703   5.061   9.698   1.417 -0.2058  0.1508 -0.0473
 5640W        W 9704   1.984   6.158   1.021 -0.0166  0.1232 -0.0286
 5641W        W 9705   0.142   3.502   7.759 -0.2303  0.3008  0.1544
 5642W        W 9706   3.641   1.118   1.015 -0.1021 -0.1438  0.1302
 5643W        W 9707   2.220  10.275   0.246 -0.0253 -0.1422 -0.0707
 5644W        W 9708   1.563   5.712   8.707  0.0561 -0.1029 -0.1493
 5645W        W 9709   7.048   3.189   8.551  0.1608 -0.2501  0.1647
 5646W        W 9710   8.595   2.016  11.259  0.0069 -0.1116 -0.0037
 5647W        W 9711  10.391   8.554   9.820 -0.2994 -0.1172 -0.2286
 5648W        W 9712   0.596   5.130   1.509  0.1001 -0.0509  0.2219
 5649W        W 9713   6.927   8.182   9.786 -0.3399  0.0356  0.0670
 5650W        W 9714   6.827  10.437   8.653 -0.0351  0.0033 -0.1480
 5651W        W 9715  10.561   9.985   9.447 -0.1341 -0.0620 -0.1104
 5652W        W 9716   4.058   0.020   2.229 -0.1932 -0.2162 -0.3794
 5653W        W 9717   0.685   1.360   0.291 -0.5696  0.1383 -0.0922
 5654W        W 9718   5.300   9.159  10.620  0.0673 -0.0897  0.0368
 5655W        W 9719   4.910   9.586  10.586 -0.1987 -0.2758  0.2038
 5656W        W 9720   8.050   5.123   1.619 -0.0374  0.3012  0.3105
 5657W        W 9721   2.972   3.707   2.465  0.2336 -0.0667  0.4042
 5658W        W 9722   5.439   8.305   3.147  0.1790  0.0341  0.2111
 5659W        W 9723   2.513   4.672   8.133 -0.1582  0.1958 -0.2860
 5660W        W 9724   2.703   5.577   9.401 -0.4045 -0.2017  0.0051
 5661W        W 9725   0.169   4.903   9.917 -0.1399 -0.1016  0.3448
 5662W        W 9726   6.412   1.945  10.359 -0.4459 -0.0207 -0.0621
 5663W        W 9727   2.353   1.372   2.710 -0.0861 -0.0713  0.1757
 5664W        W 9728   7.179   4.609   8.622 -0.3058  0.0477  0.0444
 5665W        W 9729   2.613   9.546   0.864  0.0577 -0.1610  0.1643
 5666W        W 9730   2.932   2.604   0.736  0.1095 -0.3221 -0.0120
 5667W        W 9731   5.292  10.354   2.953  0.2169 -0.2592  0.1531
 5668W        W 9732   4.297   3.726   1.628 -0.0151  0.0146  0.0306
 5669W        W 9733   3.686   0.192   0.411  0.2606 -0.3419  0.2715
 5670W        W 9734   1.699   8.156   2.482 -0.2619  0.1568 -0.0234
 5671W        W 9735   1.256   7.618   0.998 -0.2682  0.0050 -0.2540
 5672W        W 9736   6.579   0.461  10.650  0.0654 -0.2711 -0.0323
 5673W        W 9737   5.590   4.439   0.305 -0.1219  0.0057 -0.0249
 5674W        W 9738  10.532  10.136   8.919  0.0199  0.0659  0.2802
 5675W        W 9739   9.328   0.828   1.278 -0.0663 -0.0029 -0.1074
 5676W        W 9740   8.914   7.715   9.443  0.2813  0.0002 -0.0290
 5677W        W 9741   2.932   6.916   2.655  0.3396 -0.1079 -0.2046
 5678W        W 9742   3.494   8.130  10.197  0.0705 -0.1656  0.1911
 5679W        W 9743   3.295   0.348  10.814 -0.0422  0.0654  0.0534
 5680W        W 9744   5.497   8.033   1.937  0.0888  0.1052 -0.0400
 5681W        W 9745   1.835   9.755   1.362 -0.0738 -0.1124 -0.1446
 5682W        W 9746   6.732   5.024   0.252 -0.1095  0.0479 -0.3827
 5683W        W 9747   6.038   7.640   8.285 -0.1165  0.4373 -0.0371
 5684W        W 9748   4.986   2.971   9.712  0.0711  0.2781  0.0077
 5685W        W 9749   0.631   7.584   8.505  0.0555  0.0183  0.1987
 5686W        W 9750   0.761   7.201   8.177  0.1499 -0.0664  0.1043
 5687W        W 9751   4.686   1.240   1.070 -0.2614  0.0356 -0.0274
 5688W        W 9752   4.851   4.571   1.382 -0.0357 -0.0323 -0.1773
 5689W        W 9753   0.979   4.783  10.839 -0.0873 -0.0464  0.1509
 5690W        W 9754   3.434   9.768   8.588  0.0116 -0.2550  0.0629
 5691W        W 9755   6.560   5.553   8.168  0.0233 -0.2195 -0.4277
 5692W        W 9756   8.767   1.697   1.281 -0.1777 -0.1705 -0.3002
 5693W        W 9757   2.466   0.705   9.173  0.0462 -0.3389 -0.0195
 5694W        W 9758   7.415   9.780  10.278  0.1699  0.3584  0.0254
 5695W        W 9759   5.863   6.123  10.374 -0.3845 -0.1716  0.0167
 5696W        W 9760   3.947   4.271  10.368  0.4027  0.1969  0.1330
 5697W        W 9761   4.938   1.275   1.567 -0.3035  0.0981  0.1676
 5698W        W 9762   9.057   6.336   9.583  0.0494 -0.0680 -0.0626
 5699W        W 9763   9.282   5.694  10.624  0.3040  0.0118  0.2937
 5700W        W 9764   1.145   0.480  10.184  0.1912 -0.0063 -0.2594
 5701W        W 9765   7.145  10.330  10.917 -0.1667 -0.2939  0.1193
 5702W        W 9766   8.541   8.875   9.426 -0.0484 -0.1645 -0.0791
 5703W        W 9767   9.165   9.032   2.727  0.1684 -0.1277  0.0016
 5704W        W 9768   4.847   2.151   7.326 -0.0114 -0.0527 -0.0052
 5705W        W 9769   5.834   4.429   2.910  0.3328 -0.1394 -0.1327
 5706W        W 9770   7.487   4.118  10.474 -0.0123  0.0569 -0.1650
 5707W        W 9771   3.405   8.321   2.751 -0.0683  0.1111 -0.0953
 5708W        W 9772   8.066   4.830  10.481 -0.0033  0.1951 -0.2420
 5709W        W 9773   9.632   9.783   6.157 -0.0887 -0.2371  0.0333
 5710W        W 9774   1.527   4.484   2.347 -0.0387 -0.0672  0.2668
 5711W        W 9775   5.493   0.947  10.328  0.1197 -0.2768 -0.0288
 5712W        W 9776   6.951   8.652   9.480 -0.0864 -0.1867 -0.2282
 5713W        W 9777   4.948   0.535   9.005  0.0762 -0.1358 -0.1790
 5714W        W 9778   7.438   6.998  10.606  0.2847 -0.0747  0.2469
 5715W        W 9779   1.708   9.238   8.524  0.1964 -0.1579 -0.1963
 5716W        W 9780   9.857   4.012   2.037  0.0356  0.1993 -0.0382
 5717W        W 9781   2.745   6.954   1.995 -0.1597 -0.3736  0.1230
 5718W        W 9782   6.423   6.702  10.999  0.0080 -0.0246  0.2351
 5719W        W 9783   8.371  10.590   2.556 -0.1141 -0.1033 -0.3666
 5720W        W 9784   1.277   8.680   1.261 -0.0129 -0.0508  0.2190
 5721W        W 9785   9.292  10.425   0.937  0.1659  0.1589 -0.1390
 5722W        W 9786   7.031   4.190   2.338  0.4052 -0.2253 -0.0871
 5723W        W 9787  10.278   8.833   1.281  0.2917  0.0364 -0.1803
 5724W        W 9788   5.515  10.012   3.256  0.2338  0.3224  0.2853
 5725W        W 9789   5.787   0.486   2.851  0.0232  0.2354  0.0728
 5726W        W 9790   2.517  10.399   9.493 -0.1227 -0.1654  0.2161
 5727W        W 9791   3.917   6.146  10.868 -0.2754  0.0562  0.0773
 5728W        W 9792   3.605  10.758  10.945  0.2089  0.1787  0.2936
 5729W        W 9793   5.429   5.037   2.474  0.2221 -0.1971 -0.2115
 5730W        W 9794   7.281  10.721   9.148  0.0616  0.0656 -0.1941
 5731W        W 9795   3.485   4.854   7.756  0.3745  0.3286  0.0786
 5732W        W 9796  10.690   3.482   8.706 -0.2091  0.0292  0.1150
 5733W        W 9797   3.081   4.842   8.176 -0.1688  0.3120  0.0279
 5734W        W 9798   1.356  10.169  11.242 -0.0173  0.1986  0.1400
 5735W        W 9799   5.333   3.690   0.445  0.0960 -0.1115 -0.1123
 5736W        W 9800   8.129   0.556   0.684 -0.0457  0.0237 -0.1973
 5737W        W 9801  10.353   0.154   9.734 -0.3163 -0.1721  0.0987
 5738W        W 9802   6.265   3.769   0.199  0.0672  0.0751 -0.3175
 5739W        W 9803   6.350   2.211   8.048  0.3190 -0.1346  0.1266
 5740W        W 9804   9.310   4.146   0.225  0.0058 -0.0829 -0.1700
 5741W        W 9805   8.693   1.277   1.576 -0.1381  0.0331 -0.2062
 5742W        W 9806   4.538   1.351   9.254  0.1341 -0.4417  0.1378
 5743W        W 9807   2.268   6.374   9.853  0.1325 -0.6359 -0.0334
 5744W        W 9808  10.649   3.959   2.582 -0.0379 -0.1668  0.1122
 5745W        W 9809   5.500   6.244   7.928 -0.1246  0.0047  0.0760
 5746W        W 9810   5.497   9.170   2.057 -0.1202 -0.0402 -0.1639
 5747W        W 9811   0.146   6.087   2.525 -0.0535  0.0737 -0.2203
 5748W        W 9812   5.491   0.467  10.099 -0.0134 -0.0338 -0.0272
 5749W        W 9813   0.492   9.211   2.684  0.1732 -0.0026  0.1384
 5750W        W 9814  10.621   3.756   0.109  0.0616  0.1910 -0.2717
 5751W        W 9815   4.830   5.429   8.274  0.2913 -0.1975 -0.1131
 5752W        W 9816   7.760  10.473   9.117  0.0509 -0.2418  0.3025
 5753W        W 9817   1.068   1.500   3.654 -0.0037  0.1406  0.0348
 5754W        W 9818   3.186   3.551   0.331  0.2146  0.0242  0.1051
 5755W        W 9819   5.917   4.348   2.378 -0.1467  0.0998  0.1501
 5756W        W 9820   7.582   6.206   1.295  0.0116  0.1220  0.0553
 5757W        W 9821   9.796   9.705   2.233  0.2794 -0.2409 -0.1911
 5758W        W 9822   7.134   3.403   9.651  0.0875 -0.1433  0.1687
 5759W        W 9823   4.004   6.872  10.809 -0.0992 -0.1259  0.0101
 5760W        W 9824   3.334   2.653   7.596  0.2547  0.1439 -0.0777
 5761W        W 9825   8.759   4.894  10.627 -0.0816 -0.0120 -0.1041
 5762W        W 9826   0.028   3.836   1.910  0.0204  0.1485  0.2467
 5763W        W 9827   1.057   6.463   3.591  0.1455 -0.1207  0.2948
 5764W        W 9828   0.768   8.538   8.971  0.1645  0.1409  0.2356
 5765W        W 9829   9.738   6.808   9.889 -0.0542 -0.0076  0.2651
 5766W        W 9830   1.684   7.970   0.001  0.0120 -0.1845  0.2074
 5767W        W 9831   9.260   1.937   0.099  0.0005  0.0779  0.0356
 5768W        W 9832   4.515   6.954   9.841 -0.2104 -0.1642  0.0737
 5769W        W 9833   4.186  10.006   2.890  0.1719 -0.1130 -0.0149
 5770W        W 9834   1.366   6.018   7.671  0.1062 -0.1834 -0.1865
 5771W        W 9835   2.448   3.109   9.929  0.0280  0.0299 -0.0596
 5772W        W 9836   2.767  10.046   0.890 -0.2053  0.0714 -0.0788
 5773W        W 9837   3.253   3.254   9.020 -0.1437 -0.1220  0.1436
 5774W        W 9838   4.946   7.208  11.135  0.2646 -0.3402 -0.0717
 5775W        W 9839   9.993   4.021   8.266 -0.1203 -0.0806  0.2847
 5776W        W 9840   7.835  10.320   1.567 -0.0683  0.1562 -0.1599
 5777W        W 9841   9.749   3.393   0.256 -0.1601  0.5265  0.0605
 5778W        W 9842   2.784   9.222   7.965 -0.4419  0.0899  0.1597
 5779W        W 9843   2.481   0.667  11.161  0.1524 -0.0777  0.0200
 5780W        W 9844   7.512   8.828   9.255 -0.1461 -0.1516 -0.1718
 5781W        W 9845   4.034   6.481  10.446 -0.3241 -0.1921 -0.0039
 5782W        W 9846   6.233   0.634   1.596 -0.1711 -0.1819 -0.0228
 5783W        W 9847   5.294   9.791   8.700  0.2544 -0.2119 -0.0876
 5784W        W 9848   1.567   6.972   1.544 -0.2520 -0.0462 -0.2394
 5785W        W 9849  10.446   1.744  10.140 -0.0556 -0.1417 -0.4407
 5786W        W 9850   6.292   6.423   2.067  0.0280 -0.1515  0.0593
 5787W        W 9851   2.683   8.049   2.387  0.1470  0.0480 -0.2216
 5788W        W 9852   6.677   1.566   3.178 -0.1181  0.0099 -0.0582
 5789W        W 9853   1.609   0.568   1.579  0.0889  0.0466 -0.0343
 5790W        W 9854   5.043   6.644   7.961 -0.0935  0.1186 -0.0739
 5791W        W 9855   7.383  10.129   3.203 -0.0208 -0.0906  0.0313
 5792W        W 9856   4.012   4.077   9.874  0.1139 -0.1615 -0.1470
 5793W        W 9857   3.384   2.309   2.804  0.1410  0.0453 -0.0076
 5794W        W 9858   6.889   1.719   8.535 -0.1696  0.2910  0.1134
 5795W        W 9859   1.500   0.059   1.682  0.0408 -0.1654  0.4576
 5796W        W 9860  10.244   2.391   2.750 -0.1531 -0.0428 -0.0898
 5797W        W 9861   7.591   4.039  11.331 -0.1416 -0.3071 -0.1928
 5798W        W 9862   6.917   2.307   8.593  0.1994 -0.1467 -0.2054
 5799W        W 9863   6.859   1.909   2.604 -0.0875 -0.0251  0.0840
 5800W        W 9864   9.086   5.989   3.147 -0.0615  0.0335 -0.3150
 5801W        W 9865   6.162   1.092   1.274  0.2493 -0.0339  0.0579
 5802W        W 9866   0.907   8.362   0.198  0.0305  0.1191 -0.0483
 5803W        W 9867   5.942   8.885   1.915  0.2994  0.1124 -0.0152
 5804W        W 9868   1.841   0.275  10.073 -0.1032  0.1453 -0.3689
 5805W        W 9869   5.571   4.474  10.775 -0.3460  0.3877  0.1085
 5806W        W 9870   4.681   2.638   1.720 -0.0913  0.0697 -0.1237
 5807W        W 9871   8.285   4.425   2.431 -0.1927 -0.0632 -0.0686
 5808W        W 9872   7.308   9.808   9.243  0.0238 -0.1330 -0.1147
 5809W        W 9873   1.552   7.765   8.456  0.1108 -0.0468  0.4539
 5810W        W 9874  10.062   9.501   2.708  0.2487 -0.0269 -0.1650
 5811W        W 9875   9.762   9.229   2.363 -0.0577  0.0639  0.2085
 5812W        W 9876   5.143   7.101   1.851 -0.2422 -0.3129 -0.0285
 5813W        W 9877   1.296   5.892  10.870 -0.0396  0.0179 -0.0153
 5814W        W 9878   5.978   2.251   1.878 -0.2053 -0.1300 -0.1319
 5815W        W 9879   7.251   9.292   3.186  0.0474  0.0274  0.0090
 5816W        W 9880   6.706  10.696   7.654  0.0957 -0.3116  0.0305
 5817W        W 9881   1.037   4.318   7.960 -0.0187  0.3395  0.2088
 5818W        W 9882   4.558   6.783   8.110  0.1982 -0.0605 -0.0638
 5819W        W 9883   8.154   4.506  10.921 -0.1698  0.2023 -0.2646
 5820W        W 9884   9.670  10.016   8.985  0.1430  0.0701 -0.0518
 5821W        W 9885   2.991   2.680   2.269  0.1551  0.2883  0.2936
 5822W        W 9886   0.840   7.976   8.819  0.0028  0.0050  0.0096
 5823W        W 9887   2.844   0.796  10.747 -0.1720  0.1505  0.0256
 5824W        W 9888  10.458   4.531   9.339  0.1288 -0.0631  0.2353
 5825W        W 9889   4.661   7.849   7.324  0.0022 -0.1526  0.1257
 5826W        W 9890   6.223   3.684  10.657  0.0416 -0.1197 -0.2277
 5827W        W 9891   6.913   4.656  11.363 -0.0642  0.2295  0.0177
 5828W        W 9892   2.669   5.430   1.240 -0.2258 -0.1288  0.0942
 5829W        W 9893   1.592   1.274   3.472  0.0125 -0.1608 -0.0391
 5830W        W 9894   7.243   2.555   7.397 -0.1483  0.1372 -0.1035
 5831W        W 9895  10.121   2.321  10.496  0.2603 -0.1938  0.2684
 5832W        W 9896   8.709   5.260  11.052  0.1040 -0.1375  0.0406
 5833W        W 9897   1.622   4.005   0.175 -0.1514  0.0135 -0.0166
 5834W        W 9898   1.765   0.997   2.744 -0.4092  0.0050 -0.2513
 5835W        W 9899   4.049   2.970   1.358 -0.3164 -0.3341 -0.0248
 5836W        W 9900   6.349  10.416   2.452  0.2073 -0.1508  0.1374
 5837W        W 9901   2.360   9.125   2.467  0.0346 -0.2797  0.0229
 5838W        W 9902   3.402   3.397   8.241  0.3734  0.0624 -0.2517
 5839W        W 9903   2.871   0.094   1.911  0.2366 -0.2431  0.1614
 5840W        W 9904   5.785   0.195   1.685  0.0337  0.1930  0.0292
 5841W        W 9905  10.130   8.884   1.760  0.0040 -0.0641  0.2225
 5842W        W 9906   9.698   4.231   0.698 -0.0803 -0.1035 -0.1299
 5843W        W 9907   5.516  10.063   9.920  0.1042 -0.0768 -0.1232
 5844W        W 9908   5.573   2.115   2.132  0.0922  0.2309 -0.2520
 5845W        W 9909   6.916   8.524   8.323 -0.3423  0.0694  0.2077
 5846W        W 9910   1.240   9.140   0.159  0.0857  0.3720  0.3583
 5847W        W 9911   4.185   6.168   1.309 -0.0676  0.0720  0.3791
 5848W        W 9912   6.259   9.630   1.179 -0.0274  0.0998  0.0872
 5849W        W 9913   5.325   7.352   2.720  0.0874  0.0291  0.1120
 5850W        W 9914   4.807   5.022   1.163 -0.1713 -0.3434 -0.2980
 5851W        W 9915  10.454   1.458   7.934 -0.3617  0.0615  0.1091
 5852W        W 9916   9.715   9.884   0.028 -0.0617 -0.2243 -0.2008
 5853W        W 9917   0.590   3.472   8.113  0.0506  0.2282 -0.1841
 5854W        W 9918   6.465   7.388   8.093  0.1314  0.0364  0.0049
 5855W        W 9919   1.760   3.413   0.141 -0.3737 -0.0726  0.1290
 5856W        W 9920   3.566   9.192  10.104 -0.0685  0.0195  0.1362
 5857W        W 9921   7.444  10.430   0.803 -0.0636 -0.1593  0.1809
 5858W        W 9922   3.334   2.065   8.294  0.0135  0.0072  0.1850
 5859W        W 9923   1.914   5.564   2.952 -0.3557 -0.3162  0.1261
 5860W        W 9924   5.872  10.331   9.348  0.0853  0.0346 -0.1142
 5861W        W 9925   0.540   2.364   8.965  0.0211  0.0523 -0.3406
 5862W        W 9926  10.112   3.095   2.447  0.0457  0.0207  0.3570
 5863W        W 9927   4.239   5.648   9.980 -0.3345 -0.1324 -0.0873
 5864W        W 9928   4.273   1.836   1.931  0.4032 -0.0504  0.2184
 5865W        W 9929   5.148   5.496   0.185  0.2266 -0.0432  0.2145
 5866W        W 9930   8.226   9.749   7.758  0.2301  0.3185 -0.1265
 5867W        W 9931   5.041   0.506   0.456  0.1015 -0.3477  0.3457
 5868W        W 9932  10.564   6.395   2.718 -0.2993 -0.0443  0.3241
 5869W        W 9933   7.523  10.156  10.602  0.0685  0.2518  0.2538
 5870W        W 9934   9.782   0.919   0.812  0.2063 -0.1588 -0.0457
 5871W        W 9935   8.389   4.668   0.801  0.4981  0.2980 -0.1560
 5872W        W 9936   5.220   4.616   3.668 -0.3553 -0.2251 -0.1730
 5873W        W 9937  10.279  10.650   0.147  0.0183 -0.0482 -0.1666
 5874W        W 9938   7.787   8.579   8.891  0.2543 -0.3298  0.2738
 5875W        W 9939   2.754   6.477   1.732 -0.0806 -0.2273 -0.0088
 5876W        W 9940   3.222   6.143   8.678  0.1179  0.1184  0.2421
 5877W        W 9941   6.116   8.258   9.142  0.2204  0.1373 -0.1779
 5878W        W 9942   8.627   1.902   3.800 -0.1230  0.0527 -0.0109
 5879W        W 9943   7.849   3.355   8.116 -0.2264 -0.2105 -0.0700
 5880W        W 9944   1.738   6.195   8.769  0.2765 -0.0887  0.2763
 5881W        W 9945   1.252   0.343   1.313  0.0954 -0.0863 -0.2501
 5882W        W 9946   0.040   9.386   0.432 -0.0415  0.0903  0.0981
 5883W        W 9947   0.876   7.136   0.062 -0.0308  0.1772  0.1257
 5884W        W 9948   1.319   3.576   0.026 -0.4430 -0.0119 -0.2139
 5885W        W 9949   9.190   1.415   1.366  0.0073  0.3582 -0.1797
 5886W        W 9950   1.021   5.916  10.127 -0.1566  0.2209  0.1962
 5887W        W 9951   0.231  10.599   8.459 -0.1998  0.0064  0.1525
 5888W        W 9952   2.107   7.815   7.646  0.1128  0.1826  0.1871
 5889W        W 9953   7.603   1.202   0.043  0.0436  0.5068 -0.0434
 5890W        W 9954   7.537   4.396   9.634 -0.0665 -0.0876  0.0266
 5891W        W 9955   2.420   8.452   0.151 -0.0596  0.0653  0.0051
 5892W        W 9956   1.640   2.527   8.264 -0.1992  0.2240  0.1110
 5893W        W 9957   7.146   2.869   1.082  0.1271 -0.1403 -0.1343
 5894W        W 9958   4.649   3.319   0.193 -0.0952  0.2079 -0.1411
 5895W        W 9959   9.716   5.553   1.178 -0.0225 -0.3210 -0.1961
 5896W        W 9960   6.716   5.213   4.058 -0.1958 -0.1704 -0.1751
 5897W        W 9961   8.850   8.439  11.095 -0.0614  0.2123  0.1804
 5898W        W 9962   7.187   8.635  11.278  0.0200  0.2202  0.2533
 5899W        W 9963   3.984   4.593   7.742 -0.1173 -0.0505 -0.4659
 5900W        W 9964   3.233   8.754  10.390  0.2775  0.2068 -0.5256
 5901W        W 9965   2.958   5.738   7.963 -0.1455 -0.0788  0.2972
 5902W        W 9966   3.756   6.947   1.587  0.1809  0.1127 -0.2699
 5903W        W 9967   7.485   6.128   2.890 -0.1204 -0.1917 -0.0831
 5904W        W 9968   6.247   7.646   2.326 -0.2942 -0.0667  0.0925
 5905W        W 9969   6.620   2.654  11.181 -0.0683  0.4498 -0.1796
 5906W        W 9970   8.189   3.826   7.431  0.2776 -0.1377  0.0658
 5907W        W 9971   7.346   4.256   1.937 -0.2140 -0.2000 -0.2215
 5908W        W 9972   4.783   4.963   9.272 -0.0174 -0.1045  0.2988
 5909W        W 9973   4.941   0.051  10.381  0.2978  0.1309 -0.0034
 5910W        W 9974   1.302   0.548   0.277 -0.2120  0.1897  0.2869
 5911W        W 9975   4.106   3.161   8.846  0.1557 -0.1614  0.1771
 5912W        W 9976   8.152   4.813  11.342  0.0516 -0.3153  0.0933
 5913W        W 9977   0.035   8.308   3.057 -0.1964 -0.0776 -0.4244
 5914W        W 9978   6.855   1.805   0.522  0.0911 -0.2856 -0.1702
 5915W        W 9979   2.616   6.595   7.461 -0.0924 -0.3211  0.0990
 5916W        W 9980  10.574   7.698  11.096  0.1492 -0.1315  0.0524
 5917W        W 9981   9.131   1.124   0.882  0.0351 -0.2664  0.2376
 5918W        W 9982   0.963   3.357   9.696  0.0773 -0.0334 -0.1074
 5919W        W 9983   0.836   7.740   0.805 -0.0831 -0.2956 -0.1398
 5920W        W 9984   1.752   6.337   7.675 -0.0037 -0.0745 -0.2823
 5921W        W 9985   7.105   4.893   7.739 -0.0837 -0.0450 -0.1676
 5922W        W 9986   0.400   1.878   1.062 -0.3244  0.1129 -0.2745
 5923W        W 9987   1.698   7.093  10.099 -0.2150 -0.0064  0.0864
 5924W        W 9988  10.740   1.819   2.121  0.2181 -0.4512  0.2393
 5925W        W 9989   0.062   8.844  11.190  0.0251  0.2613 -0.0177
 5926W        W 9990   9.648   6.392  10.152 -0.1894  0.0723  0.2089
 5927W        W 9991   0.097   6.735  10.359 -0.1803 -0.0950  0.3823
 5928W        W 9992   5.952   6.461   0.645  0.1255 -0.2065  0.1623
 5929W        W 9993   1.535   7.373   7.271  0.0195  0.0659  0.2510
 5930W        W 9994   1.743   6.206  10.661  0.1529  0.0239 -0.0424
 5931W        W 9995   0.516   2.986   7.868 -0.3815  0.2923 -0.1631
 5932W        W 9996   8.823   3.526   8.929 -0.1082  0.0342 -0.0197
 5933W        W 9997   0.192   3.309  10.165  0.2358 -0.0119  0.1906
 5934W        W 9998   7.740   6.823   7.406 -0.2927 -0.0556 -0.0792
 5935W        W 9999   6.349   9.069   0.059 -0.0079 -0.0343 -0.0505
 5936W        W10000   6.898   4.729   0.588 -0.4629  0.1239  0.0401
 5937W        W10001   4.255   9.092   9.570 -0.2295  0.0032  0.1450
 5938W        W10002   2.054  10.534  11.197 -0.4410 -0.0253 -0.5497
 5939W        W10003   9.325   7.754  10.881 -0.3833 -0.0820  0.2274
 5940W        W10004   2.184   0.887   8.665 -0.2076 -0.1931  0.0805
 5941W        W10005   7.590   0.745  10.371  0.2044  0.1858 -0.2133
 5942W        W10006   0.497   5.940   9.295  0.1663  0.0597  0.0656
 5943W        W10007   6.905   4.667   2.143 -0.1451 -0.3553 -0.0065
 5944W        W10008   9.285   4.265  11.115  0.0146  0.1133  0.2489
 5945W        W10009   6.591   9.203   9.501 -0.1591  0.0942  0.1314
 5946W        W10010   2.363   4.478   6.388 -0.1479 -0.1712  0.1042
 5947W        W10011  10.471   1.583   0.437  0.0656  0.1619  0.0891
 5948W        W10012   2.513   9.602  10.976  0.1211 -0.1109  0.1057
 5949W        W10013   1.245   0.758   2.502 -0.2331 -0.1963 -0.2880
 5950W        W10014   2.925   0.828  10.036  0.0745  0.1511 -0.2965
 5951W        W10015   6.295   8.748   3.041  0.0126  0.3260  0.2292
 5952W        W10016   3.861   3.047  11.340 -0.1049 -0.2060  0.1944
 5953W        W10017   8.723   8.137   3.062 -0.0621  0.3319 -0.2668
 5954W        W10018   3.001   0.487   7.810 -0.1822 -0.1279 -0.2047
 5955W        W10019   7.445   0.193   2.093 -0.1047  0.1029  0.1367
 5956W        W10020   4.880   0.366   7.539 -0.0457  0.1718  0.0663
 5957W        W10021   1.154   7.374   9.549 -0.0971 -0.1308  0.1264
 5958W        W10022  10.458   8.973   0.307 -0.2369  0.0359 -0.1835
 5959W        W10023   3.245   3.414  11.130 -0.2817  0.1235 -0.2876
 5960W        W10024   7.670   5.324  11.024 -0.0761  0.1534 -0.0396
 5961W        W10025  10.352   3.922   1.665  0.1052 -0.1322  0.1198
 5962W        W10026   8.495   1.388   2.089 -0.0937  0.1879  0.0155
 5963W        W10027   4.034   1.886   2.499  0.4712  0.5324 -0.0396
 5964W        W10028   6.362   4.901   1.652  0.2913 -0.2924  0.0199
 5965W        W10029   5.922   1.305   9.608 -0.1645  0.0547  0.2092
 5966W        W10030   7.977   6.795   1.958 -0.1344 -0.1117 -0.1628
 5967W        W10031   7.989   2.464   3.393 -0.0702  0.1889  0.0483
 5968W        W10032   6.663   7.580   2.025  0.2019 -0.0589 -0.1777
 5969W        W10033   7.490   0.795   1.330 -0.1533 -0.0884 -0.1184
 5970W        W10034   1.824   5.368   7.776  0.0965 -0.1118 -0.0472
 5971W        W10035   6.995   4.174   8.540 -0.3044  0.0093  0.3256
 5972W        W10036   0.903   0.193   0.235  0.1723 -0.0905  0.0915
 5973W        W10037   5.708   3.862   0.987  0.1284  0.2824 -0.0209
 5974W        W10038   7.578   6.630  10.266  0.0923  0.1031  0.0071
 5975W        W10039   6.082   9.472   7.737  0.0314  0.4652  0.1715
 5976W        W10040   4.543   0.549   0.422  0.2587  0.2402 -0.0890
 5977W        W10041   0.508   4.237   1.966 -0.2533  0.1926 -0.1399
 5978W        W10042   0.508   6.094   1.633 -0.3961  0.1731 -0.1158
 5979W        W10043   3.580   6.100   0.338 -0.0881  0.2878  0.1997
 5980W        W10044   6.737   2.620   7.182  0.1444  0.0301 -0.1019
 5981W        W10045   0.205   6.700   1.464 -0.0090 -0.2207  0.4184
 5982W        W10046   9.639   8.247   1.398  0.0339 -0.1721 -0.1981
 5983W        W10047  10.149   2.866  10.435  0.2708 -0.0286 -0.0796
 5984W        W10048   6.900   7.459   2.997 -0.1841  0.0004 -0.1163
 5985W        W10049   6.685   9.006   7.505  0.0017  0.0862 -0.1389
 5986W        W10050  10.343   4.789   0.114  0.3579 -0.0550  0.1108
 5987W        W10051   5.299   9.757   0.917 -0.1319 -0.2911  0.0203
 5988W        W10052   8.230   3.470   2.330 -0.0861  0.0999 -0.0778
 5989W        W10053   6.233   5.709   0.547  0.1552  0.3312  0.1168
 5990W        W10054   4.778   2.855   1.249  0.1747  0.1897 -0.3298
 5991W        W10055  10.083   5.602  10.359 -0.2239 -0.4107  0.0787
 5992W        W10056   9.267  10.227  11.061 -0.2800  0.0150 -0.2226
 5993W        W10057   8.768   4.085   9.052  0.3983 -0.3215 -0.0389
 5994W        W10058   5.150   0.279   0.018  0.1488 -0.2291 -0.2125
 5995W        W10059   5.985   6.118   3.235 -0.0951  0.2091 -0.2391
 5996W        W10060   7.703   3.985  10.053  0.1108 -0.2307 -0.1744
 5997W        W10061   8.402   6.201  10.222 -0.0519 -0.1838  0.1086
 5998W        W10062   0.240   1.130   3.692  0.0551 -0.1061  0.2109
 5999W        W10063   2.601   1.776   2.892  0.0477 -0.0675 -0.0569
 6000W        W10064   4.237   6.312   8.219  0.0698 -0.1590  0.0650
 6001W        W10065  10.300   5.924   0.257 -0.2330 -0.3192  0.1406
 6002W        W10066   1.523   1.796   3.687 -0.1142  0.2561 -0.0595
 6003W        W10067   5.043   1.734  10.133  0.0941 -0.4021  0.0364
 6004W        W10068   1.090   9.104   9.362 -0.1295 -0.3484 -0.1768
 6005W        W10069   8.771   3.015  10.109  0.0388 -0.1558 -0.0831
 6006W        W10070   2.940   7.609   8.570 -0.0254  0.2337  0.0028
 6007W        W10071   2.628   7.556   0.649 -0.0473  0.1532 -0.3627
 6008W        W10072   6.149   7.206   0.871  0.6677 -0.0965  0.2294
 6009W        W10073   4.059  10.260   8.251  0.1518  0.2932 -0.1017
 6010W        W10074   9.669   8.636   8.770 -0.1574  0.1358 -0.0688
 6011W        W10075   3.790  10.554   1.397 -0.1466 -0.0112 -0.1145
 6012W        W10076   9.338   1.812   8.922 -0.0753 -0.0675  0.1728
 6013W        W10077   1.991   5.545   1.983 -0.1814  0.0060 -0.1684
 6014W        W10078   8.425   8.781   4.009  0.0194  0.1307 -0.0363
 6015W        W10079   6.634   3.258   7.938 -0.0573 -0.2271 -0.1392
 6016W        W10080   0.808   4.459   9.668 -0.0484  0.3380  0.2543
 6017W        W10081   0.500   2.106   9.471 -0.1421  0.3949 -0.1313
 6018W        W10082   8.415   7.873   9.410 -0.3035  0.1536  0.1497
 6019W        W10083   4.365   0.377   9.811 -0.0733 -0.2816 -0.0626
 6020W        W10084  10.492   0.427   0.978 -0.2167 -0.1360  0.2891
 6021W        W10085   9.726  10.595  11.358 -0.2024  0.1214 -0.1437
 6022W        W10086   4.050   1.653  10.415  0.1238 -0.2457 -0.1216
 6023W        W10087  10.185   5.307   8.345 -0.2080  0.1489  0.0975
 6024W        W10088  10.252   4.385   1.957  0.4025 -0.1258  0.3560
 6025W        W10089   4.529   0.061   1.965  0.1049  0.1360 -0.3741
 6026W        W10090   1.226   7.468   2.808 -0.2643  0.1984  0.0733
 6027W        W10091   6.307  10.721   9.857 -0.1538 -0.4846 -0.3703
 6028W        W10092   4.216   6.900   8.421  0.1537 -0.2084  0.1627
 6029W        W10093   1.200   0.174   8.931  0.3094 -0.4228  0.2924
 6030W        W10094   6.876   8.755   0.914 -0.3913  0.0421  0.1997
 6031W        W10095   3.035   5.811   0.653  0.0697 -0.0276 -0.1790
 6032W        W10096   6.474   5.378   2.540 -0.1330  0.2234 -0.4228
 6033W        W10097   9.819   7.135   9.424 -0.1894 -0.0354  0.1345
 6034W        W10098   6.516   5.952  10.935 -0.0949  0.1292  0.0238
 6035W        W10099   0.323   5.891   0.907 -0.2965  0.2726 -0.1041
 6036W        W10100   7.994   8.832  11.152  0.1529  0.2599 -0.0537
 6037W        W10101   1.855   7.461   1.069 -0.0638  0.0622  0.0701
 6038W        W10102   2.510   8.030   1.100 -0.2376  0.0383  0.2657
 6039W        W10103   9.611   9.903   8.453 -0.3563  0.2608 -0.1277
 6040W        W10104   6.116   1.219   8.167  0.0093  0.2897  0.2469
 6041W        W10105   9.028   7.917   2.732  0.1441  0.3780 -0.3866
 6042W        W10106  10.038   2.830   2.885  0.1181 -0.0591 -0.0074
 6043W        W10107  10.160   6.402  10.762  0.2396  0.0931  0.2170
 6044W        W10108   1.030   0.746   8.558  0.0683  0.1278 -0.1630
 6045W        W10109   2.470   1.045   1.788  0.0215 -0.4097  0.1360
 6046W        W10110   1.804   1.131  10.257 -0.4896 -0.0212 -0.0728
 6047W        W10111   5.279   4.807   1.293  0.0639  0.1334 -0.1582
 6048W        W10112   7.457   1.774   8.860  0.2149 -0.1279  0.1424
 6049W        W10113   2.146   7.258   7.783  0.0147  0.1169  0.2072
 6050W        W10114   9.923   5.076   0.346  0.1519  0.2531 -0.5131
 6051W        W10115   1.474   4.973  10.027  0.3087  0.0231 -0.0318
 6052W        W10116   5.923   5.544  10.428  0.3444  0.2467 -0.0348
 6053W        W10117   5.222   3.946   8.605 -0.0882  0.1492 -0.0477
 6054W        W10118  10.735  10.133   8.430 -0.0696 -0.2613 -0.1365
 6055W        W10119   4.195   1.575   8.934 -0.1497  0.1788  0.2922
 6056W        W10120   5.615   2.259   1.504  0.1841  0.0702 -0.0077
 6057W        W10121   2.891   5.549   2.414 -0.4496 -0.1305 -0.3242
 6058W        W10122   1.696  10.743   0.743 -0.0575 -0.4164 -0.0343
 6059W        W10123   6.908   3.393  10.109  0.0314  0.0189  0.0253
 6060W        W10124   5.407   4.363  11.214  0.1782  0.0922 -0.0468
 6061W        W10125   3.632   7.889   1.956  0.0573 -0.0925 -0.2657
 6062W        W10126   6.463   8.452   8.556 -0.0774  0.3179  0.0077
 6063W        W10127  10.732   7.390   2.259  0.3522  0.1041  0.0992
 6064W        W10128   4.082   9.506   1.599 -0.0895  0.2310 -0.0408
 6065W        W10129   8.236   5.035  10.934  0.1028 -0.0007  0.2970
 6066W        W10130   8.928   7.469  11.075  0.0247  0.0503 -0.1734
 6067W        W10131   3.251   6.584   8.012 -0.0109  0.0085  0.0248
 6068W        W10132   3.400   4.329   8.277  0.0066  0.0775 -0.0434
 6069W        W10133   5.552   5.253   1.521 -0.3432 -0.2308  0.1202
 6070W        W10134   9.495   9.345   0.018 -0.2564 -0.0472  0.1875
 6071W        W10135   0.135   6.232   1.305 -0.0744  0.2631  0.0346
 6072W        W10136   8.011   8.305   3.794 -0.3954  0.0975 -0.0329
 6073W        W10137  10.104   1.642   9.843 -0.2305  0.4091  0.2680
 6074W        W10138   2.186   4.296   2.960  0.0972  0.1449  0.0501
 6075W        W10139   9.678   9.062   2.831  0.0373  0.0273 -0.3078
 6076W        W10140   1.439   1.025   1.832 -0.0890  0.2628 -0.0083
 6077W        W10141   4.580   2.743   8.222  0.0037 -0.0010  0.0490
 6078W        W10142   4.458   1.367   2.685  0.2222  0.1887  0.2768
 6079W        W10143   6.655   4.002   0.390 -0.0633  0.0451 -0.1361
 6080W        W10144   9.800   7.613   0.550  0.1837 -0.0122 -0.4881
 6081W        W10145   7.431   7.776   8.958 -0.0442 -0.0742  0.3470
 6082W        W10146   5.343   8.103   0.252 -0.0659 -0.1332 -0.1574
 6083W        W10147   0.855   1.451   9.970 -0.1474 -0.1600 -0.3398
 6084W        W10148   7.465   5.769   7.275  0.0519 -0.0506  0.1241
 6085W        W10149   2.840   9.133   7.420 -0.0984 -0.1536 -0.1722
 6086W        W10150   5.316   7.762   1.051  0.0811  0.0198  0.0344
 6087W        W10151   0.315   8.488  10.881  0.3411  0.1552 -0.1201
 6088W        W10152   8.085   0.675   6.742 -0.1049 -0.1116  0.4019
 6089W        W10153   8.976   8.334   1.847 -0.2143 -0.1553 -0.3886
 6090W        W10154   3.231   3.921   2.812 -0.1922  0.0608 -0.0458
 6091W        W10155   1.456  10.513   2.201 -0.1338  0.0140 -0.1621
 6092W        W10156   4.185   0.349   8.599  0.1412 -0.1674 -0.4067
 6093W        W10157   4.442   4.809  10.101  0.0056 -0.3213  0.0663
 6094W        W10158   9.111   0.897   0.372  0.3382 -0.3548 -0.3257
 6095W        W10159   5.476  10.150   9.072 -0.1452  0.1453  0.1725
 6096W        W10160   6.719   2.501   9.173  0.0251 -0.0542  0.0054
 6097W        W10161   1.851   1.722   9.342 -0.2029 -0.0669 -0.2577
 6098W        W10162   3.461   3.860  11.159  0.0185  0.0084  0.2397
 6099W        W10163   5.898   9.362   8.893 -0.0599  0.2209 -0.2117
 6100W        W10164   1.088   7.890   3.634  0.2286  0.0508 -0.0297
 6101W        W10165   6.774   4.933   2.527  0.0294 -0.1072  0.0486
 6102W        W10166   5.530   2.509   8.270  0.4239 -0.0897 -0.1775
 6103W        W10167  10.691   1.933   9.516  0.1216 -0.0930  0.1160
 6104W        W10168  10.401   9.475   3.107  0.0165  0.0071 -0.2394
 6105W        W10169   7.798   7.228   0.073  0.2941 -0.0965  0.0263
 6106W        W10170   0.625   4.034  11.299 -0.1624 -0.1054  0.1303
 6107W        W10171   6.874   3.835   9.831  0.0747 -0.1648 -0.0342
 6108W        W10172   5.114   8.848   2.275  0.0949 -0.0999 -0.1030
 6109W        W10173   9.025   7.125   1.786  0.1975  0.3039  0.0536
 6110W        W10174   4.188   8.618   8.790  0.0602 -0.1716 -0.1768
 6111W        W10175   1.085   1.360   2.326  0.0261 -0.1312 -0.1441
 6112W        W10176   3.651   3.951   0.887  0.0028 -0.1421  0.0155
 6113W        W10177   2.614   7.004   0.599  0.2450  0.1045 -0.3151
 6114W        W10178   0.995   5.827   2.113 -0.2917 -0.1401  0.1268
 6115W        W10179   2.386   6.098   1.845 -0.3391 -0.1085 -0.0432
 6116W        W10180   9.015   7.416   9.942  0.3226 -0.1713 -0.0326
 6117W        W10181   4.473   7.371   3.004  0.1296 -0.1034 -0.4971
 6118W        W10182   8.576  10.147   0.340 -0.1912  0.0169 -0.1563
 6119W        W10183   6.693   6.929   8.184  0.0122  0.1549  0.2999
 6120W        W10184   0.844   8.614  11.006  0.0087  0.0592  0.0517
 6121W        W10185   6.715   7.281   9.378  0.2935  0.0288  0.0542
 6122W        W10186   4.799   8.040   9.866  0.2696  0.0390 -0.0168
 6123W        W10187   1.022   8.936   2.550 -0.1951 -0.0405 -0.0725
 6124W        W10188   8.855   0.846   2.514  0.0435  0.0673  0.0211
 6125W        W10189   9.329   6.782  11.335 -0.0941  0.1979 -0.0286
 6126W        W10190   9.198   8.565   8.436 -0.3041  0.0062 -0.1147
 6127W        W10191   7.124   6.554   1.284 -0.1447 -0.0495  0.0098
 6128W        W10192   8.421   7.320  11.123  0.4129 -0.0563 -0.3297
 6129W        W10193   5.489   7.289   2.206  0.1096  0.0155  0.0537
 6130W        W10194   6.584   4.963   9.173  0.1367 -0.1111 -0.2958
 6131W        W10195   6.561  10.443  10.209  0.3679  0.1602 -0.0424
 6132W        W10196  10.246   6.802   9.004 -0.2439 -0.1404  0.0601
 6133W        W10197   6.909   5.346   7.837 -0.2161  0.3092 -0.3649
 6134W        W10198   2.219   2.254  10.995 -0.0760 -0.0385 -0.1479
 6135W        W10199   9.174   9.987   8.761  0.1100  0.0391  0.0055
 6136W        W10200   9.988   4.976   2.785  0.0007 -0.3373  0.2897
 6137W        W10201   9.686   1.177   0.327 -0.2078  0.3325  0.0984
 6138W        W10202   0.103   1.792   7.827 -0.2527 -0.1799  0.1857
 6139W        W10203   4.168   9.252  10.835  0.3662 -0.0180  0.1820
 6140W        W10204   7.584   3.275   1.887  0.0567  0.0945 -0.3202
 6141W        W10205   4.051   6.121   0.154 -0.0294 -0.1256 -0.1080
 6142W        W10206   0.486   8.609   2.406 -0.0042 -0.0081  0.1481
 6143W        W10207  10.198  10.008   2.496 -0.1137  0.1228  0.0410
 6144W        W10208   1.512   7.977   8.904 -0.0004  0.0830 -0.2398
 6145W        W10209  10.575   2.032   2.591 -0.0130 -0.2803  0.0796
 6146W        W10210   4.502   4.709   9.514 -0.0933 -0.0822  0.3033
 6147W        W10211   6.392   7.179  10.830  0.0160  0.0793  0.3899
 6148W        W10212   3.889   2.087   9.890  0.0283  0.0324 -0.0078
 6149W        W10213   8.639   1.868   3.167 -0.2461  0.1256  0.3563
 6150W        W10214   8.267   4.516   7.618  0.3604 -0.0621 -0.3332
 6151W        W10215   6.472   7.164   2.225  0.0471 -0.0545 -0.1586
 6152W        W10216   4.345   9.917   1.862  0.1778  0.0495  0.1780
 6153W        W10217   6.835   6.998   1.941 -0.0182  0.1524  0.3826
 6154W        W10218   0.494   6.575   1.876 -0.1233  0.1131  0.2806
 6155W        W10219   4.548   4.178   9.183  0.1512 -0.1248  0.0747
 6156W        W10220   9.643   2.061  10.555  0.0231  0.2944 -0.1420
 6157W        W10221   8.340   1.708   6.822  0.0460 -0.1400 -0.2609
 6158W        W10222   4.208   0.650  10.457  0.0421 -0.1225  0.3262
 6159W        W10223   6.073   7.725   0.412  0.1278 -0.2110  0.0923
 6160W        W10224   3.680   1.872   0.547  0.2403  0.0860  0.0832
 6161W        W10225   8.008   2.282  10.419  0.0186 -0.0198 -0.1554
 6162W        W10226   6.835  10.655  10.547 -0.5146 -0.0554 -0.2298
 6163W        W10227   8.374   9.420  10.464 -0.1832 -0.0759 -0.0798
 6164W        W10228   8.869  10.592   0.441  0.0639  0.2115 -0.1757
 6165W        W10229   3.792   7.279  10.081  0.1482  0.1560 -0.0499
 6166W        W10230   3.500   2.007   2.425 -0.1393  0.1662 -0.1135
 6167W        W10231   0.641   3.520  10.078  0.1541  0.0506  0.1250
 6168W        W10232   6.508   0.977  10.536 -0.0872 -0.1226  0.0939
 6169W        W10233   6.021   0.130   9.503  0.1420  0.0775  0.0776
 6170W        W10234   4.398   1.785  10.801 -0.0778 -0.1264  0.1541
 6171W        W10235  10.357   7.090   2.016 -0.0486 -0.1102  0.0563
 6172W        W10236   9.200   7.459   4.048  0.2472 -0.2331 -0.1995
 6173W        W10237   0.157   2.234   9.853 -0.2084 -0.0187 -0.2224
 6174W        W10238   8.794   3.096   1.672  0.3186  0.2018 -0.2591
 6175W        W10239   6.160   5.254   2.990 -0.0373 -0.0031  0.2005
 6176W        W10240   0.185   2.609   7.711 -0.3078 -0.0245 -0.1506
 6177W        W10241   1.659   3.837   9.467 -0.1036 -0.1338 -0.0062
 6178W        W10242   7.975   4.378   1.368 -0.0459 -0.1820 -0.2633
 6179W        W10243   9.519   3.941   8.082 -0.5003 -0.3680 -0.1413
 6180W        W10244   4.389   2.941   9.898  0.0558 -0.1896 -0.1202
 6181W        W10245   9.529   2.057   2.648 -0.2066  0.1887  0.0794
 6182W        W10246   4.540   8.686   9.923  0.1012 -0.0708 -0.0051
 6183W        W10247   5.928   3.805  10.028 -0.1928  0.1010  0.1314
 6184W        W10248   2.771   0.976   1.347 -0.1087  0.0636 -0.0052
 6185W        W10249   0.369   8.341   3.613 -0.2007  0.0115  0.1177
 6186W        W10250   0.691  10.414   9.657  0.2028  0.0810  0.0983
 6187W        W10251   9.171   9.564   1.273 -0.0188 -0.1886  0.2742
 6188W        W10252   6.928  10.432   1.784 -0.3929 -0.1623 -0.3607
 6189W        W10253   6.816   9.970   9.380 -0.1643 -0.1661  0.3789
 6190W        W10254   0.843   5.918  11.151  0.1679 -0.0955  0.1051
 6191W        W10255  10.113   1.298   8.836  0.1873 -0.0407  0.0963
 6192W        W10256   7.179   8.056   7.619 -0.2294  0.0083  0.3328
 6193W        W10257   5.736   5.575   1.161 -0.2441  0.1001  0.3424
 6194W        W10258   2.235   9.885   0.874 -0.1028  0.0951  0.1947
 6195W        W10259   0.468   9.833   2.623 -0.0328 -0.0783  0.0060
 6196W        W10260   1.320  10.011   2.017 -0.1352  0.0482  0.0779
 6197W        W10261   0.292   5.729   8.501 -0.1740  0.1751  0.0608
 6198W        W10262   7.012   2.791   2.458  0.1113 -0.1113  0.1186
 6199W        W10263   9.704   9.623   9.346  0.0665  0.0359  0.3126
 6200W        W10264   3.414   4.769   9.031  0.2708 -0.0049 -0.2753
 6201W        W10265   7.791   5.676   2.796  0.0998 -0.2510 -0.2214
 6202W        W10266   2.767   1.855   1.254  0.1716  0.1227 -0.1262
 6203W        W10267   7.023   5.563  10.795 -0.0360  0.0902 -0.2896
 6204W        W10268   3.993   1.886   8.580 -0.0547  0.0430 -0.0347
 6205W        W10269   6.001   6.757  10.777 -0.0782  0.1653  0.0139
 6206W        W10270   1.586   9.068   9.464 -0.0287 -0.1371  0.0163
 6207W        W10271   2.080  10.265   7.392  0.2466  0.0510  0.1614
 6208W        W10272   9.631   2.708   1.358 -0.0176 -0.1224  0.3124
 6209W        W10273   7.405   3.157   1.385 -0.4122 -0.0410  0.1505
 6210W        W10274  10.628   2.695   1.254  0.3443 -0.1399  0.0909
 6211W        W10275   5.539   7.079   8.570  0.2242 -0.0638 -0.0475
 6212W        W10276   9.764   2.286   9.695 -0.2384  0.1478  0.1310
 6213W        W10277   8.661   3.205   0.569 -0.2578 -0.1899 -0.1402
 6214W        W10278   5.162   5.996   7.619  0.1262 -0.0931 -0.2690
 6215W        W10279   4.008   5.157   1.538 -0.4684 -0.2150  0.0062
 6216W        W10280  10.531   9.959   2.879  0.1365  0.1238 -0.4100
 6217W        W10281   5.458   9.661   2.266 -0.4725 -0.2999  0.2495
 6218W        W10282   3.595   3.534   8.647  0.0431  0.0429  0.1641
 6219W        W10283   5.030   9.969  10.848 -0.1083  0.2585 -0.2624
 6220W        W10284  10.595   1.246   2.719  0.5349 -0.0340  0.1652
 6221W        W10285   0.312   1.701   2.841  0.0635 -0.0089  0.0457
 6222W        W10286   3.853   0.208   7.733 -0.3165 -0.0551  0.2650
 6223W        W10287   5.437   4.285   7.402  0.1432  0.2501 -0.0009
 6224W        W10288   3.983   5.586   7.777 -0.0608  0.0259 -0.1248
 6225W        W10289   4.742   6.593   9.035 -0.1258  0.1154 -0.1538
 6226W        W10290   1.059   8.651   8.383  0.0526  0.0669 -0.0622
 6227W        W10291   6.495   9.752  10.847 -0.2665 -0.1764 -0.0475
 6228W        W10292   2.442   2.080   1.566  0.2114 -0.1827 -0.1821
 6229W        W10293   1.802   1.960   1.593  0.1276  0.0782 -0.0360
 6230W        W10294   8.752   3.104  10.638 -0.2110  0.0535  0.1233
 6231W        W10295   9.318   8.791   0.084 -0.0168  0.1209 -0.2780
 6232W        W10296  10.244   1.893   7.771  0.2342 -0.1987 -0.0251
 6233W        W10297   6.408   9.653   8.048  0.4704 -0.0402  0.0678
 6234W        W10298   9.584   7.660   2.851 -0.0621  0.0176  0.0949
 6235W        W10299   6.685   5.727   2.339  0.2886 -0.0731  0.3206
 6236W        W10300  10.593   2.135   7.021 -0.0675 -0.1675  0.1543
 6237W        W10301  10.584   2.362  10.242  0.0685 -0.0074 -0.1341
 6238W        W10302   9.116   0.179   8.935  0.0644 -0.3953  0.1243
 6239W        W10303   5.719   7.679   2.480  0.1089 -0.1330 -0.1864
 6240W        W10304   0.166   2.455  10.992  0.2627  0.1333  0.3524
 6241W        W10305   7.418   0.209   0.669  0.0666  0.0934 -0.3129
 6242W        W10306   3.264   1.688  10.450  0.1197  0.0745  0.0857
 6243W        W10307   8.120   0.456   9.110  0.0844  0.2278 -0.0768
 6244W        W10308   3.997   8.126   9.485 -0.1502  0.2840 -0.1668
 6245W        W10309   1.955   0.279   1.800  0.2737  0.2321  0.1266
 6246W        W10310   6.733   9.413   8.852  0.2004  0.0557  0.4010
 6247W        W10311   6.870   7.702   2.506 -0.0806  0.0080  0.0475
 6248W        W10312   1.492  10.480   8.230 -0.4067  0.0141 -0.1585
 6249W        W10313   4.677   5.441   2.461  0.2510 -0.1363  0.0632
 6250W        W10314   1.187   1.837   2.768 -0.0649  0.2108 -0.0820
 6251W        W10315   3.964   0.458   6.765  0.2959  0.0939  0.0045
 6252W        W10316   3.816   4.583   6.324  0.0866 -0.0477  0.1681
 6253W        W10317   2.684   2.242   8.482  0.1374  0.0327 -0.1493
 6254W        W10318   3.922   7.810  11.026  0.1380  0.0788 -0.0071
 6255W        W10319   1.231   4.785   2.647  0.0625  0.0557 -0.3359
 6256W        W10320   7.956   8.112   9.597 -0.1356 -0.3925 -0.0406
 6257W        W10321   1.175   8.201   3.280 -0.0105  0.1078  0.1257
 6258W        W10322   5.998   6.654   1.443  0.0800  0.1844 -0.0472
 6259W        W10323   5.427   4.330   9.020  0.1631  0.1445  0.1422
 6260W        W10324   3.155   0.596   8.695 -0.1308 -0.0141  0.1512
 6261W        W10325   7.882   6.278  10.149 -0.2197 -0.1103  0.3344
 6262W        W10326   5.180   0.071   7.303 -0.1721  0.0940  0.1224
 6263W        W10327   1.391   9.601   8.457 -0.1006  0.0407  0.0952
 6264W        W10328   8.353   5.632   0.913  0.3659  0.0198 -0.1104
 6265W        W10329   7.547   4.083   2.458  0.2905 -0.1273 -0.4828
 6266W        W10330   1.963   4.870  10.008  0.0404 -0.2941  0.2174
 6267W        W10331   1.106   0.208   2.276 -0.1094 -0.1570  0.0922
 6268W        W10332   5.794   2.822   3.111  0.0938 -0.2401  0.1040
 6269W        W10333   0.339   1.516   8.819 -0.0321  0.1742 -0.2696
 6270W        W10334   3.028   3.569   1.185  0.2878 -0.0362 -0.3426
 6271W        W10335   5.468   9.021   7.105 -0.3630  0.2205 -0.1908
 6272W        W10336   4.944   7.664  10.964 -0.2136  0.2926 -0.1904
 6273W        W10337   1.437   2.638   2.105  0.0402  0.0616  0.0762
 6274W        W10338   1.213   1.055   0.130 -0.1148  0.0217 -0.1162
 6275W        W10339   5.228   6.236   8.882 -0.1245 -0.1002  0.3927
 6276W        W10340   4.023   0.051   3.017 -0.1071  0.0746 -0.0357
 6277W        W10341   0.784   9.232   9.830  0.2173  0.1080 -0.0895
 6278W        W10342   9.842   7.586   3.850 -0.1162  0.0110  0.2828
 6279W        W10343   4.361   2.389   7.405 -0.2612 -0.0308  0.1683
 6280W        W10344   8.920   0.853  11.310 -0.2143  0.0616  0.3835
 6281W        W10345   5.157   8.420   8.282  0.1033  0.0664  0.3459
 6282W        W10346   4.086   2.942   3.118 -0.2903 -0.0401  0.0858
 6283W        W10347   3.282   3.737   3.722 -0.2085 -0.3841  0.1158
 6284W        W10348   7.058   2.783   0.011 -0.0915 -0.0025  0.1119
 6285W        W10349   5.212  10.457   0.779  0.0417  0.1796  0.0868
 6286W        W10350   7.334   1.672  10.546 -0.0046  0.2313 -0.2191
 6287W        W10351   0.670   9.046   9.112 -0.2495 -0.1851 -0.1424
 6288W        W10352   5.586   4.783   8.239  0.0361  0.1945  0.1070
 6289W        W10353   7.299  10.272   8.507 -0.1498 -0.1970  0.3129
 6290W        W10354   4.144   6.699   2.251  0.0249  0.4377 -0.1168
 6291W        W10355   8.594   2.104   8.079  0.1430  0.0536 -0.1519
 6292W        W10356   6.680   4.470  10.953 -0.2291  0.0271 -0.1648
 6293W        W10357   3.424   7.347   1.608 -0.0219 -0.2485 -0.0954
 6294W        W10358   8.973   9.361   7.606 -0.0358  0.0740  0.1810
 6295W        W10359   8.209   4.811   2.678  0.0553  0.1068 -0.1663
 6296W        W10360  10.074   8.536  10.989 -0.0538 -0.3407  0.3081
 6297W        W10361  10.286  10.408  11.056 -0.2582 -0.0971 -0.1023
 6298W        W10362   5.477   1.075   9.550  0.1782  0.2611 -0.0473
 6299W        W10363   1.054   4.500   8.965  0.0348 -0.1326  0.1029
 6300W        W10364   6.808   2.684   1.975 -0.3695 -0.0572 -0.1016
 6301W        W10365   0.144   0.043   9.774  0.0840 -0.1510  0.1976
 6302W        W10366   4.897   0.405   1.910 -0.1324  0.1469  0.1250
 6303W        W10367   8.827   5.042   9.585 -0.0831  0.1903  0.0978
 6304W        W10368   3.585   0.724   0.096 -0.1001 -0.1891 -0.3267
 6305W        W10369   9.478  10.381   8.682  0.0696 -0.0020 -0.0325
 6306W        W10370   7.049   0.901   1.099  0.1202 -0.0250 -0.0871
 6307W        W10371   0.993   6.228   0.680 -0.1609  0.0525 -0.0879
 6308W        W10372   2.200   6.281   8.661 -0.1262 -0.0246 -0.2613
 6309W        W10373   5.167   4.419   1.692  0.0234 -0.1078  0.1338
 6310W        W10374   0.133   2.489   8.698  0.1123  0.2109  0.3444
 6311W        W10375   3.932   3.542   1.340  0.0121  0.0018  0.1025
 6312W        W10376   6.453   8.940   0.555  0.1911 -0.0314  0.0480
 6313W        W10377   5.051   7.629   1.874 -0.1876  0.0350 -0.1324
 6314W        W10378   1.316   1.374   9.581  0.0239  0.2480  0.1039
 6315W        W10379   5.212   6.963   7.224  0.3868 -0.3845  0.0782
 6316W        W10380   6.799   2.069   8.160 -0.3553  0.2582  0.1269
 6317W        W10381   5.535   5.921   9.225 -0.2733 -0.2603  0.2895
 6318W        W10382   5.755   7.136   8.086  0.2532  0.0598  0.1126
 6319W        W10383   3.065   7.907  10.334  0.1137 -0.0857 -0.0394
 6320W        W10384   0.146   4.503   2.525  0.1115  0.1042 -0.1240
 6321W        W10385   3.299   1.191   3.026  0.0612 -0.2837  0.0848
 6322W        W10386   6.230   1.612   1.320  0.0043 -0.2075 -0.2526
 6323W        W10387   0.360   9.447   1.334 -0.1117 -0.0385 -0.1157
 6324W        W10388  10.056   3.668   0.518 -0.1302  0.1181  0.2167
 6325W        W10389   5.832   4.924  11.019  0.3464 -0.1025  0.1943
 6326W        W10390   8.265   9.968   1.642  0.0435 -0.0192  0.6409
 6327W        W10391   5.229   5.034  10.103 -0.2444  0.3776  0.1735
 6328W        W10392   7.360   7.914   2.468  0.1494 -0.0677 -0.0055
 6329W        W10393   3.789   8.733   2.639 -0.0758  0.1196  0.0317
 6330W        W10394   6.792   7.686   9.645  0.0380 -0.3553  0.1445
 6331W        W10395   0.977   9.047  10.554  0.3532  0.0891  0.0718
 6332W        W10396   9.535   9.801   7.927 -0.1770  0.3055 -0.0756
 6333W        W10397   0.630   3.478   0.841 -0.1450  0.1317 -0.3110
 6334W        W10398   5.032   5.210   2.735  0.0110 -0.1450 -0.0215
 6335W        W10399   0.790   5.487   0.081  0.2745 -0.2044  0.2153
 6336W        W10400   9.141   9.272  10.796  0.0189 -0.1864  0.1013
 6337W        W10401   4.611   4.918   6.893  0.0495 -0.1052  0.1872
 6338W        W10402   6.142   4.264   0.275 -0.0901  0.2491 -0.0433
 6339W        W10403   0.962   8.319   2.457  0.1136 -0.0156  0.2436
 6340W        W10404   1.140   3.083   1.074 -0.0034 -0.0042 -0.3834
 6341W        W10405   6.346   4.744   7.216  0.1772  0.1320  0.1462
 6342W        W10406   6.071   3.813   8.075 -0.1614  0.0494 -0.2220
 6343W        W10407   5.996   3.871   7.464 -0.0372  0.0908 -0.0565
 6344W        W10408   6.659   0.666   8.206  0.1355  0.0590 -0.0626
 6345W        W10409   2.449   4.102  11.285  0.4433 -0.1208 -0.3455
 6346W        W10410   6.038   7.295   2.627 -0.1620 -0.0220  0.2930
 6347W        W10411   9.569   9.923   9.797 -0.0236  0.1743 -0.1131
 6348W        W10412   1.054   7.010   1.587  0.0647  0.3533  0.3024
 6349W        W10413   3.280   7.028   7.824  0.0463  0.1206  0.1025
 6350W        W10414   2.267   4.156   1.018  0.0438  0.0642 -0.4140
 6351W        W10415   7.297   9.155   9.581  0.0958 -0.2381 -0.1357
 6352W        W10416   8.209   7.296   8.804  0.1132 -0.2447 -0.4427
 6353W        W10417   9.529   2.127   8.543 -0.3429 -0.0844  0.2514
 6354W        W10418   2.507   3.409   1.257 -0.1828 -0.1205 -0.0532
 6355W        W10419   9.414   6.801   2.088  0.1503 -0.2027 -0.1525
 6356W        W10420   8.603   7.343  10.220  0.3629  0.2945 -0.2430
 6357W        W10421   6.247   9.999   9.411  0.0998  0.1384 -0.3716
 6358W        W10422   0.419   1.390  10.689  0.3712  0.3898  0.0923
 6359W        W10423   3.691   1.980  10.737 -0.0711  0.1362  0.0295
 6360W        W10424   5.869   6.044   1.424 -0.0710 -0.2684 -0.0427
 6361W        W10425   9.096   9.911   2.852 -0.2614  0.0515  0.2234
 6362W        W10426   6.850   0.684   2.755  0.1628  0.0577 -0.2996
 6363W        W10427  10.673   4.555   0.456 -0.2285  0.2710  0.3931
 6364W        W10428  10.603   0.772   7.163  0.0649 -0.1706 -0.0289
 6365W        W10429   4.980   7.577   7.556  0.1307  0.1073 -0.3223
 6366W        W10430   5.519   8.225  10.642  0.0026 -0.1001 -0.1338
 6367W        W10431   1.518   6.320   0.245 -0.2794  0.0402 -0.2182
 6368W        W10432   6.635   3.915   3.409  0.0171 -0.0720  0.0385
 6369W        W10433  10.264   0.463  10.568  0.0757  0.0334 -0.0984
 6370W        W10434   3.662   1.770   7.469  0.3438 -0.1538 -0.3002
 6371W        W10435   8.749   8.939   1.281 -0.2257  0.1923  0.0736
 6372W        W10436   3.556   3.322   1.595  0.2576 -0.0555  0.0664
 6373W        W10437   0.900   2.513   1.797 -0.4350  0.1641  0.2248
 6374W        W10438   6.255   4.513   9.125 -0.2150 -0.0362 -0.2217
 6375W        W10439   4.325   5.050  11.244  0.0038 -0.2049  0.1344
 6376W        W10440   7.288   3.701  10.066  0.1571  0.2311  0.1701
 6377W        W10441   3.019   4.981   0.554 -0.0338 -0.1181 -0.1892
 6378W        W10442   6.720   7.952   9.256  0.0913  0.0488  0.3344
 6379W        W10443  10.434  10.523   8.489 -0.0729 -0.0103  0.1637
 6380W        W10444   0.027   4.229   1.604 -0.1802 -0.2519  0.1344
 6381W        W10445   7.964   3.133   9.314  0.1689 -0.3161 -0.2688
 6382W        W10446   0.460   6.502  10.559 -0.2006 -0.2938 -0.4559
 6383W        W10447   5.136   5.408   9.510 -0.1842 -0.3291 -0.1494
 6384W        W10448  10.592   0.213   8.454 -0.0591 -0.2700 -0.0521
 6385W        W10449   7.802   7.619   8.607  0.0060  0.0683  0.1584
 6386W        W10450   6.039   1.735   1.909  0.1081  0.2834 -0.0460
 6387W        W10451   6.281   0.569   2.745 -0.4130 -0.1721  0.0663
 6388W        W10452   8.119   6.529   0.493  0.1088  0.1423  0.1494
 6389W        W10453   6.071   9.075  10.652  0.2259  0.1120  0.2568
 6390W        W10454   7.165   1.494  11.047 -0.0687  0.2068 -0.1051
 6391W        W10455   5.520   9.130   3.030 -0.0385  0.2769  0.1813
 6392W        W10456   8.984   9.301   1.634  0.2358 -0.0176 -0.1408
 6393W        W10457   8.592   3.732   2.624 -0.1228  0.2950 -0.1214
 6394W        W10458   0.376   9.357   7.862 -0.1563  0.4361 -0.0505
 6395W        W10459   9.714   6.530  11.235  0.0920 -0.1492  0.0072
 6396W        W10460   4.118   5.529   1.994  0.0478 -0.2623  0.1180
 6397W        W10461   9.672   4.092   9.876 -0.0024 -0.1071 -0.0792
 6398W        W10462   7.005   8.824   2.089  0.2003 -0.1063 -0.2375
 6399W        W10463   5.326   8.478   9.129 -0.1719 -0.2400  0.1340
 6400W        W10464   7.647   9.470   9.252 -0.3147 -0.2805  0.3394
 6401W        W10465   2.356   3.731  10.828 -0.0392  0.0275 -0.1382
 6402W        W10466   9.979   1.071   9.572  0.0240  0.2653  0.2946
 6403W        W10467   2.354   4.498   9.319  0.0216 -0.1206  0.2577
 6404W        W10468   1.081   2.529   0.814 -0.1340 -0.1775 -0.0793
 6405W        W10469   5.854   5.240   8.714  0.0791 -0.1074  0.0468
 6406W        W10470   5.597   3.471   9.786 -0.2949 -0.4529 -0.2839
 6407W        W10471   3.827   8.327  11.137 -0.0654  0.2416 -0.0093
 6408W        W10472   9.938   9.360   1.930  0.1844 -0.1504  0.3092
 6409W        W10473   9.269   9.767   0.315  0.3462  0.1502 -0.0725
 6410W        W10474   8.765   8.773   1.842  0.4009  0.1184  0.0401
 6411W        W10475   4.092  10.102   2.237  0.1417 -0.0938  0.0939
 6412W        W10476   1.152   6.588   0.314 -0.1310 -0.2200 -0.4108
 6413W        W10477   4.199   4.952   1.991  0.1256 -0.0366  0.0773
 6414W        W10478   5.947   0.175   6.899  0.2365 -0.1074 -0.0207
 6415W        W10479   9.919   9.039   8.376 -0.1665 -0.0655 -0.1353
 6416W        W10480   5.696   1.257   0.298 -0.0620  0.0088  0.4556
 6417W        W10481   8.260   8.090   0.401 -0.0216  0.2294 -0.1507
 6418W        W10482   1.415   9.033   3.703  0.4311  0.0994 -0.1504
 6419W        W10483   1.036   8.079   1.144 -0.1301 -0.0881  0.0052
 6420W        W10484   8.418   8.227   8.639  0.0389 -0.1710  0.3291
 6421W        W10485   8.641  10.304  11.188 -0.2537  0.2106 -0.2858
 6422W        W10486   8.788   4.073  10.538 -0.1306 -0.1530  0.0428
 6423W        W10487   6.905   4.568   9.039  0.0142 -0.0353  0.0755
 6424W        W10488   3.760   6.501   2.768 -0.5801  0.1674 -0.2311
 6425W        W10489   6.404   4.956   9.664  0.0060 -0.3548  0.1414
 6426W        W10490   5.442   8.948   8.100  0.0356  0.0157 -0.0925
 6427W        W10491   0.121   2.155   1.334 -0.2274  0.1971  0.2733
 6428W        W10492   1.132   9.723  11.206  0.3650  0.3240  0.0554
 6429W        W10493   4.619   5.232   1.937  0.0276  0.1099  0.1362
 6430W        W10494   1.991   6.582  10.874  0.5703 -0.1993  0.1062
 6431W        W10495   1.633   0.321   3.505  0.1358  0.0811  0.0762
 6432W        W10496   4.077   4.337   8.306 -0.0873 -0.1853  0.0235
 6433W        W10497  10.134   9.180   8.847 -0.2399 -0.1853 -0.4067
 6434W        W10498   2.558   7.785  11.192  0.2106  0.0336  0.1155
 6435W        W10499   7.044   7.611  10.147 -0.0129  0.2709  0.0392
 6436W        W10500   0.242   3.851   8.640 -0.0894 -0.1536 -0.1276
 6437W        W10501   9.460   7.297   9.077 -0.1758  0.3670 -0.0515
 6438W        W10502   7.571   3.086   0.877 -0.1664 -0.2829 -0.5745
 6439W        W10503   2.589   1.758   8.300 -0.0757 -0.0725  0.0373
 6440W        W10504  10.706   1.190   9.127 -0.1922 -0.2294 -0.2429
 6441W        W10505   3.210   9.147   2.467  0.0068 -0.2697  0.1614
 6442W        W10506   2.834   1.286   2.811  0.0828  0.0074 -0.2382
 6443W        W10507   4.572   5.013  10.594 -0.1677 -0.1447 -0.1183
 6444W        W10508   5.735   7.977  10.268  0.1890  0.0462  0.2321
 6445W        W10509   2.152   8.560   9.998  0.2661 -0.1349  0.0275
 6446W        W10510   9.715   6.891   8.949  0.1872  0.0320 -0.5200
 6447W        W10511   6.323   2.982   9.597 -0.2950 -0.1071  0.0267
 6448W        W10512   4.601   9.189   3.034  0.1370 -0.1474  0.0148
 6449W        W10513   3.258   9.971   0.299  0.1905  0.1131 -0.2524
 6450W        W10514   7.683   8.926   2.547 -0.4127 -0.2977  0.0015
 6451W        W10515   2.911   8.644   7.440  0.0774  0.1556 -0.0460
 6452W        W10516   4.175   5.882   7.327  0.0049 -0.1782 -0.0180
 6453W        W10517   9.485   2.130  10.093 -0.0765  0.1583 -0.0872
 6454W        W10518   3.706   6.013   7.606 -0.1039  0.0072  0.2667
 6455W        W10519   5.809   0.696   1.853  0.2722  0.1439  0.1999
 6456W        W10520   5.021   4.059   2.096 -0.0408 -0.2192  0.0745
 6457W        W10521   4.353   2.243   2.459  0.1187 -0.2491  0.0347
 6458W        W10522   0.187   2.964   0.223  0.3007 -0.1626  0.0976
 6459W        W10523   1.099   9.599   8.052 -0.0276  0.0083  0.0100
 6460W        W10524   3.974   1.977   3.028 -0.2388  0.0317 -0.0239
 6461W        W10525   2.247   7.024   8.218  0.0595  0.0299 -0.2353
 6462W        W10526   1.005   2.867   9.534 -0.2544 -0.1273 -0.1081
 6463W        W10527   2.029   0.506   7.695 -0.0254 -0.1939  0.2135
 6464W        W10528   7.809   7.521   1.365  0.1120  0.2334  0.0150
 6465W        W10529   4.410   1.448   8.375  0.0134  0.1887 -0.3287
 6466W        W10530   2.554   5.062   0.560  0.1352  0.0597 -0.1097
 6467W        W10531   8.344   6.277   1.235 -0.3877 -0.1214 -0.0624
 6468W        W10532   5.529   5.876  10.160 -0.1149 -0.1303  0.0880
 6469W        W10533   1.768   2.003   2.597  0.2860  0.1463  0.0793
 6470W        W10534   7.716  10.428   7.818  0.2139  0.2868 -0.1092
 6471W        W10535   9.179   8.494  10.200 -0.3602 -0.0365 -0.0750
 6472W        W10536  10.578   1.285   7.155  0.2693  0.1259  0.1341
 6473W        W10537   4.455   5.262   0.790  0.1193  0.0251 -0.1718
 6474W        W10538   4.208   6.893   2.730 -0.0687 -0.0078  0.1261
 6475W        W10539   5.436   0.166   0.446 -0.0166 -0.1640  0.2124
 6476W        W10540   0.761   1.857   1.705  0.3062 -0.0686  0.1491
 6477W        W10541   5.307  10.342   0.227  0.0038  0.1702 -0.1594
 6478W        W10542   6.021  10.566   1.475 -0.1041 -0.0971  0.2033
 6479W        W10543   8.110   5.932   0.579  0.1797  0.1723  0.0913
 6480W        W10544   0.853  10.752   9.306 -0.0194 -0.0804 -0.1811
 6481W        W10545   7.510   4.721  10.539 -0.1882  0.0200 -0.1623
 6482W        W10546   9.626   1.254   8.278  0.2176 -0.1057  0.2274
 6483W        W10547   3.928   8.240  10.043  0.0838 -0.0635 -0.0842
 6484W        W10548   2.585  10.088   9.140 -0.0574  0.1627 -0.2481
 6485W        W10549  10.367   3.026   7.395  0.0770  0.2542  0.1579
 6486W        W10550   6.064   5.669   8.405  0.0281  0.1818  0.1092
 6487W        W10551   8.930   3.906   2.138 -0.1100 -0.2391 -0.0574
 6488W        W10552  10.528   3.541   7.451  0.1743  0.1517  0.2257
 6489W        W10553   8.408   1.063  10.867  0.1341 -0.0141 -0.2944
 6490W        W10554   9.434   5.225   9.073 -0.2702 -0.0770  0.1667
 6491W        W10555   2.099   0.025   3.287  0.0600 -0.3061 -0.2052
 6492W        W10556  10.285   7.617   0.441  0.0900  0.0941 -0.0816
 6493W        W10557   2.848   9.141   8.603 -0.4098 -0.2955  0.0422
 6494W        W10558   3.644   1.612   9.209  0.3105  0.0132 -0.0438
 6495W        W10559   1.106   9.849   3.281 -0.1230  0.0465  0.0407
 6496W        W10560   1.854   0.702   9.795  0.1252  0.2725  0.1009
 6497W        W10561   9.907   2.844  11.292 -0.1033  0.5284  0.1976
 6498W        W10562  10.308   3.058  10.952  0.1802 -0.1558 -0.0545
 6499W        W10563   0.593   8.669   8.109  0.1370 -0.2456 -0.3138
 6500W        W10564   8.618   7.377   9.640 -0.0477 -0.0602 -0.1292
 6501W        W10565  10.021   0.977   1.255 -0.0926 -0.1643  0.2975
 6502W        W10566  10.247  10.719   3.964  0.4435 -0.0075 -0.1407
 6503W        W10567  10.202   1.367  10.338 -0.0557 -0.1558 -0.1584
 6504W        W10568   4.828   8.145  11.133  0.1651 -0.0790 -0.1104
 6505W        W10569   6.997  10.258   3.573  0.0223  0.0161  0.3486
 6506W        W10570   3.624   8.603  10.709  0.3866  0.2267 -0.2446
 6507W        W10571   0.677   5.092   8.409  0.0169  0.1656 -0.1584
 6508W        W10572   0.859   3.076   8.711  0.0396  0.2892 -0.0962
 6509W        W10573   7.639   7.155   2.070  0.2824  0.4037  0.2914
 6510W        W10574   7.411   3.470   2.941  0.0702 -0.0502 -0.1151
 6511W        W10575  10.677   7.440   0.101 -0.4059 -0.1537 -0.3231
 6512W        W10576   1.477   6.682   0.695  0.0545  0.1228 -0.0593
 6513W        W10577   8.134   1.494  10.690  0.1550  0.1141  0.1469
 6514W        W10578   4.820   3.664   8.351  0.2109  0.2248  0.0586
 6515W        W10579   4.371   9.203   0.232 -0.0405  0.0675  0.0602
 6516W        W10580   0.268   9.907   9.342  0.0546  0.1298 -0.3216
 6517W        W10581   4.755   5.102   7.325 -0.1358  0.1389  0.0871
 6518W        W10582   3.139   8.555   1.091 -0.1204  0.1007 -0.1466
 6519W        W10583   9.138   4.874   1.732  0.0033  0.1277  0.0162
 6520W        W10584   7.607   8.290   1.499 -0.1476  0.0224 -0.1920
 6521W        W10585   4.774  10.755  11.353  0.1865  0.0253  0.0480
 6522W        W10586   8.197   1.060   1.678  0.2359  0.0910 -0.2860
 6523W        W10587   5.254   5.276   8.475 -0.1589  0.0361 -0.2451
 6524W        W10588   8.978   6.817   7.977  0.0310 -0.0890 -0.0842
 6525W        W10589   1.018   5.844   9.110  0.0667  0.1577  0.1853
 6526W        W10590   3.074   2.178   8.746  0.2498  0.2759 -0.1871
 6527W        W10591   8.338   6.492   1.768  0.1401 -0.0258 -0.0091
 6528W        W10592   4.774  10.720   9.787  0.0559 -0.1425 -0.0570
 6529W        W10593   2.895   0.733   3.123  0.0828  0.1541 -0.2061
 6530W        W10594   0.675   8.165  10.419 -0.0757 -0.0058  0.0310
 6531W        W10595   0.670   5.157  10.722 -0.0004 -0.1779 -0.4576
 6532W        W10596   6.588   4.569   7.763 -0.2988  0.0657  0.1255
 6533W        W10597   1.481   6.744   9.393 -0.1431 -0.2076 -0.3821
 6534W        W10598   7.108   9.055   8.474 -0.1181 -0.2737 -0.2110
 6535W        W10599   0.678   9.524   9.389  0.0394  0.2181  0.0483
 6536W        W10600   9.045   0.374   0.306  0.4208 -0.0354 -0.1216
 6537W        W10601   2.573  10.663   2.900  0.0518 -0.0846 -0.0325
 6538W        W10602   4.513   1.146   8.758  0.3322 -0.2577 -0.0487
 6539W        W10603   9.635   3.779  11.273 -0.2505  0.2194 -0.2224
 6540W        W10604   8.472   4.356   8.567 -0.0580  0.1774 -0.1172
 6541W        W10605   6.651   5.790   2.887  0.0341  0.1731 -0.0437
 6542W        W10606   9.330   7.020   9.776 -0.1118 -0.2915  0.0110
 6543W        W10607   0.481   0.277   9.229  0.0247 -0.2919  0.0443
 6544W        W10608   7.118   7.005   9.422 -0.2458 -0.0086  0.1023
 6545W        W10609  10.722   5.062   9.052  0.0522  0.3545  0.0158
 6546W        W10610  10.342   2.794   7.983  0.3002  0.0015  0.0723
 6547W        W10611   2.982   8.373   7.897  0.0838 -0.0214  0.1266
 6548W        W10612   9.299   9.256   9.244  0.1930  0.0043 -0.4761
 6549W        W10613   8.331   4.814   8.398 -0.0701 -0.0510 -0.1647
 6550W        W10614   1.509   9.896  10.858 -0.1059  0.0311 -0.0044
 6551W        W10615   0.495   9.845   0.430 -0.1497  0.2172  0.1271
 6552W        W10616   0.213  10.262   9.677  0.4147  0.1992 -0.2849
 6553W        W10617   7.060   7.391   0.771  0.0894  0.2126 -0.2726
 6554W        W10618   8.473   6.860  10.333  0.1964 -0.3976  0.1674
 6555W        W10619   4.823   8.035   8.738  0.0227  0.3349 -0.0942
 6556W        W10620  10.539   2.886   0.478 -0.0764 -0.2765 -0.1273
 6557W        W10621   5.648   1.992   2.655  0.2899 -0.2056  0.1343
 6558W        W10622   3.401   9.516   2.770 -0.1163 -0.1083  0.0836
 6559W        W10623   1.516   3.498   1.034 -0.0125  0.0764 -0.2009
 6560W        W10624   1.799   8.442   1.243  0.4035 -0.1893 -0.3554
 6561W        W10625   9.785   1.237  11.186 -0.2648  0.1839  0.1177
 6562W        W10626   0.038   5.657   1.634  0.1475  0.1250  0.2445
 6563W        W10627   5.758   2.339   9.682 -0.2803  0.1221 -0.1229
 6564W        W10628   0.313   4.775   7.994 -0.1724 -0.1016  0.1654
 6565W        W10629   9.474   5.715   9.064  0.3331 -0.0115 -0.1622
 6566W        W10630   6.837   7.591   8.885 -0.1870 -0.1152 -0.0460
 6567W        W10631   9.943   2.732   3.398  0.0689 -0.0111 -0.2351
 6568W        W10632   0.446   8.383   9.557  0.2097 -0.0901 -0.0490
 6569W        W10633   7.696   7.358   8.968  0.1595  0.0911  0.0923
 6570W        W10634   0.286   1.568   0.280 -0.1720  0.1427  0.2496
 6571W        W10635   8.780   0.294   8.470  0.1352 -0.1455 -0.0588
 6572W        W10636   4.861   1.166   8.359 -0.0127 -0.0505  0.2176
 6573W        W10637   8.671   9.864   8.940  0.2763 -0.2080 -0.0393
 6574W        W10638  10.411   6.533  10.241 -0.0938  0.2588  0.0547
 6575W        W10639   7.530   2.649   2.161  0.0992  0.1198  0.1854
 6576W        W10640   2.871   2.214   2.432  0.0555 -0.0280 -0.0412
 6577W        W10641   4.888   1.198  11.154  0.1934 -0.1768 -0.0274
 6578W        W10642   9.858   4.619   0.079 -0.1817 -0.2912  0.0348
 6579W        W10643   3.078   4.554   7.751  0.2134 -0.3432  0.1988
 6580W        W10644   0.298   4.018   2.898  0.2293 -0.0993 -0.1898
 6581W        W10645   5.246   9.416   0.156 -0.0359 -0.0160  0.2049
 6582W        W10646  10.570   3.382   0.472  0.0215  0.2942  0.0378
 6583W        W10647   3.091   0.268   0.567 -0.0676  0.0054  0.1128
 6584W        W10648   2.796   0.085  10.509  0.1942  0.1343 -0.1183
 6585W        W10649   9.170   1.209  10.204  0.0334 -0.0775  0.1932
 6586W        W10650   9.023   6.367   9.093  0.1217  0.0988 -0.0852
 6587W        W10651   6.616   5.395   3.598 -0.2544 -0.2156 -0.2840
 6588W        W10652   2.675   2.652   1.568 -0.0866 -0.0584  0.2096
 6589W        W10653   9.227   3.000  10.711 -0.1473  0.2381 -0.0531
 6590W        W10654   4.032   0.768   9.980 -0.0791  0.0299  0.2824
 6591W        W10655   0.099   6.937   1.940  0.1397 -0.1795  0.0187
 6592W        W10656   9.844   1.479   9.207  0.1117 -0.1552 -0.0505
 6593W        W10657   3.392   6.217   0.789 -0.0234  0.1458 -0.0025
 6594W        W10658   1.522   5.886  10.312 -0.0216  0.0876 -0.1577
 6595W        W10659   8.061  10.185   7.552 -0.1601  0.0750 -0.0947
 6596W        W10660   5.055   3.886   0.891 -0.0639 -0.3421  0.2776
 6597W        W10661   7.984   7.433  11.021 -0.1531 -0.0735 -0.0880
 6598W        W10662   2.819   1.033   0.874 -0.2829 -0.0049  0.2956
 6599W        W10663   3.627   8.818   0.476  0.0214 -0.2860  0.0724
 6600W        W10664   8.907   1.264   7.116  0.0565  0.1634 -0.0168
 6601W        W10665   7.161   5.661   2.987 -0.2021  0.1566  0.1576
 6602W        W10666   2.799   3.874   9.975  0.0822  0.1797  0.1913
 6603W        W10667   8.192   8.689   7.934 -0.2706 -0.2159  0.3061
 6604W        W10668   7.398   4.711   8.106  0.1279  0.0653 -0.0146
 6605W        W10669   9.118   1.081   8.980 -0.2265  0.1676  0.0584
 6606W        W10670  10.137   9.890   9.693  0.2538 -0.1766 -0.0125
 6607W        W10671   6.572   1.519   8.122  0.1157 -0.2398 -0.0531
 6608W        W10672   6.099   6.186   7.972  0.2807  0.2715 -0.0079
 6609W        W10673   0.767   2.338   0.181  0.0735 -0.2471 -0.1095
 6610W        W10674   0.972   7.405   1.848  0.2147 -0.0830 -0.1148
 6611W        W10675   4.664   2.549  10.109 -0.2618  0.2427  0.0581
 6612W        W10676   2.143   0.669   1.535  0.1053  0.0955 -0.0033
 6613W        W10677   2.225   9.176  10.508  0.0773  0.1672  0.0233
 6614W        W10678   0.744   2.993   1.572 -0.3235 -0.1682  0.3288
 6615W        W10679   4.758   9.588   2.712  0.5154 -0.2614 -0.0663
 6616W        W10680   4.509   7.678   7.738  0.3007  0.2615 -0.2680
 6617W        W10681   6.460  10.356   1.673 -0.0706 -0.1778 -0.0509
 6618W        W10682   6.663   3.523   0.452 -0.1490 -0.2775 -0.2301
 6619W        W10683   0.516   4.879   9.605 -0.0436  0.2660 -0.1068
 6620W        W10684   5.359   2.848  10.669 -0.2323  0.1495 -0.0755
 6621W        W10685   8.611   2.166   9.003  0.1650 -0.0511 -0.3583
 6622W        W10686   9.095   3.078   8.369  0.1377 -0.2132  0.0355
 6623W        W10687   4.820   3.849   9.497  0.0003 -0.0032 -0.0032
 6624W        W10688   6.751   4.280   2.951 -0.0434  0.1711 -0.1937
 6625W        W10689   7.878   4.484   2.183 -0.1309 -0.1948 -0.2917
 6626W        W10690   5.379   3.449  10.944 -0.2493 -0.2022  0.0198
 6627W        W10691   3.615   9.456  11.127 -0.0961 -0.0689  0.2575
 6628W        W10692   6.906   8.003   2.069 -0.2190 -0.1839 -0.2839
 6629W        W10693   1.813   0.877   1.178  0.0064  0.3765  0.3544
 6630W        W10694  10.104   7.550   2.991 -0.0956 -0.0654  0.0266
 6631W        W10695  10.653   6.923   2.431 -0.0600 -0.0038  0.0196
 6632W        W10696   7.170   1.441   0.164 -0.0686 -0.3686 -0.0962
 6633W        W10697  10.208   6.980   9.775 -0.0197 -0.0330  0.2270
 6634W        W10698   9.514  10.635  10.913  0.0692  0.2464 -0.2256
 6635W        W10699   8.965   6.954  10.215 -0.0014 -0.1339  0.1190
 6636W        W10700   9.767   2.323   7.542 -0.0950 -0.1216 -0.0062
 6637W        W10701   1.901   3.970   2.528 -0.1213 -0.1481  0.0588
 6638W        W10702   5.127   7.312   8.757 -0.1113  0.2045 -0.0674
 6639W        W10703  10.459   0.580   1.862  0.0398  0.0763  0.3376
 6640W        W10704   2.219   3.440  10.361 -0.1081 -0.2472  0.1979
 6641W        W10705   6.322   5.081   2.184  0.4216 -0.3232  0.1175
 6642W        W10706   9.479   1.883   1.771  0.1560  0.2705  0.3631
 6643W        W10707   5.373   8.180   8.698  0.1023 -0.3273  0.3616
 6644W        W10708   9.202   2.585  10.136 -0.2869  0.0939 -0.1535
 6645W        W10709   3.510   0.150   2.929 -0.1522 -0.0653  0.4061
 6646W        W10710   3.908   2.966   9.639 -0.2808  0.2359 -0.0509
 6647W        W10711   7.737   2.118   2.147  0.2699 -0.2045 -0.3875
 6648W        W10712   3.288   5.621   9.404  0.4988  0.0917  0.0335
 6649W        W10713  10.383   9.108   8.113  0.1381  0.1500 -0.1820
 6650W        W10714   5.148   0.332   0.954  0.0437 -0.0030 -0.0303
 6651W        W10715   1.051   5.403  11.016 -0.0517 -0.2063  0.0105
 6652W        W10716   9.878   8.600   0.520 -0.0733  0.1196  0.0538
 6653W        W10717   5.788   8.482   9.488  0.1463  0.1926 -0.1086
 6654W        W10718   1.194   1.875   3.321  0.1659 -0.0339 -0.1671
 6655W        W10719   9.654   1.573   1.272 -0.0705  0.0579  0.0036
 6656W        W10720   4.094   8.864   0.579  0.3211 -0.0614  0.0722
 6657W        W10721   9.246   7.980   9.815 -0.1407  0.3280 -0.0708
 6658W        W10722   9.891   4.171   0.238  0.1223  0.5550  0.1442
 6659W        W10723   3.261   5.644   7.488 -0.3358  0.4180  0.4445
 6660W        W10724   2.719   9.570   8.894  0.1346  0.1744 -0.4333
 6661W        W10725   4.596   1.894   7.652 -0.0523 -0.0077 -0.0255
 6662W        W10726   2.225   9.558   2.099 -0.2044 -0.0407 -0.0966
 6663W        W10727   1.546   6.587   3.707  0.0243 -0.1236 -0.1707
 6664W        W10728   5.198   2.475   2.326 -0.1191  0.3795 -0.3741
 6665W        W10729   4.688  10.411   7.530  0.1896  0.3226  0.2210
 6666W        W10730   6.414   0.181   2.498 -0.3121  0.2810  0.0084
 6667W        W10731   4.216   2.627  10.357 -0.3784  0.2650  0.0168
 6668W        W10732   7.562  10.132   2.410  0.0106 -0.0902 -0.1731
 6669W        W10733   0.916   1.201   1.810 -0.0375 -0.0156  0.1761
 6670W        W10734   2.851   3.290   7.638 -0.1658 -0.1619 -0.2387
 6671W        W10735   1.684   3.623   1.597 -0.1431  0.0133  0.2486
 6672W        W10736   6.079   7.999   2.673 -0.2988  0.1153  0.3604
 6673W        W10737   6.161   5.171   9.237  0.4137 -0.1033  0.2959
 6674W        W10738   5.732   2.494  10.219  0.2513  0.4886 -0.2390
 6675W        W10739   3.128   9.971   1.836  0.0436  0.0035 -0.3253
 6676W        W10740  10.609   3.057   1.596 -0.6847  0.0445  0.2288
 6677W        W10741   1.596   8.608  10.732 -0.0079 -0.3436  0.1558
 6678W        W10742   4.557   5.675   0.471 -0.1099 -0.0031 -0.2314
 6679W        W10743   3.020   9.800   9.246 -0.0510  0.0560  0.2582
 6680W        W10744   4.080   5.194  10.174 -0.3599 -0.0362 -0.2775
 6681W        W10745   2.177   3.778   1.594  0.0274 -0.0550 -0.0126
 6682W        W10746   0.244   3.505   2.233 -0.0065  0.0671 -0.3030
 6683W        W10747   4.389   2.405  11.278 -0.1637  0.0382  0.1680
 6684W        W10748   8.167   0.004   9.052 -0.1480  0.2608 -0.1101
 6685W        W10749   7.904   9.585   8.711 -0.0787 -0.3963 -0.0799
 6686W        W10750   0.456   9.009  10.970  0.1116 -0.0396  0.2516
 6687W        W10751  10.285   2.152   2.088  0.0025 -0.0058  0.3111
 6688W        W10752   2.682   2.891   1.156  0.1437  0.0306 -0.0178
 6689W        W10753  10.519   8.324   1.618 -0.2050 -0.2910  0.1066
 6690W        W10754   0.108   4.575   8.995 -0.1316 -0.0592 -0.0528
 6691W        W10755   5.473   0.673   9.041  0.0125 -0.0636  0.4032
 6692W        W10756   4.462   0.714   9.000 -0.2843 -0.1982  0.2690
 6693W        W10757   9.665   3.107   3.536  0.0067  0.2584 -0.2511
 6694W        W10758   2.594   8.599   1.772 -0.1738  0.1874  0.2013
 6695W        W10759   8.215   7.308   1.175 -0.3099  0.0618  0.0213
 6696W        W10760   0.741  10.467   2.718 -0.1287  0.0079  0.2510
 6697W        W10761   8.147   2.220   0.699 -0.0221 -0.2585  0.2052
 6698W        W10762   8.184   7.159   3.070 -0.0061  0.0600  0.3237
 6699W        W10763   5.674   5.839   2.255 -0.0452  0.0052  0.2274
 6700W        W10764   5.864   3.930   1.472 -0.2251  0.0209 -0.3752
 6701W        W10765   0.568   4.034   8.270  0.0350 -0.4734  0.1142
 6702W        W10766   8.802   9.514   9.266 -0.1352  0.1366 -0.1751
 6703W        W10767   5.660   1.129  10.798  0.1425  0.0326  0.0931
 6704W        W10768   5.463   3.589   9.285 -0.3332 -0.1379  0.0768
 6705W        W10769   2.707   6.469   2.692  0.3075  0.1789  0.0121
 6706W        W10770   9.211   1.433   2.641  0.5121  0.3698  0.2408
 6707W        W10771   6.733  10.466   8.141 -0.1027 -0.1543  0.2395
 6708W        W10772   0.398   0.973   0.305  0.0670 -0.0514 -0.0857
 6709W        W10773   2.944   5.781   8.986 -0.2446  0.2646 -0.4619
 6710W        W10774   1.671   5.132   1.881 -0.0226 -0.1736  0.0347
 6711W        W10775   1.605   0.696   0.784 -0.0867  0.2407  0.1817
 6712W        W10776   8.657   3.671   8.095  0.0066  0.1097  0.1209
 6713W        W10777   3.021   3.909  10.422 -0.0909 -0.4281  0.0128
 6714W        W10778   2.549   3.368   7.243  0.0141  0.0060  0.1871
 6715W        W10779   6.206   5.233   0.956  0.0310  0.0885 -0.0037
 6716W        W10780   0.225   5.766   2.067 -0.1009 -0.0054  0.0528
 6717W        W10781   2.204   1.042   0.050 -0.1653  0.1981 -0.2700
 6718W        W10782   7.288  10.160   1.843 -0.1312  0.0169  0.2404
 6719W        W10783   6.193   8.108  10.368 -0.0221  0.3098  0.1514
 6720W        W10784   6.428   1.398   7.103 -0.0580 -0.1783  0.0840
 6721W        W10785   4.619   2.929   3.056  0.1192 -0.0579 -0.0839
 6722W        W10786   0.224   3.069   9.324 -0.1032  0.2465 -0.1725
 6723W        W10787   8.516   7.987  10.355  0.1559 -0.0102 -0.1521
 6724W        W10788   2.621   5.232   3.194 -0.2381 -0.1782  0.0732
 6725W        W10789   8.782   1.880   0.374  0.0185 -0.2452  0.2095
 6726W        W10790   9.560   0.179   3.401 -0.0812 -0.1755 -0.0579
 6727W        W10791   7.212   1.355   2.053  0.0716  0.2488  0.1960
 6728W        W10792   3.691   1.495   2.161 -0.0559  0.0099  0.1849
 6729W        W10793   7.698   9.326   0.606 -0.0104 -0.1113 -0.1636
 6730W        W10794   6.383   0.530   6.909  0.3032 -0.1947  0.2145
 6731W        W10795   7.823   0.723   9.455 -0.2601 -0.1178  0.0129
 6732W        W10796   7.746   1.288   1.376 -0.0331  0.2381 -0.0862
 6733W        W10797   4.544   9.591   0.671  0.0247  0.0039  0.0321
 6734W        W10798   6.253   3.287   0.304 -0.2028  0.2569  0.1408
 6735W        W10799   9.448   7.742   1.023  0.1239  0.2070  0.0139
 6736W        W10800   5.220   9.875  10.297 -0.1689  0.2512 -0.4125
 6737W        W10801   5.436   0.281   2.222 -0.1436  0.0964 -0.1697
 6738W        W10802   1.452   3.654   8.550  0.4181 -0.0246 -0.1465
 6739W        W10803   2.188   2.091   8.103 -0.1213 -0.2460  0.1117
 6740W        W10804  10.734   5.595   1.151 -0.2058  0.0244 -0.1069
 6741W        W10805   0.432   5.012   9.127  0.2522  0.2224 -0.1318
 6742W        W10806   5.466   4.853   0.035 -0.0493 -0.2501 -0.1387
 6743W        W10807   5.407   6.589   7.575 -0.2686 -0.1655  0.1081
 6744W        W10808   7.262   0.055   8.669 -0.1412  0.1005  0.2554
 6745W        W10809   9.116   5.425   9.719  0.4119  0.0140  0.0481
 6746W        W10810  10.580   2.297   7.910 -0.0674  0.1717 -0.0663
 6747W        W10811   7.770   5.609   8.313 -0.1969 -0.0805 -0.2180
 6748W        W10812   3.878   1.136  11.246  0.3106 -0.0977  0.1184
 6749W        W10813   0.103   9.309  10.388 -0.0220 -0.6310 -0.0577
 6750W        W10814   4.712   9.222   9.348 -0.0186  0.1502  0.0029
 6751W        W10815   6.262   1.201   3.423 -0.2614 -0.1427 -0.1981
 6752W        W10816   3.939   1.979   9.094 -0.0264 -0.0524  0.1169
 6753W        W10817   8.213   7.007   3.518  0.1059 -0.1459  0.0534
 6754W        W10818   3.727   7.013   7.634 -0.3034 -0.0038  0.2181
 6755W        W10819   4.982  10.114   8.972  0.2364  0.1980 -0.2238
 6756W        W10820   9.643   3.446  10.093  0.0221 -0.0592  0.0565
 6757W        W10821   9.849   5.365   9.250  0.0196 -0.1584  0.2105
 6758W        W10822   9.451   7.529   8.615  0.2728 -0.1961 -0.2385
 6759W        W10823   6.356   5.304   8.574  0.1764  0.0730  0.2196
 6760W        W10824   0.386   8.185   0.437 -0.0928 -0.2517  0.2264
 6761W        W10825   1.466   0.388   9.790 -0.0750  0.1526  0.1573
 6762W        W10826   9.840   0.725   2.562  0.1579 -0.1958 -0.0624
 6763W        W10827   2.481   5.601  10.785  0.0376  0.1762 -0.0472
 6764W        W10828   4.513   8.994   8.700  0.0955 -0.0425  0.0206
 6765W        W10829   7.900   3.042   8.550  0.1500 -0.2950  0.1380
 6766W        W10830  10.465   2.159   9.062 -0.2202  0.0291 -0.2548
 6767W        W10831   5.511   6.228   9.756  0.0417  0.0090  0.0410
 6768W        W10832   3.369   4.708  11.209  0.0839 -0.3845  0.0250
 6769W        W10833   2.008   9.746  10.892 -0.1078 -0.1750  0.1308
 6770W        W10834   6.088   1.005   6.832  0.0013  0.0201 -0.2220
 6771W        W10835   2.169   5.299  10.974 -0.0558  0.1780 -0.0542
 6772W        W10836   4.878   0.948   0.258 -0.1333  0.1686  0.0786
 6773W        W10837   8.554   9.983   3.397  0.0016  0.0062 -0.0877
 6774W        W10838   7.794   7.588   1.936 -0.1228  0.1249 -0.4224
 6775W        W10839   9.375   3.910   1.582 -0.2093 -0.4583  0.0351
 6776W        W10840   9.827   1.113   2.159  0.3418 -0.3534  0.0021
 6777W        W10841   6.967   8.209   2.603  0.3485 -0.0025 -0.1383
 6778W        W10842   3.873   6.435   9.821  0.0003 -0.2800  0.0300
 6779W        W10843   2.611   0.583  10.393 -0.0778 -0.1676  0.2084
 6780W        W10844   7.969   1.435   0.307 -0.0558 -0.2813 -0.0784
 6781W        W10845   1.683   4.826   0.713  0.1981  0.0887  0.0591
 6782W        W10846   7.377   4.788   0.827  0.1353  0.0410 -0.1080
 6783W        W10847   1.020   7.906  10.763 -0.3684  0.0951 -0.1076
 6784W        W10848   4.756   0.675   8.051 -0.4280 -0.0078  0.1381
 6785W        W10849   2.528   6.488   2.189 -0.1031  0.0447  0.0278
 6786W        W10850   7.599   9.517   1.058  0.0084  0.1993  0.0676
 6787W        W10851   4.664   6.103   7.082  0.1220  0.3273  0.0133
 6788W        W10852   6.792   2.242   0.251 -0.0657 -0.1094  0.3154
 6789W        W10853   0.881   6.521   1.514 -0.0694 -0.0403 -0.1082
 6790W        W10854   0.513   9.004   1.038 -0.1311  0.0112 -0.0171
 6791W        W10855   8.471   6.177   8.351  0.2119  0.1890 -0.1527
 6792W        W10856   8.429   9.598   3.632 -0.0677 -0.2067 -0.2041
 6793W        W10857   0.051   9.703   9.747 -0.1521  0.0965  0.4561
 6794W        W10858  10.255   9.536   1.032 -0.2037  0.1793 -0.1542
 6795W        W10859   6.615   0.100   0.821  0.1399 -0.0169  0.1718
 6796W        W10860   5.700   1.525   1.560 -0.2327 -0.0740 -0.3373
 6797W        W10861   0.171   9.055   8.880  0.3654 -0.0442 -0.1662
 6798W        W10862   5.760   6.978   9.313 -0.2254 -0.0170  0.1011
 6799W        W10863   1.574   6.033   8.115 -0.0760  0.0672  0.0153
 6800W        W10864   3.282   1.042   1.333 -0.2243  0.0945 -0.4643
 6801W        W10865   4.636   3.832   2.839  0.1046 -0.0567 -0.0175
 6802W        W10866   5.603  10.663   8.112  0.1071 -0.1587 -0.2091
 6803W        W10867   5.836   1.192   1.970 -0.2560  0.4443 -0.0247
 6804W        W10868   1.907   2.019   0.718 -0.1382  0.1221  0.1934
 6805W        W10869   7.996   4.272  10.423 -0.0052 -0.3422 -0.1184
 6806W        W10870   6.083   6.149   2.430  0.2035  0.0375  0.2204
 6807W        W10871   1.042   4.145   9.346 -0.0173 -0.5159 -0.0856
 6808W        W10872   7.374  10.732   2.616 -0.1356 -0.3385 -0.1603
 6809W        W10873   0.266  10.088   1.142 -0.0679  0.3152  0.1693
 6810W        W10874   3.539   7.138   3.459 -0.1019 -0.2649  0.0653
 6811W        W10875   8.339   8.203   8.054  0.1093  0.2738 -0.0334
 6812W        W10876   6.503   9.278  10.541  0.1461 -0.0321 -0.2106
 6813W        W10877   7.273   2.881   0.538  0.1676 -0.1424 -0.0624
 6814W        W10878   1.894   5.872   7.698  0.0903 -0.1714  0.0865
 6815W        W10879   5.972   0.221   3.454  0.0566 -0.0991 -0.2750
 6816W        W10880   1.227   2.578  11.020  0.1190 -0.1477 -0.3320
 6817W        W10881   8.289   0.995   3.024 -0.1095  0.0924  0.0652
 6818W        W10882   4.720   8.685   1.291 -0.3407 -0.1559  0.1128
 6819W        W10883   2.739   7.165   1.078 -0.0437  0.0329  0.1531
 6820W        W10884   8.633   2.127   9.494  0.0869 -0.0396 -0.1259
 6821W        W10885   4.613   6.133   0.676  0.0878  0.0214  0.1038
 6822W        W10886   0.322   1.139   8.465  0.1771 -0.0190 -0.0106
 6823W        W10887   4.073   8.064   0.364  0.3353 -0.1652 -0.1884
 6824W        W10888   7.850   2.773  10.578  0.2295 -0.0459  0.2217
 6825W        W10889   8.535   5.663   0.331  0.1062  0.4188 -0.1208
 6826W        W10890   8.657   0.681   9.211  0.1312 -0.1659  0.3390
 6827W        W10891  10.442   6.898  10.597 -0.2213 -0.2115 -0.1313
 6828W        W10892   9.480   8.402   1.939  0.1520  0.2560 -0.2702
 6829W        W10893   2.707   3.941   2.108 -0.1320  0.0180 -0.3734
 6830W        W10894   6.623   1.847   1.032 -0.0530  0.0698  0.2473
 6831W        W10895   7.814   9.777   8.268  0.0346 -0.1716  0.0898
 6832W        W10896   7.349   8.188   8.130 -0.3476  0.0561  0.0670
 6833W        W10897   7.387   5.794   9.745 -0.1292  0.2074 -0.1188
 6834W        W10898   7.838   0.065   8.720 -0.1505 -0.0157  0.1844
 6835W        W10899   7.778   8.865   1.580 -0.1435 -0.1779  0.1140
 6836W        W10900   5.402   6.716   0.745  0.2566 -0.0159  0.1520
 6837W        W10901   5.135   4.489   3.010 -0.0076 -0.0095  0.0006
 6838W        W10902   0.169  10.141   1.888 -0.0405 -0.1409  0.4103
 6839W        W10903   8.770   1.657   8.182  0.0771  0.0980  0.0786
 6840W        W10904   2.294  10.331  10.240  0.3085 -0.1999  0.0448
 6841W        W10905   7.580   9.400   3.622 -0.0276 -0.2428  0.0825
 6842W        W10906   9.260   3.842  10.168 -0.1977 -0.1504 -0.0168
 6843W        W10907   0.791   3.913   3.154 -0.0793  0.4710  0.2150
 6844W        W10908   7.116  10.405   9.534  0.0357  0.0926 -0.0745
 6845W        W10909   4.188   3.828   2.139 -0.0094 -0.1106  0.0878
 6846W        W10910   1.830   6.081   3.018  0.1653 -0.0632 -0.0679
 6847W        W10911   8.907   8.022   1.321  0.1818  0.3821  0.3204
 6848W        W10912  10.491   3.158   0.996  0.1855  0.0087  0.1208
 6849W        W10913  10.542   7.254   1.004 -0.0488  0.0449 -0.3186
 6850W        W10914   4.346   2.016   1.347 -0.1509  0.0638 -0.1914
 6851W        W10915   9.829   8.808   9.743 -0.1428 -0.1953  0.1263
 6852W        W10916   1.192   5.242   8.247 -0.2058 -0.2065 -0.0034
 6853W        W10917   1.983   4.903   2.232  0.0414 -0.0600  0.1507
 6854W        W10918   6.517   5.527   9.538 -0.1236 -0.0491  0.0103
 6855W        W10919   0.224   5.030   2.727 -0.1564 -0.2693 -0.2949
 6856W        W10920   7.270   6.780   9.840 -0.0928  0.0594 -0.1020
 6857W        W10921   3.347   9.759   2.283  0.1203  0.2231  0.0203
 6858W        W10922   8.001   5.964   1.123  0.2456 -0.0734 -0.0176
 6859W        W10923   6.378   3.606   8.438 -0.2173  0.0144 -0.3669
 6860W        W10924   4.630   9.428   1.639  0.4214  0.1075  0.2600
 6861W        W10925   1.146   8.720   2.024  0.0101  0.0180  0.0536
 6862W        W10926   6.500   1.868   1.650 -0.0226  0.3034 -0.1423
 6863W        W10927   3.932   5.289   0.452 -0.0115 -0.1979  0.0260
 6864W        W10928   1.825   9.882  10.464 -0.1306 -0.3414  0.2841
 6865W        W10929   2.131   9.436   1.615 -0.0277  0.0221 -0.4669
 6866W        W10930   7.165   9.547   0.751 -0.1105 -0.2507  0.0637
 6867W        W10931   4.632   7.637   8.549  0.0369 -0.0393 -0.1910
 6868W        W10932   1.449   8.625   0.010 -0.1099 -0.0383 -0.0043
 6869W        W10933  10.449   3.612   6.887 -0.1726 -0.0403  0.0028
 6870W        W10934   3.323   5.246  11.187 -0.1309 -0.2094  0.0441
 6871W        W10935   7.495   8.013   1.955  0.0674 -0.0577 -0.3254
 6872W        W10936   4.539  10.068   2.484 -0.0810 -0.0022 -0.1906
 6873W        W10937   5.905   3.935  11.308 -0.2626  0.1255 -0.0931
 6874W        W10938   3.612   5.001  10.857 -0.0965  0.1345 -0.1476
 6875W        W10939   1.080   6.777   8.116 -0.3485 -0.2360 -0.0925
 6876W        W10940   5.583  10.091   7.205  0.1422  0.0294  0.1398
 6877W        W10941   7.291   2.709   1.624  0.2215 -0.0518 -0.0036
 6878W        W10942   0.896   1.674   8.709 -0.2079 -0.0977  0.0663
 6879W        W10943   3.282   2.193   0.486 -0.0295 -0.0421  0.0304
 6880W        W10944   3.729   4.855   3.356 -0.1146  0.5790  0.0484
 6881W        W10945  10.239   0.980  10.728  0.1848  0.0908  0.0152
 6882W        W10946   5.512   6.383   2.285 -0.0163 -0.1315 -0.1728
 6883W        W10947   3.294   6.513   0.338 -0.1012  0.0517 -0.1158
 6884W        W10948  10.057   1.371   0.737  0.0796 -0.0492  0.1785
 6885W        W10949   8.149  10.258   9.352 -0.0196  0.0882 -0.1222
 6886W        W10950   6.559   6.337   9.493  0.2666 -0.1547  0.0671
 6887W        W10951   3.998   5.394   0.955  0.3073 -0.0899 -0.0869
 6888W        W10952   8.729   7.156   1.310  0.1233  0.0265 -0.0284
 6889W        W10953   3.870   1.775   1.027 -0.2972  0.2026 -0.0357
 6890W        W10954   9.717   2.177   1.325 -0.0114  0.1641 -0.3870
 6891W        W10955   5.995   3.305   9.522  0.0236 -0.0797  0.3482
 6892W        W10956   2.813   6.400   9.911  0.2335  0.2043 -0.0488
 6893W        W10957   3.269   4.668   9.676  0.3875 -0.0362 -0.1387
 6894W        W10958   9.194   1.661  10.005 -0.2423 -0.1319 -0.0413
 6895W        W10959   2.620   1.038   2.439 -0.0689 -0.0744 -0.3143
 6896W        W10960   4.652   4.243   9.717 -0.0234  0.1041 -0.0043
 6897W        W10961  10.498   7.592   1.872 -0.1457 -0.0572  0.0806
 6898W        W10962   6.917   3.060   1.580 -0.0771  0.2158 -0.2332
 6899W        W10963   2.624   7.700  10.476 -0.0006  0.0167 -0.3475
 6900W        W10964   9.673   2.730   7.885 -0.1002  0.2743  0.0905
 6901W        W10965   3.277   1.472   8.886 -0.0442 -0.2591  0.1226
 6902W        W10966   6.683   4.677   1.239 -0.0305 -0.0537 -0.3692
 6903W        W10967  10.166   5.684   9.392  0.1375 -0.0074  0.1439
 6904W        W10968   0.580   4.006   1.014 -0.0095  0.0223  0.0383
 6905W        W10969   4.406   3.809   7.422 -0.2130  0.1386  0.2282
 6906W        W10970   9.337   7.263  11.153  0.2951 -0.1054  0.1942
 6907W        W10971   1.222   6.276   4.157  0.0138  0.0910 -0.0361
 6908W        W10972   0.841   6.730   9.062 -0.1871  0.1153 -0.1629
 6909W        W10973   9.330   2.911   8.858  0.0292  0.1902  0.0776
 6910W        W10974   8.256   7.092   0.323  0.3336 -0.0292  0.0216
 6911W        W10975   5.230   1.996   1.125 -0.1883  0.1477 -0.3465
 6912W        W10976   5.069   1.640   7.552 -0.0110  0.0625 -0.2069
 6913W        W10977   7.596   6.159   0.745 -0.2574  0.0868 -0.1025
 6914W        W10978   2.888   3.990   9.071 -0.3290  0.0049  0.0019
 6915W        W10979   5.492   1.239   7.513 -0.0160 -0.2866 -0.0096
 6916W        W10980   9.838   8.283   2.329 -0.1785 -0.2292  0.1227
 6917W        W10981   0.401   4.678   0.222 -0.0749 -0.1139 -0.0212
 6918W        W10982   4.858   4.931   8.700  0.0209  0.0238 -0.2361
 6919W        W10983   3.687   6.268   8.105 -0.0393  0.0845  0.0930
 6920W        W10984   1.957   5.775   8.962  0.0690 -0.1434  0.3765
 6921W        W10985   5.750   9.834   9.470  0.2956  0.1472 -0.1843
 6922W        W10986   5.664   3.399   1.389 -0.0507  0.2107  0.0721
 6923W        W10987   8.874   2.127   2.474 -0.1393  0.1153 -0.0836
 6924W        W10988   5.766   4.239   9.855 -0.0913  0.0235 -0.0536
 6925W        W10989   9.248   9.775   9.257 -0.0888  0.1964  0.0689
 6926W        W10990   0.675   4.764   8.801 -0.0663  0.2216  0.0477
 6927W        W10991  10.670   5.621   7.542 -0.0065 -0.2253  0.1705
 6928W        W10992   2.317   5.959   2.909 -0.1928 -0.0775  0.2807
 6929W        W10993   0.151   9.378   2.268 -0.2907 -0.3588  0.0795
 6930W        W10994   4.261   2.297  10.694 -0.0532  0.0079 -0.0688
 6931W        W10995   3.355   9.686   8.088 -0.1912 -0.1348 -0.0583
 6932W        W10996   0.488   5.094   3.165 -0.1311 -0.0229  0.0448
 6933W        W10997   6.511   8.156   7.588  0.0693  0.3197  0.0774
 6934W        W10998  10.034  10.181   0.211  0.1547  0.1686  0.0708
 6935W        W10999   1.745   6.703   1.922  0.0768 -0.0214  0.2314
 6936W        W11000   6.039   9.343   8.251 -0.0602  0.0290  0.0615
 6937W        W11001   5.797   0.704   1.303 -0.0966 -0.0724 -0.2190
 6938W        W11002   0.674  10.184   9.209 -0.0191  0.2235  0.0351
 6939W        W11003   2.664   2.458  11.044 -0.0993 -0.2312  0.0329
 6940W        W11004   2.674   2.406   1.982  0.0198  0.0325 -0.1662
 6941W        W11005   6.724   5.922   0.798  0.1566  0.3025 -0.3174
 6942W        W11006   6.893   8.810   1.427 -0.0704  0.1825  0.0477
 6943W        W11007   9.907   0.643  11.054  0.0326  0.2516 -0.0615
 6944W        W11008  10.621   6.670   9.370 -0.0170  0.0238 -0.0593
 6945W        W11009   7.286   3.491   0.760  0.1861 -0.0001 -0.3019
 6946W        W11010   8.447   9.677   2.125 -0.0813  0.0176 -0.0746
 6947W        W11011   1.814   8.522   0.692 -0.1001 -0.0013 -0.2685
 6948W        W11012  10.666   3.957   1.212 -0.2208 -0.1560  0.2769
 6949W        W11013   4.832   8.407   9.300 -0.2796 -0.0650 -0.3272
 6950W        W11014   1.015   7.990   8.349 -0.1641 -0.0376 -0.0188
 6951W        W11015   0.949   7.144  10.011  0.0611 -0.1230 -0.0289
 6952W        W11016   9.403   4.513   6.499 -0.3869 -0.2235  0.3774
 6953W        W11017   2.401   7.526  10.018 -0.2076 -0.3146 -0.1645
 6954W        W11018   9.626   3.446   7.256 -0.1200 -0.1192 -0.0879
 6955W        W11019   2.113   2.765   2.710  0.1566  0.1895 -0.1674
 6956W        W11020   8.483   1.555  11.055 -0.2025 -0.0583  0.2588
 6957W        W11021   1.918   4.652   8.336 -0.0014 -0.1152 -0.0384
 6958W        W11022   2.037   4.290   3.534  0.3409 -0.3424 -0.0921
 6959W        W11023   6.912   0.205   2.471  0.1318 -0.0622  0.2892
 6960W        W11024   0.732   8.463   3.267  0.0285  0.6043  0.0774
 6961W        W11025   1.827   2.000   3.374 -0.1861 -0.0399  0.1109
 6962W        W11026   5.353   7.593   9.149 -0.2446  0.2756 -0.0149
 6963W        W11027   5.229   5.288   7.983 -0.2077 -0.1661  0.2240
 6964W        W11028   3.741   7.351   2.088 -0.0085 -0.0850 -0.0761
 6965W        W11029   6.479   2.352   1.241 -0.2657  0.2279 -0.1080
 6966W        W11030   2.349   3.419  11.232 -0.0204 -0.0704  0.0662
 6967W        W11031   3.915   1.758   8.011  0.1772 -0.2586  0.0412
 6968W        W11032   7.724   9.584   0.113 -0.1157 -0.0726 -0.1532
 6969W        W11033   6.907   3.702   9.331  0.3273  0.1278  0.0774
 6970W        W11034   1.157   1.548   0.426  0.4129  0.2682 -0.0232
 6971W        W11035   1.699   0.343   3.008 -0.0869  0.0843  0.4876
 6972W        W11036   1.277   4.317   9.755 -0.1064 -0.0773  0.1716
 6973W        W11037   2.882  10.189   1.399 -0.0761  0.1320 -0.0452
 6974W        W11038   3.125   5.947   0.094 -0.2054 -0.1051 -0.0407
 6975W        W11039   7.234   1.487   2.531  0.2295 -0.0827 -0.1473
 6976W        W11040   8.791   8.201   9.223 -0.1852 -0.1761 -0.3297
 6977W        W11041  10.210   6.246   9.370 -0.1972 -0.1712 -0.1245
 6978W        W11042   5.245   3.499   2.036  0.0470 -0.2743  0.1913
 6979W        W11043   9.222   7.940   1.721 -0.2654  0.2612  0.1410
 6980W        W11044   2.786   9.217   1.190  0.1878 -0.1238  0.1485
 6981W        W11045   2.209   5.324   2.391  0.0102  0.1978  0.2076
 6982W        W11046   5.141   3.532   9.696 -0.2264  0.0176 -0.5286
 6983W        W11047   8.166   8.770   2.231  0.0298  0.1950 -0.2203
 6984W        W11048   5.983   9.211   2.837 -0.0125  0.1400 -0.2732
 6985W        W11049  10.465   3.442   2.411  0.0631 -0.1296 -0.0915
 6986W        W11050   7.241   8.360   2.188 -0.0639 -0.1496 -0.0233
 6987W        W11051   3.663   6.798   2.054  0.1489  0.1663  0.1428
 6988W        W11052   3.117   7.742   9.514  0.2613 -0.1902 -0.3444
 6989W        W11053   2.192   4.229   8.216  0.0894  0.2871  0.1141
 6990W        W11054   2.995   2.494   9.291 -0.0609 -0.0439 -0.4752
 6991W        W11055   1.486   1.297   1.067 -0.0526 -0.0466  0.0055
 6992W        W11056   8.838   6.743   9.391 -0.1332 -0.2420 -0.1116
 6993W        W11057   8.045   0.938   0.231 -0.4265 -0.1114  0.2794
 6994W        W11058   1.785   8.975  11.294 -0.3822  0.0947  0.1801
 6995W        W11059   7.537   9.132  10.699 -0.2132  0.1924 -0.1447
 6996W        W11060   2.865  10.005  10.899 -0.0047 -0.3784 -0.1429
 6997W        W11061  10.640   1.363   1.431  0.2030  0.1983 -0.2621
 6998W        W11062  10.068   7.007   8.563  0.0218  0.2009  0.1523
 6999W        W11063   7.267   3.678  11.254  0.1482 -0.2445 -0.1459
 7000W        W11064   2.330   4.580   0.713 -0.0036 -0.0386  0.3318
 7001W        W11065  10.497   5.517  10.590 -0.2328  0.2839  0.0132
 7002W        W11066   3.882   3.635   0.539 -0.0330 -0.2050  0.1474
 7003W        W11067   9.261   3.806   9.069 -0.0137  0.4246  0.0157
 7004W        W11068   6.563   0.883  11.050 -0.1535  0.3446  0.2409
 7005W        W11069   2.866   3.314   0.728 -0.0883 -0.0576  0.0787
 7006W        W11070   0.412   2.562   1.249 -0.7703 -0.1347 -0.1008
 7007W        W11071   3.365   1.579   0.728  0.0325  0.0999 -0.0526
 7008W        W11072  10.549  10.170   0.073 -0.1827  0.1339 -0.0926
 7009W        W11073   4.014   3.308   1.764  0.0700 -0.2667  0.1738
 7010W        W11074   2.125   4.936   0.410 -0.0284  0.0353 -0.1450
 7011W        W11075   6.419   3.518   3.752  0.2194  0.2479 -0.2707
 7012W        W11076   0.423  10.264   2.381 -0.1245 -0.3578  0.0759
 7013W        W11077   0.183   4.458   9.533  0.0399  0.2319 -0.1833
 7014W        W11078   2.479   4.623  11.143 -0.1700 -0.0120  0.2711
 7015W        W11079   8.126   2.263   9.949 -0.0321  0.1020  0.0186
 7016W        W11080   7.080   1.316  10.267  0.1203 -0.4854 -0.1499
 7017W        W11081   0.672   9.953  10.251  0.2353 -0.0805  0.4611
 7018W        W11082   1.488   7.737  10.954  0.0798 -0.2593  0.1458
 7019W        W11083   1.770   8.943   8.101  0.6389  0.1664 -0.0060
 7020W        W11084   6.882   6.911   0.915  0.0222  0.0318  0.2798
 7021W        W11085   5.925   3.030   1.671  0.1222 -0.0801 -0.0901
 7022W        W11086   4.634   6.026   0.170 -0.0431 -0.0329 -0.0441
 7023W        W11087   0.314   7.238  10.240  0.0944 -0.1155 -0.1212
 7024W        W11088   7.411   5.246   2.930 -0.2986  0.0891 -0.2768
 7025W        W11089   6.542   6.311  11.319  0.0405  0.1576 -0.2370
 7026W        W11090   8.385   9.902  11.057 -0.1203 -0.2934 -0.2200
 7027W        W11091   8.584   0.413   1.057 -0.2900 -0.3002 -0.0944
 7028W        W11092   3.592   6.362  11.309 -0.0262 -0.2230 -0.2038
 7029W        W11093   5.801   3.493   0.180  0.0530  0.5036  0.3035
 7030W        W11094   0.436   6.833   2.355  0.1967  0.1477  0.0081
 7031W        W11095   4.048  10.159   0.093 -0.4077  0.3534  0.0962
 7032W        W11096   1.580   7.954   1.406 -0.0604 -0.1006  0.0921
 7033W        W11097   7.282   7.555   2.131  0.0021  0.1442 -0.3326
 7034W        W11098   5.143   9.030  11.183  0.0453 -0.2032  0.1093
 7035W        W11099   1.608   4.464   2.826 -0.0563 -0.0640  0.1765
 7036W        W11100   5.467   9.656  10.690 -0.0222  0.0613 -0.0212
 7037W        W11101   0.971   9.454   8.995  0.1622 -0.0489 -0.2804
 7038W        W11102   5.262   5.995   2.515 -0.0780 -0.0718 -0.1466
 7039W        W11103   9.308   7.206   7.941 -0.1490 -0.1040 -0.0415
 7040W        W11104   5.838   6.680   9.734 -0.0451 -0.0212 -0.0580
 7041W        W11105   6.305   5.833   1.069 -0.0508 -0.0935 -0.0509
 7042W        W11106   8.604   3.017   7.545  0.2056  0.0303  0.1952
 7043W        W11107   2.632   9.110   9.589  0.1553  0.1688  0.1728
 7044W        W11108  10.458   5.817   0.759  0.1650 -0.3115  0.3425
 7045W        W11109   4.527   9.455   7.697 -0.2039  0.2413  0.1196
 7046W        W11110   3.273   1.105   0.677 -0.3568 -0.4478 -0.2594
 7047W        W11111   5.416   9.923   2.737  0.0098 -0.2509 -0.0629
 7048W        W11112   9.969   7.600   9.468  0.1689  0.3529  0.1003
 7049W        W11113   0.160   2.009   9.047  0.4184 -0.2272  0.0066
 7050W        W11114   2.738  10.428  10.002 -0.3269  0.0281  0.1036
 7051W        W11115   4.845   7.250   1.467  0.1878 -0.0471 -0.1805
 7052W        W11116   5.555   2.967   7.556  0.0212 -0.1296 -0.0413
 7053W        W11117   5.218   1.019   0.664  0.0119  0.0189 -0.0419
 7054W        W11118   6.867   8.979   8.065 -0.1573  0.0208 -0.1390
 7055W        W11119   1.468   3.185   1.933  0.0983  0.3254  0.2994
 7056W        W11120   1.766   6.739   2.708  0.1655  0.0789 -0.0686
 7057W        W11121   6.861   8.610   2.882  0.0537  0.0164 -0.0769
 7058W        W11122   4.720   4.145   1.136  0.0445 -0.0846  0.0285
 7059W        W11123   2.226   5.503   9.546  0.2991 -0.4297 -0.0362
 7060W        W11124   8.392   2.927   8.449 -0.0233  0.3171 -0.1134
 7061W        W11125   0.687   8.815   3.613 -0.0171  0.0512  0.2078
 7062W        W11126   1.641   7.762   0.521 -0.1267  0.3123 -0.3883
 7063W        W11127   8.668   6.859   9.840  0.1277  0.0247  0.0070
 7064W        W11128   6.981   4.850   9.492  0.0401  0.0951 -0.0105
 7065W        W11129  10.241   8.120  10.242 -0.0153 -0.0429  0.0360
 7066W        W11130  10.256   8.160  11.278 -0.0637  0.2923  0.1128
 7067W        W11131   8.441   0.698   8.701 -0.2636 -0.3144 -0.3665
 7068W        W11132   4.835   4.772   1.835  0.2565  0.3903  0.2207
 7069W        W11133   5.095   9.499   1.914  0.2093  0.0448 -0.0610
 7070W        W11134   4.886   0.200   1.428  0.0287  0.1985  0.1421
 7071W        W11135   8.647   9.617   0.071  0.0265  0.0805  0.0537
 7072W        W11136   6.761   5.037  10.720 -0.0941  0.0018  0.1653
 7073W        W11137   8.557   6.011   9.342  0.2443  0.0311 -0.2523
 7074W        W11138   7.476   2.503   0.208  0.0154 -0.4627 -0.0610
 7075W        W11139   1.207   4.773   1.990 -0.0623 -0.1442 -0.1415
 7076W        W11140   0.860   2.186   2.683 -0.1094 -0.1520  0.0423
 7077W        W11141   0.853   4.156  10.620 -0.1307 -0.3728  0.0625
 7078W        W11142   0.891  10.062   0.244  0.1450  0.1122 -0.1141
 7079W        W11143   9.172   6.349  10.989 -0.1504  0.0498 -0.3452
 7080W        W11144  10.571   9.355  11.306  0.1735  0.0682 -0.3228
 7081W        W11145   9.563   4.691   0.511 -0.0763 -0.1511 -0.1145
 7082W        W11146  10.339   0.895   0.824  0.0244 -0.1784 -0.1101
 7083W        W11147   2.182   2.724   2.105 -0.0537 -0.1659 -0.1728
 7084W        W11148  10.686   0.266   0.236  0.0447  0.1694 -0.1142
 7085W        W11149   9.757   8.134  11.057 -0.1426  0.2146  0.1485
 7086W        W11150   0.052   8.839   1.224 -0.0296 -0.0164 -0.1787
 7087W        W11151   8.901   4.393   0.097 -0.1400  0.0772  0.1257
 7088W        W11152   9.317  10.503   3.412 -0.0953  0.0705  0.0607
 7089W        W11153   5.887   5.383   0.553 -0.2493  0.1120  0.1157
 7090W        W11154   8.414   5.425   7.696 -0.1006  0.0018 -0.0753
 7091W        W11155   5.791   0.658   7.769 -0.1641 -0.2716  0.2570
 7092W        W11156   2.997   8.077   9.891 -0.0905  0.0920 -0.0917
 7093W        W11157   6.814   6.279   7.494 -0.0932  0.1704  0.1449
 7094W        W11158   5.665   8.839  10.962  0.0366 -0.1764 -0.2915
 7095W        W11159   5.732   7.461   1.014  0.3143  0.0670  0.2757
 7096W        W11160   4.302   6.942   7.378 -0.1346 -0.1333 -0.2135
 7097W        W11161  10.038   9.102  10.116  0.1025  0.1252 -0.0019
 7098W        W11162   9.690   8.854   1.897  0.1530  0.1755  0.1211
 7099W        W11163  10.199   0.616   9.754  0.1073 -0.1928 -0.0133
 7100W        W11164   9.219   5.918  11.132 -0.0494  0.1679  0.0813
 7101W        W11165   3.276   2.400   9.658  0.0555 -0.2412 -0.1143
 7102W        W11166   3.885   5.089   7.416 -0.1110  0.0323  0.0024
 7103W        W11167   0.686   7.388   0.461  0.2544  0.1005  0.0030
 7104W        W11168   2.548   4.934   1.479 -0.0772  0.0169  0.1163
 7105W        W11169   9.099   5.830   2.018 -0.1179  0.1031  0.3202
 7106W        W11170   1.818   3.036   2.295  0.0967  0.2177  0.0620
 7107W        W11171   0.388   3.082   2.607 -0.2054  0.2552 -0.1867
 7108W        W11172   8.946   7.552   0.331  0.2123  0.1182  0.0371
 7109W        W11173   5.739   2.976   8.086  0.1269  0.0847  0.0022
 7110W        W11174   6.990   5.424   2.575  0.5001  0.1953  0.1783
 7111W        W11175   7.801   5.857   9.414  0.2402  0.0231  0.0568
 7112W        W11176   7.784   0.274  10.487  0.1567 -0.2245  0.0278
 7113W        W11177   8.771   6.170  11.218  0.1809 -0.2165  0.3224
 7114W        W11178   9.083  10.111   9.565 -0.1928 -0.1287 -0.0825
 7115W        W11179   0.685   5.019  11.349 -0.3566  0.2305 -0.1142
 7116W        W11180  10.459  10.754   1.730  0.0648 -0.0726  0.2075
 7117W        W11181   9.673  10.570   7.372  0.1265 -0.1863  0.0379
 7118W        W11182   3.418   5.000   0.269  0.4113  0.2329 -0.0011
 7119W        W11183   8.827   2.659  10.455  0.3310  0.1019  0.3228
 7120W        W11184   2.141   2.159   9.099  0.1422 -0.1711 -0.1053
 7121W        W11185   6.160   6.541   0.226 -0.3351 -0.1095  0.2200
 7122W        W11186   1.401   2.942   8.124 -0.2659 -0.1562  0.0925
 7123W        W11187   3.081   1.184   8.460  0.0002 -0.0651  0.1137
 7124W        W11188   9.590   9.507   8.833 -0.1010  0.0436  0.1702
 7125W        W11189   0.050   8.915   2.543 -0.0517 -0.0733 -0.1569
 7126W        W11190   2.147   2.529   9.479 -0.0202  0.1813  0.1623
 7127W        W11191   2.081   8.791  10.850 -0.0325  0.1600 -0.1365
 7128W        W11192  10.334   0.432   7.553  0.2849  0.1449 -0.1593
 7129W        W11193   8.543   0.122   2.907  0.4325  0.1096 -0.1637
 7130W        W11194   7.789   8.746  10.348 -0.0204 -0.1228  0.1740
 7131W        W11195   8.751   1.423  10.011 -0.0647  0.0965  0.3067
 7132W        W11196   7.171   6.252   1.693  0.0904 -0.0035  0.2144
 7133W        W11197   2.736  10.129   0.013 -0.1946  0.0260  0.0099
 7134W        W11198   6.512   4.543   2.396 -0.1586  0.1234 -0.1157
 7135W        W11199   7.664   3.427   9.806 -0.2235 -0.1876 -0.5235
 7136W        W11200   0.690  10.523   0.423  0.2810 -0.0016  0.0176
 7137W        W11201   3.958   1.536   1.701  0.1360  0.1164 -0.0141
 7138W        W11202  10.025   9.163   9.362 -0.1835  0.0948 -0.4199
 7139W        W11203   4.640  10.383   0.694  0.2074  0.2214  0.1787
 7140W        W11204  10.330   7.636   3.423  0.1826  0.3236 -0.2378
 7141W        W11205   9.952   0.602   7.856 -0.2121  0.1028 -0.1328
 7142W        W11206   3.759   3.764   1.776 -0.0118  0.0655 -0.1122
 7143W        W11207   7.588   9.686   2.112 -0.1196 -0.0176 -0.1723
 7144W        W11208   2.495   9.519   9.330 -0.0212  0.3830 -0.1989
 7145W        W11209   9.097   8.726   0.984 -0.1649 -0.0251  0.3744
 7146W        W11210   2.267   3.081   8.459 -0.0355  0.0768  0.0851
 7147W        W11211   4.559  10.595   2.397  0.0439 -0.0325 -0.3248
 7148W        W11212   1.503   5.015   2.309  0.0312 -0.3818  0.1075
 7149W        W11213   3.711   9.684   9.425  0.2329  0.4221  0.1412
 7150W        W11214   4.125   1.399   2.320 -0.2716  0.0236  0.1982
 7151W        W11215   5.526   4.708   0.832 -0.0044 -0.3472 -0.0440
 7152W        W11216   4.075   6.087  10.071  0.1421 -0.0570  0.1592
 7153W        W11217   1.905  10.082   9.822 -0.1445  0.0203  0.0341
 7154W        W11218   0.516   5.692   1.351 -0.1870 -0.0586  0.3874
 7155W        W11219   3.428   7.628  10.051 -0.1776  0.0395  0.2340
 7156W        W11220  10.494   6.058  10.644  0.0458  0.2422 -0.3283
 7157W        W11221   8.874   8.759   3.767  0.1388 -0.1425  0.0211
 7158W        W11222   1.968   9.419   0.068 -0.1001 -0.2585  0.0089
 7159W        W11223   6.930   9.048  10.288  0.2404  0.3912 -0.0256
 7160W        W11224   5.259   3.329   8.379  0.3146 -0.3289 -0.2626
 7161W        W11225   6.709   5.440   0.595  0.1452 -0.2947 -0.1569
 7162W        W11226   2.105   9.265  10.982  0.0141  0.1431  0.1428
 7163W        W11227   4.068   7.264  11.155  0.1663 -0.0391 -0.0086
 7164W        W11228   1.114   4.386   1.321 -0.1579  0.1797 -0.1526
 7165W        W11229   3.292   8.890   8.629 -0.0953  0.1248  0.1047
 7166W        W11230   6.802   9.665  10.342 -0.0957  0.0869 -0.2465
 7167W        W11231  10.129   6.200   2.661  0.0694 -0.0230  0.0219
 7168W        W11232   3.933   3.769   8.320 -0.0746  0.1115 -0.1042
 7169W        W11233   0.897   6.644   2.552 -0.0163  0.2129  0.0317
 7170W        W11234   0.734   3.187   9.203 -0.0218 -0.0066 -0.2949
 7171W        W11235   6.070   5.053   8.192 -0.2579 -0.1288 -0.1428
 7172W        W11236   3.764  10.275  11.026  0.1509 -0.0343 -0.2548
 7173W        W11237   1.882   1.771   7.338  0.1166  0.0926  0.0413
 7174W        W11238   0.507   0.850   1.911  0.1631  0.0508  0.2995
 7175W        W11239   6.970   5.987   8.581 -0.2353 -0.1456  0.1639
 7176W        W11240   9.046   3.537   2.480 -0.1848  0.2297 -0.2366
 7177W        W11241   9.233  10.386   9.160  0.2447  0.0747  0.2687
 7178W        W11242   5.895   0.092   2.449 -0.0627  0.3297  0.0722
 7179W        W11243   7.840   1.760   1.467 -0.1038  0.1882  0.0523
 7180W        W11244   8.403   4.432   9.133  0.0582  0.0828 -0.0118
 7181W        W11245   6.385   6.600   2.602  0.0293 -0.3830 -0.1695
 7182W        W11246   0.677   2.732   2.837  0.0670  0.0896  0.2041
 7183W        W11247   0.884   5.692   7.626  0.1184 -0.0936  0.0698
 7184W        W11248  10.331   9.582   0.320 -0.1719 -0.2825 -0.1128
 7185W        W11249   1.994   0.979   0.656  0.2411 -0.0085  0.0225
 7186W        W11250   6.940   7.082   8.924 -0.0560 -0.2511  0.0535
 7187W        W11251   0.240   3.262  10.744  0.2430 -0.3640 -0.1604
 7188W        W11252   4.516   5.673   9.203 -0.3896 -0.0848 -0.0132
 7189W        W11253   9.615   5.074  11.267 -0.2660 -0.1043  0.2672
 7190W        W11254   7.449   3.093   8.233 -0.0172  0.0854  0.2143
 7191W        W11255   4.779   6.921   9.437 -0.1711  0.0197 -0.1857
 7192W        W11256   5.327   8.779   9.524  0.1488 -0.1841 -0.1521
 7193W        W11257   3.060   2.111   0.017  0.1912 -0.1278  0.1843
 7194W        W11258   2.390   5.456   8.994  0.1844  0.2234 -0.1896
 7195W        W11259   2.235   1.461   9.574 -0.0924  0.1976  0.0228
 7196W        W11260   9.604   2.586   2.654  0.0135  0.0380  0.0967
 7197W        W11261   4.646   5.853  10.937 -0.0054 -0.1108 -0.0404
 7198W        W11262   5.249  10.319   3.706  0.1917 -0.0611 -0.1869
 7199W        W11263   8.353   6.609   2.288 -0.2347 -0.1568  0.0417
 7200W        W11264  10.199   7.261   3.856 -0.2534 -0.0488  0.0762
 7201W        W11265   6.036   1.042   2.913 -0.0815 -0.1878  0.3370
 7202W        W11266  10.535   1.679   3.003 -0.2317 -0.1833 -0.0250
 7203W        W11267   5.440   3.079   1.727  0.0323 -0.1166 -0.0369
 7204W        W11268   4.578   0.947   7.229  0.2131 -0.1351  0.3513
 7205W        W11269   4.741   5.632   9.676 -0.1883  0.0418 -0.0067
 7206W        W11270   4.452   2.005   8.821  0.0304  0.0184 -0.3147
 7207W        W11271   8.349   8.459   1.681 -0.2078 -0.0173  0.0116
 7208W        W11272   6.651   4.444   1.773 -0.1493  0.5361  0.0283
 7209W        W11273   0.771   0.469   8.103  0.1315 -0.0064 -0.0222
 7210W        W11274   5.063   1.358   9.290 -0.0539 -0.1245 -0.0117
 7211W        W11275   0.100  10.528   0.278  0.0460 -0.2797  0.2188
 7212W        W11276   8.533   8.867   0.775  0.1403 -0.0326 -0.1212
 7213W        W11277   0.974   8.832  10.084  0.2445 -0.1144 -0.4161
 7214W        W11278   8.441   1.162   7.986 -0.3398 -0.0588  0.3548
 7215W        W11279   3.997   6.359   0.848 -0.0919  0.1614 -0.1539
 7216W        W11280   6.964   7.932  11.171 -0.1898  0.1639  0.0907
 7217W        W11281   2.199   5.752  11.217  0.4271  0.3390 -0.2272
 7218W        W11282   5.946   0.202   8.972 -0.1111  0.3375  0.1560
 7219W        W11283   0.123   2.551   2.555 -0.0009  0.1234 -0.2180
 7220W        W11284   6.109   3.561   8.873 -0.2841  0.0337 -0.1982
 7221W        W11285  10.604   0.161   2.217 -0.1071 -0.0986 -0.0518
 7222W        W11286   2.631   0.583   1.691  0.1710  0.2355  0.0085
 7223W        W11287   5.756   5.103   3.262 -0.2005 -0.2443 -0.3182
 7224W        W11288   1.367   5.461   9.071 -0.1783 -0.0925  0.4176
 7225W        W11289   7.594   9.616   3.125 -0.2561 -0.1691 -0.0053
 7226W        W11290   2.442   9.835  10.546  0.0366 -0.3729 -0.2369
 7227W        W11291   5.149   3.949   9.106 -0.0257  0.0789  0.1453
 7228W        W11292   6.337  10.577  10.662 -0.2660  0.1164 -0.1003
 7229W        W11293   8.204   7.137   9.846  0.0828 -0.1874 -0.0908
 7230W        W11294   9.815   1.674   7.551  0.0548  0.1599  0.0950
 7231W        W11295   4.184   0.815   1.109  0.3463  0.2773  0.0710
 7232W        W11296   3.330   5.880  10.668 -0.1129 -0.1530 -0.0921
 7233W        W11297   8.082   2.045   9.499 -0.1755 -0.1921 -0.0263
 7234W        W11298   4.812   1.022   3.039 -0.2709  0.5699  0.1753
 7235W        W11299   6.868   1.276   2.781  0.2751 -0.1810  0.2363
 7236W        W11300   6.925   6.815   3.004 -0.0113  0.1688 -0.2698
 7237W        W11301   3.837   2.396   0.593  0.2006  0.2507  0.1236
 7238W        W11302   6.600   3.935   8.731  0.1982  0.2314  0.1181
 7239W        W11303   5.753   0.159   1.153  0.1380 -0.4235 -0.0380
 7240W        W11304   2.855   1.464   0.652 -0.1089 -0.3792  0.0123
 7241W        W11305   8.295   7.704   3.072  0.1198  0.1987  0.0133
 7242W        W11306  10.061   4.518   2.761 -0.1553  0.3715 -0.2882
 7243W        W11307   1.608   2.033   0.376  0.1384  0.0052 -0.0991
 7244W        W11308   0.571   7.012   1.682  0.1557 -0.3074  0.1554
 7245W        W11309   9.868   6.038   1.460 -0.0511 -0.1721  0.0339
 7246W        W11310   1.456  10.141  10.084  0.0535  0.0154 -0.0899
 7247W        W11311   4.151   3.865   1.025 -0.0103  0.2035 -0.1063
 7248W        W11312   3.974   8.720   1.927 -0.0460  0.2289  0.0247
 7249W        W11313   0.846   6.277   9.267 -0.1303 -0.1023  0.1123
 7250W        W11314   4.406   9.861   8.331  0.1797 -0.3333  0.0997
 7251W        W11315   2.286   4.079   9.812  0.2007 -0.1462 -0.2006
 7252W        W11316  10.311   9.933   8.454 -0.0896  0.0130 -0.0479
 7253W        W11317   0.858   1.194  10.602 -0.2041  0.0756  0.2655
 7254W        W11318   9.250   0.937   8.482 -0.1746 -0.3538  0.1377
 7255W        W11319   9.618   8.847   9.284 -0.4035  0.1527 -0.1901
 7256W        W11320   7.092   1.173   9.458 -0.0830 -0.3869  0.0024
 7257W        W11321   8.572   0.262   8.942  0.2608  0.2658  0.2688
 7258W        W11322  10.465   2.532   1.747 -0.1998 -0.1495  0.0135
 7259W        W11323   2.485   2.881   0.020 -0.0028  0.3685 -0.1848
 7260W        W11324   3.941   3.911  11.352 -0.1353  0.1151 -0.0043
 7261W        W11325   1.712   9.202   1.737 -0.0596  0.0888  0.0525
 7262W        W11326   2.899   4.324  11.284 -0.0829 -0.1818  0.2733
 7263W        W11327   2.707   8.530   9.752 -0.3735  0.5881  0.2342
 7264W        W11328   2.705   4.286   9.639  0.0394  0.1406 -0.0021
 7265W        W11329  10.254   0.617   8.296 -0.4804 -0.2303  0.4098
 7266W        W11330   7.002   1.713   1.384  0.0508 -0.1250 -0.0294
 7267W        W11331   6.483   9.277   1.416  0.2298  0.1994  0.3048
 7268W        W11332   2.088   5.376   0.778  0.2060 -0.3188  0.0725
 7269W        W11333   6.340  10.018   6.966  0.1819 -0.1969 -0.2392
 7270W        W11334   6.616   8.222  10.598 -0.1596 -0.2662 -0.4545
 7271W        W11335   7.390   4.566  11.318 -0.1873 -0.1218 -0.0054
 7272W        W11336   3.293   8.924  10.961 -0.0429  0.3115  0.0526
 7273W        W11337   3.858   2.354   2.626 -0.1054 -0.0072  0.2500
 7274W        W11338   2.940   7.622   9.949  0.0559  0.1141 -0.0688
 7275W        W11339   8.280   9.627  10.053  0.0018  0.3157  0.0503
 7276W        W11340   8.091  10.733   2.963 -0.1850 -0.1595  0.0393
 7277W        W11341   2.963   8.146   0.873  0.0862 -0.1325 -0.2020
 7278W        W11342   1.287   2.986   9.129  0.2636  0.0697 -0.0946
 7279W        W11343   2.661   5.438  11.279 -0.1129 -0.2361  0.1658
 7280W        W11344  10.575   7.900   0.245  0.0496  0.0978  0.2218
 7281W        W11345   2.806   4.876   1.033 -0.0917  0.1251  0.0147
 7282W        W11346   2.097   3.046   9.593 -0.1428 -0.1210 -0.1392
 7283W        W11347   5.357   1.300   8.466  0.0792  0.1266 -0.1881
 7284W        W11348   1.322   8.439   0.846  0.0956  0.1320  0.0687
 7285W        W11349   5.079   9.493  11.029 -0.0532 -0.3168  0.1354
 7286W        W11350   8.647   7.794   8.023 -0.3133  0.3032 -0.2564
 7287W        W11351   4.882   3.342   1.123 -0.1479 -0.2948 -0.0246
 7288W        W11352   3.529   8.019   3.145 -0.1517  0.3411  0.1919
 7289W        W11353   7.396   4.563   2.341 -0.3948 -0.2095 -0.2085
 7290W        W11354   6.180   8.970   9.664  0.0866 -0.2426 -0.3244
 7291W        W11355   4.723   9.988  10.213  0.2021 -0.0447 -0.0747
 7292W        W11356   1.758   5.110   8.240  0.2742 -0.0940  0.0533
 7293W        W11357   2.838   9.537   0.222  0.1035 -0.2584  0.0208
 7294W        W11358   2.484   4.886  10.130 -0.3773  0.3232 -0.2510
 7295W        W11359  10.280  10.738   9.049 -0.2229  0.0706 -0.0085
 7296W        W11360   5.019   9.882   2.304 -0.2680 -0.2059 -0.0070
 7297W        W11361   8.203   5.793   8.023  0.0483  0.2565  0.0311
 7298W        W11362   9.554   0.083   9.767 -0.0082 -0.0210 -0.1252
 7299W        W11363   8.790   2.815   0.865  0.1672 -0.1177  0.1390
 7300W        W11364   7.193   8.715   8.889 -0.0139  0.2111  0.0203
 7301W        W11365   8.054   1.027   2.148 -0.0959 -0.0166 -0.1839
 7302W        W11366  10.070  10.179   3.772 -0.1855  0.2785  0.0372
 7303W        W11367   8.051   0.126  11.089  0.1138 -0.1327  0.0876
 7304W        W11368   2.614   0.264   8.810 -0.0253  0.1732 -0.0436
 7305W        W11369   1.425   4.935   9.075  0.0915  0.0112  0.0888
 7306W        W11370   6.742   1.128   1.977  0.3075  0.2171  0.4406
 7307W        W11371   5.068   5.818   8.606  0.1115  0.2363 -0.2757
 7308W        W11372   8.807   4.401   1.023 -0.0666 -0.1717  0.0730
 7309W        W11373   2.470   2.473   7.372 -0.1916 -0.0578 -0.1463
 7310W        W11374   8.330   1.465  10.223 -0.0668  0.0393  0.2692
 7311W        W11375   8.555   9.183  10.026  0.1275 -0.0350 -0.0111
 7312W        W11376   3.851   9.740   1.126 -0.0547  0.0034  0.1176
 7313ION    NA+11377   6.070   5.586   6.950  0.0998  0.2120  0.0585
 7314ION    NA+11378   4.598   1.640  10.312 -0.0057  0.0880  0.0388
 7315ION    NA+11379  10.745   5.954   3.001  0.0646 -0.0710  0.0575
 7316ION    NA+11380   1.753   2.693   3.041  0.2949  0.1696  0.0459
 7317ION    NA+11381   9.660   1.123   7.280 -0.2358 -0.2422 -0.1339
 7318ION    NA+11382   8.757  10.398   1.739  0.2075 -0.0458 -0.2737
 7319ION    NA+11383   6.778   3.014   9.335 -0.2369  0.1894 -0.2548
 7320ION    NA+11384   5.805   0.623   8.612  0.0538  0.2397  0.2047
 7321ION    NA+11385   1.280   5.388   0.198  0.2439  0.0786 -0.2980
 7322ION    NA+11386   0.092   0.678   3.495  0.0944  0.4771  0.2988
 7323ION    NA+11387   5.295   0.913  11.315 -0.0032  0.0544 -0.0449
 7324ION    NA+11388   4.461   4.914   8.186 -0.1140  0.1374  0.1094
 7325ION    NA+11389   9.894   4.855  10.499 -0.0070  0.2568 -0.1979
 7326ION    NA+11390   1.423   2.118   8.528  0.2707 -0.1322  0.0468
 7327ION    NA+11391   9.175   5.521   2.890 -0.0123  0.0134  0.0336
 7328ION    NA+11392   3.747   4.005  10.752 -0.0744  0.2603  0.0144
 7329ION    NA+11393   8.819   4.966  10.051  0.1341 -0.1374 -0.0936
 7330ION    NA+11394   3.768   7.849   8.174 -0.2719  0.2118 -0.0710
 7331ION    NA+11395   0.340   5.859   0.020  0.0781  0.0600 -0.0566
 7332ION    NA+11396   4.462   9.121   1.201  0.3479 -0.2353  0.0053
 7333ION    NA+11397   6.760   2.639   8.193  0.0043  0.2502  0.1638
 7334ION    NA+11398   8.628   7.390   0.719 -0.0937 -0.2933  0.1435
 7335ION    NA+11399   3.674   5.011   9.940 -0.0607 -0.2864  0.4685
 7336ION    NA+11400   6.221   8.282   7.119 -0.4821  0.1006 -0.1009
 7337ION    NA+11401   9.567   3.581   3.426 -0.0796 -0.2385  0.2103
 7338ION    NA+11402   6.892   2.623  10.692  0.0785  0.1974  0.0883
 7339ION    NA+11403   1.336   9.561   9.531 -0.1132  0.0284  0.0351
 7340ION    NA+11404   2.189   7.772   9.653  0.1797 -0.2127 -0.1849
 7341ION    NA+11405   2.267   6.168   3.632  0.0206 -0.4923 -0.1891
 7342ION    NA+11406   4.941   3.378   3.164 -0.2951  0.1682  0.3171
 7343ION    NA+11407   7.481   6.644   9.358  0.0038 -0.1179 -0.1112
 7344ION    NA+11408   2.184   2.548   8.292 -0.4305 -0.1244 -0.3531
 7345ION    NA+11409   4.655   3.984   8.705 -0.1949 -0.1441  0.2828
 7346ION    NA+11410   8.575   0.170   0.011  0.1911  0.0214 -0.0476
 7347ION    NA+11411   0.314   4.784   0.832  0.0328  0.1884 -0.1135
 7348ION    NA+11412   3.199  10.212  11.181 -0.1863  0.0442  0.1127
 7349ION    NA+11413   2.912   6.850   0.222 -0.0005  0.0924 -0.0353
 7350ION    NA+11414   1.737   4.693   7.256 -0.0216  0.0756  0.1493
 7351ION    NA+11415   5.327   8.114   1.459 -0.1176  0.0333  0.0096
 7352ION    NA+11416   9.440   2.888   7.030  0.1579 -0.1595  0.0702
 7353ION    NA+11417   5.770   4.874   7.368  0.0443 -0.1237 -0.3283
 7354ION    NA+11418   4.580   4.639   8.994 -0.0108  0.0993  0.2214
 7355ION    NA+11419   3.380   3.509   2.089  0.1182 -0.1313 -0.0304
 7356ION    NA+11420   0.841   2.927   6.953  0.0790 -0.4050 -0.1579
 7357ION    NA+11421   1.663   0.320  10.677  0.2219 -0.1090  0.0020
 7358ION    NA+11422   5.328   1.652   7.048 -0.0259  0.0354  0.0367
 7359ION    NA+11423   5.537   8.712   0.875  0.0015  0.2555  0.4706
 7360ION    NA+11424   2.023   9.787   7.557 -0.2263  0.3728  0.1816
 7361ION    NA+11425   1.315   2.818   1.630 -0.0455  0.0311  0.1155
 7362ION    NA+11426   3.698   4.922   2.491 -0.0446 -0.1217  0.1857
 7363ION    NA+11427   7.282   0.571   3.356 -0.0817 -0.0753 -0.0264
 7364ION    NA+11428   9.830   6.598   8.519 -0.3024 -0.2129  0.1517
 7365ION    NA+11429   0.748   9.213   8.165  0.1285 -0.3974  0.0239
 7366ION    NA+11430   4.075   7.889   2.185 -0.3160 -0.1158  0.2954
 7367ION    NA+11431   3.527   3.844   9.922  0.0403  0.0401  0.4679
 7368ION    NA+11432   7.632   2.163   0.574  0.1743  0.1233  0.0309
 7369ION    NA+11433   7.955   2.678  11.151 -0.2856 -0.0169  0.0277
 7370ION    NA+11434   2.151   5.101  10.513 -0.0880 -0.0324 -0.1909
 7371ION    NA+11435   9.755   7.322   9.941  0.2574  0.6670 -0.3095
 7372ION    NA+11436   3.504   9.670   1.654  0.2526 -0.1178 -0.2928
 7373ION    NA+11437   6.497   0.146  10.999  0.2631  0.2060 -0.1446
 7374ION    NA+11438   3.655   9.584   7.203  0.0003 -0.2132 -0.0757
 7375ION    NA+11439   6.608   5.005   8.142  0.0836  0.1340 -0.1637
 7376ION    NA+11440   4.901   1.470   2.198 -0.1637 -0.1169 -0.0962
 7377ION    NA+11441   5.730   4.035   7.051  0.0801 -0.2837  0.0663
 7378ION    NA+11442  10.421   7.295   8.840 -0.2318 -0.1889  0.1113
 7379ION    NA+11443   2.517   9.437  10.182 -0.0379 -0.1187 -0.0069
 7380ION    NA+11444   9.103   3.499   1.858  0.1247  0.1578 -0.2087
 7381ION    NA+11445   7.264   5.578   8.105 -0.0878 -0.3319 -0.2454
 7382ION    NA+11446   0.712   2.968   0.983 -0.0958  0.1686 -0.1560
 7383ION    NA+11447  10.606   3.432   1.930  0.0443 -0.0089  0.1681
 7384ION    NA+11448   5.751   0.968   0.700 -0.1298  0.2720 -0.4797
 7385ION    NA+11449  10.685   7.974  10.581 -0.0550  0.2978 -0.0513
 7386ION    NA+11450   9.688   7.772   9.095  0.0858  0.0114  0.2447
 7387ION    NA+11451   6.803   5.664   9.919 -0.2491  0.1977 -0.3078
 7388ION    NA+11452   5.659   7.811   7.791  0.1033  0.0902  0.0504
 7389ION    NA+11453   6.623   4.071  10.712  0.1911 -0.0215  0.0847
 7390ION    CL-11454   4.146   4.338   8.887  0.2089 -0.2655 -0.2612
 7391ION    CL-11455   1.009   2.616   2.398 -0.0364 -0.1726  0.3273
 7392ION    CL-11456   1.529   2.049   8.036 -0.0377  0.0347 -0.1419
 7393ION    CL-11457   8.303  10.455   1.412  0.1798  0.1328 -0.0990
 7394ION    CL-11458   2.719   0.576   2.648  0.2156  0.2335 -0.0260
 7395ION    CL-11459   2.664   2.788   8.426  0.3841 -0.0980  0.0543
 7396ION    CL-11460  10.663   8.208  11.047 -0.2740 -0.0256  0.1480
 7397ION    CL-11461   9.945   7.351   8.919 -0.2424 -0.0842 -0.2130
 7398ION    CL-11462   6.802   5.138   9.917 -0.0606 -0.1566  0.0707
 7399ION    CL-11463   3.872   5.445   9.659  0.1256 -0.0471 -0.1017
 7400ION    CL-11464   3.470   7.807  10.660  0.0047  0.0992 -0.1380
 7401ION    CL-11465   8.641   4.876   1.764  0.2062  0.1172 -0.0020
 7402ION    CL-11466   8.822   9.804   1.841 -0.2155 -0.0692  0.2599
 7403ION    CL-11467   2.082   4.813  10.925 -0.1413 -0.0562  0.3934
 7404ION    CL-11468   6.196   7.840   7.882  0.1178 -0.0627  0.2741
 7405ION    CL-11469   4.273   1.466   7.883  0.1099 -0.3871  0.0124
 7406ION    CL-11470   1.978   2.253   8.591  0.3123  0.2408 -0.1071
 7407ION    CL-11471   4.362   3.582   7.863 -0.0493  0.2832 -0.0656
 7408ION    CL-11472   1.558   7.711   9.564  0.1725 -0.0647 -0.2064
 7409ION    CL-11473   2.521   0.647   7.966 -0.0654 -0.1576 -0.1514
 7410ION    CL-11474  10.727   5.803  10.207 -0.1366 -0.0218  0.1671
 7411ION    CL-11475   3.090   2.707  10.617 -0.1423  0.1945 -0.2168
 7412ION    CL-11476   0.147   7.324   8.646 -0.0001 -0.3627 -0.6148
 7413ION    CL-11477   1.635   7.152   9.610 -0.0866  0.0242 -0.1739
 7414ION    CL-11478   4.174   8.377   2.433 -0.2298  0.1829 -0.3552
 7415ION    CL-11479   9.104  10.717   8.028  0.1741  0.2084 -0.1610
 7416ION    CL-11480   5.783   0.907  11.335 -0.1456 -0.0603  0.0596
 7417ION    CL-11481   7.138   2.845   7.899  0.3024  0.0624  0.1894
 7418ION    CL-11482   9.268   4.363   9.956 -0.3225 -0.0656 -0.1187
 7419ION    CL-11483   3.446   4.145  10.385  0.1079 -0.0976  0.1459
 7420ION    CL-11484   1.290   5.930   0.021 -0.0261 -0.1903 -0.1335
 7421ION    CL-11485   5.412   4.884   1.835  0.4708 -0.1161 -0.1651
 7422ION    CL-11486   9.286   8.478   3.924 -0.0384 -0.1292  0.0502
 7423ION    CL-11487   1.842   9.567   2.392  0.3906 -0.1691 -0.1258
 7424ION    CL-11488  10.423   6.605  11.170  0.2774  0.0879 -0.0067
 7425ION    CL-11489  10.284   4.504  10.401  0.0805 -0.1404  0.0008
 7426ION    CL-11490   6.910   2.901   9.851 -0.1091  0.1352  0.1965
 7427ION    CL-11491   7.229   6.432   2.612 -0.1739 -0.3463 -0.1340
 7428ION    CL-11492   2.392   8.608   0.617 -0.0209 -0.0430 -0.0688
 7429ION    CL-11493   5.399   0.065   8.607  0.0189  0.0411 -0.2380
 7430ION    CL-11494   0.498   6.478   1.099 -0.0219  0.0267  0.0916
 7431ION    CL-11495   2.403   8.037  10.025 -0.3665  0.0455 -0.0622
 7432ION    CL-11496   2.836  10.055   9.617  0.0325  0.4103 -0.0500
 7433ION    CL-11497   1.867   3.784   7.753 -0.1883  0.0167 -0.1158
 7434ION    CL-11498   0.238   7.215   2.638  0.2164  0.0691  0.0790
 7435ION    CL-11499   5.945   8.945   7.986 -0.2841 -0.0115  0.0696
 7436ION    CL-11500   0.109   5.520   0.624  0.0812 -0.2217  0.1124
 7437ION    CL-11501   1.954   6.760   7.883  0.1204 -0.0826  0.3097
 7438ION    CL-11502   4.465  10.570   9.411  0.0395  0.1622 -0.0639
 7439ION    CL-11503   5.185   9.893   9.595 -0.0919  0.2157 -0.1935
 7440ION    CL-11504   4.098   9.342   0.890  0.2059  0.2050  0.2136
 7441ION    CL-11505   6.357   2.505   8.543  0.1082 -0.2054  0.1202
 7442ION    CL-11506   5.798   4.933   2.800 -0.2737  0.2875 -0.1908
 7443ION    CL-11507   5.191   8.519   1.235 -0.3966  0.2890  0.0277
 7444ION    CL-11508   3.059   5.082   1.414 -0.2248  0.3928  0.0886
 7445ION    CL-11509   4.590   4.556   8.479 -0.0282 -0.2816 -0.2116
 7446ION    CL-11510  10.516   0.150  10.231 -0.0053  0.2380  0.1839
 7447ION    CL-11511   5.242   0.695   7.865  0.2605 -0.0032 -0.0877
 7448ION    CL-11512   4.970  10.284   2.585 -0.0196 -0.1535 -0.2238
 7449ION    CL-11513   9.488   5.898   2.410 -0.0470  0.1560 -0.1739
 7450ION    CL-11514   5.783   2.344   1.009 -0.4588 -0.0010 -0.0880
 7451ION    CL-11515   7.721   7.001   8.559  0.1131  0.3424 -0.2121
 7452ION    CL-11516   7.363   2.666  10.949 -0.3828 -0.1196 -0.0067
 7453ION    CL-11517   7.688   2.079   8.027  0.2324 -0.2725  0.1857
 7454ION    CL-11518   3.806   5.588   8.761  0.2970 -0.0353 -0.1064
 7455ION    CL-11519   5.581   8.493   0.377  0.0720 -0.0216  0.0683
 7456ION    CL-11520   4.005   6.832   0.767  0.1519 -0.1997  0.1058
 7457ION    CL-11521   0.955   2.626   1.264 -0.0385  0.2286 -0.2740
 7458ION    CL-11522   9.005   3.096   2.133  0.1873  0.3414  0.2127
 7459ION    CL-11523   0.920   2.089   8.385 -0.1033 -0.2958 -0.2802
 7460ION    CL-11524   6.182   4.068  10.341  0.2703  0.1977  0.0448
 7461ION    CL-11525   3.789   7.370   8.286  0.2176 -0.2125 -0.0814
 7462ION    CL-11526   7.085   5.100   8.257 -0.0614  0.2877 -0.0739
 7463ION    CL-11527  10.043   3.448   1.040  0.0549  0.0275 -0.2264
 7464ION    CL-11528   7.497   2.317   1.009  0.2441  0.1624  0.0762
 7465ION    CL-11529   3.983   2.549   1.662 -0.1549 -0.0615 -0.0509
 7466ION    CL-11530   2.737   5.494   7.472  0.0888  0.3044  0.1929
  10.76112  10.76112  11.37061
