Protein in INSANE! Membrane UpperLeaflet>POPC=1.0 LowerLeaflet>POPC=1.0
11125
    1AU     AUC    1   1.082   4.572   6.621 -0.0732 -0.0396  0.0664
    1AU     AUC    2   1.113   4.487   6.934  0.0273  0.0237 -0.0105
    1AU     AUC    3   0.890   4.755   6.840 -0.0572 -0.0598  0.0582
    1AU     AUC    4   1.233   4.426   6.399  0.1436  0.0127  0.0485
    1AU     AUC    5   1.064   4.733   6.348 -0.0405 -0.0079  0.0442
    1AU     AUC    6   1.323   4.734   6.511  0.0478  0.1111 -0.0062
    1AU     AUC    7   1.214   4.759   6.839 -0.0229  0.0149  0.0144
    1AU     AUC    8   0.929   4.416   6.397  0.0613  0.0382 -0.0683
    1AU     AUC    9   0.802   4.420   6.748  0.0607 -0.1166 -0.0014
    1AU     AUC   10   0.775   4.685   6.561  0.0796 -0.0664  0.1131
    1AU     AUC   11   1.079   4.906   6.575  0.0633  0.0080 -0.0279
    1AU     AUC   12   1.107   4.285   6.659 -0.0502  0.0237 -0.0304
    1AU     AUC   13   1.321   4.490   6.741 -0.0106 -0.0387 -0.0549
    1AU     AUC   14   1.109   4.441   7.307 -0.0027  0.0089  0.0038
    1AU     AUC   15   0.905   4.642   7.204  0.0383  0.0275  0.0473
    1AU     AUC   16   0.665   4.903   7.033 -0.0165 -0.0232 -0.0137
    1AU     AUC   17   1.415   4.268   6.155  0.0189 -0.0500  0.0109
    1AU     AUC   18   1.242   4.567   6.042  0.0320  0.0196 -0.0939
    1AU     AUC   19   1.093   4.858   6.019  0.0810  0.0051 -0.0777
    1AU     AUC   20   1.625   4.905   6.441  0.0414  0.0261  0.0468
    1AU     AUC   21   1.555   4.962   6.763  0.0100 -0.0449 -0.0697
    1AU     AUC   22   1.402   4.976   7.064  0.0608 -0.0132  0.0882
    1AU     AUC   23   0.756   4.202   6.180 -0.0187 -0.0108  0.0176
    1AU     AUC   24   0.647   4.196   6.523  0.0124  0.0134 -0.0149
    1AU     AUC   25   0.515   4.233   6.865 -0.0317 -0.0334  0.0536
    1AU     AUC   26   0.490   4.793   6.423  0.0701 -0.0125 -0.0595
    1AU     AUC   27   0.763   5.054   6.483  0.0417 -0.1660 -0.0491
    1AU     AUC   28   1.027   5.242   6.568 -0.0339 -0.1113  0.0282
    1AU     AUC   29   1.132   3.981   6.775  0.0363  0.0845 -0.0250
    1AU     AUC   30   1.424   4.120   6.817  0.0533  0.0081 -0.0096
    1AU     AUC   31   1.626   4.346   6.839  0.0383 -0.0729  0.0571
    1AU     AUC   32   0.543   4.837   6.721 -0.0397  0.0421 -0.0266
    1AU     AUC   33   0.826   5.092   6.799  0.0106 -0.0080  0.0128
    1AU     AUC   34   1.143   4.165   7.048  0.0296  0.0138 -0.0057
    1AU     AUC   35   1.397   4.389   7.103 -0.0466  0.0221 -0.0138
    1AU     AUC   36   0.767   4.881   6.234  0.0032  0.0040  0.0066
    1AU     AUC   37   1.065   5.113   6.281  0.0022 -0.0584 -0.0435
    1AU     AUC   38   1.293   4.100   6.425 -0.0371 -0.0018 -0.0442
    1AU     AUC   39   1.528   4.239   6.488 -0.0065  0.0665 -0.0553
    1AU     AUC   40   1.240   4.716   7.210  0.0458 -0.1096 -0.0479
    1AU     AUC   41   1.039   4.979   7.055  0.0694  0.0704 -0.0394
    1AU     AUC   42   1.534   4.588   6.243 -0.0795  0.0555  0.0038
    1AU     AUC   43   1.366   4.926   6.197  0.0030  0.0535 -0.0701
    1AU     AUC   44   0.786   4.314   7.096  0.0132 -0.0705  0.0924
    1AU     AUC   45   0.578   4.525   6.961  0.0817 -0.0143  0.0972
    1AU     AUC   46   1.070   4.237   6.135  0.0076 -0.0453  0.0334
    1AU     AUC   47   0.897   4.571   6.096 -0.0274 -0.0773 -0.0294
    1AU     AUC   48   1.375   5.096   6.512  0.0892 -0.0214  0.0363
    1AU     AUC   49   1.241   5.125   6.817 -0.0117 -0.0559  0.0755
    1AU     AUC   50   0.585   4.507   6.327 -0.0287  0.0113  0.0996
    1AU     AUC   51   0.472   4.457   6.605  0.0457 -0.0162  0.0160
    1AU     AUC   52   1.614   4.588   6.615  0.0185 -0.0550 -0.0506
    1AU     AUC   53   1.551   4.648   6.956 -0.0000  0.0007 -0.0477
    1AU     AUC   54   0.945   4.047   6.449  0.0047  0.0048  0.0191
    1AU     AUC   55   0.822   4.106   6.838 -0.0093  0.0046  0.0676
    1AU    AUSL   56   0.411   5.143   6.925  0.0506 -0.0117  0.1392
    1AU    AUSL   57   0.177   4.792   6.649  0.0573  0.0144 -0.0471
    1AU     AUL   58   0.112   5.025   6.892 -0.0122 -0.0189 -0.0726
    1AU       S   59  -0.180   4.664   6.920 -0.0639  0.0094  0.2968
    1AU     LIG   60  -0.371   5.010   6.634 -0.1030  0.0938 -0.2273
    1AU     LIG   61  -0.739   5.229   6.633  0.2915 -0.2237 -0.1315
    1AU     LIG   62  -1.091   5.187   6.365  0.1115  0.2094  0.0322
    1AU     LIG   63  -1.199   5.047   5.989  0.1191 -0.2078  0.2357
    1AU       S   64   0.057   5.449   6.717 -0.0217  0.2069  0.5695
    1AU     LIG   65  -0.060   5.818   6.684  0.1276 -0.3492 -0.1646
    1AU     LIG   66   0.083   6.016   6.279  0.3946  0.0725  0.1402
    1AU     LIG   67   0.137   6.419   6.053  0.0272 -0.1909  0.0544
    1AU     LIG   68   0.005   6.687   5.801 -0.3989 -0.2875  0.1562
    1AU    AUSL   69   0.347   5.157   6.475 -0.0358  0.1207 -0.0334
    1AU    AUSL   70   0.707   5.437   6.297  0.0519  0.0584  0.0697
    1AU     AUL   71   0.381   5.591   6.391  0.0291 -0.0969  0.0734
    1AU       S   72   0.096   5.190   6.404 -0.0511  0.0713  0.1589
    1AU     LIG   73  -0.275   5.406   6.359 -0.2486 -0.2989  0.3823
    1AU     LIG   74  -0.679   5.503   6.239  0.1081 -0.2824 -0.1588
    1AU     LIG   75  -0.989   5.693   6.409  0.2454  0.0046  0.1202
    1AU     LIG   76  -1.078   6.082   6.268  0.1393  0.0078 -0.2023
    1AU       S   77   0.471   5.406   5.968  0.1711  0.2245 -0.5513
    1AU     LIG   78   0.494   5.909   6.005  0.0162 -0.0029 -0.2997
    1AU     LIG   79   0.624   6.150   6.222 -0.2656 -0.0021 -0.1658
    1AU     LIG   80   0.916   6.479   6.358 -0.1001 -0.0533 -0.1380
    1AU     LIG   81   1.334   6.496   6.229  0.4657 -0.0413 -0.2740
    1AU    AUSL   82   0.777   5.229   6.660 -0.0394  0.0441  0.0590
    1AU    AUSL   83   0.760   5.321   7.091  0.0066 -0.0434 -0.0304
    1AU     AUL   84   0.502   5.451   6.824 -0.0259  0.0102  0.0000
    1AU       S   85   0.754   5.807   6.557 -0.1784 -0.1138 -0.0207
    1AU     LIG   86   0.417   5.985   6.751 -0.2390 -0.1421  0.2338
    1AU     LIG   87   0.310   6.379   6.633 -0.2339  0.3622  0.1350
    1AU     LIG   88   0.552   6.874   6.523  0.5410  0.1957 -0.0154
    1AU     LIG   89   0.845   7.069   6.410  0.0407 -0.0509 -0.1596
    1AU       S   90   0.686   5.595   7.247  0.1880  0.4951  0.0351
    1AU     LIG   91   0.467   5.967   7.215 -0.1853  0.1862 -0.0215
    1AU     LIG   92   0.195   6.388   7.088 -0.0145 -0.0088 -0.2305
    1AU     LIG   93   0.333   6.853   7.079  0.1902  0.2924  0.2048
    1AU     LIG   94   0.431   7.131   7.446  0.0095  0.0863 -0.0060
    1AU    AUSL   95   1.351   4.247   7.314 -0.0544  0.0446 -0.0940
    1AU    AUSL   96   1.736   4.461   7.270  0.0742  0.0959  0.0357
    1AU     AUL   97   1.670   4.278   7.586 -0.0247 -0.0545  0.0751
    1AU       S   98   1.818   3.927   7.353 -0.1474  0.0309 -0.0258
    1AU     LIG   99   2.346   3.818   7.361  0.0717  0.0059  0.0089
    1AU     LIG  100   2.413   3.568   6.982 -0.0550  0.0876 -0.0855
    1AU     LIG  101   2.693   3.465   6.599 -0.0686 -0.4273 -0.1315
    1AU     LIG  102   2.911   3.606   6.270 -0.0243  0.4720  0.0117
    1AU       S  103   1.863   4.762   7.665 -0.1028 -0.3045 -0.3616
    1AU     LIG  104   2.293   4.806   7.463  0.0886  0.2156  0.5491
    1AU     LIG  105   2.689   4.814   7.160  0.1594  0.0880 -0.2370
    1AU     LIG  106   3.080   5.029   7.172  0.6496  0.1125  0.3378
    1AU     LIG  107   3.495   5.116   7.229 -0.2645  0.0386 -0.1103
    1AU    AUSL  108   1.362   3.823   7.182 -0.0049  0.0148 -0.0404
    1AU    AUSL  109   1.000   4.045   7.418  0.0907  0.0799  0.0600
    1AU     AUL  110   1.334   3.918   7.534 -0.0462  0.0077  0.0513
    1AU       S  111   0.895   3.710   7.579 -0.1868  0.1783  0.0898
    1AU     LIG  112   0.754   3.377   7.856  0.3042  0.0041  0.0815
    1AU     LIG  113   0.657   2.971   7.936 -0.3212  0.0406  0.0689
    1AU     LIG  114   0.366   2.630   7.715 -0.2501  0.1800  0.3721
    1AU     LIG  115   0.008   2.436   7.598  0.1979  0.0899 -0.0250
    1AU       S  116   1.750   3.802   7.375  0.3043 -0.3229  0.1036
    1AU     LIG  117   1.989   3.449   7.184 -0.2335  0.0316 -0.4083
    1AU     LIG  118   2.029   3.151   6.896 -0.1223  0.2969  0.1624
    1AU     LIG  119   1.877   3.001   6.555  0.1292 -0.1221 -0.2331
    1AU     LIG  120   1.724   2.814   6.268  0.1050  0.4003  0.0258
    1AU    AUSL  121   1.613   4.152   6.990 -0.0995  0.0357 -0.0350
    1AU    AUSL  122   1.403   3.820   6.743 -0.0077 -0.0039 -0.0259
    1AU     AUL  123   1.562   3.693   6.971  0.0178 -0.0072 -0.0274
    1AU       S  124   1.770   3.440   6.616  0.1253  0.2140  0.1130
    1AU     LIG  125   1.425   3.149   6.447 -0.2251 -0.0826  0.1800
    1AU     LIG  126   1.280   2.720   6.194  0.2128 -0.1313  0.1104
    1AU     LIG  127   1.137   2.334   6.044 -0.0481  0.0417 -0.2083
    1AU     LIG  128   0.816   2.039   6.216  0.0777  0.1240 -0.1062
    1AU       S  129   1.841   4.020   7.140 -0.2149  0.0137  0.1524
    1AU     LIG  130   2.194   4.072   6.960  0.0740  0.1258  0.0626
    1AU     LIG  131   2.323   3.857   6.546  0.1135  0.2860  0.2019
    1AU     LIG  132   2.369   3.651   6.069 -0.1323  0.1758 -0.2814
    1AU     LIG  133   2.584   3.273   5.887  0.1082  0.1446  0.4648
    1AU    AUSL  134   0.897   5.223   5.956 -0.1041 -0.0702 -0.0214
    1AU    AUSL  135   1.141   5.388   6.314  0.0202  0.0986  0.0093
    1AU     AUL  136   0.923   5.574   6.071 -0.0446  0.0250  0.0029
    1AU       S  137   0.546   5.420   5.802  0.2824 -0.1101  0.0469
    1AU     LIG  138   0.585   5.642   5.451  0.0130  0.1794  0.1188
    1AU     LIG  139   0.516   5.951   5.183 -0.0554 -0.1701 -0.0637
    1AU     LIG  140   0.398   6.310   4.939  0.1413 -0.1783  0.0149
    1AU     LIG  141   0.528   6.650   4.751  0.1839 -0.2331  0.1113
    1AU       S  142   1.401   5.553   5.977  0.2017 -0.1227  0.3213
    1AU     LIG  143   1.808   5.673   5.708 -0.1518 -0.0974 -0.0168
    1AU     LIG  144   2.212   5.869   5.680  0.0958  0.5592 -0.4209
    1AU     LIG  145   2.591   6.180   5.698 -0.2728 -0.0969  0.0853
    1AU     LIG  146   2.656   6.566   5.536 -0.0280  0.2097  0.2311
    1AU    AUSL  147   0.660   5.001   6.225  0.0018  0.0774 -0.0044
    1AU    AUSL  148   0.654   4.844   5.806  0.0249  0.1298 -0.0113
    1AU     AUL  149   0.801   5.048   5.729  0.0053 -0.0025  0.0793
    1AU       S  150   0.373   4.913   5.668 -0.0465  0.1919  0.2778
    1AU     LIG  151   0.547   5.161   5.337  0.1222 -0.0469 -0.0087
    1AU     LIG  152   0.662   5.364   4.979  0.0332  0.1138  0.0256
    1AU     LIG  153   0.520   5.716   4.662 -0.1149  0.0638 -0.2208
    1AU     LIG  154   0.573   5.935   4.266  0.1019  0.3070 -0.0759
    1AU       S  155   0.407   5.249   5.999  0.0293 -0.1362 -0.1420
    1AU     LIG  156   0.044   5.610   5.985  0.2607 -0.0229 -0.1073
    1AU     LIG  157  -0.344   5.845   6.070 -0.3447  0.1132  0.2026
    1AU     LIG  158  -0.506   6.103   6.411 -0.1033 -0.2272  0.0377
    1AU     LIG  159  -0.677   6.333   6.728 -0.2098  0.0914 -0.0121
    1AU    AUSL  160   1.570   3.893   6.351  0.0448  0.1111  0.0269
    1AU    AUSL  161   1.131   3.856   6.410 -0.0924  0.0174  0.0345
    1AU     AUL  162   1.317   3.587   6.539 -0.0059 -0.0008 -0.0182
    1AU       S  163   1.732   3.569   6.365  0.0906  0.0711  0.1434
    1AU     LIG  164   1.925   3.275   6.104  0.0183 -0.1952 -0.2294
    1AU     LIG  165   2.215   2.971   6.131 -0.0653  0.2340 -0.0163
    1AU     LIG  166   2.465   2.616   6.076  0.0865  0.0533 -0.1636
    1AU     LIG  167   2.395   2.172   6.109 -0.2820 -0.2858 -0.5250
    1AU       S  168   1.304   3.580   6.076  0.1327 -0.2516  0.3098
    1AU     LIG  169   1.454   3.190   5.922  0.0194 -0.1722 -0.0429
    1AU     LIG  170   1.600   2.858   5.728  0.0775  0.0984 -0.2201
    1AU     LIG  171   1.805   2.608   5.420 -0.2221  0.1505 -0.0657
    1AU     LIG  172   1.850   2.197   5.131  0.1404  0.0786  0.2174
    1AU    AUSL  173   1.860   3.950   6.693 -0.0005  0.0405  0.0643
    1AU    AUSL  174   1.786   4.209   6.129  0.0710 -0.0703 -0.0628
    1AU     AUL  175   1.913   3.969   6.328 -0.1185  0.0886 -0.0138
    1AU       S  176   2.143   4.178   5.934 -0.6900  0.1843 -0.1645
    1AU     LIG  177   2.589   4.038   5.735 -0.0077  0.0117  0.0442
    1AU     LIG  178   2.998   4.290   5.857 -0.1910 -0.0212  0.3454
    1AU     LIG  179   3.388   4.514   5.802 -0.0869 -0.0149  0.1821
    1AU     LIG  180   3.788   4.709   5.660  0.3574  0.2849 -0.0753
    1AU       S  181   1.933   3.637   6.721  0.0525  0.3326 -0.3413
    1AU     LIG  182   2.248   3.357   6.511  0.2693 -0.0059  0.0395
    1AU     LIG  183   2.633   3.070   6.380 -0.2902  0.3032 -0.0875
    1AU     LIG  184   2.999   2.994   6.320  0.0333 -0.0368  0.0776
    1AU     LIG  185   3.364   3.282   6.265 -0.1237 -0.1561 -0.0724
    1AU    AUSL  186   1.225   5.042   7.454  0.0231 -0.0765  0.0190
    1AU    AUSL  187   1.368   4.623   7.532 -0.0010 -0.0210 -0.0419
    1AU     AUL  188   1.309   4.907   7.782  0.0497 -0.0001 -0.0381
    1AU       S  189   1.742   4.797   7.643  0.2443 -0.2176 -0.4368
    1AU     LIG  190   2.066   5.172   7.780 -0.1255 -0.0389 -0.1637
    1AU     LIG  191   2.441   5.402   7.790 -0.0397 -0.2002  0.0825
    1AU     LIG  192   2.854   5.575   7.732 -0.1374  0.1608  0.0294
    1AU     LIG  193   2.998   5.635   8.185 -0.0827  0.1956 -0.4091
    1AU       S  194   0.924   5.188   7.785 -0.0559 -0.4517 -0.0262
    1AU     LIG  195   1.109   5.671   7.843  0.1882 -0.3455 -0.1733
    1AU     LIG  196   1.209   6.155   7.858  0.2141  0.2218  0.0745
    1AU     LIG  197   1.096   6.544   7.734 -0.5969 -0.1648 -0.0907
    1AU     LIG  198   1.449   6.832   7.623  0.2039 -0.0607  0.1411
    1AU    AUSL  199   0.938   4.693   7.598  0.0999 -0.0451 -0.0014
    1AU    AUSL  200   0.498   4.707   7.415 -0.0577  0.0862  0.0080
    1AU     AUL  201   0.660   4.530   7.753  0.0519 -0.0652  0.1361
    1AU       S  202   0.836   4.979   7.756 -0.0449  0.3800  0.0877
    1AU     LIG  203   0.525   5.487   7.856 -0.5076  0.1833 -0.0526
    1AU     LIG  204   0.363   5.836   7.773 -0.3706  0.2555 -0.0312
    1AU     LIG  205   0.052   5.907   7.459 -0.1331  0.2668  0.2943
    1AU     LIG  206  -0.142   6.043   7.125  0.0490  0.1098  0.0813
    1AU       S  207   0.225   4.482   7.641 -0.2890  0.0367 -0.0281
    1AU     LIG  208  -0.104   4.550   7.875 -0.2614 -0.2681  0.2453
    1AU     LIG  209  -0.535   4.770   7.984  0.2589  0.3115  0.3418
    1AU     LIG  210  -0.900   4.776   8.094 -0.1014  0.1387  0.0013
    1AU     LIG  211  -1.267   4.775   7.937  0.0029  0.0849  0.0010
    1AU    AUSL  212   0.835   4.940   7.253 -0.0387 -0.0561 -0.0505
    1AU    AUSL  213   1.184   5.189   7.040  0.0324  0.0017  0.1215
    1AU     AUL  214   1.052   5.309   7.352  0.0083 -0.0820 -0.0211
    1AU       S  215   0.961   5.762   7.202  0.1531 -0.2417 -0.2256
    1AU     LIG  216   1.317   5.975   6.887 -0.0896 -0.2587 -0.0612
    1AU     LIG  217   1.166   6.040   6.393 -0.1532  0.3688 -0.3448
    1AU     LIG  218   1.067   6.110   5.909 -0.1308  0.0378 -0.5888
    1AU     LIG  219   0.872   6.024   5.655 -0.1332  0.0527  0.3219
    1AU       S  220   0.686   5.108   7.552  0.0502  0.0980 -0.2917
    1AU     LIG  221   0.337   5.265   7.434 -0.0306  0.0094 -0.2272
    1AU     LIG  222   0.013   5.429   7.204  0.2026  0.1877 -0.1697
    1AU     LIG  223  -0.338   5.388   6.982 -0.0236 -0.3539 -0.3028
    1AU     LIG  224  -0.595   5.661   6.748 -0.0248  0.0848  0.1679
    1AU    AUSL  225   1.712   4.901   6.123  0.0106 -0.0395  0.0489
    1AU    AUSL  226   1.288   5.069   6.052 -0.0315  0.1096 -0.0195
    1AU     AUL  227   1.708   5.139   5.832 -0.0482  0.0393 -0.1298
    1AU       S  228   1.318   5.431   5.854 -0.0305  0.1535  0.0871
    1AU     LIG  229   1.003   5.400   5.438  0.0463  0.2347 -0.2592
    1AU     LIG  230   1.024   5.051   5.161 -0.1494 -0.0970 -0.1262
    1AU     LIG  231   1.450   4.919   4.965 -0.4388 -0.1343  0.0342
    1AU     LIG  232   1.880   4.887   4.888  0.3326 -0.2492  0.2208
    1AU       S  233   2.013   5.088   6.175  0.6329  0.2804 -0.2894
    1AU     LIG  234   2.163   4.967   5.800 -0.0401 -0.2993 -0.2796
    1AU     LIG  235   2.392   5.198   5.516  0.1238 -0.2461 -0.4342
    1AU     LIG  236   2.722   5.561   5.595  0.0265 -0.2350  0.1258
    1AU     LIG  237   3.015   5.866   5.834  0.5572  0.0745  0.0446
    1AU    AUSL  238   1.514   4.520   6.051 -0.0053 -0.0019  0.0344
    1AU    AUSL  239   1.958   4.586   6.271  0.0551 -0.0201  0.0133
    1AU     AUL  240   1.875   4.584   5.923  0.0042 -0.0285  0.0731
    1AU       S  241   1.728   4.145   5.698  0.0251 -0.4294 -0.1481
    1AU     LIG  242   1.697   3.976   5.150  0.1954 -0.2379 -0.0633
    1AU     LIG  243   1.657   3.706   4.799  0.2632 -0.4547 -0.0428
    1AU     LIG  244   1.793   3.512   4.446 -0.2511 -0.1742  0.0600
    1AU     LIG  245   2.068   3.656   4.177  0.0134 -0.5532 -0.1639
    1AU       S  246   2.270   4.624   6.193  0.0921  0.0566  0.2504
    1AU     LIG  247   2.513   4.971   6.191 -0.2859  0.2299 -0.1502
    1AU     LIG  248   2.479   5.417   6.028  0.1568  0.4557  0.2333
    1AU     LIG  249   2.527   5.782   6.012 -0.1050 -0.3658  0.0039
    1AU     LIG  250   2.651   6.123   6.229  0.0399 -0.0688  0.2635
    1AU    AUSL  251   1.399   4.810   5.725  0.0045 -0.0196 -0.1282
    1AU    AUSL  252   1.303   4.335   5.739 -0.0170 -0.0525  0.0432
    1AU     AUL  253   1.506   4.542   5.627 -0.0375 -0.0894  0.0037
    1AU       S  254   1.062   4.498   5.443  0.1192 -0.5492 -0.0047
    1AU     LIG  255   1.493   4.439   5.180 -0.2362 -0.3833  0.0303
    1AU     LIG  256   1.922   4.419   5.167  0.0476  0.0677 -0.4601
    1AU     LIG  257   2.146   4.492   5.547 -0.1800 -0.3601  0.3241
    1AU     LIG  258   2.554   4.525   5.773 -0.0758  0.2251  0.3454
    1AU       S  259   1.318   4.990   5.583  0.2385 -0.3350 -0.0451
    1AU     LIG  260   1.765   4.888   5.354 -0.2075 -0.0414 -0.0849
    1AU     LIG  261   2.247   4.832   5.200 -0.0654 -0.4385  0.1304
    1AU     LIG  262   2.684   4.990   5.196 -0.2431  0.1204 -0.2175
    1AU     LIG  263   3.058   5.232   5.314 -0.1666 -0.6144  0.2736
    1AU    AUSL  264   0.422   4.325   7.189  0.0173 -0.0947  0.0256
    1AU    AUSL  265   0.469   4.723   6.971  0.0116  0.0655 -0.0679
    1AU     AUL  266   0.239   4.733   7.234  0.0596 -0.0243  0.0550
    1AU       S  267   0.194   4.273   7.372 -0.4736  0.0438  0.0085
    1AU     LIG  268  -0.245   4.017   7.241 -0.2569 -0.1495 -0.1315
    1AU     LIG  269  -0.619   3.788   7.104  0.3060  0.3415 -0.0105
    1AU     LIG  270  -0.891   3.586   6.826  0.0419 -0.0137  0.0025
    1AU     LIG  271  -1.170   3.333   6.702  0.0256 -0.2394  0.0413
    1AU       S  272  -0.115   4.563   6.996  0.2598  0.4002  0.2463
    1AU     LIG  273  -0.212   4.503   7.348  0.0224 -0.2128 -0.3222
    1AU     LIG  274  -0.562   4.561   7.590 -0.0439 -0.0735  0.0488
    1AU     LIG  275  -0.940   4.790   7.577 -0.0139 -0.0419  0.0976
    1AU     LIG  276  -1.238   4.907   7.290  0.2215 -0.0890 -0.3601
    1AU    AUSL  277   0.846   4.411   7.296  0.0651 -0.0160 -0.1209
    1AU    AUSL  278   0.607   3.934   7.220  0.0137 -0.0046  0.0147
    1AU     AUL  279   0.645   4.146   7.490  0.0025 -0.0554  0.0270
    1AU       S  280   0.229   4.257   7.641 -0.1794 -0.1756  0.0306
    1AU     LIG  281   0.125   3.835   7.635 -0.0165 -0.3149  0.2879
    1AU     LIG  282   0.230   3.417   7.716  0.0428  0.1715  0.4861
    1AU     LIG  283   0.406   3.086   7.535  0.2142 -0.0541 -0.4098
    1AU     LIG  284   0.615   2.740   7.290 -0.4161 -0.3143  0.0682
    1AU       S  285   0.642   3.676   7.477  0.2142 -0.1818  0.2583
    1AU     LIG  286   0.288   3.505   7.264 -0.0789 -0.3048  0.0022
    1AU     LIG  287  -0.093   3.337   7.119 -0.3009 -0.2961  0.0235
    1AU     LIG  288  -0.462   3.366   6.873  0.1187 -0.1644  0.0142
    1AU     LIG  289  -0.724   3.125   6.579 -0.0350 -0.3179 -0.0696
    1AU    AUSL  290   0.879   4.240   5.854  0.0228  0.0627  0.0815
    1AU    AUSL  291   1.285   4.071   6.073  0.0152 -0.0028 -0.0308
    1AU     AUL  292   1.170   4.067   5.688  0.0817 -0.0436  0.0242
    1AU       S  293   1.356   3.723   5.948  0.5374 -0.2841 -0.1147
    1AU     LIG  294   1.416   3.625   5.504  0.4656 -0.0958 -0.1501
    1AU     LIG  295   1.713   3.333   5.211  0.1885 -0.3863 -0.1395
    1AU     LIG  296   2.043   3.045   5.116 -0.0553 -0.2871 -0.0877
    1AU     LIG  297   1.893   2.691   4.951  0.0394 -0.5255 -0.0854
    1AU       S  298   0.978   4.372   5.370  0.3710 -0.0494 -0.1664
    1AU     LIG  299   1.170   4.019   5.136 -0.1152 -0.2528 -0.2218
    1AU     LIG  300   1.218   3.618   4.985 -0.0566  0.1242 -0.0314
    1AU     LIG  301   1.311   3.421   4.637 -0.1073 -0.0286  0.0356
    1AU     LIG  302   1.257   3.061   4.265 -0.2004  0.1034  0.0563
    1AU    AUSL  303   1.032   4.650   5.890  0.0448  0.0273  0.0333
    1AU    AUSL  304   0.600   4.495   6.048  0.0367 -0.0209  0.0202
    1AU     AUL  305   0.654   4.496   5.735  0.1447  0.0177 -0.0668
    1AU       S  306   0.232   4.731   5.697  0.5406  0.4519 -0.1980
    1AU     LIG  307  -0.038   4.386   5.646  0.1337 -0.3390 -0.2991
    1AU     LIG  308  -0.406   4.168   5.818  0.3689  0.2218  0.3012
    1AU     LIG  309  -0.493   3.881   6.081  0.1739 -0.0182  0.2515
    1AU     LIG  310  -0.589   3.512   6.231 -0.0076  0.3107  0.4069
    1AU       S  311   1.019   4.630   5.505 -0.0701  0.0023 -0.0530
    1AU     LIG  312   0.642   4.666   5.202  0.2245 -0.0949  0.0227
    1AU     LIG  313   0.397   4.364   5.306 -0.0643  0.3767 -0.0819
    1AU     LIG  314   0.653   4.019   5.113  0.3187  0.0013 -0.2730
    1AU     LIG  315   0.917   3.742   5.436  0.3144  0.1879 -0.0183
    1AU    AUSL  316   1.389   5.372   6.680 -0.0293 -0.0618  0.0307
    1AU    AUSL  317   1.573   5.269   6.288 -0.0313  0.0182 -0.0105
    1AU     AUL  318   1.346   5.604   6.443  0.0054 -0.0783  0.0020
    1AU       S  319   1.736   5.470   6.166 -0.2964 -0.1889  0.2607
    1AU     LIG  320   2.084   5.632   6.193  0.0378  0.0046  0.3658
    1AU     LIG  321   2.089   6.168   6.205  0.1104  0.0392  0.2006
    1AU     LIG  322   2.231   6.465   5.843  0.0313 -0.1146 -0.3136
    1AU     LIG  323   2.243   6.437   5.368  0.5089 -0.4770 -0.1870
    1AU       S  324   1.675   5.663   6.771 -0.0555  0.0739  0.1775
    1AU     LIG  325   1.670   5.957   6.347  0.3346  0.0573 -0.5355
    1AU     LIG  326   1.593   6.136   5.976 -0.1102  0.0444 -0.1543
    1AU     LIG  327   1.665   6.537   5.886 -0.0243 -0.0912  0.2891
    1AU     LIG  328   1.661   7.037   5.818  0.2627  0.1439 -0.0866
    1AU    AUSL  329   1.814   5.215   6.650 -0.0730  0.0353  0.0347
    1AU    AUSL  330   1.866   4.910   6.988  0.0424 -0.1048  0.0222
    1AU     AUL  331   2.053   5.196   6.900 -0.0864  0.0549 -0.0092
    1AU       S  332   1.841   5.573   6.658 -0.4024  0.2464 -0.4808
    1AU     LIG  333   2.205   5.875   6.670  0.0347 -0.2880 -0.0805
    1AU     LIG  334   2.308   6.225   6.685  0.1666 -0.0304 -0.0889
    1AU     LIG  335   2.287   6.683   6.437 -0.0616  0.1709 -0.0864
    1AU     LIG  336   2.135   7.150   6.500 -0.0367  0.0362  0.1939
    1AU       S  337   2.345   4.848   6.828 -0.0887 -0.0359  0.0676
    1AU     LIG  338   2.726   4.851   6.654  0.0104  0.0225 -0.3019
    1AU     LIG  339   3.149   4.876   6.492 -0.0892 -0.1067  0.3571
    1AU     LIG  340   3.556   4.908   6.148 -0.1001  0.1241 -0.0669
    1AU     LIG  341   3.957   4.933   6.205 -0.3263  0.2789  0.1626
    1AU    AUSL  342   1.597   5.257   7.050  0.0222 -0.0679  0.0049
    1AU    AUSL  343   1.018   5.549   6.796  0.0140 -0.0389 -0.0249
    1AU     AUL  344   1.311   5.538   7.011  0.0647 -0.0116 -0.0785
    1AU       S  345   0.911   5.763   6.983  0.0430 -0.0530 -0.1757
    1AU     LIG  346   0.899   6.253   6.810  0.1677 -0.3706  0.0287
    1AU     LIG  347   0.835   6.648   6.857  0.4499  0.2500  0.0369
    1AU     LIG  348   0.793   7.114   6.962 -0.0895 -0.0093  0.2820
    1AU     LIG  349   0.942   7.400   6.750  0.1611  0.0291 -0.2004
    1AU       S  350   1.762   5.548   7.060  0.0080  0.1540  0.1354
    1AU     LIG  351   1.824   5.920   7.141 -0.0855  0.1159  0.1103
    1AU     LIG  352   1.811   6.156   6.778  0.0660 -0.1029 -0.0199
    1AU     LIG  353   1.801   6.511   6.539  0.1138 -0.2366  0.3936
    1AU     LIG  354   1.689   6.848   6.307 -0.1810  0.1204  0.0706
    1AU    AUSL  355   0.294   4.458   6.368  0.0089 -0.0616 -0.0743
    1AU    AUSL  356   0.244   4.372   6.799  0.0745 -0.0093 -0.0155
    1AU     AUL  357   0.003   4.573   6.494 -0.0694 -0.0402 -0.0546
    1AU       S  358  -0.068   4.205   6.218 -0.2691 -0.1091 -0.2302
    1AU     LIG  359  -0.450   4.327   6.333 -0.0203 -0.2166  0.1603
    1AU     LIG  360  -0.716   4.654   6.624  0.0283 -0.2500  0.1640
    1AU     LIG  361  -1.074   4.844   6.766  0.1414 -0.0797 -0.5427
    1AU     LIG  362  -1.430   5.219   6.733  0.0069 -0.1478  0.0466
    1AU       S  363   0.008   4.298   6.903 -0.1838  0.0521  0.1235
    1AU     LIG  364  -0.569   4.328   6.995  0.1298  0.1950 -0.2978
    1AU     LIG  365  -0.969   4.443   7.160  0.2834 -0.1681 -0.0297
    1AU     LIG  366  -1.393   4.362   7.057 -0.3690  0.0073 -0.1310
    1AU     LIG  367  -1.621   4.110   7.211  0.1095  0.2306 -0.2341
    1AU    AUSL  368   0.432   4.095   6.106  0.1191  0.0418 -0.0451
    1AU    AUSL  369   0.286   4.810   6.141  0.0295 -0.0706  0.0270
    1AU     AUL  370   0.281   4.410   6.016 -0.0814  0.0462 -0.0776
    1AU       S  371   0.019   4.014   6.059 -0.4409  0.4209 -0.2636
    1AU     LIG  372  -0.057   3.828   5.738 -0.1934  0.0777  0.3018
    1AU     LIG  373  -0.371   3.555   5.618  0.3559  0.0910 -0.4483
    1AU     LIG  374  -0.470   3.254   5.838 -0.1428 -0.0881 -0.0191
    1AU     LIG  375  -0.802   3.061   6.060  0.1434 -0.3507 -0.0478
    1AU       S  376   0.152   4.874   5.905 -0.0703  0.3308  0.4348
    1AU     LIG  377  -0.263   4.909   6.158 -0.0361 -0.0366  0.0335
    1AU     LIG  378  -0.690   4.965   6.233 -0.3323  0.0641 -0.4235
    1AU     LIG  379  -1.026   4.679   6.224 -0.1355  0.3948 -0.0529
    1AU     LIG  380  -1.258   4.487   5.978 -0.4365  0.0349  0.2359
    1AU    AUSL  381   0.262   4.041   6.511 -0.0830  0.0190 -0.0440
    1AU    AUSL  382   0.711   3.981   6.410  0.0003 -0.0232 -0.0490
    1AU     AUL  383   0.391   3.781   6.241 -0.0154 -0.0192  0.0342
    1AU       S  384   0.325   3.588   6.638  0.1706  0.2613  0.1689
    1AU     LIG  385  -0.047   3.370   6.626 -0.1690 -0.0638 -0.2769
    1AU     LIG  386  -0.252   2.949   6.755 -0.2822 -0.1077  0.0777
    1AU     LIG  387  -0.563   2.675   6.755  0.3946  0.0551  0.2549
    1AU     LIG  388  -0.498   2.221   6.583 -0.0847 -0.6169 -0.1172
    1AU       S  389   0.014   4.007   6.426 -0.3067 -0.1607  0.1963
    1AU     LIG  390  -0.012   3.558   6.144  0.2378 -0.2777 -0.4600
    1AU     LIG  391   0.278   3.412   5.861 -0.1563 -0.0200  0.2472
    1AU     LIG  392   0.506   3.262   5.565 -0.0790 -0.2505 -0.1743
    1AU     LIG  393   0.705   2.899   5.426 -0.1549 -0.2867 -0.3945
    1AU    AUSL  394   1.944   4.488   6.887  0.0230  0.0407 -0.0198
    1AU    AUSL  395   1.506   4.830   7.188 -0.0607 -0.0302  0.0055
    1AU     AUL  396   1.922   4.690   7.199 -0.0168  0.1061  0.0608
    1AU       S  397   2.293   4.617   6.919 -0.2498  0.1550  0.1419
    1AU     LIG  398   2.501   4.336   6.662  0.3729  0.4602 -0.0453
    1AU     LIG  399   2.732   4.519   6.292 -0.2549 -0.3278 -0.0912
    1AU     LIG  400   2.993   4.844   6.004 -0.1186 -0.0817  0.0444
    1AU     LIG  401   2.874   5.076   5.769 -0.0825 -0.0531 -0.2249
    1AU       S  402   1.675   5.054   7.481 -0.1903 -0.1052  0.0379
    1AU     LIG  403   2.156   5.282   7.327  0.1300 -0.2366 -0.0085
    1AU     LIG  404   2.190   5.588   7.128 -0.5100 -0.2523 -0.0690
    1AU     LIG  405   2.595   5.789   6.952  0.2476 -0.1849 -0.3010
    1AU     LIG  406   3.046   5.775   6.925 -0.2654 -0.2508  0.1582
    1AU    AUSL  407   1.766   4.796   6.591 -0.0284  0.0922 -0.0046
    1AU    AUSL  408   1.705   4.339   6.557  0.0556 -0.0460 -0.0333
    1AU     AUL  409   2.037   4.411   6.571 -0.0514 -0.0645 -0.0547
    1AU       S  410   2.166   4.858   6.608  0.0987 -0.0346 -0.5726
    1AU     LIG  411   2.322   5.326   6.528  0.0301  0.0714  0.1113
    1AU     LIG  412   2.668   5.671   6.488  0.2338  0.1088  0.0888
    1AU     LIG  413   3.033   5.757   6.357 -0.1473  0.4192  0.3170
    1AU     LIG  414   3.482   5.754   6.605 -0.1728  0.0522  0.1759
    1AU       S  415   2.283   4.249   6.197 -0.0625 -0.2243  0.0362
    1AU     LIG  416   2.717   4.057   6.308  0.0142  0.0190 -0.1593
    1AU     LIG  417   3.141   4.245   6.407  0.1401 -0.3685 -0.0454
    1AU     LIG  418   3.432   4.174   6.587 -0.1326 -0.2362  0.4856
    1AU     LIG  419   3.867   4.307   6.743  0.0682  0.2581 -0.0585
    1AU    AUSL  420   0.863   3.680   6.688  0.0571  0.0153 -0.0097
    1AU    AUSL  421   0.884   3.837   6.034 -0.0139  0.0046 -0.0230
    1AU     AUL  422   0.859   3.608   6.314 -0.0101 -0.1030 -0.0162
    1AU       S  423   1.050   3.627   5.897 -0.0977 -0.1244  0.1609
    1AU     LIG  424   0.937   3.215   5.995 -0.1604  0.0321  0.1313
    1AU     LIG  425   0.775   2.896   5.995  0.3870  0.0293  0.2006
    1AU     LIG  426   0.514   2.507   6.155 -0.1122 -0.1382 -0.0310
    1AU     LIG  427   0.165   2.324   5.994 -0.0798  0.1824 -0.3005
    1AU       S  428   0.503   3.541   6.653  0.3087  0.3762 -0.2330
    1AU     LIG  429   0.398   3.146   6.378 -0.0287 -0.3342  0.1181
    1AU     LIG  430   0.093   2.898   6.274  0.4673 -0.1387  0.2297
    1AU     LIG  431  -0.376   2.868   6.274  0.0084  0.1720 -0.3117
    1AU     LIG  432  -0.763   2.580   6.207 -0.1437 -0.6170 -0.1039
    1AU    AUSL  433   0.550   4.011   6.818 -0.0034 -0.0682 -0.0254
    1AU    AUSL  434   1.004   3.951   6.973  0.0585 -0.0235  0.0215
    1AU     AUL  435   0.748   3.689   7.010  0.0266  0.0436  0.0058
    1AU       S  436   0.338   3.755   6.861 -0.1911 -0.2007  0.1396
    1AU     LIG  437  -0.106   3.811   6.818 -0.4663 -0.0971 -0.1991
    1AU     LIG  438  -0.530   3.932   6.643 -0.3274 -0.2089 -0.0677
    1AU     LIG  439  -0.863   4.120   6.565 -0.1302  0.0164  0.0279
    1AU     LIG  440  -1.175   4.353   6.588 -0.0185  0.3076 -0.0118
    1AU       S  441   0.983   3.566   7.395 -0.1477  0.0418  0.2546
    1AU     LIG  442   0.757   3.248   7.225 -0.3665 -0.0125  0.2510
    1AU     LIG  443   0.394   3.082   6.891  0.1685  0.0582 -0.1469
    1AU     LIG  444   0.469   2.620   6.710  0.4782 -0.2657  0.0548
    1AU     LIG  445   0.452   2.220   6.587 -0.1959 -0.2434 -0.0357
    2POPC   NC3  446   7.190   7.234   8.831  0.1021 -0.3454 -0.1674
    2POPC   PO4  447   6.934   7.576   8.871  0.3007  0.0491 -0.2609
    2POPC   GL1  448   6.868   7.567   8.431  0.0235  0.0013  0.2178
    2POPC   GL2  449   6.721   7.732   8.171 -0.1352  0.0607  0.2044
    2POPC   C1A  450   6.826   7.196   8.045 -0.0312 -0.2210  0.1682
    2POPC   D2A  451   6.907   6.904   7.766 -0.1407  0.1292  0.1128
    2POPC   C3A  452   6.884   7.128   7.412  0.1014 -0.1753 -0.1119
    2POPC   C4A  453   7.104   6.866   7.062  0.0243  0.0973 -0.3390
    2POPC   C1B  454   6.794   7.635   7.742 -0.0426 -0.2083  0.1380
    2POPC   C2B  455   6.587   7.530   7.279  0.0928 -0.3692  0.0934
    2POPC   C3B  456   6.238   7.703   6.936 -0.1605  0.0069  0.0214
    2POPC   C4B  457   6.264   7.976   6.559  0.1841 -0.1363 -0.0976
    3POPC   NC3  458  10.002   6.526   8.986  0.1205 -0.0851 -0.1465
    3POPC   PO4  459   9.717   6.347   9.195  0.1737 -0.0534  0.0709
    3POPC   GL1  460   9.536   6.103   8.794 -0.0487 -0.3033  0.0527
    3POPC   GL2  461   9.235   6.238   8.753  0.0197 -0.1699 -0.1476
    3POPC   C1A  462   9.492   6.094   8.341 -0.0875 -0.4247 -0.3411
    3POPC   D2A  463   9.210   5.993   7.998 -0.0681  0.1485  0.5349
    3POPC   C3A  464   9.341   5.570   7.764  0.0703  0.1047 -0.2254
    3POPC   C4A  465   9.496   5.225   7.810 -0.0581 -0.0266  0.1013
    3POPC   C1B  466   8.937   6.143   8.418 -0.0324  0.1778 -0.3023
    3POPC   C2B  467   8.750   6.262   8.055  0.0801  0.1870  0.0992
    3POPC   C3B  468   8.730   6.191   7.598  0.2034  0.0394  0.0929
    3POPC   C4B  469   8.692   6.446   7.291 -0.1128 -0.0815 -0.0086
    4POPC   NC3  470   1.016   0.137   8.865  0.2078 -0.1856 -0.1320
    4POPC   PO4  471   0.613   0.129   8.698 -0.1018 -0.0960 -0.0233
    4POPC   GL1  472   0.651   0.192   8.272  0.0633  0.0724 -0.0089
    4POPC   GL2  473   0.851   0.357   8.231  0.0172 -0.0216  0.0843
    4POPC   C1A  474   0.562   0.348   7.854  0.2343  0.0793  0.2778
    4POPC   D2A  475   0.904   0.305   7.520  0.1293  0.0478 -0.2698
    4POPC   C3A  476   0.795   0.645   7.254 -0.0591 -0.2951 -0.1253
    4POPC   C4A  477   0.532   0.477   6.948  0.2800  0.0637 -0.1567
    4POPC   C1B  478   0.904   0.685   8.006 -0.0839 -0.0303  0.0802
    4POPC   C2B  479   1.000   0.867   7.639 -0.2365 -0.0709  0.3622
    4POPC   C3B  480   1.260   0.933   7.234 -0.2431 -0.0434 -0.3896
    4POPC   C4B  481   1.341   1.092   6.870  0.1416 -0.2723  0.1503
    5POPC   NC3  482  10.087   6.155   9.409 -0.0574 -0.0909 -0.3260
    5POPC   PO4  483  10.520   6.196   9.221 -0.3228 -0.2316 -0.1600
    5POPC   GL1  484  10.565   6.407   8.867  0.0961  0.0011 -0.2499
    5POPC   GL2  485  10.485   6.809   8.775 -0.0941  0.1185 -0.3372
    5POPC   C1A  486  10.746   6.506   8.498 -0.0298 -0.2492 -0.2444
    5POPC   D2A  487  10.951   6.552   8.139 -0.1284  0.1047  0.2712
    5POPC   C3A  488  10.719   6.501   7.904  0.4001  0.1955  0.0741
    5POPC   C4A  489  10.412   6.287   7.589  0.1576  0.1122 -0.1837
    5POPC   C1B  490  10.690   6.962   8.296 -0.0552 -0.1880  0.3018
    5POPC   C2B  491  10.804   7.015   7.876 -0.0583  0.1816 -0.0726
    5POPC   C3B  492  11.035   7.049   7.501  0.1900 -0.1213  0.1531
    5POPC   C4B  493  11.368   7.166   7.155 -0.0061  0.1631 -0.0902
    6POPC   NC3  494   4.463   8.452   8.192 -0.2246 -0.1843  0.0147
    6POPC   PO4  495   4.786   8.439   8.476 -0.2754  0.0547 -0.2310
    6POPC   GL1  496   4.972   8.611   8.058 -0.1325  0.0143  0.2202
    6POPC   GL2  497   5.248   8.737   8.086 -0.1455  0.0771  0.0933
    6POPC   C1A  498   5.128   8.758   7.602  0.2775 -0.0212 -0.1290
    6POPC   D2A  499   5.199   8.780   7.160 -0.1657  0.0604  0.1682
    6POPC   C3A  500   5.140   9.120   7.047  0.2253  0.2356  0.0816
    6POPC   C4A  501   4.832   9.458   6.964  0.1375  0.0071 -0.0604
    6POPC   C1B  502   5.378   8.342   7.894 -0.5269  0.2604  0.1900
    6POPC   C2B  503   5.465   7.993   7.637 -0.3910  0.1842 -0.0906
    6POPC   C3B  504   5.707   7.556   7.656  0.0491  0.0746  0.0397
    6POPC   C4B  505   5.947   7.382   7.880  0.1077 -0.2004  0.0505
    7POPC   NC3  506   1.588   3.122   8.016  0.0605 -0.3307  0.2100
    7POPC   PO4  507   1.958   3.099   7.980  0.2364  0.0874 -0.1370
    7POPC   GL1  508   2.309   3.245   7.647 -0.3887  0.2202 -0.4268
    7POPC   GL2  509   2.204   3.044   7.459  0.0018 -0.2574  0.4791
    7POPC   C1A  510   2.620   3.199   7.289 -0.0380  0.0899  0.0856
    7POPC   D2A  511   2.618   2.977   6.862 -0.2495 -0.0144  0.2398
    7POPC   C3A  512   2.308   2.762   6.612 -0.0362  0.2910  0.0453
    7POPC   C4A  513   2.024   2.480   6.426 -0.1202 -0.0990  0.0093
    7POPC   C1B  514   2.304   2.733   7.097  0.0417  0.2793 -0.0627
    7POPC   C2B  515   2.273   2.340   6.873  0.1883 -0.1544 -0.1857
    7POPC   C3B  516   2.307   1.974   6.534 -0.0539 -0.2494  0.3784
    7POPC   C4B  517   2.761   1.924   6.321 -0.1960 -0.3279 -0.1275
    8POPC   NC3  518   4.497   6.771   8.730 -0.1239 -0.1401  0.0134
    8POPC   PO4  519   4.448   6.197   8.694 -0.3885 -0.3930  0.3390
    8POPC   GL1  520   4.414   6.169   8.265  0.0066  0.1777  0.0806
    8POPC   GL2  521   4.158   6.414   8.276  0.0686  0.1588 -0.0654
    8POPC   C1A  522   4.487   6.424   7.888 -0.0385 -0.3596  0.0314
    8POPC   D2A  523   4.356   6.257   7.429  0.2879 -0.0456 -0.0770
    8POPC   C3A  524   4.489   6.116   7.071  0.1849 -0.0527 -0.0916
    8POPC   C4A  525   4.549   6.010   6.638  0.0118 -0.1549  0.0534
    8POPC   C1B  526   3.924   6.678   8.014 -0.2392  0.0861  0.0978
    8POPC   C2B  527   4.080   6.747   7.568 -0.3817 -0.0080  0.2171
    8POPC   C3B  528   4.193   6.657   7.157 -0.1123  0.0692 -0.0798
    8POPC   C4B  529   4.202   6.453   6.847 -0.2100  0.3813  0.2497
    9POPC   NC3  530   6.212   6.965   8.617  0.2415 -0.0566  0.0051
    9POPC   PO4  531   5.922   7.361   8.779  0.0247 -0.0085  0.2329
    9POPC   GL1  532   6.023   7.477   8.448 -0.2846  0.2331 -0.1523
    9POPC   GL2  533   6.261   7.313   8.253  0.2887  0.2054 -0.2225
    9POPC   C1A  534   6.099   7.788   8.105 -0.0080 -0.0780 -0.3306
    9POPC   D2A  535   6.290   7.822   7.684  0.0910 -0.2956 -0.4110
    9POPC   C3A  536   5.944   7.852   7.342  0.0158  0.1443 -0.0334
    9POPC   C4A  537   5.961   8.157   6.940  0.3396  0.0643  0.1682
    9POPC   C1B  538   6.402   7.276   7.721  0.4104 -0.0161  0.0640
    9POPC   C2B  539   6.160   7.424   7.332 -0.2118  0.2377 -0.1562
    9POPC   C3B  540   5.922   7.223   6.930 -0.0447  0.3518 -0.0834
    9POPC   C4B  541   5.896   7.401   6.504 -0.1256  0.2392  0.2793
   10POPC   NC3  542   3.742   7.989   9.238  0.1504  0.0397 -0.1740
   10POPC   PO4  543   3.797   7.772   8.871 -0.2253  0.6021  0.0327
   10POPC   GL1  544   3.868   7.836   8.522  0.4286 -0.0301 -0.2810
   10POPC   GL2  545   3.698   7.640   8.302  0.1469 -0.2456 -0.1008
   10POPC   C1A  546   3.882   8.145   8.201  0.1267  0.1049 -0.0999
   10POPC   D2A  547   3.793   8.307   7.812 -0.0777 -0.2286 -0.0352
   10POPC   C3A  548   3.962   8.522   7.433  0.2598 -0.1222  0.0458
   10POPC   C4A  549   4.259   8.588   7.035  0.0001 -0.0788 -0.2798
   10POPC   C1B  550   3.871   7.697   7.913  0.1249  0.3785  0.4038
   10POPC   C2B  551   4.159   7.503   7.672  0.1600 -0.1287  0.0058
   10POPC   C3B  552   4.336   7.185   7.757  0.1766  0.0270 -0.1789
   10POPC   C4B  553   4.672   7.092   7.971  0.4841 -0.0805  0.1323
   11POPC   NC3  554  10.054   3.646   8.781 -0.0793  0.2501 -0.1115
   11POPC   PO4  555   9.792   3.960   9.002 -0.1679  0.2180 -0.0097
   11POPC   GL1  556   9.766   3.978   8.574  0.3020 -0.2945 -0.0045
   11POPC   GL2  557   9.595   3.782   8.312  0.3223 -0.1844 -0.0507
   11POPC   C1A  558   9.864   4.172   8.169  0.0510 -0.1612  0.1778
   11POPC   D2A  559   9.843   4.109   7.732 -0.3539 -0.0237 -0.4289
   11POPC   C3A  560   9.408   4.072   7.494 -0.2086 -0.1241  0.3607
   11POPC   C4A  561   9.063   3.951   7.260  0.1274 -0.1010  0.0157
   11POPC   C1B  562   9.468   3.778   7.915 -0.1908 -0.0272  0.1267
   11POPC   C2B  563   9.270   3.608   7.628  0.0854 -0.1841  0.2311
   11POPC   C3B  564   9.003   3.271   7.487 -0.2901  0.0476 -0.0429
   11POPC   C4B  565   8.718   3.052   7.245  0.1364 -0.0245  0.1039
   12POPC   NC3  566   6.352   1.270   8.800 -0.1951  0.0859  0.3189
   12POPC   PO4  567   6.671   1.000   8.634  0.0261 -0.0396 -0.0286
   12POPC   GL1  568   6.336   0.995   8.220  0.0034  0.2067 -0.2136
   12POPC   GL2  569   6.349   1.280   8.097  0.2044 -0.0209  0.0592
   12POPC   C1A  570   6.275   0.825   7.810 -0.0833 -0.1184  0.0342
   12POPC   D2A  571   6.466   0.942   7.402 -0.2699 -0.2887  0.0988
   12POPC   C3A  572   6.325   0.882   7.030 -0.0444  0.2000  0.0248
   12POPC   C4A  573   6.404   1.013   6.627 -0.1519  0.1477 -0.1871
   12POPC   C1B  574   6.264   1.301   7.655 -0.0130  0.1338 -0.3443
   12POPC   C2B  575   6.078   1.308   7.239 -0.1680  0.0640  0.2522
   12POPC   C3B  576   5.698   1.389   7.282 -0.3233 -0.3216  0.3550
   12POPC   C4B  577   5.457   1.297   7.635  0.0196 -0.1889 -0.1838
   13POPC   NC3  578   9.741   0.185   8.654  0.2817 -0.3515 -0.2699
   13POPC   PO4  579   9.409   0.371   8.465 -0.2133 -0.1916 -0.4265
   13POPC   GL1  580   9.382   0.396   8.098 -0.1186 -0.0592  0.1941
   13POPC   GL2  581   9.292   0.034   7.955  0.2781 -0.2796 -0.1677
   13POPC   C1A  582   9.260   0.700   7.803  0.0701 -0.0811 -0.2676
   13POPC   D2A  583   8.964   1.007   7.759  0.2481  0.4192 -0.0343
   13POPC   C3A  584   8.861   1.168   7.264  0.1778 -0.0301  0.0237
   13POPC   C4A  585   8.563   1.253   7.055  0.1406  0.0208 -0.0426
   13POPC   C1B  586   9.276   0.170   7.518  0.1449  0.1382 -0.2601
   13POPC   C2B  587   9.283  -0.129   7.141 -0.0116  0.1610 -0.2752
   13POPC   C3B  588   9.262  -0.195   6.720 -0.3631 -0.0122 -0.4130
   13POPC   C4B  589   9.561  -0.260   6.272 -0.0089  0.0664  0.2271
   14POPC   NC3  590   3.896   2.696   8.332 -0.1759 -0.4490 -0.0229
   14POPC   PO4  591   4.022   2.278   8.129  0.1432  0.3085  0.1169
   14POPC   GL1  592   4.149   2.160   7.785 -0.3748 -0.0298  0.0624
   14POPC   GL2  593   4.523   2.151   7.727 -0.1287 -0.2120 -0.0704
   14POPC   C1A  594   4.160   2.010   7.398  0.0923  0.2900  0.2000
   14POPC   D2A  595   4.084   1.932   6.982 -0.0798  0.0730 -0.3046
   14POPC   C3A  596   4.394   1.710   6.692  0.4147  0.0127 -0.1293
   14POPC   C4A  597   4.798   1.504   6.738 -0.1326  0.2471  0.0195
   14POPC   C1B  598   4.715   1.912   7.432  0.2314  0.1926 -0.1149
   14POPC   C2B  599   4.677   1.929   7.015 -0.1023  0.0844 -0.0963
   14POPC   C3B  600   4.495   2.239   6.735  0.1434  0.3029  0.0176
   14POPC   C4B  601   4.256   2.523   6.534 -0.3452 -0.0507  0.6165
   15POPC   NC3  602   8.138   1.521   8.382 -0.1782  0.1613  0.2687
   15POPC   PO4  603   7.700   1.644   8.520 -0.1189  0.1179 -0.0821
   15POPC   GL1  604   7.756   1.641   8.024 -0.1504 -0.0020 -0.0435
   15POPC   GL2  605   7.987   1.559   7.902  0.0228  0.1885  0.0227
   15POPC   C1A  606   7.649   1.722   7.551 -0.0882  0.1689  0.1395
   15POPC   D2A  607   7.668   1.630   7.145 -0.0032  0.0103 -0.0630
   15POPC   C3A  608   8.153   1.580   6.909  0.3742  0.1528  0.1480
   15POPC   C4A  609   8.508   1.783   7.111  0.0591  0.1099  0.2161
   15POPC   C1B  610   8.125   1.832   7.614  0.1146 -0.2640  0.0670
   15POPC   C2B  611   8.012   1.946   7.234  0.1291  0.0293 -0.2651
   15POPC   C3B  612   7.928   2.054   6.864 -0.2309  0.0263  0.2620
   15POPC   C4B  613   8.213   1.978   6.530  0.2843  0.2818  0.1712
   16POPC   NC3  614   0.580   3.672   8.431 -0.3837  0.2136  0.1399
   16POPC   PO4  615   0.266   3.869   8.538  0.0188 -0.1712 -0.0231
   16POPC   GL1  616   0.110   3.689   8.271 -0.1010 -0.0355  0.1380
   16POPC   GL2  617   0.214   3.358   8.160 -0.0660 -0.0301 -0.1585
   16POPC   C1A  618  -0.155   3.702   8.003  0.1813 -0.1235  0.0533
   16POPC   D2A  619  -0.332   3.636   7.549  0.1358 -0.1789 -0.3371
   16POPC   C3A  620  -0.583   3.312   7.375 -0.0077  0.1329 -0.4972
   16POPC   C4A  621  -0.915   3.040   7.038 -0.1037 -0.3833 -0.1689
   16POPC   C1B  622   0.095   2.933   7.985 -0.1573 -0.1436  0.0932
   16POPC   C2B  623  -0.273   2.666   8.005  0.0288  0.1937  0.0385
   16POPC   C3B  624  -0.519   2.747   7.647  0.0592  0.0479 -0.1519
   16POPC   C4B  625  -0.452   2.895   7.203 -0.0949  0.2371  0.0459
   17POPC   NC3  626   4.123   3.299   8.342  0.0359 -0.3732  0.1210
   17POPC   PO4  627   3.920   3.669   8.391 -0.1433  0.2081  0.0582
   17POPC   GL1  628   4.168   3.747   7.974 -0.0997  0.1809  0.2501
   17POPC   GL2  629   4.205   4.101   7.795  0.1278  0.3126  0.1832
   17POPC   C1A  630   4.506   3.557   7.646  0.0524  0.0220  0.0292
   17POPC   D2A  631   4.441   3.146   7.473 -0.1533 -0.0627 -0.1593
   17POPC   C3A  632   4.711   2.898   7.206  0.3952  0.1631  0.2722
   17POPC   C4A  633   4.666   2.935   6.780 -0.0051  0.3190  0.0136
   17POPC   C1B  634   4.283   3.997   7.442 -0.2899 -0.0528 -0.0460
   17POPC   C2B  635   4.004   3.865   7.108  0.0201  0.1377  0.2529
   17POPC   C3B  636   4.244   3.623   6.762  0.1818  0.1502 -0.2277
   17POPC   C4B  637   4.350   3.202   6.502  0.0461 -0.0645 -0.0655
   18POPC   NC3  638   3.189   9.259   8.755  0.2091  0.0756  0.0424
   18POPC   PO4  639   3.399   9.664   8.906  0.2452  0.0937  0.3519
   18POPC   GL1  640   3.582   9.643   8.531  0.2705 -0.0906  0.0419
   18POPC   GL2  641   3.335   9.700   8.366  0.1161  0.2208  0.0762
   18POPC   C1A  642   3.910   9.456   8.202 -0.1205 -0.0317 -0.0826
   18POPC   D2A  643   4.336   9.425   8.193  0.1485  0.2380 -0.2340
   18POPC   C3A  644   4.522   9.284   7.796 -0.0382 -0.1841  0.1317
   18POPC   C4A  645   4.840   9.334   7.438  0.1708 -0.2839  0.1612
   18POPC   C1B  646   3.492   9.556   7.980  0.0350 -0.4827  0.2738
   18POPC   C2B  647   3.315   9.549   7.517 -0.2364  0.0605 -0.1754
   18POPC   C3B  648   3.214   9.831   7.158 -0.0080 -0.1472  0.0484
   18POPC   C4B  649   3.404  10.041   6.761  0.0248 -0.1396 -0.0099
   19POPC   NC3  650   1.550   4.003   7.996  0.3365 -0.3916 -0.1995
   19POPC   PO4  651   1.422   3.569   7.846 -0.0460  0.1325  0.0538
   19POPC   GL1  652   1.532   3.390   7.480 -0.2477 -0.1562  0.0871
   19POPC   GL2  653   1.703   3.161   7.554  0.2842  0.0425 -0.1500
   19POPC   C1A  654   1.571   3.222   7.010  0.2601  0.0653  0.2475
   19POPC   D2A  655   1.449   2.835   6.798  0.3507  0.3279  0.0780
   19POPC   C3A  656   1.542   2.427   6.564 -0.1463 -0.2389 -0.0632
   19POPC   C4A  657   1.301   2.071   6.584 -0.1383  0.0883 -0.1079
   19POPC   C1B  658   1.709   2.772   7.251 -0.0610 -0.2394  0.1135
   19POPC   C2B  659   1.763   2.406   7.036 -0.0514 -0.0956 -0.0419
   19POPC   C3B  660   1.869   1.982   6.641  0.1748 -0.0330 -0.1054
   19POPC   C4B  661   1.981   1.585   6.509  0.1281 -0.0827 -0.2492
   20POPC   NC3  662   8.984   0.534   8.609 -0.0590 -0.1539 -0.0614
   20POPC   PO4  663   9.268   0.895   8.710  0.0767  0.0953  0.0638
   20POPC   GL1  664   9.622   0.798   8.429 -0.1139 -0.1511 -0.1544
   20POPC   GL2  665   9.646   1.043   8.289 -0.0694 -0.0182 -0.1530
   20POPC   C1A  666   9.766   0.694   7.994  0.2551 -0.1710 -0.1340
   20POPC   D2A  667   9.689   0.735   7.548  0.0200 -0.1261 -0.0163
   20POPC   C3A  668   9.341   0.718   7.267 -0.3606 -0.1627  0.0221
   20POPC   C4A  669   9.161   1.014   6.924 -0.1745  0.0099 -0.2736
   20POPC   C1B  670   9.483   1.202   7.822 -0.1322  0.3534 -0.0234
   20POPC   C2B  671   9.501   1.257   7.388 -0.0892 -0.1303  0.2482
   20POPC   C3B  672   9.529   1.449   7.015  0.0886  0.2353 -0.0615
   20POPC   C4B  673   9.489   1.298   6.646  0.2347  0.1900 -0.1920
   21POPC   NC3  674   9.832   9.122   9.169 -0.0028  0.0579  0.1250
   21POPC   PO4  675  10.174   8.975   8.857 -0.0391 -0.0863 -0.0546
   21POPC   GL1  676  10.134   9.333   8.442  0.1649  0.1020  0.0742
   21POPC   GL2  677  10.294   9.613   8.420 -0.1789 -0.1760  0.0576
   21POPC   C1A  678   9.954   9.391   8.023 -0.0846  0.0569 -0.2822
   21POPC   D2A  679   9.850   9.217   7.608  0.0590  0.0047  0.2426
   21POPC   C3A  680   9.900   9.353   7.252  0.1281  0.0044  0.2364
   21POPC   C4A  681   9.618   9.607   6.950  0.1252  0.2513 -0.0538
   21POPC   C1B  682  10.478   9.330   8.035  0.0770 -0.0173  0.1175
   21POPC   C2B  683  10.551   9.149   7.637  0.0511 -0.1494  0.1021
   21POPC   C3B  684  10.364   9.195   7.216 -0.0968 -0.1929 -0.0346
   21POPC   C4B  685  10.510   9.181   6.778  0.1146  0.0742  0.5202
   22POPC   NC3  686   4.396   4.332   8.202  0.1617 -0.0855 -0.1315
   22POPC   PO4  687   4.043   4.657   8.354  0.0349 -0.0926 -0.2449
   22POPC   GL1  688   3.782   4.663   7.944  0.1103  0.2098 -0.0165
   22POPC   GL2  689   3.767   4.432   7.632  0.1112 -0.0906 -0.1386
   22POPC   C1A  690   3.632   5.005   7.705  0.2958 -0.3495  0.2462
   22POPC   D2A  691   3.384   5.415   7.656  0.3872  0.2331 -0.0240
   22POPC   C3A  692   3.191   5.482   7.323  0.0291 -0.2663 -0.2303
   22POPC   C4A  693   3.200   5.337   6.778  0.1238  0.0221 -0.1750
   22POPC   C1B  694   3.866   4.370   7.314  0.2356  0.2273  0.1365
   22POPC   C2B  695   4.219   4.332   7.085  0.1213 -0.0134  0.1662
   22POPC   C3B  696   4.431   4.115   6.711 -0.3912 -0.2156  0.4388
   22POPC   C4B  697   4.435   4.284   6.209  0.0192  0.3583  0.2129
   23POPC   NC3  698   5.141   3.865   8.398 -0.0404 -0.1686 -0.2417
   23POPC   PO4  699   5.258   4.119   8.771  0.1613 -0.0383  0.1022
   23POPC   GL1  700   5.207   4.379   8.296  0.1638 -0.2009  0.3644
   23POPC   GL2  701   5.530   4.483   8.372 -0.0785  0.0621  0.1835
   23POPC   C1A  702   5.123   4.449   7.829  0.1285  0.0545  0.1030
   23POPC   D2A  703   5.116   4.616   7.460  0.2617  0.2113  0.0336
   23POPC   C3A  704   4.747   4.930   7.447  0.1672 -0.0026  0.3713
   23POPC   C4A  705   4.451   4.937   7.242 -0.0889 -0.0792 -0.3486
   23POPC   C1B  706   5.676   4.500   7.931 -0.0540  0.0582  0.1459
   23POPC   C2B  707   5.585   4.478   7.631  0.0556 -0.0236  0.0056
   23POPC   C3B  708   5.800   4.423   7.279 -0.1979 -0.1659  0.2238
   23POPC   C4B  709   6.130   4.401   6.907  0.1955  0.1210  0.0374
   24POPC   NC3  710   5.671   4.013   8.488  0.3916  0.1186  0.0283
   24POPC   PO4  711   6.061   3.783   8.392  0.0811  0.4472  0.2696
   24POPC   GL1  712   6.263   3.984   8.033 -0.0458  0.0892  0.1634
   24POPC   GL2  713   5.992   4.136   8.031  0.0191 -0.1634 -0.0569
   24POPC   C1A  714   6.603   3.802   7.820  0.0183 -0.2316 -0.0044
   24POPC   D2A  715   6.897   3.736   7.558  0.2253 -0.1473  0.1164
   24POPC   C3A  716   7.192   4.019   7.351  0.1988 -0.1240 -0.4126
   24POPC   C4A  717   7.051   4.435   7.313 -0.0075  0.1222 -0.0376
   24POPC   C1B  718   5.806   4.012   7.594  0.1797  0.0319  0.2051
   24POPC   C2B  719   6.011   3.926   7.127  0.0005 -0.0470  0.0531
   24POPC   C3B  720   6.234   3.755   6.693  0.2285 -0.2255  0.0540
   24POPC   C4B  721   6.264   3.684   6.287 -0.2532  0.1923  0.1324
   25POPC   NC3  722   8.268   4.102   8.668  0.1611  0.1243 -0.0061
   25POPC   PO4  723   7.931   4.299   8.668  0.3206  0.3152  0.0525
   25POPC   GL1  724   7.695   4.307   8.274  0.2081 -0.1735 -0.1596
   25POPC   GL2  725   7.699   4.586   8.183 -0.3892  0.4837  0.1198
   25POPC   C1A  726   7.494   4.148   7.726  0.0616  0.4648 -0.3368
   25POPC   D2A  727   7.674   4.246   7.362  0.0388  0.1120 -0.0538
   25POPC   C3A  728   7.428   4.416   6.954 -0.0471 -0.1408  0.1344
   25POPC   C4A  729   7.504   4.813   6.851 -0.1021  0.2717 -0.0641
   25POPC   C1B  730   7.849   4.682   7.842  0.0070  0.1358  0.1034
   25POPC   C2B  731   7.881   4.936   7.439 -0.2729 -0.0495  0.3806
   25POPC   C3B  732   8.007   4.913   6.923 -0.0446 -0.0526 -0.0028
   25POPC   C4B  733   8.009   5.003   6.439 -0.2815  0.0678  0.1395
   26POPC   NC3  734   6.362   3.544   8.695 -0.1292  0.2577 -0.2058
   26POPC   PO4  735   6.654   3.185   8.607  0.3075 -0.1034 -0.3031
   26POPC   GL1  736   6.740   3.457   8.273 -0.1503  0.1318  0.3077
   26POPC   GL2  737   6.369   3.453   8.168 -0.0767 -0.1994  0.1300
   26POPC   C1A  738   6.807   3.382   7.907 -0.0064 -0.2108 -0.0029
   26POPC   D2A  739   7.045   3.261   7.573  0.1576 -0.1129  0.3357
   26POPC   C3A  740   7.188   3.482   7.171  0.1013  0.1207 -0.1074
   26POPC   C4A  741   7.097   3.373   6.716  0.3686  0.1216  0.0570
   26POPC   C1B  742   6.045   3.566   7.767 -0.0259 -0.2728  0.3023
   26POPC   C2B  743   5.993   3.447   7.340 -0.0599  0.2201  0.1410
   26POPC   C3B  744   6.227   3.319   7.014 -0.3423 -0.4496 -0.1660
   26POPC   C4B  745   6.531   3.385   6.703 -0.2244  0.0505  0.1251
   27POPC   NC3  746   7.443   2.024   8.810 -0.0874  0.0090  0.1276
   27POPC   PO4  747   7.714   2.385   8.636 -0.2351  0.2248  0.1427
   27POPC   GL1  748   7.725   2.616   8.354  0.0161  0.3389  0.2454
   27POPC   GL2  749   7.985   2.665   8.144  0.0109  0.0258 -0.0255
   27POPC   C1A  750   7.445   2.699   7.912 -0.1338  0.0342 -0.4074
   27POPC   D2A  751   7.325   2.777   7.442 -0.3016 -0.1619 -0.1849
   27POPC   C3A  752   7.054   2.888   7.162  0.1971 -0.1428 -0.0151
   27POPC   C4A  753   6.677   3.133   7.159 -0.0364 -0.0225 -0.0656
   27POPC   C1B  754   7.893   2.811   7.667  0.1075  0.1622 -0.0163
   27POPC   C2B  755   7.778   2.744   7.273 -0.0722 -0.0196 -0.3852
   27POPC   C3B  756   7.585   2.695   6.896  0.0746  0.0161  0.0493
   27POPC   C4B  757   7.530   2.354   6.549 -0.2408  0.0631 -0.1380
   28POPC   NC3  758   0.502   1.960   8.476  0.1438  0.1163 -0.3202
   28POPC   PO4  759   0.627   2.298   8.363 -0.2365  0.3205 -0.2051
   28POPC   GL1  760   0.589   2.103   7.946  0.0715  0.2160  0.3140
   28POPC   GL2  761   0.729   1.738   7.832  0.5173  0.3707 -0.2012
   28POPC   C1A  762   0.519   2.203   7.526 -0.0618 -0.0004  0.3207
   28POPC   D2A  763   0.626   2.293   7.059 -0.0264  0.0741 -0.3952
   28POPC   C3A  764   0.895   1.987   6.866  0.0559  0.0444  0.2175
   28POPC   C4A  765   1.136   1.661   6.752  0.1086  0.2164  0.0246
   28POPC   C1B  766   0.239   1.829   7.731 -0.0109  0.5024 -0.0770
   28POPC   C2B  767   0.208   1.956   7.259 -0.1812 -0.1040  0.0091
   28POPC   C3B  768   0.067   2.065   6.840  0.4405  0.1357  0.2402
   28POPC   C4B  769   0.001   2.039   6.379 -0.1006  0.1488  0.1095
   29POPC   NC3  770   2.479   7.193   9.283  0.0468  0.0936  0.3427
   29POPC   PO4  771   2.429   7.619   9.089  0.1785  0.1774 -0.0523
   29POPC   GL1  772   2.527   7.449   8.701  0.1422 -0.1036 -0.1963
   29POPC   GL2  773   2.830   7.405   8.624 -0.0655  0.1595 -0.1967
   29POPC   C1A  774   2.481   7.583   8.275 -0.2571 -0.0302 -0.1563
   29POPC   D2A  775   2.188   7.461   7.972  0.2888  0.1477  0.4952
   29POPC   C3A  776   2.181   7.341   7.423 -0.5082 -0.5864 -0.1610
   29POPC   C4A  777   2.215   7.254   7.103 -0.4427  0.1986 -0.3304
   29POPC   C1B  778   3.178   7.514   8.343 -0.3027 -0.1262 -0.2477
   29POPC   C2B  779   3.348   7.502   7.900 -0.0659 -0.0923 -0.2373
   29POPC   C3B  780   3.537   7.653   7.537  0.4467 -0.1425  0.2802
   29POPC   C4B  781   3.570   7.993   7.368 -0.0548 -0.2094  0.2436
   30POPC   NC3  782   0.522   9.763   8.760  0.2155 -0.0089 -0.0358
   30POPC   PO4  783   0.364   9.337   8.793 -0.0865  0.2087 -0.2148
   30POPC   GL1  784   0.442   9.078   8.518  0.0125  0.1984  0.0469
   30POPC   GL2  785   0.723   8.925   8.466  0.0495 -0.4020 -0.1186
   30POPC   C1A  786   0.298   8.810   8.173 -0.1111  0.1152 -0.1878
   30POPC   D2A  787   0.074   8.887   7.859  0.2588  0.0264 -0.0406
   30POPC   C3A  788   0.091   8.805   7.471  0.0159  0.1446 -0.1696
   30POPC   C4A  789   0.228   8.585   7.135  0.1179  0.1958  0.1432
   30POPC   C1B  790   0.788   9.132   8.061  0.0565  0.1197  0.1513
   30POPC   C2B  791   1.028   9.060   7.660  0.0405 -0.1648  0.0500
   30POPC   C3B  792   1.324   9.052   7.304 -0.1116 -0.0356 -0.2428
   30POPC   C4B  793   1.271   9.309   6.966 -0.0567  0.1540  0.0386
   31POPC   NC3  794   8.853   9.394   8.525 -0.0511 -0.1380  0.2789
   31POPC   PO4  795   8.871   9.729   8.554  0.3240  0.0677  0.0755
   31POPC   GL1  796   8.766   9.742   8.184 -0.2251  0.2537  0.0380
   31POPC   GL2  797   8.437   9.834   8.112 -0.0918 -0.1407 -0.2410
   31POPC   C1A  798   9.032   9.657   7.795 -0.1075  0.0365 -0.0369
   31POPC   D2A  799   9.454   9.832   7.593 -0.0283 -0.0633  0.1982
   31POPC   C3A  800   9.880   9.800   7.512 -0.0899  0.2809 -0.0189
   31POPC   C4A  801  10.188  10.100   7.539 -0.2466  0.1527  0.2916
   31POPC   C1B  802   8.492   9.587   7.751  0.0461 -0.1895 -0.1181
   31POPC   C2B  803   8.387   9.630   7.327  0.0140 -0.1210  0.0671
   31POPC   C3B  804   8.293   9.833   7.008 -0.0451 -0.1689 -0.0960
   31POPC   C4B  805   8.385  10.108   6.637  0.1718  0.0402 -0.5718
   32POPC   NC3  806   1.174   0.355   9.353 -0.0622  0.1503 -0.0435
   32POPC   PO4  807   1.168   0.691   9.044 -0.0637 -0.1479 -0.0105
   32POPC   GL1  808   1.319   0.552   8.531 -0.2792  0.2457 -0.2450
   32POPC   GL2  809   1.288   0.134   8.441  0.0871 -0.2688 -0.2993
   32POPC   C1A  810   1.411   0.587   8.112  0.2209 -0.2234 -0.0126
   32POPC   D2A  811   1.480   0.917   7.811 -0.0865  0.1930 -0.1959
   32POPC   C3A  812   1.889   1.084   7.742 -0.1055 -0.1533  0.2382
   32POPC   C4A  813   2.277   1.251   7.809 -0.2455  0.1361 -0.2234
   32POPC   C1B  814   1.427  -0.208   8.226  0.1815  0.1770  0.0955
   32POPC   C2B  815   1.402  -0.441   7.854  0.1549  0.0500  0.0721
   32POPC   C3B  816   1.398  -0.568   7.437 -0.0790 -0.1060  0.2302
   32POPC   C4B  817   1.524  -0.321   7.042  0.0057  0.2534 -0.1287
   33POPC   NC3  818   8.076   2.822   8.613 -0.2206  0.0268 -0.3642
   33POPC   PO4  819   8.586   2.730   8.524  0.1354  0.2335  0.3578
   33POPC   GL1  820   8.402   2.406   8.254 -0.1694  0.2539 -0.3915
   33POPC   GL2  821   8.710   2.331   8.127 -0.0312  0.1216  0.0874
   33POPC   C1A  822   8.268   2.312   7.906  0.0942 -0.1335  0.0113
   33POPC   D2A  823   8.093   2.368   7.488 -0.1327  0.1590 -0.2627
   33POPC   C3A  824   8.443   2.325   7.096 -0.1570  0.0070 -0.0316
   33POPC   C4A  825   8.817   2.606   7.018  0.1090  0.4120 -0.1046
   33POPC   C1B  826   8.720   2.412   7.685 -0.0822  0.3453 -0.0080
   33POPC   C2B  827   8.890   2.153   7.285 -0.3169 -0.0580  0.4025
   33POPC   C3B  828   8.831   2.059   6.842  0.2129 -0.1388 -0.2444
   33POPC   C4B  829   8.693   1.991   6.374  0.2172  0.0434 -0.0698
   34POPC   NC3  830   2.202   3.912   8.244 -0.3553 -0.1757 -0.1899
   34POPC   PO4  831   2.017   4.238   7.987  0.1773  0.0069 -0.2373
   34POPC   GL1  832   2.206   4.297   7.614  0.3410  0.1103 -0.1837
   34POPC   GL2  833   2.235   4.334   7.391 -0.1986  0.0675  0.2034
   34POPC   C1A  834   2.655   4.549   7.627  0.1553 -0.0389  0.0951
   34POPC   D2A  835   3.005   4.421   7.384  0.0897  0.0725  0.3793
   34POPC   C3A  836   3.326   4.189   7.575  0.3157 -0.1799  0.0149
   34POPC   C4A  837   3.280   3.664   7.579 -0.3388 -0.3069  0.0573
   34POPC   C1B  838   2.615   4.195   7.198 -0.0821  0.2688 -0.1253
   34POPC   C2B  839   2.764   3.856   6.828  0.0732 -0.1678 -0.2053
   34POPC   C3B  840   3.210   3.753   6.642 -0.0620 -0.1154  0.3062
   34POPC   C4B  841   3.678   3.700   6.818  0.0599  0.1724  0.3038
   35POPC   NC3  842   9.417   9.980   8.494 -0.1373 -0.2177 -0.0846
   35POPC   PO4  843   9.702   9.684   8.723  0.0978  0.2165  0.0385
   35POPC   GL1  844   9.842   9.795   8.290  0.2602  0.4887 -0.0458
   35POPC   GL2  845   9.592   9.773   8.037  0.2492 -0.1426 -0.3490
   35POPC   C1A  846  10.021   9.882   7.961 -0.0872  0.1409  0.2291
   35POPC   D2A  847  10.233   9.611   7.722  0.1133 -0.0912 -0.0694
   35POPC   C3A  848  10.480   9.706   7.429  0.1340  0.1403  0.0573
   35POPC   C4A  849  10.354   9.622   6.999 -0.0653  0.1899 -0.1716
   35POPC   C1B  850   9.475   9.372   7.876 -0.1111 -0.0053 -0.0053
   35POPC   C2B  851   9.379   9.391   7.439 -0.2463 -0.0216 -0.1900
   35POPC   C3B  852   9.457   9.192   7.100  0.1949  0.1032  0.1640
   35POPC   C4B  853   9.351   8.833   6.850 -0.0564  0.0244 -0.2462
   36POPC   NC3  854   9.308   5.568   9.185  0.1619  0.1036 -0.4796
   36POPC   PO4  855   9.066   5.322   9.096 -0.1161 -0.1927 -0.2092
   36POPC   GL1  856   9.069   5.064   8.807 -0.1968 -0.3395  0.0607
   36POPC   GL2  857   9.137   5.199   8.581  0.2550  0.0007  0.1625
   36POPC   C1A  858   9.235   4.742   8.573  0.1052 -0.1511  0.3152
   36POPC   D2A  859   9.429   4.388   8.365  0.0271 -0.0221 -0.0028
   36POPC   C3A  860   9.179   4.200   7.974  0.1179 -0.0993  0.0062
   36POPC   C4A  861   8.864   4.377   7.579 -0.0237 -0.0325  0.0544
   36POPC   C1B  862   9.076   5.257   8.132  0.1963  0.3873  0.1143
   36POPC   C2B  863   9.018   5.227   7.671 -0.1298 -0.0356  0.1895
   36POPC   C3B  864   8.820   5.382   7.227  0.1237  0.0334  0.2198
   36POPC   C4B  865   8.959   5.632   6.887 -0.1101  0.5117 -0.0445
   37POPC   NC3  866   7.263   5.957   9.264  0.2584 -0.0299  0.2056
   37POPC   PO4  867   6.902   5.825   8.881 -0.1281  0.0746 -0.0845
   37POPC   GL1  868   7.098   5.715   8.448 -0.0136 -0.1537 -0.1003
   37POPC   GL2  869   6.798   5.749   8.208  0.3581 -0.1421  0.2949
   37POPC   C1A  870   7.201   5.708   7.946  0.2909 -0.2490  0.2170
   37POPC   D2A  871   7.109   5.462   7.528  0.1996 -0.2282  0.4099
   37POPC   C3A  872   6.744   5.393   7.256 -0.0861  0.2176 -0.1674
   37POPC   C4A  873   6.418   5.330   6.973  0.3943 -0.0082  0.0834
   37POPC   C1B  874   6.818   6.148   8.115 -0.1682  0.0254 -0.0206
   37POPC   C2B  875   6.848   6.402   7.743 -0.0659  0.2647 -0.2393
   37POPC   C3B  876   7.167   6.503   7.451 -0.1318  0.0964 -0.2394
   37POPC   C4B  877   7.408   6.402   7.218 -0.0083  0.1254  0.3644
   38POPC   NC3  878   1.068   8.897   8.830 -0.1080  0.0859  0.0770
   38POPC   PO4  879   0.945   9.280   8.958  0.0131 -0.1456  0.3673
   38POPC   GL1  880   1.232   9.298   8.623  0.2804  0.0461 -0.3110
   38POPC   GL2  881   1.285   8.978   8.446  0.0694 -0.3687  0.0872
   38POPC   C1A  882   1.265   9.423   8.203 -0.1664  0.1629 -0.1112
   38POPC   D2A  883   1.548   9.215   7.756 -0.1686  0.2584  0.1665
   38POPC   C3A  884   1.934   9.360   7.651 -0.2616  0.0419  0.0368
   38POPC   C4A  885   2.217   9.710   7.795 -0.0086 -0.0123 -0.2921
   38POPC   C1B  886   1.118   8.750   8.130  0.4199 -0.0156  0.1994
   38POPC   C2B  887   1.394   8.737   7.796  0.0997 -0.1393  0.0643
   38POPC   C3B  888   1.498   8.616   7.455 -0.1442  0.0085 -0.0383
   38POPC   C4B  889   1.779   8.540   7.088 -0.0904 -0.2340 -0.2481
   39POPC   NC3  890   9.149   8.935   8.394 -0.1588 -0.2296 -0.3475
   39POPC   PO4  891   8.701   8.943   8.396  0.1647  0.0038  0.1797
   39POPC   GL1  892   8.870   8.875   8.025 -0.0839  0.1134  0.1169
   39POPC   GL2  893   8.912   9.219   8.026  0.1301 -0.0388  0.3358
   39POPC   C1A  894   8.807   8.675   7.586  0.2559  0.1897  0.1041
   39POPC   D2A  895   8.581   8.620   7.176  0.0476 -0.1725 -0.1125
   39POPC   C3A  896   8.449   8.679   6.811  0.2476  0.1933 -0.1282
   39POPC   C4A  897   8.364   9.062   6.537  0.2907  0.2895 -0.1329
   39POPC   C1B  898   8.884   9.230   7.637  0.6183  0.0819 -0.1246
   39POPC   C2B  899   9.056   9.040   7.282  0.0775 -0.0559 -0.0010
   39POPC   C3B  900   8.857   8.912   6.882  0.2447  0.2005  0.0470
   39POPC   C4B  901   8.791   8.817   6.412  0.4327  0.1730 -0.1191
   40POPC   NC3  902   5.073   8.812   8.589  0.0375  0.1645  0.0236
   40POPC   PO4  903   4.607   8.902   8.595  0.1234 -0.3718  0.3111
   40POPC   GL1  904   4.719   9.012   8.193  0.1507  0.1142  0.1922
   40POPC   GL2  905   4.497   8.737   7.810 -0.1291  0.1635  0.1180
   40POPC   C1A  906   4.994   9.185   7.999  0.0892 -0.4219 -0.1675
   40POPC   D2A  907   5.377   9.222   7.811 -0.3162 -0.2475 -0.1310
   40POPC   C3A  908   5.483   9.164   7.446 -0.2940 -0.0686 -0.0254
   40POPC   C4A  909   5.722   9.247   7.133 -0.1454  0.0220  0.2215
   40POPC   C1B  910   4.438   8.453   7.519 -0.2166 -0.1019  0.1108
   40POPC   C2B  911   4.535   8.172   7.196 -0.1446 -0.2325  0.0603
   40POPC   C3B  912   4.808   7.888   7.015 -0.2517 -0.1033  0.0197
   40POPC   C4B  913   5.032   7.591   6.825 -0.2305 -0.2302  0.0569
   41POPC   NC3  914   9.012   8.061   8.967 -0.1014  0.1024 -0.2771
   41POPC   PO4  915   9.132   8.515   8.722  0.1346 -0.0939 -0.2794
   41POPC   GL1  916   9.116   8.520   8.242  0.0373 -0.4240  0.1446
   41POPC   GL2  917   9.377   8.319   8.084 -0.0669  0.0726  0.1628
   41POPC   C1A  918   8.848   8.361   7.966 -0.2725 -0.0027 -0.1465
   41POPC   D2A  919   8.945   8.214   7.550 -0.1497 -0.0221 -0.0892
   41POPC   C3A  920   8.737   7.873   7.245  0.1167 -0.3664 -0.0837
   41POPC   C4A  921   8.820   7.538   6.883 -0.3365  0.1382  0.0074
   41POPC   C1B  922   9.445   8.124   7.743 -0.1750  0.0783  0.0106
   41POPC   C2B  923   9.231   7.752   7.464  0.1540  0.1018 -0.2685
   41POPC   C3B  924   9.150   7.860   6.946 -0.1249 -0.1825  0.0243
   41POPC   C4B  925   9.138   7.955   6.634  0.5047 -0.0619  0.1338
   42POPC   NC3  926   6.719   4.370   9.021 -0.1732  0.0564  0.0580
   42POPC   PO4  927   7.031   4.193   8.700 -0.1017  0.1407  0.0984
   42POPC   GL1  928   7.210   4.228   8.324  0.0240  0.0083 -0.0691
   42POPC   GL2  929   7.086   4.596   8.311 -0.1020 -0.0122  0.3276
   42POPC   C1A  930   7.012   4.186   7.867 -0.1160  0.0890 -0.5174
   42POPC   D2A  931   6.705   4.268   7.582 -0.1158 -0.1375 -0.3176
   42POPC   C3A  932   6.643   4.090   7.262  0.2378 -0.0703 -0.1196
   42POPC   C4A  933   6.478   4.108   6.941 -0.1605  0.3015 -0.2443
   42POPC   C1B  934   7.175   4.752   8.004 -0.1833 -0.1012 -0.5382
   42POPC   C2B  935   7.404   4.624   7.635  0.2163 -0.0508 -0.1635
   42POPC   C3B  936   7.320   4.915   7.325 -0.0224  0.3740 -0.4182
   42POPC   C4B  937   6.989   4.927   7.026 -0.0646 -0.3904  0.2702
   43POPC   NC3  938   5.297  10.078   8.960 -0.1365 -0.1081  0.0734
   43POPC   PO4  939   5.485  10.442   8.786  0.1811  0.1964 -0.1051
   43POPC   GL1  940   5.666  10.311   8.386 -0.4039  0.2298 -0.2219
   43POPC   GL2  941   5.954  10.091   8.309  0.0344  0.0700 -0.0987
   43POPC   C1A  942   5.415   9.979   8.211 -0.2590 -0.0694 -0.0421
   43POPC   D2A  943   5.333   9.664   7.931  0.1059  0.0001  0.1855
   43POPC   C3A  944   5.296   9.693   7.577  0.1190 -0.0448  0.1241
   43POPC   C4A  945   5.328   9.677   7.058  0.1471  0.0960 -0.0943
   43POPC   C1B  946   5.945  10.273   7.982  0.1677 -0.1002 -0.1693
   43POPC   C2B  947   5.798  10.515   7.775 -0.1501  0.0608  0.0233
   43POPC   C3B  948   5.551  10.564   7.368  0.0226  0.3275 -0.0283
   43POPC   C4B  949   5.584  10.406   6.925 -0.1313 -0.0550 -0.0571
   44POPC   NC3  950   3.329   4.628   8.507 -0.1529  0.0033  0.1649
   44POPC   PO4  951   2.865   4.643   8.254 -0.5165  0.4813  0.2959
   44POPC   GL1  952   3.189   4.669   7.856 -0.0395 -0.1079 -0.1595
   44POPC   GL2  953   3.268   4.956   8.072  0.3057 -0.2461  0.0317
   44POPC   C1A  954   3.440   4.667   7.388 -0.1589  0.4731 -0.4313
   44POPC   D2A  955   3.443   4.503   7.039  0.1868 -0.2700  0.1194
   44POPC   C3A  956   3.525   4.745   6.755  0.1154  0.2033 -0.0784
   44POPC   C4A  957   3.822   5.006   6.649 -0.1125 -0.1472 -0.1885
   44POPC   C1B  958   2.929   5.080   7.665 -0.1263  0.1888  0.0355
   44POPC   C2B  959   2.679   5.272   7.373 -0.2227 -0.0670 -0.1092
   44POPC   C3B  960   2.667   5.266   6.892  0.3250 -0.2689  0.0827
   44POPC   C4B  961   2.890   5.263   6.347 -0.2782 -0.0517  0.2853
   45POPC   NC3  962   5.531   2.026   8.527  0.1670  0.1448  0.4180
   45POPC   PO4  963   5.701   1.529   8.650  0.3148  0.2332 -0.2668
   45POPC   GL1  964   5.640   1.600   8.240 -0.0833 -0.1539  0.1958
   45POPC   GL2  965   5.344   1.657   8.141 -0.0570  0.0512 -0.2200
   45POPC   C1A  966   5.830   1.622   7.860  0.0588 -0.1509 -0.1175
   45POPC   D2A  967   5.939   1.777   7.467 -0.0746 -0.2182 -0.1399
   45POPC   C3A  968   6.350   1.837   7.469  0.1478  0.0585  0.1315
   45POPC   C4A  969   6.554   2.172   7.592 -0.0427  0.1140 -0.0587
   45POPC   C1B  970   5.332   1.810   7.722 -0.0300 -0.0070 -0.0351
   45POPC   C2B  971   5.434   1.834   7.291  0.3669 -0.2254  0.2085
   45POPC   C3B  972   5.658   1.746   6.972 -0.0564 -0.1469  0.2339
   45POPC   C4B  973   5.922   2.051   6.727 -0.1340 -0.0238  0.1055
   46POPC   NC3  974   6.992   2.016   8.422  0.1443  0.0514  0.2415
   46POPC   PO4  975   6.486   2.037   8.498  0.0819 -0.2288 -0.1294
   46POPC   GL1  976   6.510   1.902   8.122  0.0855 -0.1112 -0.4801
   46POPC   GL2  977   6.257   1.757   7.979 -0.0412 -0.2232  0.1450
   46POPC   C1A  978   6.795   1.709   7.842  0.0536  0.3593  0.0130
   46POPC   D2A  979   6.747   1.400   7.583 -0.1441  0.0519 -0.0524
   46POPC   C3A  980   6.585   1.397   7.189  0.1586 -0.0979 -0.1756
   46POPC   C4A  981   6.564   1.525   6.752  0.1591 -0.3034  0.0714
   46POPC   C1B  982   6.096   2.163   7.862 -0.0801  0.0347  0.1566
   46POPC   C2B  983   6.220   2.575   7.541 -0.2340  0.3446  0.2693
   46POPC   C3B  984   6.182   2.867   7.231 -0.1596 -0.2049  0.2618
   46POPC   C4B  985   6.070   2.887   6.864  0.1351 -0.0509 -0.1257
   47POPC   NC3  986   8.709   0.981   8.473  0.0044  0.2988 -0.0618
   47POPC   PO4  987   8.171   1.012   8.385  0.0482 -0.1333 -0.0316
   47POPC   GL1  988   8.056   1.006   7.913 -0.3536  0.0922  0.0937
   47POPC   GL2  989   8.397   0.907   7.910  0.2776  0.4004 -0.0874
   47POPC   C1A  990   8.001   0.742   7.666 -0.0375 -0.1348  0.2615
   47POPC   D2A  991   8.029   0.594   7.260  0.1103 -0.0583 -0.3862
   47POPC   C3A  992   7.953   0.175   7.165  0.1691 -0.0956  0.0284
   47POPC   C4A  993   7.792  -0.299   6.967 -0.4864 -0.0680  0.0444
   47POPC   C1B  994   8.518   0.849   7.429 -0.2601  0.0085 -0.1266
   47POPC   C2B  995   8.480   0.758   7.053 -0.0756 -0.2469  0.3839
   47POPC   C3B  996   8.200   1.008   6.755 -0.2664  0.0616  0.1447
   47POPC   C4B  997   7.870   0.964   6.420  0.0556 -0.0229 -0.2356
   48POPC   NC3  998   9.175   8.066   8.511  0.1718  0.1904 -0.1839
   48POPC   PO4  999   9.180   7.637   8.685  0.0497  0.4809  0.2445
   48POPC   GL1 1000   9.362   7.455   8.344 -0.2235  0.2903 -0.2974
   48POPC   GL2 1001   9.348   7.150   8.259 -0.2513 -0.0342  0.1180
   48POPC   C1A 1002   9.586   7.701   8.092  0.0174 -0.1780  0.2857
   48POPC   D2A 1003   9.739   7.754   7.620 -0.0405  0.0431  0.1749
   48POPC   C3A 1004   9.620   8.014   7.295  0.1822  0.2377  0.1083
   48POPC   C4A 1005   9.513   8.331   6.922 -0.1567 -0.1861 -0.3713
   48POPC   C1B 1006   9.282   7.314   7.878  0.0487  0.0411  0.0519
   48POPC   C2B 1007   9.472   7.319   7.432  0.2188  0.0811  0.4166
   48POPC   C3B 1008   9.518   7.568   7.126 -0.2352  0.1376  0.1280
   48POPC   C4B 1009   9.880   7.723   6.965  0.0584 -0.1172 -0.0207
   49POPC   NC3 1010   2.481   3.133   8.232  0.3220 -0.1745 -0.0740
   49POPC   PO4 1011   2.637   2.652   8.276 -0.1126 -0.3206  0.1863
   49POPC   GL1 1012   2.789   2.385   7.914 -0.1100 -0.0523  0.4004
   49POPC   GL2 1013   3.189   2.194   7.965  0.2405  0.0157 -0.3560
   49POPC   C1A 1014   2.947   2.236   7.524  0.2658 -0.1814 -0.0385
   49POPC   D2A 1015   3.184   2.311   7.047  0.1535  0.1555 -0.3379
   49POPC   C3A 1016   3.124   1.992   6.696  0.0972  0.0554 -0.1666
   49POPC   C4A 1017   3.262   1.608   6.512  0.0340  0.1733 -0.2338
   49POPC   C1B 1018   3.147   1.810   7.804 -0.2365  0.0058  0.2586
   49POPC   C2B 1019   2.963   1.507   7.573 -0.1503 -0.0493  0.0143
   49POPC   C3B 1020   2.610   1.529   7.414 -0.1820  0.0026 -0.0480
   49POPC   C4B 1021   2.234   1.606   7.381  0.0496  0.0439 -0.0815
   50POPC   NC3 1022   9.053   4.463   9.492 -0.1159  0.1095 -0.2456
   50POPC   PO4 1023   8.850   4.473   9.122  0.1721  0.1067 -0.1230
   50POPC   GL1 1024   8.758   4.643   8.752  0.0037 -0.0098 -0.0629
   50POPC   GL2 1025   8.735   4.401   8.498 -0.3215 -0.3763 -0.1857
   50POPC   C1A 1026   8.725   4.966   8.421 -0.1112  0.0129  0.0973
   50POPC   D2A 1027   8.510   5.238   8.049  0.0604 -0.1726  0.0684
   50POPC   C3A 1028   8.529   5.304   7.647  0.0358  0.2163  0.1076
   50POPC   C4A 1029   8.232   5.215   7.278 -0.1723  0.2224 -0.0118
   50POPC   C1B 1030   8.644   4.316   8.038  0.0232 -0.2866  0.1686
   50POPC   C2B 1031   8.407   4.320   7.665 -0.2849  0.1285  0.1427
   50POPC   C3B 1032   8.097   4.377   7.484 -0.0179 -0.0229 -0.2760
   50POPC   C4B 1033   8.124   4.461   7.087  0.1527 -0.1779 -0.1079
   51POPC   NC3 1034   1.729   1.564   8.753  0.0157 -0.2006 -0.1989
   51POPC   PO4 1035   1.711   1.399   8.255 -0.1603 -0.0990 -0.2569
   51POPC   GL1 1036   1.351   1.442   8.018 -0.0787  0.0471 -0.0437
   51POPC   GL2 1037   1.268   1.864   7.779  0.3561 -0.1279  0.1508
   51POPC   C1A 1038   1.249   1.342   7.630  0.0126 -0.3753 -0.0592
   51POPC   D2A 1039   1.072   1.418   7.210  0.0451 -0.0621 -0.1096
   51POPC   C3A 1040   0.823   1.121   7.057  0.2202  0.2942 -0.2124
   51POPC   C4A 1041   0.354   1.231   6.818  0.0272  0.0505  0.0377
   51POPC   C1B 1042   1.057   1.945   7.460  0.0570 -0.1548  0.0345
   51POPC   C2B 1043   0.799   1.808   7.256  0.2316 -0.0279 -0.2973
   51POPC   C3B 1044   0.635   1.589   7.016 -0.2928  0.0494 -0.0975
   51POPC   C4B 1045   0.563   1.649   6.608  0.1837 -0.2521  0.0088
   52POPC   NC3 1046   5.490   0.818   8.847  0.1156  0.0052  0.2996
   52POPC   PO4 1047   5.683   0.662   8.500 -0.2566 -0.0043 -0.2561
   52POPC   GL1 1048   5.708   0.847   8.121 -0.0144 -0.0166 -0.3434
   52POPC   GL2 1049   5.869   1.088   7.928  0.1414 -0.1184 -0.0790
   52POPC   C1A 1050   5.383   0.769   7.749 -0.2028 -0.1295 -0.0081
   52POPC   D2A 1051   5.352   0.902   7.321  0.3442 -0.0696 -0.1151
   52POPC   C3A 1052   5.350   0.738   6.959 -0.6161  0.0319  0.0972
   52POPC   C4A 1053   5.354   0.650   6.628 -0.1948  0.0002 -0.0548
   52POPC   C1B 1054   5.806   0.914   7.510 -0.2969  0.1149  0.1998
   52POPC   C2B 1055   5.804   0.940   7.135  0.2074  0.0771 -0.3408
   52POPC   C3B 1056   5.951   1.132   6.766  0.4167  0.1924 -0.0081
   52POPC   C4B 1057   6.082   1.502   6.496 -0.0722  0.0263 -0.2768
   53POPC   NC3 1058   9.279   6.086   9.207 -0.2042 -0.0611  0.1231
   53POPC   PO4 1059   8.873   5.811   9.214  0.1581  0.1400 -0.4052
   53POPC   GL1 1060   8.908   5.727   8.844 -0.1815  0.3857 -0.0689
   53POPC   GL2 1061   8.723   5.427   8.681 -0.5543  0.0475  0.0176
   53POPC   C1A 1062   8.517   5.844   8.607  0.1816 -0.1241  0.0868
   53POPC   D2A 1063   8.161   6.028   8.363  0.1227  0.1186  0.3616
   53POPC   C3A 1064   7.758   6.008   8.157 -0.0470 -0.0903  0.1755
   53POPC   C4A 1065   7.425   6.213   8.101  0.0697 -0.2602  0.2151
   53POPC   C1B 1066   8.826   5.619   8.321 -0.1128  0.2431 -0.1083
   53POPC   C2B 1067   8.848   5.664   7.866 -0.3015  0.2622 -0.0263
   53POPC   C3B 1068   9.100   5.817   7.448  0.0648 -0.0988 -0.2064
   53POPC   C4B 1069   8.965   6.119   7.047  0.1049  0.1910  0.0268
   54POPC   NC3 1070   1.328   8.495   9.369  0.0408 -0.0962 -0.0707
   54POPC   PO4 1071   1.752   8.323   9.198 -0.0553  0.2842 -0.0108
   54POPC   GL1 1072   1.817   8.349   8.773  0.2231 -0.0530  0.0813
   54POPC   GL2 1073   2.072   8.537   8.661 -0.1717 -0.2331  0.2765
   54POPC   C1A 1074   1.980   8.096   8.413  0.0690  0.2544 -0.1263
   54POPC   D2A 1075   1.973   7.885   8.179 -0.0837  0.4994 -0.0404
   54POPC   C3A 1076   2.298   7.961   7.850 -0.0706  0.2002  0.0209
   54POPC   C4A 1077   2.345   7.825   7.401  0.3696  0.0773 -0.0640
   54POPC   C1B 1078   1.634   8.452   8.322  0.2524 -0.1419 -0.1334
   54POPC   C2B 1079   1.705   8.228   7.917  0.0080 -0.2323  0.2073
   54POPC   C3B 1080   1.967   8.299   7.654  0.0288  0.0592  0.0080
   54POPC   C4B 1081   2.213   8.585   7.401  0.1212 -0.0670  0.3495
   55POPC   NC3 1082   7.106   1.245   8.552  0.2627  0.1011 -0.0684
   55POPC   PO4 1083   7.213   1.595   8.606  0.1434 -0.1901 -0.0763
   55POPC   GL1 1084   7.082   1.412   8.105 -0.1377 -0.1065  0.0115
   55POPC   GL2 1085   6.831   1.142   8.089  0.0866  0.1861 -0.0769
   55POPC   C1A 1086   7.238   1.375   7.677 -0.0496  0.1719  0.1621
   55POPC   D2A 1087   7.266   1.384   7.222  0.1414  0.3810  0.0994
   55POPC   C3A 1088   6.935   1.061   7.002 -0.0885 -0.0338  0.0228
   55POPC   C4A 1089   6.828   0.665   6.969 -0.0006  0.2804  0.0687
   55POPC   C1B 1090   6.781   0.777   7.848  0.0326 -0.1011 -0.2601
   55POPC   C2B 1091   6.755   0.543   7.550 -0.0152 -0.1943 -0.0184
   55POPC   C3B 1092   6.679   0.219   7.268 -0.1175 -0.0168 -0.2386
   55POPC   C4B 1093   6.566  -0.125   7.490  0.0500  0.0866  0.2470
   56POPC   NC3 1094   1.439   9.422   9.039  0.0939 -0.0561 -0.3262
   56POPC   PO4 1095   1.136   9.772   8.803 -0.1921  0.0278  0.2129
   56POPC   GL1 1096   0.969   9.904   8.390  0.0456 -0.0685 -0.1153
   56POPC   GL2 1097   0.645   9.799   8.254 -0.2222 -0.4307  0.0541
   56POPC   C1A 1098   0.940  10.072   7.966  0.0213  0.2169  0.2080
   56POPC   D2A 1099   1.083   9.947   7.576 -0.0644 -0.0328  0.0411
   56POPC   C3A 1100   1.383  10.171   7.353  0.0035  0.0436  0.0780
   56POPC   C4A 1101   1.802  10.349   7.384  0.2277 -0.0081  0.0578
   56POPC   C1B 1102   0.771   9.567   7.834  0.1465 -0.0452 -0.1957
   56POPC   C2B 1103   0.777   9.391   7.409  0.1183 -0.0095  0.1043
   56POPC   C3B 1104   0.743   9.024   7.073 -0.1747 -0.0945  0.0465
   56POPC   C4B 1105   0.981   8.666   6.814  0.0753 -0.0275  0.0331
   57POPC   NC3 1106   3.132   2.634   8.652 -0.1053 -0.0311 -0.2707
   57POPC   PO4 1107   3.444   2.456   8.316  0.0607  0.1068 -0.0024
   57POPC   GL1 1108   3.553   2.500   7.893  0.3668 -0.0600 -0.3736
   57POPC   GL2 1109   3.578   2.842   7.922 -0.1755 -0.1487  0.0364
   57POPC   C1A 1110   3.724   2.227   7.525 -0.0432  0.0242  0.1290
   57POPC   D2A 1111   3.666   2.150   7.061 -0.0566 -0.0899  0.0417
   57POPC   C3A 1112   3.595   1.768   6.869  0.3142  0.2336  0.1462
   57POPC   C4A 1113   3.491   1.320   6.834  0.1283  0.0216 -0.5035
   57POPC   C1B 1114   3.509   3.081   7.604 -0.0247 -0.0260 -0.0580
   57POPC   C2B 1115   3.515   3.222   7.233 -0.3435 -0.0056  0.1885
   57POPC   C3B 1116   3.572   3.159   6.763 -0.2090  0.0153 -0.1885
   57POPC   C4B 1117   3.816   2.942   6.492 -0.1128 -0.2938  0.0817
   58POPC   NC3 1118   1.959   7.922   9.057 -0.0002 -0.1831  0.1324
   58POPC   PO4 1119   1.937   7.467   9.204 -0.0716  0.1115 -0.1409
   58POPC   GL1 1120   2.200   7.055   8.905 -0.0334 -0.1213 -0.4102
   58POPC   GL2 1121   2.070   6.747   8.917  0.0423 -0.0147  0.2979
   58POPC   C1A 1122   2.368   7.095   8.408 -0.0018  0.1730  0.1383
   58POPC   D2A 1123   2.359   6.986   7.931  0.1927  0.1639 -0.0339
   58POPC   C3A 1124   2.098   6.622   7.646  0.1687  0.3064 -0.3003
   58POPC   C4A 1125   1.692   6.411   7.529 -0.1804 -0.0455  0.1914
   58POPC   C1B 1126   2.398   6.626   8.578  0.1426 -0.1442 -0.3445
   58POPC   C2B 1127   2.724   6.782   8.278 -0.1904 -0.1791  0.2453
   58POPC   C3B 1128   2.780   6.763   7.816  0.2457  0.2312 -0.2108
   58POPC   C4B 1129   2.997   6.686   7.362 -0.1658  0.1466 -0.3760
   59POPC   NC3 1130   5.633   7.749   9.122 -0.1583  0.3734 -0.0577
   59POPC   PO4 1131   5.513   7.664   8.784 -0.1335  0.0184 -0.1393
   59POPC   GL1 1132   5.531   7.815   8.386  0.0226 -0.0103  0.0029
   59POPC   GL2 1133   5.704   8.067   8.144  0.0454  0.2734  0.2124
   59POPC   C1A 1134   5.232   7.725   8.036 -0.3547  0.0352  0.0288
   59POPC   D2A 1135   5.072   7.670   7.559 -0.1182 -0.1586 -0.1052
   59POPC   C3A 1136   5.425   7.621   7.262 -0.0196 -0.1885 -0.0235
   59POPC   C4A 1137   5.426   7.308   6.869  0.1459  0.3406 -0.1352
   59POPC   C1B 1138   5.999   8.270   7.847 -0.2684 -0.1175  0.1241
   59POPC   C2B 1139   6.008   8.401   7.394  0.0983  0.1966 -0.0048
   59POPC   C3B 1140   5.785   8.739   7.167 -0.1607  0.0398 -0.1670
   59POPC   C4B 1141   5.588   8.976   6.759  0.0442 -0.0259 -0.2042
   60POPC   NC3 1142   8.284   6.983   9.010  0.1621  0.1330  0.0304
   60POPC   PO4 1143   8.623   6.994   9.068  0.0354 -0.0089 -0.1241
   60POPC   GL1 1144   8.495   7.189   8.641  0.0362  0.1648  0.1739
   60POPC   GL2 1145   8.848   7.195   8.498 -0.0509  0.0436 -0.2267
   60POPC   C1A 1146   8.350   7.277   8.171  0.3921 -0.2088 -0.0490
   60POPC   D2A 1147   8.307   7.182   7.773 -0.1938 -0.0192 -0.0507
   60POPC   C3A 1148   8.497   7.472   7.450 -0.2495  0.0700 -0.1575
   60POPC   C4A 1149   8.913   7.435   7.330 -0.3068  0.3542 -0.0034
   60POPC   C1B 1150   8.888   7.175   8.106 -0.2118 -0.5029  0.1977
   60POPC   C2B 1151   8.897   7.044   7.750 -0.0504 -0.0849  0.3996
   60POPC   C3B 1152   8.887   6.861   7.341  0.0338 -0.3033  0.1782
   60POPC   C4B 1153   9.145   6.623   7.053  0.1697 -0.2378  0.2188
   61POPC   NC3 1154   9.132   2.948   8.752  0.0054 -0.2094  0.0564
   61POPC   PO4 1155   9.067   3.481   8.687  0.1607  0.0274  0.4742
   61POPC   GL1 1156   8.943   3.413   8.277 -0.2054  0.1413  0.3225
   61POPC   GL2 1157   8.840   3.152   8.277  0.1418  0.1186 -0.3988
   61POPC   C1A 1158   8.665   3.328   7.887  0.1581 -0.2716  0.2920
   61POPC   D2A 1159   8.513   3.510   7.436 -0.4374 -0.3816  0.2878
   61POPC   C3A 1160   8.679   3.585   7.039  0.0267  0.1386  0.2611
   61POPC   C4A 1161   8.798   3.919   6.771  0.3121  0.0734 -0.4002
   61POPC   C1B 1162   8.826   2.882   7.909 -0.0976  0.1501 -0.0027
   61POPC   C2B 1163   9.060   2.761   7.504 -0.2089  0.0813  0.0248
   61POPC   C3B 1164   9.282   2.393   7.471  0.1399 -0.0019 -0.1001
   61POPC   C4B 1165   9.611   2.202   7.778  0.0963 -0.3101 -0.0586
   62POPC   NC3 1166   3.393  10.045   9.180 -0.0249 -0.0400 -0.1116
   62POPC   PO4 1167   3.755  10.084   8.753  0.1349 -0.1797  0.0198
   62POPC   GL1 1168   3.738  10.124   8.359 -0.2167 -0.2053 -0.1339
   62POPC   GL2 1169   4.054  10.236   8.299  0.2018 -0.1226 -0.0061
   62POPC   C1A 1170   3.876   9.893   7.925  0.3668 -0.1369 -0.0989
   62POPC   D2A 1171   4.062   9.548   7.772 -0.3374  0.0253 -0.1377
   62POPC   C3A 1172   3.788   9.308   7.450 -0.0884  0.0585  0.0032
   62POPC   C4A 1173   3.767   8.934   7.196  0.0612  0.1900  0.4332
   62POPC   C1B 1174   4.147  10.310   7.925 -0.1693 -0.1017 -0.2018
   62POPC   C2B 1175   4.100  10.274   7.504 -0.0464 -0.4209 -0.0556
   62POPC   C3B 1176   4.140   9.937   7.255  0.1069 -0.2642 -0.1714
   62POPC   C4B 1177   4.216   9.547   7.193  0.0727 -0.1073  0.0799
   63POPC   NC3 1178   1.490   7.373   9.334  0.3759 -0.0253  0.1590
   63POPC   PO4 1179   1.041   7.498   9.402 -0.1679 -0.3690 -0.1489
   63POPC   GL1 1180   1.079   7.472   8.921 -0.3628  0.2590 -0.0122
   63POPC   GL2 1181   1.116   7.799   8.779  0.0124  0.2512 -0.0501
   63POPC   C1A 1182   0.889   7.440   8.508 -0.2789  0.0685  0.1443
   63POPC   D2A 1183   0.877   7.418   8.097 -0.0998  0.1586  0.1739
   63POPC   C3A 1184   0.798   7.495   7.685  0.2485  0.2591  0.2170
   63POPC   C4A 1185   0.442   7.632   7.543 -0.0457 -0.1365 -0.2997
   63POPC   C1B 1186   1.320   7.846   8.365 -0.2821 -0.3567 -0.4455
   63POPC   C2B 1187   1.202   7.779   8.001  0.0047  0.3248  0.0725
   63POPC   C3B 1188   1.349   7.982   7.620 -0.0290 -0.1748  0.1962
   63POPC   C4B 1189   1.436   7.985   7.185 -0.1767 -0.1319  0.1676
   64POPC   NC3 1190   7.266   2.432   9.170  0.0155 -0.1317  0.2989
   64POPC   PO4 1191   7.215   2.395   8.597 -0.0383 -0.3155 -0.2401
   64POPC   GL1 1192   7.417   2.249   8.187  0.3277  0.3076  0.1484
   64POPC   GL2 1193   7.382   1.916   8.139  0.0491  0.0735 -0.0172
   64POPC   C1A 1194   7.613   2.300   7.658  0.1907  0.0663 -0.2332
   64POPC   D2A 1195   7.549   2.192   7.168  0.2637 -0.0331  0.0474
   64POPC   C3A 1196   7.325   1.919   6.899 -0.0274 -0.0927 -0.0498
   64POPC   C4A 1197   7.094   1.590   6.646  0.1270 -0.0766  0.0191
   64POPC   C1B 1198   7.206   1.885   7.677 -0.0630 -0.0909  0.1720
   64POPC   C2B 1199   6.893   1.961   7.326 -0.0307 -0.1043 -0.0690
   64POPC   C3B 1200   6.539   2.001   7.080  0.0140 -0.1526  0.2668
   64POPC   C4B 1201   6.109   1.736   7.010 -0.1358  0.5053 -0.0086
   65POPC   NC3 1202   3.374   1.708   8.756 -0.1917 -0.3476  0.2437
   65POPC   PO4 1203   3.764   1.518   8.523  0.2018  0.0056  0.0776
   65POPC   GL1 1204   3.589   1.264   8.235  0.1735  0.2131  0.0813
   65POPC   GL2 1205   3.939   1.129   8.046 -0.0844  0.0973  0.1489
   65POPC   C1A 1206   3.443   1.410   7.850  0.0810  0.1129  0.1365
   65POPC   D2A 1207   3.407   1.219   7.449 -0.0601  0.3085 -0.1042
   65POPC   C3A 1208   3.009   1.038   7.350  0.0674 -0.0226 -0.0359
   65POPC   C4A 1209   2.697   1.250   7.082  0.2521  0.2936 -0.0802
   65POPC   C1B 1210   3.919   1.484   7.704  0.0358  0.1455 -0.2025
   65POPC   C2B 1211   3.921   1.542   7.248  0.2785  0.0271  0.0085
   65POPC   C3B 1212   4.047   1.416   6.867 -0.0566 -0.0076  0.0770
   65POPC   C4B 1213   3.982   1.223   6.423 -0.3798 -0.0341 -0.0991
   66POPC   NC3 1214   8.693   3.186   8.742  0.2359 -0.0371 -0.0481
   66POPC   PO4 1215   8.244   3.254   8.797 -0.2298  0.0269  0.0176
   66POPC   GL1 1216   8.328   3.164   8.369  0.3075  0.0359  0.0358
   66POPC   GL2 1217   8.036   3.279   8.137 -0.0096 -0.1478  0.0243
   66POPC   C1A 1218   8.348   2.913   7.949 -0.2917  0.1962 -0.3805
   66POPC   D2A 1219   8.373   2.860   7.591  0.1340 -0.3670  0.3005
   66POPC   C3A 1220   8.236   2.822   7.162  0.0781  0.0603  0.2935
   66POPC   C4A 1221   8.457   2.815   6.810  0.0462 -0.1770 -0.0814
   66POPC   C1B 1222   8.184   3.338   7.747  0.1207  0.2061  0.1325
   66POPC   C2B 1223   8.026   3.275   7.312 -0.1657 -0.1586 -0.2303
   66POPC   C3B 1224   8.218   3.246   6.934  0.2139 -0.2392 -0.1013
   66POPC   C4B 1225   8.010   3.010   6.698 -0.2334  0.2138  0.0085
   67POPC   NC3 1226   3.945   4.118   8.270  0.0472  0.1791 -0.0145
   67POPC   PO4 1227   4.381   3.851   8.414 -0.0390  0.0532  0.0708
   67POPC   GL1 1228   4.720   3.739   8.143  0.2247 -0.1160  0.1027
   67POPC   GL2 1229   4.797   4.036   8.034  0.2980  0.4920 -0.1881
   67POPC   C1A 1230   5.012   3.660   7.771  0.0602  0.0505  0.0050
   67POPC   D2A 1231   5.089   3.729   7.249 -0.4091  0.1351 -0.0676
   67POPC   C3A 1232   5.221   3.835   6.841 -0.2225  0.0919  0.2061
   67POPC   C4A 1233   5.193   4.018   6.463  0.2888 -0.3082 -0.2080
   67POPC   C1B 1234   4.860   4.079   7.629 -0.2547 -0.1404 -0.1235
   67POPC   C2B 1235   4.763   4.032   7.180  0.1500  0.2344 -0.3337
   67POPC   C3B 1236   4.705   3.710   6.870 -0.2810  0.1445  0.0852
   67POPC   C4B 1237   4.601   3.374   7.083 -0.3283  0.0424 -0.3256
   68POPC   NC3 1238   5.612   6.274   8.410 -0.0065 -0.2140  0.0970
   68POPC   PO4 1239   5.268   6.027   8.478  0.0555  0.0245  0.0612
   68POPC   GL1 1240   5.131   5.746   8.046 -0.2559 -0.1614 -0.0106
   68POPC   GL2 1241   5.320   5.416   8.151  0.2918  0.0645  0.2509
   68POPC   C1A 1242   5.195   5.796   7.659 -0.1570 -0.1245 -0.0323
   68POPC   D2A 1243   5.418   5.664   7.328 -0.0593 -0.2323 -0.0441
   68POPC   C3A 1244   5.829   5.453   7.220  0.3052 -0.1852 -0.0778
   68POPC   C4A 1245   5.807   5.195   6.902  0.2250  0.2120  0.0390
   68POPC   C1B 1246   5.537   5.467   7.807 -0.0479 -0.4213  0.2836
   68POPC   C2B 1247   5.740   5.829   7.738  0.2182  0.3622  0.0328
   68POPC   C3B 1248   6.110   5.929   7.660 -0.0133  0.4422  0.0022
   68POPC   C4B 1249   6.365   6.204   7.399  0.1328 -0.1125 -0.2127
   69POPC   NC3 1250   5.592   3.560   8.825 -0.2334 -0.2845  0.0317
   69POPC   PO4 1251   5.510   3.564   8.468  0.2303  0.1020  0.1542
   69POPC   GL1 1252   5.543   3.703   8.010 -0.5998  0.3837 -0.0832
   69POPC   GL2 1253   5.425   4.013   7.984  0.0227 -0.0617 -0.4274
   69POPC   C1A 1254   5.451   3.500   7.607 -0.1925  0.1502  0.4904
   69POPC   D2A 1255   5.585   3.694   7.189  0.1774  0.0977 -0.0430
   69POPC   C3A 1256   5.739   3.483   6.796 -0.1620 -0.1957 -0.2851
   69POPC   C4A 1257   5.390   3.415   6.398  0.0757  0.0291 -0.0597
   69POPC   C1B 1258   5.342   4.053   7.582  0.0383  0.2683  0.0829
   69POPC   C2B 1259   5.263   4.223   7.125 -0.4478 -0.0367 -0.1338
   69POPC   C3B 1260   5.461   4.420   6.849  0.0607 -0.3227  0.0911
   69POPC   C4B 1261   5.475   4.375   6.447  0.2535 -0.1547  0.1859
   70POPC   NC3 1262   1.599   6.672   9.275  0.2008  0.1164  0.0738
   70POPC   PO4 1263   1.955   6.985   9.351  0.0393  0.0963 -0.3059
   70POPC   GL1 1264   1.693   7.079   8.981  0.0608 -0.0188  0.0407
   70POPC   GL2 1265   1.801   7.111   8.652 -0.3472 -0.0636 -0.4075
   70POPC   C1A 1266   1.356   7.198   8.667  0.1849  0.2703 -0.0318
   70POPC   D2A 1267   1.421   7.355   8.267 -0.0091  0.1395  0.0684
   70POPC   C3A 1268   1.660   7.561   8.015  0.0778 -0.1249  0.3334
   70POPC   C4A 1269   1.853   7.711   7.644  0.2233  0.1663  0.4124
   70POPC   C1B 1270   1.905   7.142   8.188  0.2705  0.1825 -0.1855
   70POPC   C2B 1271   1.790   7.127   7.743  0.1935 -0.1780 -0.0160
   70POPC   C3B 1272   1.848   6.948   7.308  0.2781  0.0794 -0.0199
   70POPC   C4B 1273   1.784   6.927   6.802 -0.0442 -0.2007 -0.1029
   71POPC   NC3 1274   7.364   7.880   9.045 -0.2410  0.3326 -0.4586
   71POPC   PO4 1275   7.539   8.221   9.053  0.0632 -0.2763 -0.0038
   71POPC   GL1 1276   7.480   8.318   8.677 -0.0113 -0.1679  0.0062
   71POPC   GL2 1277   7.702   8.518   8.640  0.1295  0.1947  0.0343
   71POPC   C1A 1278   7.413   8.117   8.204 -0.0617  0.2223 -0.1062
   71POPC   D2A 1279   7.143   7.908   7.897  0.1008  0.0540  0.2687
   71POPC   C3A 1280   6.930   8.141   7.532  0.1106  0.3761 -0.0500
   71POPC   C4A 1281   6.897   8.491   7.194  0.1125  0.0103  0.1198
   71POPC   C1B 1282   7.562   8.600   8.170 -0.2615 -0.1517 -0.2311
   71POPC   C2B 1283   7.791   8.685   7.712 -0.0440  0.0179  0.0377
   71POPC   C3B 1284   7.727   8.678   7.259 -0.3024  0.0856  0.0112
   71POPC   C4B 1285   7.507   8.550   6.983 -0.0982 -0.2060 -0.3902
   72POPC   NC3 1286   8.570   4.891   9.174  0.1320 -0.2855  0.0228
   72POPC   PO4 1287   8.312   4.610   8.901 -0.5047  0.0332  0.2676
   72POPC   GL1 1288   8.201   4.532   8.368 -0.1755 -0.3488  0.4886
   72POPC   GL2 1289   8.150   4.837   8.232  0.1880  0.2422 -0.2638
   72POPC   C1A 1290   8.176   4.375   8.055  0.3122 -0.1630 -0.3174
   72POPC   D2A 1291   7.966   4.116   7.912  0.0272 -0.2740  0.1509
   72POPC   C3A 1292   8.408   3.801   7.807 -0.1710 -0.0494 -0.0036
   72POPC   C4A 1293   8.869   3.830   7.760  0.0925  0.1598  0.4303
   72POPC   C1B 1294   8.263   4.858   7.758  0.0942  0.1587 -0.2404
   72POPC   C2B 1295   8.463   4.733   7.381 -0.1979  0.2971 -0.1940
   72POPC   C3B 1296   8.544   4.810   6.930  0.2777  0.1008 -0.0775
   72POPC   C4B 1297   8.680   4.736   6.414  0.0017  0.1803 -0.0292
   73POPC   NC3 1298   8.363   6.063   9.287 -0.2186  0.1559  0.2589
   73POPC   PO4 1299   8.332   6.438   9.180  0.0680 -0.0626 -0.1600
   73POPC   GL1 1300   8.385   6.566   8.687 -0.1385 -0.1741  0.2559
   73POPC   GL2 1301   8.627   6.754   8.563  0.0984 -0.0861 -0.1975
   73POPC   C1A 1302   8.349   6.448   8.331  0.2953  0.1138  0.1383
   73POPC   D2A 1303   8.257   6.327   7.943 -0.0546  0.2621 -0.0748
   73POPC   C3A 1304   8.409   5.940   7.840  0.1186  0.1872  0.0218
   73POPC   C4A 1305   8.606   5.749   7.456 -0.1281  0.3182 -0.0661
   73POPC   C1B 1306   8.656   6.728   8.136 -0.0148 -0.1870  0.1421
   73POPC   C2B 1307   8.539   6.687   7.732 -0.1541  0.0854 -0.0768
   73POPC   C3B 1308   8.330   6.906   7.335 -0.0455 -0.1817  0.0053
   73POPC   C4B 1309   8.521   7.207   7.017 -0.2333  0.3466  0.3313
   74POPC   NC3 1310   3.207   6.066   8.743  0.2037 -0.0241  0.0926
   74POPC   PO4 1311   3.574   6.306   8.749 -0.0036 -0.0828 -0.1312
   74POPC   GL1 1312   3.530   6.219   8.367  0.1377 -0.2302  0.2337
   74POPC   GL2 1313   3.532   5.906   8.397  0.1412  0.2412 -0.1678
   74POPC   C1A 1314   3.496   6.300   8.005  0.1239  0.3202  0.0305
   74POPC   D2A 1315   3.363   6.371   7.565 -0.0346 -0.0381 -0.0113
   74POPC   C3A 1316   3.581   6.703   7.566  0.1446 -0.0711  0.1778
   74POPC   C4A 1317   3.764   6.859   7.245  0.1532 -0.0651 -0.0708
   74POPC   C1B 1318   3.413   5.800   7.980  0.2781 -0.0837 -0.1938
   74POPC   C2B 1319   3.417   5.880   7.601  0.0875 -0.3664 -0.2176
   74POPC   C3B 1320   3.360   6.060   7.147  0.1254  0.0242  0.1384
   74POPC   C4B 1321   3.422   6.523   7.083 -0.2144  0.0230 -0.0501
   75POPC   NC3 1322   8.253   8.675   8.753  0.1801 -0.0366  0.0198
   75POPC   PO4 1323   8.048   8.301   8.962  0.0895 -0.0696 -0.0723
   75POPC   GL1 1324   8.138   8.195   8.530 -0.0714 -0.0926 -0.0158
   75POPC   GL2 1325   7.931   8.217   8.328  0.0867  0.1048  0.0654
   75POPC   C1A 1326   8.011   7.780   8.154  0.2793 -0.2617 -0.2648
   75POPC   D2A 1327   8.305   7.643   7.857  0.1331  0.0881  0.1092
   75POPC   C3A 1328   8.817   7.584   7.768 -0.0491  0.0744 -0.4264
   75POPC   C4A 1329   9.083   7.876   7.937 -0.1668  0.1896 -0.0120
   75POPC   C1B 1330   7.894   8.210   7.942  0.1496  0.2666  0.1156
   75POPC   C2B 1331   7.524   8.197   7.720  0.2395 -0.0991  0.2724
   75POPC   C3B 1332   7.408   7.881   7.432 -0.0587  0.3072 -0.2221
   75POPC   C4B 1333   7.065   7.664   7.163  0.2432 -0.0834  0.0580
   76POPC   NC3 1334   3.299   0.017   8.634 -0.0352 -0.1868 -0.0716
   76POPC   PO4 1335   3.302   0.336   8.310 -0.2309 -0.0559 -0.0004
   76POPC   GL1 1336   3.192   0.296   7.989  0.2645 -0.0115 -0.0471
   76POPC   GL2 1337   3.449   0.009   7.960  0.1258  0.1133  0.0862
   76POPC   C1A 1338   3.396   0.330   7.615 -0.2374  0.2747  0.1320
   76POPC   D2A 1339   3.558   0.661   7.290 -0.1176 -0.0348  0.1336
   76POPC   C3A 1340   3.314   0.873   6.932 -0.0948  0.0177 -0.1708
   76POPC   C4A 1341   3.006   1.167   6.694 -0.0862  0.1303 -0.0121
   76POPC   C1B 1342   3.615  -0.117   7.540 -0.0181  0.0061  0.0248
   76POPC   C2B 1343   3.739   0.041   7.186 -0.1428  0.2946 -0.0480
   76POPC   C3B 1344   3.910  -0.005   6.860  0.1237  0.0158  0.0448
   76POPC   C4B 1345   4.112   0.238   6.646  0.1792 -0.3005  0.2844
   77POPC   NC3 1346   8.372   9.754   8.647 -0.0590 -0.0982 -0.2735
   77POPC   PO4 1347   7.975   9.561   8.426 -0.0398  0.1766  0.1405
   77POPC   GL1 1348   8.058   9.390   8.111  0.2506 -0.0513  0.2808
   77POPC   GL2 1349   8.407   9.324   8.168  0.0002 -0.2066 -0.1640
   77POPC   C1A 1350   7.952   9.198   7.741  0.1778  0.0914 -0.0875
   77POPC   D2A 1351   7.953   9.152   7.355 -0.0049  0.1387  0.1973
   77POPC   C3A 1352   7.629   9.355   7.056  0.0611 -0.0925  0.0679
   77POPC   C4A 1353   7.405   9.557   6.748 -0.2506 -0.0113 -0.0700
   77POPC   C1B 1354   8.470   9.110   7.851  0.0150  0.4643  0.1905
   77POPC   C2B 1355   8.524   9.059   7.353 -0.2506  0.0490  0.1375
   77POPC   C3B 1356   8.527   9.288   7.037 -0.5718  0.0625  0.0815
   77POPC   C4B 1357   8.494   9.636   6.651 -0.1243  0.1210  0.0362
   78POPC   NC3 1358   3.980   8.486   9.178 -0.6065 -0.1081 -0.2943
   78POPC   PO4 1359   3.950   8.768   8.851 -0.2305 -0.0012 -0.1428
   78POPC   GL1 1360   3.952   8.780   8.485  0.2901  0.2358  0.0055
   78POPC   GL2 1361   4.124   8.981   8.268  0.1282  0.1690  0.0519
   78POPC   C1A 1362   3.682   8.780   8.106 -0.2790 -0.0808 -0.2619
   78POPC   D2A 1363   3.578   8.909   7.659  0.0614 -0.0041  0.0356
   78POPC   C3A 1364   3.424   8.597   7.383 -0.2478 -0.0769 -0.0891
   78POPC   C4A 1365   3.179   8.372   7.062  0.0852 -0.0800  0.1573
   78POPC   C1B 1366   4.070   8.964   7.800  0.1071  0.0367 -0.0721
   78POPC   C2B 1367   4.236   9.023   7.361 -0.2473 -0.1331  0.0879
   78POPC   C3B 1368   4.695   8.836   7.203  0.1671 -0.0396 -0.2485
   78POPC   C4B 1369   4.778   8.959   6.764  0.2488  0.0794 -0.2355
   79POPC   NC3 1370   7.788   7.949   8.777 -0.0531  0.1877 -0.1825
   79POPC   PO4 1371   7.610   7.530   8.723 -0.1195  0.0506 -0.4858
   79POPC   GL1 1372   7.504   7.582   8.271  0.2112 -0.1441 -0.0110
   79POPC   GL2 1373   7.280   7.411   8.165 -0.0295 -0.0737  0.0149
   79POPC   C1A 1374   7.589   7.692   7.903 -0.1277  0.0724  0.1086
   79POPC   D2A 1375   7.895   7.890   7.572 -0.0262  0.0687 -0.0274
   79POPC   C3A 1376   7.958   8.318   7.476 -0.2074  0.1230 -0.1682
   79POPC   C4A 1377   8.173   8.743   7.484 -0.1435 -0.1276  0.0263
   79POPC   C1B 1378   7.256   7.318   7.772  0.0358 -0.0714  0.2123
   79POPC   C2B 1379   7.343   7.256   7.384  0.2149 -0.0041  0.2750
   79POPC   C3B 1380   7.482   7.180   6.961 -0.1317 -0.1127  0.2702
   79POPC   C4B 1381   7.683   6.750   6.815  0.0827 -0.0320  0.1277
   80POPC   NC3 1382   7.506   9.680   8.699 -0.1135  0.2443  0.1795
   80POPC   PO4 1383   7.712   9.363   8.862 -0.2622  0.1360 -0.0007
   80POPC   GL1 1384   7.630   9.184   8.452  0.3952  0.0873  0.1303
   80POPC   GL2 1385   7.898   8.949   8.573  0.0426 -0.1737 -0.5123
   80POPC   C1A 1386   7.550   9.109   8.081 -0.0074 -0.2106 -0.2444
   80POPC   D2A 1387   7.490   9.073   7.639 -0.0524 -0.1116  0.0667
   80POPC   C3A 1388   7.416   9.531   7.500  0.0931  0.0163  0.1385
   80POPC   C4A 1389   7.694   9.955   7.448 -0.1352 -0.1615  0.0399
   80POPC   C1B 1390   8.104   8.852   8.123 -0.0065  0.1026  0.0082
   80POPC   C2B 1391   8.367   8.533   7.921 -0.0953 -0.1179  0.1305
   80POPC   C3B 1392   8.402   8.113   7.603  0.0001 -0.3037 -0.0114
   80POPC   C4B 1393   8.360   8.203   7.160  0.3345 -0.1056 -0.1710
   81POPC   NC3 1394   7.028   0.263   8.511  0.3223 -0.1073  0.0344
   81POPC   PO4 1395   7.465   0.041   8.623 -0.0930 -0.0432 -0.2771
   81POPC   GL1 1396   7.218  -0.110   8.280 -0.2500 -0.1348  0.0361
   81POPC   GL2 1397   6.957  -0.316   8.375  0.3048 -0.0536 -0.1482
   81POPC   C1A 1398   7.296  -0.149   7.775 -0.2449 -0.0571  0.3292
   81POPC   D2A 1399   7.080   0.095   7.533 -0.0170  0.1849  0.2807
   81POPC   C3A 1400   7.135   0.422   7.272  0.1131  0.1514 -0.0701
   81POPC   C4A 1401   7.326   0.606   6.874 -0.1713  0.1848 -0.1863
   81POPC   C1B 1402   7.266  -0.561   8.130 -0.1331 -0.1996  0.1301
   81POPC   C2B 1403   7.640  -0.473   7.923 -0.3948  0.1931 -0.1016
   81POPC   C3B 1404   8.008  -0.399   7.815  0.2467 -0.0914  0.0888
   81POPC   C4B 1405   8.231  -0.117   7.587  0.3959  0.1375 -0.2280
   82POPC   NC3 1406   6.434   2.187   8.954  0.0563 -0.4015  0.1278
   82POPC   PO4 1407   6.129   2.460   8.673  0.0586  0.2428  0.0909
   82POPC   GL1 1408   6.297   2.514   8.315  0.0491  0.0545 -0.1493
   82POPC   GL2 1409   6.060   2.721   8.095 -0.2292 -0.2683  0.0872
   82POPC   C1A 1410   6.539   2.488   8.043  0.0767  0.1100 -0.0120
   82POPC   D2A 1411   6.941   2.271   7.941 -0.2887  0.1926 -0.1461
   82POPC   C3A 1412   7.115   2.365   7.496 -0.0037  0.1628  0.3453
   82POPC   C4A 1413   7.024   2.369   7.028 -0.2781  0.0094  0.0533
   82POPC   C1B 1414   5.844   2.752   7.786 -0.1584 -0.2204 -0.2369
   82POPC   C2B 1415   5.736   2.996   7.472  0.1317 -0.0758 -0.1410
   82POPC   C3B 1416   5.684   3.076   7.133  0.0862 -0.3725  0.0729
   82POPC   C4B 1417   5.643   3.041   6.568  0.0243  0.3259  0.0765
   83POPC   NC3 1418   4.956   5.019   8.899 -0.2036  0.1162  0.0636
   83POPC   PO4 1419   4.759   5.332   8.633 -0.1586 -0.1252  0.0141
   83POPC   GL1 1420   4.830   5.335   8.237  0.3335 -0.1032 -0.0585
   83POPC   GL2 1421   4.650   5.467   8.106  0.0222  0.0492  0.1384
   83POPC   C1A 1422   5.015   5.329   7.746  0.1921 -0.2094 -0.1321
   83POPC   D2A 1423   5.177   5.176   7.378  0.1844 -0.2586  0.0294
   83POPC   C3A 1424   4.953   5.109   7.022  0.4865 -0.1788 -0.0407
   83POPC   C4A 1425   4.557   5.079   6.788  0.1598  0.1817  0.3511
   83POPC   C1B 1426   4.438   5.842   7.853  0.0295  0.2458  0.1502
   83POPC   C2B 1427   4.143   5.810   7.599 -0.1081 -0.0405 -0.0054
   83POPC   C3B 1428   3.965   5.797   7.235 -0.0653 -0.1338 -0.2583
   83POPC   C4B 1429   3.606   5.611   7.069 -0.3349  0.1344  0.1297
   84POPC   NC3 1430   2.887   0.928   9.315 -0.0662 -0.2589 -0.1379
   84POPC   PO4 1431   3.007   0.873   8.950 -0.1541 -0.0017 -0.3577
   84POPC   GL1 1432   2.759   0.851   8.519  0.0190 -0.1749 -0.0617
   84POPC   GL2 1433   2.926   0.651   8.263 -0.1641 -0.1606 -0.0671
   84POPC   C1A 1434   2.538   1.240   8.249  0.0165  0.1956  0.2943
   84POPC   D2A 1435   2.821   1.537   8.225 -0.2981 -0.3634  0.2054
   84POPC   C3A 1436   2.626   1.863   8.013 -0.2020 -0.0418 -0.1184
   84POPC   C4A 1437   2.356   1.816   7.796  0.0886 -0.3108 -0.1806
   84POPC   C1B 1438   2.834   0.479   7.787  0.1054 -0.0783  0.3469
   84POPC   C2B 1439   2.964   0.553   7.481  0.0082  0.1469 -0.3204
   84POPC   C3B 1440   2.887   0.673   7.065  0.1568 -0.0898 -0.0568
   84POPC   C4B 1441   2.921   0.623   6.642 -0.0045 -0.1469  0.1497
   85POPC   NC3 1442   2.884   8.358   8.816 -0.0526  0.1445  0.0225
   85POPC   PO4 1443   3.050   8.718   8.709  0.0827  0.0825 -0.0168
   85POPC   GL1 1444   3.178   8.846   8.244  0.3108 -0.1600 -0.0501
   85POPC   GL2 1445   3.111   9.110   8.110 -0.3429  0.1990  0.0675
   85POPC   C1A 1446   3.108   8.626   7.803 -0.2894  0.0194 -0.0787
   85POPC   D2A 1447   2.834   8.604   7.445  0.0500  0.1930 -0.1623
   85POPC   C3A 1448   2.613   8.908   7.265 -0.3010  0.0398 -0.0827
   85POPC   C4A 1449   2.170   9.088   7.192  0.2690  0.0185 -0.3301
   85POPC   C1B 1450   2.995   9.120   7.650  0.4007  0.1993 -0.0438
   85POPC   C2B 1451   2.897   9.399   7.274 -0.0198 -0.0716  0.2675
   85POPC   C3B 1452   2.872   9.377   6.874 -0.0441  0.4145 -0.1380
   85POPC   C4B 1453   2.851   9.770   6.733 -0.0873  0.4252  0.2000
   86POPC   NC3 1454   8.216   0.037   8.375 -0.0246  0.3362  0.0820
   86POPC   PO4 1455   8.564   0.080   8.640 -0.3025  0.1284 -0.0045
   86POPC   GL1 1456   8.873   0.156   8.311  0.0613  0.1494  0.2136
   86POPC   GL2 1457   8.909   0.484   8.115  0.1755 -0.3590  0.0045
   86POPC   C1A 1458   8.760   0.084   7.879  0.1161  0.1524 -0.0813
   86POPC   D2A 1459   8.859  -0.115   7.498  0.2899 -0.1653  0.0861
   86POPC   C3A 1460   8.916  -0.501   7.237 -0.0219  0.0763  0.3224
   86POPC   C4A 1461   9.065  -0.697   6.934 -0.0822 -0.2669  0.2010
   86POPC   C1B 1462   8.817   0.532   7.705  0.0170  0.0660  0.1410
   86POPC   C2B 1463   8.880   0.494   7.258 -0.0057 -0.0495  0.0057
   86POPC   C3B 1464   8.905   0.553   6.845  0.0466 -0.0944 -0.3034
   86POPC   C4B 1465   8.790   0.335   6.540 -0.0273 -0.2564 -0.2512
   87POPC   NC3 1466   9.802   4.625   9.336  0.0662  0.1190 -0.2912
   87POPC   PO4 1467  10.086   4.817   8.987 -0.1491  0.0413 -0.2800
   87POPC   GL1 1468  10.129   5.195   8.649 -0.0618 -0.2302 -0.1211
   87POPC   GL2 1469  10.208   5.572   8.765 -0.1933 -0.1366  0.3194
   87POPC   C1A 1470  10.178   5.317   8.244  0.1933 -0.1503  0.0108
   87POPC   D2A 1471  10.097   5.553   7.828 -0.1374 -0.1379  0.2853
   87POPC   C3A 1472   9.759   5.460   7.518  0.0679  0.3355  0.0494
   87POPC   C4A 1473   9.355   5.371   7.289  0.2984 -0.0512 -0.1873
   87POPC   C1B 1474   9.902   5.659   8.458  0.4117 -0.1503  0.0574
   87POPC   C2B 1475   9.729   5.809   7.987  0.4289  0.0612 -0.0585
   87POPC   C3B 1476   9.663   5.942   7.653 -0.0623 -0.1716 -0.0583
   87POPC   C4B 1477   9.522   5.863   7.188  0.1498 -0.0676  0.0986
   88POPC   NC3 1478   2.363   9.227   9.060  0.0034 -0.1954 -0.0689
   88POPC   PO4 1479   1.926   9.281   9.021 -0.1836  0.0511 -0.1358
   88POPC   GL1 1480   1.707   9.222   8.590  0.0686 -0.0642  0.1242
   88POPC   GL2 1481   1.786   9.512   8.311  0.0512  0.5514 -0.0052
   88POPC   C1A 1482   1.748   8.973   8.162 -0.3566  0.0260 -0.1117
   88POPC   D2A 1483   1.866   8.776   7.775  0.0969 -0.1523 -0.1695
   88POPC   C3A 1484   1.797   8.967   7.437 -0.1173 -0.1395  0.1400
   88POPC   C4A 1485   1.709   9.321   7.155  0.1703  0.2369  0.1395
   88POPC   C1B 1486   2.156   9.240   8.247 -0.0801 -0.3518 -0.0694
   88POPC   C2B 1487   2.258   8.833   8.141  0.0000 -0.1843  0.1468
   88POPC   C3B 1488   2.141   8.441   8.116  0.0230  0.0098 -0.1743
   88POPC   C4B 1489   2.492   8.194   8.308  0.1655  0.1335 -0.0309
   89POPC   NC3 1490   2.346   0.338   8.642 -0.1404  0.2193  0.1000
   89POPC   PO4 1491   2.481  -0.096   8.734 -0.1073 -0.1894  0.1633
   89POPC   GL1 1492   2.460   0.023   8.226  0.0032  0.0043 -0.0337
   89POPC   GL2 1493   2.499   0.378   8.121 -0.0270 -0.1104  0.2512
   89POPC   C1A 1494   2.677  -0.000   7.881  0.2033 -0.1889 -0.2014
   89POPC   D2A 1495   3.038  -0.118   7.623 -0.3551  0.0595 -0.0260
   89POPC   C3A 1496   3.254   0.231   7.170  0.1688 -0.0877  0.0015
   89POPC   C4A 1497   3.396   0.431   6.742 -0.0950  0.1479 -0.1073
   89POPC   C1B 1498   2.197   0.208   7.848  0.1778 -0.2549  0.1777
   89POPC   C2B 1499   2.268   0.007   7.407 -0.1198  0.1442 -0.1184
   89POPC   C3B 1500   2.367   0.210   6.973 -0.2978 -0.2627 -0.1188
   89POPC   C4B 1501   2.422   0.699   6.950  0.1807 -0.0603  0.2729
   90POPC   NC3 1502   5.084   1.469   8.507  0.0768  0.2530 -0.3075
   90POPC   PO4 1503   4.809   1.604   8.775  0.3458  0.3154  0.0273
   90POPC   GL1 1504   4.626   1.612   8.322  0.1346  0.0100 -0.1490
   90POPC   GL2 1505   4.758   1.686   8.084 -0.0396  0.0542  0.2022
   90POPC   C1A 1506   4.406   1.304   8.035 -0.3762  0.2149  0.0309
   90POPC   D2A 1507   4.491   1.081   7.576  0.0157 -0.1333 -0.0005
   90POPC   C3A 1508   3.992   1.025   7.348 -0.1732  0.2506 -0.3314
   90POPC   C4A 1509   3.793   0.942   6.859 -0.2721  0.4261  0.2760
   90POPC   C1B 1510   4.972   1.539   7.844  0.0680  0.2938  0.0379
   90POPC   C2B 1511   5.013   1.503   7.364  0.2501  0.0706  0.1506
   90POPC   C3B 1512   5.258   1.362   7.011  0.0141 -0.2377 -0.1344
   90POPC   C4B 1513   5.143   1.110   6.637  0.0239 -0.0522  0.2478
   91POPC   NC3 1514   2.691   9.920   9.345 -0.0156  0.1268  0.1302
   91POPC   PO4 1515   2.705   9.563   8.940  0.0177 -0.1621  0.0330
   91POPC   GL1 1516   2.816   9.640   8.477 -0.0261  0.3532 -0.1343
   91POPC   GL2 1517   2.539   9.652   8.223  0.1608  0.0916 -0.1900
   91POPC   C1A 1518   2.989   9.631   8.012 -0.1436 -0.2287  0.0253
   91POPC   D2A 1519   2.741   9.612   7.743  0.1485 -0.0005  0.0175
   91POPC   C3A 1520   2.467   9.299   7.618  0.1465  0.0479 -0.0608
   91POPC   C4A 1521   2.335   9.015   7.674  0.0318  0.1429 -0.0623
   91POPC   C1B 1522   2.678   9.229   8.109 -0.2844  0.1025  0.0351
   91POPC   C2B 1523   2.715   8.848   7.928 -0.2563  0.1955 -0.1905
   91POPC   C3B 1524   2.559   8.497   7.823 -0.0369 -0.1700 -0.1064
   91POPC   C4B 1525   2.557   8.195   7.531 -0.3460 -0.3174 -0.0599
   92POPC   NC3 1526   4.042   1.105   8.548 -0.0924 -0.1796  0.1978
   92POPC   PO4 1527   3.790   0.929   8.597 -0.2859  0.0666  0.3284
   92POPC   GL1 1528   3.601   0.733   8.180 -0.0235  0.1827 -0.0978
   92POPC   GL2 1529   3.713   0.461   8.020 -0.1746 -0.4588  0.0902
   92POPC   C1A 1530   3.326   0.850   7.860 -0.0086  0.1120  0.0239
   92POPC   D2A 1531   2.893   1.095   7.896  0.0327  0.1919  0.0843
   92POPC   C3A 1532   2.565   1.005   7.527 -0.0207  0.4087  0.1148
   92POPC   C4A 1533   2.208   1.072   7.237 -0.3826 -0.1015  0.1264
   92POPC   C1B 1534   3.903   0.620   7.670 -0.3579 -0.2258  0.1152
   92POPC   C2B 1535   4.007   0.512   7.187  0.0451 -0.0553  0.1493
   92POPC   C3B 1536   4.258   0.640   6.879  0.0933  0.0260  0.0977
   92POPC   C4B 1537   4.267   0.663   6.402  0.1148  0.0671  0.1045
   93POPC   NC3 1538   0.902   6.130   9.138 -0.4663  0.0536  0.0938
   93POPC   PO4 1539   1.428   6.144   9.108  0.0839  0.3306 -0.1558
   93POPC   GL1 1540   1.355   5.957   8.752  0.0973 -0.1259  0.2916
   93POPC   GL2 1541   1.630   5.876   8.673  0.1635  0.1730 -0.2443
   93POPC   C1A 1542   1.321   5.780   8.317  0.0104 -0.0694 -0.1721
   93POPC   D2A 1543   1.594   5.816   7.926  0.0343  0.4314  0.0790
   93POPC   C3A 1544   1.947   5.836   8.124 -0.0585 -0.2487 -0.0057
   93POPC   C4A 1545   2.200   6.200   8.363  0.0269 -0.0321  0.1789
   93POPC   C1B 1546   1.615   6.170   8.413  0.0659  0.0718 -0.0353
   93POPC   C2B 1547   1.764   6.280   8.001 -0.0927  0.1305  0.0448
   93POPC   C3B 1548   2.060   6.082   7.746  0.3584  0.0093 -0.1581
   93POPC   C4B 1549   1.963   5.675   7.618  0.3195  0.0111  0.0583
   94POPC   NC3 1550   7.446   4.987   8.894  0.2873 -0.0497  0.1543
   94POPC   PO4 1551   7.744   5.302   8.858  0.1791 -0.1430 -0.0577
   94POPC   GL1 1552   7.964   5.314   8.450  0.3278  0.1590  0.2576
   94POPC   GL2 1553   8.200   5.482   8.466 -0.1345 -0.3803  0.2484
   94POPC   C1A 1554   7.862   5.125   8.040 -0.1574 -0.1390 -0.2231
   94POPC   D2A 1555   7.486   5.134   7.840  0.1483 -0.2409 -0.3766
   94POPC   C3A 1556   7.575   5.316   7.405  0.2936 -0.2002 -0.1010
   94POPC   C4A 1557   7.347   5.281   7.023 -0.0102  0.2350  0.2782
   94POPC   C1B 1558   8.114   5.571   8.046 -0.1417 -0.2333 -0.2616
   94POPC   C2B 1559   7.796   5.562   7.736 -0.1830  0.1303  0.1684
   94POPC   C3B 1560   7.533   5.796   7.351 -0.1936  0.4041  0.0629
   94POPC   C4B 1561   7.261   6.047   7.546 -0.0914 -0.0453 -0.0810
   95POPC   NC3 1562   2.024  10.021   8.353  0.1160  0.4122 -0.0229
   95POPC   PO4 1563   1.766  10.424   8.516  0.0476  0.0607 -0.3666
   95POPC   GL1 1564   1.693  10.290   8.083  0.1369 -0.2405 -0.0026
   95POPC   GL2 1565   1.325  10.328   7.892  0.1370 -0.1737  0.3164
   95POPC   C1A 1566   1.821  10.001   7.790  0.1369  0.1877  0.0887
   95POPC   D2A 1567   1.815   9.816   7.498 -0.0359 -0.0597 -0.0112
   95POPC   C3A 1568   2.199   9.674   7.321  0.1593  0.3305  0.1614
   95POPC   C4A 1569   2.406   9.537   7.020  0.1968  0.2885 -0.0583
   95POPC   C1B 1570   1.400  10.666   7.509  0.0135 -0.3628 -0.0474
   95POPC   C2B 1571   1.240  10.602   7.078 -0.0435 -0.1086  0.2434
   95POPC   C3B 1572   1.072  10.810   6.755  0.0339  0.0788  0.0064
   95POPC   C4B 1573   0.701  11.016   6.572  0.3156  0.4736  0.1061
   96POPC   NC3 1574   6.184   9.319   8.470  0.2194  0.2060 -0.0007
   96POPC   PO4 1575   5.744   9.470   8.675  0.0314 -0.0666  0.0425
   96POPC   GL1 1576   5.770   9.511   8.292 -0.5561  0.1631  0.0020
   96POPC   GL2 1577   5.979   9.612   8.130  0.1795 -0.2909  0.1942
   96POPC   C1A 1578   5.871   9.097   7.858 -0.2254 -0.1922  0.3449
   96POPC   D2A 1579   5.727   8.694   7.678  0.1425 -0.0811  0.0027
   96POPC   C3A 1580   5.466   8.417   7.436 -0.0864 -0.1375  0.0345
   96POPC   C4A 1581   5.410   8.118   7.117 -0.2626  0.1468  0.0559
   96POPC   C1B 1582   5.799   9.549   7.685 -0.3565  0.1226 -0.2805
   96POPC   C2B 1583   6.002   9.628   7.350 -0.2275  0.1720  0.1402
   96POPC   C3B 1584   6.056   9.676   6.878  0.0499 -0.0614  0.1043
   96POPC   C4B 1585   6.139   9.665   6.433  0.1215  0.0211 -0.0091
   97POPC   NC3 1586   1.127   1.841   8.287  0.0867  0.0118  0.2406
   97POPC   PO4 1587   1.539   1.860   8.310 -0.3831  0.2683  0.2750
   97POPC   GL1 1588   1.758   1.825   7.903 -0.0192 -0.2835  0.2823
   97POPC   GL2 1589   1.956   2.106   7.806 -0.2438  0.0385 -0.5364
   97POPC   C1A 1590   1.697   1.727   7.505 -0.2436 -0.2298  0.0302
   97POPC   D2A 1591   1.636   1.323   7.312  0.2788  0.0470  0.1464
   97POPC   C3A 1592   1.858   1.149   6.900  0.0812 -0.1453 -0.0485
   97POPC   C4A 1593   2.021   0.786   6.722  0.2194 -0.0196  0.1906
   97POPC   C1B 1594   1.954   2.104   7.336 -0.4990  0.3383  0.3282
   97POPC   C2B 1595   2.181   1.874   6.973 -0.1997  0.0811 -0.0074
   97POPC   C3B 1596   2.234   1.460   6.923  0.0281 -0.0456  0.1573
   97POPC   C4B 1597   2.348   1.111   6.763 -0.2598  0.2419 -0.0722
   98POPC   NC3 1598   4.903   6.516   8.978  0.2721 -0.1153  0.2869
   98POPC   PO4 1599   4.910   6.319   8.525 -0.3184 -0.0404 -0.2451
   98POPC   GL1 1600   4.895   6.201   8.100  0.0424  0.0416  0.2707
   98POPC   GL2 1601   5.149   6.243   8.024  0.2340 -0.1141 -0.1492
   98POPC   C1A 1602   4.821   6.125   7.683 -0.1656  0.2962 -0.1348
   98POPC   D2A 1603   4.954   6.327   7.286 -0.0502  0.0133 -0.2191
   98POPC   C3A 1604   4.961   6.066   6.924  0.0547 -0.4804  0.1936
   98POPC   C4A 1605   5.060   6.044   6.440  0.2333 -0.2378  0.1153
   98POPC   C1B 1606   5.429   6.265   7.657  0.0877  0.1886  0.4167
   98POPC   C2B 1607   5.431   6.244   7.159 -0.2457  0.3500  0.0266
   98POPC   C3B 1608   5.431   5.936   6.846 -0.0382  0.0003  0.1546
   98POPC   C4B 1609   5.627   5.913   6.472 -0.1443  0.0409  0.3947
   99POPC   NC3 1610   4.730   8.099   8.817  0.0554 -0.0223  0.4632
   99POPC   PO4 1611   4.622   7.649   8.763 -0.0792 -0.2118  0.0316
   99POPC   GL1 1612   4.747   7.628   8.312 -0.0061  0.0527  0.2185
   99POPC   GL2 1613   4.787   7.960   8.188 -0.1143  0.0239  0.1472
   99POPC   C1A 1614   4.695   7.625   7.823 -0.0856 -0.0830 -0.4449
   99POPC   D2A 1615   4.601   7.845   7.523  0.0176 -0.1130 -0.2634
   99POPC   C3A 1616   4.320   7.679   7.188  0.0962 -0.2432 -0.3750
   99POPC   C4A 1617   4.132   7.489   6.850  0.1272 -0.1273  0.3257
   99POPC   C1B 1618   4.891   8.135   7.870 -0.1202 -0.1919  0.3938
   99POPC   C2B 1619   5.017   8.164   7.495  0.0279  0.1292 -0.1477
   99POPC   C3B 1620   4.979   8.323   7.105  0.1589  0.2777 -0.1499
   99POPC   C4B 1621   4.656   8.485   6.781 -0.1273  0.5094 -0.2086
  100POPC   NC3 1622   4.476   9.459   8.661 -0.2662  0.1036 -0.0117
  100POPC   PO4 1623   4.886   9.812   8.785  0.0718  0.1371 -0.0332
  100POPC   GL1 1624   4.829   9.829   8.342  0.2147 -0.0988 -0.1257
  100POPC   GL2 1625   4.863   9.586   8.163  0.0503  0.1915  0.0072
  100POPC   C1A 1626   4.971  10.088   8.021  0.0840 -0.1397 -0.0825
  100POPC   D2A 1627   5.359  10.352   7.884  0.0278  0.0905  0.0651
  100POPC   C3A 1628   5.582  10.056   7.547 -0.0001 -0.0330 -0.0419
  100POPC   C4A 1629   5.711   9.999   7.130 -0.4233 -0.0027  0.0405
  100POPC   C1B 1630   4.804   9.701   7.742  0.0241  0.0769  0.1783
  100POPC   C2B 1631   4.659   9.833   7.253  0.1715 -0.0578 -0.4378
  100POPC   C3B 1632   4.895   9.983   6.988 -0.0278 -0.1007 -0.0055
  100POPC   C4B 1633   5.005  10.177   6.544  0.3873  0.1907  0.0233
  101POPC   NC3 1634   3.175   3.700   8.867 -0.2896 -0.0484  0.3553
  101POPC   PO4 1635   3.021   3.723   8.610 -0.2418 -0.0643  0.1647
  101POPC   GL1 1636   2.850   3.769   8.087 -0.0643 -0.1436 -0.1381
  101POPC   GL2 1637   2.505   3.593   8.005 -0.1226 -0.0792 -0.1202
  101POPC   C1A 1638   2.895   4.010   7.685 -0.1175  0.0805  0.2566
  101POPC   D2A 1639   2.869   3.802   7.294  0.1298  0.1269  0.0685
  101POPC   C3A 1640   2.994   3.474   7.072 -0.4287 -0.0082  0.3700
  101POPC   C4A 1641   3.101   3.270   6.706 -0.1377  0.2419  0.0398
  101POPC   C1B 1642   2.830   3.426   7.676 -0.3918  0.1600 -0.1082
  101POPC   C2B 1643   3.061   3.126   7.451 -0.4280  0.0823  0.1115
  101POPC   C3B 1644   3.071   2.899   7.117  0.4107 -0.0674  0.0562
  101POPC   C4B 1645   3.244   2.775   6.676 -0.2689  0.3310 -0.2449
  102POPC   NC3 1646   6.561   5.438   8.532  0.2230 -0.3107  0.0630
  102POPC   PO4 1647   6.134   5.507   8.510 -0.0849 -0.1240 -0.0617
  102POPC   GL1 1648   6.176   5.392   8.093  0.4585  0.1206  0.2135
  102POPC   GL2 1649   5.984   5.438   7.787  0.2489  0.3048  0.3364
  102POPC   C1A 1650   6.616   5.505   7.811 -0.3525 -0.0407 -0.0588
  102POPC   D2A 1651   6.652   5.959   7.734  0.0228  0.2375  0.2000
  102POPC   C3A 1652   6.856   6.042   7.243 -0.1119  0.1939 -0.2301
  102POPC   C4A 1653   6.775   6.447   7.119 -0.2549  0.0036 -0.1698
  102POPC   C1B 1654   6.299   5.299   7.450  0.1502  0.0728  0.2622
  102POPC   C2B 1655   6.372   5.752   7.273 -0.2879  0.2062  0.1151
  102POPC   C3B 1656   6.462   5.830   6.882  0.2591  0.1461 -0.0401
  102POPC   C4B 1657   6.611   6.204   6.675 -0.0619  0.1851 -0.1292
  103POPC   NC3 1658   0.218   1.557   8.568  0.2462  0.2701  0.2412
  103POPC   PO4 1659  -0.034   1.115   8.630  0.2263 -0.0329  0.1799
  103POPC   GL1 1660   0.113   0.853   8.262 -0.0622  0.3580  0.3399
  103POPC   GL2 1661   0.488   0.801   8.181  0.1383 -0.0927 -0.2120
  103POPC   C1A 1662   0.103   0.621   7.829 -0.0296  0.1594 -0.0100
  103POPC   D2A 1663   0.181   0.426   7.439 -0.0444 -0.1449  0.1151
  103POPC   C3A 1664   0.123   0.205   7.101 -0.0808 -0.0177 -0.3879
  103POPC   C4A 1665   0.100   0.083   6.662  0.0011  0.0486  0.0473
  103POPC   C1B 1666   0.525   0.885   7.713  0.4430 -0.0744 -0.1834
  103POPC   C2B 1667   0.371   0.944   7.312 -0.0444  0.2399 -0.0170
  103POPC   C3B 1668   0.108   0.817   6.937  0.2723 -0.0173  0.1983
  103POPC   C4B 1669  -0.260   0.480   6.899  0.0204  0.0167 -0.2783
  104POPC   NC3 1670   3.465   3.599   8.333  0.3074 -0.1511 -0.0400
  104POPC   PO4 1671   3.635   3.178   8.335  0.1718 -0.2304 -0.1026
  104POPC   GL1 1672   3.684   3.403   7.970 -0.1502  0.1374  0.3034
  104POPC   GL2 1673   3.681   3.794   7.961  0.0278 -0.0384  0.1517
  104POPC   C1A 1674   3.944   3.454   7.591  0.1547 -0.0102  0.4095
  104POPC   D2A 1675   4.053   3.294   7.100 -0.1190 -0.2430 -0.0842
  104POPC   C3A 1676   4.095   2.843   6.891  0.0534  0.0121 -0.2646
  104POPC   C4A 1677   4.098   2.413   6.968  0.2960 -0.3655 -0.0953
  104POPC   C1B 1678   3.742   3.940   7.529 -0.0542  0.1248  0.0672
  104POPC   C2B 1679   3.456   4.003   7.129 -0.2205  0.1268  0.0421
  104POPC   C3B 1680   3.168   4.113   7.018 -0.1146 -0.0149 -0.2577
  104POPC   C4B 1681   2.969   4.444   6.854  0.1390  0.0590  0.1998
  105POPC   NC3 1682   9.644   7.197   8.722 -0.0155  0.1013  0.0894
  105POPC   PO4 1683   9.961   6.885   8.618  0.1503  0.2117 -0.2071
  105POPC   GL1 1684   9.833   7.116   8.234 -0.1804 -0.0139 -0.1893
  105POPC   GL2 1685  10.000   7.378   8.205  0.1693 -0.4826  0.1147
  105POPC   C1A 1686   9.686   6.966   7.848  0.0667  0.2197 -0.2673
  105POPC   D2A 1687   9.622   6.825   7.435 -0.0477 -0.0803  0.0573
  105POPC   C3A 1688   9.779   7.105   7.051 -0.1053 -0.1055  0.0892
  105POPC   C4A 1689   9.726   7.329   6.753 -0.1214 -0.1697 -0.0011
  105POPC   C1B 1690   9.990   7.324   7.777 -0.2197 -0.3802  0.1868
  105POPC   C2B 1691  10.115   7.422   7.289 -0.2289 -0.1173  0.4440
  105POPC   C3B 1692  10.347   7.456   6.877  0.0202 -0.0237  0.3467
  105POPC   C4B 1693  10.543   7.337   6.529 -0.0740 -0.0555  0.1973
  106POPC   NC3 1694   0.523   4.287   8.612 -0.0711  0.0218 -0.0576
  106POPC   PO4 1695   0.781   4.311   8.178 -0.2219 -0.0383  0.1307
  106POPC   GL1 1696   0.526   4.739   8.225  0.0291  0.0111  0.2071
  106POPC   GL2 1697   0.503   5.035   8.182 -0.3597  0.1206  0.3057
  106POPC   C1A 1698   0.108   4.776   8.304 -0.2960  0.1420 -0.0904
  106POPC   D2A 1699  -0.298   4.747   8.372 -0.0524  0.1801 -0.0536
  106POPC   C3A 1700  -0.506   5.165   8.314  0.0805 -0.1417  0.1483
  106POPC   C4A 1701  -0.780   5.598   8.321 -0.3134 -0.3554  0.2234
  106POPC   C1B 1702   0.272   4.972   7.812  0.0356 -0.0243 -0.2008
  106POPC   C2B 1703  -0.074   5.040   7.634  0.2742 -0.1147  0.1268
  106POPC   C3B 1704  -0.306   4.956   7.270 -0.0660  0.1493 -0.1331
  106POPC   C4B 1705  -0.664   4.863   7.139 -0.2562  0.1188 -0.0277
  107POPC   NC3 1706   7.945   7.243   9.375 -0.1776  0.3839  0.1486
  107POPC   PO4 1707   8.060   7.396   8.955  0.1618  0.0582  0.2851
  107POPC   GL1 1708   7.975   7.244   8.518 -0.3505 -0.1064  0.1187
  107POPC   GL2 1709   8.034   6.898   8.521 -0.0558 -0.3178  0.0440
  107POPC   C1A 1710   7.816   7.221   8.060 -0.3451 -0.0281  0.0691
  107POPC   D2A 1711   7.840   7.207   7.586  0.0644  0.1805 -0.3734
  107POPC   C3A 1712   7.782   7.472   7.271 -0.2056  0.2578  0.0055
  107POPC   C4A 1713   7.863   7.494   6.865 -0.0119  0.0835  0.0297
  107POPC   C1B 1714   8.139   6.790   8.049  0.0988  0.2177  0.0571
  107POPC   C2B 1715   8.043   6.740   7.693 -0.2187 -0.0042 -0.4548
  107POPC   C3B 1716   8.244   6.357   7.484 -0.2332 -0.0667  0.1697
  107POPC   C4B 1717   8.422   6.051   7.174  0.0175  0.1165  0.3530
  108POPC   NC3 1718   4.213   0.336   8.747  0.0905 -0.0751  0.0160
  108POPC   PO4 1719   4.467   0.602   8.650  0.2929  0.1992 -0.5162
  108POPC   GL1 1720   4.719   0.431   8.331  0.4269 -0.1866 -0.3929
  108POPC   GL2 1721   4.583   0.157   8.396 -0.0916 -0.0393 -0.1412
  108POPC   C1A 1722   4.935   0.424   7.968  0.1652 -0.1862 -0.1053
  108POPC   D2A 1723   5.060   0.480   7.519  0.1290 -0.1218 -0.0192
  108POPC   C3A 1724   4.908   0.424   7.075  0.2077  0.0269 -0.3069
  108POPC   C4A 1725   4.627   0.383   6.657 -0.2166  0.0221 -0.0769
  108POPC   C1B 1726   4.439  -0.177   8.114 -0.0417 -0.1698 -0.4752
  108POPC   C2B 1727   4.391  -0.201   7.715 -0.1496 -0.4701  0.2039
  108POPC   C3B 1728   4.669   0.020   7.579  0.1258  0.2895  0.3174
  108POPC   C4B 1729   5.123   0.015   7.428 -0.2442  0.0767 -0.0197
  109POPC   NC3 1730   6.817   3.707   8.793 -0.2118 -0.1420  0.1196
  109POPC   PO4 1731   7.121   3.719   8.524 -0.1625  0.0917  0.1093
  109POPC   GL1 1732   7.273   3.719   8.115  0.2225 -0.0079 -0.0320
  109POPC   GL2 1733   7.542   3.842   8.133  0.1841 -0.2559  0.0375
  109POPC   C1A 1734   7.372   3.667   7.599 -0.1004 -0.0350  0.3216
  109POPC   D2A 1735   7.609   3.702   7.320  0.4318 -0.1090 -0.3437
  109POPC   C3A 1736   7.442   3.884   6.945  0.0757 -0.0380 -0.1593
  109POPC   C4A 1737   7.195   3.892   6.500 -0.2394 -0.0884 -0.0199
  109POPC   C1B 1738   7.802   3.643   7.849 -0.0085 -0.0820 -0.1381
  109POPC   C2B 1739   8.015   3.799   7.551 -0.0782 -0.0370  0.3087
  109POPC   C3B 1740   8.146   3.777   7.143 -0.1388 -0.0549  0.2668
  109POPC   C4B 1741   7.992   4.052   6.881  0.2420  0.4341  0.1063
  110POPC   NC3 1742   9.119   1.452   8.487 -0.0807 -0.2895 -0.4217
  110POPC   PO4 1743   8.664   1.460   8.554  0.3634 -0.0779 -0.3910
  110POPC   GL1 1744   8.549   1.302   8.141  0.1484 -0.0877 -0.0357
  110POPC   GL2 1745   8.821   1.502   8.047 -0.2383  0.1065  0.0320
  110POPC   C1A 1746   8.422   1.329   7.624 -0.1631  0.2986 -0.0207
  110POPC   D2A 1747   8.162   1.438   7.330  0.0439 -0.0029 -0.1990
  110POPC   C3A 1748   7.950   1.105   7.248 -0.0926 -0.0319  0.0242
  110POPC   C4A 1749   7.525   0.916   7.256 -0.0105 -0.2356 -0.2235
  110POPC   C1B 1750   8.898   1.524   7.588 -0.0620 -0.0753  0.2653
  110POPC   C2B 1751   9.067   1.621   7.216 -0.2312  0.0079 -0.0707
  110POPC   C3B 1752   8.920   1.559   6.859 -0.3205  0.2997  0.0863
  110POPC   C4B 1753   8.572   1.530   6.565 -0.0921  0.0660  0.2120
  111POPC   NC3 1754   3.492   8.683   8.871  0.0641  0.0218 -0.2662
  111POPC   PO4 1755   3.359   8.267   8.949 -0.2752 -0.0375  0.0095
  111POPC   GL1 1756   3.198   8.031   8.584 -0.2435  0.0586  0.0048
  111POPC   GL2 1757   2.911   7.875   8.458 -0.3526  0.3227 -0.2804
  111POPC   C1A 1758   3.329   8.053   8.154 -0.0450 -0.1313  0.0320
  111POPC   D2A 1759   3.348   8.094   7.783  0.0400 -0.1315  0.1791
  111POPC   C3A 1760   3.100   8.072   7.504 -0.1505  0.1739 -0.0896
  111POPC   C4A 1761   2.803   7.987   7.150  0.0438 -0.1615 -0.3539
  111POPC   C1B 1762   2.857   7.952   8.033  0.0879 -0.2363  0.1881
  111POPC   C2B 1763   2.778   7.715   7.597 -0.3450  0.1447 -0.0329
  111POPC   C3B 1764   2.870   7.456   7.285  0.1929  0.2151  0.0052
  111POPC   C4B 1765   2.892   7.102   7.163 -0.0444 -0.1636 -0.1331
  112POPC   NC3 1766   0.473   8.207   9.275  0.0397 -0.1781 -0.1698
  112POPC   PO4 1767   0.225   7.869   9.007  0.1220  0.1260 -0.3565
  112POPC   GL1 1768   0.110   8.047   8.629  0.1271  0.2748  0.0526
  112POPC   GL2 1769   0.014   7.888   8.376  0.0185 -0.0407 -0.2340
  112POPC   C1A 1770   0.258   8.280   8.209 -0.1267 -0.2562  0.1163
  112POPC   D2A 1771   0.281   8.446   7.729  0.2285 -0.1838 -0.3746
  112POPC   C3A 1772   0.390   8.200   7.485 -0.1076 -0.0434  0.2043
  112POPC   C4A 1773   0.045   7.917   7.349  0.4815 -0.1437  0.0211
  112POPC   C1B 1774  -0.197   8.125   8.118  0.1701  0.0437  0.0054
  112POPC   C2B 1775  -0.177   8.275   7.670  0.1931 -0.1664  0.0010
  112POPC   C3B 1776  -0.196   8.365   7.218  0.1485  0.0374  0.0666
  112POPC   C4B 1777  -0.041   8.190   6.924 -0.0414 -0.0334  0.0141
  113POPC   NC3 1778   3.099   5.848   9.387 -0.0631 -0.1181 -0.1185
  113POPC   PO4 1779   2.888   5.738   9.027 -0.0170 -0.1324  0.0858
  113POPC   GL1 1780   2.675   5.872   8.497  0.0800 -0.0124 -0.0576
  113POPC   GL2 1781   2.796   6.222   8.515  0.1123  0.1932  0.0068
  113POPC   C1A 1782   2.547   5.948   8.060 -0.1299 -0.2730  0.1907
  113POPC   D2A 1783   2.481   5.881   7.576  0.5128 -0.0956 -0.3017
  113POPC   C3A 1784   2.280   6.187   7.196  0.1297  0.1534  0.0900
  113POPC   C4A 1785   2.033   6.502   7.141  0.2372  0.0280  0.1031
  113POPC   C1B 1786   2.984   6.168   8.042 -0.3606 -0.2711 -0.0831
  113POPC   C2B 1787   2.936   6.122   7.508  0.0922 -0.1450  0.2751
  113POPC   C3B 1788   2.919   6.309   7.040  0.3929 -0.3870 -0.2576
  113POPC   C4B 1789   2.728   6.468   6.616 -0.1774  0.0017  0.1420
  114POPC   NC3 1790   3.197   2.941   8.221  0.0788  0.0023 -0.0325
  114POPC   PO4 1791   2.934   3.304   8.332  0.1414  0.0942  0.0120
  114POPC   GL1 1792   2.831   2.989   7.890  0.1386  0.1876 -0.1551
  114POPC   GL2 1793   3.089   2.758   7.788 -0.2308 -0.1498 -0.1438
  114POPC   C1A 1794   2.689   2.747   7.539 -0.0197 -0.0397  0.3193
  114POPC   D2A 1795   2.695   2.476   7.175  0.4477 -0.0146 -0.0824
  114POPC   C3A 1796   2.817   2.520   6.706 -0.0573 -0.2923 -0.2393
  114POPC   C4A 1797   2.943   2.368   6.250 -0.2400  0.1258 -0.0789
  114POPC   C1B 1798   3.386   2.573   7.432  0.2839  0.1914 -0.1796
  114POPC   C2B 1799   3.558   2.614   7.020 -0.2902 -0.0625  0.3194
  114POPC   C3B 1800   3.653   2.436   6.605  0.1587  0.0080  0.0054
  114POPC   C4B 1801   3.935   2.127   6.580 -0.2295 -0.4054  0.1787
  115POPC   NC3 1802   4.528   2.160   8.185  0.0928 -0.1264 -0.3653
  115POPC   PO4 1803   4.759   2.446   8.345 -0.0946 -0.0483  0.0044
  115POPC   GL1 1804   4.954   2.456   7.963 -0.1904  0.1022  0.3160
  115POPC   GL2 1805   5.020   2.182   7.858  0.0534 -0.0255 -0.2131
  115POPC   C1A 1806   4.763   2.486   7.492 -0.0682 -0.0197 -0.1474
  115POPC   D2A 1807   4.487   2.427   7.286  0.1082 -0.2877 -0.0572
  115POPC   C3A 1808   4.155   2.629   7.528 -0.0056 -0.2965 -0.2018
  115POPC   C4A 1809   3.857   2.900   7.389 -0.2052  0.0558 -0.0697
  115POPC   C1B 1810   5.166   2.226   7.455 -0.1674  0.1496  0.0107
  115POPC   C2B 1811   5.089   2.361   7.120 -0.1014  0.0562 -0.0278
  115POPC   C3B 1812   4.987   2.394   6.713 -0.0786 -0.2084 -0.0859
  115POPC   C4B 1813   4.758   2.593   6.393  0.1330  0.1234  0.0228
  116POPC   NC3 1814   0.389   0.515   8.601  0.0224 -0.2529 -0.3202
  116POPC   PO4 1815  -0.058   0.558   8.619 -0.1306  0.1859 -0.1722
  116POPC   GL1 1816  -0.008   0.344   8.289 -0.0470  0.4326  0.0733
  116POPC   GL2 1817  -0.259   0.202   8.177 -0.1206 -0.1734 -0.1835
  116POPC   C1A 1818   0.218   0.037   8.158  0.0377  0.0015 -0.0959
  116POPC   D2A 1819   0.420  -0.205   7.873 -0.4457  0.2821 -0.0645
  116POPC   C3A 1820   0.563  -0.015   7.447  0.1703 -0.0183 -0.0187
  116POPC   C4A 1821   0.624  -0.004   6.940  0.1631  0.3031 -0.0963
  116POPC   C1B 1822  -0.346   0.222   7.774 -0.0640  0.3005  0.0155
  116POPC   C2B 1823  -0.376   0.151   7.310 -0.0923  0.1239 -0.2153
  116POPC   C3B 1824  -0.165  -0.179   7.004 -0.3463  0.2891 -0.0266
  116POPC   C4B 1825  -0.115  -0.373   6.653  0.1953 -0.0419 -0.0400
  117POPC   NC3 1826   0.841   2.589   8.716  0.3337  0.0386 -0.1550
  117POPC   PO4 1827   1.189   2.874   8.657 -0.3306  0.4161 -0.1458
  117POPC   GL1 1828   1.037   2.724   8.217  0.0739 -0.2513  0.1908
  117POPC   GL2 1829   1.139   2.859   8.053  0.0512  0.1986 -0.2904
  117POPC   C1A 1830   1.033   2.417   7.821 -0.1015 -0.1043 -0.2336
  117POPC   D2A 1831   1.009   2.437   7.381  0.0580 -0.1628 -0.0139
  117POPC   C3A 1832   1.161   2.382   6.998  0.1405 -0.0357  0.1481
  117POPC   C4A 1833   0.945   2.408   6.497  0.3684  0.1154 -0.0878
  117POPC   C1B 1834   1.117   2.913   7.667  0.1917  0.1313  0.0961
  117POPC   C2B 1835   1.173   2.885   7.235 -0.0673 -0.0607 -0.2839
  117POPC   C3B 1836   0.887   2.861   6.832 -0.0747 -0.2378  0.0062
  117POPC   C4B 1837   0.929   3.112   6.562  0.0857  0.1236  0.4870
  118POPC   NC3 1838   5.678   5.311   8.480  0.2064 -0.0023 -0.2035
  118POPC   PO4 1839   5.286   5.044   8.494  0.2967  0.0313  0.0115
  118POPC   GL1 1840   5.200   4.909   8.151 -0.1982 -0.0150  0.1534
  118POPC   GL2 1841   5.368   4.906   7.774  0.3065 -0.1546 -0.0812
  118POPC   C1A 1842   4.898   4.871   7.879 -0.2559 -0.0570 -0.1465
  118POPC   D2A 1843   4.626   4.548   7.816 -0.0881  0.0712  0.0064
  118POPC   C3A 1844   4.598   4.443   7.420  0.0494 -0.1297 -0.1477
  118POPC   C4A 1845   4.779   4.550   7.110  0.1319 -0.2943 -0.0975
  118POPC   C1B 1846   5.770   5.073   7.488  0.0966 -0.0921  0.0354
  118POPC   C2B 1847   6.109   4.859   7.241 -0.3111 -0.0610 -0.1754
  118POPC   C3B 1848   6.210   4.930   6.774  0.0737  0.0257 -0.0312
  118POPC   C4B 1849   6.624   5.031   6.606  0.2000  0.0629  0.0019
  119POPC   NC3 1850   1.050   5.382   9.655  0.0193 -0.1916  0.0460
  119POPC   PO4 1851   0.953   5.268   9.144 -0.0381  0.0487 -0.3887
  119POPC   GL1 1852   0.750   5.621   8.882 -0.0790  0.1401 -0.0427
  119POPC   GL2 1853   0.510   5.823   8.917 -0.0277  0.0133  0.1829
  119POPC   C1A 1854   0.900   5.922   8.548  0.0278 -0.0964 -0.0898
  119POPC   D2A 1855   1.073   6.250   8.435  0.3401  0.1939 -0.0580
  119POPC   C3A 1856   1.335   6.507   8.198 -0.2710 -0.1265  0.0454
  119POPC   C4A 1857   1.538   6.757   8.095  0.1047 -0.2621 -0.2292
  119POPC   C1B 1858   0.456   6.078   8.488  0.2212 -0.2166 -0.1131
  119POPC   C2B 1859   0.731   6.001   8.103 -0.1751  0.3706  0.2966
  119POPC   C3B 1860   0.830   6.095   7.580 -0.2972  0.0975 -0.1568
  119POPC   C4B 1861   0.679   6.466   7.274 -0.2423 -0.3088 -0.0216
  120POPC   NC3 1862   4.677   0.735   9.108  0.0897 -0.1513  0.0339
  120POPC   PO4 1863   4.905   0.980   8.727  0.1982 -0.2907 -0.1056
  120POPC   GL1 1864   4.557   1.023   8.436  0.0468 -0.0218 -0.2173
  120POPC   GL2 1865   4.824   1.125   8.170 -0.3237 -0.3294 -0.3680
  120POPC   C1A 1866   4.486   0.831   8.017 -0.0031  0.1672  0.2995
  120POPC   D2A 1867   4.480   0.477   7.761  0.1950 -0.3393  0.1364
  120POPC   C3A 1868   4.479   0.430   7.321  0.1788 -0.0911  0.1820
  120POPC   C4A 1869   4.469   0.133   7.015 -0.2082  0.2482 -0.3665
  120POPC   C1B 1870   4.925   0.967   7.797 -0.2252 -0.0010 -0.2918
  120POPC   C2B 1871   4.887   0.904   7.274 -0.1793  0.1301  0.0147
  120POPC   C3B 1872   4.842   0.839   6.832  0.1579  0.1552  0.1217
  120POPC   C4B 1873   4.759   0.947   6.359  0.0143 -0.0329  0.1153
  121POPC   NC3 1874   3.744   7.229   8.653 -0.2569 -0.2457  0.3776
  121POPC   PO4 1875   4.074   6.998   8.506  0.0864 -0.0472 -0.1810
  121POPC   GL1 1876   4.093   7.225   8.180  0.1261  0.2185  0.1101
  121POPC   GL2 1877   3.747   7.182   8.118  0.3533  0.1476 -0.1436
  121POPC   C1A 1878   4.289   7.611   8.162 -0.4339  0.1492 -0.0950
  121POPC   D2A 1879   4.262   8.054   7.916  0.0950  0.4127  0.2608
  121POPC   C3A 1880   4.102   8.025   7.481 -0.0298  0.1944  0.0730
  121POPC   C4A 1881   4.026   8.087   7.047  0.2052  0.0121  0.1736
  121POPC   C1B 1882   3.796   7.183   7.671  0.1040 -0.1569  0.3358
  121POPC   C2B 1883   3.787   7.391   7.189  0.1761  0.1427  0.3478
  121POPC   C3B 1884   3.657   7.715   6.868  0.3464 -0.1229  0.0781
  121POPC   C4B 1885   3.520   8.079   6.799 -0.0044 -0.0267 -0.2141
  122POPC   NC3 1886   9.876   1.783   9.066  0.0911  0.0114  0.2049
  122POPC   PO4 1887   9.879   1.682   8.623  0.2632  0.0775  0.2931
  122POPC   GL1 1888   9.786   1.756   8.223 -0.2673  0.1332  0.0355
  122POPC   GL2 1889   9.382   1.766   8.197 -0.1338 -0.0508  0.1114
  122POPC   C1A 1890   9.947   1.667   7.881 -0.0198  0.4072 -0.2224
  122POPC   D2A 1891   9.838   1.698   7.441 -0.0827  0.1063  0.1243
  122POPC   C3A 1892   9.897   2.013   7.394  0.1585 -0.4711  0.0822
  122POPC   C4A 1893   9.762   2.360   7.096 -0.0501 -0.1543  0.1054
  122POPC   C1B 1894   9.452   1.721   7.760 -0.1757 -0.2480 -0.0944
  122POPC   C2B 1895   9.362   1.953   7.395 -0.3755  0.2782  0.3879
  122POPC   C3B 1896   9.236   2.273   6.984 -0.1485 -0.3174 -0.0620
  122POPC   C4B 1897   9.163   2.424   6.663 -0.0460 -0.3449  0.3953
  123POPC   NC3 1898   5.731   2.524   8.406  0.1581 -0.1363 -0.1056
  123POPC   PO4 1899   5.307   2.468   8.335  0.0300  0.0188 -0.1041
  123POPC   GL1 1900   5.475   2.527   8.005 -0.1995  0.0808  0.1095
  123POPC   GL2 1901   5.595   2.156   8.011  0.4849 -0.0654 -0.1350
  123POPC   C1A 1902   5.358   2.607   7.629  0.0089 -0.0627 -0.1232
  123POPC   D2A 1903   5.549   2.569   7.217  0.0022  0.0608 -0.3567
  123POPC   C3A 1904   5.308   2.811   6.924 -0.2091  0.1725  0.1102
  123POPC   C4A 1905   5.148   2.929   6.503  0.1511 -0.0675  0.1335
  123POPC   C1B 1906   5.677   2.246   7.600 -0.1035 -0.0857  0.4480
  123POPC   C2B 1907   5.815   2.161   7.182  0.0856  0.1918 -0.2737
  123POPC   C3B 1908   6.171   2.382   7.053  0.0876 -0.2611  0.1751
  123POPC   C4B 1909   6.255   2.433   6.602  0.0101 -0.0937 -0.1096
  124POPC   NC3 1910   0.705   7.726   9.127  0.4064  0.1476  0.2473
  124POPC   PO4 1911   0.934   8.095   9.207 -0.0906  0.0913 -0.0555
  124POPC   GL1 1912   0.655   8.076   8.756  0.4349  0.1421 -0.0164
  124POPC   GL2 1913   0.613   7.799   8.667  0.1906  0.0895 -0.1152
  124POPC   C1A 1914   0.864   7.982   8.303  0.0418 -0.2104 -0.1485
  124POPC   D2A 1915   0.731   7.949   7.906  0.0043  0.1940  0.0028
  124POPC   C3A 1916   0.841   7.944   7.543 -0.0164  0.0417  0.2020
  124POPC   C4A 1917   0.959   7.594   7.217 -0.0443 -0.2711  0.0786
  124POPC   C1B 1918   0.471   7.655   8.273  0.1069 -0.0021 -0.0027
  124POPC   C2B 1919   0.343   7.440   7.944 -0.1805  0.2368 -0.0183
  124POPC   C3B 1920   0.164   6.956   7.932 -0.0764  0.1416 -0.1728
  124POPC   C4B 1921   0.162   6.553   8.263  0.1110  0.2143 -0.1682
  125POPC   NC3 1922   1.093   1.165   8.461 -0.1032 -0.0475  0.0088
  125POPC   PO4 1923   0.726   1.482   8.567 -0.0656 -0.1375  0.0782
  125POPC   GL1 1924   0.559   1.340   8.255 -0.2581  0.0686 -0.0107
  125POPC   GL2 1925   0.775   1.249   7.961 -0.0883  0.2349 -0.4149
  125POPC   C1A 1926   0.246   1.323   7.934 -0.1825 -0.2646  0.2824
  125POPC   D2A 1927  -0.147   1.184   7.772 -0.0516 -0.3650  0.2296
  125POPC   C3A 1928  -0.184   1.129   7.296  0.2105 -0.0573 -0.0742
  125POPC   C4A 1929  -0.435   0.978   7.003 -0.5224 -0.0346  0.0908
  125POPC   C1B 1930   0.643   1.337   7.539 -0.0568 -0.1910  0.2374
  125POPC   C2B 1931   0.234   1.430   7.370  0.0106 -0.1615  0.5648
  125POPC   C3B 1932  -0.062   1.505   7.000 -0.1437  0.0793 -0.0965
  125POPC   C4B 1933  -0.348   1.873   6.966  0.4986  0.3427  0.0304
  126POPC   NC3 1934   2.517   1.126   9.006  0.3876 -0.3537  0.3462
  126POPC   PO4 1935   2.352   0.841   8.763  0.2006 -0.0814 -0.1257
  126POPC   GL1 1936   2.211   0.720   8.351 -0.2940  0.0098 -0.2402
  126POPC   GL2 1937   1.995   0.548   8.199 -0.1683 -0.0523 -0.0947
  126POPC   C1A 1938   2.347   0.767   7.919  0.0311 -0.1965  0.1509
  126POPC   D2A 1939   2.314   0.495   7.494  0.0409 -0.0944  0.2793
  126POPC   C3A 1940   2.675   0.223   7.313 -0.0341  0.1339  0.2819
  126POPC   C4A 1941   2.666  -0.246   7.333 -0.4016  0.2067  0.1168
  126POPC   C1B 1942   1.889   0.592   7.750 -0.1529  0.2823  0.0408
  126POPC   C2B 1943   1.899   0.726   7.379  0.1502 -0.0268 -0.1086
  126POPC   C3B 1944   1.649   0.656   6.984  0.2625 -0.2130 -0.0381
  126POPC   C4B 1945   1.496   0.582   6.537 -0.1050  0.4183 -0.1178
  127POPC   NC3 1946   5.017   7.291   8.578  0.1056 -0.3799 -0.0905
  127POPC   PO4 1947   5.161   6.874   8.736  0.2205  0.0748  0.0052
  127POPC   GL1 1948   5.126   6.833   8.293  0.1324 -0.3206 -0.3122
  127POPC   GL2 1949   5.435   6.714   8.169 -0.4039  0.1731  0.1808
  127POPC   C1A 1950   4.919   6.678   7.891 -0.0525 -0.0259 -0.1700
  127POPC   D2A 1951   4.651   6.826   7.451  0.2776 -0.0352 -0.1525
  127POPC   C3A 1952   4.700   6.708   6.967 -0.0056 -0.4547  0.0373
  127POPC   C4A 1953   4.791   6.436   6.589 -0.0343 -0.0255 -0.5283
  127POPC   C1B 1954   5.513   6.762   7.701  0.0310 -0.3096  0.3039
  127POPC   C2B 1955   5.204   6.679   7.371  0.0525 -0.0916 -0.0775
  127POPC   C3B 1956   5.187   6.705   6.831  0.0557  0.1169  0.2046
  127POPC   C4B 1957   4.954   7.026   6.601 -0.1885 -0.1930  0.1230
  128POPC   NC3 1958   3.242   6.666   8.773 -0.0309 -0.0172 -0.1952
  128POPC   PO4 1959   3.288   7.055   8.772 -0.2746 -0.4649 -0.0027
  128POPC   GL1 1960   3.136   6.981   8.379  0.2882 -0.2536  0.2234
  128POPC   GL2 1961   3.196   6.659   8.283  0.1692 -0.1630 -0.0855
  128POPC   C1A 1962   2.890   7.287   8.000  0.0749  0.0227  0.5164
  128POPC   D2A 1963   2.622   7.252   7.661  0.1723  0.1868 -0.3526
  128POPC   C3A 1964   2.488   6.835   7.395 -0.1366 -0.1403 -0.2438
  128POPC   C4A 1965   2.464   6.781   7.003  0.0198  0.0445 -0.1864
  128POPC   C1B 1966   3.338   6.900   7.937 -0.1949  0.1179 -0.2247
  128POPC   C2B 1967   3.203   7.124   7.579  0.0844 -0.0135 -0.3437
  128POPC   C3B 1968   3.375   7.122   7.187  0.3410  0.1951 -0.1722
  128POPC   C4B 1969   3.343   7.225   6.786 -0.1398  0.1149 -0.4533
  129POPC   NC3 1970   4.298   5.226   8.395 -0.0189 -0.0206  0.1077
  129POPC   PO4 1971   4.496   4.795   8.308 -0.0627 -0.2111 -0.2749
  129POPC   GL1 1972   4.254   4.813   7.952  0.1467  0.1810 -0.0457
  129POPC   GL2 1973   4.421   5.110   7.840 -0.2198  0.0216  0.1765
  129POPC   C1A 1974   4.074   4.877   7.563 -0.1311  0.3238 -0.0625
  129POPC   D2A 1975   3.944   4.820   7.139 -0.0956 -0.0381 -0.0893
  129POPC   C3A 1976   4.182   4.689   6.723  0.1142  0.1006  0.0007
  129POPC   C4A 1977   4.512   4.614   6.521  0.1265 -0.1803  0.2938
  129POPC   C1B 1978   4.472   5.399   7.531 -0.4133 -0.0464  0.0345
  129POPC   C2B 1979   4.810   5.755   7.360  0.2391  0.0308 -0.2557
  129POPC   C3B 1980   5.018   5.610   7.073  0.0276 -0.0838 -0.0053
  129POPC   C4B 1981   5.355   5.377   6.871  0.4703 -0.1475  0.2448
  130POPC   NC3 1982   1.784   2.812   8.717  0.1994 -0.2735  0.1801
  130POPC   PO4 1983   1.581   2.757   8.315  0.0634  0.0628  0.0797
  130POPC   GL1 1984   1.789   2.606   7.922  0.2462 -0.4925 -0.0267
  130POPC   GL2 1985   1.462   2.652   7.710 -0.2053  0.0649  0.1201
  130POPC   C1A 1986   2.112   2.561   7.589  0.0314 -0.4009  0.3255
  130POPC   D2A 1987   2.415   2.304   7.603 -0.0200  0.2572  0.0853
  130POPC   C3A 1988   2.524   2.041   7.235 -0.1783 -0.2541 -0.1990
  130POPC   C4A 1989   2.670   2.041   6.866  0.2734  0.1294 -0.0933
  130POPC   C1B 1990   1.516   2.240   7.558  0.0735  0.0100  0.1482
  130POPC   C2B 1991   1.483   1.954   7.141  0.4070 -0.2994  0.1388
  130POPC   C3B 1992   1.522   1.553   6.934 -0.2772 -0.1024 -0.0164
  130POPC   C4B 1993   1.424   1.438   6.410  0.0263  0.2944 -0.0846
  131POPC   NC3 1994   9.322   3.841   8.944 -0.0658  0.1974  0.0266
  131POPC   PO4 1995   9.538   3.550   8.750 -0.2648 -0.2259  0.1552
  131POPC   GL1 1996   9.426   3.269   8.389 -0.2082 -0.3460  0.0818
  131POPC   GL2 1997   9.606   2.900   8.311  0.1692 -0.2122  0.0358
  131POPC   C1A 1998   9.236   3.029   8.020 -0.3185 -0.1916 -0.0138
  131POPC   D2A 1999   9.260   2.546   7.976  0.2307 -0.0657 -0.1399
  131POPC   C3A 2000   9.132   2.114   7.846 -0.0493 -0.3486 -0.3836
  131POPC   C4A 2001   8.682   1.911   7.680  0.2717  0.0909 -0.0922
  131POPC   C1B 2002   9.708   3.215   7.987 -0.0933 -0.4000 -0.2071
  131POPC   C2B 2003   9.933   3.181   7.630 -0.1782 -0.2487 -0.0299
  131POPC   C3B 2004  10.157   2.880   7.286 -0.3462 -0.1562  0.2313
  131POPC   C4B 2005  10.261   2.486   7.143 -0.2198 -0.0700  0.1640
  132POPC   NC3 2006   0.539   8.876   8.977 -0.3876  0.1892 -0.0650
  132POPC   PO4 2007   0.804   8.554   9.004 -0.3160  0.3980 -0.0111
  132POPC   GL1 2008   0.882   8.447   8.492 -0.3346 -0.2806  0.1562
  132POPC   GL2 2009   1.176   8.393   8.475 -0.0372  0.0571 -0.2416
  132POPC   C1A 2010   0.684   8.482   8.131  0.0568  0.0251  0.1017
  132POPC   D2A 2011   0.674   8.712   7.812  0.1633  0.2356  0.2017
  132POPC   C3A 2012   0.670   8.585   7.386  0.0228 -0.0526 -0.1245
  132POPC   C4A 2013   0.645   8.345   7.033  0.0963 -0.3956 -0.0180
  132POPC   C1B 2014   1.201   8.280   8.060  0.3240 -0.1472 -0.0076
  132POPC   C2B 2015   1.017   8.402   7.692 -0.0496 -0.0903  0.0645
  132POPC   C3B 2016   1.069   8.340   7.317  0.0847 -0.0556  0.2371
  132POPC   C4B 2017   1.031   8.029   6.908  0.2373 -0.0580 -0.0490
  133POPC   NC3 2018   7.374   6.058   8.811 -0.3340 -0.2298 -0.1390
  133POPC   PO4 2019   7.425   6.420   8.971  0.1670  0.1478 -0.1481
  133POPC   GL1 2020   7.426   6.668   8.572  0.2591  0.4325  0.2143
  133POPC   GL2 2021   7.461   6.987   8.379  0.0225 -0.0057 -0.2155
  133POPC   C1A 2022   7.700   6.606   8.209  0.2359 -0.0758  0.1980
  133POPC   D2A 2023   7.692   6.336   7.672  0.0562 -0.0114 -0.1068
  133POPC   C3A 2024   7.940   5.981   7.642 -0.0849 -0.1382 -0.0707
  133POPC   C4A 2025   8.112   5.736   7.414 -0.0054  0.4886  0.2595
  133POPC   C1B 2026   7.441   6.854   7.916 -0.1317 -0.3272  0.3773
  133POPC   C2B 2027   7.555   6.818   7.442  0.4313  0.1406  0.2019
  133POPC   C3B 2028   7.841   6.585   7.260 -0.0859  0.0121 -0.1285
  133POPC   C4B 2029   7.846   6.078   7.138  0.1957  0.0716  0.1402
  134POPC   NC3 2030   6.162   3.036   8.477  0.0277  0.0569  0.0314
  134POPC   PO4 2031   5.948   3.298   8.472  0.5279 -0.2260  0.1076
  134POPC   GL1 2032   5.872   3.158   8.117 -0.1657 -0.3895 -0.1021
  134POPC   GL2 2033   5.524   3.171   8.043 -0.0004  0.0647  0.1615
  134POPC   C1A 2034   6.178   3.103   7.681 -0.2946  0.0210 -0.0656
  134POPC   D2A 2035   6.503   3.475   7.463 -0.1361 -0.0675 -0.0316
  134POPC   C3A 2036   6.605   3.613   7.123  0.1237  0.2705 -0.1653
  134POPC   C4A 2037   6.813   3.758   6.874  0.0766 -0.1539 -0.0650
  134POPC   C1B 2038   5.285   3.083   7.664  0.3735  0.1363  0.0463
  134POPC   C2B 2039   5.212   3.137   7.302 -0.2993 -0.1036 -0.0816
  134POPC   C3B 2040   5.211   3.342   6.905 -0.1188 -0.1840  0.1266
  134POPC   C4B 2041   4.908   3.356   6.514 -0.0936  0.2342  0.3164
  135POPC   NC3 2042   7.421   8.934   8.803  0.1140 -0.1626 -0.0175
  135POPC   PO4 2043   7.014   8.825   8.742  0.1441  0.1448  0.0586
  135POPC   GL1 2044   7.036   8.565   8.339  0.3679 -0.1243 -0.0793
  135POPC   GL2 2045   6.921   8.239   8.386  0.0660 -0.1199  0.2184
  135POPC   C1A 2046   7.129   8.575   7.869 -0.1414  0.0988 -0.1265
  135POPC   D2A 2047   7.241   8.619   7.448 -0.0646 -0.0338  0.1464
  135POPC   C3A 2048   7.155   8.986   7.214 -0.3296 -0.0158 -0.1071
  135POPC   C4A 2049   7.098   9.345   7.092  0.0664 -0.1041 -0.0865
  135POPC   C1B 2050   6.683   8.301   8.000  0.0676 -0.1521  0.1693
  135POPC   C2B 2051   6.493   8.417   7.591  0.0324 -0.2938 -0.0979
  135POPC   C3B 2052   6.437   8.154   7.257  0.2822 -0.1151  0.1741
  135POPC   C4B 2053   6.677   7.919   7.009  0.2226  0.1244  0.0570
  136POPC   NC3 2054   8.968   6.623   8.861  0.0690 -0.2527  0.0830
  136POPC   PO4 2055   9.503   6.669   8.834 -0.0163 -0.0025 -0.1481
  136POPC   GL1 2056   9.474   6.781   8.504  0.1089  0.2495 -0.0212
  136POPC   GL2 2057   9.127   6.700   8.422  0.0468  0.0046  0.1172
  136POPC   C1A 2058   9.644   6.594   8.149  0.0165  0.0958 -0.1763
  136POPC   D2A 2059   9.653   6.363   7.956  0.1283  0.1007 -0.0367
  136POPC   C3A 2060   9.978   6.568   7.650  0.2209 -0.0823  0.1592
  136POPC   C4A 2061  10.062   6.948   7.421  0.0808 -0.1599  0.1779
  136POPC   C1B 2062   9.115   6.634   7.972 -0.1016 -0.0356 -0.0640
  136POPC   C2B 2063   9.268   6.312   7.692 -0.0964  0.1564 -0.3010
  136POPC   C3B 2064   9.555   6.340   7.305 -0.0422  0.1892  0.2716
  136POPC   C4B 2065   9.820   6.516   7.101  0.0373 -0.1130 -0.2749
  137POPC   NC3 2066   9.911   8.467   8.734 -0.0325 -0.0846 -0.2095
  137POPC   PO4 2067   9.548   8.599   8.486 -0.2832 -0.0739 -0.0211
  137POPC   GL1 2068   9.611   8.841   8.112  0.0459  0.1117 -0.1547
  137POPC   GL2 2069   9.720   8.705   7.874  0.1042  0.0041  0.3195
  137POPC   C1A 2070   9.283   8.873   7.702 -0.3810 -0.1971  0.0267
  137POPC   D2A 2071   9.239   8.527   7.343 -0.1033  0.1951  0.1346
  137POPC   C3A 2072   8.953   8.374   7.026 -0.1785  0.2180  0.2694
  137POPC   C4A 2073   8.861   8.435   6.710  0.2297  0.0348  0.2030
  137POPC   C1B 2074   9.733   8.782   7.395  0.2212  0.2519 -0.1919
  137POPC   C2B 2075   9.840   8.800   6.956 -0.1069 -0.0584 -0.2623
  137POPC   C3B 2076  10.142   8.786   6.619 -0.0874 -0.3386 -0.3234
  137POPC   C4B 2077  10.619   8.673   6.673 -0.0464  0.2692 -0.2867
  138POPC   NC3 2078   7.417   4.541   8.744  0.1869 -0.2522  0.1915
  138POPC   PO4 2079   7.016   4.761   8.773  0.1159  0.1336  0.0754
  138POPC   GL1 2080   6.803   4.930   8.445 -0.1389  0.1605  0.0594
  138POPC   GL2 2081   7.014   5.230   8.502  0.0854 -0.1660  0.2655
  138POPC   C1A 2082   6.558   5.037   8.040 -0.1450  0.3216 -0.0526
  138POPC   D2A 2083   6.254   4.877   7.730 -0.0312 -0.3177  0.0347
  138POPC   C3A 2084   6.168   4.415   7.641  0.2636 -0.3761  0.0164
  138POPC   C4A 2085   6.263   3.997   7.569  0.0433  0.1223 -0.0237
  138POPC   C1B 2086   7.086   5.215   8.081 -0.0595 -0.0265  0.3395
  138POPC   C2B 2087   6.907   5.006   7.700 -0.2572 -0.2483 -0.1735
  138POPC   C3B 2088   6.625   4.744   7.317  0.0652 -0.2101 -0.3534
  138POPC   C4B 2089   6.611   4.596   6.967  0.2166  0.4576  0.1013
  139POPC   NC3 2090   6.588   8.498   8.679  0.1951 -0.0288 -0.1232
  139POPC   PO4 2091   6.129   8.613   8.672 -0.0011 -0.1054  0.0366
  139POPC   GL1 2092   6.342   8.800   8.269  0.0278 -0.6696 -0.0291
  139POPC   GL2 2093   6.628   8.868   8.230  0.0525  0.2369  0.0550
  139POPC   C1A 2094   6.208   8.744   7.825 -0.1793  0.0559  0.0440
  139POPC   D2A 2095   6.165   8.882   7.485  0.0894  0.0556  0.4203
  139POPC   C3A 2096   6.301   8.623   7.053 -0.1238 -0.0238  0.2184
  139POPC   C4A 2097   6.618   8.403   6.780 -0.0516  0.1297 -0.2331
  139POPC   C1B 2098   6.683   8.857   7.729 -0.1884 -0.2242  0.0532
  139POPC   C2B 2099   6.631   9.115   7.374  0.0875  0.0625  0.0699
  139POPC   C3B 2100   6.669   8.902   6.958  0.0515  0.0452 -0.0956
  139POPC   C4B 2101   6.639   8.858   6.534  0.1797  0.0359  0.1146
  140POPC   NC3 2102   0.701   7.014   9.420 -0.1603 -0.2455  0.0443
  140POPC   PO4 2103   0.757   6.695   9.216  0.3094 -0.2636  0.1597
  140POPC   GL1 2104   0.949   6.679   8.824  0.3160 -0.0693 -0.1300
  140POPC   GL2 2105   1.279   6.557   8.838 -0.0134  0.1691 -0.1965
  140POPC   C1A 2106   1.076   6.819   8.441  0.1172 -0.2231 -0.3074
  140POPC   D2A 2107   1.106   6.993   8.074  0.1255 -0.2436 -0.0797
  140POPC   C3A 2108   1.284   7.298   7.800 -0.2131 -0.0208  0.2320
  140POPC   C4A 2109   1.411   7.517   7.451  0.1887 -0.1204 -0.1883
  140POPC   C1B 2110   1.694   6.639   8.579  0.0901 -0.1557  0.1665
  140POPC   C2B 2111   1.986   6.615   8.237 -0.2049  0.0651 -0.1211
  140POPC   C3B 2112   2.421   6.486   8.048 -0.4215  0.0101 -0.1033
  140POPC   C4B 2113   2.475   6.350   7.693  0.2575 -0.2204 -0.3251
  141POPC   NC3 2114   6.574   9.718   8.874 -0.1329 -0.1370 -0.1330
  141POPC   PO4 2115   6.663   9.415   8.576  0.2741  0.0180  0.0562
  141POPC   GL1 2116   6.504   9.620   8.168  0.0034 -0.0833 -0.0062
  141POPC   GL2 2117   6.562   9.325   8.039 -0.0289  0.1012  0.0121
  141POPC   C1A 2118   6.281   9.882   7.846  0.1569 -0.2184 -0.2831
  141POPC   D2A 2119   6.062  10.099   7.542 -0.3911 -0.2111  0.2865
  141POPC   C3A 2120   6.233  10.084   7.100 -0.1156 -0.1839 -0.3958
  141POPC   C4A 2121   6.394  10.000   6.748 -0.3721  0.0369 -0.0100
  141POPC   C1B 2122   6.365   9.417   7.613 -0.0551 -0.0617 -0.2842
  141POPC   C2B 2123   6.486   9.595   7.228  0.1297 -0.1562 -0.2606
  141POPC   C3B 2124   6.746   9.793   7.003  0.0138 -0.2218 -0.4310
  141POPC   C4B 2125   7.250   9.807   7.123 -0.0002 -0.0536  0.3758
  142POPC   NC3 2126   1.043   4.727   8.133 -0.1138  0.0494  0.0613
  142POPC   PO4 2127   1.321   4.767   8.371 -0.0292  0.2735 -0.1056
  142POPC   GL1 2128   1.275   5.237   8.123  0.1208 -0.0687  0.4155
  142POPC   GL2 2129   1.482   5.345   7.804 -0.3071  0.3400 -0.0671
  142POPC   C1A 2130   0.916   5.490   8.238  0.2861 -0.2346 -0.1583
  142POPC   D2A 2131   0.454   5.629   8.426  0.2010  0.0030  0.0178
  142POPC   C3A 2132   0.162   5.794   8.197  0.3038  0.1802 -0.2245
  142POPC   C4A 2133   0.009   6.185   7.950 -0.1223  0.1281 -0.0431
  142POPC   C1B 2134   1.503   5.490   7.464 -0.1226 -0.0410 -0.4654
  142POPC   C2B 2135   1.407   5.876   7.371  0.0948 -0.1120 -0.0084
  142POPC   C3B 2136   1.273   6.329   7.272 -0.2860  0.2244 -0.1298
  142POPC   C4B 2137   1.171   6.659   7.197 -0.0189 -0.0291 -0.0294
  143POPC   NC3 2138   3.658   2.000   8.392 -0.2326 -0.2281 -0.0606
  143POPC   PO4 2139   4.112   1.930   8.488  0.0693 -0.0053 -0.0783
  143POPC   GL1 2140   3.985   1.695   8.115 -0.3484 -0.1325  0.3046
  143POPC   GL2 2141   3.630   1.898   7.947  0.0921 -0.1751 -0.1086
  143POPC   C1A 2142   4.357   1.668   7.699 -0.0015  0.0992 -0.0638
  143POPC   D2A 2143   4.433   1.539   7.282 -0.2999  0.1226 -0.1501
  143POPC   C3A 2144   4.496   1.172   7.043  0.0201 -0.0532  0.3166
  143POPC   C4A 2145   4.399   1.155   6.631 -0.1250  0.0966  0.1147
  143POPC   C1B 2146   3.525   1.810   7.468  0.2518 -0.0668 -0.0851
  143POPC   C2B 2147   3.240   1.855   7.297  0.2479 -0.0325  0.2175
  143POPC   C3B 2148   3.058   1.560   7.034 -0.0212  0.1389  0.0328
  143POPC   C4B 2149   2.688   1.559   6.720  0.2511 -0.0017 -0.2286
  144POPC   NC3 2150   5.516   7.170   8.733  0.0694 -0.1366 -0.1485
  144POPC   PO4 2151   5.674   6.803   8.605  0.2446 -0.0626  0.0577
  144POPC   GL1 2152   5.838   7.016   8.250  0.1334  0.2251  0.2406
  144POPC   GL2 2153   5.596   7.322   8.218  0.0859 -0.0587  0.1656
  144POPC   C1A 2154   6.022   6.924   7.813  0.0477  0.0072  0.0234
  144POPC   D2A 2155   5.950   6.988   7.488 -0.2738 -0.3521  0.2424
  144POPC   C3A 2156   5.443   7.115   7.377 -0.0496  0.0685 -0.0461
  144POPC   C4A 2157   5.039   7.076   7.130  0.0464 -0.0164 -0.0574
  144POPC   C1B 2158   5.338   7.182   7.990  0.0392 -0.5253 -0.2300
  144POPC   C2B 2159   5.004   7.198   7.651 -0.2426 -0.1249 -0.2402
  144POPC   C3B 2160   4.705   7.380   7.345  0.4239  0.2335  0.3502
  144POPC   C4B 2161   4.246   7.109   7.299  0.2927 -0.1030 -0.0724
  145POPC   NC3 2162   4.326   5.905   9.054 -0.1810  0.2324  0.3233
  145POPC   PO4 2163   4.377   5.711   8.575  0.2311  0.0919  0.1036
  145POPC   GL1 2164   4.170   5.689   8.203  0.1368 -0.0987 -0.1815
  145POPC   GL2 2165   3.968   5.915   8.103 -0.2907  0.0119  0.1019
  145POPC   C1A 2166   3.918   5.440   7.853  0.1448  0.0366 -0.3392
  145POPC   D2A 2167   3.900   5.326   7.470  0.0250  0.0012 -0.1422
  145POPC   C3A 2168   4.086   5.305   7.144 -0.0594  0.1239  0.0580
  145POPC   C4A 2169   4.452   5.605   6.954 -0.0691 -0.1229 -0.0297
  145POPC   C1B 2170   3.970   6.234   7.741  0.0240  0.0741 -0.0503
  145POPC   C2B 2171   3.815   6.282   7.289  0.2076 -0.0857 -0.0046
  145POPC   C3B 2172   3.786   6.223   6.884  0.2300  0.3504  0.0474
  145POPC   C4B 2173   3.780   6.123   6.472  0.1700  0.0044  0.0105
  146POPC   NC3 2174   6.184   0.262   8.635 -0.2733  0.1648  0.0698
  146POPC   PO4 2175   6.563   0.030   8.677 -0.2334  0.0460 -0.1790
  146POPC   GL1 2176   6.616   0.004   8.245 -0.1296 -0.0819 -0.2988
  146POPC   GL2 2177   6.478   0.128   8.157  0.1205 -0.2542  0.1595
  146POPC   C1A 2178   6.827  -0.172   7.904 -0.1649 -0.3532  0.2223
  146POPC   D2A 2179   6.932  -0.435   7.506 -0.1603  0.0604  0.1520
  146POPC   C3A 2180   6.941  -0.839   7.642 -0.1641 -0.2909 -0.1896
  146POPC   C4A 2181   7.040  -1.063   8.035 -0.1757 -0.0855 -0.0547
  146POPC   C1B 2182   6.420   0.346   7.789  0.1872  0.2563  0.0785
  146POPC   C2B 2183   6.233   0.463   7.428  0.1790 -0.2369  0.1550
  146POPC   C3B 2184   6.033   0.410   7.008  0.0303  0.2008 -0.2570
  146POPC   C4B 2185   5.927   0.644   6.613 -0.1373  0.0181 -0.0397
  147POPC   NC3 2186   7.644   3.522   8.453  0.1417 -0.3493  0.0458
  147POPC   PO4 2187   7.671   3.175   8.513  0.0988  0.0423 -0.2198
  147POPC   GL1 2188   7.498   3.280   8.059 -0.1076 -0.2790 -0.0239
  147POPC   GL2 2189   7.195   3.074   8.040 -0.1752  0.0559 -0.5529
  147POPC   C1A 2190   7.553   3.182   7.648 -0.1554  0.2613 -0.4222
  147POPC   D2A 2191   7.562   3.172   7.173  0.4534 -0.0264 -0.1858
  147POPC   C3A 2192   7.756   3.428   6.924  0.1090 -0.0383 -0.0340
  147POPC   C4A 2193   7.653   3.598   6.542  0.1327  0.0266 -0.0584
  147POPC   C1B 2194   6.910   2.810   7.826 -0.3852 -0.0484  0.0307
  147POPC   C2B 2195   6.676   2.840   7.591  0.0483  0.0158 -0.1366
  147POPC   C3B 2196   6.641   2.619   7.206  0.0608  0.0705  0.0193
  147POPC   C4B 2197   6.549   2.795   6.851 -0.0534  0.2701 -0.0928
  148POPC   NC3 2198   6.045   6.080   8.583 -0.2380  0.2381 -0.1325
  148POPC   PO4 2199   6.047   6.507   8.663 -0.2570 -0.2297  0.1705
  148POPC   GL1 2200   6.053   6.547   8.133 -0.0235  0.0254  0.1584
  148POPC   GL2 2201   6.324   6.375   7.909 -0.1841  0.0687  0.0281
  148POPC   C1A 2202   5.859   6.400   7.794  0.3378 -0.4023 -0.2916
  148POPC   D2A 2203   5.847   6.393   7.365  0.0152  0.0522  0.0838
  148POPC   C3A 2204   6.084   6.635   7.113 -0.3880  0.2186 -0.3036
  148POPC   C4A 2205   6.293   6.560   6.682  0.2307  0.1234  0.1571
  148POPC   C1B 2206   6.416   6.756   7.550  0.2210  0.5369 -0.0908
  148POPC   C2B 2207   6.550   6.871   7.151 -0.0761 -0.4474 -0.2991
  148POPC   C3B 2208   6.462   7.198   6.780 -0.0848  0.2278  0.0051
  148POPC   C4B 2209   6.509   7.513   6.541  0.2537 -0.1922  0.1412
  149POPC   NC3 2210   7.695   0.786   8.435 -0.1736 -0.0552  0.1606
  149POPC   PO4 2211   7.922   0.363   8.608 -0.1607  0.0741  0.3084
  149POPC   GL1 2212   8.059   0.562   8.199  0.0233  0.3173  0.1857
  149POPC   GL2 2213   8.410   0.524   8.217 -0.0564  0.0675 -0.0129
  149POPC   C1A 2214   7.902   0.212   7.851  0.0461  0.0293 -0.1370
  149POPC   D2A 2215   7.659   0.384   7.504  0.1808  0.3783  0.1896
  149POPC   C3A 2216   7.311   0.604   7.675  0.1562  0.1452  0.1876
  149POPC   C4A 2217   7.023   0.975   7.497 -0.0395  0.2231 -0.2039
  149POPC   C1B 2218   8.369   0.389   7.844  0.0473 -0.3084  0.0424
  149POPC   C2B 2219   8.392   0.321   7.435  0.2121  0.0778  0.3287
  149POPC   C3B 2220   8.491   0.245   7.053 -0.0562  0.4217 -0.0437
  149POPC   C4B 2221   8.817  -0.065   6.944  0.0189  0.1917  0.0876
  150POPC   NC3 2222   1.192   9.364   4.398 -0.1841  0.0354 -0.1346
  150POPC   PO4 2223   0.865   9.290   4.797 -0.0284 -0.1657  0.1586
  150POPC   GL1 2224   0.604   9.443   5.185  0.0271  0.0564 -0.1571
  150POPC   GL2 2225   0.451   9.832   5.186 -0.3455 -0.1104  0.3138
  150POPC   C1A 2226   0.598   9.574   5.614 -0.0729 -0.1345  0.2900
  150POPC   D2A 2227   0.600   9.466   6.085 -0.2066  0.1413 -0.1583
  150POPC   C3A 2228   1.026   9.553   6.281  0.3486 -0.0904  0.1500
  150POPC   C4A 2229   1.267   9.677   6.645  0.1006 -0.1290 -0.3260
  150POPC   C1B 2230   0.494  10.082   5.582  0.2583  0.0240 -0.0011
  150POPC   C2B 2231   0.564  10.494   5.792  0.0594  0.0015  0.4675
  150POPC   C3B 2232   0.347  10.782   6.042  0.1102  0.0385 -0.3007
  150POPC   C4B 2233   0.081  10.675   6.501 -0.1969 -0.0118 -0.2040
  151POPC   NC3 2234   6.542   2.964   4.808  0.0399  0.0722  0.2516
  151POPC   PO4 2235   6.217   2.752   4.808  0.0355  0.1835  0.2344
  151POPC   GL1 2236   6.189   2.440   5.116 -0.0872 -0.1687  0.0418
  151POPC   GL2 2237   6.008   2.211   5.297  0.0116 -0.2734  0.1180
  151POPC   C1A 2238   6.092   2.628   5.580 -0.2434 -0.2383  0.1989
  151POPC   D2A 2239   6.197   2.487   5.987 -0.0058  0.1412  0.0454
  151POPC   C3A 2240   6.632   2.784   5.828 -0.0922  0.0583  0.0390
  151POPC   C4A 2241   6.783   3.029   5.732 -0.3260  0.0190 -0.0313
  151POPC   C1B 2242   6.176   2.059   5.588  0.4986  0.1308  0.2499
  151POPC   C2B 2243   6.445   1.933   5.946 -0.1265 -0.1336  0.0373
  151POPC   C3B 2244   6.746   2.250   6.096 -0.0555  0.3478  0.0719
  151POPC   C4B 2245   6.656   2.595   6.279  0.2176  0.1300  0.2545
  152POPC   NC3 2246   8.504   1.350   4.840 -0.2757 -0.1111 -0.2327
  152POPC   PO4 2247   8.586   1.649   4.483 -0.1619  0.1321  0.2274
  152POPC   GL1 2248   8.742   1.764   4.859 -0.0977 -0.0398  0.1316
  152POPC   GL2 2249   8.965   1.788   5.106 -0.0674  0.1669 -0.4433
  152POPC   C1A 2250   8.577   1.967   5.295 -0.0393  0.1750 -0.0725
  152POPC   D2A 2251   8.564   1.893   5.720 -0.0774 -0.0857  0.6195
  152POPC   C3A 2252   8.441   2.215   6.047  0.0181  0.1939 -0.2604
  152POPC   C4A 2253   8.499   2.449   6.417  0.3762 -0.0155 -0.2009
  152POPC   C1B 2254   9.405   1.974   5.285  0.1010  0.1306 -0.1566
  152POPC   C2B 2255   9.669   2.339   5.360  0.0359 -0.2853 -0.3037
  152POPC   C3B 2256   9.955   2.407   5.617 -0.1681  0.0711  0.3265
  152POPC   C4B 2257  10.122   2.715   5.801 -0.1076 -0.1821 -0.1344
  153POPC   NC3 2258   5.988   3.463   4.457  0.0898  0.3085  0.1128
  153POPC   PO4 2259   5.541   3.576   4.312 -0.0811 -0.0061  0.0950
  153POPC   GL1 2260   5.466   3.687   4.708 -0.3099 -0.1141 -0.0400
  153POPC   GL2 2261   5.453   4.045   4.802  0.2925 -0.1232  0.0710
  153POPC   C1A 2262   5.497   3.479   5.118  0.0402  0.1881 -0.2189
  153POPC   D2A 2263   5.367   3.017   5.369  0.2615 -0.0466  0.1742
  153POPC   C3A 2264   5.664   2.926   5.792 -0.0473  0.0667  0.2135
  153POPC   C4A 2265   5.875   2.866   6.174 -0.1212  0.4137  0.1169
  153POPC   C1B 2266   5.355   4.009   5.242 -0.1137 -0.5156 -0.1693
  153POPC   C2B 2267   5.403   4.039   5.623 -0.1287 -0.1067  0.2936
  153POPC   C3B 2268   5.505   4.025   6.039 -0.5581  0.0421  0.2111
  153POPC   C4B 2269   5.781   3.787   6.323  0.1574 -0.0646  0.2127
  154POPC   NC3 2270   5.709   6.246   4.631 -0.1792  0.1122 -0.0800
  154POPC   PO4 2271   5.815   6.592   4.857 -0.2116 -0.1759  0.0101
  154POPC   GL1 2272   5.928   6.575   5.174 -0.0548  0.1730 -0.3121
  154POPC   GL2 2273   5.625   6.617   5.394  0.0371 -0.3003  0.1743
  154POPC   C1A 2274   6.021   6.522   5.644 -0.0825 -0.2537 -0.1577
  154POPC   D2A 2275   6.176   6.557   6.044  0.0009 -0.1509 -0.4736
  154POPC   C3A 2276   5.884   6.241   6.109 -0.2528 -0.1357 -0.2585
  154POPC   C4A 2277   5.372   6.013   6.006 -0.0508 -0.4221 -0.1000
  154POPC   C1B 2278   5.597   6.609   5.862 -0.3921 -0.0270 -0.2400
  154POPC   C2B 2279   5.726   6.751   6.195 -0.2698  0.2166  0.1390
  154POPC   C3B 2280   5.793   6.827   6.692  0.0624 -0.1723 -0.0243
  154POPC   C4B 2281   5.652   6.788   7.044 -0.0611  0.2650 -0.1130
  155POPC   NC3 2282   8.551   9.896   4.425 -0.3415  0.1585  0.0053
  155POPC   PO4 2283   8.418   9.616   4.592  0.1501 -0.0402  0.0416
  155POPC   GL1 2284   8.521   9.806   4.982  0.0320  0.0270 -0.2334
  155POPC   GL2 2285   8.827   9.790   5.230 -0.0809  0.0422 -0.0494
  155POPC   C1A 2286   8.352  10.011   5.349 -0.0060  0.2242  0.1217
  155POPC   D2A 2287   8.212  10.508   5.510 -0.0098 -0.1943  0.0207
  155POPC   C3A 2288   7.779  10.584   5.483  0.1060 -0.3042  0.0307
  155POPC   C4A 2289   7.415  10.979   5.538 -0.1402  0.0309 -0.0165
  155POPC   C1B 2290   8.743   9.910   5.681 -0.1378  0.0734 -0.0845
  155POPC   C2B 2291   8.723   9.825   6.077  0.1340  0.0592 -0.0685
  155POPC   C3B 2292   9.034   9.635   6.428  0.1092 -0.0360  0.1540
  155POPC   C4B 2293   9.108   9.188   6.501 -0.3316  0.0539 -0.5142
  156POPC   NC3 2294   1.493   1.662   4.285  0.1759 -0.5394  0.3094
  156POPC   PO4 2295   1.351   1.903   3.900 -0.0557 -0.2235  0.0355
  156POPC   GL1 2296   1.270   2.352   4.090  0.0329 -0.2997 -0.4184
  156POPC   GL2 2297   1.544   2.636   4.160  0.2495  0.2288 -0.1125
  156POPC   C1A 2298   1.022   2.584   4.352 -0.0704 -0.1290 -0.1142
  156POPC   D2A 2299   0.653   2.688   4.404 -0.1615  0.0519 -0.1961
  156POPC   C3A 2300   0.776   3.168   4.389  0.0349  0.0687 -0.2779
  156POPC   C4A 2301   0.787   3.518   4.712 -0.1806 -0.1740 -0.1460
  156POPC   C1B 2302   1.462   2.572   4.594 -0.0738 -0.0791 -0.0398
  156POPC   C2B 2303   1.065   2.750   4.862  0.0920 -0.0936 -0.1389
  156POPC   C3B 2304   1.003   3.118   5.057 -0.1268  0.0189  0.2348
  156POPC   C4B 2305   1.075   3.232   5.454  0.0261 -0.2165  0.1995
  157POPC   NC3 2306  10.126   2.646   3.640  0.2400 -0.2147 -0.1175
  157POPC   PO4 2307   9.811   2.966   3.320  0.0459  0.1739 -0.1643
  157POPC   GL1 2308   9.866   3.093   3.790 -0.2219  0.0333  0.2311
  157POPC   GL2 2309  10.088   3.119   4.074 -0.1800 -0.0974  0.2115
  157POPC   C1A 2310   9.685   3.429   3.979 -0.1219  0.0238  0.1046
  157POPC   D2A 2311   9.550   3.843   4.074 -0.0674 -0.0544  0.1711
  157POPC   C3A 2312   9.522   3.960   4.508  0.0637  0.2609  0.3508
  157POPC   C4A 2313   9.703   4.231   4.757  0.1775  0.2202  0.1159
  157POPC   C1B 2314   9.961   3.283   4.486  0.1372 -0.3190  0.0974
  157POPC   C2B 2315   9.892   3.221   4.917 -0.0215 -0.2687  0.0690
  157POPC   C3B 2316   9.779   3.192   5.221  0.0964 -0.1598 -0.0490
  157POPC   C4B 2317   9.620   2.785   5.170  0.0243 -0.0978 -0.0717
  158POPC   NC3 2318   8.786   6.441   4.614 -0.1470  0.3874 -0.0852
  158POPC   PO4 2319   8.292   6.576   4.637  0.0196 -0.0457  0.0241
  158POPC   GL1 2320   8.410   6.380   5.083 -0.1132 -0.4179  0.0952
  158POPC   GL2 2321   8.147   6.144   5.167 -0.1531  0.1651 -0.2349
  158POPC   C1A 2322   8.576   6.071   5.387  0.0293 -0.1254  0.0256
  158POPC   D2A 2323   8.903   5.978   5.757  0.0847 -0.1190 -0.0955
  158POPC   C3A 2324   8.770   5.637   6.042 -0.1688  0.3086 -0.1586
  158POPC   C4A 2325   8.549   5.252   6.272  0.0711 -0.0578  0.0892
  158POPC   C1B 2326   8.140   6.240   5.543 -0.0551  0.1871  0.3179
  158POPC   C2B 2327   8.360   6.112   5.872 -0.0960  0.3491 -0.0010
  158POPC   C3B 2328   8.527   6.109   6.259 -0.0086 -0.0448 -0.1139
  158POPC   C4B 2329   8.768   6.245   6.630  0.0854  0.0724  0.1285
  159POPC   NC3 2330   9.735   8.704   5.201  0.2160  0.0595 -0.2026
  159POPC   PO4 2331  10.106   8.643   4.941 -0.2645 -0.3351  0.1439
  159POPC   GL1 2332  10.216   8.404   5.394 -0.0901  0.0005 -0.1739
  159POPC   GL2 2333  10.410   8.154   5.362  0.2440  0.0919 -0.0378
  159POPC   C1A 2334   9.998   8.517   5.792 -0.0080  0.2651 -0.1851
  159POPC   D2A 2335  10.058   8.492   6.198  0.1002  0.2229  0.0584
  159POPC   C3A 2336   9.815   8.274   6.515  0.2683  0.2122  0.2232
  159POPC   C4A 2337   9.653   7.881   6.579 -0.0052  0.7164  0.2884
  159POPC   C1B 2338  10.817   8.056   5.379 -0.0741 -0.0744 -0.0594
  159POPC   C2B 2339  11.181   7.852   5.633  0.2694  0.1938 -0.0565
  159POPC   C3B 2340  11.474   7.877   5.972  0.2231 -0.0306  0.3734
  159POPC   C4B 2341  11.366   7.618   6.245 -0.0254 -0.0378 -0.0682
  160POPC   NC3 2342   2.235   2.122   4.251 -0.3203 -0.0705 -0.1825
  160POPC   PO4 2343   2.073   1.747   4.494  0.0757 -0.3524  0.1893
  160POPC   GL1 2344   2.226   1.768   4.906  0.0789  0.0876  0.2384
  160POPC   GL2 2345   2.262   1.385   4.953 -0.2666 -0.2709  0.1679
  160POPC   C1A 2346   2.315   1.969   5.205 -0.1520  0.0237  0.0571
  160POPC   D2A 2347   2.243   1.910   5.570  0.1500 -0.4586 -0.1481
  160POPC   C3A 2348   1.982   1.921   6.005  0.0199  0.2819  0.0001
  160POPC   C4A 2349   1.643   1.858   6.207 -0.3192  0.0512 -0.4368
  160POPC   C1B 2350   2.024   1.550   5.268 -0.1559  0.2112 -0.0824
  160POPC   C2B 2351   2.109   1.473   5.717  0.1016 -0.1022  0.0321
  160POPC   C3B 2352   1.936   1.254   6.105 -0.1087 -0.1857 -0.0615
  160POPC   C4B 2353   1.684   0.994   6.366  0.0857 -0.0623  0.0917
  161POPC   NC3 2354   4.351   8.353   4.612 -0.1779  0.2048 -0.1375
  161POPC   PO4 2355   4.541   8.478   5.023 -0.3192 -0.0920 -0.0962
  161POPC   GL1 2356   4.484   8.598   5.451 -0.0653  0.2067  0.0914
  161POPC   GL2 2357   4.740   8.577   5.559 -0.1923  0.0934  0.2963
  161POPC   C1A 2358   4.364   8.573   5.924 -0.0967  0.1920 -0.0719
  161POPC   D2A 2359   4.465   8.671   6.359 -0.1733 -0.1743 -0.1463
  161POPC   C3A 2360   4.299   8.947   6.565  0.2808 -0.0314 -0.1048
  161POPC   C4A 2361   4.235   9.142   6.829 -0.0501 -0.1490 -0.3534
  161POPC   C1B 2362   4.849   8.707   5.980  0.1157 -0.0639 -0.2065
  161POPC   C2B 2363   4.960   8.795   6.358 -0.0089  0.4984 -0.1394
  161POPC   C3B 2364   5.203   8.610   6.670 -0.0558  0.0220 -0.0485
  161POPC   C4B 2365   5.614   8.463   6.742  0.1531  0.1387  0.2593
  162POPC   NC3 2366   9.027   0.518   5.052 -0.0608 -0.0542 -0.1507
  162POPC   PO4 2367   9.438   0.852   5.018 -0.1440  0.2881 -0.2185
  162POPC   GL1 2368   9.461   1.056   5.359  0.1598 -0.3232  0.5084
  162POPC   GL2 2369   9.446   1.456   5.258  0.1547  0.0472  0.0854
  162POPC   C1A 2370   9.138   1.121   5.589  0.0163  0.1474 -0.0472
  162POPC   D2A 2371   8.818   1.002   6.004 -0.4153  0.0320 -0.0480
  162POPC   C3A 2372   8.674   0.596   6.069  0.1978 -0.1034  0.0322
  162POPC   C4A 2373   8.507   0.230   5.954 -0.2264 -0.1846 -0.0758
  162POPC   C1B 2374   9.442   1.759   5.734  0.1665  0.0412 -0.1024
  162POPC   C2B 2375   9.486   2.222   5.811  0.1120 -0.0030  0.0228
  162POPC   C3B 2376   9.837   2.430   6.105  0.0888  0.0210  0.1082
  162POPC   C4B 2377  10.019   2.501   6.536  0.3139 -0.2744  0.2078
  163POPC   NC3 2378   7.828   2.859   4.729 -0.1225  0.0434  0.4787
  163POPC   PO4 2379   7.699   3.325   4.750 -0.1885  0.0467  0.1491
  163POPC   GL1 2380   7.801   3.303   5.155  0.0449 -0.0363 -0.0248
  163POPC   GL2 2381   7.782   2.988   5.282  0.0618 -0.2517 -0.2321
  163POPC   C1A 2382   7.863   3.403   5.602  0.0066 -0.0023 -0.1802
  163POPC   D2A 2383   8.163   3.668   5.998 -0.0401 -0.1832  0.0933
  163POPC   C3A 2384   8.198   3.975   6.390 -0.0576  0.0154  0.3424
  163POPC   C4A 2385   8.411   4.299   6.603 -0.1390 -0.2497 -0.0732
  163POPC   C1B 2386   7.637   2.659   5.553  0.2812  0.1216 -0.1273
  163POPC   C2B 2387   7.593   2.438   5.838 -0.0220 -0.2339  0.1749
  163POPC   C3B 2388   7.320   2.169   6.144 -0.0317  0.0857 -0.0135
  163POPC   C4B 2389   7.036   2.163   6.580  0.0484  0.0679  0.0135
  164POPC   NC3 2390   5.650   1.358   4.693  0.0098 -0.0250 -0.0453
  164POPC   PO4 2391   5.398   1.698   4.689 -0.0376  0.0583 -0.2831
  164POPC   GL1 2392   5.396   1.682   5.220 -0.2918  0.0153  0.0518
  164POPC   GL2 2393   5.548   2.002   5.394  0.3045 -0.1375  0.1295
  164POPC   C1A 2394   5.137   1.709   5.610 -0.0476 -0.1127  0.0878
  164POPC   D2A 2395   4.810   1.793   5.906 -0.1328  0.1575 -0.0350
  164POPC   C3A 2396   4.611   2.048   5.633  0.0140  0.0011  0.4504
  164POPC   C4A 2397   4.612   2.193   5.249 -0.1550 -0.0974 -0.1707
  164POPC   C1B 2398   5.527   2.074   5.762  0.1777  0.3131  0.0523
  164POPC   C2B 2399   5.331   1.876   6.082  0.0920 -0.0772  0.4741
  164POPC   C3B 2400   5.478   1.992   6.541  0.0664 -0.0280  0.1570
  164POPC   C4B 2401   5.180   1.839   6.792  0.1229  0.2431  0.2373
  165POPC   NC3 2402   7.185   7.121   5.074  0.2068  0.0579  0.0926
  165POPC   PO4 2403   7.159   6.679   5.231 -0.0609 -0.0066 -0.0117
  165POPC   GL1 2404   7.222   6.410   5.606  0.2842 -0.0894 -0.0862
  165POPC   GL2 2405   7.194   6.141   5.590 -0.0167  0.0314 -0.3252
  165POPC   C1A 2406   7.145   6.455   6.066  0.0354  0.0432  0.1405
  165POPC   D2A 2407   7.258   6.531   6.528  0.3536 -0.1333  0.2489
  165POPC   C3A 2408   7.089   6.203   6.804  0.2620 -0.2441 -0.2942
  165POPC   C4A 2409   7.025   5.678   6.955 -0.0482  0.1942  0.4347
  165POPC   C1B 2410   7.425   6.032   5.939  0.0915 -0.0153 -0.0457
  165POPC   C2B 2411   7.397   5.888   6.367 -0.0943  0.2491  0.3475
  165POPC   C3B 2412   7.517   5.823   6.762  0.0600  0.1243  0.2778
  165POPC   C4B 2413   7.806   5.499   7.027 -0.0439  0.3855 -0.1154
  166POPC   NC3 2414   7.600   3.906   4.622  0.1747 -0.2695  0.1341
  166POPC   PO4 2415   7.737   4.293   4.521  0.0263  0.1874  0.1182
  166POPC   GL1 2416   7.630   4.343   4.923  0.0336 -0.0186  0.2965
  166POPC   GL2 2417   7.982   4.255   4.997  0.3203 -0.0650 -0.0433
  166POPC   C1A 2418   7.593   4.293   5.390  0.0274  0.0222 -0.0020
  166POPC   D2A 2419   7.663   4.547   5.778 -0.2410  0.0985  0.0838
  166POPC   C3A 2420   8.023   4.634   6.063  0.0636  0.1722 -0.0987
  166POPC   C4A 2421   8.420   4.833   5.975  0.0511 -0.1516 -0.0536
  166POPC   C1B 2422   8.356   4.000   5.181  0.0241  0.2565 -0.2873
  166POPC   C2B 2423   8.835   3.998   5.260 -0.1434  0.0632 -0.0481
  166POPC   C3B 2424   9.140   4.072   5.496 -0.1313  0.0899  0.3416
  166POPC   C4B 2425   9.234   4.097   6.004  0.1570  0.0741 -0.1121
  167POPC   NC3 2426   2.286   2.572   3.975  0.1003 -0.0467  0.0479
  167POPC   PO4 2427   1.970   2.436   3.948 -0.3581 -0.2768 -0.2467
  167POPC   GL1 2428   2.050   2.568   4.401  0.2126  0.2377  0.0525
  167POPC   GL2 2429   1.941   2.298   4.537 -0.1527 -0.2511  0.1482
  167POPC   C1A 2430   2.300   2.777   4.611 -0.1700 -0.0229  0.1938
  167POPC   D2A 2431   2.529   2.819   4.974  0.0878  0.1521 -0.1979
  167POPC   C3A 2432   2.531   3.251   5.158 -0.0905  0.0951 -0.1867
  167POPC   C4A 2433   2.450   3.577   5.468  0.2027 -0.1520 -0.0561
  167POPC   C1B 2434   2.241   2.372   4.841 -0.0632 -0.0772  0.2755
  167POPC   C2B 2435   2.298   2.511   5.299 -0.1957  0.3573 -0.1618
  167POPC   C3B 2436   2.448   2.377   5.627  0.1538  0.0297  0.0691
  167POPC   C4B 2437   2.806   2.312   5.762  0.1406 -0.1413  0.1357
  168POPC   NC3 2438   0.024   9.832   4.786  0.0439 -0.0949 -0.1179
  168POPC   PO4 2439   0.160   9.466   4.981 -0.1611 -0.1886  0.1355
  168POPC   GL1 2440   0.131   9.446   5.387 -0.0273 -0.0519 -0.2559
  168POPC   GL2 2441   0.089   9.803   5.573 -0.2787  0.3173  0.2885
  168POPC   C1A 2442   0.085   9.288   5.871 -0.0457  0.0499  0.0159
  168POPC   D2A 2443   0.189   8.962   6.156 -0.0504 -0.1030 -0.1847
  168POPC   C3A 2444   0.619   9.006   6.341  0.0237  0.1794 -0.2382
  168POPC   C4A 2445   0.904   9.148   6.586 -0.1667  0.3934 -0.0952
  168POPC   C1B 2446   0.163   9.768   6.079 -0.4029 -0.1225  0.2690
  168POPC   C2B 2447   0.427   9.734   6.501 -0.0269  0.2451  0.1285
  168POPC   C3B 2448   0.656   9.564   6.784  0.0842 -0.0424  0.0864
  168POPC   C4B 2449   1.012   9.715   7.125  0.0970 -0.0250 -0.0011
  169POPC   NC3 2450   0.647   1.757   4.525  0.1569 -0.1063  0.3225
  169POPC   PO4 2451   1.000   1.610   4.184  0.4588  0.2125  0.3016
  169POPC   GL1 2452   1.066   1.994   4.446 -0.3901 -0.1111  0.3160
  169POPC   GL2 2453   1.434   2.112   4.640 -0.1161  0.1029 -0.0611
  169POPC   C1A 2454   0.943   2.269   4.767 -0.4227 -0.2599  0.0308
  169POPC   D2A 2455   0.515   2.034   4.940  0.2322  0.0630  0.2919
  169POPC   C3A 2456   0.362   2.391   5.294 -0.2567  0.2042  0.2659
  169POPC   C4A 2457   0.473   2.555   5.649  0.0296 -0.0510 -0.2754
  169POPC   C1B 2458   1.401   2.315   4.997  0.1655  0.1047 -0.0379
  169POPC   C2B 2459   1.398   2.303   5.430  0.1807 -0.2340  0.1095
  169POPC   C3B 2460   1.609   2.274   5.771  0.1109  0.1709  0.1794
  169POPC   C4B 2461   2.011   2.627   5.878  0.1198 -0.0830 -0.0603
  170POPC   NC3 2462   3.507   2.504   4.127 -0.2928  0.0220  0.2262
  170POPC   PO4 2463   3.366   2.127   4.252  0.3503 -0.1718 -0.0921
  170POPC   GL1 2464   3.315   2.312   4.644 -0.2124  0.2034 -0.2056
  170POPC   GL2 2465   3.013   2.357   4.595  0.0513  0.2569 -0.1242
  170POPC   C1A 2466   3.419   2.726   4.872  0.3833 -0.0220 -0.0794
  170POPC   D2A 2467   3.296   2.743   5.263  0.1213 -0.3414  0.0578
  170POPC   C3A 2468   3.559   2.950   5.548 -0.1364 -0.0302  0.0179
  170POPC   C4A 2469   3.693   2.954   5.972  0.2465 -0.0543 -0.0208
  170POPC   C1B 2470   2.874   2.499   5.056 -0.2204  0.1802  0.4328
  170POPC   C2B 2471   2.764   2.665   5.375 -0.0454 -0.3884 -0.1547
  170POPC   C3B 2472   2.413   2.956   5.570  0.0588 -0.3738  0.1820
  170POPC   C4B 2473   2.002   3.144   5.665  0.1347 -0.1884 -0.2598
  171POPC   NC3 2474   0.218   1.019   4.608 -0.1855  0.3263  0.3358
  171POPC   PO4 2475   0.230   1.436   4.564  0.0522 -0.2866  0.1644
  171POPC   GL1 2476   0.107   1.386   4.988 -0.1049 -0.1851 -0.3144
  171POPC   GL2 2477   0.398   1.024   5.127 -0.1150 -0.0525 -0.0647
  171POPC   C1A 2478   0.343   1.534   5.368 -0.0159  0.1195  0.1960
  171POPC   D2A 2479   0.717   1.709   5.499 -0.0931 -0.1848  0.1079
  171POPC   C3A 2480   1.039   1.808   5.689 -0.0235 -0.3989  0.0037
  171POPC   C4A 2481   1.213   1.822   6.058 -0.2753  0.0806  0.0166
  171POPC   C1B 2482   0.738   1.167   5.390  0.0531 -0.1085 -0.0470
  171POPC   C2B 2483   1.109   1.351   5.301  0.0991 -0.3002  0.0089
  171POPC   C3B 2484   1.409   1.545   5.530 -0.1040  0.0375 -0.3838
  171POPC   C4B 2485   1.686   1.885   5.509  0.3422  0.1320  0.0376
  172POPC   NC3 2486   9.702   2.430   3.368 -0.1946  0.0850  0.3277
  172POPC   PO4 2487   9.907   2.217   3.723 -0.1635 -0.0149 -0.3210
  172POPC   GL1 2488  10.097   2.101   4.077 -0.1313 -0.3991 -0.4277
  172POPC   GL2 2489  10.323   1.955   4.274 -0.4177 -0.2114  0.5211
  172POPC   C1A 2490   9.988   2.235   4.483  0.0662  0.0508  0.0015
  172POPC   D2A 2491  10.041   2.113   4.876 -0.3423  0.2303  0.3504
  172POPC   C3A 2492  10.061   2.460   5.060 -0.3134 -0.2712  0.0427
  172POPC   C4A 2493  10.228   2.863   5.204  0.0096 -0.4014 -0.0572
  172POPC   C1B 2494  10.440   2.331   4.622 -0.1086  0.0427 -0.1009
  172POPC   C2B 2495  10.632   2.634   4.896 -0.3007 -0.1033  0.2229
  172POPC   C3B 2496  10.682   3.053   4.909  0.0293  0.1161  0.0949
  172POPC   C4B 2497  10.420   3.466   4.882 -0.0838  0.1722 -0.2568
  173POPC   NC3 2498   2.146   8.610   4.509 -0.0778  0.0103  0.1116
  173POPC   PO4 2499   2.455   8.492   4.879 -0.1936 -0.0076 -0.0494
  173POPC   GL1 2500   2.546   8.419   5.363  0.3887 -0.1638  0.0363
  173POPC   GL2 2501   2.661   8.165   5.476 -0.0530  0.0813  0.1889
  173POPC   C1A 2502   2.527   8.395   5.882  0.0365 -0.0707 -0.0914
  173POPC   D2A 2503   2.607   8.609   6.216 -0.1688 -0.2804  0.2453
  173POPC   C3A 2504   2.798   8.588   6.595 -0.0987 -0.5680 -0.2115
  173POPC   C4A 2505   2.637   8.479   7.014  0.2934  0.1248  0.0510
  173POPC   C1B 2506   2.848   7.806   5.819  0.0390 -0.1602  0.2485
  173POPC   C2B 2507   2.912   7.711   6.245  0.1106 -0.5134 -0.0988
  173POPC   C3B 2508   3.041   7.645   6.723  0.0218 -0.0511 -0.0976
  173POPC   C4B 2509   3.196   7.727   7.088  0.0892 -0.2679 -0.2057
  174POPC   NC3 2510   4.972   4.903   4.327  0.0223 -0.0440 -0.2704
  174POPC   PO4 2511   5.221   4.808   4.619  0.1457  0.2117  0.1211
  174POPC   GL1 2512   5.105   4.901   5.086 -0.0969  0.0240  0.3195
  174POPC   GL2 2513   4.779   5.032   5.175  0.0137 -0.1065  0.1252
  174POPC   C1A 2514   5.096   4.658   5.481 -0.2863 -0.1990 -0.1534
  174POPC   D2A 2515   4.983   4.299   5.637  0.1255 -0.0186  0.1819
  174POPC   C3A 2516   4.923   4.200   6.044  0.3076  0.0562 -0.0287
  174POPC   C4A 2517   4.705   3.892   6.345  0.2036  0.2834 -0.0015
  174POPC   C1B 2518   4.690   4.818   5.695  0.1817  0.1592  0.0627
  174POPC   C2B 2519   4.791   4.691   6.028  0.1885 -0.1342  0.0201
  174POPC   C3B 2520   4.997   4.604   6.314  0.0423 -0.0385 -0.0552
  174POPC   C4B 2521   4.996   4.395   6.698  0.1168 -0.0346  0.2916
  175POPC   NC3 2522   0.479   3.553   3.485 -0.1970  0.0268 -0.2668
  175POPC   PO4 2523   0.123   3.932   3.355 -0.0378  0.3037 -0.3537
  175POPC   GL1 2524   0.218   4.184   3.661 -0.2434  0.0136 -0.2320
  175POPC   GL2 2525  -0.099   4.112   3.886  0.0813 -0.4071 -0.2251
  175POPC   C1A 2526   0.321   4.080   4.151  0.0725  0.5415 -0.2380
  175POPC   D2A 2527   0.502   3.999   4.676 -0.1118  0.2275  0.1337
  175POPC   C3A 2528   0.189   3.964   4.977  0.0636 -0.2403 -0.0071
  175POPC   C4A 2529  -0.045   4.320   5.092  0.0320  0.0557 -0.1684
  175POPC   C1B 2530  -0.106   3.797   4.240  0.1035  0.3192  0.0180
  175POPC   C2B 2531  -0.193   3.731   4.784  0.2975 -0.1239  0.1450
  175POPC   C3B 2532  -0.137   3.648   5.191  0.2152  0.2013 -0.0744
  175POPC   C4B 2533   0.320   3.658   5.384 -0.3821  0.1858 -0.0916
  176POPC   NC3 2534   5.735   2.674   3.884 -0.1146  0.1644 -0.1064
  176POPC   PO4 2535   5.712   2.592   4.389  0.0917 -0.2494  0.2157
  176POPC   GL1 2536   5.709   2.708   4.765 -0.0726 -0.0369 -0.1497
  176POPC   GL2 2537   5.609   2.505   5.041  0.0560  0.1268 -0.3955
  176POPC   C1A 2538   5.829   2.909   5.259  0.1154  0.1169 -0.0103
  176POPC   D2A 2539   5.870   3.282   5.513  0.1725  0.1539 -0.3026
  176POPC   C3A 2540   6.180   3.534   5.775  0.1355 -0.0553  0.0653
  176POPC   C4A 2541   6.628   3.546   5.748 -0.1803 -0.1440  0.3346
  176POPC   C1B 2542   5.465   2.471   5.486  0.0296  0.3746 -0.2672
  176POPC   C2B 2543   5.481   2.520   6.026 -0.1305  0.3331  0.0871
  176POPC   C3B 2544   5.511   2.577   6.418 -0.3811 -0.1416 -0.1587
  176POPC   C4B 2545   5.697   2.507   6.716  0.0055  0.1339 -0.0891
  177POPC   NC3 2546   6.132   5.903   4.669 -0.0225 -0.1710  0.1470
  177POPC   PO4 2547   6.146   6.190   4.995  0.0633 -0.0475  0.2661
  177POPC   GL1 2548   6.140   6.120   5.426 -0.0399 -0.0756  0.0304
  177POPC   GL2 2549   5.822   6.031   5.641  0.1377 -0.3490 -0.0216
  177POPC   C1A 2550   6.325   6.079   5.950  0.0484  0.1349  0.0094
  177POPC   D2A 2551   6.408   5.907   6.325 -0.0106 -0.1512  0.0905
  177POPC   C3A 2552   6.105   6.029   6.525 -0.0347  0.0289  0.0998
  177POPC   C4A 2553   5.890   6.210   6.814 -0.1461  0.0843 -0.1225
  177POPC   C1B 2554   5.937   5.758   6.097 -0.1320  0.2997 -0.0302
  177POPC   C2B 2555   6.087   5.516   6.430 -0.0966  0.0901 -0.0785
  177POPC   C3B 2556   5.918   5.677   6.767  0.0033 -0.1020  0.4378
  177POPC   C4B 2557   5.825   5.953   7.226 -0.0490  0.1707  0.1184
  178POPC   NC3 2558   7.694   8.232   4.568  0.2061  0.0430  0.1788
  178POPC   PO4 2559   8.032   8.044   4.749  0.1577 -0.1563 -0.1708
  178POPC   GL1 2560   8.117   8.234   5.188 -0.1863 -0.2848  0.2387
  178POPC   GL2 2561   8.307   7.820   5.327 -0.1536 -0.0142  0.0955
  178POPC   C1A 2562   8.206   8.321   5.586  0.0377 -0.2927  0.2326
  178POPC   D2A 2563   8.141   8.175   5.990  0.1374  0.0909 -0.2401
  178POPC   C3A 2564   7.933   8.340   6.304 -0.3942 -0.1440  0.0698
  178POPC   C4A 2565   7.982   8.411   6.801 -0.2504 -0.0917 -0.0000
  178POPC   C1B 2566   8.042   7.776   5.698  0.2363 -0.0310  0.2303
  178POPC   C2B 2567   8.120   7.638   6.076 -0.0666  0.0242 -0.0145
  178POPC   C3B 2568   7.851   7.430   6.361  0.1974  0.3631 -0.1188
  178POPC   C4B 2569   7.796   6.952   6.321  0.1116 -0.0292 -0.0074
  179POPC   NC3 2570   3.670   6.693   4.735  0.2165 -0.1882 -0.2287
  179POPC   PO4 2571   3.735   7.042   4.553  0.0623  0.1288  0.1387
  179POPC   GL1 2572   3.629   7.175   4.991  0.1333  0.0894 -0.0238
  179POPC   GL2 2573   3.374   6.917   5.015  0.4187 -0.2263  0.1293
  179POPC   C1A 2574   3.694   7.106   5.445 -0.1611  0.1211 -0.2647
  179POPC   D2A 2575   3.779   7.218   5.910  0.1171 -0.1226  0.1508
  179POPC   C3A 2576   3.691   7.592   6.165 -0.0225  0.3487  0.2171
  179POPC   C4A 2577   3.371   7.873   6.333 -0.0401  0.0212  0.0592
  179POPC   C1B 2578   3.226   6.912   5.449  0.0249 -0.0092  0.1671
  179POPC   C2B 2579   3.184   6.790   5.922  0.0687 -0.1189  0.2518
  179POPC   C3B 2580   3.029   6.833   6.400  0.0534 -0.2446  0.0182
  179POPC   C4B 2581   3.073   6.779   6.808 -0.1737 -0.4625  0.0015
  180POPC   NC3 2582   1.305   7.527   3.957 -0.1339  0.2968  0.0636
  180POPC   PO4 2583   1.494   7.153   4.064  0.1217 -0.2435  0.1953
  180POPC   GL1 2584   1.453   6.837   4.408  0.0183 -0.1953  0.3773
  180POPC   GL2 2585   1.162   6.845   4.481  0.1288  0.1438 -0.0389
  180POPC   C1A 2586   1.681   6.548   4.704  0.2220 -0.0157  0.0850
  180POPC   D2A 2587   1.776   6.478   5.134 -0.1181 -0.1688  0.1134
  180POPC   C3A 2588   1.871   6.749   5.469  0.0091  0.1868  0.2219
  180POPC   C4A 2589   2.298   6.927   5.536 -0.1307  0.2106  0.0818
  180POPC   C1B 2590   1.339   6.974   4.862 -0.4185  0.2357  0.0181
  180POPC   C2B 2591   1.792   6.935   4.983  0.1513  0.2183  0.0604
  180POPC   C3B 2592   2.226   6.860   5.016  0.1310  0.0345 -0.4447
  180POPC   C4B 2593   2.697   6.851   5.010 -0.1075  0.3346 -0.0489
  181POPC   NC3 2594   5.277   6.534   5.067 -0.2912 -0.1039  0.2126
  181POPC   PO4 2595   5.359   6.943   5.121  0.1594 -0.0450 -0.0603
  181POPC   GL1 2596   5.579   7.124   5.461  0.2217 -0.0720  0.1816
  181POPC   GL2 2597   5.878   6.998   5.630 -0.0721  0.0053 -0.2181
  181POPC   C1A 2598   5.487   7.105   5.856  0.2434 -0.1489  0.1924
  181POPC   D2A 2599   5.181   6.927   6.053 -0.0072 -0.1046  0.0495
  181POPC   C3A 2600   5.254   6.608   6.266  0.0528 -0.0615 -0.0982
  181POPC   C4A 2601   5.564   6.407   6.553  0.1063 -0.0864 -0.1297
  181POPC   C1B 2602   5.978   7.162   5.942 -0.1930  0.1514  0.3682
  181POPC   C2B 2603   6.170   7.494   6.087 -0.3753 -0.1893  0.3099
  181POPC   C3B 2604   6.129   7.954   6.102  0.1264  0.1908  0.1707
  181POPC   C4B 2605   5.829   8.110   5.814 -0.0589 -0.0452 -0.1110
  182POPC   NC3 2606   1.434   5.576   3.551 -0.3710  0.1242  0.3233
  182POPC   PO4 2607   1.726   5.283   3.431 -0.2660 -0.0188  0.2180
  182POPC   GL1 2608   1.460   5.274   3.921  0.2474  0.4678 -0.1358
  182POPC   GL2 2609   1.393   5.557   4.056  0.3168  0.1977  0.2381
  182POPC   C1A 2610   1.207   5.085   4.161  0.0195  0.4165  0.4474
  182POPC   D2A 2611   0.987   4.648   4.179  0.0326 -0.2115  0.3606
  182POPC   C3A 2612   1.369   4.350   4.212 -0.0953  0.2475 -0.0743
  182POPC   C4A 2613   1.747   4.042   4.305  0.1489 -0.2866  0.2152
  182POPC   C1B 2614   1.117   5.877   4.355 -0.2297  0.2451  0.0111
  182POPC   C2B 2615   1.079   5.758   4.712  0.0358  0.0049  0.2024
  182POPC   C3B 2616   1.255   5.444   4.965  0.0619 -0.2489  0.1428
  182POPC   C4B 2617   1.493   5.297   5.312  0.2442 -0.2646  0.1458
  183POPC   NC3 2618   9.794   9.792   4.159 -0.1086 -0.1588 -0.2263
  183POPC   PO4 2619   9.684   9.953   4.655  0.1919 -0.0354 -0.0636
  183POPC   GL1 2620   9.748   9.843   5.174  0.0645 -0.1526  0.2798
  183POPC   GL2 2621   9.854  10.187   5.292  0.3745  0.2156  0.1364
  183POPC   C1A 2622   9.767   9.356   5.410 -0.0384  0.0959  0.1611
  183POPC   D2A 2623   9.906   8.986   5.657 -0.2201 -0.1802  0.2574
  183POPC   C3A 2624   9.820   8.974   6.026  0.0248  0.1885  0.1678
  183POPC   C4A 2625   9.636   9.260   6.406  0.0421 -0.0741 -0.3049
  183POPC   C1B 2626   9.684   9.891   5.699  0.2871 -0.4095  0.2542
  183POPC   C2B 2627   9.802   9.501   6.030 -0.0571 -0.0710 -0.3021
  183POPC   C3B 2628  10.139   9.340   6.375  0.5093 -0.1828 -0.2150
  183POPC   C4B 2629  10.028   9.269   6.776 -0.2403  0.1017  0.1518
  184POPC   NC3 2630   5.067   8.114   5.107 -0.0870 -0.1187 -0.1981
  184POPC   PO4 2631   5.526   7.881   4.984  0.0942  0.2550 -0.3053
  184POPC   GL1 2632   5.386   7.744   5.368 -0.3454  0.0479 -0.1246
  184POPC   GL2 2633   5.245   7.438   5.404 -0.1785  0.1270 -0.1797
  184POPC   C1A 2634   5.264   7.725   5.799  0.0545 -0.0846 -0.0059
  184POPC   D2A 2635   5.072   7.846   6.226  0.0583  0.1428 -0.1693
  184POPC   C3A 2636   5.402   7.883   6.671  0.2278  0.0746  0.2197
  184POPC   C4A 2637   5.726   7.715   6.889  0.1630  0.2791 -0.0847
  184POPC   C1B 2638   4.973   7.314   5.770  0.0454 -0.0276  0.0960
  184POPC   C2B 2639   4.850   7.263   6.171 -0.1739 -0.3917 -0.0696
  184POPC   C3B 2640   4.553   7.315   6.516 -0.0216 -0.2410  0.0337
  184POPC   C4B 2641   4.588   7.232   6.914 -0.2217  0.0640 -0.0893
  185POPC   NC3 2642  10.041   7.101   4.118 -0.2786  0.2248 -0.0575
  185POPC   PO4 2643  10.110   6.648   4.144  0.0974  0.1873  0.0716
  185POPC   GL1 2644   9.988   6.733   4.533 -0.0568 -0.2368 -0.2466
  185POPC   GL2 2645   9.716   6.700   4.704 -0.1259  0.0603 -0.2173
  185POPC   C1A 2646  10.165   6.783   4.973 -0.0582 -0.0224  0.2735
  185POPC   D2A 2647  10.573   6.828   5.295  0.2223  0.2179  0.1999
  185POPC   C3A 2648  10.832   6.529   5.264 -0.1350 -0.2684 -0.3078
  185POPC   C4A 2649  11.258   6.582   5.117 -0.0862 -0.0189 -0.4718
  185POPC   C1B 2650   9.687   6.468   5.028 -0.0824 -0.0986 -0.0258
  185POPC   C2B 2651   9.790   6.331   5.441 -0.4170  0.0802  0.0090
  185POPC   C3B 2652   9.688   6.330   5.908 -0.2563  0.1460  0.0356
  185POPC   C4B 2653   9.342   6.527   6.188 -0.0184  0.0671  0.0382
  186POPC   NC3 2654   8.544   9.310   4.965  0.1924 -0.2282 -0.1483
  186POPC   PO4 2655   8.966   9.424   4.979 -0.1198  0.2114  0.0850
  186POPC   GL1 2656   8.889   9.105   5.312 -0.0544 -0.2596  0.0716
  186POPC   GL2 2657   8.959   9.341   5.541  0.3466 -0.1400 -0.2517
  186POPC   C1A 2658   8.673   8.880   5.649 -0.1843 -0.3300 -0.1605
  186POPC   D2A 2659   8.463   8.867   6.052 -0.0847  0.1581  0.1311
  186POPC   C3A 2660   8.441   8.476   6.318 -0.0991 -0.1540  0.0256
  186POPC   C4A 2661   8.248   8.055   6.536  0.1532  0.1677  0.0107
  186POPC   C1B 2662   8.488   9.351   5.633 -0.0751  0.1356  0.1942
  186POPC   C2B 2663   8.243   9.749   5.808 -0.1298  0.2265 -0.0202
  186POPC   C3B 2664   8.185   9.938   6.224  0.0088  0.3547 -0.0468
  186POPC   C4B 2665   7.895  10.159   6.527  0.1891 -0.1322 -0.0041
  187POPC   NC3 2666   7.914   1.727   4.484  0.0555 -0.2018 -0.1381
  187POPC   PO4 2667   8.179   1.746   4.820 -0.1751 -0.0968  0.1427
  187POPC   GL1 2668   8.048   1.747   5.178  0.4608  0.2518  0.1965
  187POPC   GL2 2669   7.787   1.587   5.358 -0.0801 -0.4151 -0.0409
  187POPC   C1A 2670   8.130   1.757   5.668 -0.0687 -0.1795  0.1398
  187POPC   D2A 2671   8.252   1.717   6.111 -0.0086 -0.0501 -0.1995
  187POPC   C3A 2672   8.017   1.482   6.453  0.1140 -0.1578  0.1122
  187POPC   C4A 2673   7.818   1.238   6.800  0.2462  0.0075 -0.0195
  187POPC   C1B 2674   7.504   1.447   5.743  0.0957 -0.0664  0.0817
  187POPC   C2B 2675   7.248   1.653   6.026 -0.2670  0.1617  0.3196
  187POPC   C3B 2676   6.855   1.780   6.251 -0.1761 -0.0309 -0.2149
  187POPC   C4B 2677   6.455   1.924   6.473 -0.1745 -0.0059 -0.1378
  188POPC   NC3 2678   8.994   4.032   3.617 -0.1165  0.0574  0.2838
  188POPC   PO4 2679   9.028   3.915   4.043 -0.1764 -0.0754  0.1509
  188POPC   GL1 2680   9.121   4.183   4.300 -0.4660  0.0377  0.1126
  188POPC   GL2 2681   8.896   4.520   4.384  0.2752 -0.5351 -0.0422
  188POPC   C1A 2682   9.203   4.388   4.709 -0.0124 -0.1218  0.0962
  188POPC   D2A 2683   9.294   4.461   5.193 -0.0561 -0.1224  0.4511
  188POPC   C3A 2684   9.659   4.461   5.347 -0.1243 -0.1692  0.1477
  188POPC   C4A 2685   9.845   4.843   5.524 -0.0871 -0.0568 -0.2900
  188POPC   C1B 2686   8.744   4.835   4.634  0.0753  0.1998 -0.1986
  188POPC   C2B 2687   8.790   4.688   5.127 -0.0924 -0.1564  0.0637
  188POPC   C3B 2688   9.004   4.725   5.595  0.0822 -0.0230 -0.2833
  188POPC   C4B 2689   9.432   4.555   5.845  0.0554 -0.0219 -0.2007
  189POPC   NC3 2690   3.620   6.105   4.415  0.1978 -0.2017 -0.0481
  189POPC   PO4 2691   3.203   6.409   4.325  0.0372 -0.4226  0.0940
  189POPC   GL1 2692   3.043   6.450   4.738  0.1009  0.1550 -0.0468
  189POPC   GL2 2693   3.335   6.261   4.855 -0.1509 -0.0581 -0.2887
  189POPC   C1A 2694   3.055   6.485   5.174  0.3116 -0.1036  0.1423
  189POPC   D2A 2695   3.105   6.356   5.625 -0.3708  0.0561  0.1409
  189POPC   C3A 2696   2.979   6.334   5.917 -0.1432 -0.1439 -0.0058
  189POPC   C4A 2697   2.729   6.631   6.036 -0.0407  0.1972 -0.0890
  189POPC   C1B 2698   3.470   6.197   5.272 -0.0666 -0.3305  0.0115
  189POPC   C2B 2699   3.513   5.970   5.747 -0.3306  0.1023  0.4311
  189POPC   C3B 2700   3.665   5.737   6.067 -0.2251  0.3756  0.0824
  189POPC   C4B 2701   3.626   5.384   6.386  0.1536  0.0506  0.2905
  190POPC   NC3 2702   4.512   4.341   4.283  0.0926 -0.1017 -0.2858
  190POPC   PO4 2703   4.453   4.143   4.665  0.0462  0.1382 -0.3599
  190POPC   GL1 2704   4.391   4.343   5.094  0.0032  0.1030 -0.0672
  190POPC   GL2 2705   4.398   4.605   5.117  0.1626 -0.2473 -0.1212
  190POPC   C1A 2706   4.448   4.352   5.530 -0.2703  0.1728  0.0857
  190POPC   D2A 2707   4.249   4.563   5.842  0.2493 -0.0678 -0.1313
  190POPC   C3A 2708   3.968   4.340   6.015 -0.0710  0.0052  0.0940
  190POPC   C4A 2709   3.683   4.498   6.297  0.0213 -0.1581 -0.0098
  190POPC   C1B 2710   4.164   4.705   5.307 -0.0427  0.0174 -0.1001
  190POPC   C2B 2711   3.906   5.151   5.349  0.0423  0.0499 -0.1356
  190POPC   C3B 2712   3.564   5.238   5.184 -0.0791  0.0366 -0.0365
  190POPC   C4B 2713   3.384   5.037   4.863  0.1471 -0.1571  0.1118
  191POPC   NC3 2714   6.485   8.934   4.692 -0.3396  0.3549  0.1048
  191POPC   PO4 2715   6.553   9.115   5.136  0.1000  0.0883 -0.3200
  191POPC   GL1 2716   6.373   8.904   5.366  0.0307 -0.1640 -0.0569
  191POPC   GL2 2717   6.221   8.560   5.381  0.1881 -0.1591  0.0830
  191POPC   C1A 2718   6.225   9.017   5.806 -0.3033  0.2340  0.0307
  191POPC   D2A 2719   6.270   8.944   6.274 -0.1584 -0.0188  0.1341
  191POPC   C3A 2720   6.180   9.123   6.631  0.1204 -0.0230 -0.0450
  191POPC   C4A 2721   6.189   9.255   7.091  0.1158  0.1237  0.0437
  191POPC   C1B 2722   6.229   8.369   5.737  0.1553 -0.0157 -0.0821
  191POPC   C2B 2723   6.517   8.464   6.046 -0.2652 -0.0188  0.0812
  191POPC   C3B 2724   6.889   8.504   6.342 -0.0590  0.0887  0.2160
  191POPC   C4B 2725   7.059   8.639   6.657 -0.0861  0.2563  0.0054
  192POPC   NC3 2726   2.063   6.210   3.569  0.1842 -0.4589  0.0008
  192POPC   PO4 2727   1.803   5.873   3.389 -0.0345  0.3172 -0.0415
  192POPC   GL1 2728   1.957   5.699   3.781 -0.0428  0.1362  0.0641
  192POPC   GL2 2729   2.312   5.828   3.742  0.1442 -0.4323  0.0472
  192POPC   C1A 2730   1.866   5.412   4.112 -0.0752 -0.1003  0.0016
  192POPC   D2A 2731   1.715   4.941   4.221  0.0942 -0.0845 -0.2593
  192POPC   C3A 2732   1.394   4.755   4.454 -0.0052 -0.1503 -0.2267
  192POPC   C4A 2733   1.162   4.595   4.869 -0.2794  0.1746  0.1622
  192POPC   C1B 2734   2.234   5.732   4.185  0.0429 -0.2256  0.4034
  192POPC   C2B 2735   2.086   5.656   4.490 -0.1449 -0.1700  0.0179
  192POPC   C3B 2736   2.215   5.557   4.934  0.0199 -0.0933 -0.3355
  192POPC   C4B 2737   2.008   5.387   5.364  0.4264  0.1213  0.1489
  193POPC   NC3 2738   2.740   6.642   4.240  0.2382  0.0387  0.0969
  193POPC   PO4 2739   2.452   6.367   4.172 -0.0580 -0.0473  0.3083
  193POPC   GL1 2740   2.082   6.225   4.266  0.0947 -0.3075 -0.1701
  193POPC   GL2 2741   1.794   6.322   4.148 -0.2503  0.0722  0.0306
  193POPC   C1A 2742   1.917   6.047   4.671 -0.0819  0.2859  0.2019
  193POPC   D2A 2743   2.064   6.092   5.123  0.1148  0.1373  0.3280
  193POPC   C3A 2744   1.786   6.147   5.523 -0.1804 -0.0137 -0.0997
  193POPC   C4A 2745   1.384   6.259   5.489  0.0732 -0.1545 -0.0316
  193POPC   C1B 2746   1.712   5.944   4.201  0.0876 -0.0412  0.1288
  193POPC   C2B 2747   1.592   5.617   4.450  0.3165 -0.0942 -0.1713
  193POPC   C3B 2748   1.433   5.246   4.523 -0.3090  0.2508  0.1898
  193POPC   C4B 2749   1.125   5.072   4.649  0.3130 -0.1406  0.0698
  194POPC   NC3 2750   6.660   3.988   4.786 -0.4824 -0.1015  0.1644
  194POPC   PO4 2751   6.836   3.639   5.029 -0.1521 -0.0059  0.3133
  194POPC   GL1 2752   7.098   3.486   5.412  0.0826 -0.0249  0.2774
  194POPC   GL2 2753   7.316   3.203   5.427  0.1654  0.2081 -0.3530
  194POPC   C1A 2754   7.082   3.620   5.939  0.0904  0.0042  0.3840
  194POPC   D2A 2755   6.811   3.704   6.256  0.0336  0.1736  0.0196
  194POPC   C3A 2756   6.578   4.086   6.476 -0.1686 -0.3272  0.2031
  194POPC   C4A 2757   6.509   4.549   6.496 -0.0524  0.1890  0.1636
  194POPC   C1B 2758   7.463   3.113   5.856  0.0239 -0.0568 -0.1573
  194POPC   C2B 2759   7.819   3.241   6.057  0.1133 -0.1044 -0.4868
  194POPC   C3B 2760   8.068   3.377   6.335 -0.1252 -0.1060 -0.0927
  194POPC   C4B 2761   8.443   3.360   6.545 -0.1513  0.0225 -0.1218
  195POPC   NC3 2762   8.323   2.090   4.515 -0.0001  0.3018  0.2378
  195POPC   PO4 2763   7.963   2.357   4.545 -0.2362  0.0443  0.2324
  195POPC   GL1 2764   8.216   2.299   4.952 -0.1521 -0.0973 -0.0698
  195POPC   GL2 2765   8.592   2.286   4.891  0.0084  0.0443  0.1155
  195POPC   C1A 2766   8.185   2.242   5.344  0.2198 -0.0941  0.0556
  195POPC   D2A 2767   8.061   2.185   5.777  0.2978  0.0861 -0.0303
  195POPC   C3A 2768   7.970   2.393   6.223 -0.0057  0.0773  0.1972
  195POPC   C4A 2769   8.007   2.516   6.669 -0.0691 -0.0398  0.3067
  195POPC   C1B 2770   8.684   2.420   5.221  0.2391  0.3763  0.2362
  195POPC   C2B 2771   8.664   2.483   5.619 -0.1906  0.0404  0.1446
  195POPC   C3B 2772   8.503   2.754   5.920  0.2361 -0.1651  0.0214
  195POPC   C4B 2773   8.272   2.902   6.299 -0.0825 -0.4328 -0.2663
  196POPC   NC3 2774   6.181   0.403   4.563  0.0602  0.0377 -0.1548
  196POPC   PO4 2775   6.360   0.776   4.773 -0.1534 -0.2714 -0.2531
  196POPC   GL1 2776   6.154   0.569   5.049 -0.0226 -0.0696 -0.0423
  196POPC   GL2 2777   6.089   0.207   5.063  0.0240  0.4036  0.1337
  196POPC   C1A 2778   6.108   0.562   5.522 -0.2056 -0.4696  0.2115
  196POPC   D2A 2779   6.193   0.752   5.937 -0.3321  0.1529  0.1480
  196POPC   C3A 2780   6.328   0.556   6.357 -0.1506  0.2423  0.1785
  196POPC   C4A 2781   6.397   0.467   6.740 -0.2093  0.2347 -0.1638
  196POPC   C1B 2782   5.957   0.085   5.573  0.2368 -0.1285  0.1117
  196POPC   C2B 2783   5.772  -0.217   5.956 -0.0334  0.4375 -0.4236
  196POPC   C3B 2784   5.541  -0.262   6.267 -0.3449  0.0448  0.0846
  196POPC   C4B 2785   5.480  -0.144   6.686  0.3103 -0.3919  0.2109
  197POPC   NC3 2786   7.541   6.657   4.615  0.3186  0.0377 -0.2740
  197POPC   PO4 2787   7.613   6.783   5.004 -0.2926 -0.2743 -0.0133
  197POPC   GL1 2788   7.512   6.994   5.454  0.0841 -0.0642  0.1995
  197POPC   GL2 2789   7.662   7.285   5.399 -0.2795  0.0874  0.0254
  197POPC   C1A 2790   7.501   7.063   5.860 -0.0795  0.2453 -0.1139
  197POPC   D2A 2791   7.196   6.975   6.155 -0.0330 -0.2105  0.0542
  197POPC   C3A 2792   7.122   7.124   6.548  0.0504  0.1340 -0.2278
  197POPC   C4A 2793   6.941   7.266   6.891  0.1574 -0.2953  0.0305
  197POPC   C1B 2794   7.960   7.269   5.725 -0.0857  0.0863  0.0644
  197POPC   C2B 2795   8.196   7.070   6.128 -0.2078 -0.0568 -0.0434
  197POPC   C3B 2796   8.496   7.133   6.428 -0.5087  0.1289  0.1791
  197POPC   C4B 2797   8.874   7.079   6.607  0.2986 -0.2505  0.2520
  198POPC   NC3 2798   9.958   7.811   4.670 -0.0818  0.0784  0.0475
  198POPC   PO4 2799  10.257   7.627   4.367 -0.1284 -0.1115  0.1212
  198POPC   GL1 2800  10.470   7.509   4.709  0.0909  0.2554 -0.4143
  198POPC   GL2 2801  10.489   7.689   4.990 -0.1612 -0.1029  0.0982
  198POPC   C1A 2802  10.502   7.179   4.925  0.2141  0.1355 -0.1342
  198POPC   D2A 2803  10.938   7.001   5.026 -0.2219 -0.1438  0.0469
  198POPC   C3A 2804  11.007   6.996   5.412  0.0081 -0.0514 -0.0314
  198POPC   C4A 2805  10.979   7.081   5.846  0.0231 -0.3948  0.1606
  198POPC   C1B 2806  10.348   7.682   5.407  0.1079 -0.1731 -0.1139
  198POPC   C2B 2807  10.206   7.676   5.805 -0.2773  0.0615  0.1543
  198POPC   C3B 2808   9.937   7.955   6.062 -0.0870 -0.0777 -0.4098
  198POPC   C4B 2809   9.452   8.024   6.039 -0.3451 -0.1672 -0.0583
  199POPC   NC3 2810   4.855   7.150   5.144  0.2676  0.1725  0.1782
  199POPC   PO4 2811   4.524   6.879   5.137  0.0589  0.1400 -0.3778
  199POPC   GL1 2812   4.485   7.152   5.487  0.2757 -0.2354 -0.2049
  199POPC   GL2 2813   4.665   6.944   5.669 -0.2639 -0.2933 -0.2792
  199POPC   C1A 2814   4.346   7.328   5.909 -0.0672 -0.1897  0.2291
  199POPC   D2A 2815   4.298   7.622   6.243  0.0154  0.1116  0.1219
  199POPC   C3A 2816   4.595   7.844   6.446  0.3228 -0.3651 -0.0749
  199POPC   C4A 2817   4.407   8.051   6.759  0.0543  0.4875  0.5097
  199POPC   C1B 2818   4.717   6.765   6.119 -0.2390  0.0358 -0.1538
  199POPC   C2B 2819   4.438   6.809   6.473  0.1933 -0.1269  0.0837
  199POPC   C3B 2820   4.100   6.959   6.765 -0.5179 -0.1031 -0.2007
  199POPC   C4B 2821   3.674   6.776   6.743 -0.1661  0.2750 -0.1128
  200POPC   NC3 2822   6.469   4.725   4.711 -0.2243  0.3883 -0.0465
  200POPC   PO4 2823   6.546   4.411   5.010 -0.0403 -0.0572 -0.2270
  200POPC   GL1 2824   6.688   4.328   5.353 -0.0364 -0.0448 -0.0464
  200POPC   GL2 2825   6.787   3.991   5.434 -0.0437  0.0978  0.0393
  200POPC   C1A 2826   6.736   4.538   5.739 -0.0705  0.1953  0.1922
  200POPC   D2A 2827   7.158   4.703   5.962 -0.0372 -0.0268 -0.1027
  200POPC   C3A 2828   7.561   4.669   6.341  0.1929  0.1945 -0.0421
  200POPC   C4A 2829   7.903   4.541   6.626  0.3273 -0.1202  0.0457
  200POPC   C1B 2830   6.612   4.054   5.908  0.5438  0.4285 -0.0603
  200POPC   C2B 2831   6.214   4.151   6.100  0.3426  0.1189 -0.3171
  200POPC   C3B 2832   6.071   4.212   6.477 -0.1174  0.1169 -0.0665
  200POPC   C4B 2833   5.696   4.005   6.758  0.1305 -0.0567 -0.1043
  201POPC   NC3 2834   9.251   9.801   4.852  0.1513 -0.1872 -0.2409
  201POPC   PO4 2835   9.205  10.193   5.115 -0.1284  0.1666 -0.0274
  201POPC   GL1 2836   9.393  10.347   5.493 -0.5296  0.1308 -0.0151
  201POPC   GL2 2837   9.481  10.672   5.431  0.3732  0.1356 -0.1574
  201POPC   C1A 2838   9.520  10.370   5.986  0.0207  0.1011  0.0365
  201POPC   D2A 2839   9.713  10.606   6.390  0.2765  0.2890 -0.0860
  201POPC   C3A 2840   9.644  11.026   6.274  0.1692  0.1843  0.0338
  201POPC   C4A 2841   9.314  11.282   6.078 -0.1415 -0.1585  0.0203
  201POPC   C1B 2842   9.400  10.876   5.804  0.1749 -0.2330 -0.2080
  201POPC   C2B 2843   9.184  10.813   6.176 -0.0982  0.1833 -0.1209
  201POPC   C3B 2844   9.374  10.799   6.665 -0.1782 -0.1592 -0.2362
  201POPC   C4B 2845   9.312  10.468   6.939  0.1471 -0.0007  0.2217
  202POPC   NC3 2846   4.047   4.082   4.251 -0.0827 -0.3551  0.0219
  202POPC   PO4 2847   3.982   4.492   4.166  0.0464  0.1512  0.1276
  202POPC   GL1 2848   3.719   4.409   4.537  0.2027  0.3479  0.6079
  202POPC   GL2 2849   3.922   4.192   4.731 -0.2948 -0.2790  0.0917
  202POPC   C1A 2850   3.463   4.318   5.028 -0.0389 -0.0196  0.0089
  202POPC   D2A 2851   3.102   4.260   5.322 -0.1095  0.1116  0.0764
  202POPC   C3A 2852   2.784   3.886   5.271 -0.1076 -0.1057 -0.1477
  202POPC   C4A 2853   2.893   3.590   4.938 -0.0769  0.1655  0.3419
  202POPC   C1B 2854   3.921   4.172   5.121 -0.0847 -0.0731  0.0178
  202POPC   C2B 2855   3.732   4.242   5.523  0.3513 -0.2234 -0.0616
  202POPC   C3B 2856   3.612   4.060   5.935  0.3170 -0.0460 -0.0168
  202POPC   C4B 2857   3.497   3.796   6.243 -0.0672 -0.3166 -0.0956
  203POPC   NC3 2858   7.591   9.617   4.704  0.4274 -0.1304 -0.2398
  203POPC   PO4 2859   7.899   9.863   4.926 -0.0955 -0.2537 -0.0438
  203POPC   GL1 2860   7.850  10.053   5.396  0.0277  0.0000 -0.1055
  203POPC   GL2 2861   7.442  10.172   5.381  0.0496 -0.0836 -0.0178
  203POPC   C1A 2862   7.958  10.153   5.774  0.2519 -0.2618  0.1477
  203POPC   D2A 2863   7.713  10.141   6.100 -0.1877 -0.1089  0.0524
  203POPC   C3A 2864   7.719  10.624   6.365  0.3254  0.1235  0.2178
  203POPC   C4A 2865   7.802  10.807   6.778 -0.1690 -0.1048 -0.1119
  203POPC   C1B 2866   7.404  10.272   5.688 -0.2032 -0.0249 -0.5630
  203POPC   C2B 2867   7.410  10.581   5.930 -0.1868 -0.2003  0.0277
  203POPC   C3B 2868   7.265  10.710   6.333 -0.0538  0.0803 -0.1382
  203POPC   C4B 2869   6.885  10.618   6.522 -0.0091  0.0265  0.3559
  204POPC   NC3 2870   8.775   2.717   4.216 -0.0506 -0.0354 -0.0616
  204POPC   PO4 2871   9.012   2.897   3.902  0.2738  0.2041  0.2651
  204POPC   GL1 2872   9.204   2.984   4.317 -0.0068  0.0729  0.0680
  204POPC   GL2 2873   9.589   3.000   4.222 -0.1947  0.0398 -0.1141
  204POPC   C1A 2874   9.271   2.973   4.708 -0.0913  0.1981 -0.0364
  204POPC   D2A 2875   9.167   3.002   5.132  0.0128 -0.1166 -0.0414
  204POPC   C3A 2876   9.329   3.030   5.500 -0.0036  0.4092 -0.2372
  204POPC   C4A 2877   9.582   2.768   5.737 -0.2141 -0.1211 -0.4543
  204POPC   C1B 2878   9.491   3.379   4.500  0.2252 -0.3158  0.0624
  204POPC   C2B 2879   9.441   3.425   4.797 -0.2162 -0.3524  0.1157
  204POPC   C3B 2880   9.367   3.458   5.244 -0.2517  0.1497  0.1481
  204POPC   C4B 2881   9.086   3.552   5.649  0.0233  0.0465 -0.0257
  205POPC   NC3 2882   4.436   5.894   4.417  0.0583 -0.1193  0.1358
  205POPC   PO4 2883   4.004   5.652   4.447 -0.1228  0.0112 -0.0124
  205POPC   GL1 2884   3.806   5.817   4.775 -0.3490 -0.2774 -0.0237
  205POPC   GL2 2885   3.919   5.966   5.148  0.0555  0.1633 -0.2595
  205POPC   C1A 2886   3.466   5.784   4.979 -0.0225  0.2791 -0.0219
  205POPC   D2A 2887   3.168   5.461   4.891 -0.0651 -0.1475 -0.0990
  205POPC   C3A 2888   2.753   5.518   5.072  0.1288 -0.2896 -0.0836
  205POPC   C4A 2889   2.484   5.856   5.223  0.0987 -0.2196  0.3792
  205POPC   C1B 2890   3.924   6.128   5.506 -0.3622  0.1726  0.0410
  205POPC   C2B 2891   4.101   6.059   5.950 -0.1414  0.0261 -0.2971
  205POPC   C3B 2892   4.212   5.859   6.296  0.2836 -0.1782 -0.0418
  205POPC   C4B 2893   4.056   5.750   6.717  0.0154 -0.3009 -0.0867
  206POPC   NC3 2894   1.124   8.114   4.619 -0.2618  0.0114 -0.0785
  206POPC   PO4 2895   0.966   8.563   4.908  0.1792  0.0168  0.1716
  206POPC   GL1 2896   1.015   8.501   5.458 -0.0773  0.5216 -0.0934
  206POPC   GL2 2897   1.331   8.252   5.607  0.0944 -0.3859 -0.1446
  206POPC   C1A 2898   1.098   8.732   5.792 -0.0596  0.2962  0.3401
  206POPC   D2A 2899   1.011   8.730   6.198 -0.0919 -0.0105 -0.0184
  206POPC   C3A 2900   1.345   8.723   6.495  0.2955  0.1013 -0.2321
  206POPC   C4A 2901   1.370   8.406   6.858  0.0020 -0.0579  0.2064
  206POPC   C1B 2902   0.966   8.260   5.921  0.0499  0.1680  0.1432
  206POPC   C2B 2903   0.693   8.064   6.092 -0.1492  0.4128  0.2070
  206POPC   C3B 2904   0.342   7.739   6.235  0.2307  0.0556  0.1037
  206POPC   C4B 2905  -0.075   7.582   6.457  0.1990  0.0983 -0.3649
  207POPC   NC3 2906   8.371   7.170   5.151  0.1284 -0.1651  0.0374
  207POPC   PO4 2907   8.081   6.827   5.163  0.3863  0.0319 -0.2554
  207POPC   GL1 2908   8.069   6.758   5.570 -0.0197 -0.0567  0.0674
  207POPC   GL2 2909   7.798   6.597   5.550  0.1272  0.0635  0.0633
  207POPC   C1A 2910   8.101   6.554   5.948  0.3368 -0.3736 -0.0363
  207POPC   D2A 2911   8.202   6.533   6.347  0.2641  0.0657  0.1203
  207POPC   C3A 2912   8.145   6.896   6.719 -0.4414 -0.4117 -0.1515
  207POPC   C4A 2913   7.967   7.062   7.097  0.0243 -0.0490  0.0287
  207POPC   C1B 2914   7.586   6.603   5.918 -0.2252 -0.0555  0.1784
  207POPC   C2B 2915   7.717   6.419   6.264 -0.0169  0.3899 -0.2439
  207POPC   C3B 2916   7.905   6.345   6.716  0.2771  0.1072  0.0658
  207POPC   C4B 2917   8.213   6.471   6.900 -0.3356 -0.2244 -0.0997
  208POPC   NC3 2918   0.479   4.397   3.264  0.4549 -0.0418  0.2594
  208POPC   PO4 2919   0.996   4.233   3.133 -0.1467 -0.2595  0.2475
  208POPC   GL1 2920   0.706   4.051   3.567 -0.1325 -0.1189  0.1517
  208POPC   GL2 2921   0.855   3.937   3.763 -0.1277  0.1581  0.1587
  208POPC   C1A 2922   0.646   4.428   3.867 -0.0767  0.1613  0.2050
  208POPC   D2A 2923   0.745   4.839   3.799  0.2606  0.1474 -0.1946
  208POPC   C3A 2924   0.394   5.140   3.940 -0.0646  0.1991  0.0228
  208POPC   C4A 2925   0.240   5.427   4.264 -0.0162  0.0501  0.0321
  208POPC   C1B 2926   0.892   4.069   4.199 -0.0416  0.2551  0.0724
  208POPC   C2B 2927   0.676   4.421   4.456  0.1793  0.1823  0.0523
  208POPC   C3B 2928   0.652   4.806   4.722  0.5257 -0.0674  0.1239
  208POPC   C4B 2929   0.328   5.128   4.743 -0.1352 -0.0063  0.2616
  209POPC   NC3 2930   8.639   6.786   4.942  0.0356  0.1555  0.0388
  209POPC   PO4 2931   8.942   7.021   4.877 -0.0412 -0.1533  0.2469
  209POPC   GL1 2932   9.295   6.829   5.033 -0.0562 -0.1181 -0.1428
  209POPC   GL2 2933   9.085   6.586   5.151 -0.4412 -0.1044 -0.1130
  209POPC   C1A 2934   9.467   6.717   5.526  0.0015  0.1998 -0.0802
  209POPC   D2A 2935   9.694   6.822   5.957  0.1408  0.2854 -0.0514
  209POPC   C3A 2936   9.777   6.615   6.416 -0.0653 -0.0145 -0.0865
  209POPC   C4A 2937   9.943   6.319   6.686  0.1807  0.0344  0.0246
  209POPC   C1B 2938   8.820   6.504   5.440  0.3408  0.2653 -0.0732
  209POPC   C2B 2939   8.690   6.470   5.902  0.0990  0.1529  0.0480
  209POPC   C3B 2940   8.680   6.657   6.393 -0.2932 -0.0643 -0.0851
  209POPC   C4B 2941   8.637   6.733   6.811  0.0633  0.0906  0.0587
  210POPC   NC3 2942   2.940   8.517   4.797  0.2025 -0.0311 -0.0214
  210POPC   PO4 2943   3.015   8.338   5.221 -0.1009  0.1017  0.2129
  210POPC   GL1 2944   2.924   8.591   5.567  0.1376 -0.3001 -0.1792
  210POPC   GL2 2945   2.816   8.963   5.577  0.1749  0.1164  0.1570
  210POPC   C1A 2946   3.059   8.733   5.938  0.1213  0.2309 -0.1855
  210POPC   D2A 2947   3.300   8.549   6.354 -0.2054 -0.0174  0.1020
  210POPC   C3A 2948   3.647   8.303   6.298  0.2137 -0.2445 -0.1452
  210POPC   C4A 2949   3.937   7.931   6.521  0.0739 -0.0412  0.3165
  210POPC   C1B 2950   2.701   9.165   5.996 -0.2371  0.1726 -0.0193
  210POPC   C2B 2951   2.250   8.979   6.182 -0.1225 -0.2739  0.2391
  210POPC   C3B 2952   1.831   8.918   6.366  0.0516  0.2106  0.2426
  210POPC   C4B 2953   1.648   8.943   6.823 -0.2311  0.0321  0.0917
  211POPC   NC3 2954   3.466   3.975   3.547 -0.0015 -0.1372 -0.3462
  211POPC   PO4 2955   3.550   3.759   3.994  0.0978 -0.1536  0.0566
  211POPC   GL1 2956   3.674   3.763   4.498  0.0767  0.1309  0.1111
  211POPC   GL2 2957   3.448   3.868   4.786  0.0159 -0.3214  0.1283
  211POPC   C1A 2958   3.792   3.630   4.971  0.0229  0.0411  0.3949
  211POPC   D2A 2959   4.015   3.385   5.345 -0.3462 -0.0476  0.0333
  211POPC   C3A 2960   4.418   3.505   5.541 -0.1725  0.2212  0.1084
  211POPC   C4A 2961   4.558   3.973   5.846 -0.0025 -0.1109 -0.0064
  211POPC   C1B 2962   3.462   3.877   5.252  0.0536  0.1689 -0.2305
  211POPC   C2B 2963   3.657   3.722   5.551  0.0395  0.2237  0.0378
  211POPC   C3B 2964   3.641   3.478   5.828 -0.2339 -0.0630 -0.1573
  211POPC   C4B 2965   3.874   3.445   6.243 -0.0082 -0.2256 -0.2647
  212POPC   NC3 2966   4.057   1.760   4.558 -0.2176 -0.0242 -0.2790
  212POPC   PO4 2967   4.160   1.469   4.836 -0.2238 -0.2823 -0.1467
  212POPC   GL1 2968   4.086   1.676   5.119 -0.1307  0.0984  0.1744
  212POPC   GL2 2969   3.929   1.932   5.001 -0.1846 -0.1506  0.0344
  212POPC   C1A 2970   4.025   1.841   5.501 -0.0469  0.0250 -0.1091
  212POPC   D2A 2971   3.953   2.113   5.889 -0.3491  0.2317 -0.0716
  212POPC   C3A 2972   3.792   2.495   6.139 -0.1467 -0.1013  0.2422
  212POPC   C4A 2973   3.369   2.694   6.209  0.1181  0.2372  0.0588
  212POPC   C1B 2974   3.569   2.283   5.045 -0.2444  0.1248  0.0597
  212POPC   C2B 2975   3.225   2.307   5.435  0.3361  0.1137 -0.1483
  212POPC   C3B 2976   3.195   2.648   5.729  0.2707  0.1344  0.0429
  212POPC   C4B 2977   2.824   2.796   5.886 -0.0454  0.1234 -0.2398
  213POPC   NC3 2978   1.984   0.090   4.659 -0.1153  0.1084  0.1117
  213POPC   PO4 2979   2.010   0.483   4.470  0.4148 -0.2135 -0.0248
  213POPC   GL1 2980   2.195   0.369   4.966  0.4109 -0.2314  0.2379
  213POPC   GL2 2981   2.136   0.285   5.251 -0.0085 -0.2113 -0.0397
  213POPC   C1A 2982   2.473   0.629   5.201  0.2413 -0.2518 -0.0273
  213POPC   D2A 2983   2.573   0.605   5.654  0.0819  0.1643  0.1527
  213POPC   C3A 2984   2.323   0.296   5.788 -0.0928  0.1705  0.0063
  213POPC   C4A 2985   2.041  -0.112   6.059 -0.1419 -0.0483  0.1855
  213POPC   C1B 2986   1.743   0.169   5.504  0.2499  0.3468  0.3224
  213POPC   C2B 2987   1.538  -0.082   5.779  0.0303 -0.2158  0.1393
  213POPC   C3B 2988   1.234   0.008   6.065  0.0234 -0.0358 -0.1177
  213POPC   C4B 2989   1.172   0.225   6.421 -0.1283 -0.0888 -0.2140
  214POPC   NC3 2990   8.835   0.326   4.342  0.0686  0.3499 -0.0706
  214POPC   PO4 2991   8.705   0.588   4.691  0.0885 -0.0454 -0.0945
  214POPC   GL1 2992   8.514   0.867   5.105  0.0042  0.0077  0.1095
  214POPC   GL2 2993   8.754   0.766   5.453  0.2621  0.3182  0.0132
  214POPC   C1A 2994   8.296   1.018   5.453 -0.1013 -0.1760  0.0754
  214POPC   D2A 2995   8.317   0.802   5.853 -0.2209  0.0821  0.0684
  214POPC   C3A 2996   8.174   0.581   6.137 -0.3070  0.1353 -0.0012
  214POPC   C4A 2997   8.289   0.449   6.572  0.2762  0.2015 -0.2016
  214POPC   C1B 2998   9.006   0.483   5.653  0.1450  0.0156 -0.2154
  214POPC   C2B 2999   9.062   0.225   6.073  0.1317 -0.0599  0.0396
  214POPC   C3B 3000   9.332   0.203   6.466  0.0254  0.0903  0.0376
  214POPC   C4B 3001   9.708   0.056   6.642 -0.0456 -0.4275  0.3742
  215POPC   NC3 3002   0.689   7.586   4.313  0.0440  0.1321 -0.4164
  215POPC   PO4 3003   0.867   7.701   4.645 -0.1263  0.3047  0.4014
  215POPC   GL1 3004   0.863   7.614   5.045 -0.0766 -0.1265 -0.2746
  215POPC   GL2 3005   1.148   7.333   5.128  0.0466 -0.2544 -0.3626
  215POPC   C1A 3006   0.777   7.494   5.394 -0.2444  0.0380 -0.0256
  215POPC   D2A 3007   0.564   7.484   5.813  0.0482 -0.1311 -0.3306
  215POPC   C3A 3008   0.767   7.547   6.171 -0.1201  0.0233  0.1806
  215POPC   C4A 3009   0.774   7.774   6.476  0.4538  0.0805 -0.3453
  215POPC   C1B 3010   1.398   7.010   5.322 -0.1743  0.3346 -0.2684
  215POPC   C2B 3011   1.253   6.740   5.730  0.0381 -0.0993  0.0697
  215POPC   C3B 3012   0.904   6.588   5.799 -0.2853 -0.0097  0.2569
  215POPC   C4B 3013   0.497   6.786   5.771  0.1544 -0.1300 -0.2524
  216POPC   NC3 3014   8.872   7.377   4.558  0.5740  0.0645  0.4887
  216POPC   PO4 3015   8.664   7.565   4.972  0.4967  0.0578 -0.0093
  216POPC   GL1 3016   8.815   7.472   5.313  0.0743  0.0725  0.1210
  216POPC   GL2 3017   8.822   7.754   5.453  0.2063  0.1890  0.0152
  216POPC   C1A 3018   8.945   7.311   5.843 -0.1587 -0.3902  0.3791
  216POPC   D2A 3019   9.103   7.583   6.103  0.3880 -0.0241  0.1390
  216POPC   C3A 3020   9.269   7.450   6.622  0.2429 -0.1539 -0.1859
  216POPC   C4A 3021   9.217   7.198   7.030 -0.1755 -0.3019  0.1848
  216POPC   C1B 3022   8.600   7.693   5.875 -0.0513 -0.2390 -0.0099
  216POPC   C2B 3023   8.633   7.607   6.354 -0.1032 -0.2686 -0.1237
  216POPC   C3B 3024   8.329   7.558   6.708  0.2233  0.2554  0.2814
  216POPC   C4B 3025   8.170   7.773   7.070 -0.1822 -0.0680  0.1815
  217POPC   NC3 3026   6.868   0.512   4.912 -0.0429  0.3643  0.3896
  217POPC   PO4 3027   6.594   0.246   4.882  0.3212 -0.2564 -0.1762
  217POPC   GL1 3028   6.590   0.399   5.269 -0.0507  0.3835 -0.1307
  217POPC   GL2 3029   6.571   0.760   5.323 -0.1138 -0.1663  0.0085
  217POPC   C1A 3030   6.625   0.250   5.596 -0.0251  0.1172  0.1793
  217POPC   D2A 3031   6.302   0.271   5.922  0.2686 -0.2591  0.4228
  217POPC   C3A 3032   5.985   0.140   6.232 -0.2270  0.0115 -0.0446
  217POPC   C4A 3033   5.925   0.046   6.651  0.1539  0.1767  0.2675
  217POPC   C1B 3034   6.577   1.014   5.678 -0.3785  0.1436 -0.1317
  217POPC   C2B 3035   6.662   0.967   6.193  0.6147  0.2202  0.2870
  217POPC   C3B 3036   6.985   1.000   6.505  0.1851 -0.0633 -0.0717
  217POPC   C4B 3037   7.409   1.035   6.651  0.1055  0.2094  0.3414
  218POPC   NC3 3038   8.514   7.997   4.905  0.0976  0.0744 -0.2934
  218POPC   PO4 3039   8.440   8.484   4.861  0.0751  0.0151 -0.1150
  218POPC   GL1 3040   8.679   8.520   5.234 -0.2729  0.2684 -0.2172
  218POPC   GL2 3041   8.678   8.273   5.361  0.2295  0.1036  0.0823
  218POPC   C1A 3042   9.051   8.631   5.484 -0.0521 -0.1628  0.2388
  218POPC   D2A 3043   9.415   8.905   5.612 -0.2925 -0.0886  0.1022
  218POPC   C3A 3044   9.430   9.322   5.825  0.1560 -0.0114 -0.1563
  218POPC   C4A 3045   9.242   9.818   5.870 -0.0549  0.0333 -0.1805
  218POPC   C1B 3046   8.655   8.388   5.741  0.0144 -0.0456  0.1878
  218POPC   C2B 3047   8.952   8.540   6.056 -0.0229 -0.2058  0.0103
  218POPC   C3B 3048   9.245   8.795   6.177 -0.0041  0.0741  0.1403
  218POPC   C4B 3049   9.659   8.741   6.450 -0.1645  0.1064 -0.2014
  219POPC   NC3 3050   5.900   7.040   5.072  0.1495  0.1078  0.3583
  219POPC   PO4 3051   6.340   7.242   4.907  0.0885  0.2937  0.0188
  219POPC   GL1 3052   6.373   7.185   5.263 -0.1959  0.0828 -0.0197
  219POPC   GL2 3053   6.258   7.309   5.513  0.0568  0.0870 -0.0816
  219POPC   C1A 3054   6.417   6.879   5.629  0.2188 -0.0263  0.3622
  219POPC   D2A 3055   6.628   6.513   5.750 -0.0154  0.1537 -0.3221
  219POPC   C3A 3056   6.620   6.446   6.247 -0.3111  0.2072  0.1474
  219POPC   C4A 3057   6.767   6.739   6.598 -0.1880  0.1476  0.4371
  219POPC   C1B 3058   6.586   7.409   5.844 -0.1743  0.4231 -0.0496
  219POPC   C2B 3059   6.920   7.478   6.209  0.0435 -0.1340  0.3693
  219POPC   C3B 3060   7.354   7.490   6.209  0.0595 -0.1812  0.1751
  219POPC   C4B 3061   7.565   7.560   5.790  0.3130  0.1792 -0.0305
  220POPC   NC3 3062   7.323   1.430   4.043  0.0941  0.3048 -0.4368
  220POPC   PO4 3063   7.219   1.294   4.517  0.3161 -0.0441 -0.2109
  220POPC   GL1 3064   7.080   1.318   4.855  0.2326  0.1232 -0.0060
  220POPC   GL2 3065   6.878   1.038   4.979  0.0518 -0.2660 -0.0241
  220POPC   C1A 3066   6.776   1.565   5.036 -0.2332  0.0748  0.2308
  220POPC   D2A 3067   6.892   2.020   4.988 -0.3164  0.0217  0.0743
  220POPC   C3A 3068   6.787   2.311   5.327  0.2295 -0.2029 -0.0623
  220POPC   C4A 3069   6.570   2.347   5.600  0.0265  0.1353  0.1165
  220POPC   C1B 3070   6.993   1.086   5.386 -0.0175 -0.1219 -0.0526
  220POPC   C2B 3071   7.135   1.064   5.943 -0.0022 -0.1220  0.1352
  220POPC   C3B 3072   7.511   0.987   6.093 -0.2911 -0.1458  0.3240
  220POPC   C4B 3073   7.818   0.754   5.879  0.4927 -0.0366  0.0877
  221POPC   NC3 3074   2.870   9.454   5.427 -0.2163 -0.0842  0.2791
  221POPC   PO4 3075   2.559   9.270   5.262  0.0396 -0.1977 -0.0378
  221POPC   GL1 3076   2.302   9.398   5.650 -0.0160  0.2955 -0.2020
  221POPC   GL2 3077   2.035   9.231   5.738  0.3099 -0.2035 -0.3715
  221POPC   C1A 3078   2.360   9.456   6.140  0.0044  0.0989  0.1911
  221POPC   D2A 3079   2.632   9.224   6.485  0.2471 -0.1930  0.1073
  221POPC   C3A 3080   2.450   9.021   6.793  0.1130 -0.0084 -0.0467
  221POPC   C4A 3081   2.143   8.718   6.757  0.3007 -0.1050  0.0017
  221POPC   C1B 3082   1.875   9.376   6.199 -0.0553  0.0117 -0.1264
  221POPC   C2B 3083   1.603   9.722   6.236 -0.0509  0.0443  0.0484
  221POPC   C3B 3084   1.639  10.018   6.567  0.1283 -0.0725  0.1376
  221POPC   C4B 3085   1.578  10.311   6.856  0.2062  0.0331 -0.0829
  222POPC   NC3 3086   7.267   3.417   4.918  0.0699 -0.3964 -0.1166
  222POPC   PO4 3087   6.967   3.256   4.610 -0.2496 -0.2482 -0.0177
  222POPC   GL1 3088   6.927   3.124   5.057  0.2231  0.2155 -0.0182
  222POPC   GL2 3089   6.637   3.263   5.282 -0.2394 -0.4558  0.0800
  222POPC   C1A 3090   7.006   2.783   5.383 -0.1954 -0.2705 -0.2982
  222POPC   D2A 3091   7.083   2.608   5.854 -0.1159 -0.0043 -0.1568
  222POPC   C3A 3092   7.319   2.709   6.123 -0.2371  0.0603 -0.2986
  222POPC   C4A 3093   7.112   2.611   6.581  0.0850  0.0011 -0.2997
  222POPC   C1B 3094   6.293   3.140   5.555 -0.1703  0.0344 -0.3290
  222POPC   C2B 3095   6.222   3.066   5.939 -0.1588  0.4170  0.0150
  222POPC   C3B 3096   6.458   3.222   6.189  0.0441  0.2718 -0.2482
  222POPC   C4B 3097   6.850   3.056   6.324 -0.2607  0.0510  0.2680
  223POPC   NC3 3098   6.343   5.137   4.483  0.0042 -0.0256  0.2173
  223POPC   PO4 3099   6.358   5.498   4.806 -0.0223  0.0775  0.1561
  223POPC   GL1 3100   6.101   5.708   5.145  0.3242  0.0401  0.1301
  223POPC   GL2 3101   5.879   5.523   5.241  0.1007 -0.2910  0.0643
  223POPC   C1A 3102   6.217   5.668   5.602  0.0146  0.1024 -0.2212
  223POPC   D2A 3103   6.525   5.597   5.902  0.1616  0.0386  0.1452
  223POPC   C3A 3104   6.554   5.398   6.203 -0.1053 -0.2180 -0.1960
  223POPC   C4A 3105   6.726   4.877   6.142 -0.3648 -0.1206  0.2198
  223POPC   C1B 3106   5.762   5.492   5.611 -0.0539 -0.3926 -0.2560
  223POPC   C2B 3107   5.503   5.459   5.941  0.3108 -0.2313 -0.1103
  223POPC   C3B 3108   5.241   5.596   6.397  0.0355  0.2983 -0.1000
  223POPC   C4B 3109   4.815   5.576   6.658 -0.1289  0.1583 -0.0982
  224POPC   NC3 3110   5.777   4.633   3.993  0.4027 -0.1136 -0.2724
  224POPC   PO4 3111   6.033   4.701   4.442  0.0650 -0.1302  0.1435
  224POPC   GL1 3112   5.862   4.898   4.789 -0.2191 -0.1563 -0.2141
  224POPC   GL2 3113   5.559   5.110   4.816 -0.0908 -0.0568 -0.1837
  224POPC   C1A 3114   6.063   5.029   5.141 -0.0260 -0.0686  0.1794
  224POPC   D2A 3115   5.917   4.995   5.598  0.0962 -0.1226 -0.1181
  224POPC   C3A 3116   5.624   4.824   5.842 -0.0299 -0.0879  0.0649
  224POPC   C4A 3117   5.403   4.493   5.916 -0.0613 -0.3924 -0.0486
  224POPC   C1B 3118   5.568   4.836   5.326 -0.1819  0.1463  0.3432
  224POPC   C2B 3119   5.698   4.421   5.473  0.3368  0.3081 -0.0534
  224POPC   C3B 3120   5.895   4.244   5.769  0.0594 -0.1688  0.2226
  224POPC   C4B 3121   5.831   4.439   6.122  0.1900  0.1906  0.0212
  225POPC   NC3 3122   9.286   4.797   3.491 -0.3320  0.0472  0.3197
  225POPC   PO4 3123   9.196   4.576   3.783 -0.0771 -0.0289  0.0517
  225POPC   GL1 3124   9.417   4.558   4.119  0.0303 -0.1711  0.5489
  225POPC   GL2 3125   9.428   4.737   4.440 -0.0432  0.0082 -0.0217
  225POPC   C1A 3126   9.825   4.395   4.304  0.0892  0.1533  0.0449
  225POPC   D2A 3127  10.133   4.211   4.593 -0.0840  0.0637 -0.2541
  225POPC   C3A 3128  10.394   4.508   4.786  0.0935  0.0852 -0.2010
  225POPC   C4A 3129  10.253   4.777   5.192 -0.0164 -0.1052  0.6935
  225POPC   C1B 3130   9.219   4.913   4.844  0.0696 -0.0890 -0.0122
  225POPC   C2B 3131   9.347   5.351   5.014  0.1397  0.0115  0.0217
  225POPC   C3B 3132   9.268   5.574   5.243 -0.0650 -0.1621 -0.3036
  225POPC   C4B 3133   8.927   5.688   5.374  0.0280  0.1439 -0.0247
  226POPC   NC3 3134   6.153   4.251   4.708  0.2339 -0.1236 -0.0816
  226POPC   PO4 3135   6.112   3.819   4.825  0.0688  0.0534 -0.0407
  226POPC   GL1 3136   5.916   4.035   5.149 -0.1291  0.0236  0.1828
  226POPC   GL2 3137   6.180   4.173   5.288 -0.1146  0.2187 -0.0862
  226POPC   C1A 3138   5.791   3.769   5.423  0.1169 -0.0419 -0.3129
  226POPC   D2A 3139   5.408   3.476   5.674  0.1585 -0.0039 -0.2145
  226POPC   C3A 3140   5.656   3.342   5.996  0.3695 -0.2017  0.1197
  226POPC   C4A 3141   5.967   3.305   6.383  0.2650  0.0672  0.0097
  226POPC   C1B 3142   6.266   4.530   5.666 -0.0828  0.0495 -0.2670
  226POPC   C2B 3143   6.274   4.640   6.077 -0.0331 -0.0160  0.2428
  226POPC   C3B 3144   5.980   4.905   6.288  0.0036  0.2283 -0.1540
  226POPC   C4B 3145   5.763   4.745   6.647 -0.3093 -0.0498  0.0650
  227POPC   NC3 3146   6.622   1.968   4.175 -0.1146 -0.2559  0.0626
  227POPC   PO4 3147   6.389   1.527   4.382  0.0354  0.1400 -0.0892
  227POPC   GL1 3148   6.150   1.561   4.820 -0.2946 -0.3144  0.0544
  227POPC   GL2 3149   6.414   1.270   4.906 -0.0577  0.1296  0.1059
  227POPC   C1A 3150   5.885   1.554   5.280 -0.2052 -0.2041 -0.1515
  227POPC   D2A 3151   5.636   1.498   5.680 -0.0442  0.2646 -0.0118
  227POPC   C3A 3152   5.864   1.321   6.039 -0.1828  0.1138  0.0765
  227POPC   C4A 3153   6.058   1.054   6.275 -0.2204 -0.0318  0.0445
  227POPC   C1B 3154   6.418   1.385   5.415  0.1590  0.1497 -0.2045
  227POPC   C2B 3155   6.200   1.540   5.690 -0.3375 -0.2123 -0.0787
  227POPC   C3B 3156   5.941   1.823   5.995  0.1126 -0.0014 -0.0256
  227POPC   C4B 3157   5.851   2.179   6.174 -0.0012  0.0315  0.1771
  228POPC   NC3 3158   8.001   2.843   4.255  0.0468  0.1212 -0.0589
  228POPC   PO4 3159   8.240   3.149   4.431  0.2195 -0.2278 -0.0332
  228POPC   GL1 3160   8.228   3.130   4.926 -0.4195 -0.1002  0.2893
  228POPC   GL2 3161   8.213   2.805   5.070  0.3336 -0.2672 -0.2798
  228POPC   C1A 3162   8.313   3.145   5.471  0.0852  0.0203 -0.0416
  228POPC   D2A 3163   8.302   3.201   5.895 -0.0461  0.1169  0.0236
  228POPC   C3A 3164   8.666   3.516   6.080 -0.3613 -0.1258 -0.0397
  228POPC   C4A 3165   9.111   3.679   6.330  0.0959 -0.0249  0.0780
  228POPC   C1B 3166   8.159   2.692   5.554  0.1498 -0.3631  0.0458
  228POPC   C2B 3167   7.984   2.834   5.908 -0.1296  0.0221 -0.1551
  228POPC   C3B 3168   7.770   2.845   6.337 -0.1563  0.0765  0.0893
  228POPC   C4B 3169   7.522   3.027   6.543 -0.0441  0.1857 -0.1035
  229POPC   NC3 3170   0.381   9.043   4.956  0.0350 -0.2701 -0.0331
  229POPC   PO4 3171   0.161   8.893   5.342 -0.0741 -0.1414  0.2509
  229POPC   GL1 3172   0.357   8.681   5.713 -0.1004  0.0125  0.1311
  229POPC   GL2 3173   0.596   8.452   5.700  0.1174 -0.3291 -0.3826
  229POPC   C1A 3174   0.487   8.567   6.149 -0.0319  0.0791 -0.0840
  229POPC   D2A 3175   0.799   8.365   6.448 -0.1310 -0.0842  0.2676
  229POPC   C3A 3176   1.178   8.214   6.453 -0.1797 -0.0489 -0.0569
  229POPC   C4A 3177   1.409   7.922   6.593  0.0072  0.0338  0.2924
  229POPC   C1B 3178   0.228   8.196   5.890  0.0510  0.1495  0.1918
  229POPC   C2B 3179   0.253   8.212   6.415 -0.1828  0.3527  0.0948
  229POPC   C3B 3180   0.347   7.951   6.731  0.0081  0.1926 -0.0828
  229POPC   C4B 3181   0.564   7.846   7.066 -0.0150  0.0811 -0.0402
  230POPC   NC3 3182   7.052   2.770   4.643  0.1137 -0.2960 -0.0142
  230POPC   PO4 3183   7.398   2.506   4.718  0.2413 -0.2911  0.1359
  230POPC   GL1 3184   7.412   2.382   5.065  0.1351 -0.1242 -0.0132
  230POPC   GL2 3185   7.786   2.529   5.101  0.0758  0.4455 -0.0998
  230POPC   C1A 3186   7.261   2.235   5.514  0.0594 -0.4859 -0.0330
  230POPC   D2A 3187   6.951   1.958   5.748 -0.0827 -0.0774  0.1323
  230POPC   C3A 3188   6.636   1.787   5.508  0.0539  0.2637 -0.0910
  230POPC   C4A 3189   6.376   1.903   5.149 -0.0753  0.2330 -0.0539
  230POPC   C1B 3190   7.727   2.089   5.414  0.1796 -0.2339 -0.0032
  230POPC   C2B 3191   7.623   1.908   5.721 -0.0711 -0.2692  0.0559
  230POPC   C3B 3192   7.757   1.739   6.072 -0.0450  0.1948  0.0322
  230POPC   C4B 3193   7.668   1.875   6.502  0.1614  0.1182  0.0604
  231POPC   NC3 3194   4.301   5.409   4.129  0.1012  0.0005  0.0351
  231POPC   PO4 3195   4.714   5.375   4.334  0.0141  0.0044  0.1171
  231POPC   GL1 3196   4.330   5.254   4.644 -0.3232  0.0277  0.1353
  231POPC   GL2 3197   4.571   5.430   4.933 -0.1789 -0.2015 -0.0598
  231POPC   C1A 3198   3.995   5.038   4.819 -0.0361 -0.1296 -0.1554
  231POPC   D2A 3199   3.742   4.745   5.022 -0.2916  0.2074 -0.0600
  231POPC   C3A 3200   3.440   4.777   5.265  0.0619  0.0263  0.0627
  231POPC   C4A 3201   3.026   4.703   5.529 -0.0093 -0.2439  0.0162
  231POPC   C1B 3202   4.394   5.205   5.371  0.1184  0.2779  0.1269
  231POPC   C2B 3203   4.285   5.088   5.853 -0.0331 -0.2944  0.0089
  231POPC   C3B 3204   4.496   5.043   6.223  0.2090 -0.0197 -0.1269
  231POPC   C4B 3205   4.850   5.138   6.448 -0.1264  0.2750  0.0104
  232POPC   NC3 3206   3.762   5.196   3.323 -0.3556  0.0365 -0.1057
  232POPC   PO4 3207   3.297   4.988   3.335  0.1150  0.0820  0.2781
  232POPC   GL1 3208   3.031   4.991   3.741  0.1342 -0.0716 -0.0988
  232POPC   GL2 3209   2.991   5.140   3.985 -0.1175  0.1882 -0.2236
  232POPC   C1A 3210   3.012   4.632   3.962  0.1981 -0.0203  0.0751
  232POPC   D2A 3211   3.029   4.360   4.236 -0.0911  0.0458 -0.0363
  232POPC   C3A 3212   3.184   4.503   4.600  0.1731  0.2269  0.0364
  232POPC   C4A 3213   3.049   4.675   5.004 -0.0710 -0.2873  0.1982
  232POPC   C1B 3214   2.766   4.875   4.349  0.0750 -0.2222  0.1101
  232POPC   C2B 3215   2.687   4.596   4.683  0.2215 -0.0808  0.0845
  232POPC   C3B 3216   2.495   4.425   5.175 -0.1778 -0.0903 -0.0740
  232POPC   C4B 3217   2.226   4.047   5.284  0.1620  0.0706  0.0692
  233POPC   NC3 3218   4.263   3.014   4.271 -0.3556 -0.1317 -0.2023
  233POPC   PO4 3219   4.668   3.304   4.247 -0.2691  0.1610  0.1139
  233POPC   GL1 3220   4.600   3.281   4.730 -0.0508  0.1567  0.1604
  233POPC   GL2 3221   4.524   3.638   4.907 -0.1896 -0.1548 -0.3043
  233POPC   C1A 3222   4.402   3.114   5.149  0.2060  0.3236 -0.1826
  233POPC   D2A 3223   4.577   2.966   5.639  0.3025 -0.1969  0.4337
  233POPC   C3A 3224   4.921   3.195   5.700 -0.3194 -0.1391  0.1206
  233POPC   C4A 3225   5.215   3.099   5.978  0.5753  0.3613 -0.1767
  233POPC   C1B 3226   4.243   3.759   5.133 -0.3082  0.0833  0.0156
  233POPC   C2B 3227   4.152   3.955   5.494 -0.2221 -0.0331  0.2715
  233POPC   C3B 3228   4.055   3.827   5.884  0.0344  0.2584 -0.0254
  233POPC   C4B 3229   4.117   3.916   6.307 -0.4961  0.1850 -0.1129
  234POPC   NC3 3230   3.710   0.592   4.046  0.1870  0.3807 -0.0322
  234POPC   PO4 3231   3.695   0.830   4.501  0.1329 -0.0261 -0.1378
  234POPC   GL1 3232   3.634   0.979   4.893 -0.1166  0.0683 -0.4202
  234POPC   GL2 3233   3.644   1.296   4.876 -0.1378  0.0244  0.1165
  234POPC   C1A 3234   3.445   0.878   5.357 -0.5981 -0.2091  0.0130
  234POPC   D2A 3235   3.409   0.951   5.753 -0.2711  0.1417 -0.0547
  234POPC   C3A 3236   3.033   1.065   6.027 -0.0016  0.1730  0.0905
  234POPC   C4A 3237   2.828   1.378   6.241 -0.1697  0.0031  0.2022
  234POPC   C1B 3238   3.638   1.372   5.271 -0.0844  0.0524 -0.3661
  234POPC   C2B 3239   3.770   1.345   5.697 -0.0288  0.1405  0.0867
  234POPC   C3B 3240   3.625   1.408   6.094 -0.0628 -0.0362 -0.1037
  234POPC   C4B 3241   3.450   1.114   6.344  0.4456  0.1399 -0.3311
  235POPC   NC3 3242   9.625   8.478   4.263 -0.0331  0.2919 -0.4126
  235POPC   PO4 3243   9.362   8.188   4.493  0.0680  0.0589 -0.1917
  235POPC   GL1 3244   9.381   7.858   4.665  0.2899 -0.0732  0.0205
  235POPC   GL2 3245   9.062   7.888   5.042  0.2161 -0.1440  0.0512
  235POPC   C1A 3246   9.543   7.789   5.147  0.0125 -0.0748  0.3703
  235POPC   D2A 3247   9.389   7.724   5.619  0.0515 -0.0760  0.1164
  235POPC   C3A 3248   9.632   7.594   5.883 -0.0682  0.0686 -0.2446
  235POPC   C4A 3249   9.604   7.489   6.256  0.1588 -0.1495  0.1824
  235POPC   C1B 3250   9.168   8.114   5.366 -0.0900  0.1448  0.0027
  235POPC   C2B 3251   9.065   8.110   5.816 -0.2452 -0.1725  0.1241
  235POPC   C3B 3252   8.791   8.084   6.267  0.0961 -0.1941 -0.1475
  235POPC   C4B 3253   8.697   7.968   6.760  0.0163  0.1107 -0.0599
  236POPC   NC3 3254   9.011   4.925   4.043  0.0593  0.0377  0.3329
  236POPC   PO4 3255   8.647   5.248   4.122 -0.2014 -0.0253  0.2857
  236POPC   GL1 3256   8.789   5.332   4.572  0.1003  0.1041 -0.1220
  236POPC   GL2 3257   9.142   5.199   4.467 -0.0852  0.1149 -0.3257
  236POPC   C1A 3258   8.831   5.301   5.005  0.2534  0.1778  0.1939
  236POPC   D2A 3259   8.982   5.209   5.408 -0.1003  0.3155 -0.0476
  236POPC   C3A 3260   9.273   5.384   5.709 -0.2787 -0.0225 -0.3295
  236POPC   C4A 3261   9.316   5.754   5.847 -0.0517  0.1661 -0.1903
  236POPC   C1B 3262   9.594   5.397   4.416 -0.0585 -0.3438 -0.1229
  236POPC   C2B 3263   9.878   5.237   4.650 -0.0852  0.0084 -0.1295
  236POPC   C3B 3264   9.869   5.233   5.059 -0.1383 -0.3045 -0.2478
  236POPC   C4B 3265  10.196   5.272   5.422  0.0110  0.1756 -0.0777
  237POPC   NC3 3266   4.779   2.841   4.559 -0.0093 -0.4400 -0.1756
  237POPC   PO4 3267   4.411   2.646   4.546  0.2594  0.1330 -0.0149
  237POPC   GL1 3268   4.306   2.624   4.897  0.0020  0.0902  0.3689
  237POPC   GL2 3269   4.216   2.321   4.874  0.1448  0.1519  0.1242
  237POPC   C1A 3270   4.348   2.644   5.293 -0.3068  0.0331  0.1520
  237POPC   D2A 3271   4.271   2.483   5.682 -0.2877  0.3134 -0.2634
  237POPC   C3A 3272   4.375   2.742   6.069  0.0506  0.1775 -0.4797
  237POPC   C4A 3273   4.695   3.077   6.154 -0.0552 -0.1068  0.1750
  237POPC   C1B 3274   4.004   2.314   5.290 -0.1392  0.5964 -0.1340
  237POPC   C2B 3275   3.688   2.431   5.568 -0.1275 -0.2583  0.4087
  237POPC   C3B 3276   3.412   2.267   5.858 -0.2447  0.1820 -0.4589
  237POPC   C4B 3277   3.156   1.890   6.002  0.2615 -0.0380  0.1334
  238POPC   NC3 3278   5.321   5.446   4.451 -0.2652  0.1977 -0.1286
  238POPC   PO4 3279   5.628   5.717   4.810  0.0409 -0.0098  0.0828
  238POPC   GL1 3280   5.282   5.571   5.078  0.1199 -0.1781 -0.2072
  238POPC   GL2 3281   5.361   5.276   5.284 -0.0849  0.4117 -0.0532
  238POPC   C1A 3282   5.269   5.711   5.541  0.0328 -0.0878  0.0125
  238POPC   D2A 3283   4.980   5.486   5.921  0.0860  0.3677  0.4299
  238POPC   C3A 3284   4.461   5.551   5.980  0.3133 -0.0602  0.2092
  238POPC   C4A 3285   4.099   5.403   6.140  0.2230  0.0307 -0.3159
  238POPC   C1B 3286   5.189   5.147   5.674  0.1223  0.1420  0.3289
  238POPC   C2B 3287   5.231   5.066   6.120 -0.2488 -0.3366  0.0272
  238POPC   C3B 3288   5.262   4.921   6.642 -0.1505 -0.2313  0.2947
  238POPC   C4B 3289   5.476   4.842   7.119  0.1477 -0.0429 -0.2879
  239POPC   NC3 3290   7.957   8.713   4.948  0.1856 -0.1595  0.2407
  239POPC   PO4 3291   7.813   9.109   5.123  0.1311  0.0176  0.1225
  239POPC   GL1 3292   7.605   9.125   5.522  0.1968  0.1538  0.0159
  239POPC   GL2 3293   7.751   9.432   5.639  0.1047  0.0105 -0.0710
  239POPC   C1A 3294   7.251   9.327   5.797 -0.1478  0.1186  0.0260
  239POPC   D2A 3295   6.953   9.584   6.080  0.0028 -0.1413 -0.1604
  239POPC   C3A 3296   6.656   9.483   6.380  0.2788 -0.0102 -0.2123
  239POPC   C4A 3297   6.674   9.341   6.767  0.1922  0.0973  0.0090
  239POPC   C1B 3298   7.765   9.540   6.054 -0.2165  0.0326 -0.0111
  239POPC   C2B 3299   7.914   9.598   6.492 -0.1142  0.2668  0.2864
  239POPC   C3B 3300   8.065   9.385   6.883 -0.2458 -0.0632  0.2746
  239POPC   C4B 3301   7.956   8.914   6.892 -0.0226 -0.0495  0.1187
  240POPC   NC3 3302   3.874   3.278   3.737 -0.0577 -0.1488 -0.1171
  240POPC   PO4 3303   3.614   2.998   3.979 -0.1808  0.0386 -0.1535
  240POPC   GL1 3304   3.492   2.940   4.389 -0.0124  0.1235 -0.2164
  240POPC   GL2 3305   3.810   2.726   4.541 -0.0739  0.1783 -0.5787
  240POPC   C1A 3306   3.628   3.206   4.732 -0.1214 -0.2736  0.1291
  240POPC   D2A 3307   3.385   3.343   5.032 -0.0832  0.3262  0.2919
  240POPC   C3A 3308   3.396   3.387   5.406 -0.0145  0.2377  0.0783
  240POPC   C4A 3309   3.127   3.851   5.657 -0.0997  0.0891  0.2075
  240POPC   C1B 3310   3.874   2.822   5.129 -0.1733 -0.4535  0.2221
  240POPC   C2B 3311   4.084   2.957   5.630 -0.0774  0.1786  0.2464
  240POPC   C3B 3312   4.185   3.272   5.854  0.0072 -0.0623  0.0391
  240POPC   C4B 3313   4.507   3.508   6.126  0.2776 -0.4158 -0.1717
  241POPC   NC3 3314   4.047   8.147   4.948  0.0040  0.2500  0.0284
  241POPC   PO4 3315   3.985   8.432   5.317 -0.2333 -0.1505 -0.1928
  241POPC   GL1 3316   3.887   8.721   5.654 -0.2171 -0.2311  0.2658
  241POPC   GL2 3317   3.836   8.499   5.886 -0.1117  0.1039  0.0220
  241POPC   C1A 3318   4.042   9.016   5.848 -0.0728  0.0558 -0.1857
  241POPC   D2A 3319   4.135   9.292   6.185  0.0025  0.0276  0.1431
  241POPC   C3A 3320   4.285   9.676   5.819  0.3632 -0.1562 -0.0104
  241POPC   C4A 3321   4.268  10.169   5.621 -0.2078  0.1384  0.0884
  241POPC   C1B 3322   3.936   8.759   6.239 -0.0062 -0.1758  0.0453
  241POPC   C2B 3323   3.815   8.834   6.690 -0.1008  0.2621  0.0995
  241POPC   C3B 3324   3.429   8.741   6.879 -0.0311  0.1427  0.1826
  241POPC   C4B 3325   3.069   8.880   7.138 -0.1500 -0.0280 -0.0917
  242POPC   NC3 3326   3.208   1.743   4.019  0.2784 -0.0791  0.0997
  242POPC   PO4 3327   2.870   1.975   3.923  0.0838 -0.0722 -0.0258
  242POPC   GL1 3328   2.809   1.990   4.356 -0.0215 -0.2704  0.1131
  242POPC   GL2 3329   3.046   1.877   4.594 -0.0251  0.2514 -0.3249
  242POPC   C1A 3330   2.695   2.099   4.860 -0.0143 -0.0669  0.1181
  242POPC   D2A 3331   2.792   2.037   5.267 -0.0529  0.1881 -0.2629
  242POPC   C3A 3332   3.018   1.707   5.474 -0.0214 -0.2946 -0.3909
  242POPC   C4A 3333   3.273   1.438   5.752 -0.1794 -0.1810  0.3504
  242POPC   C1B 3334   3.187   1.966   4.972  0.2199  0.0753 -0.2144
  242POPC   C2B 3335   3.434   1.841   5.330 -0.3445 -0.1680  0.0505
  242POPC   C3B 3336   3.595   1.803   5.669 -0.1915  0.1366 -0.1279
  242POPC   C4B 3337   3.623   1.914   6.190  0.0361 -0.2087  0.0867
  243POPC   NC3 3338   5.061   0.419   4.797  0.0701  0.0173  0.1547
  243POPC   PO4 3339   5.235  -0.098   4.899  0.1151  0.3785 -0.1408
  243POPC   GL1 3340   5.253  -0.168   5.336 -0.1446 -0.1795 -0.4075
  243POPC   GL2 3341   5.057   0.057   5.503  0.0490  0.2137 -0.3954
  243POPC   C1A 3342   5.199  -0.408   5.648  0.0611 -0.0604  0.0113
  243POPC   D2A 3343   5.387  -0.669   6.030 -0.3621 -0.2166  0.3633
  243POPC   C3A 3344   5.241  -0.965   6.375  0.1501  0.0473  0.0953
  243POPC   C4A 3345   5.596  -1.282   6.320 -0.2013  0.1697  0.3285
  243POPC   C1B 3346   4.692   0.207   5.785  0.1518 -0.0782  0.3179
  243POPC   C2B 3347   4.410   0.089   6.171 -0.0937 -0.3867  0.0978
  243POPC   C3B 3348   4.133  -0.197   6.275  0.2100 -0.1920  0.3785
  243POPC   C4B 3349   4.089  -0.435   6.694  0.1899  0.0598  0.0560
  244POPC   NC3 3350   1.392   8.782   5.156  0.4961  0.2705  0.1607
  244POPC   PO4 3351   1.818   8.974   5.227  0.2516 -0.1599 -0.1928
  244POPC   GL1 3352   1.629   8.819   5.592  0.0090  0.1209  0.1582
  244POPC   GL2 3353   1.368   9.092   5.597  0.1329  0.2628 -0.2383
  244POPC   C1A 3354   1.522   8.501   6.040 -0.1972  0.3651  0.0645
  244POPC   D2A 3355   1.704   8.381   6.438  0.0437 -0.2562 -0.0968
  244POPC   C3A 3356   1.780   8.163   6.765  0.0703  0.1618 -0.0976
  244POPC   C4A 3357   2.216   8.166   6.880 -0.0544 -0.2873 -0.2894
  244POPC   C1B 3358   1.489   9.057   6.037  0.7911  0.2108  0.2631
  244POPC   C2B 3359   1.405   9.208   6.446  0.3739 -0.2274 -0.0561
  244POPC   C3B 3360   1.753   9.518   6.676  0.1098 -0.0057  0.0393
  244POPC   C4B 3361   2.196   9.421   6.590  0.5220  0.0245  0.1411
  245POPC   NC3 3362   4.424   9.770   4.630 -0.1986 -0.0973  0.0842
  245POPC   PO4 3363   4.823   9.645   4.587 -0.1100  0.1128  0.0415
  245POPC   GL1 3364   4.778   9.934   5.046 -0.0717  0.1118 -0.1332
  245POPC   GL2 3365   4.648  10.288   5.149  0.3908  0.0653 -0.3285
  245POPC   C1A 3366   4.699   9.860   5.468 -0.2693 -0.1201  0.2121
  245POPC   D2A 3367   4.792   9.725   5.940  0.1596 -0.3156 -0.2986
  245POPC   C3A 3368   5.073   9.711   6.283  0.2610  0.0850  0.1894
  245POPC   C4A 3369   5.148   9.670   6.577 -0.0082  0.2264  0.2124
  245POPC   C1B 3370   4.676  10.700   5.269  0.2798 -0.2647  0.0445
  245POPC   C2B 3371   4.523  11.069   5.541 -0.0601  0.4100  0.3080
  245POPC   C3B 3372   4.227  11.179   5.937 -0.0421 -0.1320  0.0051
  245POPC   C4B 3373   3.783  10.963   5.998 -0.0125  0.0530  0.3680
  246POPC   NC3 3374   8.814   3.432   3.766 -0.0274  0.2001  0.1042
  246POPC   PO4 3375   8.711   3.458   4.202 -0.2542  0.0340  0.2289
  246POPC   GL1 3376   8.769   3.174   4.600 -0.0870  0.2174 -0.1162
  246POPC   GL2 3377   8.926   3.422   4.841  0.1561 -0.1108  0.1770
  246POPC   C1A 3378   8.697   2.960   5.019  0.2607 -0.1300  0.1603
  246POPC   D2A 3379   8.797   3.100   5.501  0.1400 -0.0112  0.0987
  246POPC   C3A 3380   8.845   3.110   5.964  0.0873 -0.0542  0.1038
  246POPC   C4A 3381   8.955   2.944   6.395  0.0715 -0.0195 -0.0540
  246POPC   C1B 3382   8.738   3.496   5.256  0.2202  0.1791  0.1764
  246POPC   C2B 3383   8.619   3.580   5.565  0.4657  0.0411  0.0288
  246POPC   C3B 3384   8.656   3.946   5.737 -0.3257  0.1951 -0.2221
  246POPC   C4B 3385   8.675   4.378   5.555  0.1233  0.0088 -0.0548
  247POPC   NC3 3386   0.793   0.324   5.068 -0.2151 -0.2455  0.1988
  247POPC   PO4 3387   0.376   0.081   4.929  0.3316  0.0061 -0.0805
  247POPC   GL1 3388   0.178   0.172   5.267  0.0108  0.0923 -0.1151
  247POPC   GL2 3389   0.269   0.407   5.395 -0.0228 -0.2567  0.2117
  247POPC   C1A 3390  -0.016   0.148   5.745  0.2627 -0.1043 -0.0766
  247POPC   D2A 3391  -0.083   0.125   6.225  0.2895 -0.1317  0.0694
  247POPC   C3A 3392   0.440   0.223   6.364  0.0692 -0.0697  0.2967
  247POPC   C4A 3393   0.753   0.468   6.238 -0.2285  0.1998  0.0930
  247POPC   C1B 3394   0.363   0.811   5.596 -0.3025  0.0648  0.1159
  247POPC   C2B 3395   0.389   1.198   5.768  0.2383  0.0705 -0.2967
  247POPC   C3B 3396   0.013   1.546   5.738 -0.3100  0.0244  0.0469
  247POPC   C4B 3397  -0.236   1.870   5.956  0.1069 -0.1486  0.0854
  248POPC   NC3 3398   7.381  10.013   4.898  0.1143  0.2117  0.0371
  248POPC   PO4 3399   7.129   9.647   5.054 -0.1397 -0.0566  0.0939
  248POPC   GL1 3400   7.234   9.683   5.457  0.1082 -0.0874  0.0004
  248POPC   GL2 3401   6.877   9.734   5.577 -0.0770  0.2783  0.0095
  248POPC   C1A 3402   7.367   9.757   5.859 -0.1507 -0.2091  0.2862
  248POPC   D2A 3403   7.446   9.788   6.305  0.0933 -0.0768  0.0477
  248POPC   C3A 3404   7.031   9.867   6.557  0.1700 -0.1343 -0.0288
  248POPC   C4A 3405   6.980  10.209   6.881 -0.0590  0.1003 -0.1386
  248POPC   C1B 3406   6.934  10.086   5.816 -0.2986  0.1918 -0.2882
  248POPC   C2B 3407   7.161  10.170   6.151  0.0810  0.0518 -0.2127
  248POPC   C3B 3408   7.379  10.225   6.547 -0.1772  0.0655 -0.4170
  248POPC   C4B 3409   7.501  10.214   6.996  0.0552 -0.0613  0.0961
  249POPC   NC3 3410   6.105   1.149   4.452  0.1031  0.1946  0.3215
  249POPC   PO4 3411   5.869   0.859   4.641  0.2047  0.1967 -0.1063
  249POPC   GL1 3412   5.808   1.030   5.035 -0.1245 -0.1758  0.0472
  249POPC   GL2 3413   6.162   1.034   5.216 -0.1496  0.1680 -0.1996
  249POPC   C1A 3414   5.679   0.988   5.360  0.3892  0.2884  0.1655
  249POPC   D2A 3415   5.278   0.966   5.576  0.2547 -0.1059 -0.1068
  249POPC   C3A 3416   5.281   1.301   5.972 -0.2439  0.2086  0.1534
  249POPC   C4A 3417   5.051   1.468   6.293  0.3312 -0.0535 -0.1202
  249POPC   C1B 3418   6.064   1.082   5.609  0.4179 -0.1880  0.0467
  249POPC   C2B 3419   5.747   0.841   5.838  0.0271  0.0388  0.3246
  249POPC   C3B 3420   5.672   0.468   5.985 -0.2433 -0.1400 -0.0464
  249POPC   C4B 3421   5.487   0.228   6.344 -0.0965  0.1616  0.1287
  250POPC   NC3 3422   2.612   9.752   5.067  0.1791 -0.1939 -0.2362
  250POPC   PO4 3423   2.336  10.028   4.985 -0.1498  0.0503  0.0194
  250POPC   GL1 3424   2.242   9.837   5.392  0.2411  0.1029  0.0201
  250POPC   GL2 3425   1.900   9.844   5.526 -0.0540  0.0294  0.1922
  250POPC   C1A 3426   2.446   9.860   5.708 -0.4535  0.2803 -0.2670
  250POPC   D2A 3427   2.858   9.744   5.864  0.0795  0.0994  0.1340
  250POPC   C3A 3428   3.015   9.612   6.260  0.1516  0.0178  0.1592
  250POPC   C4A 3429   3.309   9.588   6.579 -0.1398 -0.1910  0.1366
  250POPC   C1B 3430   1.649   9.576   5.723 -0.2818  0.0770  0.1471
  250POPC   C2B 3431   1.304   9.588   5.844 -0.1018 -0.0982 -0.2911
  250POPC   C3B 3432   1.043   9.241   5.894  0.0608 -0.2896 -0.0006
  250POPC   C4B 3433   0.675   9.049   5.745  0.2224 -0.0321 -0.0629
  251POPC   NC3 3434   5.514   7.386   4.945  0.4105  0.3359  0.1646
  251POPC   PO4 3435   5.082   7.535   4.914  0.1642  0.2041  0.1071
  251POPC   GL1 3436   4.783   7.697   5.372  0.1321 -0.1878  0.3417
  251POPC   GL2 3437   4.857   8.000   5.553  0.1007  0.0156 -0.1083
  251POPC   C1A 3438   4.667   7.697   5.872  0.0030 -0.3708 -0.2253
  251POPC   D2A 3439   4.620   8.063   6.035  0.1242 -0.0630 -0.1441
  251POPC   C3A 3440   4.838   8.289   6.317 -0.1337 -0.1943  0.2248
  251POPC   C4A 3441   4.998   8.150   6.676 -0.1562 -0.2052  0.2149
  251POPC   C1B 3442   5.043   8.196   5.845  0.2463  0.1478  0.2076
  251POPC   C2B 3443   5.380   8.214   5.697 -0.0272  0.1987 -0.1170
  251POPC   C3B 3444   5.771   8.512   5.574  0.0975  0.2856  0.0396
  251POPC   C4B 3445   5.827   8.896   5.371 -0.3072 -0.0353 -0.0401
  252POPC   NC3 3446   2.078   7.629   4.406  0.0071  0.0790 -0.0673
  252POPC   PO4 3447   2.432   7.564   4.571  0.0276 -0.2510 -0.0341
  252POPC   GL1 3448   2.552   7.448   4.939 -0.0469 -0.1408  0.1035
  252POPC   GL2 3449   2.344   7.355   5.135 -0.1808 -0.0505 -0.4841
  252POPC   C1A 3450   2.744   7.205   5.322 -0.0623 -0.0299  0.1450
  252POPC   D2A 3451   2.793   7.070   5.738  0.2076  0.0595  0.0498
  252POPC   C3A 3452   2.633   7.194   6.246  0.0744 -0.1850 -0.1078
  252POPC   C4A 3453   2.715   7.177   6.690 -0.3030  0.1197 -0.3027
  252POPC   C1B 3454   1.980   7.391   5.488 -0.2764 -0.0327 -0.0617
  252POPC   C2B 3455   1.750   7.519   5.955 -0.4411 -0.1234 -0.3890
  252POPC   C3B 3456   1.770   7.402   6.328 -0.1682  0.0420 -0.2338
  252POPC   C4B 3457   1.444   7.288   6.730  0.0993  0.2200  0.0611
  253POPC   NC3 3458   3.779   9.578   4.664  0.1792  0.1235 -0.2257
  253POPC   PO4 3459   3.559   9.822   4.948  0.3037 -0.2527 -0.0940
  253POPC   GL1 3460   3.453   9.843   5.313 -0.4748  0.0662 -0.1070
  253POPC   GL2 3461   3.402   9.551   5.567  0.0006  0.0545  0.3224
  253POPC   C1A 3462   3.780  10.030   5.499  0.2126  0.1840  0.0108
  253POPC   D2A 3463   3.743  10.099   5.924 -0.2427 -0.0408 -0.1402
  253POPC   C3A 3464   3.564  10.487   5.987 -0.1982  0.0225 -0.0928
  253POPC   C4A 3465   3.286  10.769   6.206 -0.1408 -0.0713 -0.2190
  253POPC   C1B 3466   3.658   9.608   5.954 -0.0607 -0.0584  0.2267
  253POPC   C2B 3467   3.666   9.786   6.287  0.1374 -0.3313 -0.0274
  253POPC   C3B 3468   3.736  10.256   6.402  0.2593  0.2594  0.0397
  253POPC   C4B 3469   3.758  10.762   6.458 -0.0199 -0.1593  0.2357
  254POPC   NC3 3470   9.522   5.461   3.670 -0.0574 -0.1075 -0.2096
  254POPC   PO4 3471   9.716   5.050   3.488 -0.0711 -0.0094  0.0363
  254POPC   GL1 3472   9.997   5.059   3.780 -0.0284 -0.1949  0.0410
  254POPC   GL2 3473   9.885   5.340   4.035 -0.0317 -0.0791  0.3291
  254POPC   C1A 3474  10.260   4.753   3.913  0.1163  0.0666  0.2073
  254POPC   D2A 3475  10.413   4.801   4.334  0.0547 -0.2272 -0.0030
  254POPC   C3A 3476  10.834   5.103   4.326 -0.0638  0.1051 -0.1142
  254POPC   C4A 3477  10.955   5.502   4.372 -0.3266  0.4654  0.1215
  254POPC   C1B 3478   9.881   4.929   4.268  0.1851 -0.2870  0.2814
  254POPC   C2B 3479   9.945   4.757   4.675  0.0073 -0.1281 -0.0265
  254POPC   C3B 3480   9.688   4.809   5.008 -0.1499  0.2620  0.0471
  254POPC   C4B 3481   9.409   4.935   5.373  0.2152  0.1146 -0.1505
  255POPC   NC3 3482   3.260   0.083   4.986  0.1567 -0.0297  0.0470
  255POPC   PO4 3483   3.063  -0.293   4.961 -0.0509 -0.0636 -0.1104
  255POPC   GL1 3484   2.957  -0.159   5.387  0.3450 -0.0259 -0.2147
  255POPC   GL2 3485   2.616   0.077   5.383 -0.1210  0.2316 -0.2524
  255POPC   C1A 3486   3.272   0.006   5.673  0.0407 -0.0918  0.0494
  255POPC   D2A 3487   3.284  -0.073   6.143  0.0313 -0.0704 -0.2785
  255POPC   C3A 3488   3.107   0.161   6.446  0.0695  0.2252  0.1612
  255POPC   C4A 3489   2.806   0.170   6.829  0.3740 -0.2885 -0.1555
  255POPC   C1B 3490   2.816   0.094   5.766  0.0203  0.0612 -0.0626
  255POPC   C2B 3491   2.704  -0.017   6.198  0.0149  0.1075  0.1345
  255POPC   C3B 3492   2.343  -0.077   6.501 -0.2045 -0.0155  0.1021
  255POPC   C4B 3493   2.072  -0.186   6.884 -0.2065 -0.3911 -0.3459
  256POPC   NC3 3494   4.480   6.445   4.931 -0.0146  0.0570 -0.0947
  256POPC   PO4 3495   4.817   6.171   5.019 -0.2298 -0.1072  0.0458
  256POPC   GL1 3496   4.791   5.809   5.154  0.3633 -0.0377 -0.1745
  256POPC   GL2 3497   4.867   5.532   5.399  0.3376 -0.1228  0.1639
  256POPC   C1A 3498   4.302   5.682   5.447  0.1455 -0.1402  0.4150
  256POPC   D2A 3499   3.992   5.606   5.654 -0.0434 -0.0831 -0.1673
  256POPC   C3A 3500   3.746   5.335   5.799 -0.2636 -0.0974 -0.0516
  256POPC   C4A 3501   3.273   5.410   5.951  0.1663 -0.0095 -0.0498
  256POPC   C1B 3502   4.765   5.872   5.704 -0.0072 -0.0818 -0.1721
  256POPC   C2B 3503   4.634   6.104   6.090 -0.1799  0.1609  0.2026
  256POPC   C3B 3504   4.298   6.377   6.284 -0.1469  0.0950  0.2123
  256POPC   C4B 3505   3.886   6.579   6.324 -0.2490 -0.0180 -0.1183
  257POPC   NC3 3506   1.702   2.743   3.651 -0.2117 -0.0854  0.0539
  257POPC   PO4 3507   2.031   2.964   3.739  0.0997  0.1195 -0.3465
  257POPC   GL1 3508   1.949   2.978   4.164  0.1045  0.4806 -0.0381
  257POPC   GL2 3509   2.254   3.082   4.291  0.2147 -0.0325 -0.4643
  257POPC   C1A 3510   1.769   2.967   4.541 -0.2131 -0.1811 -0.1287
  257POPC   D2A 3511   1.506   2.967   4.863 -0.1354 -0.1244  0.1122
  257POPC   C3A 3512   1.406   2.837   5.260 -0.1355 -0.1197 -0.3270
  257POPC   C4A 3513   1.123   2.740   5.645  0.5364  0.1886 -0.3663
  257POPC   C1B 3514   2.127   3.247   4.719 -0.0649 -0.4341  0.2827
  257POPC   C2B 3515   2.187   3.580   5.022  0.0024 -0.2299  0.1380
  257POPC   C3B 3516   1.962   3.643   5.449 -0.0293  0.2307  0.5132
  257POPC   C4B 3517   1.812   3.698   5.859  0.1710 -0.1791  0.2448
  258POPC   NC3 3518   1.359   7.669   4.847  0.1835  0.0189 -0.3028
  258POPC   PO4 3519   1.707   7.989   4.781 -0.0273 -0.0284 -0.1314
  258POPC   GL1 3520   1.764   7.853   5.322  0.4841 -0.1653 -0.0371
  258POPC   GL2 3521   1.509   7.732   5.488  0.0532 -0.1380  0.2205
  258POPC   C1A 3522   2.136   7.808   5.652 -0.1201 -0.0161 -0.4933
  258POPC   D2A 3523   2.398   7.919   6.032 -0.0605  0.1222 -0.0559
  258POPC   C3A 3524   2.360   7.638   6.432 -0.0751  0.2403 -0.2334
  258POPC   C4A 3525   2.458   7.648   6.861  0.0770  0.1257  0.0677
  258POPC   C1B 3526   1.250   7.416   5.751 -0.2463 -0.0789 -0.0435
  258POPC   C2B 3527   1.277   7.087   6.113 -0.1928  0.1533 -0.0193
  258POPC   C3B 3528   1.219   6.839   6.584 -0.1075  0.0699  0.1100
  258POPC   C4B 3529   1.364   6.486   6.722  0.1014 -0.2996  0.1393
  259POPC   NC3 3530   4.211   9.065   5.284 -0.1658 -0.1248  0.0047
  259POPC   PO4 3531   4.541   8.961   5.090 -0.0354 -0.0919  0.2951
  259POPC   GL1 3532   4.717   9.058   5.448  0.0554  0.0744  0.0012
  259POPC   GL2 3533   4.828   9.413   5.456  0.1597 -0.1549 -0.0767
  259POPC   C1A 3534   4.531   9.147   5.879  0.1394  0.2548  0.0724
  259POPC   D2A 3535   4.688   9.188   6.266 -0.1932 -0.1061  0.0393
  259POPC   C3A 3536   4.595   9.501   6.473 -0.2727  0.0041  0.0007
  259POPC   C4A 3537   4.559   9.923   6.614  0.3693 -0.1099  0.0590
  259POPC   C1B 3538   5.066   9.121   5.891 -0.2162 -0.1182 -0.1849
  259POPC   C2B 3539   5.520   9.016   5.809  0.3182  0.0929  0.1033
  259POPC   C3B 3540   5.898   8.728   5.988  0.1266 -0.3503 -0.0363
  259POPC   C4B 3541   6.037   8.508   6.422 -0.0327  0.2493 -0.2809
  260POPC   NC3 3542   8.443   0.945   4.504  0.2196  0.3028 -0.0339
  260POPC   PO4 3543   8.006   1.004   4.651 -0.0636 -0.1738 -0.1829
  260POPC   GL1 3544   7.637   1.232   4.773  0.0395  0.1919  0.1968
  260POPC   GL2 3545   7.604   1.567   4.828  0.4703 -0.0863  0.1008
  260POPC   C1A 3546   7.427   1.246   5.211  0.1264 -0.1186 -0.4001
  260POPC   D2A 3547   7.871   1.144   5.560  0.0460  0.1559 -0.3179
  260POPC   C3A 3548   7.926   1.280   6.021  0.2687 -0.0211  0.1107
  260POPC   C4A 3549   7.502   1.430   6.410  0.0674 -0.0408  0.1501
  260POPC   C1B 3550   7.355   1.813   5.187  0.3592  0.2454  0.0370
  260POPC   C2B 3551   7.095   1.559   5.458 -0.0357  0.0711 -0.1513
  260POPC   C3B 3552   6.823   1.424   5.836 -0.0382  0.0353 -0.0701
  260POPC   C4B 3553   6.468   1.416   6.108 -0.0095  0.1974 -0.0082
  261POPC   NC3 3554   1.577   6.425   3.473  0.1897  0.0910  0.2332
  261POPC   PO4 3555   1.125   6.303   3.655 -0.0016  0.0955  0.4550
  261POPC   GL1 3556   1.248   6.383   4.134  0.0050  0.1852 -0.0306
  261POPC   GL2 3557   0.920   6.254   4.145  0.3934 -0.0228 -0.1081
  261POPC   C1A 3558   1.416   6.161   4.565 -0.1696  0.0055  0.0782
  261POPC   D2A 3559   1.471   6.119   5.010  0.2708  0.0859  0.1080
  261POPC   C3A 3560   1.612   5.767   5.060 -0.1894 -0.1767 -0.2538
  261POPC   C4A 3561   1.756   5.385   4.864 -0.1810 -0.1238 -0.0436
  261POPC   C1B 3562   0.904   6.343   4.614 -0.2613 -0.0654  0.1950
  261POPC   C2B 3563   0.944   6.178   5.025 -0.1277  0.2608 -0.0038
  261POPC   C3B 3564   1.074   5.836   5.230  0.1571  0.2418 -0.0576
  261POPC   C4B 3565   1.302   5.778   5.546  0.0509  0.1882 -0.6222
  262POPC   NC3 3566   6.798   5.630   4.939 -0.2761 -0.1779  0.1279
  262POPC   PO4 3567   6.540   5.927   5.156  0.1764 -0.0264 -0.1016
  262POPC   GL1 3568   6.681   6.014   5.565 -0.0527  0.3916  0.0465
  262POPC   GL2 3569   6.924   5.723   5.482 -0.0322 -0.1346  0.0970
  262POPC   C1A 3570   6.872   6.064   5.953  0.0469  0.0292  0.1986
  262POPC   D2A 3571   6.866   5.762   6.383  0.0290 -0.0715  0.0784
  262POPC   C3A 3572   7.026   5.399   6.460 -0.1943  0.0981  0.0968
  262POPC   C4A 3573   7.133   4.937   6.410 -0.1149  0.0474 -0.1787
  262POPC   C1B 3574   7.023   5.555   5.893 -0.0600  0.0419 -0.5317
  262POPC   C2B 3575   7.251   5.192   5.941  0.1420 -0.1281 -0.1648
  262POPC   C3B 3576   7.540   5.112   6.175  0.0694  0.0054 -0.0649
  262POPC   C4B 3577   7.526   5.254   6.586 -0.1995  0.2373 -0.0814
  263POPC   NC3 3578   4.586   7.454   4.923  0.0705 -0.4171 -0.2188
  263POPC   PO4 3579   4.241   7.692   4.890  0.1306  0.2831 -0.0497
  263POPC   GL1 3580   4.196   7.589   5.316  0.1659  0.0245 -0.1290
  263POPC   GL2 3581   4.008   7.401   5.284 -0.2295  0.0588 -0.0695
  263POPC   C1A 3582   4.187   7.723   5.754  0.0471 -0.1412 -0.0589
  263POPC   D2A 3583   4.092   8.073   5.887  0.0690 -0.0524 -0.3137
  263POPC   C3A 3584   4.208   8.271   6.265 -0.3785 -0.0235 -0.1114
  263POPC   C4A 3585   4.098   8.454   6.612 -0.0483  0.4012 -0.1117
  263POPC   C1B 3586   3.664   7.601   5.570 -0.0864  0.0005 -0.0335
  263POPC   C2B 3587   3.613   7.962   5.811 -0.1980 -0.1136 -0.0270
  263POPC   C3B 3588   3.275   8.245   5.952 -0.0567 -0.2151 -0.0921
  263POPC   C4B 3589   2.965   8.215   6.136  0.1994  0.1527 -0.1149
  264POPC   NC3 3590   8.476   4.753   4.093 -0.2720 -0.1249  0.0191
  264POPC   PO4 3591   8.288   4.376   4.197  0.2290  0.2558  0.0528
  264POPC   GL1 3592   8.286   4.567   4.634 -0.1664  0.1901  0.0979
  264POPC   GL2 3593   8.088   4.724   4.833  0.0187 -0.0432  0.1642
  264POPC   C1A 3594   8.566   4.342   4.838  0.0106  0.1681 -0.3087
  264POPC   D2A 3595   8.823   3.983   4.751  0.0833  0.2065 -0.1288
  264POPC   C3A 3596   9.305   3.929   4.912 -0.1960 -0.3568  0.1626
  264POPC   C4A 3597   9.618   3.932   5.330 -0.2717 -0.1750  0.2403
  264POPC   C1B 3598   8.256   4.622   5.173 -0.1425  0.1151 -0.0834
  264POPC   C2B 3599   8.183   4.392   5.543  0.3502  0.0791 -0.0951
  264POPC   C3B 3600   8.405   4.279   5.948  0.1028 -0.0130  0.1344
  264POPC   C4B 3601   8.737   4.063   6.255  0.0495  0.3519  0.1656
  265POPC   NC3 3602   6.941   6.235   5.183  0.3829  0.0530  0.1675
  265POPC   PO4 3603   7.237   5.874   5.108  0.2697  0.1420  0.1616
  265POPC   GL1 3604   7.412   5.657   5.523 -0.1306  0.1430  0.0268
  265POPC   GL2 3605   7.712   5.928   5.548 -0.0896 -0.1402  0.0428
  265POPC   C1A 3606   7.629   5.592   5.910  0.1667 -0.0026 -0.3179
  265POPC   D2A 3607   7.759   5.535   6.305 -0.1451 -0.0933 -0.0106
  265POPC   C3A 3608   8.111   5.540   6.459 -0.1220  0.0044 -0.0679
  265POPC   C4A 3609   8.586   5.662   6.497 -0.1037 -0.0515  0.2337
  265POPC   C1B 3610   7.881   6.069   5.884 -0.0423 -0.0857 -0.0049
  265POPC   C2B 3611   8.016   6.016   6.316  0.0329  0.0588  0.2894
  265POPC   C3B 3612   8.263   5.987   6.705 -0.3693 -0.0815  0.0205
  265POPC   C4B 3613   8.386   5.578   6.979 -0.0652  0.0972 -0.2740
  266POPC   NC3 3614   2.935   7.635   4.647 -0.1140 -0.1078  0.0599
  266POPC   PO4 3615   3.377   7.442   4.658  0.2313  0.0015  0.1085
  266POPC   GL1 3616   3.249   7.511   5.094 -0.0488 -0.1692 -0.0319
  266POPC   GL2 3617   2.944   7.723   5.154 -0.0218  0.0750  0.1097
  266POPC   C1A 3618   3.132   7.433   5.571 -0.1806  0.1223 -0.0109
  266POPC   D2A 3619   3.258   7.501   5.886  0.0693 -0.3131 -0.2031
  266POPC   C3A 3620   3.245   7.348   6.313 -0.0503  0.1497  0.1582
  266POPC   C4A 3621   3.518   6.978   6.351  0.0178  0.0058  0.1217
  266POPC   C1B 3622   2.616   7.652   5.438 -0.2879 -0.0258  0.0048
  266POPC   C2B 3623   2.455   7.472   5.759  0.0786  0.0932 -0.2879
  266POPC   C3B 3624   2.161   7.208   5.905 -0.2295  0.0606  0.1739
  266POPC   C4B 3625   2.080   6.910   6.033 -0.1745 -0.0460  0.0168
  267POPC   NC3 3626   9.174   1.398   4.868  0.2705  0.0495  0.0533
  267POPC   PO4 3627   8.938   1.030   4.943  0.0485  0.0837 -0.0426
  267POPC   GL1 3628   8.764   1.359   5.257  0.0622  0.0407 -0.0350
  267POPC   GL2 3629   8.403   1.474   5.305 -0.1866  0.0376  0.1073
  267POPC   C1A 3630   8.930   1.556   5.597 -0.4280 -0.1948  0.0686
  267POPC   D2A 3631   8.755   1.587   6.056  0.2269  0.0653 -0.2452
  267POPC   C3A 3632   9.125   1.594   6.382  0.0212 -0.0752 -0.2616
  267POPC   C4A 3633   9.329   1.856   6.733  0.0253 -0.2572 -0.1664
  267POPC   C1B 3634   8.435   1.356   5.779  0.2030 -0.0960  0.0152
  267POPC   C2B 3635   8.399   1.145   6.254  0.0934  0.2667 -0.0027
  267POPC   C3B 3636   8.660   0.997   6.561 -0.0194  0.0429 -0.1390
  267POPC   C4B 3637   9.067   1.079   6.480  0.0724  0.0185  0.0523
  268POPC   NC3 3638   2.833   5.196   3.393  0.0313  0.1422 -0.0970
  268POPC   PO4 3639   2.588   5.273   3.594 -0.1064 -0.0574  0.0979
  268POPC   GL1 3640   2.266   5.274   3.848  0.4256  0.3395 -0.2186
  268POPC   GL2 3641   2.092   4.983   3.876 -0.0326  0.0438  0.2752
  268POPC   C1A 3642   2.475   5.276   4.264  0.1488  0.0712  0.0869
  268POPC   D2A 3643   2.611   5.600   4.580  0.1408  0.3588 -0.0752
  268POPC   C3A 3644   2.379   6.012   4.698  0.0131 -0.2719 -0.1329
  268POPC   C4A 3645   2.467   6.424   4.853 -0.2303  0.0632 -0.2793
  268POPC   C1B 3646   2.202   4.875   4.159  0.1417 -0.1384  0.0253
  268POPC   C2B 3647   2.162   4.653   4.601 -0.3474 -0.2955  0.1263
  268POPC   C3B 3648   2.256   4.348   4.767  0.2858  0.1228  0.2101
  268POPC   C4B 3649   2.034   3.988   4.749 -0.0964 -0.1037 -0.0692
  269POPC   NC3 3650   7.397   4.007   4.166  0.1669  0.0724  0.3248
  269POPC   PO4 3651   7.072   3.954   4.536  0.1915 -0.0387  0.0429
  269POPC   GL1 3652   7.090   4.187   4.927 -0.1135  0.2570 -0.0158
  269POPC   GL2 3653   7.219   4.004   5.133  0.1768  0.0379 -0.0157
  269POPC   C1A 3654   7.225   4.630   5.241  0.1097 -0.3420  0.3719
  269POPC   D2A 3655   7.303   4.955   5.468 -0.2908  0.3617 -0.0043
  269POPC   C3A 3656   7.714   5.102   5.692 -0.1025  0.2076 -0.2047
  269POPC   C4A 3657   8.020   5.203   5.994 -0.0082  0.0066 -0.0465
  269POPC   C1B 3658   7.216   4.156   5.640  0.0186 -0.1715 -0.1027
  269POPC   C2B 3659   7.206   4.064   6.062  0.1312 -0.3400  0.3501
  269POPC   C3B 3660   7.134   4.435   6.435 -0.0418  0.0632 -0.0580
  269POPC   C4B 3661   6.994   4.341   6.778  0.2182  0.3614  0.0747
  270POPC   NC3 3662   1.101   0.980   4.623 -0.0879 -0.1762  0.3087
  270POPC   PO4 3663   1.183   0.520   4.891 -0.4480 -0.0094  0.2542
  270POPC   GL1 3664   1.076   0.709   5.251  0.3577 -0.3592  0.2251
  270POPC   GL2 3665   0.799   0.682   5.438 -0.0196  0.1067  0.0907
  270POPC   C1A 3666   1.256   0.938   5.527 -0.0880  0.0100 -0.0075
  270POPC   D2A 3667   1.128   1.333   5.924  0.2193  0.0902  0.2243
  270POPC   C3A 3668   0.794   1.562   6.050  0.1930 -0.3368  0.0590
  270POPC   C4A 3669   0.466   1.719   6.060 -0.0513  0.3742 -0.1400
  270POPC   C1B 3670   0.842   0.812   5.804 -0.1395 -0.1705 -0.1624
  270POPC   C2B 3671   0.718   1.064   6.111 -0.1129 -0.2530 -0.0618
  270POPC   C3B 3672   0.348   1.274   6.298 -0.1703  0.2422 -0.0369
  270POPC   C4B 3673   0.083   1.543   6.493  0.1554 -0.0678 -0.0844
  271POPC   NC3 3674   2.804   0.461   4.107 -0.0805 -0.0266  0.3240
  271POPC   PO4 3675   2.865   0.565   4.617 -0.1313 -0.0638  0.1708
  271POPC   GL1 3676   2.974   0.717   5.033  0.2784 -0.0117  0.3665
  271POPC   GL2 3677   2.944   0.449   5.301 -0.2797  0.2632  0.0540
  271POPC   C1A 3678   2.929   0.920   5.463 -0.0651  0.1950 -0.0781
  271POPC   D2A 3679   2.721   1.213   5.705  0.0975 -0.1183 -0.0179
  271POPC   C3A 3680   2.471   1.153   5.931 -0.1453 -0.3386 -0.0170
  271POPC   C4A 3681   2.581   0.913   6.382 -0.1624 -0.0720 -0.2767
  271POPC   C1B 3682   3.079   0.512   5.686  0.3180  0.3269 -0.0392
  271POPC   C2B 3683   2.774   0.544   6.126  0.0165  0.0956  0.0309
  271POPC   C3B 3684   2.453   0.385   6.406 -0.1218 -0.1087 -0.0121
  271POPC   C4B 3685   2.030   0.297   6.543 -0.0701 -0.0577 -0.0970
  272POPC   NC3 3686   6.884   7.858   5.015 -0.3380 -0.3388  0.1129
  272POPC   PO4 3687   6.855   7.440   4.913 -0.1177 -0.0834 -0.0899
  272POPC   GL1 3688   6.815   7.365   5.370 -0.0458  0.4870  0.0327
  272POPC   GL2 3689   6.722   7.655   5.466 -0.1828  0.0384 -0.0118
  272POPC   C1A 3690   7.097   7.287   5.818  0.1234 -0.1142  0.0806
  272POPC   D2A 3691   6.753   6.959   6.068 -0.1095 -0.0055  0.4780
  272POPC   C3A 3692   6.520   7.098   6.227 -0.1983 -0.1579 -0.1229
  272POPC   C4A 3693   6.141   6.967   6.399  0.0437  0.0091  0.2664
  272POPC   C1B 3694   7.029   7.830   5.654  0.1646  0.2644  0.2361
  272POPC   C2B 3695   7.126   7.873   5.956 -0.3269  0.2112  0.0886
  272POPC   C3B 3696   7.248   8.086   6.408 -0.3977 -0.1496  0.1046
  272POPC   C4B 3697   7.271   8.121   6.921 -0.1011 -0.0916 -0.1438
  273POPC   NC3 3698   7.764   4.888   3.799 -0.1462  0.0502  0.1214
  273POPC   PO4 3699   7.663   5.266   4.057 -0.0815 -0.0018  0.2044
  273POPC   GL1 3700   7.632   5.178   4.496 -0.2312  0.1108  0.2962
  273POPC   GL2 3701   7.518   4.801   4.700  0.5701  0.2054 -0.0305
  273POPC   C1A 3702   7.987   5.227   4.864  0.2088  0.2297 -0.1888
  273POPC   D2A 3703   8.326   5.090   5.050 -0.5696 -0.0270 -0.3461
  273POPC   C3A 3704   8.444   5.388   5.315 -0.3527 -0.2400 -0.1073
  273POPC   C4A 3705   8.505   5.303   5.741 -0.1105  0.2108 -0.1442
  273POPC   C1B 3706   7.642   4.803   5.057 -0.3227  0.0323 -0.0372
  273POPC   C2B 3707   7.813   4.728   5.316  0.2247 -0.0008 -0.1030
  273POPC   C3B 3708   8.153   4.988   5.510 -0.1258 -0.1273 -0.3113
  273POPC   C4B 3709   8.538   4.869   5.456 -0.1509 -0.2768 -0.2982
  274POPC   NC3 3710   8.689   2.497   3.787  0.0624 -0.2820  0.2442
  274POPC   PO4 3711   9.077   2.429   3.913 -0.1590  0.2459  0.1735
  274POPC   GL1 3712   9.232   2.361   4.408  0.0080 -0.0668  0.0031
  274POPC   GL2 3713   9.402   2.522   4.460  0.0087 -0.0413  0.1448
  274POPC   C1A 3714   9.133   2.135   4.880 -0.0209 -0.2181 -0.0701
  274POPC   D2A 3715   8.997   2.096   5.478  0.0834  0.0744 -0.0141
  274POPC   C3A 3716   8.987   2.020   5.943 -0.2800 -0.2821  0.0365
  274POPC   C4A 3717   9.191   2.065   6.265 -0.0531  0.0234 -0.0973
  274POPC   C1B 3718   9.864   2.784   4.712  0.3340  0.1929  0.1100
  274POPC   C2B 3719  10.271   2.969   4.592  0.1281  0.1716 -0.0656
  274POPC   C3B 3720  10.416   3.391   4.344 -0.0039 -0.0636 -0.1072
  274POPC   C4B 3721  10.790   3.599   4.160  0.3203  0.2359  0.1872
  275POPC   NC3 3722   8.485   3.619   4.683 -0.2701 -0.1315  0.2029
  275POPC   PO4 3723   7.990   3.615   4.482 -0.0002 -0.1168  0.1081
  275POPC   GL1 3724   8.049   3.665   4.956 -0.2043 -0.0673 -0.0504
  275POPC   GL2 3725   8.264   3.548   5.157 -0.2198 -0.0234 -0.1086
  275POPC   C1A 3726   7.711   3.805   5.202 -0.0959  0.1711 -0.0261
  275POPC   D2A 3727   7.475   3.780   5.573 -0.0959 -0.4204 -0.3900
  275POPC   C3A 3728   7.561   3.677   6.042  0.2301 -0.1528  0.0283
  275POPC   C4A 3729   7.302   3.365   6.289 -0.1205  0.2464 -0.0506
  275POPC   C1B 3730   8.157   3.762   5.515  0.0388  0.2074  0.1157
  275POPC   C2B 3731   7.885   4.033   5.745  0.1812  0.0596 -0.0651
  275POPC   C3B 3732   7.805   4.093   6.111  0.4072 -0.3001 -0.3059
  275POPC   C4B 3733   7.595   4.130   6.520  0.0776  0.0869 -0.4641
  276POPC   NC3 3734   9.580   6.795   4.266 -0.1360 -0.0876 -0.0353
  276POPC   PO4 3735   9.280   7.137   4.236  0.2146 -0.1483 -0.0283
  276POPC   GL1 3736   9.422   7.157   4.682  0.4819  0.1567  0.1970
  276POPC   GL2 3737   9.272   7.368   5.007  0.0471  0.0413  0.0146
  276POPC   C1A 3738   9.731   7.049   5.047 -0.1759 -0.1480  0.0122
  276POPC   D2A 3739   9.988   6.924   5.441 -0.0701  0.1082  0.0064
  276POPC   C3A 3740  10.371   7.197   5.614 -0.0643 -0.2640 -0.0579
  276POPC   C4A 3741  10.421   7.123   6.083  0.1532  0.0103 -0.1140
  276POPC   C1B 3742   9.403   7.275   5.355  0.1960 -0.0826 -0.3147
  276POPC   C2B 3743   9.411   7.155   5.762  0.3240  0.0126  0.0770
  276POPC   C3B 3744   9.206   7.126   6.188  0.4293  0.3718  0.0196
  276POPC   C4B 3745   9.330   6.903   6.516  0.1573 -0.0466 -0.1419
  277POPC   NC3 3746   4.999   2.002   3.929 -0.2246 -0.3784 -0.1614
  277POPC   PO4 3747   4.882   1.890   4.417 -0.1354 -0.0925  0.1273
  277POPC   GL1 3748   5.017   1.957   4.855  0.2326  0.1400 -0.0001
  277POPC   GL2 3749   5.273   2.141   4.963 -0.0040 -0.1215 -0.3266
  277POPC   C1A 3750   4.836   1.696   5.217  0.0192  0.2121  0.1012
  277POPC   D2A 3751   4.973   1.290   5.414  0.0735  0.1471 -0.2042
  277POPC   C3A 3752   4.754   1.297   5.854  0.2164  0.0010 -0.4236
  277POPC   C4A 3753   4.513   1.412   6.248  0.1667  0.2504 -0.0543
  277POPC   C1B 3754   5.075   2.131   5.357 -0.0385 -0.2777  0.2566
  277POPC   C2B 3755   5.060   2.195   5.752  0.0624 -0.2375 -0.0983
  277POPC   C3B 3756   4.641   2.283   6.030 -0.2786 -0.1926 -0.0288
  277POPC   C4B 3757   4.350   2.135   6.275 -0.0587 -0.4120  0.1646
  278POPC   NC3 3758   7.390   8.807   5.244  0.4276  0.2368  0.3697
  278POPC   PO4 3759   7.611   8.416   5.015  0.1429  0.1766  0.0911
  278POPC   GL1 3760   7.820   8.544   5.460  0.2705 -0.2088 -0.0452
  278POPC   GL2 3761   7.919   8.764   5.455 -0.1435 -0.0780 -0.0502
  278POPC   C1A 3762   8.007   8.662   5.900 -0.0436  0.0245  0.1010
  278POPC   D2A 3763   7.950   8.805   6.289  0.1288 -0.0236 -0.3181
  278POPC   C3A 3764   7.680   9.100   6.374  0.0658  0.0647  0.2800
  278POPC   C4A 3765   7.269   9.294   6.333  0.0941 -0.0819  0.2003
  278POPC   C1B 3766   8.082   9.106   5.700  0.0072  0.0199  0.1515
  278POPC   C2B 3767   8.206   9.320   6.163  0.1557  0.1610 -0.1772
  278POPC   C3B 3768   8.568   9.396   6.203 -0.2479  0.0660 -0.3806
  278POPC   C4B 3769   8.968   9.303   6.018  0.2336 -0.1808  0.0072
  279POPC   NC3 3770   6.987   8.270   4.698 -0.0689 -0.0250 -0.2599
  279POPC   PO4 3771   7.089   8.330   5.131 -0.2020  0.1237  0.2217
  279POPC   GL1 3772   7.340   8.364   5.468  0.0712 -0.0334  0.2388
  279POPC   GL2 3773   7.433   8.089   5.395 -0.1797  0.0924  0.5161
  279POPC   C1A 3774   7.230   8.396   5.872  0.0888  0.0971 -0.1433
  279POPC   D2A 3775   7.487   8.441   6.106 -0.2152 -0.0825 -0.0155
  279POPC   C3A 3776   7.498   8.680   6.455  0.3082 -0.3000 -0.3583
  279POPC   C4A 3777   7.331   9.043   6.764  0.0476  0.0158  0.0177
  279POPC   C1B 3778   7.643   8.075   5.781 -0.0113 -0.1503  0.2539
  279POPC   C2B 3779   7.712   7.915   6.147  0.1185  0.0251 -0.2301
  279POPC   C3B 3780   7.694   8.020   6.644  0.1149  0.2868 -0.1514
  279POPC   C4B 3781   7.709   8.018   7.068 -0.1779  0.1833 -0.2863
  280POPC   NC3 3782   4.199   7.007   4.337  0.1407 -0.1651  0.0653
  280POPC   PO4 3783   4.156   6.763   4.724  0.0039  0.1124 -0.2592
  280POPC   GL1 3784   4.008   6.842   5.150 -0.0053  0.2331 -0.0836
  280POPC   GL2 3785   3.810   6.552   5.246 -0.4916  0.0725  0.3778
  280POPC   C1A 3786   4.090   6.784   5.558 -0.0420 -0.0926 -0.0871
  280POPC   D2A 3787   4.144   6.827   6.030  0.1853 -0.0866 -0.0698
  280POPC   C3A 3788   4.030   7.136   6.294  0.1882  0.1679  0.0070
  280POPC   C4A 3789   3.763   7.302   6.573  0.0009  0.1218  0.0735
  280POPC   C1B 3790   3.642   6.594   5.594 -0.2773 -0.1582 -0.0197
  280POPC   C2B 3791   3.538   6.425   6.031 -0.1494 -0.1377 -0.1462
  280POPC   C3B 3792   3.410   6.470   6.476 -0.2472  0.0927 -0.3178
  280POPC   C4B 3793   3.184   6.248   6.643 -0.0932 -0.0709 -0.2002
  281POPC   NC3 3794   3.220   2.650   3.400  0.0745 -0.2563  0.1407
  281POPC   PO4 3795   3.268   2.831   3.627  0.2992  0.0105  0.1941
  281POPC   GL1 3796   3.090   2.809   3.933  0.0864  0.1486  0.1781
  281POPC   GL2 3797   3.035   2.633   4.209 -0.2197  0.0644  0.2892
  281POPC   C1A 3798   2.768   3.025   4.190  0.1305  0.2645 -0.0116
  281POPC   D2A 3799   2.619   3.224   4.596  0.0257  0.0552  0.1300
  281POPC   C3A 3800   2.453   3.669   4.613  0.3205  0.1232  0.0788
  281POPC   C4A 3801   2.562   4.023   4.847  0.1716  0.2476 -0.0451
  281POPC   C1B 3802   3.056   2.907   4.639  0.0929  0.0391  0.0458
  281POPC   C2B 3803   2.969   3.075   5.014 -0.2839  0.0307  0.0026
  281POPC   C3B 3804   2.994   3.119   5.486 -0.1697 -0.2027  0.0361
  281POPC   C4B 3805   3.143   3.187   5.852  0.0249  0.0882 -0.0255
  282POPC   NC3 3806   6.600   9.622   5.198  0.1284  0.0039  0.0726
  282POPC   PO4 3807   6.094   9.675   5.181  0.2272  0.1915  0.0855
  282POPC   GL1 3808   6.196   9.378   5.463 -0.0731  0.0607  0.1944
  282POPC   GL2 3809   6.133   9.711   5.688 -0.1721  0.0026  0.1721
  282POPC   C1A 3810   6.497   9.448   5.888 -0.1129 -0.1232 -0.0466
  282POPC   D2A 3811   6.751   9.103   6.072 -0.2161 -0.1999 -0.0989
  282POPC   C3A 3812   7.160   8.848   6.087 -0.2569  0.3765 -0.1498
  282POPC   C4A 3813   7.543   8.878   5.924 -0.2370 -0.1353  0.0150
  282POPC   C1B 3814   6.374   9.920   6.115  0.0449  0.0526  0.1642
  282POPC   C2B 3815   6.586  10.261   6.270 -0.0101  0.0832 -0.1592
  282POPC   C3B 3816   6.834  10.634   5.989 -0.1755  0.4382 -0.2221
  282POPC   C4B 3817   6.980  10.767   5.643  0.3572  0.3447 -0.0804
  283POPC   NC3 3818   1.450   3.949   2.997  0.0121  0.1437 -0.2237
  283POPC   PO4 3819   1.447   3.464   3.042 -0.1970 -0.0043  0.3740
  283POPC   GL1 3820   1.530   3.456   3.469  0.3011 -0.0900  0.0712
  283POPC   GL2 3821   1.271   3.614   3.781 -0.4628 -0.1611  0.3223
  283POPC   C1A 3822   1.731   3.783   3.800  0.2069 -0.1888 -0.1359
  283POPC   D2A 3823   2.072   4.021   3.779 -0.0014  0.2359  0.2176
  283POPC   C3A 3824   2.282   4.094   4.255 -0.1423 -0.2983 -0.0597
  283POPC   C4A 3825   2.566   4.431   4.263 -0.0802  0.0401  0.1740
  283POPC   C1B 3826   1.155   3.641   4.140  0.0295  0.1216 -0.1212
  283POPC   C2B 3827   1.262   3.854   4.481  0.2644 -0.0469 -0.0787
  283POPC   C3B 3828   1.427   4.169   4.682  0.1067 -0.1512 -0.0950
  283POPC   C4B 3829   1.743   4.394   4.701 -0.0958 -0.0777  0.0618
  284POPC   NC3 3830   3.208   0.936   4.544 -0.0015  0.1685  0.2825
  284POPC   PO4 3831   3.310   1.372   4.514 -0.0173 -0.1007  0.0419
  284POPC   GL1 3832   3.136   1.403   4.838  0.4542 -0.1456  0.4293
  284POPC   GL2 3833   3.130   1.295   5.038  0.1240  0.2375 -0.2202
  284POPC   C1A 3834   2.753   1.602   5.006 -0.0846 -0.0771 -0.1859
  284POPC   D2A 3835   2.548   1.552   5.373 -0.0745 -0.3086 -0.1835
  284POPC   C3A 3836   2.623   1.775   5.861 -0.3432  0.0798 -0.1371
  284POPC   C4A 3837   2.376   1.580   6.159  0.0474 -0.0406  0.3774
  284POPC   C1B 3838   2.687   1.134   5.128  0.1483  0.0576  0.1851
  284POPC   C2B 3839   2.276   1.051   5.432  0.1152  0.1535  0.0740
  284POPC   C3B 3840   2.078   0.805   5.718 -0.2318  0.2509 -0.3619
  284POPC   C4B 3841   2.094   0.700   6.083  0.2035 -0.0646 -0.1396
  285POPC   NC3 3842   4.944   0.955   4.475  0.1499 -0.0794  0.4882
  285POPC   PO4 3843   5.356   0.843   4.677 -0.1149  0.2648  0.0524
  285POPC   GL1 3844   5.432   0.703   5.069 -0.1290  0.0190  0.2521
  285POPC   GL2 3845   5.139   0.517   5.265  0.4573  0.1417  0.0352
  285POPC   C1A 3846   5.589   0.474   5.383  0.4143 -0.0122  0.0174
  285POPC   D2A 3847   5.472   0.101   5.737  0.2963  0.0289  0.3484
  285POPC   C3A 3848   5.112   0.044   6.046 -0.0678  0.3297  0.0158
  285POPC   C4A 3849   4.916   0.370   6.207 -0.1464 -0.2189 -0.1578
  285POPC   C1B 3850   5.170   0.529   5.717 -0.1493  0.1022 -0.1000
  285POPC   C2B 3851   5.324   0.749   6.096  0.1213 -0.4224  0.2316
  285POPC   C3B 3852   5.564   1.051   6.380 -0.1231  0.0182 -0.0534
  285POPC   C4B 3853   5.556   1.533   6.298 -0.0634 -0.1482 -0.1857
  286POPC   NC3 3854   2.137   8.139   5.079 -0.1248 -0.1029  0.0152
  286POPC   PO4 3855   2.070   8.525   5.181 -0.0792 -0.2942 -0.1869
  286POPC   GL1 3856   2.071   8.439   5.611 -0.0937 -0.0564  0.2242
  286POPC   GL2 3857   1.827   8.227   5.635 -0.1921 -0.1905 -0.0393
  286POPC   C1A 3858   2.021   8.517   6.039 -0.0335 -0.0913 -0.2417
  286POPC   D2A 3859   2.228   8.359   6.358 -0.2511 -0.2618 -0.4158
  286POPC   C3A 3860   2.629   8.081   6.575 -0.0003 -0.3330 -0.1232
  286POPC   C4A 3861   3.028   8.144   6.707 -0.1182  0.3425 -0.1807
  286POPC   C1B 3862   1.827   8.086   6.035  0.2069  0.0462 -0.1937
  286POPC   C2B 3863   1.947   7.900   6.309 -0.0741 -0.1949 -0.0404
  286POPC   C3B 3864   1.914   7.711   6.755 -0.4451  0.1564 -0.2564
  286POPC   C4B 3865   1.736   7.489   7.044  0.1397  0.4190 -0.1329
  287POPC   NC3 3866   0.393   8.545   4.686 -0.1335 -0.0806  0.2544
  287POPC   PO4 3867   0.093   8.149   4.937  0.0616 -0.0102  0.0451
  287POPC   GL1 3868  -0.122   7.853   5.176  0.1004 -0.2533 -0.1312
  287POPC   GL2 3869  -0.150   7.517   5.047 -0.1501 -0.0713 -0.0536
  287POPC   C1A 3870  -0.359   8.035   5.544  0.1903  0.0659 -0.2679
  287POPC   D2A 3871  -0.594   8.412   5.635  0.2287 -0.1284  0.1068
  287POPC   C3A 3872  -0.528   8.474   6.046  0.1935  0.2178  0.1850
  287POPC   C4A 3873  -0.870   8.343   6.379 -0.0414  0.1392  0.0930
  287POPC   C1B 3874  -0.238   7.403   5.483 -0.2112  0.0857 -0.0169
  287POPC   C2B 3875  -0.159   7.227   5.882 -0.0351  0.0767  0.1315
  287POPC   C3B 3876  -0.212   7.096   6.340 -0.1685  0.0039 -0.0895
  287POPC   C4B 3877  -0.005   6.796   6.702 -0.2575  0.0246 -0.0175
  288POPC   NC3 3878   0.664   6.149   3.612  0.2284  0.1947  0.0314
  288POPC   PO4 3879   0.194   5.922   3.693 -0.1220 -0.1163  0.1675
  288POPC   GL1 3880   0.105   6.078   4.120  0.1582 -0.0357 -0.0478
  288POPC   GL2 3881  -0.178   5.851   4.246  0.0419  0.0972  0.0606
  288POPC   C1A 3882   0.107   6.256   4.556  0.1532 -0.0416 -0.2386
  288POPC   D2A 3883  -0.071   6.137   4.978 -0.0251 -0.1281 -0.2092
  288POPC   C3A 3884   0.152   6.345   5.376  0.2230  0.0545 -0.0223
  288POPC   C4A 3885   0.455   6.297   5.707  0.0953  0.1356  0.5759
  288POPC   C1B 3886  -0.057   5.691   4.568  0.0873 -0.0044  0.0378
  288POPC   C2B 3887   0.131   5.550   4.986  0.2787  0.2338  0.1819
  288POPC   C3B 3888   0.069   5.810   5.440 -0.3652 -0.4092  0.0273
  288POPC   C4B 3889  -0.020   6.073   5.771 -0.2071 -0.1812  0.3329
  289POPC   NC3 3890   0.900   9.971   4.971  0.2795 -0.3865  0.1485
  289POPC   PO4 3891   1.301  10.166   4.824 -0.2165  0.2267 -0.2723
  289POPC   GL1 3892   1.335  10.018   5.279 -0.0038 -0.0986 -0.1220
  289POPC   GL2 3893   1.182  10.341   5.369  0.1426  0.0407  0.1463
  289POPC   C1A 3894   1.015   9.908   5.676 -0.1135 -0.0262  0.0676
  289POPC   D2A 3895   0.676   9.998   6.113 -0.0993 -0.2629 -0.0648
  289POPC   C3A 3896   0.827  10.036   6.506  0.0241  0.1053  0.1468
  289POPC   C4A 3897   1.143  10.111   6.846 -0.1120 -0.0659  0.0314
  289POPC   C1B 3898   1.050  10.468   5.705 -0.0513  0.0986  0.1668
  289POPC   C2B 3899   1.276  10.682   6.056 -0.0503  0.1673  0.0950
  289POPC   C3B 3900   1.181  11.043   6.330  0.0088 -0.0500 -0.2799
  289POPC   C4B 3901   0.919  11.461   6.487  0.3562 -0.4653  0.0472
  290POPC   NC3 3902   2.803   6.185   3.849 -0.3498 -0.0244 -0.0621
  290POPC   PO4 3903   3.204   6.094   3.931 -0.0909  0.0078  0.1774
  290POPC   GL1 3904   3.209   5.868   4.241 -0.1297  0.2826  0.2035
  290POPC   GL2 3905   3.179   5.918   4.519  0.0629  0.0694 -0.0550
  290POPC   C1A 3906   3.032   5.375   4.405  0.3490 -0.1333  0.0657
  290POPC   D2A 3907   2.872   5.102   4.766 -0.0709 -0.0610  0.0949
  290POPC   C3A 3908   2.424   5.078   4.766 -0.0710  0.1023 -0.1867
  290POPC   C4A 3909   2.067   5.191   4.572  0.1369 -0.0911 -0.1411
  290POPC   C1B 3910   2.913   5.935   4.858  0.1771  0.0668  0.0477
  290POPC   C2B 3911   3.052   5.853   5.302  0.1508  0.1664  0.0759
  290POPC   C3B 3912   3.305   5.596   5.496 -0.2153  0.0878  0.1609
  290POPC   C4B 3913   3.356   5.030   5.677 -0.1082  0.0401  0.1186
  291POPC   NC3 3914   2.706   3.442   3.294  0.0792  0.0128  0.0384
  291POPC   PO4 3915   2.424   3.497   3.006 -0.0405 -0.2841 -0.0590
  291POPC   GL1 3916   2.286   3.792   3.340 -0.0433 -0.3435 -0.0302
  291POPC   GL2 3917   2.454   4.089   3.443  0.3623  0.0127  0.2881
  291POPC   C1A 3918   2.451   3.697   3.812 -0.0606 -0.1307  0.2368
  291POPC   D2A 3919   2.547   3.474   4.115 -0.3795  0.2899  0.1083
  291POPC   C3A 3920   2.921   3.482   4.350  0.1408  0.0087  0.1975
  291POPC   C4A 3921   3.230   3.411   4.615 -0.2904  0.1284  0.2668
  291POPC   C1B 3922   2.629   4.222   3.853 -0.2793 -0.0558 -0.2306
  291POPC   C2B 3923   2.727   3.923   4.181 -0.0236 -0.0547 -0.1127
  291POPC   C3B 3924   2.975   3.963   4.516 -0.0026 -0.2224  0.1482
  291POPC   C4B 3925   3.021   4.087   4.899 -0.4157  0.1121 -0.0143
  292POPC   NC3 3926   5.159   9.337   4.362 -0.0600 -0.2785  0.1328
  292POPC   PO4 3927   5.454   9.211   4.727 -0.4065  0.2755  0.2869
  292POPC   GL1 3928   5.604   9.331   5.200 -0.1492 -0.2859  0.3073
  292POPC   GL2 3929   5.276   9.150   5.370 -0.3082 -0.2105  0.1319
  292POPC   C1A 3930   5.669   9.378   5.589 -0.2098  0.0347 -0.1314
  292POPC   D2A 3931   5.921   9.348   6.024  0.1775 -0.4282  0.0479
  292POPC   C3A 3932   5.791   9.315   6.350 -0.1249  0.4079 -0.2601
  292POPC   C4A 3933   5.659   9.488   6.675 -0.1677  0.0955  0.2766
  292POPC   C1B 3934   5.224   8.735   5.583  0.0766 -0.2051 -0.0747
  292POPC   C2B 3935   5.332   8.551   6.026 -0.0181 -0.1558 -0.1212
  292POPC   C3B 3936   5.402   8.284   6.311 -0.2983  0.2128 -0.1358
  292POPC   C4B 3937   5.735   8.062   6.411 -0.0386  0.0853 -0.3459
  293POPC   NC3 3938   9.870   1.710   3.958  0.1573 -0.0406  0.2598
  293POPC   PO4 3939   9.608   1.646   4.341 -0.2081  0.4082  0.0559
  293POPC   GL1 3940   9.559   2.050   4.558 -0.1289 -0.0269 -0.0496
  293POPC   GL2 3941   9.425   1.783   4.851  0.1965  0.1357 -0.1503
  293POPC   C1A 3942   9.542   2.389   4.898 -0.0647 -0.1930  0.0794
  293POPC   D2A 3943   9.205   2.535   5.226 -0.1886  0.0937  0.1613
  293POPC   C3A 3944   9.094   2.628   5.699 -0.1963  0.2962  0.2392
  293POPC   C4A 3945   8.905   2.478   6.101  0.2336  0.0375  0.2627
  293POPC   C1B 3946   9.834   1.702   5.089  0.0143 -0.2209  0.1004
  293POPC   C2B 3947  10.019   1.933   5.374  0.2146  0.2185  0.2423
  293POPC   C3B 3948  10.405   1.989   5.617  0.2785  0.3259 -0.0878
  293POPC   C4B 3949  10.756   2.119   5.777 -0.0523 -0.1770 -0.3680
  294POPC   NC3 3950   7.316   5.488   4.287  0.2569 -0.1497  0.2114
  294POPC   PO4 3951   7.141   5.145   4.565 -0.0121 -0.3661 -0.0709
  294POPC   GL1 3952   7.282   5.167   4.991  0.1343 -0.1481 -0.0785
  294POPC   GL2 3953   7.044   5.328   5.240  0.1844  0.1845  0.0219
  294POPC   C1A 3954   7.676   5.309   5.243  0.2945 -0.1079  0.0712
  294POPC   D2A 3955   8.039   5.615   5.194  0.1770  0.0186 -0.1384
  294POPC   C3A 3956   8.210   5.726   5.582 -0.0818  0.1177  0.0208
  294POPC   C4A 3957   8.191   5.629   5.991 -0.1327 -0.0989 -0.1557
  294POPC   C1B 3958   6.804   5.136   5.569 -0.2856  0.0267  0.2292
  294POPC   C2B 3959   6.415   5.059   5.743  0.1302 -0.1039 -0.0357
  294POPC   C3B 3960   6.055   5.291   5.967  0.0850 -0.1082 -0.4727
  294POPC   C4B 3961   5.581   5.246   6.391  0.1644  0.1649  0.3245
  295POPC   NC3 3962   8.818   5.976   4.133  0.2508 -0.1114  0.0800
  295POPC   PO4 3963   9.045   6.385   4.192 -0.0678 -0.0382  0.1123
  295POPC   GL1 3964   9.163   6.108   4.610 -0.1084 -0.1109  0.0536
  295POPC   GL2 3965   9.336   5.798   4.550  0.1929 -0.2750  0.1948
  295POPC   C1A 3966   9.074   6.078   5.111 -0.3699  0.0096 -0.0852
  295POPC   D2A 3967   9.289   6.069   5.494 -0.0684 -0.3600 -0.0113
  295POPC   C3A 3968   9.178   6.384   5.776  0.0297 -0.1648 -0.0094
  295POPC   C4A 3969   9.058   6.805   5.800  0.0245 -0.2675  0.0204
  295POPC   C1B 3970   9.651   5.770   4.807  0.0606  0.0757  0.0553
  295POPC   C2B 3971   9.753   5.787   5.168 -0.1796 -0.1088  0.2995
  295POPC   C3B 3972   9.796   5.505   5.495 -0.3644 -0.0339 -0.1874
  295POPC   C4B 3973   9.772   5.303   5.850 -0.0610 -0.2376  0.0543
  296POPC   NC3 3974   5.529   2.203   4.593  0.0218 -0.1926  0.2766
  296POPC   PO4 3975   5.238   2.564   4.625 -0.1820 -0.0456 -0.0658
  296POPC   GL1 3976   5.085   2.612   5.073 -0.1163 -0.0305 -0.2737
  296POPC   GL2 3977   4.801   2.745   5.100  0.0991  0.2344  0.1366
  296POPC   C1A 3978   5.013   2.652   5.541  0.1756  0.2144  0.2630
  296POPC   D2A 3979   5.033   2.653   5.978 -0.0071 -0.1230 -0.2905
  296POPC   C3A 3980   5.135   2.298   6.218 -0.1454 -0.0151  0.2499
  296POPC   C4A 3981   4.835   1.997   6.388 -0.0904  0.2270 -0.2208
  296POPC   C1B 3982   4.865   3.076   5.125 -0.0871  0.1405 -0.1412
  296POPC   C2B 3983   4.937   3.527   5.262  0.1358 -0.1061  0.0796
  296POPC   C3B 3984   4.960   3.757   5.643  0.2172  0.0908  0.1069
  296POPC   C4B 3985   5.008   3.593   6.003  0.1461  0.1837  0.0956
  297POPC   NC3 3986  10.039   0.604   4.461 -0.0370  0.1608 -0.0300
  297POPC   PO4 3987   9.871   0.801   4.698 -0.1884 -0.0513 -0.0048
  297POPC   GL1 3988  10.034   0.900   5.084 -0.5250  0.1617 -0.2801
  297POPC   GL2 3989   9.943   0.598   5.141  0.0773  0.0296 -0.1434
  297POPC   C1A 3990  10.065   1.122   5.466 -0.0236  0.3164 -0.0139
  297POPC   D2A 3991   9.757   1.110   5.774 -0.0220 -0.0330 -0.0735
  297POPC   C3A 3992   9.814   1.391   6.179 -0.2055 -0.1218 -0.1570
  297POPC   C4A 3993   9.767   1.713   6.479  0.0882  0.0430  0.1896
  297POPC   C1B 3994   9.977   0.640   5.523 -0.5426 -0.0442  0.0843
  297POPC   C2B 3995   9.962   0.638   5.937 -0.0232  0.2680  0.0735
  297POPC   C3B 3996  10.112   0.946   6.199  0.0408 -0.1147  0.0637
  297POPC   C4B 3997   9.969   1.161   6.627 -0.0897 -0.0874 -0.0011
  298POPC   NC3 3998   3.666   9.147   4.817 -0.0086  0.1914 -0.1183
  298POPC   PO4 3999   3.774   8.903   5.175 -0.2281 -0.1068  0.2018
  298POPC   GL1 4000   3.512   9.107   5.574  0.1559  0.1774  0.0320
  298POPC   GL2 4001   3.339   8.868   5.621 -0.0877  0.0763  0.0028
  298POPC   C1A 4002   3.273   9.291   5.952 -0.3861 -0.0349 -0.1457
  298POPC   D2A 4003   3.103   9.079   6.330 -0.1822  0.2080  0.1254
  298POPC   C3A 4004   3.307   9.091   6.623 -0.2592 -0.2791  0.0869
  298POPC   C4A 4005   3.399   9.278   7.049  0.0716 -0.1374 -0.0121
  298POPC   C1B 4006   3.509   8.895   6.006  0.2223 -0.0662  0.1572
  298POPC   C2B 4007   3.684   9.170   6.319  0.2530 -0.0692 -0.1449
  298POPC   C3B 4008   3.761   9.329   6.689 -0.3296  0.0660 -0.0125
  298POPC   C4B 4009   3.709   9.666   6.977  0.2515  0.1640  0.2127
  299POPC   NC3 4010   4.100   0.964   4.789 -0.0572  0.0923  0.2129
  299POPC   PO4 4011   3.987   0.576   4.822  0.0299  0.2077 -0.0092
  299POPC   GL1 4012   4.106   0.573   5.192  0.0551 -0.2302 -0.0919
  299POPC   GL2 4013   3.991   0.909   5.287  0.0473 -0.3064  0.2843
  299POPC   C1A 4014   3.934   0.487   5.607  0.1111 -0.1767 -0.1605
  299POPC   D2A 4015   4.073   0.409   5.945 -0.0546 -0.2056 -0.3032
  299POPC   C3A 4016   4.469   0.627   5.969 -0.2614 -0.2520  0.1988
  299POPC   C4A 4017   4.809   0.779   5.888  0.2577 -0.3541  0.1806
  299POPC   C1B 4018   4.182   1.245   5.402  0.2064  0.1911  0.0628
  299POPC   C2B 4019   4.428   1.552   5.513  0.0513 -0.4275 -0.0116
  299POPC   C3B 4020   4.232   1.669   5.938 -0.0373 -0.1639 -0.3556
  299POPC   C4B 4021   4.083   1.694   6.266  0.4541  0.2591  0.2207
  300POPC   NC3 4022   6.340   7.755   4.958 -0.4071  0.1798 -0.2927
  300POPC   PO4 4023   6.480   8.192   4.776 -0.0820  0.3689  0.0874
  300POPC   GL1 4024   6.448   8.137   5.224 -0.0785 -0.2001 -0.2499
  300POPC   GL2 4025   6.634   8.153   5.563  0.0652  0.1372  0.4312
  300POPC   C1A 4026   6.218   7.879   5.595  0.1455  0.0008 -0.0235
  300POPC   D2A 4027   5.782   7.603   5.691 -0.0173 -0.2155  0.0041
  300POPC   C3A 4028   5.663   7.615   6.123  0.0125  0.1070  0.0879
  300POPC   C4A 4029   5.397   7.270   6.336 -0.1261 -0.0723  0.0850
  300POPC   C1B 4030   6.627   7.946   5.969  0.0279  0.0363  0.0604
  300POPC   C2B 4031   6.740   8.033   6.368  0.3216  0.1621  0.0424
  300POPC   C3B 4032   6.942   7.738   6.605  0.0964 -0.1447 -0.3227
  300POPC   C4B 4033   7.328   7.624   6.699  0.1818 -0.0469 -0.0132
  301POPC   NC3 4034   1.565   0.871   4.290  0.3199 -0.1349 -0.0378
  301POPC   PO4 4035   1.345   1.219   4.209  0.2363 -0.1270 -0.2632
  301POPC   GL1 4036   1.563   1.234   4.637 -0.0020  0.1385  0.1093
  301POPC   GL2 4037   1.764   1.473   4.718  0.0502 -0.0839  0.2428
  301POPC   C1A 4038   1.627   1.252   5.192 -0.2060  0.1966 -0.2015
  301POPC   D2A 4039   1.705   1.172   5.626  0.1480  0.1460 -0.1904
  301POPC   C3A 4040   1.631   0.726   5.806  0.3026  0.0779  0.1002
  301POPC   C4A 4041   1.681   0.306   6.078 -0.0926 -0.1943 -0.2420
  301POPC   C1B 4042   1.609   1.714   5.035 -0.2053 -0.2076 -0.1235
  301POPC   C2B 4043   1.328   1.777   5.087  0.0499  0.2487 -0.1012
  301POPC   C3B 4044   1.032   1.999   5.155  0.4388  0.1673  0.2186
  301POPC   C4B 4045   0.878   2.394   5.267  0.1817  0.5019  0.2595
  302W        W 4046   6.940   3.816   2.446  0.1827  0.0525 -0.2214
  303W        W 4047   2.505   8.017   3.718 -0.1161 -0.0291  0.2797
  304W        W 4048   4.537   0.115   3.752  0.2068 -0.2040  0.4455
  305W        W 4049   0.443   9.910  11.424  0.1863 -0.1709 -0.0384
  306W        W 4050   7.584   8.319   1.379  0.1081  0.3291  0.2245
  307W        W 4051   2.188   1.690   2.717 -0.3138  0.1069  0.0122
  308W        W 4052   2.558   7.771   9.965  0.0639  0.3370  0.0880
  309W        W 4053   7.255  10.058   9.324 -0.1970 -0.1098  0.4168
  310W        W 4054   9.047   3.671   0.089  0.1050  0.1482  0.4110
  311W        W 4055   5.675   0.135   1.111 -0.0153  0.1534  0.2376
  312W        W 4056   0.970   2.009   8.700 -0.2327 -0.0426 -0.2484
  313W        W 4057   2.641   5.715   0.671  0.0226 -0.2939  0.1027
  314W        W 4058   3.874   4.359  10.380 -0.0283 -0.0769  0.1402
  315W        W 4059   4.001   1.995  12.126 -0.3008  0.5166  0.0459
  316W        W 4060   6.377   8.818  12.372  0.0121 -0.0637  0.0124
  317W        W 4061   9.756   5.610  12.146  0.0818 -0.0598 -0.1332
  318W        W 4062   4.349   3.195   3.808 -0.0481 -0.0959 -0.0650
  319W        W 4063   7.253   2.247  10.200 -0.1435 -0.3332 -0.3073
  320W        W 4064   4.996   1.979   1.737  0.1587  0.1471  0.1386
  321W        W 4065   5.246   7.783  11.262 -0.0477  0.0018 -0.0925
  322W        W 4066   7.328   4.488   9.598  0.0321 -0.0933 -0.0785
  323W        W 4067   6.114   9.078   4.278  0.1856 -0.5015  0.0597
  324W        W 4068   1.557   9.391   2.747 -0.0268  0.2728 -0.4048
  325W        W 4069   4.158   0.019   1.391  0.0106  0.2542 -0.1300
  326W        W 4070   4.454   7.058   9.902  0.4176 -0.2968  0.0208
  327W        W 4071   4.321   3.377   2.970 -0.0778 -0.0985 -0.1258
  328W        W 4072   0.666   4.532  11.747 -0.0349  0.0628  0.3093
  329W        W 4073   1.094   9.526   2.479  0.0680  0.3781  0.0650
  330W        W 4074   4.290   4.334   0.076  0.2179 -0.1682  0.0808
  331W        W 4075   5.262   7.328   3.239  0.1981  0.2427 -0.1118
  332W        W 4076   3.941   5.042   8.765  0.1414  0.4473  0.0965
  333W        W 4077   5.163   6.017  11.402  0.1043  0.1653 -0.2856
  334W        W 4078   4.056   6.994   2.615  0.2312 -0.1136  0.1485
  335W        W 4079   7.942   6.536  10.480  0.0144 -0.0443 -0.5082
  336W        W 4080   6.352   4.741   4.022  0.0927 -0.2180  0.1724
  337W        W 4081   3.297   0.664   1.581 -0.4012  0.3329 -0.1583
  338W        W 4082   4.073   8.288  12.365  0.1034 -0.0545 -0.1297
  339W        W 4083   5.553   5.391   1.166  0.0033 -0.0415 -0.0720
  340W        W 4084   6.347   0.645  10.040 -0.0788 -0.0206  0.1189
  341W        W 4085   6.716   5.931  10.836 -0.3306 -0.0529  0.2734
  342W        W 4086   3.199   5.466   3.125  0.2095  0.1295 -0.0501
  343W        W 4087   7.510   7.364  11.607  0.2404 -0.1094 -0.0837
  344W        W 4088   8.326   7.649   2.884  0.1294 -0.0798  0.0946
  345W        W 4089   5.768   1.552   9.210  0.1462 -0.1449 -0.0086
  346W        W 4090   3.485   2.608   1.416 -0.0977  0.0648  0.0420
  347W        W 4091   4.058   3.670   2.166 -0.1233 -0.1338 -0.0367
  348W        W 4092   7.899   8.987   4.003  0.1179 -0.3483 -0.0976
  349W        W 4093   5.663   3.136  12.181  0.1255 -0.3405  0.1357
  350W        W 4094   4.674   5.651   2.559 -0.0102  0.2142  0.1194
  351W        W 4095   4.667   9.551   9.213  0.2254 -0.2580  0.1137
  352W        W 4096   1.975   5.526  10.037 -0.3778  0.0117 -0.0710
  353W        W 4097   5.817   4.356  10.603 -0.0134 -0.1504 -0.0700
  354W        W 4098   3.200   1.976  12.279  0.6694 -0.1010 -0.1520
  355W        W 4099   1.507   0.985   2.867  0.1456  0.3402 -0.1093
  356W        W 4100   6.435   0.706  10.685 -0.0935 -0.2389  0.2094
  357W        W 4101   7.113   9.873   3.314 -0.0718 -0.0234 -0.0347
  358W        W 4102   5.285   6.877  11.806 -0.0318  0.2022 -0.2730
  359W        W 4103   4.647   0.136   8.913 -0.2484  0.2513  0.1662
  360W        W 4104  10.022   4.545  12.287  0.1567  0.0973  0.0364
  361W        W 4105   3.355   9.889   9.701  0.2076  0.0867 -0.0262
  362W        W 4106   3.933   6.634  10.357  0.0348 -0.1919  0.2914
  363W        W 4107   6.295   8.743   9.133  0.1185 -0.0290  0.1344
  364W        W 4108   7.512   1.409   9.586  0.3726  0.0869 -0.0477
  365W        W 4109  10.086   8.019   1.530 -0.0416  0.1683  0.0551
  366W        W 4110   9.310   5.402  12.243 -0.1692  0.2104 -0.1026
  367W        W 4111   7.980   5.384   9.608 -0.4464 -0.2764 -0.1304
  368W        W 4112   7.758   7.256  12.115 -0.1107  0.3914  0.0128
  369W        W 4113   4.761   7.058   0.083  0.2434  0.3790  0.1601
  370W        W 4114   6.318   9.411   3.895 -0.0690  0.1805  0.2592
  371W        W 4115   7.409   2.761  11.994 -0.0580  0.0242 -0.3054
  372W        W 4116   1.084   8.572   1.939  0.1748 -0.2905  0.0184
  373W        W 4117   5.735   7.507   3.621  0.1985 -0.1481  0.0212
  374W        W 4118   1.223   5.158   0.558 -0.0215 -0.1098  0.0464
  375W        W 4119   6.113   4.605   8.127  0.2654 -0.1463 -0.0822
  376W        W 4120   0.984   9.435   0.180 -0.1576  0.2402 -0.2508
  377W        W 4121   5.538   8.681  11.972 -0.2652  0.0612 -0.0007
  378W        W 4122   3.616   2.375   0.526 -0.0281 -0.2390 -0.0051
  379W        W 4123   2.975   7.192   4.878 -0.0713  0.2054  0.1308
  380W        W 4124   8.793   5.287   0.179 -0.0103 -0.2847  0.2146
  381W        W 4125   0.646   6.893   2.477 -0.1766  0.0760  0.2963
  382W        W 4126   6.668   2.471   4.884  0.1613 -0.3192  0.5636
  383W        W 4127   8.762   3.966   1.618  0.0192 -0.1286  0.3160
  384W        W 4128   3.656   0.962   1.329  0.3195 -0.2472  0.1582
  385W        W 4129   3.877   8.661   4.072  0.1591  0.2167  0.2092
  386W        W 4130   4.256   0.426  11.666  0.2609 -0.1188 -0.2176
  387W        W 4131   8.744   7.360   9.715  0.0751  0.2427  0.2212
  388W        W 4132   7.851   9.551   1.296  0.5285  0.0676  0.0212
  389W        W 4133   6.170   9.404   8.989 -0.2779  0.1982 -0.1159
  390W        W 4134   4.585   0.635  12.065  0.0209 -0.1964  0.0437
  391W        W 4135   5.672   7.624   3.168  0.0180  0.1740  0.0381
  392W        W 4136   1.330   6.917  10.071 -0.0648 -0.0692 -0.0279
  393W        W 4137   5.054   0.242   3.953  0.4069 -0.1676 -0.1739
  394W        W 4138   9.083   0.416  11.936  0.4018 -0.0414 -0.0678
  395W        W 4139   5.036   1.970   8.404  0.0175  0.2326 -0.1925
  396W        W 4140   2.733   7.802   0.200 -0.0481 -0.2548 -0.0482
  397W        W 4141   1.245   8.140  11.668 -0.0598 -0.1795  0.2556
  398W        W 4142   8.781   1.417   1.285 -0.0148  0.2270 -0.1442
  399W        W 4143   3.952   2.007   4.078 -0.1499 -0.1832 -0.1621
  400W        W 4144   6.472   9.685   9.357  0.1285  0.1194 -0.0388
  401W        W 4145   2.888   3.087  10.840  0.0129  0.1755 -0.0624
  402W        W 4146   5.997   6.364  11.978  0.2191 -0.0795  0.4900
  403W        W 4147   0.880   8.636   2.492  0.0464  0.2268  0.2271
  404W        W 4148   6.992   6.886   5.607  0.0277  0.0858 -0.2027
  405W        W 4149   5.767   1.283   0.725 -0.0851 -0.0229 -0.3010
  406W        W 4150   8.753   7.042  12.098 -0.0973 -0.1993 -0.1042
  407W        W 4151   4.028   9.546   2.400 -0.0886 -0.0649 -0.0236
  408W        W 4152   7.896   6.563  11.022  0.3866  0.3225 -0.1137
  409W        W 4153   5.979   0.926   1.587 -0.1241 -0.1094  0.2522
  410W        W 4154   5.151   7.730   4.076 -0.1127 -0.0321 -0.0662
  411W        W 4155   0.739   0.615   1.287  0.0121  0.3013  0.0621
  412W        W 4156   9.767   4.176   1.707 -0.1261 -0.0324 -0.2131
  413W        W 4157   8.315   5.300   0.398  0.0469 -0.0595 -0.2348
  414W        W 4158   9.836   0.764  12.292 -0.1560  0.0263  0.0576
  415W        W 4159   7.896   5.904   4.819 -0.0397 -0.4886  0.0470
  416W        W 4160   2.429   1.361  11.306  0.2326  0.1850 -0.0298
  417W        W 4161   5.520   8.736   4.955 -0.0660 -0.1026 -0.0201
  418W        W 4162   9.020   8.098   3.252  0.0275 -0.1346 -0.0446
  419W        W 4163   4.043   6.035   0.635  0.1982 -0.2275  0.1927
  420W        W 4164   2.365   2.951  10.748 -0.1689  0.1933  0.3694
  421W        W 4165   8.255   1.871   0.631  0.3945 -0.2362  0.0766
  422W        W 4166   5.488   6.279  11.177  0.2448 -0.0339  0.2112
  423W        W 4167   5.299   8.844   1.760  0.2533  0.0127  0.0823
  424W        W 4168   9.432   9.260   0.513 -0.4588  0.0108  0.6912
  425W        W 4169   6.252   1.416  12.117 -0.3129 -0.0329 -0.1490
  426W        W 4170   7.926   3.986   4.178  0.6198  0.2514  0.4119
  427W        W 4171   8.699   6.198   8.904 -0.2329  0.1931 -0.3987
  428W        W 4172   4.033   9.742  10.874  0.1401  0.2066  0.0494
  429W        W 4173   4.469   4.264   1.043  0.0145  0.1225 -0.1476
  430W        W 4174  10.006   4.694   2.710 -0.2376 -0.2805  0.1018
  431W        W 4175   3.883   4.217   3.795  0.1208 -0.0225  0.0450
  432W        W 4176   7.204   5.402   2.286 -0.2688 -0.1537 -0.1296
  433W        W 4177   4.019   2.481  12.095  0.1332  0.1493 -0.1414
  434W        W 4178   1.986   3.304   1.408 -0.1506 -0.2145 -0.3364
  435W        W 4179   5.472   3.677  12.003 -0.3076  0.2845  0.0530
  436W        W 4180   1.601   3.560   2.080  0.6231  0.0321 -0.0370
  437W        W 4181   7.605   7.014  11.288  0.2500  0.0070 -0.0641
  438W        W 4182   5.931   8.951   0.182  0.1841  0.0016 -0.3037
  439W        W 4183   4.327   9.894   9.039 -0.1409  0.0760 -0.0307
  440W        W 4184   4.690   3.053   3.109  0.1894 -0.0682 -0.0628
  441W        W 4185   8.350   1.528   3.491  0.0213  0.0271 -0.2218
  442W        W 4186   2.356   2.803   7.883  0.0876 -0.1666  0.0982
  443W        W 4187   9.618   6.302   2.013 -0.0305 -0.1185 -0.3455
  444W        W 4188   3.894   5.239   2.774 -0.2011 -0.1825 -0.1113
  445W        W 4189   5.082   7.818   3.159 -0.0230 -0.2649 -0.2178
  446W        W 4190   0.943   9.191   3.038 -0.1527  0.1507 -0.1290
  447W        W 4191   8.099   2.596  11.209 -0.0537 -0.1952  0.2686
  448W        W 4192   8.581   4.843   0.332  0.1092 -0.1291 -0.0956
  449W        W 4193   8.786   7.846   4.052 -0.1539 -0.0602  0.0065
  450W        W 4194   5.559   4.919   0.712 -0.0206  0.1332 -0.1592
  451W        W 4195   2.999   2.683   2.235  0.0627  0.0170  0.3343
  452W        W 4196   2.506   1.645   9.790 -0.1987 -0.2293 -0.0850
  453W        W 4197   8.948   9.606   4.546  0.3838  0.2948  0.1912
  454W        W 4198   2.287   8.069  11.303  0.2016  0.1565 -0.2913
  455W        W 4199   8.003   0.918   1.587 -0.4486 -0.1743 -0.1232
  456W        W 4200   1.935   5.257   1.141 -0.2978 -0.2190  0.3076
  457W        W 4201   1.450   2.268   8.037 -0.1933 -0.5158  0.2925
  458W        W 4202   2.030   3.688  11.209 -0.1556 -0.1836  0.0494
  459W        W 4203   4.237   3.598   0.809  0.4145 -0.1210 -0.1131
  460W        W 4204   2.914   0.244  10.411 -0.0481  0.1303 -0.2711
  461W        W 4205   3.355   4.416   1.148  0.1764  0.1187 -0.0827
  462W        W 4206   9.804   8.113   2.011 -0.1283 -0.0587  0.0952
  463W        W 4207   9.084   3.961   2.391 -0.1362 -0.1543 -0.3162
  464W        W 4208   4.489   5.428   9.641  0.1146  0.1021 -0.0004
  465W        W 4209   1.820   0.197  11.401  0.3229  0.2498  0.2546
  466W        W 4210   7.457   2.960   4.421  0.0088 -0.0009 -0.3234
  467W        W 4211   9.293   4.748   9.114 -0.0142  0.0830  0.1004
  468W        W 4212   4.334   6.354   1.865  0.1405  0.3836 -0.3303
  469W        W 4213   3.185   9.358   0.452  0.0358 -0.3173  0.3939
  470W        W 4214   2.544   7.279  10.654 -0.1393 -0.3032 -0.0356
  471W        W 4215   8.067   4.135   9.146 -0.3503  0.2327  0.0137
  472W        W 4216   5.913   6.663  11.254 -0.1456 -0.0072  0.1183
  473W        W 4217   6.026   2.314   4.623  0.1495 -0.0736 -0.0840
  474W        W 4218   1.303   9.636   4.865 -0.1695 -0.1559 -0.3175
  475W        W 4219   0.405   8.348   1.517 -0.0207  0.1059 -0.1667
  476W        W 4220   7.667   2.242   1.551  0.2622 -0.1046  0.1449
  477W        W 4221   9.362   1.906  12.159 -0.0627  0.0070 -0.1143
  478W        W 4222   8.305   1.691   2.261  0.2344 -0.2124  0.2299
  479W        W 4223   1.302   5.262   1.720  0.1034 -0.1571  0.0329
  480W        W 4224   2.678   7.680   9.491 -0.0406 -0.2734  0.1678
  481W        W 4225   1.567   2.804   9.858  0.2792  0.0755 -0.1910
  482W        W 4226   0.598   2.454   0.248  0.0074 -0.0389 -0.0802
  483W        W 4227   7.705   3.190   2.736  0.0238 -0.5047  0.0559
  484W        W 4228   5.436   5.277  10.888 -0.2543  0.2036 -0.2374
  485W        W 4229   4.612   3.763   4.285 -0.1826 -0.3049  0.2338
  486W        W 4230   0.963   0.510   0.040 -0.0234 -0.0353  0.2089
  487W        W 4231   3.523   2.172  11.234  0.0557  0.0749  0.1337
  488W        W 4232   1.717   0.452   3.998  0.1081  0.0284 -0.4818
  489W        W 4233   2.000   8.353   3.446 -0.0360  0.1358 -0.0230
  490W        W 4234   4.290   4.303   2.239  0.0290 -0.0187  0.2303
  491W        W 4235   8.132   1.246   2.479 -0.4335  0.1968 -0.2363
  492W        W 4236   8.503   3.796   0.661  0.0866  0.1342 -0.1103
  493W        W 4237   7.947   1.670  10.696  0.0447 -0.3759  0.1057
  494W        W 4238   5.231   7.532   1.626  0.0618  0.1256  0.3416
  495W        W 4239   7.475   0.341  10.878 -0.0514 -0.2205  0.0105
  496W        W 4240   5.650   8.348   3.737 -0.2186  0.0014 -0.0366
  497W        W 4241   2.587   0.615  11.183 -0.0585 -0.1172  0.0839
  498W        W 4242   1.750   1.080   9.950 -0.1413 -0.1354  0.1797
  499W        W 4243   4.242   1.516  11.773 -0.1293 -0.1235  0.3256
  500W        W 4244   4.058   8.111   0.844  0.0957  0.0188 -0.3359
  501W        W 4245   2.466   8.106   8.928 -0.3102  0.0196  0.2450
  502W        W 4246   9.550   0.163   3.381 -0.1901 -0.1712 -0.2406
  503W        W 4247   2.511   5.234  10.967 -0.1617  0.2389  0.1309
  504W        W 4248   0.199   1.351   9.046  0.1530  0.0022  0.3823
  505W        W 4249   8.363   9.948   0.296  0.2814  0.1393  0.2247
  506W        W 4250   6.953   4.654   4.763 -0.0130 -0.1619 -0.0694
  507W        W 4251   4.273   8.702   1.876  0.3774  0.4102  0.0472
  508W        W 4252   6.472   2.553   2.811 -0.2886  0.0483 -0.1331
  509W        W 4253   6.118   4.559  12.348 -0.0425  0.0438 -0.1281
  510W        W 4254   3.898   9.199   3.962  0.1117 -0.0984 -0.1025
  511W        W 4255   6.284   9.325   3.373  0.0273  0.2902 -0.2090
  512W        W 4256   6.812   6.807   0.231  0.1075 -0.0725 -0.0955
  513W        W 4257   6.387   2.829   8.942  0.1244 -0.2658  0.1189
  514W        W 4258   2.992   1.275   3.682 -0.0560 -0.0386  0.0334
  515W        W 4259   7.391   4.225   3.666 -0.3583  0.3017 -0.2219
  516W        W 4260   7.392   3.878   0.541 -0.2889 -0.1116 -0.0707
  517W        W 4261   1.493   9.660  10.257 -0.0808 -0.0597 -0.1116
  518W        W 4262   1.115   0.085   1.270  0.3489 -0.0577 -0.2045
  519W        W 4263   6.356   2.952  10.193  0.2306 -0.0554  0.1798
  520W        W 4264   6.807   8.648   9.130  0.0475 -0.1732  0.0123
  521W        W 4265   7.864   5.127   1.591 -0.1400 -0.2600 -0.0931
  522W        W 4266   0.578   4.629   9.684  0.1312 -0.0327  0.1719
  523W        W 4267   4.724   5.545   1.275 -0.0425 -0.0709 -0.0787
  524W        W 4268   4.751   2.092   9.195  0.0941  0.0060  0.2286
  525W        W 4269   2.147   9.897   0.432  0.0566 -0.3022 -0.0549
  526W        W 4270   1.182   9.394  12.118 -0.1838  0.0880  0.1739
  527W        W 4271   6.081   5.743  10.016 -0.0454 -0.1346  0.0785
  528W        W 4272   9.936   3.175   1.540 -0.1082  0.1723 -0.1637
  529W        W 4273   1.835   3.619  11.675  0.1963 -0.3145  0.2594
  530W        W 4274   8.708   3.811   2.776 -0.1770  0.0050  0.1413
  531W        W 4275   1.957   5.977  11.326 -0.0543  0.1275 -0.1364
  532W        W 4276   5.241   3.851  11.134  0.1570  0.0450 -0.3545
  533W        W 4277   5.223   7.967   4.570 -0.1537 -0.0991 -0.1664
  534W        W 4278   4.767   4.882   0.841 -0.1460  0.2283 -0.1440
  535W        W 4279   6.543   2.796   5.282  0.0343  0.2078  0.0065
  536W        W 4280   9.064   3.953  11.391  0.0607  0.0736  0.0284
  537W        W 4281   6.307   6.269   9.075  0.3831  0.1195  0.3982
  538W        W 4282   0.173   7.997  10.999  0.0044 -0.0098 -0.0931
  539W        W 4283   9.859   1.654   0.140  0.1420 -0.2384 -0.0588
  540W        W 4284   4.005   4.731   0.200  0.2759 -0.2314 -0.1140
  541W        W 4285   2.674   1.576   9.266 -0.0356 -0.1215 -0.1340
  542W        W 4286   8.309   8.737   0.980  0.1415 -0.2547  0.0661
  543W        W 4287   1.761   4.408  10.466 -0.0805 -0.2725 -0.0392
  544W        W 4288   3.307   1.217   0.996 -0.0864 -0.0565 -0.0320
  545W        W 4289   5.743   6.260   9.080  0.1819  0.2417  0.0656
  546W        W 4290   8.823   3.744  11.010 -0.1073 -0.1893 -0.3296
  547W        W 4291   8.376   5.058  11.167  0.1940 -0.3380  0.0176
  548W        W 4292   7.659   7.069   4.243 -0.2065 -0.1772  0.2666
  549W        W 4293   7.754   3.712   2.843  0.0729  0.0481  0.3530
  550W        W 4294   0.419   9.809   0.903 -0.0612 -0.1743  0.3159
  551W        W 4295   6.209   5.123   1.453  0.0834  0.3554  0.1197
  552W        W 4296   5.532   2.229   1.013 -0.1255 -0.3682 -0.2047
  553W        W 4297   9.790   4.220   2.753  0.2100 -0.0449 -0.1186
  554W        W 4298   5.633   0.269  10.299 -0.0457 -0.0800 -0.1584
  555W        W 4299   5.022  10.062  11.345  0.3058 -0.1630 -0.0870
  556W        W 4300   5.739   3.029   2.419  0.0395  0.2071  0.0343
  557W        W 4301   3.369   1.230  11.955  0.0265  0.1569  0.2711
  558W        W 4302   7.024   9.394  11.898 -0.1338 -0.0305  0.0551
  559W        W 4303   2.343   2.058   3.670  0.0857 -0.2067 -0.0394
  560W        W 4304   1.041   9.676   9.922  0.0566 -0.1916  0.0088
  561W        W 4305   0.149   8.761   1.679  0.2665 -0.0773 -0.0075
  562W        W 4306   5.665   5.856   1.458 -0.1543 -0.1364  0.0397
  563W        W 4307   0.460   1.321  10.844  0.1823 -0.0101  0.2963
  564W        W 4308   0.742   0.436   3.954  0.1226  0.0356  0.0759
  565W        W 4309   8.947   6.706  11.719 -0.0287  0.1480 -0.1074
  566W        W 4310   7.914   1.554   3.213 -0.0929 -0.0572  0.0163
  567W        W 4311   8.372   5.523   4.747  0.0632 -0.0111  0.2374
  568W        W 4312   2.222   6.704   4.468  0.2282  0.1030 -0.3230
  569W        W 4313   6.663   2.276  10.098 -0.0872 -0.0902  0.1667
  570W        W 4314   8.021  10.021   1.163  0.1919 -0.2483  0.1270
  571W        W 4315   4.353   5.065   1.949  0.1439 -0.0923 -0.2062
  572W        W 4316   6.274   5.252   3.621  0.1739 -0.1413 -0.3108
  573W        W 4317   6.461   8.298  11.172 -0.1505 -0.0336  0.1476
  574W        W 4318   3.829   0.077  12.329  0.1904 -0.2008  0.0667
  575W        W 4319   5.253   9.860  10.036  0.1795 -0.1180  0.0217
  576W        W 4320   4.398   8.640  10.353  0.0037 -0.1000  0.0951
  577W        W 4321   7.709   9.737  10.411 -0.0247  0.1091 -0.1304
  578W        W 4322   9.003   7.892   0.791  0.2487 -0.1621  0.1249
  579W        W 4323   1.136   7.967   9.714 -0.0932  0.0895  0.5170
  580W        W 4324   5.223   9.528   9.105  0.0200  0.1418 -0.0355
  581W        W 4325   1.459   3.026   9.051 -0.3293 -0.3146 -0.0897
  582W        W 4326   9.785   0.344   9.276 -0.1165 -0.3661 -0.2036
  583W        W 4327   8.887   1.898   8.352 -0.1264  0.0723  0.1581
  584W        W 4328   5.579   2.276   9.323  0.0988 -0.4318 -0.1142
  585W        W 4329   7.280   9.313  10.945 -0.2217  0.2259  0.0741
  586W        W 4330   3.687   9.685  11.975 -0.0212  0.2251  0.1654
  587W        W 4331   9.629   8.550   2.173  0.3880  0.1575 -0.2374
  588W        W 4332   4.640   8.034   4.340 -0.2469 -0.0065 -0.3149
  589W        W 4333   2.850   8.545   9.634 -0.0381 -0.4841 -0.2443
  590W        W 4334   9.011   8.289   0.442  0.1764 -0.1446 -0.0419
  591W        W 4335   2.027   0.569   3.621 -0.2006 -0.0304  0.1745
  592W        W 4336   5.455   3.511  10.110  0.0411 -0.0868  0.3995
  593W        W 4337   8.491   2.972  12.313  0.0159  0.1231  0.0467
  594W        W 4338   0.722   1.208   0.770 -0.1041 -0.0470 -0.1040
  595W        W 4339   3.875  10.122   9.309 -0.1869  0.1884 -0.0357
  596W        W 4340   2.137   8.102   4.587 -0.0977  0.0636 -0.0717
  597W        W 4341   9.536   4.491   3.158  0.1982  0.2187  0.1772
  598W        W 4342   0.334   1.826   1.853 -0.0654  0.2923 -0.3468
  599W        W 4343   7.649   4.745  12.296  0.0785 -0.3006  0.1821
  600W        W 4344   7.493   6.877   2.441 -0.1598 -0.0104  0.1142
  601W        W 4345   7.210   8.547   0.390  0.1324  0.0554 -0.1004
  602W        W 4346   6.410   6.718   3.457  0.5132 -0.3377 -0.1539
  603W        W 4347   7.071   0.793   0.114  0.3005  0.2054  0.0020
  604W        W 4348   0.649   0.524   2.155  0.3422 -0.1962  0.0544
  605W        W 4349   6.433   5.441   0.891 -0.2214 -0.2038  0.0084
  606W        W 4350   5.579   7.205   1.809  0.0749 -0.2704 -0.0006
  607W        W 4351   9.233   3.969  10.891  0.1428  0.0702 -0.1649
  608W        W 4352   9.565   7.278   2.775  0.0032 -0.2118 -0.1713
  609W        W 4353   9.896   3.505  12.041  0.3986  0.1791 -0.2501
  610W        W 4354   0.931   4.332   9.514 -0.0209 -0.0202  0.2512
  611W        W 4355   2.938   4.877   8.716  0.0507 -0.2385 -0.2295
  612W        W 4356   0.075   4.451   0.346 -0.0244 -0.0782 -0.0317
  613W        W 4357   2.243   4.960   3.384  0.0825 -0.0713 -0.0583
  614W        W 4358   6.286   0.078  10.396  0.1225 -0.0781 -0.0058
  615W        W 4359   8.934   3.446   2.377  0.0623 -0.0981 -0.1629
  616W        W 4360   1.174   6.915   2.785  0.2805  0.1746  0.0275
  617W        W 4361   7.501   4.253   1.484  0.0402 -0.4707  0.0393
  618W        W 4362   5.403   1.814   9.001  0.0907  0.2019 -0.3052
  619W        W 4363   2.071   4.673  10.846 -0.2338  0.0612  0.6727
  620W        W 4364   3.096   2.258  10.323  0.0338  0.0276 -0.2353
  621W        W 4365   8.813   1.442   9.992  0.0405  0.0214 -0.2532
  622W        W 4366   3.687   3.302  10.997 -0.4502 -0.2296  0.0166
  623W        W 4367   5.714   7.690   1.904 -0.0711  0.2256 -0.0044
  624W        W 4368   0.938   6.057   2.271  0.0866 -0.1925 -0.1020
  625W        W 4369   7.782   3.257   4.212 -0.0706  0.0133  0.1839
  626W        W 4370   5.477   8.694   0.941  0.0465  0.2317 -0.0966
  627W        W 4371   7.875   5.068  10.200  0.2119  0.2205 -0.1163
  628W        W 4372   5.900   8.692   9.460  0.0711 -0.1608  0.1869
  629W        W 4373   0.019   6.541  10.925 -0.0179  0.0812 -0.0286
  630W        W 4374   8.749   0.164   5.354  0.0294 -0.2245  0.0444
  631W        W 4375   3.684   4.186   2.423 -0.1578  0.2006 -0.0615
  632W        W 4376   6.649   8.769   1.754 -0.1972  0.1780 -0.2552
  633W        W 4377   0.041   3.042   8.936 -0.1064  0.0083  0.0700
  634W        W 4378   5.336   8.148   1.061 -0.0754 -0.2758 -0.0830
  635W        W 4379   7.968   5.985   3.576  0.4102  0.4745  0.1007
  636W        W 4380   0.150   2.699   0.295 -0.1171  0.0219 -0.2622
  637W        W 4381   4.715   3.881  12.351  0.1863 -0.0644 -0.1342
  638W        W 4382   4.933   3.247   9.957  0.0807 -0.0774 -0.1018
  639W        W 4383   0.795   9.044   0.958  0.2036 -0.1202  0.1898
  640W        W 4384   4.983   6.409   0.735  0.1404  0.2623 -0.0337
  641W        W 4385   9.575   0.387   0.156 -0.1620  0.0817 -0.1301
  642W        W 4386   5.307   6.561   4.567  0.1558  0.2091  0.0728
  643W        W 4387   9.166   8.754  11.638  0.2061 -0.0319 -0.0691
  644W        W 4388   1.278   4.650   1.214  0.2240  0.0258 -0.2929
  645W        W 4389   4.160   7.653  11.318  0.0150 -0.0013  0.0724
  646W        W 4390   0.052   1.515  11.658  0.0592  0.0101  0.3594
  647W        W 4391   6.620   7.054   8.965  0.2234  0.0855 -0.2787
  648W        W 4392   4.181   5.317   0.049 -0.2690  0.1013  0.1044
  649W        W 4393   4.654   6.704   1.025 -0.2089 -0.1736 -0.0875
  650W        W 4394   9.064   7.577  11.323  0.1000 -0.1264  0.2860
  651W        W 4395   0.838   6.246   3.177 -0.0448 -0.1464  0.1955
  652W        W 4396   5.506   4.364   0.827  0.0560 -0.0692 -0.1768
  653W        W 4397   7.442   1.777  11.715 -0.1150  0.0337  0.0716
  654W        W 4398   5.620   4.407  11.991 -0.0937 -0.2646 -0.4750
  655W        W 4399   9.376   0.096  12.202  0.0077  0.1785  0.2268
  656W        W 4400   5.937   9.669   3.642 -0.0298 -0.3075 -0.0975
  657W        W 4401   6.347   1.264   9.315 -0.1165 -0.1355  0.0529
  658W        W 4402   7.695   3.230   9.501 -0.3149  0.0751  0.2473
  659W        W 4403   1.945   9.863   2.321  0.1688 -0.0527  0.1397
  660W        W 4404   1.546   2.502   8.992 -0.0308 -0.2699  0.1914
  661W        W 4405   1.506   0.875  10.456  0.1281  0.2116  0.0882
  662W        W 4406   7.946   9.501   3.823 -0.3025  0.1610  0.3051
  663W        W 4407   0.860   0.432  10.256  0.1991  0.0671  0.0998
  664W        W 4408   5.447   5.247   8.933  0.0313  0.0294 -0.0725
  665W        W 4409   3.250   8.800   5.135 -0.1994  0.0973  0.0849
  666W        W 4410   8.469   0.534   4.119  0.0023  0.2765  0.0095
  667W        W 4411   8.077   8.981   9.622 -0.0351 -0.1435 -0.2073
  668W        W 4412   9.869   3.302  10.394 -0.1002  0.2348 -0.0467
  669W        W 4413   0.254   6.830   2.164  0.0744  0.0801  0.0347
  670W        W 4414   0.800   8.143  10.232  0.0275  0.0783  0.0605
  671W        W 4415   9.673   5.852   2.885  0.3735  0.4166  0.1117
  672W        W 4416   1.754   4.739   3.505  0.0320 -0.2273  0.1690
  673W        W 4417   9.649   2.511   2.814  0.0085  0.1918  0.1273
  674W        W 4418   7.628   7.534  10.974 -0.2794 -0.0204 -0.0140
  675W        W 4419   9.797   5.379   2.647 -0.2273 -0.0729 -0.4020
  676W        W 4420   6.375   3.057   2.507  0.2054 -0.0995  0.2224
  677W        W 4421   6.798   1.623  12.077 -0.2362  0.0495  0.0273
  678W        W 4422   7.773   4.302   9.551  0.0900 -0.1691 -0.0740
  679W        W 4423   9.871   0.737  11.364  0.0398 -0.1182 -0.1821
  680W        W 4424   9.113   4.896   2.012 -0.4424  0.3647 -0.0604
  681W        W 4425   6.497   6.436   5.268 -0.0673  0.2622  0.2000
  682W        W 4426   6.838   8.546  10.958 -0.1317 -0.4291 -0.2022
  683W        W 4427  10.089   1.540  10.607  0.1604 -0.2985 -0.0021
  684W        W 4428   2.494   3.120   9.308 -0.0589  0.0619  0.1342
  685W        W 4429   1.376   7.573   2.343 -0.4305 -0.0701 -0.1554
  686W        W 4430   3.075   8.687   9.245  0.0175  0.0981  0.0527
  687W        W 4431   4.316   2.637  10.960 -0.0109 -0.1162  0.2059
  688W        W 4432   6.263   6.539  11.587  0.2355  0.0321  0.0681
  689W        W 4433   9.955   4.976   9.710  0.2719 -0.1241 -0.1938
  690W        W 4434   3.070   0.342   0.639 -0.1670 -0.0065 -0.2222
  691W        W 4435   0.472   4.001  11.037 -0.2915  0.1561 -0.1621
  692W        W 4436   5.013   7.821   0.241 -0.1188 -0.0343  0.0888
  693W        W 4437   1.280   8.613   4.547  0.0815 -0.3828 -0.3955
  694W        W 4438   1.818   1.965   3.066  0.0430 -0.2459 -0.0443
  695W        W 4439   6.131   2.952  11.399  0.0379  0.0888  0.2199
  696W        W 4440   4.142   7.992   4.310  0.1961 -0.2527  0.2456
  697W        W 4441   8.879   1.225   4.507  0.4207  0.1226  0.0179
  698W        W 4442   1.814   4.928   0.499 -0.1257  0.0505 -0.2769
  699W        W 4443   5.916   6.129  10.941  0.2499 -0.1761  0.1136
  700W        W 4444   8.960   8.973   1.893 -0.0930 -0.3353 -0.0198
  701W        W 4445   9.369   9.091   5.116 -0.1273  0.0360  0.3246
  702W        W 4446   3.943   2.920   1.298  0.4007  0.1054 -0.1703
  703W        W 4447   7.575   7.956   4.157  0.0153 -0.2464  0.0868
  704W        W 4448   9.524   0.704   2.735  0.2059  0.0236  0.0725
  705W        W 4449   6.189   8.515   0.444 -0.2190 -0.1235 -0.1740
  706W        W 4450   5.931   4.203   2.087 -0.1469 -0.2313 -0.3086
  707W        W 4451   3.563   8.030   0.773 -0.1628  0.3249  0.1187
  708W        W 4452  10.066   6.558  11.960 -0.2066  0.2091  0.0833
  709W        W 4453   1.380   3.693   8.470  0.0094  0.1392  0.1008
  710W        W 4454   9.089   8.709   4.432  0.0183 -0.0154  0.0390
  711W        W 4455   1.935   7.361   2.250  0.0775  0.4615  0.0964
  712W        W 4456   6.372   8.793  11.191  0.1074  0.1343 -0.2498
  713W        W 4457   6.512   5.298  12.090  0.1675  0.0986 -0.0083
  714W        W 4458   2.586   6.701  11.397  0.1228 -0.3156  0.0628
  715W        W 4459   6.067   1.576   2.541  0.1656 -0.1755 -0.1005
  716W        W 4460  10.050   9.523   3.332  0.1327  0.0847  0.0265
  717W        W 4461   0.843   7.667   2.165  0.1198  0.1194  0.0133
  718W        W 4462   5.061   9.839   4.227 -0.1345  0.0209  0.1293
  719W        W 4463   2.807   6.483   0.202  0.0525 -0.0033 -0.0044
  720W        W 4464   4.438   8.037  10.400  0.0383  0.0558 -0.0701
  721W        W 4465   5.277   3.037   3.175 -0.0553  0.0561 -0.1155
  722W        W 4466   3.256   2.065   9.704  0.2385  0.1211  0.4702
  723W        W 4467   8.789   9.767   0.432  0.2264  0.0847  0.1074
  724W        W 4468   6.384   8.936  11.855 -0.0948  0.1547 -0.0113
  725W        W 4469   4.237   0.821   3.601  0.3455  0.4106 -0.1095
  726W        W 4470   9.709   2.770   1.858 -0.2123  0.2476 -0.1237
  727W        W 4471   1.452   8.822  10.868 -0.1733  0.0851  0.0761
  728W        W 4472   3.210   8.771  11.128 -0.1331  0.1866 -0.0045
  729W        W 4473   2.723   4.886   0.933 -0.0696  0.0546 -0.2543
  730W        W 4474   8.419   6.719  10.698  0.0427 -0.0706  0.0282
  731W        W 4475   6.143   3.038   9.382 -0.0799 -0.1139 -0.1572
  732W        W 4476   5.435   6.610   0.231 -0.2879  0.0223 -0.2262
  733W        W 4477   2.893   2.108   1.093 -0.0300  0.0827  0.1352
  734W        W 4478   0.455   4.790   0.111 -0.2964  0.1968  0.0413
  735W        W 4479   1.143   6.755   3.832  0.1941  0.1619 -0.1488
  736W        W 4480   5.382   1.137   2.810  0.1950 -0.2060 -0.2262
  737W        W 4481   0.402   3.383   9.812 -0.0782  0.0703  0.4593
  738W        W 4482   7.597   1.171   8.732  0.0863  0.2439  0.1665
  739W        W 4483   3.262   1.158   2.883  0.1412  0.1025  0.0059
  740W        W 4484   8.957   2.597   0.601  0.1734 -0.1449  0.2426
  741W        W 4485   9.435   7.268   2.202 -0.2534 -0.1548  0.0142
  742W        W 4486   5.628   8.393   1.614 -0.0752  0.0365 -0.0939
  743W        W 4487   9.174   6.738   4.540  0.1837  0.2236  0.2221
  744W        W 4488   2.222   8.931   4.949 -0.0669  0.2787  0.4295
  745W        W 4489  10.054   5.278  11.964  0.1258 -0.3886 -0.0885
  746W        W 4490   7.018   6.989   9.328 -0.1302  0.1183  0.0764
  747W        W 4491   1.169   4.759  10.938  0.1587  0.0893  0.1575
  748W        W 4492   2.526   6.580   3.591 -0.0129  0.2618 -0.0886
  749W        W 4493   0.476   4.337   1.700 -0.0796 -0.1157 -0.0542
  750W        W 4494   2.440   3.174   9.911 -0.0037  0.2203 -0.3219
  751W        W 4495   4.884   6.911  10.155 -0.1021 -0.3085  0.1093
  752W        W 4496   2.187   1.496   9.164  0.2117  0.1016 -0.1493
  753W        W 4497   7.794   0.383   1.268 -0.3447 -0.4509  0.0905
  754W        W 4498   1.994   4.887  10.381 -0.3871 -0.0357 -0.1893
  755W        W 4499   4.259   7.015   0.126 -0.1110  0.1264 -0.0522
  756W        W 4500   8.356   5.526   1.829 -0.1926  0.3184 -0.2480
  757W        W 4501   6.643   7.627  11.474  0.1931  0.2854 -0.0805
  758W        W 4502   4.679   0.648   3.551 -0.0917  0.1046  0.3351
  759W        W 4503   1.824   1.661  10.214 -0.0026  0.7535 -0.0466
  760W        W 4504   2.375   7.740  12.152 -0.1982 -0.1029  0.1473
  761W        W 4505   5.335   7.359  11.858 -0.1788 -0.0550 -0.1662
  762W        W 4506   9.549   1.309   8.776 -0.1667  0.2391  0.2509
  763W        W 4507   1.746   3.232   0.895 -0.0361 -0.0906  0.0345
  764W        W 4508   4.691   6.195   0.343  0.1763 -0.0790 -0.0297
  765W        W 4509   8.395   1.048   8.845 -0.0892 -0.1495  0.0856
  766W        W 4510   4.358   9.156   3.303  0.0074  0.2916 -0.0954
  767W        W 4511   8.436   3.181   3.494  0.3716 -0.2118 -0.0878
  768W        W 4512   3.611   0.222   9.770 -0.0996 -0.0245  0.1238
  769W        W 4513   2.038   7.177   3.239  0.0136 -0.0541  0.1447
  770W        W 4514   0.936   0.813   9.455 -0.2078  0.0667  0.1775
  771W        W 4515   5.145   5.375  12.003  0.0111  0.2778  0.0574
  772W        W 4516   7.969  10.113   0.558  0.0806  0.1965 -0.0844
  773W        W 4517   4.929   2.980   2.238  0.0550  0.3651 -0.2824
  774W        W 4518   2.260   2.902  11.437 -0.3249 -0.1496 -0.0812
  775W        W 4519   4.642   9.551   1.297 -0.3017 -0.0291 -0.1093
  776W        W 4520   2.052   5.380   1.599 -0.2708  0.2182  0.0256
  777W        W 4521   8.086   9.517   5.288 -0.3375  0.2423  0.2482
  778W        W 4522   5.199   6.975   2.715  0.4002  0.1157  0.1247
  779W        W 4523   2.533   9.407   4.303 -0.2634 -0.3090  0.0893
  780W        W 4524   0.598   4.482   1.020  0.3641  0.2001  0.1737
  781W        W 4525   1.529   5.217   2.240  0.1585  0.1401 -0.1818
  782W        W 4526   0.798   7.666  10.141  0.2496 -0.3087  0.0154
  783W        W 4527   3.222   7.758   4.085  0.0973  0.0002  0.0415
  784W        W 4528   3.160   8.998   4.620  0.0633  0.1329 -0.0999
  785W        W 4529   1.955   8.906   3.942 -0.2405  0.1535  0.2714
  786W        W 4530   6.548   0.392   9.522 -0.1121  0.4032  0.0220
  787W        W 4531   6.524   0.746   0.123  0.0591 -0.0012  0.3936
  788W        W 4532   0.207   5.323   9.675  0.2540 -0.1764  0.4814
  789W        W 4533   5.245   5.971  12.033 -0.3406  0.0396 -0.2515
  790W        W 4534   1.542   4.794  10.128 -0.1779  0.1872 -0.0812
  791W        W 4535   8.448   1.613  11.808 -0.1990 -0.1236  0.0403
  792W        W 4536   1.182   0.119   4.121  0.0251  0.1820  0.1527
  793W        W 4537   1.446   1.368   0.268 -0.3079  0.0648 -0.0658
  794W        W 4538   6.476   4.505   0.924 -0.0005 -0.0896  0.1923
  795W        W 4539   2.009   6.708   3.431  0.0520 -0.1413  0.3032
  796W        W 4540   2.923   1.164  12.164  0.0253  0.0810  0.0182
  797W        W 4541   4.329   0.680   0.191 -0.0328  0.0949  0.0125
  798W        W 4542   4.214   8.376   2.491 -0.0227 -0.1263  0.2422
  799W        W 4543   9.377   3.129  10.006  0.2063  0.0963 -0.1269
  800W        W 4544   7.872   8.089  12.140 -0.1585 -0.2354  0.1411
  801W        W 4545   1.078   7.745  10.561 -0.1419  0.0699  0.1293
  802W        W 4546   9.443   7.115   0.830  0.1719 -0.0902 -0.2993
  803W        W 4547   3.477   1.448   3.716  0.2094 -0.0945  0.0487
  804W        W 4548   5.163   8.991  10.498 -0.2178 -0.1247  0.1295
  805W        W 4549   0.482   9.215   0.480  0.0795 -0.2491  0.4187
  806W        W 4550   7.354   0.874  11.691 -0.0221  0.0909 -0.1779
  807W        W 4551   2.395   0.283   2.901  0.0360  0.1589  0.2603
  808W        W 4552   2.637   0.998   3.368 -0.2324  0.3824  0.0169
  809W        W 4553   3.069   5.572   3.658  0.0025 -0.1813 -0.2697
  810W        W 4554   7.944   2.613   2.229 -0.0116 -0.2579 -0.2333
  811W        W 4555   4.623   4.419   1.830 -0.3737 -0.3130 -0.0562
  812W        W 4556   4.063   8.438   0.454 -0.0138 -0.1790 -0.1642
  813W        W 4557   1.333   9.981   9.211  0.0313 -0.0917 -0.2555
  814W        W 4558   5.671   4.747   2.796  0.2164 -0.0288  0.2590
  815W        W 4559   6.747   3.818   9.847 -0.1326 -0.1585  0.1384
  816W        W 4560   3.922   1.024   0.366  0.2330  0.0805 -0.0057
  817W        W 4561   8.018   2.053  11.022 -0.2476  0.0095  0.1544
  818W        W 4562   9.903   9.744  10.785  0.1014  0.1272  0.0360
  819W        W 4563   4.357   8.123   5.373  0.0774 -0.0051  0.0980
  820W        W 4564   7.862   3.902  12.016 -0.5058 -0.1023  0.0097
  821W        W 4565   3.319   1.157   9.545 -0.0710  0.0969 -0.0355
  822W        W 4566   0.166   6.527  11.406  0.0879 -0.1608 -0.1925
  823W        W 4567   6.804   8.026   9.823 -0.1139 -0.1452 -0.2072
  824W        W 4568   2.733   9.598   1.252 -0.2096  0.3184  0.0635
  825W        W 4569   5.328   0.887  12.223 -0.2125 -0.0357 -0.0004
  826W        W 4570   7.597   3.495   0.992 -0.1360 -0.1660  0.3624
  827W        W 4571   9.089   7.102   8.919 -0.0738  0.0907  0.1469
  828W        W 4572   9.662   9.175  11.471 -0.1447  0.2182 -0.3234
  829W        W 4573   3.053   8.436  10.122  0.0792 -0.0924  0.0752
  830W        W 4574   1.793   9.228   3.531  0.0686 -0.0843 -0.0247
  831W        W 4575   3.367   6.403   3.519  0.1539 -0.3380  0.0024
  832W        W 4576   3.966   2.454   2.668 -0.1447 -0.1743  0.1757
  833W        W 4577   0.589   8.785   2.898  0.2806 -0.0516  0.3178
  834W        W 4578   7.086   8.305  10.146 -0.0694  0.0460  0.2272
  835W        W 4579   0.860   8.979   9.312  0.0802 -0.1910 -0.1066
  836W        W 4580   8.931   9.260   3.634 -0.0978  0.3129 -0.1234
  837W        W 4581   3.615   9.248   3.560  0.2912  0.0590 -0.0148
  838W        W 4582   8.561   3.711  11.406  0.1618 -0.1458  0.1461
  839W        W 4583   6.429   5.794   0.358  0.3765  0.0755 -0.1292
  840W        W 4584   8.281   8.220   2.487 -0.2938 -0.1258 -0.1808
  841W        W 4585   3.296   9.499   4.618  0.0624  0.4996 -0.0139
  842W        W 4586   6.238   7.114  11.465 -0.1262 -0.0062 -0.0135
  843W        W 4587   1.434   6.355   1.719  0.4898 -0.1976  0.0330
  844W        W 4588   9.846   2.764   0.929  0.2847  0.1457  0.3256
  845W        W 4589   7.614   1.628   9.043 -0.1369 -0.2048  0.2846
  846W        W 4590   4.501   1.768   2.082  0.0886 -0.0858 -0.2057
  847W        W 4591   8.208   6.950  11.202  0.3211  0.1187  0.2443
  848W        W 4592   1.951   4.961  12.284  0.1961 -0.3541  0.0190
  849W        W 4593   6.710   9.528   3.618 -0.1518  0.1186 -0.1371
  850W        W 4594   6.693   8.033  11.693 -0.2839 -0.2795 -0.1342
  851W        W 4595   1.960   9.601  10.035  0.0414 -0.0696  0.0912
  852W        W 4596   1.821   2.265   0.829  0.0969  0.0353 -0.1654
  853W        W 4597   9.647   1.829  10.125  0.0408  0.1430 -0.0401
  854W        W 4598   3.978   2.041   0.273 -0.1014  0.2204  0.2366
  855W        W 4599   9.721   2.163   9.720  0.0998 -0.1427 -0.3461
  856W        W 4600   0.666   9.205   9.786 -0.2379  0.2989  0.0436
  857W        W 4601   5.752   3.992   1.151 -0.1212 -0.0408  0.0600
  858W        W 4602   4.589   8.590  11.310 -0.0961 -0.1121 -0.1189
  859W        W 4603   4.916   6.535  11.223 -0.2745 -0.0104 -0.0159
  860W        W 4604   7.471   0.811  10.701  0.2714  0.1810 -0.2053
  861W        W 4605   9.685   6.301  11.030 -0.2397 -0.1413 -0.0436
  862W        W 4606   5.625   3.963   3.405  0.2806  0.0189  0.0102
  863W        W 4607   9.038   1.728   1.656  0.2774 -0.0226  0.1399
  864W        W 4608   4.843   4.814   3.143  0.1679 -0.2319 -0.0268
  865W        W 4609   0.801   5.889   1.819 -0.2049  0.1029  0.2395
  866W        W 4610   7.886   8.434   2.030  0.1519 -0.0184 -0.3280
  867W        W 4611   4.802   9.102   9.058 -0.1164 -0.2611 -0.0204
  868W        W 4612   8.087   4.427   2.539  0.2536  0.1252 -0.0606
  869W        W 4613   8.508   9.292   0.206  0.3276 -0.0690 -0.2747
  870W        W 4614   0.615   1.718   9.042  0.3107  0.1658  0.0866
  871W        W 4615   7.574   5.656   0.302  0.0337  0.2085  0.0372
  872W        W 4616   1.151   6.771   3.276  0.2132 -0.1927  0.0546
  873W        W 4617   3.754   8.770   3.504 -0.1789 -0.0387 -0.0818
  874W        W 4618   7.139   6.377   0.402 -0.0191 -0.0008 -0.2097
  875W        W 4619   2.096   9.346   2.544  0.0613 -0.3067  0.2335
  876W        W 4620   0.051   1.609   1.557  0.0005 -0.3610  0.1412
  877W        W 4621   3.179   4.481   1.724 -0.1320 -0.0582 -0.0397
  878W        W 4622   7.005   4.117  12.199  0.0316 -0.3329  0.2103
  879W        W 4623   3.909   3.724   9.260 -0.2504 -0.2070  0.1524
  880W        W 4624   9.748   7.581   4.247  0.0569 -0.0730 -0.4043
  881W        W 4625   2.874   7.674  10.888 -0.2521 -0.1248  0.1915
  882W        W 4626   4.971   8.679   0.287 -0.0174 -0.1016  0.1809
  883W        W 4627   5.054   6.152  10.870 -0.0796  0.0812  0.1783
  884W        W 4628   7.300   4.006   2.767 -0.2011 -0.3724  0.0430
  885W        W 4629  10.020   1.154  11.112 -0.2076  0.0606 -0.0105
  886W        W 4630   6.285   9.669  10.445 -0.0900  0.1134 -0.5385
  887W        W 4631   5.131   0.695   9.767  0.0790 -0.2144  0.2744
  888W        W 4632   0.135   2.487   8.985  0.1432  0.0924 -0.0098
  889W        W 4633   4.200   6.077   9.577  0.1933  0.1163  0.0904
  890W        W 4634   6.803   0.042   2.473 -0.1492  0.0838  0.0193
  891W        W 4635   5.370   7.279   2.275 -0.2153 -0.2003 -0.4803
  892W        W 4636   6.117   8.909   2.648  0.1872 -0.0574  0.3818
  893W        W 4637   5.264   4.236   2.701  0.0548  0.0044  0.3332
  894W        W 4638   4.410   2.156   4.425  0.2494  0.0373 -0.1990
  895W        W 4639   0.653   3.881   1.633  0.2509  0.0759 -0.0622
  896W        W 4640   5.666   1.833   3.566  0.0264 -0.2780 -0.3894
  897W        W 4641   3.371   5.543   2.457  0.0289  0.0722  0.0931
  898W        W 4642   8.744   5.057   9.895 -0.0715  0.2564  0.0062
  899W        W 4643   4.536   2.624   3.991  0.1068 -0.0024 -0.2277
  900W        W 4644   6.502   8.330  10.668 -0.1317  0.0114  0.1833
  901W        W 4645   5.324   1.267   8.929 -0.3070 -0.1775 -0.0462
  902W        W 4646   9.876   8.920   1.851  0.3477  0.3655  0.0287
  903W        W 4647   6.768   1.082   4.491  0.0757  0.0207  0.0955
  904W        W 4648   7.036   1.772   0.111  0.0823 -0.0058 -0.2816
  905W        W 4649   7.594   2.174  10.681  0.1579 -0.0489  0.0112
  906W        W 4650   5.572   3.705   2.478  0.0051  0.1602  0.1161
  907W        W 4651   7.098   5.200   3.983 -0.0286 -0.2284  0.2510
  908W        W 4652  10.062   2.310  11.828 -0.2761  0.2804  0.0044
  909W        W 4653   3.697   3.486   8.813 -0.1412  0.0404 -0.3435
  910W        W 4654   7.066   7.480   1.782  0.1177  0.2522  0.0478
  911W        W 4655   1.393   7.369  10.390  0.1038  0.1226  0.1189
  912W        W 4656   5.099   4.467   1.755 -0.3507  0.0342  0.2026
  913W        W 4657   6.563   4.818   5.336 -0.0538 -0.0499 -0.0679
  914W        W 4658   1.642   7.374   5.131 -0.0422  0.0513  0.0888
  915W        W 4659   5.582   8.324   4.655  0.2575 -0.3404 -0.0872
  916W        W 4660   4.958   9.312   0.788  0.0896  0.0228 -0.1170
  917W        W 4661   4.500   2.784   1.995 -0.2147  0.3029  0.0289
  918W        W 4662   7.922   2.977  10.444  0.0841 -0.1679 -0.2937
  919W        W 4663   9.542   4.112   3.630  0.1387 -0.0336  0.1011
  920W        W 4664   0.335   8.528   8.619  0.0136  0.0589  0.3222
  921W        W 4665   0.320   3.725   0.095  0.0246 -0.0950  0.0707
  922W        W 4666   6.325   7.064  12.036  0.2420 -0.4115  0.4433
  923W        W 4667   4.436   0.870   9.901 -0.0982  0.1421  0.0659
  924W        W 4668   3.196   5.550   8.648  0.0043 -0.1535  0.1105
  925W        W 4669   2.683   0.544   9.549  0.0807  0.0813 -0.1224
  926W        W 4670   8.975   7.749   0.233  0.0618  0.0079 -0.0888
  927W        W 4671   0.637   8.654  12.124 -0.0088  0.2456  0.2686
  928W        W 4672   3.947   7.507   0.657  0.0435 -0.1655 -0.1179
  929W        W 4673   7.778   2.281   9.140 -0.1660  0.0043 -0.2430
  930W        W 4674   6.343   6.104  10.090 -0.0228  0.0265 -0.0028
  931W        W 4675   8.622   7.386   0.107  0.2631  0.2921 -0.1250
  932W        W 4676   7.956   2.026   0.227 -0.0577  0.0398  0.1170
  933W        W 4677   4.868   7.919   1.877 -0.1142 -0.0983  0.2507
  934W        W 4678   3.061   3.419   0.204  0.0065  0.1377  0.1592
  935W        W 4679   8.207   3.985   3.255 -0.0129 -0.4884  0.0866
  936W        W 4680   8.228   7.194   9.773 -0.1954 -0.0515  0.0281
  937W        W 4681   5.768   4.939   1.188  0.0924  0.0234  0.0129
  938W        W 4682   7.393   2.973   1.853 -0.2916  0.2810  0.2445
  939W        W 4683   0.901   4.228  10.966  0.4662  0.0806  0.0578
  940W        W 4684   8.194   0.256   9.076  0.4130 -0.0394  0.1420
  941W        W 4685   1.843  10.115   4.191  0.0127  0.1636 -0.2266
  942W        W 4686   9.103   5.909   2.923  0.1792  0.0113 -0.2083
  943W        W 4687   2.792   0.473   1.743  0.0601 -0.1397 -0.3074
  944W        W 4688   9.343   3.672   3.674 -0.1481  0.1979 -0.1487
  945W        W 4689   6.646   4.478   0.017 -0.2280 -0.0806 -0.4534
  946W        W 4690   5.309   7.934   2.538  0.0101 -0.1542 -0.0603
  947W        W 4691   0.099   3.813  11.881  0.0776  0.0673 -0.3044
  948W        W 4692   8.615   2.081   9.125 -0.1460 -0.1327 -0.1620
  949W        W 4693   7.027   0.032  10.187  0.2759 -0.0622 -0.0087
  950W        W 4694   9.896   7.974  10.026 -0.1381  0.1706 -0.0831
  951W        W 4695   6.176   5.093  11.431  0.2067  0.2685 -0.3464
  952W        W 4696   6.887   2.248   3.851  0.0101 -0.1604  0.0346
  953W        W 4697   5.808   1.915   4.924  0.2018  0.0260 -0.0649
  954W        W 4698   6.572   8.941   9.579 -0.1498  0.1068  0.0575
  955W        W 4699   7.510   2.381   2.039  0.1169 -0.2484  0.2141
  956W        W 4700   6.910   5.565  11.194 -0.2040  0.0109 -0.0230
  957W        W 4701   3.288   3.905   0.973 -0.0131 -0.1233  0.0523
  958W        W 4702   0.931   2.113   3.743  0.0895 -0.4159 -0.1901
  959W        W 4703   4.345   2.597  11.437 -0.0758 -0.2309  0.2909
  960W        W 4704   5.357   7.269  10.823  0.0159 -0.2880  0.0721
  961W        W 4705   8.664   7.518  11.746  0.1392  0.4296  0.0051
  962W        W 4706   2.692   6.065   1.969  0.0749 -0.1340 -0.4059
  963W        W 4707   4.493   6.703  11.552 -0.1024  0.1504  0.0370
  964W        W 4708   6.097   4.359   8.537  0.3703  0.2027  0.1768
  965W        W 4709   0.207   8.890  12.182  0.0181 -0.1932  0.0318
  966W        W 4710   9.705   0.294   0.658  0.1129  0.1399 -0.2865
  967W        W 4711   6.346   2.088  10.444 -0.1400 -0.0872  0.0387
  968W        W 4712   1.768   4.119   2.116  0.1422 -0.1687 -0.0340
  969W        W 4713   5.776  10.055   4.629 -0.0283  0.1082 -0.1561
  970W        W 4714   6.492   6.361   0.996  0.2539  0.0374 -0.0901
  971W        W 4715   5.266   8.591   9.678  0.4135 -0.2644  0.1825
  972W        W 4716   3.389   6.680   9.709  0.2932  0.3506 -0.0015
  973W        W 4717   0.459   0.718   4.320 -0.3363 -0.1938 -0.1031
  974W        W 4718   9.115   1.000   3.382 -0.0870 -0.3096  0.6129
  975W        W 4719   0.942   9.036   0.471  0.1486 -0.1133  0.1130
  976W        W 4720  10.120   5.171  11.475  0.1878  0.1190  0.3179
  977W        W 4721   7.338   3.418   3.602 -0.0135 -0.1932  0.0452
  978W        W 4722   5.271   2.358   0.021  0.1304  0.0847 -0.0795
  979W        W 4723   9.307   7.489   0.528  0.0185  0.3596  0.1210
  980W        W 4724   1.856   9.728   3.415 -0.0173 -0.0690  0.1069
  981W        W 4725   8.965  10.056   0.110  0.1422 -0.0111 -0.0565
  982W        W 4726   4.557   8.926   9.936 -0.3187  0.0784 -0.1099
  983W        W 4727   7.795   4.816   1.994 -0.0252 -0.1025 -0.2077
  984W        W 4728   3.759   7.857  11.516  0.2510  0.0534 -0.0350
  985W        W 4729   9.934   1.028   0.798  0.0287  0.3550  0.1226
  986W        W 4730   9.597   6.131   1.501  0.1768  0.3126  0.1180
  987W        W 4731   4.340   6.527   2.618  0.1871 -0.1433  0.0016
  988W        W 4732   8.572   5.015   0.886 -0.2005  0.3714  0.0611
  989W        W 4733   0.710   3.492   1.105 -0.2976 -0.2948  0.3060
  990W        W 4734   8.397   2.100   9.707 -0.1493  0.1639 -0.0228
  991W        W 4735   8.013  10.087   2.057 -0.2155 -0.3918  0.0321
  992W        W 4736   2.594   2.091   0.381 -0.0020  0.2408  0.0881
  993W        W 4737   6.678   7.355   0.094 -0.0337  0.2938 -0.0964
  994W        W 4738   9.413   5.665  10.108 -0.2834  0.1947  0.0478
  995W        W 4739   9.537   8.911   9.588  0.2636  0.0036  0.0825
  996W        W 4740   4.830   4.130   2.422  0.2452 -0.3956 -0.0868
  997W        W 4741   5.361   4.620   8.798 -0.1886 -0.2418  0.1925
  998W        W 4742   5.765   5.025   9.338  0.3358  0.0645 -0.1117
  999W        W 4743   7.650   1.892   9.503  0.2251  0.1539 -0.2854
 1000W        W 4744   2.271   1.168   2.531 -0.0163 -0.0223  0.0917
 1001W        W 4745   3.416   8.975   3.138 -0.1373  0.0069  0.0644
 1002W        W 4746   9.944   7.389  10.337  0.2159  0.1403 -0.1896
 1003W        W 4747   3.128   3.478  11.549 -0.1606 -0.1264  0.0140
 1004W        W 4748   6.547   3.958  12.066 -0.3080  0.1168  0.0541
 1005W        W 4749   6.202   7.522   2.001  0.2360  0.0975  0.2121
 1006W        W 4750   2.845   0.060   1.511 -0.0674  0.0576 -0.0063
 1007W        W 4751   8.782   6.420   3.734 -0.0584  0.0264  0.0648
 1008W        W 4752   0.405   8.828   4.211  0.1664 -0.1349  0.2015
 1009W        W 4753   7.011   8.022   4.082  0.1919 -0.3012  0.0086
 1010W        W 4754   1.714   3.538   0.472 -0.0603 -0.0470 -0.3052
 1011W        W 4755   4.759   5.746  11.243 -0.2586 -0.0547  0.0145
 1012W        W 4756   8.089   0.245   3.735  0.0413  0.3429 -0.0859
 1013W        W 4757   7.613   1.750   1.381  0.1673  0.1639  0.4508
 1014W        W 4758   7.907   6.615   9.056  0.2872  0.1517  0.0713
 1015W        W 4759   7.622   5.989   1.740 -0.2281  0.0312 -0.1360
 1016W        W 4760   6.589   0.140   4.406  0.3230 -0.0095 -0.0979
 1017W        W 4761   9.895   4.436  10.568  0.0050 -0.1367  0.1097
 1018W        W 4762   5.843   6.725   9.944 -0.0620 -0.3300 -0.0928
 1019W        W 4763   8.764   4.375   0.668  0.0361 -0.5035  0.1414
 1020W        W 4764   6.709   7.076   0.612  0.0264 -0.0002 -0.2304
 1021W        W 4765   4.306   3.943   3.168 -0.1209 -0.1176  0.0848
 1022W        W 4766   5.858   8.526   8.229 -0.0790 -0.1192  0.1776
 1023W        W 4767   0.153   5.062   1.923  0.1724 -0.1154 -0.0866
 1024W        W 4768   6.215   0.411   0.306 -0.0384  0.0402 -0.1371
 1025W        W 4769   6.950   8.053  11.189 -0.1325  0.0053  0.0878
 1026W        W 4770   9.220   6.273   1.147  0.2160  0.0989  0.0950
 1027W        W 4771   6.951   0.752  10.805  0.2747  0.0156 -0.1801
 1028W        W 4772   7.143   8.053   1.861  0.2742 -0.3363  0.1293
 1029W        W 4773   7.478   3.003   3.369 -0.1082  0.1885 -0.0751
 1030W        W 4774   7.560   5.715   3.850 -0.1208 -0.3162  0.5353
 1031W        W 4775   3.299   1.609   3.117 -0.1424  0.0186 -0.0838
 1032W        W 4776   8.324   8.502   3.562  0.2199 -0.0837  0.2132
 1033W        W 4777   5.965   7.486   4.708  0.0877  0.1778 -0.4519
 1034W        W 4778   8.865   0.597   3.259  0.1145  0.2109 -0.1772
 1035W        W 4779   3.426   2.447   9.943  0.2098 -0.1164  0.3802
 1036W        W 4780   4.638   1.776   3.161  0.0105  0.2718 -0.1696
 1037W        W 4781   0.274   2.368  12.162  0.0833 -0.0811  0.0675
 1038W        W 4782   7.020   6.190   8.510  0.2738 -0.1472 -0.0181
 1039W        W 4783   4.830   9.398  10.080  0.4767 -0.3429  0.1813
 1040W        W 4784   4.250   5.461   2.216  0.1457  0.0887  0.2259
 1041W        W 4785   3.615   6.647   1.773 -0.1534 -0.1295  0.1798
 1042W        W 4786   1.340   2.743  11.115 -0.1118 -0.1705 -0.0615
 1043W        W 4787   4.148   6.313  10.715 -0.1910  0.1479 -0.1684
 1044W        W 4788   8.304   8.012  11.792  0.0077 -0.0125 -0.0379
 1045W        W 4789   7.869   3.511   2.387  0.4221  0.2406 -0.0664
 1046W        W 4790   7.051   2.055   1.940 -0.1795 -0.0741  0.0221
 1047W        W 4791   0.904   0.326  11.154 -0.0906  0.1942  0.0579
 1048W        W 4792   8.914   0.815   4.256 -0.1395  0.1136  0.2088
 1049W        W 4793   8.713   5.832  10.563  0.1384 -0.1689  0.1071
 1050W        W 4794   4.162   3.535  10.599 -0.1222 -0.0115 -0.3783
 1051W        W 4795   5.414   2.582  11.616 -0.0201 -0.1178 -0.1233
 1052W        W 4796   3.531   6.457  10.125 -0.0796  0.1100 -0.0435
 1053W        W 4797   3.492   2.728  11.896 -0.3997 -0.0732 -0.0474
 1054W        W 4798   1.062   1.633   0.582  0.1472  0.3186  0.1004
 1055W        W 4799   7.708   4.656   9.167  0.1945 -0.1695  0.0575
 1056W        W 4800   9.109   9.264   2.530  0.1759  0.5334 -0.1770
 1057W        W 4801   6.618   2.683   3.380  0.1170  0.2507 -0.1799
 1058W        W 4802   3.793   2.123   9.984 -0.2951 -0.0839 -0.0264
 1059W        W 4803   8.164   0.198   1.608 -0.0546  0.1735 -0.1707
 1060W        W 4804   1.717   2.301   2.178 -0.0079  0.0266 -0.0226
 1061W        W 4805   0.893   9.058   2.153 -0.0469 -0.2431 -0.0190
 1062W        W 4806  10.097   5.300  10.872 -0.0242  0.0299  0.2905
 1063W        W 4807   4.034   6.104   2.580  0.0419  0.1555  0.0466
 1064W        W 4808   0.575   7.739  10.578 -0.0974  0.0131  0.2509
 1065W        W 4809   0.108   3.763   9.481  0.0097 -0.3514 -0.0570
 1066W        W 4810   9.184   3.106   2.066 -0.1195  0.1316 -0.1250
 1067W        W 4811   9.233   8.108  12.225  0.0534  0.0293  0.2806
 1068W        W 4812   8.028   9.478   0.261  0.0655  0.0979 -0.1054
 1069W        W 4813   6.272   8.554   4.465  0.2424 -0.0086  0.2363
 1070W        W 4814   6.508   4.827   3.542  0.0681 -0.0428 -0.1118
 1071W        W 4815   1.362   9.545   1.016 -0.0026 -0.3158 -0.0240
 1072W        W 4816  10.041   8.753   2.326 -0.0013  0.4124 -0.0316
 1073W        W 4817   3.251   9.902   3.957 -0.1501  0.2592  0.2476
 1074W        W 4818   8.420   2.094   0.168  0.2297 -0.3403  0.0036
 1075W        W 4819   4.754   9.342  10.939  0.1043  0.2110  0.1218
 1076W        W 4820   9.454   0.001   3.863 -0.0741  0.4966  0.1683
 1077W        W 4821   6.248   1.678   9.054 -0.1175 -0.0297  0.2157
 1078W        W 4822   5.100   3.769  11.661  0.3300  0.0675 -0.1060
 1079W        W 4823   9.996  10.052   9.149  0.1699 -0.1301  0.2688
 1080W        W 4824   2.807   2.908   3.273 -0.1589 -0.1361  0.1003
 1081W        W 4825   6.852   5.343   9.017  0.1348 -0.4000  0.1653
 1082W        W 4826   0.981   1.858   2.395 -0.3093 -0.0545  0.1464
 1083W        W 4827   5.647   0.951   2.047  0.0222 -0.1033  0.0216
 1084W        W 4828   6.853   5.658   2.788 -0.0780 -0.3522 -0.1011
 1085W        W 4829   5.377   1.810   4.214 -0.1655  0.0603  0.3086
 1086W        W 4830   6.270  10.072   2.296  0.0450  0.3330 -0.3330
 1087W        W 4831   9.713   0.787   0.389 -0.1186  0.1139 -0.1307
 1088W        W 4832   1.948   3.407   3.076 -0.0319  0.0991 -0.2687
 1089W        W 4833   3.596   8.869   1.852  0.3159 -0.2794  0.1353
 1090W        W 4834   5.762   7.479   1.390  0.1982 -0.1009 -0.0104
 1091W        W 4835   7.642   2.667   3.628  0.1326  0.1717  0.3044
 1092W        W 4836   4.043   1.104   2.128 -0.0532  0.2025  0.1779
 1093W        W 4837   6.598   7.406   2.507 -0.1242  0.2177 -0.1404
 1094W        W 4838   1.639   5.852   0.486 -0.1623  0.2234  0.0612
 1095W        W 4839   3.340   2.216   8.756 -0.3184  0.1600  0.0180
 1096W        W 4840   2.037   0.807   4.058 -0.0803 -0.2214  0.1775
 1097W        W 4841   8.101   5.466   2.611 -0.3192 -0.0522  0.3705
 1098W        W 4842   8.363   1.258   9.842 -0.1123 -0.2933 -0.1139
 1099W        W 4843   4.561   5.489   1.763  0.0780 -0.0328 -0.1930
 1100W        W 4844   4.942   5.940   1.998  0.1481 -0.1511  0.0293
 1101W        W 4845   6.161   1.773   3.941  0.1501  0.2225 -0.1172
 1102W        W 4846   0.030   8.056  12.026  0.0179  0.0269 -0.0208
 1103W        W 4847   3.539   3.105   1.608  0.0312 -0.1894 -0.3553
 1104W        W 4848   9.755   7.561   3.171  0.0515 -0.1071 -0.0493
 1105W        W 4849   0.841   8.701   1.522  0.5256 -0.1610 -0.2888
 1106W        W 4850   8.084   4.892  11.962  0.1867  0.1159 -0.1368
 1107W        W 4851   4.210   4.024   1.720  0.0490 -0.2471 -0.1487
 1108W        W 4852   0.083   4.351  11.855  0.1184  0.0876 -0.1590
 1109W        W 4853   5.818   7.009   0.178  0.2070 -0.0706 -0.1005
 1110W        W 4854   6.748   4.520   2.024  0.1647  0.0550  0.1510
 1111W        W 4855   3.659   5.293  11.761  0.1187  0.1226 -0.0036
 1112W        W 4856   9.004   0.664   0.789 -0.1132  0.3945  0.2828
 1113W        W 4857   5.213   1.419   0.876  0.3018  0.1842  0.0420
 1114W        W 4858   7.209   0.841   2.767 -0.2460  0.0866 -0.0466
 1115W        W 4859   7.344   6.887   0.007  0.0409 -0.3259  0.0977
 1116W        W 4860   8.654   1.629   0.328  0.0362  0.2796  0.0861
 1117W        W 4861   4.799   6.214   4.493 -0.0970 -0.1745  0.3650
 1118W        W 4862   9.569   4.616   2.584  0.1121  0.1946 -0.0549
 1119W        W 4863   9.497   5.280  10.398  0.1681 -0.0828  0.1794
 1120W        W 4864   4.383   3.583  11.449 -0.0582  0.0068 -0.0331
 1121W        W 4865   9.786   1.140   2.717  0.2835  0.0368  0.1814
 1122W        W 4866   2.758   2.377   9.915  0.2206 -0.0532 -0.0723
 1123W        W 4867   5.661   0.232  12.109 -0.2359 -0.1167  0.0941
 1124W        W 4868   6.221   7.055  10.926  0.1171  0.2533  0.2564
 1125W        W 4869   2.618   6.895   2.720 -0.2101  0.2217  0.1671
 1126W        W 4870   7.898   9.073  11.684  0.0360  0.2830  0.1697
 1127W        W 4871   2.949   3.976  10.747  0.2260 -0.0267 -0.1641
 1128W        W 4872   1.672   3.073   2.287  0.1251 -0.0051  0.2420
 1129W        W 4873   4.686   9.860  10.872  0.2390 -0.3638  0.1915
 1130W        W 4874   6.568   6.856  10.629 -0.2100 -0.0523 -0.1797
 1131W        W 4875   6.598   1.171  11.576 -0.0433  0.0579  0.0510
 1132W        W 4876   8.360   3.749   9.045 -0.1949  0.0568  0.2349
 1133W        W 4877   0.653   1.308   1.972  0.0109  0.0141 -0.0386
 1134W        W 4878   0.392   8.386   4.093  0.1793  0.0183  0.1600
 1135W        W 4879   5.023   3.138   1.169  0.1462  0.0789 -0.2786
 1136W        W 4880   6.131   1.667   8.462 -0.2540  0.1774  0.2966
 1137W        W 4881   5.318   2.694   1.890  0.2668 -0.0752 -0.0421
 1138W        W 4882   7.401   2.763   2.390 -0.1409  0.2376  0.0169
 1139W        W 4883   5.360   4.102  10.227  0.3905 -0.2021 -0.1042
 1140W        W 4884   2.213   7.289   2.731  0.1069  0.2639  0.0294
 1141W        W 4885   7.461   5.552   2.704 -0.1584  0.0206 -0.3207
 1142W        W 4886   5.005  10.055  12.355  0.0881 -0.0399 -0.0558
 1143W        W 4887   7.436   5.185   3.582 -0.5731 -0.1928  0.3287
 1144W        W 4888   1.959   5.690   2.330  0.0099  0.0610 -0.0598
 1145W        W 4889   6.050   3.456  10.189  0.2155 -0.0947 -0.0765
 1146W        W 4890   9.106   7.029   9.490  0.2485 -0.0091  0.2447
 1147W        W 4891   0.809   8.872   4.528  0.1090 -0.0233  0.1532
 1148W        W 4892   0.974   5.838  10.112  0.2101  0.0181 -0.4970
 1149W        W 4893   9.114   3.169  10.388  0.1951  0.1519 -0.3493
 1150W        W 4894   2.688   4.043   2.399  0.1238 -0.0103 -0.3102
 1151W        W 4895   4.781   2.797   0.885  0.4450 -0.4323 -0.1250
 1152W        W 4896   4.833   4.867  12.049 -0.0646  0.1902  0.1591
 1153W        W 4897   1.452   4.495   3.166  0.0583 -0.1364  0.0755
 1154W        W 4898   2.524   8.232   9.763  0.0248 -0.0258  0.0196
 1155W        W 4899   0.956   3.827   2.368 -0.0005  0.0034  0.1954
 1156W        W 4900   6.586   4.415   4.347  0.2016 -0.0370 -0.0052
 1157W        W 4901   9.548   8.401  12.025 -0.0037  0.0936  0.0594
 1158W        W 4902   2.548   3.756   2.036  0.1274  0.2114  0.3250
 1159W        W 4903   1.631   5.003   1.429  0.0015 -0.1568 -0.1737
 1160W        W 4904   2.422   3.854  10.442 -0.1169 -0.2140 -0.2291
 1161W        W 4905   2.097   2.521   2.835 -0.0829  0.1915  0.4923
 1162W        W 4906   7.229   8.153   3.234 -0.1924  0.0998 -0.0064
 1163W        W 4907   1.110   9.452   5.298 -0.2681 -0.1409 -0.1056
 1164W        W 4908   0.321   9.718   2.399  0.1893  0.1343  0.2039
 1165W        W 4909   2.216   5.520  11.551  0.4891 -0.0601  0.0949
 1166W        W 4910   7.424   2.682   1.344  0.3936 -0.1172  0.1786
 1167W        W 4911   5.910   2.028   8.951 -0.1187 -0.1804 -0.3501
 1168W        W 4912   9.993   3.206   8.472 -0.2268 -0.4414 -0.1103
 1169W        W 4913   0.338   0.038   3.892  0.0359 -0.2997 -0.0818
 1170W        W 4914   4.243   7.277   1.044  0.5408  0.0794  0.1386
 1171W        W 4915   7.793   3.255   9.003  0.1762 -0.0506 -0.1866
 1172W        W 4916   4.717   8.542   2.509  0.3526  0.1993  0.0069
 1173W        W 4917   5.146   2.817  12.371  0.2075  0.2436 -0.1193
 1174W        W 4918   7.941   1.974  10.242  0.1631  0.0729  0.2209
 1175W        W 4919   2.979   6.714   0.693  0.2596 -0.0948  0.1562
 1176W        W 4920   1.331   9.731  11.728 -0.4113  0.1679  0.1440
 1177W        W 4921   0.681   3.721  10.160  0.1132 -0.0738  0.0478
 1178W        W 4922   5.671   4.883  10.647  0.3272 -0.2723 -0.0993
 1179W        W 4923   6.762   6.825   1.753 -0.2737 -0.1606  0.1830
 1180W        W 4924   8.989   1.698  11.797  0.1913  0.1170  0.1233
 1181W        W 4925   6.176   3.510  12.208 -0.0704  0.2093  0.5117
 1182W        W 4926   3.958   4.292   1.213 -0.0705 -0.0285 -0.3069
 1183W        W 4927   6.153   7.373   0.034 -0.4628 -0.0835 -0.3003
 1184W        W 4928   4.560   0.672   1.016 -0.0394 -0.0961 -0.1303
 1185W        W 4929   7.974   9.437   2.816 -0.0008  0.0127 -0.3230
 1186W        W 4930   7.340   9.819   1.434 -0.1751  0.1969  0.0650
 1187W        W 4931   7.786   3.362   3.245  0.3289  0.0916  0.0918
 1188W        W 4932   7.868   2.801   9.080 -0.1922  0.1229  0.4047
 1189W        W 4933   9.081   3.940   8.479 -0.4291  0.3061 -0.2424
 1190W        W 4934   8.218   1.194  11.918  0.3740 -0.0427 -0.1847
 1191W        W 4935   6.358   7.058  10.203 -0.0515  0.0133  0.1750
 1192W        W 4936   0.495   3.578   0.512 -0.2419 -0.0849 -0.0193
 1193W        W 4937   3.146   3.743  12.014  0.1386 -0.0502 -0.2562
 1194W        W 4938   4.764   2.975  11.269  0.0666  0.1359 -0.1328
 1195W        W 4939   1.734   1.026   3.343  0.0744 -0.0407  0.1975
 1196W        W 4940   5.852   9.460  10.391 -0.2552 -0.1288 -0.0247
 1197W        W 4941   4.949   7.215   4.143  0.0066 -0.0938  0.1934
 1198W        W 4942   0.924   5.702   3.367  0.1507  0.1513  0.3251
 1199W        W 4943   8.051   7.386   4.374 -0.0755 -0.0943 -0.3522
 1200W        W 4944   7.560   5.338   1.307  0.0861 -0.0462  0.1496
 1201W        W 4945   8.940   8.260   4.221 -0.1694  0.1025 -0.0308
 1202W        W 4946   5.853   8.051   3.343 -0.2089 -0.2277  0.1483
 1203W        W 4947   8.413   8.466  11.601 -0.0316  0.2212 -0.2116
 1204W        W 4948   2.384   8.040   1.029  0.1154  0.1661  0.0981
 1205W        W 4949   4.343   1.368   9.645 -0.2028 -0.1606 -0.0496
 1206W        W 4950   1.011   6.121   1.387  0.0987 -0.0125 -0.0653
 1207W        W 4951   5.868   3.745   3.947  0.0792 -0.0486  0.1280
 1208W        W 4952   9.661   8.942   0.193  0.0715  0.2491  0.0645
 1209W        W 4953   6.303   8.449  11.681 -0.0829 -0.1620 -0.1881
 1210W        W 4954   4.582   7.589   3.080  0.5522  0.0378 -0.0835
 1211W        W 4955   0.893   0.007   3.211 -0.0341  0.2462 -0.2283
 1212W        W 4956   4.863   8.887   2.033 -0.1369  0.1378 -0.2013
 1213W        W 4957   1.430   3.255  11.816  0.1180 -0.1110  0.2678
 1214W        W 4958   9.574   3.833  12.214  0.0827  0.0864  0.0423
 1215W        W 4959   0.223   8.766   0.875 -0.1354 -0.1935 -0.0000
 1216W        W 4960   2.350   7.102   2.269  0.2232  0.2458 -0.2850
 1217W        W 4961   4.028   2.455   2.134  0.0084 -0.0210  0.1250
 1218W        W 4962   1.197   9.076   1.456  0.0319  0.0454  0.2930
 1219W        W 4963   2.167   0.467  11.005  0.0036 -0.4973  0.0305
 1220W        W 4964   3.443   8.283  10.442  0.1075 -0.1199 -0.1298
 1221W        W 4965   8.741   2.893  10.196  0.1929 -0.0771  0.0468
 1222W        W 4966   1.306   4.657   0.662 -0.2404 -0.1776 -0.2460
 1223W        W 4967   2.940   3.302   9.475  0.0024 -0.1385 -0.3014
 1224W        W 4968   3.699   5.847   4.015 -0.1881 -0.2187  0.2911
 1225W        W 4969   4.332   7.803  12.154 -0.1502  0.0327 -0.2288
 1226W        W 4970   1.922   4.407   9.456 -0.1789  0.1692 -0.0335
 1227W        W 4971   6.672   0.589   8.269 -0.1225  0.0832  0.3488
 1228W        W 4972   7.303   2.636   9.905 -0.4494  0.2027 -0.4545
 1229W        W 4973   2.405   3.922  11.033 -0.0912 -0.0255  0.1304
 1230W        W 4974   0.404   1.936   2.802  0.0311 -0.0229  0.0056
 1231W        W 4975   8.212   8.211   9.451 -0.1625  0.1863  0.0609
 1232W        W 4976   6.020   8.085   0.315  0.0472 -0.2260  0.2294
 1233W        W 4977   1.388   4.062   1.783  0.2431  0.1533 -0.5248
 1234W        W 4978   3.738   7.848   3.981 -0.2260 -0.3907  0.2260
 1235W        W 4979   2.978   7.246   9.200 -0.0398 -0.2149 -0.1668
 1236W        W 4980   2.765   5.173   0.521  0.0346  0.1958 -0.2546
 1237W        W 4981   9.667   0.828  10.929 -0.1461  0.1034 -0.0579
 1238W        W 4982   7.536   4.013   1.033  0.1527 -0.2122  0.1547
 1239W        W 4983   9.381   3.326   1.648  0.0495  0.2413 -0.0405
 1240W        W 4984   8.710   4.301   1.959 -0.0129 -0.1249 -0.2263
 1241W        W 4985   5.578   1.669  10.055 -0.1247  0.2665 -0.2958
 1242W        W 4986   7.427   2.642   0.451  0.4095 -0.3000  0.0701
 1243W        W 4987   9.107   7.225  11.714  0.4433  0.2603 -0.0831
 1244W        W 4988   5.811   7.319   9.901  0.2068  0.0031  0.3905
 1245W        W 4989   7.701   9.760   2.060  0.2078  0.2723 -0.1109
 1246W        W 4990   5.402   6.802  11.280 -0.1680 -0.1597  0.1935
 1247W        W 4991   7.485   8.558   1.788  0.2934  0.0891  0.2120
 1248W        W 4992   7.607   7.152   9.683  0.2423  0.0134  0.2346
 1249W        W 4993   9.212   4.946  10.714 -0.3207  0.0721  0.0030
 1250W        W 4994   3.080   8.078   4.468  0.0156 -0.0730 -0.0867
 1251W        W 4995   0.671   0.900   9.904  0.3268 -0.0413 -0.2169
 1252W        W 4996   4.044   0.796   8.983  0.0862  0.0568 -0.1212
 1253W        W 4997   0.981   0.963  11.673 -0.0359  0.2314 -0.2598
 1254W        W 4998   6.144   8.077  11.986 -0.0398  0.4441  0.0162
 1255W        W 4999   3.525   5.925   9.636 -0.3443  0.1336  0.0077
 1256W        W 5000   4.405   8.525   0.898  0.1642  0.3367 -0.1463
 1257W        W 5001   9.292   3.219   3.513  0.1770 -0.0443 -0.0698
 1258W        W 5002   5.252   2.350   1.478 -0.0193  0.1688 -0.0332
 1259W        W 5003   2.424   8.389   2.227 -0.3598  0.0861 -0.1065
 1260W        W 5004   5.782   4.856   8.642 -0.0445  0.1307 -0.2311
 1261W        W 5005   6.074   4.585   5.093 -0.1314  0.2847  0.3286
 1262W        W 5006   3.680   4.158  10.900  0.0526  0.1328 -0.2378
 1263W        W 5007   1.199   2.384   2.424 -0.3024 -0.2347 -0.0120
 1264W        W 5008   3.606   6.381   3.944 -0.0131 -0.1017  0.2696
 1265W        W 5009   2.425   7.062   4.164  0.3725 -0.0640  0.2705
 1266W        W 5010   8.233   9.955  10.468 -0.3388  0.1433 -0.2770
 1267W        W 5011   1.483   5.558  10.663  0.1568  0.0540  0.2292
 1268W        W 5012   9.649   5.224  11.707 -0.0548 -0.0560 -0.4864
 1269W        W 5013   7.890   1.104   3.511 -0.1543 -0.2134  0.2367
 1270W        W 5014   7.254   7.267   2.700  0.0481  0.0552  0.1360
 1271W        W 5015   5.377   9.163   8.317 -0.3028  0.0905 -0.1631
 1272W        W 5016   2.208   6.074  10.893 -0.0342 -0.0833  0.0849
 1273W        W 5017   8.237   3.999   2.702  0.2843  0.3046  0.1416
 1274W        W 5018   7.723   4.101  10.044  0.1078 -0.0618  0.0023
 1275W        W 5019   8.319   2.469  12.277  0.3658  0.1122  0.1731
 1276W        W 5020   4.983   7.400  12.167 -0.1497  0.0393  0.0424
 1277W        W 5021   6.971   3.137   2.080 -0.2238  0.3568 -0.1438
 1278W        W 5022   5.572   0.264   2.580  0.0804 -0.1567  0.3357
 1279W        W 5023   9.622   0.321   4.396 -0.2467  0.4246 -0.2180
 1280W        W 5024   6.473   3.296   1.191  0.2281 -0.1423  0.0137
 1281W        W 5025   5.068   2.683   8.701  0.1068 -0.1000 -0.2246
 1282W        W 5026   3.401  10.037   4.482  0.0766  0.0150 -0.1328
 1283W        W 5027   2.069   8.839   3.442  0.0747 -0.1913  0.0253
 1284W        W 5028   6.370   1.753   2.931 -0.1078 -0.1552  0.0724
 1285W        W 5029   8.880   5.477  12.007 -0.0355  0.0039 -0.1195
 1286W        W 5030   2.077   3.349   8.481  0.1989  0.0059  0.0920
 1287W        W 5031   6.517   4.162   2.507 -0.1012  0.2717  0.0771
 1288W        W 5032   6.268   4.806   3.118  0.2670  0.0717  0.0992
 1289W        W 5033   3.638   9.540   1.267 -0.0761 -0.0934 -0.1248
 1290W        W 5034   7.669   9.726   9.188 -0.4191  0.2922  0.0175
 1291W        W 5035   1.323   6.911  10.582 -0.2580  0.1194  0.1369
 1292W        W 5036   1.368   0.211  11.621 -0.1442 -0.1741 -0.1893
 1293W        W 5037   7.556   4.410  10.861  0.0492  0.2672  0.0715
 1294W        W 5038   9.367   2.782   9.273 -0.0038  0.1212 -0.0151
 1295W        W 5039   8.482   5.614  12.301  0.0014  0.0578 -0.0589
 1296W        W 5040   8.955   3.929   0.753 -0.1956  0.3750  0.0537
 1297W        W 5041   6.777   9.553  11.298 -0.2088  0.3036  0.3040
 1298W        W 5042   3.848   1.756  10.932  0.0897  0.5106 -0.1912
 1299W        W 5043   9.805   7.997  11.095  0.3101  0.0837  0.0510
 1300W        W 5044   9.723   9.267  10.303 -0.1882 -0.1188 -0.2931
 1301W        W 5045   7.450   6.793   3.429  0.0264  0.1963 -0.1462
 1302W        W 5046   0.217   1.173   1.851 -0.0052 -0.0458 -0.3860
 1303W        W 5047   4.442   1.969   9.616  0.1625  0.0714  0.1981
 1304W        W 5048   3.625   4.825   9.714  0.1307  0.1383  0.1349
 1305W        W 5049   6.841   2.147  12.198 -0.1207  0.1230 -0.1177
 1306W        W 5050   9.144   3.833   1.233  0.5211  0.0730 -0.1637
 1307W        W 5051   6.341   2.443  11.274  0.1084 -0.0624  0.1644
 1308W        W 5052   2.659   9.180   1.894 -0.0149  0.0212  0.1444
 1309W        W 5053   7.751   0.461   0.210  0.0058  0.0856 -0.0957
 1310W        W 5054   6.029   2.843   9.819 -0.0588 -0.2480 -0.1759
 1311W        W 5055   1.058   5.888  10.636 -0.2311  0.1049  0.0473
 1312W        W 5056   4.458   4.446   0.509 -0.1740 -0.1243  0.0568
 1313W        W 5057   4.695   0.616  10.430  0.1578 -0.0609  0.1229
 1314W        W 5058   9.191   5.491   1.575  0.5176  0.3019  0.1201
 1315W        W 5059   7.585   3.067   0.216 -0.0265  0.2764 -0.1770
 1316W        W 5060   8.893   6.153  10.045 -0.1509  0.3528 -0.0020
 1317W        W 5061   8.635   8.876   3.461 -0.1870  0.0034 -0.0891
 1318W        W 5062   8.999   9.281  10.358  0.1055  0.1663  0.0270
 1319W        W 5063   0.116   1.622  11.152  0.0248  0.0681 -0.1507
 1320W        W 5064   5.197   6.710  10.850 -0.3189  0.4733  0.1982
 1321W        W 5065   3.195   5.444   0.434  0.1373 -0.3936 -0.1575
 1322W        W 5066   7.200   1.085   9.744  0.0808 -0.2238 -0.0141
 1323W        W 5067   1.175   0.536   1.066 -0.0939 -0.3072  0.1656
 1324W        W 5068   0.826   5.614   2.837  0.1380  0.1561 -0.0311
 1325W        W 5069   1.236   1.552   8.734 -0.1248  0.0768  0.2280
 1326W        W 5070   6.226   4.618   1.347  0.1405 -0.0820 -0.1295
 1327W        W 5071   4.782   6.394   2.145 -0.2311  0.4738 -0.1042
 1328W        W 5072   9.957   0.311   2.107 -0.3407 -0.1913 -0.0163
 1329W        W 5073   7.879   3.124   3.733 -0.3378  0.0430 -0.0280
 1330W        W 5074   5.943   8.761  11.602 -0.0220  0.2911 -0.0974
 1331W        W 5075   0.518   6.578  10.973 -0.0500  0.0879 -0.4121
 1332W        W 5076   8.412   9.566  10.717 -0.2975  0.0334 -0.1096
 1333W        W 5077   1.540   8.988   9.325  0.2098  0.0951 -0.1716
 1334W        W 5078   9.716   8.870  12.040 -0.1600  0.2308 -0.0512
 1335W        W 5079   4.678   4.612   1.348  0.1801 -0.1683  0.2712
 1336W        W 5080   6.406   8.240   9.135 -0.2840 -0.1231 -0.2023
 1337W        W 5081   6.502   1.727   0.135  0.3441  0.1551 -0.1582
 1338W        W 5082   2.675   8.685   1.920  0.0316 -0.0386 -0.4690
 1339W        W 5083   5.596   4.501   1.831 -0.1348  0.1685  0.0312
 1340W        W 5084   4.257  10.021  10.475 -0.1905  0.1112  0.1716
 1341W        W 5085   8.305   2.930  11.795  0.0218 -0.0215 -0.1925
 1342W        W 5086   1.171   6.614   1.310 -0.0852  0.3460 -0.1703
 1343W        W 5087   6.348   1.603  11.612 -0.0810 -0.1653  0.2675
 1344W        W 5088   0.426   5.954   2.245 -0.2832  0.2422 -0.1970
 1345W        W 5089   4.063   3.618   4.009 -0.0776 -0.0666  0.1927
 1346W        W 5090   9.719   1.550   3.025 -0.0956  0.3583 -0.1496
 1347W        W 5091   1.378   6.046  10.356 -0.0162  0.0776 -0.1954
 1348W        W 5092   3.092   8.817   1.174  0.0280 -0.0164 -0.0943
 1349W        W 5093   9.566   4.647   1.623  0.0371  0.0544 -0.1723
 1350W        W 5094   1.407   2.768  11.664 -0.0059 -0.3503 -0.2276
 1351W        W 5095   7.955   4.632   1.585 -0.0601  0.1802 -0.1276
 1352W        W 5096   6.135   2.253  10.848  0.2540 -0.0958  0.2827
 1353W        W 5097   9.007   0.038   3.533 -0.2944 -0.1918 -0.0662
 1354W        W 5098   0.728   5.970   0.963 -0.0074 -0.1287  0.4304
 1355W        W 5099   1.950   8.651   2.880 -0.0223  0.0208 -0.4255
 1356W        W 5100   4.964   3.266   2.752 -0.1917  0.4652  0.0058
 1357W        W 5101   6.354   1.211   0.224  0.0233  0.3431 -0.2065
 1358W        W 5102   0.901   8.928  11.450  0.0209  0.0095  0.2275
 1359W        W 5103   2.545   2.575   0.169 -0.0371  0.1039 -0.4851
 1360W        W 5104   7.572   5.380   9.963 -0.2289 -0.1391 -0.0592
 1361W        W 5105   6.097   1.544   0.415  0.0804  0.0543 -0.5815
 1362W        W 5106   2.928   6.319  10.299 -0.2778  0.2314 -0.0097
 1363W        W 5107   9.223   6.577  10.259 -0.0494 -0.1281 -0.1963
 1364W        W 5108   7.875   2.090   2.072  0.0382 -0.0482 -0.5176
 1365W        W 5109  10.006   8.793   8.430  0.1172 -0.2901  0.1643
 1366W        W 5110   9.312   6.458   9.770 -0.0287 -0.1314  0.0381
 1367W        W 5111   5.470   3.029   4.308 -0.1071 -0.1402  0.1059
 1368W        W 5112   3.513   1.678  11.981  0.1302 -0.0572 -0.1436
 1369W        W 5113   2.760   8.674  11.742 -0.0269 -0.0921  0.1457
 1370W        W 5114   1.633   9.483  11.969  0.2669  0.5381  0.2332
 1371W        W 5115   7.286   9.658  11.350  0.3846 -0.0164 -0.2327
 1372W        W 5116   4.886   3.011   9.071  0.1504  0.0545 -0.1116
 1373W        W 5117   4.899   4.250   0.731  0.1900 -0.1186 -0.3278
 1374W        W 5118   8.249   2.390   8.869 -0.3989 -0.2619 -0.0118
 1375W        W 5119   3.607   4.855   1.050  0.3283 -0.0582 -0.1030
 1376W        W 5120   7.103   0.832   8.870  0.1041  0.1635 -0.1450
 1377W        W 5121   4.389   5.916   4.894 -0.0960 -0.1047  0.2013
 1378W        W 5122   5.263   8.023   1.594 -0.1214 -0.5252 -0.0473
 1379W        W 5123   5.849   4.421   3.146 -0.0085 -0.1346 -0.0254
 1380W        W 5124   9.867   6.715   2.010 -0.3396  0.2379 -0.3337
 1381W        W 5125   8.391   5.088  12.333 -0.2124 -0.0366  0.0875
 1382W        W 5126   8.334   3.960  11.863 -0.0313  0.0770  0.0765
 1383W        W 5127   7.468   6.073   3.483 -0.0645 -0.0647  0.1364
 1384W        W 5128   2.498   6.874  12.352 -0.3987  0.0199  0.1364
 1385W        W 5129   8.808   1.374   2.932 -0.0706  0.3501  0.3960
 1386W        W 5130   9.333   9.516   2.839 -0.1957  0.1552 -0.3621
 1387W        W 5131   7.564   7.192   3.113  0.0902  0.1490 -0.0875
 1388W        W 5132   1.080   2.532  10.723  0.0489 -0.0673 -0.2915
 1389W        W 5133   4.371   8.918   4.173 -0.1652  0.2008 -0.3557
 1390W        W 5134   4.918   5.780   4.657  0.0838  0.2006  0.2322
 1391W        W 5135   0.404   6.493   9.638 -0.0476 -0.3241  0.0837
 1392W        W 5136   5.552   9.876  11.928  0.2059 -0.1880 -0.3011
 1393W        W 5137   8.672   7.276   2.555 -0.3059 -0.0590 -0.2052
 1394W        W 5138  10.027   3.261   1.022 -0.2164 -0.0337 -0.2990
 1395W        W 5139   0.132   4.489  10.230 -0.0012 -0.1585 -0.3806
 1396W        W 5140   0.674   8.179   4.890  0.0233 -0.0274 -0.0462
 1397W        W 5141   1.881  10.102   9.918 -0.0469 -0.1228 -0.2980
 1398W        W 5142   9.173   6.880   1.235 -0.1826  0.0385  0.1499
 1399W        W 5143   9.672   6.280   0.416  0.0615  0.1071  0.3682
 1400W        W 5144   6.401   2.254   3.235  0.1408  0.0909 -0.3861
 1401W        W 5145   2.453   6.503   3.065  0.1005  0.0101  0.3059
 1402W        W 5146   5.331   6.341   8.824  0.0188  0.2419  0.1356
 1403W        W 5147   1.333   6.290   2.517 -0.1109 -0.0306 -0.0106
 1404W        W 5148   5.336   2.716   0.947  0.3769  0.1160  0.1212
 1405W        W 5149   3.299   9.711   3.428 -0.0221  0.0515 -0.0451
 1406W        W 5150   6.180   2.440   4.172  0.2195  0.0200 -0.1626
 1407W        W 5151   6.479   4.373   3.267  0.1734 -0.3023  0.0391
 1408W        W 5152   3.497   0.973  12.367  0.2810 -0.3313  0.0971
 1409W        W 5153   5.888   6.936  10.406 -0.0064  0.5657  0.1830
 1410W        W 5154   6.160   3.224  10.621  0.2888  0.5221  0.3782
 1411W        W 5155   0.928   0.096  10.626  0.1226  0.2014  0.2860
 1412W        W 5156   7.882   4.515  10.451 -0.0004  0.0043 -0.0467
 1413W        W 5157   5.467   6.983   0.556  0.0383 -0.3879 -0.0845
 1414W        W 5158   3.364   8.054   4.980 -0.0854 -0.2365  0.0495
 1415W        W 5159   9.139   9.847   1.203  0.1825  0.0782  0.0963
 1416W        W 5160   2.472   5.350   0.999 -0.0584  0.4212  0.1651
 1417W        W 5161   5.516   8.997  11.602  0.1358  0.1519 -0.1738
 1418W        W 5162   8.086   3.120  11.290 -0.0609  0.0964  0.1996
 1419W        W 5163   7.751   9.030   4.512  0.0674  0.1267 -0.0553
 1420W        W 5164   7.969   0.175  10.151 -0.1462 -0.1235 -0.0519
 1421W        W 5165   3.497   4.048   8.549 -0.1299  0.0831 -0.0269
 1422W        W 5166   3.926   8.517  10.275 -0.3890 -0.4188 -0.2017
 1423W        W 5167   3.247   1.494  10.964 -0.1666  0.1763 -0.1350
 1424W        W 5168   2.788   8.701  12.216 -0.0011  0.0297  0.1354
 1425W        W 5169   2.728   9.127   8.614  0.2132  0.0671 -0.1903
 1426W        W 5170   1.891   1.134   0.283 -0.2144  0.4557 -0.1441
 1427W        W 5171   6.930   6.094   1.090 -0.1179 -0.0254 -0.4422
 1428W        W 5172   8.724   0.884  10.044 -0.2220  0.2497 -0.1801
 1429W        W 5173   4.807   4.292   2.910  0.0039  0.3194 -0.0790
 1430W        W 5174   3.217   0.390   8.992 -0.0748  0.2192 -0.0501
 1431W        W 5175   7.410   5.558   4.760  0.1504 -0.0081  0.1522
 1432W        W 5176   4.088   1.933   1.933 -0.0337 -0.0507 -0.1335
 1433W        W 5177   1.003  10.035   0.205  0.0666 -0.0344 -0.0120
 1434W        W 5178   8.591   7.716   0.971  0.1018  0.0228 -0.1065
 1435W        W 5179   2.072   9.537   3.929  0.3039 -0.0399  0.0454
 1436W        W 5180   4.031   9.031  10.392  0.2343  0.3265 -0.1001
 1437W        W 5181   1.587   4.473   1.629  0.2206 -0.3799 -0.3865
 1438W        W 5182   6.257   3.079  11.899  0.0376 -0.0818 -0.1532
 1439W        W 5183   8.543   8.827   1.414 -0.0092  0.1284 -0.4243
 1440W        W 5184   0.074   0.077  10.169  0.1584  0.3656 -0.2086
 1441W        W 5185   5.832   2.107  10.148 -0.1201  0.1021 -0.1919
 1442W        W 5186   7.297   5.225   3.109 -0.1245 -0.1404  0.0944
 1443W        W 5187   9.428   3.858   0.337  0.0268  0.2951  0.1376
 1444W        W 5188   9.083   4.657   2.858  0.1381  0.1452 -0.2046
 1445W        W 5189   7.797   5.866   8.625 -0.0622  0.0123 -0.0310
 1446W        W 5190   4.453   4.855  11.671  0.1084 -0.1566 -0.3243
 1447W        W 5191   9.230   0.246   0.555 -0.0036  0.0915 -0.0009
 1448W        W 5192   3.195   9.916   2.410  0.2490 -0.0784  0.2076
 1449W        W 5193   9.343   1.258  10.071  0.0580  0.1178  0.0243
 1450W        W 5194   6.904   5.127  10.685 -0.0216 -0.0545 -0.0795
 1451W        W 5195   4.665   9.610  12.236 -0.0468  0.0727 -0.0198
 1452W        W 5196   0.366   4.466   9.060  0.1240 -0.0664 -0.2076
 1453W        W 5197   8.634   2.714   2.955 -0.2919 -0.1163 -0.0666
 1454W        W 5198   3.173   6.249   9.803  0.0361 -0.0474 -0.0881
 1455W        W 5199   3.744   7.015   0.830  0.1738 -0.0208  0.1610
 1456W        W 5200   0.764   2.852   3.041  0.4135 -0.2274 -0.4186
 1457W        W 5201   8.607   0.131   9.507  0.3444  0.0743 -0.2590
 1458W        W 5202   3.469   1.937   0.317 -0.2642  0.1224  0.0852
 1459W        W 5203   2.528   7.766   1.466  0.1266 -0.1884 -0.0359
 1460W        W 5204   9.475   4.264   9.288  0.1035  0.2463  0.0659
 1461W        W 5205   4.092   6.650   9.288 -0.2185 -0.2169  0.2051
 1462W        W 5206   7.110   4.862   2.194 -0.0646  0.3630 -0.1038
 1463W        W 5207   8.368   2.122  10.643 -0.2491  0.1251 -0.1218
 1464W        W 5208   1.177   5.443  10.238  0.0298 -0.0432  0.4337
 1465W        W 5209   5.417   9.694   4.569 -0.2006 -0.3308 -0.0578
 1466W        W 5210   5.235   3.172  11.968  0.1229 -0.3141  0.0776
 1467W        W 5211   7.325   9.456   9.556 -0.0576  0.0345  0.4594
 1468W        W 5212   8.946   5.539   0.618 -0.0825 -0.0540  0.2085
 1469W        W 5213   2.014   0.907  10.855  0.0884  0.0742  0.0717
 1470W        W 5214   3.911   0.089  10.138 -0.3433  0.3003 -0.2643
 1471W        W 5215   2.614   4.761  11.155  0.0929 -0.0690 -0.1629
 1472W        W 5216   9.079   6.993  11.305  0.0149  0.1252 -0.1795
 1473W        W 5217   7.047   2.646   0.007  0.0126  0.1574  0.1425
 1474W        W 5218   1.967   6.330  10.535  0.2284  0.0253 -0.0815
 1475W        W 5219   0.221   3.494  10.296 -0.1644  0.0603  0.0345
 1476W        W 5220   7.126   5.141   1.410  0.0545 -0.0672 -0.0141
 1477W        W 5221   1.687   2.084   4.202  0.0214 -0.1925  0.1651
 1478W        W 5222   1.689   3.552  12.186 -0.2835  0.1028  0.0703
 1479W        W 5223   5.450   4.019   2.093 -0.0274  0.0176 -0.1508
 1480W        W 5224   2.529   0.950  10.837  0.1247 -0.0041 -0.1585
 1481W        W 5225   7.722   8.531   4.134 -0.0512  0.0327  0.0133
 1482W        W 5226   2.191   2.533   8.729  0.0347  0.0370  0.3637
 1483W        W 5227   7.970   6.309   1.789 -0.4847 -0.0614  0.0581
 1484W        W 5228   3.254   2.948   9.606  0.0868 -0.0491 -0.3121
 1485W        W 5229   3.393   2.191   2.637 -0.3775  0.1443 -0.2478
 1486W        W 5230   0.263   0.556   4.872  0.0116  0.1280  0.1494
 1487W        W 5231   8.102   7.531   4.914 -0.0776 -0.0050  0.1124
 1488W        W 5232   9.276   3.296   0.306  0.4207 -0.3497 -0.1215
 1489W        W 5233   6.647   9.935   2.010  0.1124 -0.1667 -0.2832
 1490W        W 5234   8.204   4.579   3.603  0.0462 -0.0356  0.1637
 1491W        W 5235   6.252  10.016   4.736  0.1066 -0.0543 -0.0228
 1492W        W 5236   1.879   8.025  10.435 -0.1122  0.1431  0.1242
 1493W        W 5237   4.660   3.985   5.285  0.3443  0.1262  0.0441
 1494W        W 5238   0.027   1.286   9.535  0.0812  0.2187  0.0567
 1495W        W 5239   4.281   2.579   1.055 -0.1538 -0.0814  0.2702
 1496W        W 5240   6.442   7.800  12.316  0.1198  0.2970  0.0925
 1497W        W 5241   3.248   1.251   1.502  0.1566 -0.0630 -0.0266
 1498W        W 5242   1.283   0.410  10.534 -0.1765  0.2706  0.1339
 1499W        W 5243   9.611   1.491   2.290 -0.0412 -0.2474 -0.0472
 1500W        W 5244   5.263   3.347   0.081 -0.1879  0.2792 -0.0283
 1501W        W 5245   2.523   5.619   1.599  0.0118  0.1110  0.2768
 1502W        W 5246   0.362   4.709   1.410 -0.0173  0.4317  0.0552
 1503W        W 5247   6.910   2.745   2.537  0.0302  0.1534  0.3758
 1504W        W 5248   8.548   2.303   0.691  0.2704 -0.0142  0.2828
 1505W        W 5249   6.851   5.155   3.511  0.1450 -0.0142 -0.2695
 1506W        W 5250   9.133   5.887  11.240 -0.1245 -0.0560  0.1193
 1507W        W 5251   8.063   0.357  11.499  0.0295  0.1138  0.3872
 1508W        W 5252   4.752   3.157  10.823 -0.0197  0.3184  0.2085
 1509W        W 5253   6.562   5.043   0.595 -0.0989 -0.1949  0.2035
 1510W        W 5254   2.225   4.802   9.337 -0.3009  0.1793 -0.0910
 1511W        W 5255   7.376   1.540  12.147 -0.3945  0.1063 -0.2646
 1512W        W 5256   9.642   7.638   0.857 -0.1226  0.0397  0.0162
 1513W        W 5257   3.476   7.326   9.124  0.0873 -0.1145  0.2884
 1514W        W 5258   6.221   3.704  10.664  0.2245  0.4007 -0.2390
 1515W        W 5259   2.394   9.962   1.335 -0.1726  0.0536 -0.0134
 1516W        W 5260   1.983   0.058   8.941 -0.0810 -0.0142 -0.2315
 1517W        W 5261   2.633   0.286  10.868  0.2211 -0.0338  0.1624
 1518W        W 5262   8.819   0.176  10.438 -0.0420 -0.0562 -0.1979
 1519W        W 5263   0.276   9.668  11.038 -0.1444  0.0825  0.1159
 1520W        W 5264   0.822   8.488   9.498  0.0895 -0.1196 -0.0696
 1521W        W 5265   5.809   8.284  11.711  0.1333 -0.0028 -0.1692
 1522W        W 5266   2.077   3.607   0.137  0.0543  0.1944  0.0400
 1523W        W 5267   1.438   0.271  11.021 -0.0894 -0.1465 -0.2548
 1524W        W 5268   2.507   2.322   1.370 -0.1957 -0.0197 -0.0030
 1525W        W 5269   9.637   0.825  11.824 -0.1031  0.0082 -0.0248
 1526W        W 5270   4.281   9.771   9.517 -0.0540  0.0781 -0.1288
 1527W        W 5271   1.120   8.352  10.629  0.1917  0.3157 -0.0604
 1528W        W 5272   1.752   9.701   0.261  0.0437 -0.1288 -0.2389
 1529W        W 5273   6.113   6.606  10.770  0.1078 -0.1597  0.3110
 1530W        W 5274   0.236   7.246  11.594  0.1572  0.3527  0.0863
 1531W        W 5275  10.015   6.149  10.669  0.1646  0.3108 -0.1074
 1532W        W 5276   9.847   1.349   1.849 -0.2510 -0.1128 -0.0447
 1533W        W 5277   6.679   6.207  11.896 -0.3096  0.0884 -0.0092
 1534W        W 5278   2.644   4.569   1.738 -0.3016 -0.1899 -0.3263
 1535W        W 5279   8.676   5.769  11.094  0.0507 -0.2954  0.0216
 1536W        W 5280   1.806   0.704  11.735  0.4627  0.0679 -0.0681
 1537W        W 5281   5.630   4.031   2.949 -0.1641  0.1241  0.1155
 1538W        W 5282   0.545   2.192   9.628  0.2889 -0.0921  0.1965
 1539W        W 5283   2.711   7.134  10.192 -0.1739 -0.0821 -0.0361
 1540W        W 5284   5.212   6.079   0.237 -0.0295  0.0935 -0.3826
 1541W        W 5285   1.847  10.006   9.378  0.0399 -0.3484 -0.2194
 1542W        W 5286   6.391   1.667   2.193  0.0451  0.3599  0.0554
 1543W        W 5287   7.295   4.427   4.403 -0.3475  0.1085 -0.2207
 1544W        W 5288   1.876   8.869  10.599 -0.0424 -0.2640 -0.1235
 1545W        W 5289   7.941   0.776   8.878  0.0832  0.0301 -0.0291
 1546W        W 5290   9.852   9.205   2.945  0.1471 -0.2278 -0.2167
 1547W        W 5291   9.838   3.623   3.606  0.0779 -0.0227 -0.0576
 1548W        W 5292   7.200   8.865  10.759 -0.0545 -0.0538 -0.2501
 1549W        W 5293   1.028   6.566  10.254 -0.0919 -0.3766  0.0331
 1550W        W 5294   9.671   9.177   8.716  0.2431 -0.1345  0.0130
 1551W        W 5295   0.520   9.375  10.701 -0.2251 -0.1111  0.1589
 1552W        W 5296   4.235   6.269  10.076  0.1618 -0.0846 -0.1048
 1553W        W 5297   5.763   1.259  12.022 -0.1435  0.2216  0.2175
 1554W        W 5298   8.531   6.899   9.547  0.3921 -0.0550  0.4039
 1555W        W 5299   9.248   2.823  12.151  0.5510  0.0869 -0.0277
 1556W        W 5300   9.783   1.806   3.475 -0.3443  0.0358 -0.0465
 1557W        W 5301   7.604   1.234   8.237  0.2146  0.0909 -0.4047
 1558W        W 5302   4.052  10.069  11.915  0.0782  0.0048 -0.1021
 1559W        W 5303   1.506   4.464  11.704 -0.1191 -0.0127 -0.2705
 1560W        W 5304   6.064   0.731   2.729 -0.0169  0.1253  0.1131
 1561W        W 5305   0.669   8.654  10.596  0.1060  0.1314  0.0788
 1562W        W 5306   7.562   5.154   9.338  0.0767  0.1873 -0.2683
 1563W        W 5307   3.702   6.205  10.527  0.2323 -0.0763  0.1401
 1564W        W 5308   0.556   3.902   7.926 -0.1846 -0.1040 -0.1724
 1565W        W 5309   6.709   5.806   9.346 -0.2278 -0.0375  0.1398
 1566W        W 5310   0.386   5.094  11.079 -0.1712 -0.4785 -0.0598
 1567W        W 5311   6.528   3.348   1.746 -0.0456  0.1253  0.1082
 1568W        W 5312  10.037   8.733   9.464  0.2001  0.1926 -0.1299
 1569W        W 5313   5.549   2.684  12.102 -0.2228 -0.2061 -0.1389
 1570W        W 5314   1.231   6.886   1.806  0.0777 -0.0738  0.0146
 1571W        W 5315   2.510   8.885  11.353  0.5130 -0.0822  0.1911
 1572W        W 5316   5.013   3.940   3.337 -0.3777 -0.4836  0.0732
 1573W        W 5317   7.158   4.589  12.173  0.2605 -0.2385  0.2324
 1574W        W 5318   8.625   4.304  10.137  0.0590  0.3471 -0.2481
 1575W        W 5319   7.180   1.758   3.721  0.1802 -0.3015 -0.0887
 1576W        W 5320   5.850   7.506  10.788 -0.1351  0.0439 -0.2136
 1577W        W 5321   4.699   5.270   0.435  0.2245 -0.0520 -0.2007
 1578W        W 5322   5.480   9.639   3.851 -0.0439 -0.0965 -0.0672
 1579W        W 5323   8.389   7.138   2.985 -0.0211  0.2019 -0.0200
 1580W        W 5324   0.470   2.181  11.092  0.0598  0.3129 -0.0603
 1581W        W 5325   3.340   7.715  10.681 -0.0526  0.2059 -0.1467
 1582W        W 5326   4.505   8.394  12.016 -0.3198  0.3547 -0.0777
 1583W        W 5327   7.382   1.465  11.336  0.1981  0.3188  0.1350
 1584W        W 5328   4.300   9.260   2.742  0.4423 -0.3367 -0.0246
 1585W        W 5329   4.825   6.742   4.311  0.0977 -0.1133 -0.0062
 1586W        W 5330   4.994   6.286   4.059 -0.1065  0.0076  0.0022
 1587W        W 5331   3.252   7.657   3.606 -0.1734 -0.0016  0.1343
 1588W        W 5332   6.108   3.600   1.576  0.0626 -0.0049  0.0518
 1589W        W 5333   4.282   2.203  11.707  0.0979  0.1539  0.2897
 1590W        W 5334   7.982   5.599  10.091 -0.0464  0.0676  0.2151
 1591W        W 5335   2.026   4.993   9.844 -0.1442 -0.3743 -0.2959
 1592W        W 5336   0.580   9.738   3.830  0.0493 -0.1466 -0.0014
 1593W        W 5337   1.406   0.807  11.915  0.2539 -0.3670  0.2971
 1594W        W 5338   7.753   7.297   1.312 -0.0279 -0.1497 -0.0277
 1595W        W 5339   2.119   0.488  12.089  0.3006 -0.0064 -0.0852
 1596W        W 5340   1.733   7.026  10.339 -0.2586 -0.0423 -0.1390
 1597W        W 5341   5.805   2.262   2.930  0.0714 -0.1831  0.2233
 1598W        W 5342   9.823   5.556  11.156 -0.1458  0.2767  0.0486
 1599W        W 5343   4.105   2.485   4.171  0.0424  0.0703 -0.0937
 1600W        W 5344   1.593   8.805   8.851  0.1292 -0.1265  0.0681
 1601W        W 5345   5.576   4.260  11.106  0.1813  0.2729  0.0950
 1602W        W 5346   9.507  10.062   0.350  0.0223 -0.0295 -0.1897
 1603W        W 5347   9.320   5.911   0.761  0.0534  0.0230 -0.2734
 1604W        W 5348   2.508   2.741   2.867  0.0332  0.0786  0.2113
 1605W        W 5349   7.013   7.242   9.765  0.0354  0.2478 -0.1234
 1606W        W 5350   5.594   5.839   1.971 -0.1004  0.2660 -0.2846
 1607W        W 5351   6.078   5.661   3.839 -0.4067 -0.0775  0.1437
 1608W        W 5352   4.632   8.244   0.570 -0.0013 -0.2582  0.0934
 1609W        W 5353   5.858   5.422   9.675 -0.0973  0.0166  0.2525
 1610W        W 5354   1.436   2.304   3.607 -0.0317 -0.2589  0.3345
 1611W        W 5355   7.125   0.463   1.832  0.2941 -0.0726  0.1251
 1612W        W 5356   7.950   7.605   3.937 -0.1988  0.3473 -0.1249
 1613W        W 5357   8.636   6.201   0.106 -0.0483  0.4340  0.2833
 1614W        W 5358   5.339   4.459  10.725  0.0748 -0.3192  0.2474
 1615W        W 5359   2.430   8.154  10.257  0.1180 -0.2454 -0.0069
 1616W        W 5360   4.401   0.542   1.528  0.0216  0.0399  0.2689
 1617W        W 5361   6.917   1.333  10.109  0.0992  0.2683 -0.0959
 1618W        W 5362   3.924   9.637  10.342 -0.0525  0.0018  0.0295
 1619W        W 5363   5.173   3.049   4.724 -0.1607 -0.1223  0.3234
 1620W        W 5364   8.411   6.832   2.502  0.1223  0.0353 -0.1611
 1621W        W 5365   5.555   5.682  12.337  0.0446 -0.0936  0.2930
 1622W        W 5366   4.858   4.282   0.228 -0.2024  0.2076  0.1652
 1623W        W 5367   3.001   3.482   1.109 -0.0383 -0.1329 -0.1365
 1624W        W 5368   0.386   9.952   3.423  0.2027  0.1856  0.1325
 1625W        W 5369   7.266   5.244   0.164  0.2495  0.3410  0.2370
 1626W        W 5370   8.701   9.166   4.505  0.0653  0.0749  0.1923
 1627W        W 5371   5.010   3.721  10.185 -0.2091 -0.0160  0.0350
 1628W        W 5372   7.270   3.760   1.546  0.2886  0.0031  0.1598
 1629W        W 5373   3.482   8.392   0.411 -0.0349 -0.1608 -0.0005
 1630W        W 5374   1.896   1.910   3.709  0.0248  0.0303  0.2038
 1631W        W 5375   2.794   4.120   1.844  0.3507 -0.3041  0.1686
 1632W        W 5376   5.433   7.633   9.545 -0.2625 -0.0139 -0.2684
 1633W        W 5377   9.831   0.236  11.374  0.3861 -0.0405 -0.0918
 1634W        W 5378   2.136   0.913  11.340 -0.2202 -0.0423 -0.1926
 1635W        W 5379   6.333   9.783   9.930  0.0897 -0.0493 -0.2731
 1636W        W 5380   8.342   9.767   4.014  0.0405  0.2189  0.1991
 1637W        W 5381   8.037   2.519   2.819 -0.3168 -0.2622  0.0982
 1638W        W 5382   2.261   4.858   2.209 -0.1907  0.1080 -0.4823
 1639W        W 5383   7.705   6.109  11.203 -0.1730  0.1977  0.0095
 1640W        W 5384   6.386   8.395   2.131 -0.0386  0.0322  0.3219
 1641W        W 5385   3.425   2.847   0.418  0.0387  0.0374  0.4331
 1642W        W 5386   8.718   0.143   0.545 -0.1664  0.4096 -0.1962
 1643W        W 5387   4.189   2.324   1.490  0.1972 -0.1344  0.1401
 1644W        W 5388   8.730   6.122   0.678  0.0451 -0.1335  0.2142
 1645W        W 5389   9.792   5.350   9.991  0.0959  0.1112  0.0908
 1646W        W 5390   0.952   1.669   3.444  0.2645 -0.0981  0.2050
 1647W        W 5391   0.127  10.128  10.707 -0.1842 -0.0403 -0.1862
 1648W        W 5392   5.572   4.611   0.113 -0.0256 -0.2078 -0.3547
 1649W        W 5393   2.816   0.511  11.619 -0.0116 -0.0166 -0.1247
 1650W        W 5394   8.601   7.180  10.580 -0.1630 -0.2711 -0.2184
 1651W        W 5395   5.412   0.081  11.580 -0.3577  0.3204  0.0495
 1652W        W 5396   0.076   9.642   3.799  0.1851  0.3013 -0.2465
 1653W        W 5397   1.076   9.853   4.504  0.0567 -0.1234 -0.3442
 1654W        W 5398   6.745   6.263   2.187  0.3254 -0.0653 -0.1454
 1655W        W 5399   9.849   5.834   3.696  0.0468  0.1650  0.0086
 1656W        W 5400   5.285   6.173   5.415  0.0459  0.1591 -0.0266
 1657W        W 5401   1.117   8.919   9.801 -0.2856 -0.1333 -0.0239
 1658W        W 5402   3.046   6.401   1.892 -0.1439 -0.1380  0.0382
 1659W        W 5403   1.099   7.107  11.104 -0.3432  0.1346 -0.0106
 1660W        W 5404   5.097   0.888  11.470  0.4226 -0.0228  0.2141
 1661W        W 5405   6.961   7.763   0.013  0.2144 -0.0662  0.0281
 1662W        W 5406   1.856   5.051   2.552 -0.2591  0.3167  0.5163
 1663W        W 5407   0.971   0.923   2.226  0.1874  0.2082 -0.1417
 1664W        W 5408   3.345   4.577  10.181  0.4209  0.1488 -0.0896
 1665W        W 5409   9.025   3.193   1.266  0.0915 -0.2760  0.1619
 1666W        W 5410   3.315   0.726   8.620  0.1383 -0.4116  0.0831
 1667W        W 5411   5.407   9.103   8.801  0.3179  0.1768  0.1244
 1668W        W 5412   6.314   6.308  11.120 -0.0301  0.0730 -0.1963
 1669W        W 5413   2.289   4.207   2.078  0.1855  0.1569  0.4293
 1670W        W 5414   1.911   1.333  11.822  0.0583 -0.2642  0.2061
 1671W        W 5415   3.365   3.684   3.034  0.0419 -0.0311 -0.3508
 1672W        W 5416   7.340   8.396  10.614  0.2546 -0.3462 -0.0930
 1673W        W 5417   2.912   2.189   8.345  0.2012  0.0444 -0.0558
 1674W        W 5418   8.484   8.511  11.079 -0.2926  0.1041  0.1693
 1675W        W 5419   4.569   2.225  11.144 -0.2056 -0.0660  0.0742
 1676W        W 5420   1.897   4.580   2.293 -0.0570  0.1421  0.0862
 1677W        W 5421   8.614   1.015  11.240 -0.0115  0.1338 -0.1744
 1678W        W 5422   0.279   6.265  12.164 -0.2672 -0.2402  0.1804
 1679W        W 5423   8.758   2.419  10.579 -0.0527 -0.1004 -0.4084
 1680W        W 5424   2.763   7.617  11.930 -0.2973  0.0004  0.0243
 1681W        W 5425   9.718   6.546  10.028 -0.1002  0.0746 -0.0669
 1682W        W 5426   8.281   2.411   9.350  0.2871  0.0342  0.2464
 1683W        W 5427   8.145   6.699   0.385  0.0294 -0.1418  0.0213
 1684W        W 5428   9.711   9.654  11.579 -0.0347 -0.2486  0.1140
 1685W        W 5429   9.694   0.429   3.931  0.1119 -0.0940  0.0084
 1686W        W 5430   4.475   5.757   0.345  0.2191 -0.4517 -0.1355
 1687W        W 5431   7.077   8.971   1.891 -0.1021 -0.1868  0.1207
 1688W        W 5432   9.792   3.800   2.027 -0.1059 -0.0072  0.1897
 1689W        W 5433   1.859   0.651   8.846 -0.1111  0.0592 -0.2541
 1690W        W 5434   3.066   8.215  10.973  0.0515 -0.3245 -0.1166
 1691W        W 5435   6.623   6.712   2.991 -0.2930 -0.3062  0.0369
 1692W        W 5436   8.529   5.407   9.414 -0.4039  0.0104  0.0140
 1693W        W 5437   8.993   4.940   9.455  0.2750 -0.1422  0.0522
 1694W        W 5438   5.939   0.030   0.417  0.2050  0.1767 -0.3451
 1695W        W 5439   0.184   8.152   1.036 -0.2476 -0.1196  0.2302
 1696W        W 5440   0.398   7.668   3.621 -0.1558 -0.1734 -0.0197
 1697W        W 5441   7.646   2.591   0.892  0.3462  0.1037 -0.0807
 1698W        W 5442   8.934   7.138   3.034  0.2148 -0.2546 -0.2954
 1699W        W 5443  10.028   5.777   9.905  0.4102 -0.0591  0.0933
 1700W        W 5444  10.047   6.945   1.044 -0.2876  0.0813  0.1891
 1701W        W 5445   0.472   5.373  10.676 -0.0215 -0.1455  0.1355
 1702W        W 5446   4.332   8.182  11.264 -0.2069  0.2857  0.0189
 1703W        W 5447   6.052   8.567   3.472  0.2940  0.0052  0.0470
 1704W        W 5448   6.791   9.899   4.692  0.0526  0.2180  0.0622
 1705W        W 5449   8.072   9.017   9.035  0.1342  0.2013 -0.0943
 1706W        W 5450   1.366   8.819  11.363 -0.0195 -0.1441 -0.1195
 1707W        W 5451   7.823   0.352   2.839 -0.1324 -0.1817 -0.2463
 1708W        W 5452   6.291   5.822  11.056 -0.0089  0.1217  0.3623
 1709W        W 5453   6.174   9.267  10.073  0.3053 -0.0632 -0.2045
 1710W        W 5454   1.716   7.989  11.835  0.0019 -0.3291 -0.0354
 1711W        W 5455   4.969   6.058   2.510  0.0935 -0.0801 -0.0458
 1712W        W 5456   2.028   1.047   4.471 -0.2310 -0.0145  0.0318
 1713W        W 5457   9.463   2.112  11.057 -0.1005  0.0233 -0.2694
 1714W        W 5458   4.161   6.158  11.371  0.1033 -0.1831  0.0880
 1715W        W 5459   2.950   8.174   3.979 -0.2895 -0.2101  0.0029
 1716W        W 5460   4.941   8.744   2.874  0.1659  0.0674 -0.2344
 1717W        W 5461   9.649   4.543   8.802 -0.2794 -0.1223 -0.2299
 1718W        W 5462   8.830   8.819   4.893  0.1937  0.2514  0.0566
 1719W        W 5463   2.763   1.543   2.539  0.4014 -0.1081 -0.3377
 1720W        W 5464   7.264   2.048   2.941 -0.2856  0.0760 -0.0595
 1721W        W 5465   8.286   1.364  11.446  0.3443 -0.0223  0.2997
 1722W        W 5466   3.679   4.040  11.972 -0.0784  0.0404 -0.0563
 1723W        W 5467   3.903   5.724   1.114 -0.2306 -0.1888 -0.3616
 1724W        W 5468   4.801   1.548  10.990  0.1682 -0.0486  0.0178
 1725W        W 5469   5.931   3.711   2.046  0.1151 -0.1637  0.0481
 1726W        W 5470   8.585   0.296   2.849  0.1316 -0.3059  0.1076
 1727W        W 5471   7.488   6.363   9.504 -0.1032 -0.3807  0.1339
 1728W        W 5472   9.761   7.015  12.094  0.1723  0.2629 -0.1609
 1729W        W 5473   6.443   8.509   2.705 -0.1091 -0.1246 -0.4263
 1730W        W 5474   9.180   3.377  10.882  0.0991 -0.4396 -0.2650
 1731W        W 5475   8.703   4.834   3.626 -0.2727  0.1204  0.0347
 1732W        W 5476   4.183   8.534  11.612 -0.0357  0.3073  0.1538
 1733W        W 5477   0.489   0.923   3.020 -0.0648  0.1913  0.0866
 1734W        W 5478   6.539   1.083   2.239  0.0471 -0.3877 -0.2076
 1735W        W 5479   0.409   0.331   3.401 -0.2458  0.1676 -0.0042
 1736W        W 5480   6.099   5.634  12.320  0.0032 -0.1133 -0.0318
 1737W        W 5481   8.963   8.578   0.950 -0.1562  0.0904  0.2732
 1738W        W 5482   6.314   9.331   2.863 -0.1232  0.0041  0.5978
 1739W        W 5483   7.483   9.088  11.966  0.0744 -0.0993 -0.0069
 1740W        W 5484   4.274   0.405   4.477  0.0122  0.0336 -0.1062
 1741W        W 5485   9.893   9.016   0.781 -0.1486  0.1959 -0.1126
 1742W        W 5486   7.381   3.558   2.514 -0.1553 -0.0106  0.0405
 1743W        W 5487   2.234   4.351  10.298  0.1629 -0.0156  0.2006
 1744W        W 5488   7.601   5.722  10.878  0.1995  0.0643 -0.3782
 1745W        W 5489   4.508   2.106   1.068 -0.1288  0.0157  0.2476
 1746W        W 5490   3.389   7.426   1.093  0.0550 -0.0403  0.0193
 1747W        W 5491   3.110   7.971   1.620 -0.0790  0.0160 -0.1531
 1748W        W 5492   6.032   9.705  11.342 -0.2022 -0.0884 -0.3323
 1749W        W 5493   0.943   4.212   1.950 -0.0008 -0.1849 -0.0297
 1750W        W 5494   0.451   9.279   3.001 -0.0930  0.3080  0.0926
 1751W        W 5495   4.412   6.417   1.376  0.2888  0.0717  0.0480
 1752W        W 5496   4.655   7.900   9.277 -0.0444  0.1114 -0.0149
 1753W        W 5497   5.248   3.159  10.528 -0.2570  0.1153  0.0196
 1754W        W 5498   8.171   7.209   0.078  0.4684  0.0013  0.2295
 1755W        W 5499   5.774   0.076   9.199  0.2774  0.0863 -0.1026
 1756W        W 5500   1.835   3.233   9.880 -0.0095  0.4622 -0.0264
 1757W        W 5501   5.837   5.027   3.270  0.1738 -0.0683  0.0061
 1758W        W 5502   5.801   4.260   8.923  0.1931 -0.2019  0.0202
 1759W        W 5503   5.203   6.234   2.984 -0.2121 -0.0921 -0.0897
 1760W        W 5504   2.471   0.781   2.043 -0.2477 -0.3103  0.2879
 1761W        W 5505  10.030   6.959   0.142  0.0111  0.1833  0.1527
 1762W        W 5506   2.344  10.031   3.686 -0.1764  0.3552  0.0513
 1763W        W 5507   3.350   8.318  11.493  0.2928 -0.2029  0.3766
 1764W        W 5508   4.803   4.626   3.917 -0.0582 -0.0461 -0.1194
 1765W        W 5509   6.416   9.816   3.213  0.1506 -0.4059  0.2980
 1766W        W 5510   2.744   2.283   2.046 -0.4342  0.1962 -0.0050
 1767W        W 5511   2.998   7.274   0.778 -0.0873  0.3524  0.3850
 1768W        W 5512   2.118   1.221   8.455 -0.0909  0.1608 -0.0744
 1769W        W 5513  10.094   8.923  11.197 -0.1971  0.1234  0.3872
 1770W        W 5514   7.163   4.189   9.956 -0.2264  0.2157 -0.2736
 1771W        W 5515   3.467   9.160   0.855 -0.3420  0.0360 -0.0058
 1772W        W 5516   1.460   8.019  10.191 -0.1164 -0.1045  0.0308
 1773W        W 5517   2.968   1.658  11.925 -0.0479 -0.0001 -0.0380
 1774W        W 5518   7.205   3.879   3.247 -0.0513  0.0449 -0.1055
 1775W        W 5519   5.696   2.447   0.195  0.0380 -0.1279  0.0083
 1776W        W 5520   8.082   6.313  12.368 -0.1269 -0.1276 -0.2187
 1777W        W 5521   9.464   6.001   3.321  0.0784 -0.2831 -0.2738
 1778W        W 5522   0.551   9.986  10.472  0.1587 -0.1790 -0.3268
 1779W        W 5523   8.911   2.108   0.391 -0.3782  0.0916 -0.3189
 1780W        W 5524   1.066   5.010   2.161 -0.0889 -0.1123  0.1701
 1781W        W 5525   4.052   7.502  11.797  0.0539  0.3046 -0.1192
 1782W        W 5526   1.244   1.617   1.582  0.1979 -0.2747 -0.1812
 1783W        W 5527   6.043   5.110   4.080 -0.1272  0.1105  0.1097
 1784W        W 5528   7.417   5.723  10.299 -0.1010 -0.2478 -0.2313
 1785W        W 5529   9.617   7.112   1.736 -0.1932 -0.1309 -0.0052
 1786W        W 5530   1.668   1.119   1.851  0.0414  0.2377 -0.2421
 1787W        W 5531   9.209   5.299   1.003 -0.0286  0.2410 -0.2328
 1788W        W 5532   4.128   6.817   2.093 -0.0303 -0.0033 -0.1560
 1789W        W 5533   2.100   9.533  10.979  0.1277 -0.1366 -0.0099
 1790W        W 5534   7.524   3.117  10.760  0.0139  0.0469 -0.1455
 1791W        W 5535   6.821   2.185   0.349  0.2414 -0.4906  0.0869
 1792W        W 5536   4.752   2.866   7.774 -0.0714  0.1491 -0.0986
 1793W        W 5537   4.841   0.496  11.606  0.1816 -0.2513 -0.1514
 1794W        W 5538   6.737   7.194   1.432 -0.1375  0.2117 -0.3525
 1795W        W 5539   3.074   5.854   2.148  0.0440 -0.1279  0.0219
 1796W        W 5540   3.024   2.541   1.346 -0.1381  0.1724 -0.0171
 1797W        W 5541   7.043   3.338   0.152 -0.0572  0.0918  0.1197
 1798W        W 5542   5.059   2.493   9.251 -0.0966 -0.0236 -0.1099
 1799W        W 5543   3.981   3.984   8.795  0.3101  0.0635  0.1416
 1800W        W 5544   0.490   1.952   0.029 -0.0949 -0.1840 -0.0525
 1801W        W 5545   3.276   0.627   2.933 -0.0070  0.1103 -0.1819
 1802W        W 5546  10.091   6.385   0.648 -0.2281 -0.0965  0.2152
 1803W        W 5547   6.226   3.989   3.036 -0.0896  0.1791  0.0793
 1804W        W 5548   1.585  10.064  11.927 -0.0942 -0.0604  0.0273
 1805W        W 5549   7.071   4.699  10.237 -0.1425  0.0346  0.0645
 1806W        W 5550   0.959   5.159  11.198  0.2017 -0.1583 -0.3984
 1807W        W 5551   9.065   0.379   0.069 -0.1593  0.1663  0.0575
 1808W        W 5552   0.260   5.578  11.309  0.0232 -0.0289  0.0361
 1809W        W 5553   4.584   7.038   4.686  0.1418 -0.0408  0.1164
 1810W        W 5554   2.967   6.559   2.834  0.1724  0.2607 -0.0452
 1811W        W 5555   1.330   3.420   2.524 -0.2010  0.2855 -0.0367
 1812W        W 5556   0.147   3.081   9.494  0.0277 -0.0864  0.0609
 1813W        W 5557   2.871   1.333   3.142 -0.0484  0.0589  0.3932
 1814W        W 5558   2.301   0.181   2.398  0.2547 -0.0381 -0.3227
 1815W        W 5559   4.138   9.769   5.039  0.1496 -0.1760 -0.0268
 1816W        W 5560   5.114   0.870   3.187  0.2469  0.1675  0.0781
 1817W        W 5561   2.700   4.565   2.316 -0.0612  0.2302  0.1543
 1818W        W 5562   4.341   7.941   0.286 -0.1513 -0.0558  0.0830
 1819W        W 5563   2.939   6.241   2.427 -0.3014  0.1834 -0.4669
 1820W        W 5564   3.862   6.965   3.905 -0.2727 -0.2350  0.1918
 1821W        W 5565   1.682   8.827   4.380  0.0144 -0.0110  0.0232
 1822W        W 5566   9.241   1.114   2.472  0.1141 -0.0256 -0.3229
 1823W        W 5567   6.704   4.632   2.540 -0.1161  0.1435  0.0658
 1824W        W 5568   6.396   0.822   1.280  0.0774 -0.1338  0.3211
 1825W        W 5569   2.113   5.764   2.865 -0.3458 -0.2191  0.0696
 1826W        W 5570   5.406   6.888   4.191 -0.0498  0.1445 -0.1151
 1827W        W 5571   3.178   1.405  10.083  0.0654  0.2052  0.0667
 1828W        W 5572   1.654   3.226   3.882  0.0570  0.2964  0.2425
 1829W        W 5573   9.435   3.743   9.452 -0.3257  0.1601 -0.0067
 1830W        W 5574   7.273   8.877   0.754  0.1409 -0.1888  0.0460
 1831W        W 5575   3.983   4.695   3.483  0.0847  0.2961 -0.1798
 1832W        W 5576   6.867   7.012  12.149  0.3614  0.1288  0.0590
 1833W        W 5577   0.732   6.415  11.636 -0.2218  0.0467 -0.2504
 1834W        W 5578   2.977   7.741   0.664 -0.2395 -0.3702 -0.0453
 1835W        W 5579   1.386   7.850   9.229 -0.2236 -0.0009 -0.0698
 1836W        W 5580   2.112   0.032   0.889 -0.1190 -0.0027 -0.3329
 1837W        W 5581   3.297   7.876   3.097  0.2742 -0.3714  0.0036
 1838W        W 5582   5.734   6.893   2.675 -0.0533  0.0719  0.0724
 1839W        W 5583   3.410   1.636  11.460  0.0278  0.1159  0.0706
 1840W        W 5584   6.043   1.919  11.221  0.0428 -0.0411  0.0067
 1841W        W 5585   0.340   7.880  10.063  0.0275  0.1354 -0.0505
 1842W        W 5586   7.468   9.252   2.117  0.0846 -0.2133 -0.0589
 1843W        W 5587   6.436  10.126   0.556  0.5408 -0.1797 -0.1178
 1844W        W 5588   1.111   9.758   4.009  0.1203 -0.0711 -0.1686
 1845W        W 5589   1.745   2.762   0.681 -0.0912  0.2805  0.0201
 1846W        W 5590   3.717   0.396   9.071  0.4172 -0.0638  0.2329
 1847W        W 5591   5.228   4.808  11.131  0.2016  0.0033  0.2685
 1848W        W 5592   4.933   9.952   9.286  0.0489  0.1453 -0.1760
 1849W        W 5593   8.605   3.519   1.616 -0.0120 -0.4336  0.2216
 1850W        W 5594   4.230   4.998   3.086 -0.4065  0.0427 -0.0199
 1851W        W 5595   1.586   5.472   0.779 -0.0076  0.0307 -0.0416
 1852W        W 5596   1.412   0.273   1.577  0.0207 -0.0090  0.2224
 1853W        W 5597   3.145   9.536  11.877  0.0517  0.0738  0.0607
 1854W        W 5598   9.652   8.368   9.448  0.4238  0.0203  0.2050
 1855W        W 5599   8.801   8.488   3.070 -0.2181 -0.3300  0.0279
 1856W        W 5600  10.030   8.353  10.709 -0.1870 -0.1141 -0.2409
 1857W        W 5601   8.353   8.360   1.744 -0.1224 -0.3648  0.0736
 1858W        W 5602   8.267   4.647   0.039  0.0405  0.2040  0.1544
 1859W        W 5603   4.388   5.669   0.911  0.1420 -0.1781 -0.0998
 1860W        W 5604   9.299   0.492   9.031  0.1757 -0.0823  0.0729
 1861W        W 5605   5.637   7.835   3.983  0.0160 -0.0348 -0.0665
 1862W        W 5606   3.437   3.732  10.716  0.0984 -0.0544 -0.2052
 1863W        W 5607   5.585   8.709  11.134  0.2466 -0.2436 -0.1312
 1864W        W 5608   4.861   2.948  10.390  0.0155 -0.0625 -0.0257
 1865W        W 5609   2.882   8.179   9.292 -0.1438  0.2343  0.0642
 1866W        W 5610   3.632   9.839   2.620 -0.0546  0.0918 -0.2014
 1867W        W 5611   4.820   6.405  10.011 -0.1527 -0.2177  0.0210
 1868W        W 5612   7.097   6.219  11.399  0.0280  0.2553  0.0410
 1869W        W 5613   5.173   5.558   2.410  0.3202 -0.1067 -0.1162
 1870W        W 5614   1.539   9.948  11.270 -0.0422  0.2211 -0.4341
 1871W        W 5615   2.990   3.995   9.818  0.0579  0.2272  0.2387
 1872W        W 5616   2.231   3.961   9.386 -0.3002  0.0186  0.1173
 1873W        W 5617   2.042   0.135   0.104  0.0056 -0.2405  0.0190
 1874W        W 5618   0.486   5.257  12.305 -0.1431  0.0287  0.3680
 1875W        W 5619   6.920   5.800  11.712  0.0876 -0.0616 -0.3100
 1876W        W 5620   5.577   6.786   2.232  0.0274 -0.1554 -0.1867
 1877W        W 5621   3.967   5.145   9.695 -0.0781  0.3924  0.0521
 1878W        W 5622   2.203   4.511   0.513  0.1522 -0.3333 -0.0868
 1879W        W 5623   6.265   3.333   4.017 -0.4286 -0.1900 -0.0048
 1880W        W 5624   8.067   3.719  10.099 -0.0890 -0.3534  0.0482
 1881W        W 5625   9.925   4.463   1.336 -0.1284 -0.3260 -0.1983
 1882W        W 5626   5.324   8.893   0.516 -0.2303 -0.0333 -0.2457
 1883W        W 5627   8.102   0.203   4.313 -0.2644  0.0975 -0.0084
 1884W        W 5628   3.123   1.091   8.328  0.2196  0.3010  0.2943
 1885W        W 5629   5.605   8.776   3.469 -0.0426  0.0568  0.0032
 1886W        W 5630   5.400   0.536  11.800 -0.1467 -0.1995 -0.1776
 1887W        W 5631   0.095   6.266   9.896  0.2292 -0.0016 -0.0598
 1888W        W 5632   4.068   2.798   1.758  0.0889 -0.1612 -0.1725
 1889W        W 5633   8.508   0.992   3.198  0.0714 -0.4133  0.0802
 1890W        W 5634   7.125   1.443   0.543  0.2093 -0.0463 -0.4569
 1891W        W 5635   4.514   9.741   3.654 -0.0401  0.1262  0.0026
 1892W        W 5636   0.197   0.824   3.453  0.0207 -0.1533 -0.2050
 1893W        W 5637   9.415   9.991   2.695  0.2632  0.0516 -0.0780
 1894W        W 5638   5.767   8.818   1.968  0.2895  0.0808  0.1681
 1895W        W 5639   2.926   9.716  12.309 -0.0206 -0.1670  0.0345
 1896W        W 5640   9.078   9.845   1.715 -0.3110  0.2464 -0.3103
 1897W        W 5641   8.282   2.343  10.167  0.1627 -0.2372 -0.2212
 1898W        W 5642   7.926   9.847   3.404 -0.0128 -0.1737 -0.3509
 1899W        W 5643   1.223   6.960   9.152  0.1848  0.0006 -0.1043
 1900W        W 5644   1.479   5.685  11.205  0.0454  0.1480  0.1587
 1901W        W 5645   5.038   8.997  11.864 -0.2733 -0.2172 -0.0213
 1902W        W 5646   0.652   7.318   0.161  0.2555  0.2079  0.0969
 1903W        W 5647   9.132   6.505  11.304  0.1460  0.2603 -0.1113
 1904W        W 5648   9.771   9.466   1.132 -0.0210  0.1666  0.0628
 1905W        W 5649   1.351   6.258   0.416 -0.3812  0.2210 -0.0211
 1906W        W 5650   8.961   0.791  11.628  0.0818 -0.0536 -0.3753
 1907W        W 5651   9.989   0.001   2.578  0.0745 -0.0292 -0.2125
 1908W        W 5652   6.841   0.467  12.173 -0.1845  0.0429 -0.1088
 1909W        W 5653   0.896   8.967   5.206  0.1607 -0.1656  0.1288
 1910W        W 5654   4.840   2.618  10.815 -0.0733  0.2100  0.2841
 1911W        W 5655   3.783   3.865  10.302  0.0154  0.2392 -0.1161
 1912W        W 5656   1.234   2.835   3.824 -0.1710  0.5302 -0.0422
 1913W        W 5657   7.742   2.407  10.138  0.0154  0.3634  0.4461
 1914W        W 5658   6.142   0.240   1.900  0.1408 -0.1517 -0.0074
 1915W        W 5659   9.131   8.808   3.416  0.0888  0.0240  0.0709
 1916W        W 5660   2.677   6.097   9.921 -0.3884  0.0133  0.3941
 1917W        W 5661   1.518   9.864   2.635  0.0941  0.0497  0.1231
 1918W        W 5662   1.929   4.461   4.166  0.0268  0.2006  0.1145
 1919W        W 5663   0.735   3.353   1.583  0.0961  0.1621 -0.2842
 1920W        W 5664   0.759   2.967   1.129  0.0034  0.0916 -0.1812
 1921W        W 5665   3.549   7.906   4.527  0.1755 -0.0583 -0.2302
 1922W        W 5666   8.528   3.153   9.620  0.2484 -0.0634  0.0062
 1923W        W 5667   9.532   6.862   9.649 -0.1127 -0.2573  0.1192
 1924W        W 5668   0.534   8.284   2.345  0.2942 -0.0837 -0.0736
 1925W        W 5669   8.022   9.833   2.481 -0.1488 -0.1717 -0.1424
 1926W        W 5670   6.495   7.949   3.519  0.1259  0.3268  0.3695
 1927W        W 5671   4.707  10.039   3.266 -0.2235 -0.0322 -0.1427
 1928W        W 5672   6.442   2.366   9.632  0.1273 -0.0314  0.3031
 1929W        W 5673   4.121   9.859   4.004 -0.1456 -0.2587  0.0677
 1930W        W 5674   1.126   3.126   2.892 -0.0075 -0.0418  0.4324
 1931W        W 5675   1.952   9.618   2.896 -0.0688  0.3949 -0.3135
 1932W        W 5676   8.484   7.202   0.907  0.0359  0.0569  0.0924
 1933W        W 5677   7.689   6.171   0.320  0.0810  0.1717 -0.0548
 1934W        W 5678   3.166   0.780  11.863 -0.0395 -0.0449 -0.0449
 1935W        W 5679   6.826   2.004  11.728  0.1375  0.1275  0.2329
 1936W        W 5680   8.865   6.642   0.366  0.2710 -0.0056  0.0801
 1937W        W 5681   5.903   1.811   4.455  0.0360  0.0458  0.2540
 1938W        W 5682  10.129   3.926   0.547  0.0085 -0.1190  0.1172
 1939W        W 5683   9.236   7.681   4.221  0.0711 -0.4416 -0.1731
 1940W        W 5684   5.688   0.891   3.370  0.0353  0.0217  0.1540
 1941W        W 5685   1.254   4.708  12.105  0.1647  0.0918 -0.2443
 1942W        W 5686   1.395   8.836   3.945  0.1416  0.0479 -0.0648
 1943W        W 5687   4.812   3.666   3.816  0.1797  0.0614  0.0136
 1944W        W 5688   1.643   2.617   0.230 -0.0561 -0.0359  0.2182
 1945W        W 5689  10.108   5.345   1.156 -0.0862  0.0653 -0.0982
 1946W        W 5690   9.885   5.640  10.442  0.0808 -0.1053 -0.1636
 1947W        W 5691   7.369   0.217   1.425 -0.1529 -0.0135  0.0309
 1948W        W 5692   7.089   2.762   9.471  0.1755 -0.0796  0.1023
 1949W        W 5693   2.375   7.530   3.510 -0.0024 -0.1370  0.0274
 1950W        W 5694   3.660   6.801   8.994 -0.3184  0.1709 -0.1534
 1951W        W 5695   4.307   4.417   8.696  0.0209 -0.2799 -0.3247
 1952W        W 5696   8.119   4.947   3.241  0.2157  0.3402 -0.2287
 1953W        W 5697   6.002   6.557   0.040 -0.0072  0.1711 -0.0196
 1954W        W 5698   0.114   6.987  11.124 -0.3008  0.0498  0.1405
 1955W        W 5699   3.122   9.669   9.350 -0.0304 -0.2670  0.1343
 1956W        W 5700   7.383   1.938   2.307 -0.0337 -0.0213 -0.0709
 1957W        W 5701   8.120   4.841   0.651  0.0400  0.0822 -0.0787
 1958W        W 5702   7.048   2.272   2.496 -0.0272  0.1364  0.0102
 1959W        W 5703   8.428   8.063   8.145  0.1525 -0.0069  0.0778
 1960W        W 5704   2.870   9.567   2.188 -0.2504 -0.0448  0.2253
 1961W        W 5705   2.599   9.694  11.436  0.1069 -0.0407  0.2960
 1962W        W 5706   3.291   1.810   1.602  0.3408 -0.1161 -0.0552
 1963W        W 5707   7.521   1.875   1.820 -0.2228  0.3751  0.0409
 1964W        W 5708   5.433   9.953   9.516  0.0034 -0.1890 -0.1482
 1965W        W 5709   5.544   5.777   9.604  0.1995  0.3695  0.3076
 1966W        W 5710   4.666   5.812   3.555 -0.0091 -0.0876 -0.2121
 1967W        W 5711   0.339   7.342  10.303  0.0600 -0.0849 -0.1052
 1968W        W 5712   8.672   5.846   9.678 -0.2136  0.2335 -0.3438
 1969W        W 5713   3.400   7.111  12.340  0.1550 -0.0594 -0.0574
 1970W        W 5714   6.334   6.957   0.328  0.0624 -0.1205  0.3132
 1971W        W 5715  10.047   9.424  11.283  0.0218  0.0695  0.2071
 1972W        W 5716   4.389   5.215   2.639 -0.1582 -0.0045  0.0955
 1973W        W 5717   8.663   7.167  11.136  0.1139 -0.0578 -0.1987
 1974W        W 5718   9.212   4.946  11.227  0.1455 -0.0836 -0.0058
 1975W        W 5719   9.835   2.635   9.229  0.0700 -0.0999  0.0268
 1976W        W 5720   9.554   2.140   4.060 -0.1681  0.2314 -0.1234
 1977W        W 5721   3.765   0.334   4.471 -0.1108 -0.1201 -0.0384
 1978W        W 5722   1.638   8.687   1.081  0.3764 -0.0864 -0.2504
 1979W        W 5723   7.109   2.868  10.871 -0.1343  0.1126 -0.1052
 1980W        W 5724   9.737   4.994  11.191 -0.0587 -0.2344  0.0745
 1981W        W 5725   9.657   7.903   8.588  0.0215 -0.0000 -0.1278
 1982W        W 5726   8.303   3.339   0.757  0.1157 -0.4685  0.3083
 1983W        W 5727   4.985   2.745   1.465 -0.0813  0.2127  0.1238
 1984W        W 5728   9.567   0.706   0.978 -0.2855  0.0002  0.1625
 1985W        W 5729   8.423   6.088   3.754 -0.0172 -0.0249  0.2384
 1986W        W 5730   1.269   4.274   8.354 -0.1330 -0.1102 -0.2735
 1987W        W 5731   4.113   3.225   4.778  0.0006 -0.3417  0.0460
 1988W        W 5732   8.596   5.834   3.329  0.2283 -0.0106 -0.0216
 1989W        W 5733   2.240   7.670  11.676  0.1336  0.1374 -0.0132
 1990W        W 5734   1.345   7.761  12.090 -0.4765  0.0000 -0.3242
 1991W        W 5735   8.276   0.703   3.628 -0.2605  0.0337 -0.1485
 1992W        W 5736   2.995   3.692   3.814  0.0389 -0.0999  0.3121
 1993W        W 5737   6.015   0.250   9.970 -0.0900  0.1354 -0.3646
 1994W        W 5738   6.799   9.055  10.994  0.1326  0.1989  0.1593
 1995W        W 5739   2.424   2.689  10.109 -0.1372 -0.0911 -0.2049
 1996W        W 5740   6.549   0.145   0.044 -0.0872 -0.0107 -0.0574
 1997W        W 5741   7.461   3.757  10.336  0.0626  0.0796  0.0615
 1998W        W 5742   7.001   3.755   3.755 -0.2416  0.0195 -0.2212
 1999W        W 5743   5.977   0.043   3.557  0.0796  0.0061 -0.0456
 2000W        W 5744   7.117   0.933   4.101 -0.0412  0.2731 -0.0432
 2001W        W 5745   9.724   1.054   3.311 -0.2272 -0.0337  0.1924
 2002W        W 5746   9.705   5.601   9.520  0.3957 -0.3850 -0.0900
 2003W        W 5747   4.038   9.844   0.422  0.1483 -0.1311  0.1516
 2004W        W 5748   1.300   2.045   2.800  0.1889  0.2353 -0.3055
 2005W        W 5749   8.586   2.723  11.017  0.0163  0.0072 -0.0190
 2006W        W 5750   9.461   7.677   0.024  0.2820  0.1409 -0.1896
 2007W        W 5751   7.243   1.250   9.049 -0.3689  0.0297  0.0111
 2008W        W 5752   1.790   7.285   1.309 -0.1236 -0.3346 -0.1759
 2009W        W 5753   0.282   4.060   1.335  0.0671  0.0015 -0.0411
 2010W        W 5754   9.537   4.137   2.358 -0.0988 -0.1339 -0.2778
 2011W        W 5755   9.877   9.322  12.065  0.0467 -0.0915 -0.0604
 2012W        W 5756   3.901   5.340  10.987  0.1467 -0.0589  0.1317
 2013W        W 5757   3.298   9.163   9.395 -0.3135 -0.0289  0.0593
 2014W        W 5758   3.762   0.965  10.394 -0.0679  0.0173  0.0436
 2015W        W 5759   7.845   6.469   3.417 -0.0367  0.1282  0.1043
 2016W        W 5760   0.201   0.942  12.261 -0.2147  0.2782  0.1235
 2017W        W 5761   7.370   4.525  11.350 -0.0047 -0.0237  0.2804
 2018W        W 5762   1.033   8.633  11.036  0.3280  0.1994 -0.2259
 2019W        W 5763   5.210   3.944   4.289 -0.2557 -0.1309 -0.0364
 2020W        W 5764   2.450   3.703   0.489 -0.0534  0.2077 -0.1022
 2021W        W 5765   0.132   7.428  10.819  0.3842 -0.0725  0.1719
 2022W        W 5766   8.094   9.387  10.347  0.3538  0.0053  0.2359
 2023W        W 5767   9.056   5.210   3.657  0.0995  0.1299  0.0364
 2024W        W 5768  10.072   0.009   3.309 -0.0471 -0.1855  0.0436
 2025W        W 5769   8.262   0.190  11.086 -0.1000  0.2438  0.4365
 2026W        W 5770   1.792   7.620   2.652 -0.2864 -0.1247 -0.0880
 2027W        W 5771   5.644   1.756   0.842  0.1839 -0.2456 -0.1601
 2028W        W 5772   2.842   5.426   2.007 -0.1720 -0.0816 -0.1122
 2029W        W 5773   1.594   8.903  10.182 -0.0481  0.4856 -0.1897
 2030W        W 5774   8.694   8.879   8.955 -0.0060 -0.1996 -0.1405
 2031W        W 5775   8.449   4.504  10.779 -0.2457  0.0529  0.0800
 2032W        W 5776   3.265   7.256  10.204  0.0096 -0.1250 -0.0567
 2033W        W 5777   4.292   2.993   0.007 -0.0036  0.1316 -0.0047
 2034W        W 5778   0.372   4.817   8.674 -0.1267 -0.0793 -0.0549
 2035W        W 5779   5.934   4.245  11.513 -0.1318  0.2160  0.0307
 2036W        W 5780   2.083   6.382   9.234 -0.3065  0.0892 -0.0553
 2037W        W 5781   7.233   4.280   0.242  0.2368 -0.3031 -0.0803
 2038W        W 5782   6.531   9.462  11.690 -0.1823  0.1101 -0.0817
 2039W        W 5783   2.850   0.023   9.823 -0.1921  0.0354  0.1889
 2040W        W 5784   0.283   2.683   4.114 -0.2719 -0.0103 -0.1831
 2041W        W 5785   1.683   5.492   2.682 -0.2580  0.2780  0.1172
 2042W        W 5786   4.234   2.178   9.089 -0.2784  0.2575 -0.0328
 2043W        W 5787   3.333   1.619   0.766  0.1803  0.3691 -0.1134
 2044W        W 5788   9.729   0.305  11.961  0.3703 -0.0716  0.1373
 2045W        W 5789   2.008   6.922   1.920 -0.2354 -0.2300 -0.0211
 2046W        W 5790   8.245   8.897   2.539 -0.1489 -0.4291  0.0748
 2047W        W 5791   6.125   4.205  10.981 -0.1130  0.1073  0.0732
 2048W        W 5792   5.766   1.744   1.975  0.0304  0.1062 -0.1153
 2049W        W 5793   3.530   0.469  12.228  0.3132  0.0876 -0.0694
 2050W        W 5794   4.372   0.606  10.878 -0.0836 -0.1316  0.1543
 2051W        W 5795   6.008   5.182   2.344  0.0126 -0.0829  0.2147
 2052W        W 5796   6.669   2.233  10.828 -0.0229 -0.3098  0.0836
 2053W        W 5797   4.452   4.979   8.802  0.1129 -0.0465 -0.3311
 2054W        W 5798   7.000   3.032   3.552 -0.2390 -0.0137  0.3063
 2055W        W 5799   2.812   5.511   2.599  0.0206 -0.0353  0.0424
 2056W        W 5800   2.864   0.586   3.603  0.0600 -0.1250  0.0122
 2057W        W 5801   1.380   9.299  10.604 -0.2723  0.2187 -0.0517
 2058W        W 5802   1.782   1.435   2.230  0.0403 -0.1614  0.1337
 2059W        W 5803   3.699   9.740   3.740  0.0963  0.1301 -0.1265
 2060W        W 5804   8.844   0.934  10.821 -0.1792 -0.0138  0.0348
 2061W        W 5805   1.913   5.221   9.386 -0.1057 -0.0713 -0.0898
 2062W        W 5806   8.535   6.358   3.286 -0.2380 -0.2652  0.2038
 2063W        W 5807   0.059   9.580  11.760  0.0757  0.1756 -0.2811
 2064W        W 5808   0.663   7.936  11.356 -0.1080  0.1002  0.1481
 2065W        W 5809   2.259   2.897   1.496 -0.3279 -0.1791  0.0196
 2066W        W 5810   6.916   8.230   3.580 -0.0856  0.1202 -0.1076
 2067W        W 5811   9.338   2.591  11.514 -0.1598 -0.1402  0.5091
 2068W        W 5812   6.882   8.708   5.452 -0.1239 -0.2233 -0.2042
 2069W        W 5813   7.707   3.626   9.772 -0.0045 -0.3170  0.0252
 2070W        W 5814   2.372   2.281   0.830 -0.1116  0.3365 -0.2456
 2071W        W 5815   2.138   5.861   9.639  0.1807  0.2500 -0.0443
 2072W        W 5816   1.657   7.549   3.561  0.2349 -0.0836  0.0371
 2073W        W 5817   9.242   0.423   4.094 -0.0591 -0.1313 -0.1558
 2074W        W 5818   2.607  10.079   3.226 -0.2071  0.0571 -0.0041
 2075W        W 5819   5.649   4.475   1.304  0.0560 -0.1818 -0.0055
 2076W        W 5820   5.607   0.425   0.535 -0.0752  0.1874 -0.1137
 2077W        W 5821   1.421   7.079   2.256 -0.1454 -0.0440 -0.1652
 2078W        W 5822   9.130   7.070   1.723  0.0858  0.0266 -0.3260
 2079W        W 5823   0.832   8.401  11.488 -0.0637  0.1556 -0.1851
 2080W        W 5824   8.343   5.090   8.718 -0.0654 -0.2323 -0.0496
 2081W        W 5825   8.062   4.520  11.074 -0.2824  0.0693 -0.0232
 2082W        W 5826   0.441   7.458   1.786  0.0962  0.3866  0.1186
 2083W        W 5827   2.622   0.038   0.573  0.1160 -0.2026  0.0568
 2084W        W 5828   8.763   4.333   3.925  0.1192  0.6681 -0.4969
 2085W        W 5829   1.444   8.688   1.548 -0.1861  0.2594  0.2679
 2086W        W 5830   2.865   4.558   1.294  0.1774 -0.0185  0.6557
 2087W        W 5831   1.373   1.571   9.701 -0.1863  0.1471 -0.0141
 2088W        W 5832   6.543   8.018   4.005 -0.0754  0.2919 -0.1607
 2089W        W 5833   7.746   1.260   4.275  0.0484 -0.0034  0.1630
 2090W        W 5834   9.194   4.362   0.991  0.3309  0.0818  0.1481
 2091W        W 5835   7.480   6.715   1.938  0.1504 -0.2234  0.1295
 2092W        W 5836   4.467   1.656   9.159  0.0429  0.0212 -0.0886
 2093W        W 5837   7.961   2.076   8.271 -0.2667  0.0281 -0.0466
 2094W        W 5838   8.843   3.545   9.097  0.2189  0.0057  0.0834
 2095W        W 5839   4.424   1.891   0.507  0.3759 -0.0202 -0.1066
 2096W        W 5840   3.055   4.637   0.082 -0.2248  0.2878  0.0986
 2097W        W 5841   3.001   1.814   2.110  0.0668  0.4854  0.0974
 2098W        W 5842   7.990   9.848   4.437  0.0354  0.1865 -0.1386
 2099W        W 5843   7.740   7.894   1.126 -0.2723 -0.0241 -0.0113
 2100W        W 5844   7.352   8.283  11.479  0.0081 -0.0661  0.1622
 2101W        W 5845   5.277   4.462   3.119  0.1203  0.0598  0.1320
 2102W        W 5846   1.865   6.754  10.770 -0.0818 -0.1993  0.0940
 2103W        W 5847   5.941   6.396   0.902 -0.2109 -0.3978  0.1321
 2104W        W 5848   1.038   8.588   0.692 -0.2540 -0.1991 -0.0070
 2105W        W 5849   8.285   0.256   0.931 -0.1926 -0.2220  0.0896
 2106W        W 5850   6.996   8.803   4.922 -0.2464  0.4121 -0.2695
 2107W        W 5851   2.447   1.351   1.486  0.4290 -0.2490 -0.0655
 2108W        W 5852   3.905   8.291   3.652 -0.0874 -0.0599  0.2631
 2109W        W 5853   2.551   3.559   8.630 -0.2736 -0.3014  0.0683
 2110W        W 5854   9.669   8.450   9.982 -0.0687 -0.1590  0.1116
 2111W        W 5855   8.272   2.795   0.901  0.1967  0.1756 -0.1239
 2112W        W 5856   7.599   1.310  10.579  0.1713 -0.1081 -0.3368
 2113W        W 5857   9.062   1.205  11.304 -0.1483  0.1276 -0.1876
 2114W        W 5858   0.667   0.622  11.478 -0.1801  0.2669  0.1670
 2115W        W 5859   3.724   7.481  10.153  0.0290  0.1837 -0.0992
 2116W        W 5860   2.805   6.466  10.992 -0.3242 -0.1506 -0.0691
 2117W        W 5861   0.649   5.035   2.460 -0.0192 -0.1978 -0.0851
 2118W        W 5862   0.486   4.036   5.620 -0.1354 -0.0960 -0.0481
 2119W        W 5863   7.015   0.095   0.788  0.3300 -0.0382 -0.1968
 2120W        W 5864   0.425   3.107   3.910 -0.0491 -0.1077  0.0583
 2121W        W 5865   8.736   2.578   9.118 -0.2635  0.0664 -0.0432
 2122W        W 5866   5.857   4.764  11.670 -0.1785 -0.1802 -0.3059
 2123W        W 5867   2.940   1.897   2.955 -0.2011 -0.0145 -0.0002
 2124W        W 5868   8.580   4.720   2.636  0.1085 -0.2317 -0.1363
 2125W        W 5869   1.945   8.037   1.399  0.3554 -0.0882 -0.1483
 2126W        W 5870   4.037   2.799   3.815  0.0668  0.2934  0.0403
 2127W        W 5871   8.325   9.338   9.864 -0.1383  0.1671  0.3194
 2128W        W 5872   7.916   0.688   9.429  0.2346 -0.0657 -0.1571
 2129W        W 5873   1.684   3.388  10.387  0.2824 -0.0222  0.0333
 2130W        W 5874   3.480   3.037   1.061 -0.2871  0.1001 -0.0198
 2131W        W 5875   0.414   9.273  11.587  0.0904  0.1521  0.1582
 2132W        W 5876   6.400   1.166   0.848 -0.1620  0.0602  0.0669
 2133W        W 5877   6.388   1.981  12.097  0.1103  0.0286  0.2863
 2134W        W 5878   9.717   8.490   0.511 -0.1689 -0.1321 -0.2116
 2135W        W 5879   9.024   3.064  11.736 -0.0102  0.1934  0.1129
 2136W        W 5880   0.373   7.558  11.255 -0.0393  0.2021  0.0405
 2137W        W 5881   1.724   3.962   0.204 -0.2701 -0.3937  0.4761
 2138W        W 5882   9.886   6.538   3.103 -0.0978  0.2992  0.0127
 2139W        W 5883   0.413   1.029  11.822  0.2345 -0.1247  0.0861
 2140W        W 5884   9.698   1.293   4.863  0.0743  0.2047  0.3039
 2141W        W 5885   8.180   5.530   3.941  0.2325  0.0431 -0.2892
 2142W        W 5886   0.584   3.315   2.993 -0.4157 -0.1502 -0.3372
 2143W        W 5887   8.536   5.783  11.750  0.3162  0.1405  0.1234
 2144W        W 5888   0.259   4.319   8.196  0.2200 -0.2639  0.1459
 2145W        W 5889   2.689   3.615  11.768  0.0356  0.2339  0.2021
 2146W        W 5890   0.045   4.188  10.901  0.4899 -0.0490  0.0217
 2147W        W 5891   1.375   0.870   0.060 -0.0033  0.5746  0.1140
 2148W        W 5892   9.607   2.859  10.345 -0.1016  0.1957  0.1353
 2149W        W 5893   5.903   4.436   9.452 -0.0658 -0.1238  0.2509
 2150W        W 5894   3.638   1.520   9.832  0.3672  0.0869  0.2196
 2151W        W 5895   7.819   6.170   1.221 -0.2135 -0.1900 -0.1432
 2152W        W 5896   8.651   0.640  10.454 -0.1089  0.3739 -0.3205
 2153W        W 5897   6.920   8.602   3.921 -0.2973 -0.0215 -0.2036
 2154W        W 5898   3.458   3.501   1.340 -0.2036 -0.0233  0.0248
 2155W        W 5899   4.496   0.041   9.461 -0.2406 -0.3116  0.3887
 2156W        W 5900   2.366   2.105   8.499 -0.1786  0.3298  0.0242
 2157W        W 5901   6.881   6.514   1.382 -0.0801  0.0509  0.0329
 2158W        W 5902   4.053   2.148  11.243  0.1677 -0.5214 -0.2977
 2159W        W 5903   0.358   2.689  11.796  0.1047 -0.2633  0.0637
 2160W        W 5904   3.724   5.170   2.275  0.0120  0.0223  0.0377
 2161W        W 5905   0.600   7.482   9.734  0.1945 -0.3706  0.1113
 2162W        W 5906   3.397   5.128   8.517 -0.0986 -0.2243  0.0395
 2163W        W 5907   7.050   0.218   4.574  0.0228  0.0249 -0.3651
 2164W        W 5908   0.749   0.065   2.318  0.2167 -0.3105  0.2246
 2165W        W 5909   6.603   4.860  10.981 -0.1083  0.3813  0.1225
 2166W        W 5910   2.268   6.468   0.194  0.1493 -0.2350 -0.0428
 2167W        W 5911   1.616   7.590   8.804  0.1783 -0.2334  0.2980
 2168W        W 5912   0.879   0.916   4.056 -0.0024  0.2387  0.2558
 2169W        W 5913   0.170   0.365   2.923 -0.1601  0.0213  0.1501
 2170W        W 5914   5.122   4.527  12.305 -0.0656 -0.2354  0.2292
 2171W        W 5915   3.499   7.658   1.585 -0.2248 -0.0694  0.1211
 2172W        W 5916   4.500   1.281   2.186  0.3109 -0.1494  0.2148
 2173W        W 5917   6.431   2.596  10.542 -0.0309  0.0599  0.2970
 2174W        W 5918   7.669   0.135   9.081 -0.0621  0.2436  0.0104
 2175W        W 5919   2.678   1.030   2.839 -0.2045  0.2198  0.1355
 2176W        W 5920   1.005   1.609   0.077 -0.0675  0.0010 -0.0116
 2177W        W 5921   4.960   2.805  11.739  0.0556 -0.2296  0.0571
 2178W        W 5922   0.445   1.025   2.355  0.2897  0.0148  0.2219
 2179W        W 5923   2.013   5.240  10.717 -0.1959  0.2899 -0.1181
 2180W        W 5924   4.923   7.061  11.464  0.2812  0.1452  0.3251
 2181W        W 5925   4.167   9.295   9.198 -0.0539 -0.0047  0.1588
 2182W        W 5926   2.886  10.117   0.982 -0.2058  0.0407 -0.2973
 2183W        W 5927   0.783   3.232  10.127  0.0717  0.1288  0.2129
 2184W        W 5928   4.912   9.290   8.561 -0.1997 -0.0432  0.0201
 2185W        W 5929   3.353   0.941  10.858  0.0126 -0.0914  0.2492
 2186W        W 5930   9.125   1.499   0.648 -0.0596  0.1048 -0.2531
 2187W        W 5931   1.167   6.570  11.973  0.0798 -0.1662  0.3282
 2188W        W 5932   2.195   4.864   0.892  0.2551  0.0854  0.0833
 2189W        W 5933   2.959   0.083   0.149  0.0006  0.2257  0.2640
 2190W        W 5934   6.061   8.013   1.692  0.2315  0.0484  0.0865
 2191W        W 5935   0.784   4.448  12.290 -0.1222  0.1159 -0.2111
 2192W        W 5936   6.974   9.068   3.882 -0.0017 -0.0630 -0.1433
 2193W        W 5937   9.808   3.554   0.159 -0.1298  0.1143  0.1898
 2194W        W 5938   6.882   6.541   9.574 -0.0139  0.0014 -0.1479
 2195W        W 5939   3.389   8.360   1.480  0.0474  0.1983 -0.2891
 2196W        W 5940   2.078   9.727   4.432 -0.0185 -0.0250  0.3426
 2197W        W 5941   3.531   8.700   4.428 -0.3121  0.3353  0.2511
 2198W        W 5942   3.503   5.014   1.871  0.2017  0.1853 -0.0543
 2199W        W 5943   8.467   6.278  11.943  0.4859 -0.2336  0.2347
 2200W        W 5944   4.133   8.699   4.876 -0.0626 -0.0214  0.1539
 2201W        W 5945   9.155   8.472   9.241  0.1144  0.0700  0.1019
 2202W        W 5946   9.603   8.679   9.087 -0.0825  0.1290  0.1254
 2203W        W 5947   9.229   9.627   0.253 -0.3771 -0.1594 -0.3282
 2204W        W 5948   6.257   7.656   1.411 -0.1646 -0.0075 -0.0418
 2205W        W 5949   2.959   0.622  10.817 -0.2166  0.0264 -0.0182
 2206W        W 5950   6.986   7.670   2.743 -0.1034  0.1121  0.0406
 2207W        W 5951   3.420   6.650   0.124 -0.3310  0.1310  0.0754
 2208W        W 5952   2.686   2.745  11.170  0.0955  0.1951  0.1659
 2209W        W 5953   5.605   7.299   0.890 -0.1266  0.4319  0.1803
 2210W        W 5954   3.265   9.408   9.939  0.1388  0.1223  0.2272
 2211W        W 5955   2.024   9.341   1.864  0.2016 -0.0970 -0.0500
 2212W        W 5956   0.567   5.561   9.896 -0.2998  0.0279 -0.0391
 2213W        W 5957   3.766   0.465   1.374 -0.2615  0.2992  0.2203
 2214W        W 5958   8.612   8.586   2.183  0.2002  0.0917 -0.1045
 2215W        W 5959   4.600   2.064   8.663  0.1272  0.2797 -0.1282
 2216W        W 5960   4.822   4.111   3.948  0.4080 -0.1361 -0.0995
 2217W        W 5961   4.421   2.432   9.888  0.0788  0.3660 -0.1168
 2218W        W 5962   4.147   8.779   1.231 -0.3775 -0.1761 -0.0840
 2219W        W 5963   5.677   1.425  11.513 -0.2410 -0.1377 -0.3897
 2220W        W 5964   4.630  10.091   1.490  0.3325 -0.4155 -0.0519
 2221W        W 5965   8.920   8.750  10.176  0.2229  0.3092 -0.1454
 2222W        W 5966   8.518   2.670   9.730  0.1393  0.0308  0.0193
 2223W        W 5967   6.526   8.038   0.413 -0.1705 -0.4433 -0.0954
 2224W        W 5968   3.965   1.251  12.071  0.1826 -0.0824  0.2256
 2225W        W 5969   0.669   6.691   3.415  0.0129  0.3607 -0.2174
 2226W        W 5970   0.876   1.437  11.095  0.2325 -0.0627 -0.0058
 2227W        W 5971   4.834   1.671   0.235  0.2444 -0.3267 -0.1150
 2228W        W 5972   2.894   9.240  11.476 -0.1604  0.3047  0.2705
 2229W        W 5973   4.919   1.463   4.762 -0.3612 -0.0405  0.2235
 2230W        W 5974   6.681   1.577   8.426 -0.0455  0.2186  0.4910
 2231W        W 5975   3.969   1.438   3.923 -0.0219 -0.1289  0.0181
 2232W        W 5976   3.018   4.920  11.998 -0.0141 -0.2248  0.3047
 2233W        W 5977   9.983   4.927   1.500 -0.0281  0.0731 -0.1976
 2234W        W 5978   1.173   8.351   3.503  0.1464 -0.2185  0.1194
 2235W        W 5979   7.429   7.518   4.133 -0.0816 -0.0869  0.0247
 2236W        W 5980   4.571   2.912   8.549  0.4092  0.2314  0.3509
 2237W        W 5981   5.184   3.145  11.442  0.4627  0.0076  0.3555
 2238W        W 5982   3.090   7.434   0.304  0.1661  0.0492  0.4150
 2239W        W 5983   6.179   6.570   1.824  0.1782  0.1627  0.2039
 2240W        W 5984   3.547   8.903   1.308 -0.0001 -0.1410  0.3527
 2241W        W 5985   8.440   5.442  10.815  0.3124 -0.0258  0.0459
 2242W        W 5986   6.092   9.695  11.873  0.2195 -0.1136  0.3101
 2243W        W 5987   4.781   0.476   4.346  0.0174 -0.1210  0.0495
 2244W        W 5988   9.756   2.453  10.743 -0.1501  0.1406  0.1170
 2245W        W 5989   3.247   2.308   3.753 -0.1329  0.0730 -0.3146
 2246W        W 5990   9.013   4.492   1.490 -0.2097 -0.1517 -0.0423
 2247W        W 5991   6.518   6.056   8.536 -0.3495 -0.0815 -0.3168
 2248W        W 5992   2.737   7.069  11.048 -0.2411  0.2595  0.1880
 2249W        W 5993   3.992   9.027   1.630 -0.1667 -0.3157  0.1538
 2250W        W 5994   5.643   0.966  10.576  0.0357 -0.1054 -0.0000
 2251W        W 5995   4.772   3.936  11.338  0.2898 -0.1864  0.2399
 2252W        W 5996   0.596   5.587   3.925  0.0734  0.1465 -0.0345
 2253W        W 5997   6.620   0.523   8.738  0.1560  0.1748 -0.1857
 2254W        W 5998   8.808   0.111  11.418  0.0214 -0.1647 -0.1453
 2255W        W 5999   3.851   6.606   4.271  0.3742 -0.1283 -0.1066
 2256W        W 6000   7.996   2.463   1.221 -0.0973 -0.3071  0.1656
 2257W        W 6001   5.285   6.104   1.611 -0.1196 -0.2282  0.2307
 2258W        W 6002   3.798   4.465   8.731  0.1610 -0.0021 -0.2549
 2259W        W 6003   4.037   5.480   0.597  0.2959  0.3354 -0.1510
 2260W        W 6004   4.733   2.367  11.582 -0.2397 -0.1470  0.0684
 2261W        W 6005   5.056   1.819   2.821  0.1033 -0.0920 -0.0527
 2262W        W 6006   1.781   6.376   0.874  0.1152 -0.0199  0.0537
 2263W        W 6007   0.877   6.105   0.342  0.1769  0.2911 -0.2910
 2264W        W 6008   9.661   5.725   2.340 -0.2264  0.2166 -0.4389
 2265W        W 6009   0.223   9.272   0.922 -0.0681  0.0686  0.2144
 2266W        W 6010   1.602   3.132   1.800 -0.0351  0.0538  0.0375
 2267W        W 6011   2.087   2.832   1.007  0.0439 -0.2218  0.0790
 2268W        W 6012   1.496   6.452  10.801  0.3275  0.0745  0.2448
 2269W        W 6013   5.884   1.123   8.969 -0.2796  0.0326  0.0841
 2270W        W 6014   2.769   4.070   1.279  0.0890  0.2868  0.2038
 2271W        W 6015   2.562   7.504   0.951  0.1375  0.0136  0.0567
 2272W        W 6016   3.482   7.554   0.592  0.1884  0.1896  0.1691
 2273W        W 6017   0.128   5.472   0.663  0.0983  0.3601 -0.3190
 2274W        W 6018   6.731   5.447   2.308 -0.3615 -0.2778  0.1620
 2275W        W 6019   4.826   2.745   9.940 -0.0754 -0.2142 -0.0040
 2276W        W 6020   3.023   4.175   8.276 -0.1918  0.1130 -0.1947
 2277W        W 6021   6.473   3.561   2.312 -0.0601  0.4180 -0.0982
 2278W        W 6022   1.462   6.186   1.215  0.0706 -0.0560  0.0580
 2279W        W 6023   8.258   4.422   2.994 -0.1490 -0.1471 -0.1487
 2280W        W 6024   7.299   8.632   9.235  0.0970 -0.1650 -0.3010
 2281W        W 6025   8.143   9.021   3.544 -0.3481 -0.2020 -0.2473
 2282W        W 6026   5.206   4.295   3.633 -0.1604 -0.0690 -0.1459
 2283W        W 6027   2.970  10.064   8.269  0.1467 -0.1147 -0.4100
 2284W        W 6028   7.430   6.560   4.142  0.1027  0.3289 -0.0658
 2285W        W 6029   9.611   3.108  10.822  0.0229 -0.2089  0.1479
 2286W        W 6030   1.194   7.404   1.900 -0.1581 -0.0585 -0.2614
 2287W        W 6031   6.419   7.444   0.499 -0.1432  0.1111  0.2731
 2288W        W 6032   1.486   0.368   8.984 -0.1299  0.0586  0.2509
 2289W        W 6033   9.066   2.698   1.493  0.0379 -0.0713  0.0807
 2290W        W 6034   1.130   8.846  10.455 -0.2900  0.0632 -0.3003
 2291W        W 6035   5.354   0.675   1.730 -0.0665  0.0432  0.1038
 2292W        W 6036   1.716   0.814   4.776  0.3904  0.2221 -0.0879
 2293W        W 6037   0.489   2.871   8.975  0.1377  0.2213 -0.0193
 2294W        W 6038   5.338   1.516   3.734  0.4160  0.1515  0.1688
 2295W        W 6039   0.461   9.013  11.029 -0.1157 -0.1537  0.0380
 2296W        W 6040   3.308   9.218  10.525  0.4119  0.2106 -0.0586
 2297W        W 6041   5.087   6.969   0.922 -0.2910 -0.0864 -0.1230
 2298W        W 6042   2.267   6.024  10.221  0.4124 -0.0238 -0.1166
 2299W        W 6043   6.994   0.997  12.010 -0.1101 -0.0238 -0.0125
 2300W        W 6044   4.393   1.209   2.868 -0.0980  0.2588 -0.0188
 2301W        W 6045   1.935   4.697   2.974 -0.2473 -0.2585 -0.0653
 2302W        W 6046   0.385   4.253  11.458 -0.1766  0.3122  0.3895
 2303W        W 6047   6.223  10.008   2.804 -0.1288 -0.0765 -0.0116
 2304W        W 6048   5.100   6.206   3.520  0.1638  0.2946 -0.2303
 2305W        W 6049   4.346   1.282  10.819 -0.0465 -0.1183  0.3368
 2306W        W 6050   5.122   0.277  10.406 -0.2313 -0.2151 -0.0369
 2307W        W 6051   5.761   5.879   0.931  0.1297  0.1471 -0.1060
 2308W        W 6052   3.520   0.924   9.096  0.3773  0.2064  0.2332
 2309W        W 6053   9.598   9.100   2.480  0.0748  0.0660 -0.0372
 2310W        W 6054   8.586   4.543   9.688 -0.0813  0.3824 -0.3182
 2311W        W 6055   6.344   9.233   2.361  0.0426  0.3821 -0.0003
 2312W        W 6056   4.460   6.672   0.418 -0.1963  0.1657 -0.4608
 2313W        W 6057   3.353   2.592  11.426 -0.0246 -0.0149  0.1189
 2314W        W 6058   9.432   8.330   0.891 -0.1945 -0.2688  0.1339
 2315W        W 6059   8.457   7.431   9.309  0.0296 -0.4462  0.0978
 2316W        W 6060   6.859   4.295   2.959 -0.1412 -0.1555  0.0012
 2317W        W 6061   2.789   0.788  10.386  0.1231  0.0448  0.0185
 2318W        W 6062   3.864   3.999  11.508  0.3130  0.1211  0.3489
 2319W        W 6063   3.837   9.505   5.324 -0.1624 -0.2055 -0.0245
 2320W        W 6064   6.428   5.340  11.028 -0.0378 -0.1188 -0.0109
 2321W        W 6065   6.741   8.997   3.378 -0.3349  0.1764 -0.0136
 2322W        W 6066   9.416   6.561   1.592  0.0732  0.0015  0.2014
 2323W        W 6067   3.512   5.833   9.098  0.0096 -0.0852 -0.0350
 2324W        W 6068   9.121   2.144   9.110 -0.0096  0.0666  0.1188
 2325W        W 6069   4.808   6.535   2.705 -0.1159 -0.0080  0.1315
 2326W        W 6070   8.699   0.343   9.061 -0.0602 -0.0855  0.0953
 2327W        W 6071   3.559   2.581   2.393 -0.3533  0.1861 -0.2316
 2328W        W 6072   9.232   9.533  11.258 -0.1658  0.4412  0.3709
 2329W        W 6073   4.796   6.405   3.171 -0.1108 -0.0317  0.1877
 2330W        W 6074   5.748   8.819   4.476  0.2512  0.1226 -0.3631
 2331W        W 6075   7.392   3.067   9.128 -0.0806 -0.1472  0.2415
 2332W        W 6076   0.557   5.692   0.534 -0.1067  0.3822 -0.0264
 2333W        W 6077   4.152   0.166   2.330  0.1588 -0.2084  0.1156
 2334W        W 6078   4.271   7.888   3.825 -0.1391  0.0698 -0.3288
 2335W        W 6079   9.209   0.478   3.599 -0.2849 -0.2060  0.1272
 2336W        W 6080   2.361   6.780  10.958  0.2613  0.1523  0.1082
 2337W        W 6081   4.625   2.396   0.666  0.1247  0.2945  0.2674
 2338W        W 6082   7.814   8.947   1.996 -0.1496 -0.2493 -0.2665
 2339W        W 6083   5.942   0.416  10.726  0.3106  0.0383  0.1821
 2340W        W 6084   7.311   7.870   0.929 -0.2359  0.0557  0.0608
 2341W        W 6085   4.130   4.003  10.702  0.0966  0.0768 -0.1088
 2342W        W 6086   8.101   8.786  11.298 -0.0467 -0.1318  0.0726
 2343W        W 6087   7.407   7.676   1.537 -0.0013 -0.1877  0.1365
 2344W        W 6088   8.512   7.013   0.467 -0.0017 -0.2383 -0.1804
 2345W        W 6089   6.748   9.019  11.492  0.2829 -0.0061  0.1697
 2346W        W 6090   0.186   0.719   0.605  0.1207 -0.3165 -0.2915
 2347W        W 6091   5.302   6.237   2.103  0.2852  0.2039 -0.2109
 2348W        W 6092   3.729   1.963   0.780  0.0140  0.3411 -0.1081
 2349W        W 6093   8.490   9.143   9.347 -0.1017  0.4021 -0.0890
 2350W        W 6094   1.633   8.797   0.030 -0.2865  0.4960  0.0079
 2351W        W 6095   9.449   4.278  11.323 -0.0455  0.0803 -0.0434
 2352W        W 6096   6.025   3.537   0.977 -0.0368  0.0607 -0.0304
 2353W        W 6097   0.808   8.204   3.821  0.2455  0.0168  0.4668
 2354W        W 6098   6.464   0.190  11.901 -0.1089 -0.1383  0.2351
 2355W        W 6099   4.184   1.808   3.640 -0.1226  0.2433 -0.1754
 2356W        W 6100   2.867   8.059  10.508  0.1493  0.0660  0.0853
 2357W        W 6101   1.037   2.613   3.364  0.1705 -0.0255  0.0086
 2358W        W 6102   4.774   2.102  10.665  0.3893 -0.1608  0.1747
 2359W        W 6103   3.271   5.937   3.336 -0.1094 -0.3006 -0.0871
 2360W        W 6104   3.443   4.687  12.088  0.3416 -0.1939 -0.5124
 2361W        W 6105   7.765   1.244  11.050  0.3364 -0.1500 -0.1313
 2362W        W 6106   0.040   4.541   9.745  0.0564  0.0276 -0.2074
 2363W        W 6107   4.881   9.012   4.164  0.0687 -0.0760 -0.0488
 2364W        W 6108   3.691   4.328   9.840  0.4838 -0.2646  0.0203
 2365W        W 6109   3.502   9.728  10.949 -0.1965 -0.1367  0.0307
 2366W        W 6110   4.210   2.885   9.632  0.2477  0.2126 -0.1992
 2367W        W 6111   2.365   4.112  11.714  0.2506  0.0540  0.0600
 2368W        W 6112   4.391   8.346   4.096  0.0235 -0.0967 -0.1683
 2369W        W 6113   6.403   9.990  11.539  0.0210  0.0634  0.1269
 2370W        W 6114   1.084   2.326  11.704  0.0615 -0.1695 -0.2696
 2371W        W 6115   5.590   5.670  10.058  0.0865 -0.1473  0.0799
 2372W        W 6116   8.417   2.576   3.384 -0.4423  0.0845 -0.2268
 2373W        W 6117   0.603   5.781  10.424 -0.1854 -0.0806  0.0050
 2374W        W 6118   8.641   8.396   8.974 -0.0186  0.3068 -0.2349
 2375W        W 6119   8.553   0.264  12.328 -0.2245  0.1646  0.1617
 2376W        W 6120   7.373   6.920  11.868 -0.1746 -0.2356  0.1361
 2377W        W 6121   3.015   9.493  10.839  0.0926 -0.1626 -0.1880
 2378W        W 6122   6.127   8.383  10.283  0.1977  0.0409 -0.1560
 2379W        W 6123   1.505   8.952   3.017 -0.2437 -0.2626  0.3274
 2380W        W 6124   6.056   2.648   3.107  0.1159 -0.1127 -0.0081
 2381W        W 6125   6.467   0.139   3.318  0.0040  0.1182 -0.1061
 2382W        W 6126   7.507   5.782   9.685  0.1314  0.1041  0.2085
 2383W        W 6127   6.777   0.717  11.656  0.0514 -0.1496  0.4266
 2384W        W 6128   3.925   6.246   1.618  0.2150 -0.1871  0.1238
 2385W        W 6129   8.616   9.067   2.253  0.0675 -0.0289 -0.2649
 2386W        W 6130   9.222   2.101  10.067  0.0557  0.0164 -0.2486
 2387W        W 6131   5.323   7.707  10.046 -0.1525 -0.2632  0.1942
 2388W        W 6132   5.943   5.979  10.414  0.0324 -0.2970  0.0371
 2389W        W 6133   8.240   4.880   1.250 -0.2426  0.1369 -0.4540
 2390W        W 6134   8.929   7.001   0.749  0.0142 -0.3589  0.2985
 2391W        W 6135   2.389   9.540   2.179 -0.0548 -0.3675  0.0798
 2392W        W 6136   7.978   6.817  12.282  0.2280 -0.0386  0.0155
 2393W        W 6137   8.875   5.681   2.560 -0.0729 -0.2131 -0.1915
 2394W        W 6138   1.821   2.367   8.475 -0.2932  0.0716  0.2144
 2395W        W 6139   1.294   5.840   1.685  0.2470  0.1704 -0.1475
 2396W        W 6140   8.140   2.075   2.603 -0.1114 -0.1583 -0.6353
 2397W        W 6141  10.084   0.437   1.070  0.1588  0.0499  0.0804
 2398W        W 6142   1.168   8.103   5.141  0.0106  0.4493  0.1459
 2399W        W 6143   5.864   9.628   0.583  0.2776  0.4005 -0.3342
 2400W        W 6144   4.162   8.743  12.131 -0.3668 -0.2332  0.1868
 2401W        W 6145   5.378   8.696   9.198 -0.3948  0.0900  0.2557
 2402W        W 6146   0.104   2.018  11.403  0.4063 -0.1431 -0.3076
 2403W        W 6147   0.171   8.473   2.660 -0.1711 -0.1056 -0.2541
 2404W        W 6148   2.460   7.632   2.111 -0.2801 -0.3605  0.4103
 2405W        W 6149   8.471   6.631   0.719  0.1310  0.6465 -0.0756
 2406W        W 6150   4.342   4.477   3.804  0.2844 -0.0074 -0.0990
 2407W        W 6151   5.194   4.878  10.573 -0.2843 -0.1817  0.0556
 2408W        W 6152   1.596   6.834   3.112 -0.1574 -0.0927 -0.0384
 2409W        W 6153   6.162   4.693  10.742 -0.1069  0.1200  0.0511
 2410W        W 6154   3.452   0.157   2.908 -0.2885 -0.0731  0.4673
 2411W        W 6155   0.203   9.705   4.276 -0.2568  0.0160 -0.1785
 2412W        W 6156   4.374   1.668   0.053 -0.0689  0.1422  0.0046
 2413W        W 6157   5.947   0.742  10.265 -0.1855  0.0221  0.2226
 2414W        W 6158   6.003   0.942  12.320  0.1416 -0.1155 -0.2580
 2415W        W 6159   8.154   8.280  10.636  0.0074 -0.4162 -0.1533
 2416W        W 6160   7.992   2.502  10.622  0.2639  0.0172 -0.1271
 2417W        W 6161   1.013   4.259   1.403 -0.1107  0.1972  0.2149
 2418W        W 6162   0.453   7.893   4.045 -0.0862 -0.1047  0.0612
 2419W        W 6163   3.775   3.790   2.735 -0.1639  0.2011  0.0423
 2420W        W 6164   8.077   8.628   1.430  0.1072  0.0200 -0.3099
 2421W        W 6165   7.781   2.511  12.329 -0.2144  0.0596 -0.3785
 2422W        W 6166   6.727   7.737   1.543  0.1959  0.0600  0.1043
 2423W        W 6167   8.946   5.239  10.345 -0.0905  0.1051  0.0746
 2424W        W 6168   8.364   9.097   3.041  0.0920 -0.0439  0.1387
 2425W        W 6169   4.050   3.016   8.780 -0.0303  0.1095 -0.1627
 2426W        W 6170   5.576   9.200   4.225 -0.2699 -0.3316  0.0814
 2427W        W 6171   0.134   3.220  11.829  0.1122  0.0798 -0.2433
 2428W        W 6172   7.303   7.227   4.539 -0.0650  0.1396 -0.4860
 2429W        W 6173   6.581   1.319   3.143  0.0457 -0.0980  0.1829
 2430W        W 6174   4.294   7.405   3.525 -0.2526 -0.1762  0.1783
 2431W        W 6175   5.134   2.944   9.520  0.0720  0.2911 -0.0671
 2432W        W 6176   9.242   7.067  12.220 -0.1331  0.1172 -0.1520
 2433W        W 6177   5.642   5.155  11.320  0.0947 -0.0755  0.2599
 2434W        W 6178   5.073   3.725   2.521 -0.2297  0.1248 -0.0504
 2435W        W 6179   3.549   3.421  11.836 -0.2899 -0.1198 -0.1959
 2436W        W 6180   9.979   0.440   3.530 -0.1538 -0.0740  0.0110
 2437W        W 6181   8.982   9.782  11.586 -0.1929  0.0627 -0.0366
 2438W        W 6182   4.779   0.877   2.750  0.0188 -0.2478  0.0598
 2439W        W 6183   7.495   6.120  10.018  0.4908 -0.1872  0.0676
 2440W        W 6184   0.844   1.758  10.431 -0.0752  0.1077 -0.3121
 2441W        W 6185   7.529   9.599   3.108  0.0719 -0.0064 -0.0648
 2442W        W 6186   3.701   6.290   0.327 -0.0265  0.2495  0.3011
 2443W        W 6187   8.382   3.300  10.235  0.0981  0.0954 -0.0491
 2444W        W 6188   4.550   2.591   9.376  0.1162 -0.0038  0.2658
 2445W        W 6189   4.973   7.643  11.627  0.1602  0.0862  0.0150
 2446W        W 6190   5.527   4.670  10.247  0.0427 -0.0438  0.1913
 2447W        W 6191   4.957   0.879   5.002 -0.5148 -0.5002  0.2408
 2448W        W 6192   6.740   0.989   2.708 -0.0359 -0.1816  0.3126
 2449W        W 6193   8.856   9.322  10.859 -0.1222 -0.3483  0.2088
 2450W        W 6194   2.649   2.202  12.250 -0.0063 -0.0260  0.0158
 2451W        W 6195   8.102   0.847  12.323  0.0894  0.2819  0.0991
 2452W        W 6196   3.135   7.233  10.683 -0.4375  0.2718 -0.3184
 2453W        W 6197   6.289   7.574   3.856  0.2872 -0.1009  0.0046
 2454W        W 6198   4.255   0.100   4.832  0.2150  0.2369  0.0159
 2455W        W 6199   3.640   6.975  10.004 -0.0503 -0.1108 -0.0503
 2456W        W 6200   0.613   1.821   0.992  0.2165 -0.0694  0.1150
 2457W        W 6201   4.008   1.320   3.433 -0.1680 -0.2373 -0.1015
 2458W        W 6202   4.756   2.124   3.476 -0.2131  0.1489  0.2005
 2459W        W 6203   0.365   0.591   9.518 -0.0791  0.0732 -0.1911
 2460W        W 6204   9.645   2.581  11.905 -0.2397 -0.1378 -0.4493
 2461W        W 6205   2.551   1.419  11.830  0.1252 -0.0253 -0.2455
 2462W        W 6206   2.936   8.307   2.002  0.1843 -0.0219 -0.0319
 2463W        W 6207   2.253   0.780   3.117  0.1443  0.0043  0.1298
 2464W        W 6208   1.482   1.157   9.242 -0.4472  0.1944 -0.1866
 2465W        W 6209   8.725   6.881   4.348  0.3265 -0.2276 -0.2108
 2466W        W 6210   8.235   1.549   0.043 -0.0870  0.1179 -0.4508
 2467W        W 6211   5.775   7.260  11.211  0.1029  0.1275  0.4355
 2468W        W 6212   1.941   8.605  11.991 -0.1361 -0.0590  0.0242
 2469W        W 6213   3.199   2.450   1.818  0.0698 -0.2136 -0.0333
 2470W        W 6214   5.819   1.308   2.935  0.0522  0.2638 -0.2914
 2471W        W 6215   3.323   9.333  11.236 -0.0069 -0.1569  0.2341
 2472W        W 6216   4.500   4.270   9.724  0.1720 -0.0528 -0.2562
 2473W        W 6217   7.171   0.764   8.376 -0.1523  0.2177 -0.1514
 2474W        W 6218   9.641   2.286   2.039 -0.2760 -0.0474  0.0654
 2475W        W 6219   3.847   1.808   8.948  0.0541  0.0445  0.1478
 2476W        W 6220   7.352   4.462   1.952  0.0852  0.5964 -0.1786
 2477W        W 6221   2.864   8.816   2.988 -0.3688 -0.1826  0.1549
 2478W        W 6222   4.831   0.862   0.051 -0.0322  0.2235 -0.0418
 2479W        W 6223   3.679   5.921  11.148  0.1346  0.0489  0.2100
 2480W        W 6224   5.699   9.646   1.160 -0.0015  0.4001  0.0820
 2481W        W 6225   1.153   2.879   1.665  0.1056  0.2218  0.3200
 2482W        W 6226   3.693   3.191   9.713 -0.1119 -0.1775 -0.2070
 2483W        W 6227   0.443   6.886   0.025  0.0777 -0.4100  0.1081
 2484W        W 6228   1.443   5.741  11.796  0.1261 -0.0420 -0.1810
 2485W        W 6229   8.755  10.015   3.093 -0.3223 -0.3597  0.0118
 2486W        W 6230   0.031   2.049   0.074  0.2110  0.0814  0.0090
 2487W        W 6231   2.765   6.524   9.700 -0.2393  0.0756 -0.1205
 2488W        W 6232   1.507   3.716  10.009  0.0882 -0.0644  0.0542
 2489W        W 6233   4.464   9.901   2.403  0.0893 -0.2508  0.1240
 2490W        W 6234   6.433   7.144   4.051  0.2270 -0.1641  0.0271
 2491W        W 6235   8.716   8.324   9.980  0.1487  0.3166  0.1883
 2492W        W 6236   4.530   3.902   0.491  0.2688  0.1397 -0.1854
 2493W        W 6237   0.984   8.119   0.378  0.1788  0.0655 -0.0620
 2494W        W 6238   5.813   2.463  10.541 -0.2634 -0.3315  0.0613
 2495W        W 6239   7.439   5.563  11.344 -0.1412 -0.3611 -0.0032
 2496W        W 6240   8.189   0.706   1.161 -0.1741 -0.0012 -0.0775
 2497W        W 6241   8.129   5.886  11.957 -0.1213  0.4722 -0.1077
 2498W        W 6242   1.679   5.564   1.911  0.2100 -0.2465  0.0327
 2499W        W 6243   3.916   0.378   3.606  0.0089 -0.0641 -0.2913
 2500W        W 6244   1.036   7.375   2.870  0.0743 -0.1140  0.0040
 2501W        W 6245   0.848   6.961   1.478 -0.1014 -0.2251 -0.0754
 2502W        W 6246   4.023   3.008   2.902  0.1331 -0.0192  0.0645
 2503W        W 6247   7.905   1.684  11.787 -0.0512  0.1495  0.1513
 2504W        W 6248   6.031   9.583   4.264 -0.0458  0.2709  0.0555
 2505W        W 6249   8.404   7.646   3.752 -0.1173  0.1606 -0.0684
 2506W        W 6250   1.915   9.794  10.509  0.1108 -0.3638  0.2389
 2507W        W 6251   7.693   3.894   3.320 -0.2504  0.1149  0.0649
 2508W        W 6252   6.553   9.743   2.583 -0.3046  0.1098  0.0725
 2509W        W 6253   7.980   7.401  11.311 -0.0003 -0.0250  0.0284
 2510W        W 6254   8.558   8.115   2.949  0.1872 -0.0443 -0.1154
 2511W        W 6255   9.878   1.465   0.623  0.1679 -0.2328 -0.0577
 2512W        W 6256   2.358   6.144   1.054  0.0478 -0.0405  0.0674
 2513W        W 6257   3.414   1.878  10.124 -0.1293 -0.0304 -0.0888
 2514W        W 6258   8.103   5.013   9.157 -0.0598  0.3125 -0.0790
 2515W        W 6259   7.072   9.654   0.905  0.1030 -0.1889 -0.1550
 2516W        W 6260   3.756   7.849   3.403  0.2335  0.2772  0.1859
 2517W        W 6261   2.089   9.919  11.315  0.0461 -0.1081 -0.1755
 2518W        W 6262   4.094  10.078   3.462 -0.2456  0.0387  0.0270
 2519W        W 6263   0.656   0.417   0.413  0.4856  0.0567  0.1782
 2520W        W 6264   5.700   7.051   4.608 -0.1294  0.0357 -0.2240
 2521W        W 6265   7.800   4.204   1.913 -0.0270 -0.0959 -0.1066
 2522W        W 6266   4.234   1.185   0.810  0.0569  0.0986  0.1979
 2523W        W 6267   9.024   4.582   9.994 -0.1862 -0.1698 -0.2341
 2524W        W 6268   2.562   8.703   9.000 -0.0544  0.0994  0.0330
 2525W        W 6269   1.795   6.170  10.050 -0.0535 -0.4090 -0.1545
 2526W        W 6270   4.648   7.955   4.863 -0.1636 -0.0281  0.2144
 2527W        W 6271   2.796   4.285  11.244  0.1649 -0.2811 -0.2840
 2528W        W 6272   8.271   8.415   0.438 -0.2607 -0.0949  0.1020
 2529W        W 6273   8.744   1.605  11.283 -0.0484 -0.0058 -0.1421
 2530W        W 6274   3.574   1.556  10.529 -0.1907  0.0696  0.1842
 2531W        W 6275   8.045   8.014   1.465 -0.2224 -0.1960 -0.0090
 2532W        W 6276   5.160   0.536   0.314  0.0613  0.1825 -0.0408
 2533W        W 6277   0.829   1.254   3.223 -0.1983  0.0467  0.0115
 2534W        W 6278   4.316   1.325   1.700  0.2998  0.0465  0.0186
 2535W        W 6279   6.543   3.438  10.348  0.1043  0.0008 -0.0624
 2536W        W 6280   9.758   0.785   9.982  0.0908  0.0231 -0.1774
 2537W        W 6281   5.608   8.404   0.552 -0.2526 -0.2392 -0.2895
 2538W        W 6282   7.048   3.412  10.848  0.0744  0.1279  0.0552
 2539W        W 6283   3.218   4.473   9.608 -0.1676 -0.2474 -0.2575
 2540W        W 6284   4.340   4.792  12.183  0.1322  0.4314  0.1394
 2541W        W 6285   3.502   6.615   0.697 -0.0989 -0.2233  0.2530
 2542W        W 6286   7.709   6.229   3.892  0.0983 -0.2370 -0.0210
 2543W        W 6287  10.029   9.900  11.243  0.1276 -0.1817 -0.2331
 2544W        W 6288   4.872   6.671   4.809  0.0403  0.0464 -0.0951
 2545W        W 6289   3.094   2.598  12.128 -0.2756  0.1186  0.2302
 2546W        W 6290   3.508   5.552   3.530 -0.1028 -0.1864  0.4590
 2547W        W 6291   3.668   7.771   2.742 -0.0463  0.0183 -0.1349
 2548W        W 6292   5.225   1.358  10.776 -0.0545  0.2714  0.0420
 2549W        W 6293   0.601   8.289   2.907 -0.4322  0.1627 -0.0259
 2550W        W 6294   5.680   6.877  10.849 -0.1634  0.2615 -0.5420
 2551W        W 6295   1.942   8.394   2.439 -0.1583  0.0648 -0.1455
 2552W        W 6296   0.839   1.884   1.887 -0.1704  0.0063  0.1222
 2553W        W 6297   4.183   8.791   9.571  0.2433  0.1767  0.3827
 2554W        W 6298   5.419   2.192  11.933  0.1119 -0.1113  0.0772
 2555W        W 6299   3.299   1.627   8.242 -0.0437 -0.0210  0.0453
 2556W        W 6300   5.410   7.409   4.395  0.1269  0.0456 -0.1990
 2557W        W 6301   3.110   1.359   9.092 -0.2088  0.1288  0.0732
 2558W        W 6302   5.419   9.158   1.078 -0.1591 -0.3349 -0.2715
 2559W        W 6303   1.394   9.071   1.948  0.0870  0.6033  0.1465
 2560W        W 6304   0.239   1.762   9.382 -0.0327 -0.2511  0.0877
 2561W        W 6305   0.335   7.446   9.270  0.0219  0.0338  0.0283
 2562W        W 6306   1.811   9.161   0.957  0.3857 -0.0288 -0.0020
 2563W        W 6307   2.690   3.530  10.753  0.0996 -0.1030 -0.0886
 2564W        W 6308   2.198   2.305  11.437 -0.0134  0.0901  0.0980
 2565W        W 6309   5.652   0.244   1.575 -0.0251  0.0246 -0.2717
 2566W        W 6310   3.345   7.305   9.639 -0.1026  0.0683 -0.0584
 2567W        W 6311   5.131   7.855   9.243  0.1810 -0.1698  0.0185
 2568W        W 6312   3.993   8.186   2.027  0.1781 -0.1005  0.2354
 2569W        W 6313   5.244  10.016   2.405 -0.0391  0.1301 -0.2544
 2570W        W 6314   9.204   3.686   9.947  0.2735 -0.0834  0.0506
 2571W        W 6315   0.745   7.521   3.280  0.3410  0.0801 -0.1500
 2572W        W 6316   2.034   4.032   0.548 -0.0060 -0.1979  0.1517
 2573W        W 6317   8.190   6.741  10.020  0.0903  0.1736 -0.0634
 2574W        W 6318   5.145   6.802   5.525 -0.2003  0.1753 -0.1325
 2575W        W 6319   5.007   5.524   9.966  0.0976 -0.2558 -0.4066
 2576W        W 6320   6.741   7.896   4.483  0.2331 -0.3244  0.1095
 2577W        W 6321   8.915   8.282   4.753  0.0865  0.0625 -0.0015
 2578W        W 6322   7.348   0.050   3.904 -0.3043 -0.0383  0.0737
 2579W        W 6323   8.683   8.470   8.431 -0.0593  0.2631 -0.0641
 2580W        W 6324   8.434   9.868   1.750  0.0672 -0.1822 -0.2162
 2581W        W 6325   1.023   8.077   0.886 -0.0216 -0.0663 -0.2208
 2582W        W 6326   9.107   6.249   1.951 -0.1639 -0.2041 -0.2385
 2583W        W 6327   8.134   1.337   1.881 -0.1824  0.3184 -0.0373
 2584W        W 6328   2.249   7.535   0.189  0.1094  0.0342 -0.3305
 2585W        W 6329   3.761   6.343   9.681 -0.3582 -0.0421  0.3256
 2586W        W 6330   7.294   9.481   0.439  0.0382  0.4957  0.0328
 2587W        W 6331   6.773   6.711  11.714  0.0886 -0.0795  0.0595
 2588W        W 6332   9.612   9.733  12.095 -0.0927 -0.2527 -0.0397
 2589W        W 6333   4.424   0.804   3.145  0.2507  0.0744  0.4623
 2590W        W 6334   6.758  10.115   2.951  0.0072  0.2942  0.1193
 2591W        W 6335   9.213   8.524   9.832 -0.1838  0.1035 -0.0267
 2592W        W 6336   9.147   3.515   2.916 -0.0595  0.1484 -0.1573
 2593W        W 6337   4.704   8.972  12.314 -0.2429 -0.3743  0.0328
 2594W        W 6338   0.460   1.431   2.881  0.0318  0.1097 -0.0728
 2595W        W 6339   6.976   2.760   8.321  0.0780 -0.2596 -0.1795
 2596W        W 6340   1.837   3.822   3.352  0.0264 -0.1430  0.0984
 2597W        W 6341   2.497   5.380   8.676  0.1264 -0.1046 -0.0921
 2598W        W 6342   5.112   6.450  12.205  0.0322 -0.3344 -0.1861
 2599W        W 6343   2.279   3.412  11.574  0.0696  0.0815  0.1860
 2600W        W 6344   0.746   2.386  12.171  0.2128 -0.1511  0.0388
 2601W        W 6345   7.725   7.040   0.295  0.0070 -0.0214 -0.0262
 2602W        W 6346   0.270   4.895   9.436 -0.0010  0.0386 -0.0356
 2603W        W 6347   0.690   9.527   1.203  0.1081  0.2086  0.3720
 2604W        W 6348   8.088   3.605   3.542  0.0874  0.5151 -0.1150
 2605W        W 6349   1.851   2.867  10.314  0.0484 -0.0060  0.4314
 2606W        W 6350   7.313   5.094  12.067  0.0381  0.1157 -0.1834
 2607W        W 6351   1.806   1.979  11.472  0.5588  0.0450 -0.0426
 2608W        W 6352   0.690   6.864   1.954  0.1765  0.0842  0.0449
 2609W        W 6353   2.020   6.326  11.713 -0.2551 -0.0004 -0.0383
 2610W        W 6354   1.063   3.895   8.071 -0.1245  0.0911  0.0120
 2611W        W 6355   9.245   4.231  12.343 -0.0039  0.0336 -0.1216
 2612W        W 6356   3.437   3.468   3.548 -0.0232 -0.2207  0.0690
 2613W        W 6357   9.893   7.085   2.384 -0.1779  0.2748 -0.0196
 2614W        W 6358   5.459   1.592   2.654 -0.3435  0.0576  0.1792
 2615W        W 6359   9.987   9.435   4.517 -0.2219 -0.0206 -0.0793
 2616W        W 6360   6.512   7.648   3.001  0.0217  0.1225  0.5044
 2617W        W 6361   7.400   0.393   0.980 -0.0033  0.2247 -0.1557
 2618W        W 6362   9.359   9.654  10.129 -0.1383  0.0517 -0.2454
 2619W        W 6363   4.292   6.571   3.153 -0.3423  0.0465 -0.1202
 2620W        W 6364   9.907   7.271   0.663  0.1077 -0.0173  0.1152
 2621W        W 6365   3.807   6.608   3.309  0.1318  0.4071 -0.3059
 2622W        W 6366   9.513   3.681  10.608  0.0995 -0.0632  0.2009
 2623W        W 6367   2.909   8.676   3.785  0.1301  0.1639  0.0758
 2624W        W 6368   9.485   4.192   1.335  0.2162 -0.0625 -0.0521
 2625W        W 6369   7.689   7.061   8.896  0.1350 -0.1030 -0.2199
 2626W        W 6370   7.600   9.622   5.200 -0.1551 -0.1686 -0.2210
 2627W        W 6371   7.362   9.221  11.509 -0.0704  0.0191 -0.1351
 2628W        W 6372   2.830   5.396  10.610  0.0936  0.0116  0.3985
 2629W        W 6373   1.595   4.517   8.066  0.1117  0.2595  0.3327
 2630W        W 6374   2.916   1.191  10.593 -0.1192  0.2267  0.1170
 2631W        W 6375   4.614   0.554   9.571  0.0700  0.2535  0.2512
 2632W        W 6376   8.781   0.063   1.565 -0.0100 -0.1403 -0.0306
 2633W        W 6377   0.940   4.564   8.622 -0.1175  0.4126 -0.3056
 2634W        W 6378   8.711   6.203   2.840 -0.0503 -0.1142 -0.0877
 2635W        W 6379   7.039   8.540   1.544 -0.1471 -0.0891 -0.2710
 2636W        W 6380   5.165   0.370   2.265 -0.1349 -0.1220  0.1692
 2637W        W 6381   3.202   5.779  10.666 -0.0743  0.3041  0.5007
 2638W        W 6382   3.692   1.237   2.437  0.0055 -0.0454 -0.0342
 2639W        W 6383   0.849   9.808   9.160 -0.1867  0.0450 -0.2241
 2640W        W 6384   0.455   2.433   2.964  0.0658 -0.1423  0.0143
 2641W        W 6385   7.780   2.709   1.694  0.1658 -0.0135 -0.1509
 2642W        W 6386   0.336   8.495   0.166 -0.1502 -0.1027  0.0800
 2643W        W 6387   4.328   6.242   3.509 -0.0841  0.4156  0.0870
 2644W        W 6388   9.441   6.747  11.693 -0.0452 -0.5573  0.0304
 2645W        W 6389   5.356   8.198   8.921 -0.2316 -0.0326  0.1124
 2646W        W 6390   9.268   0.192  11.135 -0.2978 -0.0932 -0.0387
 2647W        W 6391   2.852   8.128  11.881  0.2088 -0.3004  0.4273
 2648W        W 6392   8.610   9.765  11.198 -0.1743 -0.0937  0.0236
 2649W        W 6393   9.104   8.016   1.267  0.2520 -0.1819  0.0125
 2650W        W 6394   0.373   1.834  10.689  0.0064  0.2351 -0.1088
 2651W        W 6395   2.029   7.608   1.610 -0.2044 -0.0278 -0.0934
 2652W        W 6396   4.160   6.559   3.898 -0.2356 -0.0700  0.1955
 2653W        W 6397   7.834   1.638   2.715  0.1368  0.0250 -0.0923
 2654W        W 6398   7.247   5.191  10.290 -0.1653  0.1569  0.2551
 2655W        W 6399   6.188   3.169   2.045  0.0141  0.0999  0.2791
 2656W        W 6400   7.861   8.175   3.769  0.3186  0.0927  0.1842
 2657W        W 6401   2.453   4.313   9.069  0.1930  0.0638  0.2580
 2658W        W 6402   9.298   1.160   2.974 -0.5269 -0.1163  0.0307
 2659W        W 6403   6.291   5.269  10.023  0.1322  0.0723  0.1728
 2660W        W 6404   7.292   2.393  11.574  0.1065 -0.1095  0.0660
 2661W        W 6405   7.680   0.935  10.213  0.1820  0.2005  0.0264
 2662W        W 6406   5.704  10.044   5.121 -0.0721 -0.1478  0.0012
 2663W        W 6407   6.377   6.175  10.582  0.2413  0.0144  0.0121
 2664W        W 6408   9.984   9.521   0.665  0.3593  0.1451  0.3752
 2665W        W 6409   9.532   7.161  11.445 -0.1053 -0.0557  0.1342
 2666W        W 6410   2.577   2.213  10.322  0.2077  0.0637  0.2306
 2667W        W 6411   6.809   1.967   0.966 -0.1819  0.0854  0.0322
 2668W        W 6412   9.484   4.829  10.228  0.0677 -0.1398 -0.1664
 2669W        W 6413   2.237   8.584  10.457  0.0045 -0.0340 -0.0657
 2670W        W 6414   3.742   5.267   0.228  0.1203  0.1243 -0.0271
 2671W        W 6415   1.941   5.843  11.818  0.1016  0.1037  0.3613
 2672W        W 6416   9.502   3.979   0.836 -0.1865  0.2698 -0.0989
 2673W        W 6417   4.775   8.279  10.679  0.0259 -0.1673 -0.2626
 2674W        W 6418   4.345   3.263   2.059 -0.3303 -0.0703  0.0037
 2675W        W 6419   8.191   6.211   0.549 -0.0336  0.1172  0.0871
 2676W        W 6420   3.992   5.204   1.016 -0.0720 -0.0003 -0.1127
 2677W        W 6421   7.896   8.514   2.534  0.1366  0.0230 -0.2856
 2678W        W 6422   5.474   5.092   1.580  0.4114 -0.2361 -0.1951
 2679W        W 6423   8.305   8.533   2.854  0.1748 -0.3560 -0.0654
 2680W        W 6424   4.234   5.449   1.462  0.2202  0.2332  0.0885
 2681W        W 6425   4.425   2.857   1.404  0.0222  0.3552  0.3096
 2682W        W 6426   2.910   2.544  11.620  0.0008  0.1089  0.1014
 2683W        W 6427   3.646   6.726   8.443  0.0877 -0.0395 -0.0118
 2684W        W 6428   9.687   1.233  12.103 -0.2025  0.0926  0.1292
 2685W        W 6429   9.523   0.443  10.281  0.0489 -0.2418 -0.0923
 2686W        W 6430   8.738   1.884   3.200  0.0493  0.0443  0.3147
 2687W        W 6431   7.791   5.227   2.932  0.0950 -0.2455 -0.2940
 2688W        W 6432   4.234   6.683  12.003 -0.0180  0.0530 -0.1045
 2689W        W 6433   0.002   5.742   2.377  0.2230 -0.0193  0.0652
 2690W        W 6434   3.082   9.510   1.735 -0.1650  0.4107 -0.0537
 2691W        W 6435   3.521   1.163   4.147  0.0248  0.0382  0.2690
 2692W        W 6436   3.818   3.282   0.763 -0.0338 -0.1109 -0.6205
 2693W        W 6437   7.177   6.978  10.747 -0.1780  0.2097 -0.1202
 2694W        W 6438   7.783   4.175  11.595  0.0896  0.0332  0.0256
 2695W        W 6439   9.737   9.663   2.511 -0.1165  0.0061  0.3609
 2696W        W 6440   4.880   0.561  10.965  0.0926  0.0225 -0.2193
 2697W        W 6441   2.281   9.453   1.479  0.0887 -0.4434  0.0476
 2698W        W 6442   6.180   5.458   3.195 -0.2635  0.0509  0.1641
 2699W        W 6443   7.233   0.719   1.347 -0.0343  0.2741 -0.0484
 2700W        W 6444   9.267   6.593   9.284 -0.2092  0.0364 -0.2269
 2701W        W 6445   1.267   4.173  11.249  0.0284  0.1760  0.0254
 2702W        W 6446   4.151   4.608   4.605  0.0461  0.1888 -0.1447
 2703W        W 6447   6.746   3.812   2.954  0.0564  0.2763 -0.0253
 2704W        W 6448   6.353   6.675   1.364  0.0622 -0.0464  0.3833
 2705W        W 6449   3.760   7.093  10.739 -0.4498  0.1483 -0.0578
 2706W        W 6450   3.156   3.918   1.490  0.2269 -0.2045 -0.5143
 2707W        W 6451   9.459   1.784   8.823  0.0298  0.0974  0.2978
 2708W        W 6452   2.460   1.382   2.118 -0.2446 -0.0677 -0.0595
 2709W        W 6453   3.394   7.110   1.540 -0.2411 -0.1016  0.2722
 2710W        W 6454   4.200   8.017   8.995 -0.0022 -0.1532  0.1885
 2711W        W 6455   2.204   1.412  12.244 -0.4137  0.1066  0.0521
 2712W        W 6456   3.067   4.216   3.717  0.1276  0.2848  0.0420
 2713W        W 6457   7.244   0.030  11.153 -0.2247 -0.0287  0.1280
 2714W        W 6458   0.972   9.975  12.041 -0.3533  0.2561  0.1505
 2715W        W 6459   6.527   2.407   0.723 -0.0965  0.1032 -0.3372
 2716W        W 6460   2.178   2.342   1.971  0.0922  0.0317  0.0709
 2717W        W 6461   9.855   2.028   3.025  0.0095 -0.0961  0.0331
 2718W        W 6462   0.693   2.248  10.566 -0.0377 -0.3104 -0.3885
 2719W        W 6463   9.224   9.696   8.882  0.2605 -0.2064  0.1648
 2720W        W 6464   9.421   8.076   1.654  0.2473 -0.1485 -0.1880
 2721W        W 6465   9.990   6.594   9.554  0.1987 -0.2153  0.0618
 2722W        W 6466   1.511   6.022   3.782  0.2535  0.0079 -0.3616
 2723W        W 6467   4.624   5.483   9.073  0.4184  0.1148  0.3086
 2724W        W 6468   9.354   5.401  11.352  0.1200  0.3173 -0.1360
 2725W        W 6469   7.941   7.833   9.241  0.0903 -0.0444 -0.0798
 2726W        W 6470   1.666   6.750   1.446  0.2155  0.1456  0.2670
 2727W        W 6471   2.660   6.728   1.589  0.1249  0.0696  0.2109
 2728W        W 6472   3.947   3.289  11.516 -0.4862 -0.0053 -0.2742
 2729W        W 6473   7.317   2.913   2.830 -0.6214 -0.0429 -0.2968
 2730W        W 6474   2.232   6.556   0.860  0.1414  0.0706  0.2081
 2731W        W 6475   6.104   7.134   3.604 -0.2204 -0.0959 -0.0979
 2732W        W 6476   9.209   1.550   2.703  0.0900 -0.3042  0.0992
 2733W        W 6477   1.578   1.712   0.648  0.2940  0.0487 -0.1333
 2734W        W 6478   6.882   1.791   2.321  0.5305 -0.1518  0.0559
 2735W        W 6479   9.722   3.953  10.955 -0.1054  0.1203 -0.1791
 2736W        W 6480   4.169   0.164  10.847 -0.1762 -0.0339 -0.1286
 2737W        W 6481   6.549   1.531  10.391 -0.2841 -0.0479 -0.1560
 2738W        W 6482   2.203   1.142   3.541  0.0645 -0.0470  0.1226
 2739W        W 6483   9.325   2.863   2.948  0.2478  0.4454 -0.0659
 2740W        W 6484   8.478   9.721   9.540  0.1555 -0.0264 -0.0311
 2741W        W 6485   4.410   8.316   3.589  0.0245 -0.1354 -0.1358
 2742W        W 6486   7.927   0.498   2.151 -0.1808  0.1032  0.0551
 2743W        W 6487   1.361   9.808  12.328  0.0196  0.2527 -0.0280
 2744W        W 6488  10.119   8.939   4.522  0.0524 -0.1199  0.1407
 2745W        W 6489   4.713   4.822   0.221 -0.3829  0.0124 -0.1749
 2746W        W 6490   9.387   8.130   3.986  0.1079 -0.0683 -0.1466
 2747W        W 6491   4.828   4.136   1.409 -0.0167 -0.0536  0.2593
 2748W        W 6492   3.044   7.136   2.904 -0.1416 -0.2093  0.1079
 2749W        W 6493   2.078   8.605   0.232  0.1305 -0.0979  0.1403
 2750W        W 6494   5.771   3.200   3.920 -0.1218  0.1626 -0.0279
 2751W        W 6495   4.256   8.388  10.754  0.2679 -0.3193 -0.0142
 2752W        W 6496   6.984   8.162   0.520 -0.1950 -0.0706 -0.2648
 2753W        W 6497   3.933   9.805   0.930  0.2034 -0.1710  0.0670
 2754W        W 6498   6.938   8.078  10.683 -0.3555  0.0740  0.4239
 2755W        W 6499   4.755   3.399   0.757 -0.1679 -0.4020 -0.0221
 2756W        W 6500   2.462   9.352   9.936 -0.1362 -0.1961 -0.0759
 2757W        W 6501   3.965   5.691   3.377  0.3527 -0.2960  0.1413
 2758W        W 6502   0.860   7.857   2.646  0.1331  0.0499  0.2659
 2759W        W 6503   1.226   0.946   3.408  0.1212 -0.0384  0.1130
 2760W        W 6504   4.677   7.841  11.171  0.1686  0.3376 -0.1574
 2761W        W 6505   7.848   1.301  12.281  0.0360 -0.2443 -0.3573
 2762W        W 6506   4.871   8.743   0.783 -0.1056 -0.1230 -0.1451
 2763W        W 6507   5.168   4.592   0.537 -0.2846 -0.0782 -0.0723
 2764W        W 6508   3.457   8.285  12.314  0.1301  0.0196  0.0370
 2765W        W 6509   4.852   5.023   9.635 -0.1174  0.0043 -0.1287
 2766W        W 6510   5.320   9.674   2.928 -0.0314  0.3271 -0.0055
 2767W        W 6511   5.153   8.223   0.575 -0.1098  0.1428 -0.1141
 2768W        W 6512   7.320   1.202   1.306  0.3501 -0.1741 -0.3651
 2769W        W 6513   0.151   7.121  12.054 -0.0767  0.4229  0.1496
 2770W        W 6514   9.010   7.507  12.178  0.0124  0.2858  0.1977
 2771W        W 6515   7.505   1.671   0.284  0.0741  0.0551  0.1379
 2772W        W 6516   8.671   1.373  12.217 -0.0703  0.3138 -0.0890
 2773W        W 6517   3.382   7.985  11.871 -0.1397 -0.2715 -0.1534
 2774W        W 6518   9.266   1.231  10.879 -0.0300 -0.1677 -0.0495
 2775W        W 6519   2.880   6.319  11.638 -0.1563  0.0873 -0.2293
 2776W        W 6520   3.175   8.503  11.921  0.1948 -0.0023  0.1219
 2777W        W 6521   2.061   4.570   1.797 -0.1739  0.1649 -0.0590
 2778W        W 6522   7.771   9.976   2.906 -0.0462  0.0385 -0.1405
 2779W        W 6523   4.869   1.147   9.664 -0.0672  0.0309 -0.1849
 2780W        W 6524   6.860   0.953   0.479 -0.1577  0.1202 -0.2793
 2781W        W 6525   2.291   4.386  11.252 -0.1969 -0.0325 -0.3077
 2782W        W 6526   2.371   7.237   1.303 -0.0849 -0.3604 -0.2278
 2783W        W 6527   7.329   3.770  12.059  0.1164 -0.1150 -0.0985
 2784W        W 6528   2.339   5.030   0.357 -0.1744 -0.1539  0.0903
 2785W        W 6529   9.105   3.662   4.470  0.0302 -0.1694  0.1478
 2786W        W 6530   9.976   7.607   2.195  0.0041  0.2392 -0.1192
 2787W        W 6531   3.227   9.823   1.359 -0.2366 -0.0168  0.2655
 2788W        W 6532   7.600   9.905   0.284 -0.0478  0.1193 -0.0471
 2789W        W 6533   3.288   8.745   0.026  0.1246 -0.2059  0.0247
 2790W        W 6534   7.037   9.938   8.856 -0.3204  0.1767 -0.2311
 2791W        W 6535   6.429   6.576   9.855 -0.1684  0.3002 -0.0872
 2792W        W 6536   9.831   9.637   0.194 -0.0080 -0.1478 -0.1357
 2793W        W 6537   4.529   7.980   2.598  0.2503 -0.2994 -0.1430
 2794W        W 6538   9.190   1.416  12.226 -0.0436  0.2089  0.0258
 2795W        W 6539   2.114   7.944   2.309 -0.5010  0.1488 -0.1379
 2796W        W 6540   2.555   9.882   4.578 -0.1700  0.1847  0.3464
 2797W        W 6541   2.228   8.176  11.971 -0.2016 -0.1572 -0.1270
 2798W        W 6542   2.442   4.153   0.260  0.0629 -0.1974 -0.1953
 2799W        W 6543   2.931   5.563  11.103  0.1462  0.1794  0.2905
 2800W        W 6544   1.069   8.138   2.958 -0.0396 -0.2155 -0.3131
 2801W        W 6545   5.380   3.880   9.195 -0.1764 -0.0249 -0.1751
 2802W        W 6546   1.903   0.380   9.340  0.1603  0.0786 -0.1132
 2803W        W 6547   0.425   5.804   3.257 -0.0896  0.1103 -0.1046
 2804W        W 6548   5.017   9.918   3.712  0.4011 -0.1648  0.0914
 2805W        W 6549   6.021   7.179   0.648  0.0239 -0.1106 -0.1758
 2806W        W 6550   1.651   2.933   1.372  0.1515  0.3252 -0.2039
 2807W        W 6551   9.360   2.190   3.088  0.2170  0.2572  0.4357
 2808W        W 6552   0.898   5.501   1.374  0.0350 -0.0701  0.0037
 2809W        W 6553   6.391   9.806   0.185 -0.0985 -0.0580  0.2532
 2810W        W 6554   3.160   6.772   9.305  0.1033  0.0059  0.2295
 2811W        W 6555   0.113   2.201   3.361 -0.2030  0.2950 -0.0893
 2812W        W 6556   0.336   3.533  10.961  0.3548 -0.1192  0.1364
 2813W        W 6557   9.568   3.518   1.227  0.0433 -0.2901  0.0587
 2814W        W 6558   4.036   3.692  11.839 -0.0822 -0.1945 -0.0602
 2815W        W 6559   4.742   3.281  11.750  0.0094  0.2061 -0.0017
 2816W        W 6560   2.898   9.427  10.321 -0.1134  0.0685  0.0399
 2817W        W 6561   9.649   8.279   2.640 -0.0604 -0.2000 -0.2977
 2818W        W 6562   8.719   4.303   2.898 -0.1205 -0.1960  0.2244
 2819W        W 6563   8.810   1.872   9.805 -0.0306  0.1784 -0.2997
 2820W        W 6564   1.283   4.272   0.167  0.0122 -0.1642 -0.1512
 2821W        W 6565   4.986   5.251   4.785 -0.1440  0.1259 -0.1841
 2822W        W 6566   4.825   0.072   2.765  0.0982 -0.1415  0.0581
 2823W        W 6567   6.350   9.332  11.169  0.1907 -0.2285  0.1392
 2824W        W 6568   6.702   1.207  10.866 -0.3524 -0.3077  0.0888
 2825W        W 6569   4.354   5.771  11.618 -0.1363  0.0169 -0.2213
 2826W        W 6570   0.458   0.890  10.361 -0.3439 -0.0078 -0.0551
 2827W        W 6571   9.157   7.428   2.580  0.1185  0.1117  0.0131
 2828W        W 6572   0.711   5.192   8.674 -0.2068  0.0267 -0.0577
 2829W        W 6573   5.477   4.526  11.484 -0.1432 -0.0679  0.3772
 2830W        W 6574   3.208   4.670   2.866 -0.2195  0.4060 -0.1691
 2831W        W 6575   8.889   6.750  10.935  0.0671  0.1792 -0.0190
 2832W        W 6576   7.559   1.514   3.587 -0.0896 -0.0730 -0.2199
 2833W        W 6577   3.716   2.853  12.337  0.2051 -0.3348  0.0343
 2834W        W 6578   3.395   1.218   8.685  0.0514  0.2088  0.1470
 2835W        W 6579   9.730   3.961  11.612 -0.3437 -0.0787 -0.2198
 2836W        W 6580   1.224   0.625  11.422  0.1167 -0.2755 -0.0048
 2837W        W 6581   9.698   6.785  11.185  0.0048 -0.0788  0.1085
 2838W        W 6582   3.286   2.530   0.865  0.0559  0.2259  0.0341
 2839W        W 6583   3.070   2.988  11.699  0.2259  0.0405 -0.0546
 2840W        W 6584   7.676   7.346   2.400 -0.0058 -0.0014 -0.2530
 2841W        W 6585   4.275   7.103   3.087 -0.0431 -0.1932  0.3514
 2842W        W 6586   9.899   9.292   2.161  0.0422 -0.0974  0.0850
 2843W        W 6587   5.941   5.418   4.545 -0.1886  0.2911 -0.0167
 2844W        W 6588   8.260   1.276  10.913 -0.0321 -0.1858  0.1043
 2845W        W 6589   1.237   3.548   0.911 -0.4661  0.1107 -0.2236
 2846W        W 6590   4.187   4.559  11.319  0.1154 -0.0116  0.0110
 2847W        W 6591   1.074   2.349   9.037 -0.0202 -0.2432 -0.0864
 2848W        W 6592   0.405   4.210   0.054  0.4462  0.1579 -0.1713
 2849W        W 6593   1.367   4.403   9.231  0.0184  0.1105  0.1977
 2850W        W 6594   8.780   4.717   1.151  0.1063  0.0370  0.0857
 2851W        W 6595   0.505   3.338  11.501 -0.0181 -0.0644 -0.2309
 2852W        W 6596   5.741   3.545   0.061 -0.1253 -0.2435 -0.1410
 2853W        W 6597   2.787   3.729  11.263 -0.2619 -0.1404 -0.2406
 2854W        W 6598   0.414   1.008   3.917 -0.0812 -0.0232  0.2793
 2855W        W 6599   9.258   5.225   9.955 -0.0306 -0.1673 -0.2192
 2856W        W 6600   9.124   6.474   2.508 -0.0990 -0.0747  0.7272
 2857W        W 6601   5.074   4.517  11.782  0.1536  0.2085  0.4201
 2858W        W 6602   8.066   6.039   4.164  0.0374  0.2179  0.0981
 2859W        W 6603   4.517   6.991  11.118  0.3013  0.2103 -0.1929
 2860W        W 6604   3.049   0.340  12.056 -0.2245 -0.0545  0.0991
 2861W        W 6605   9.513   0.228   9.764 -0.1263 -0.1086 -0.3427
 2862W        W 6606   5.073   6.869   3.823  0.1073 -0.0638  0.2334
 2863W        W 6607   6.703   5.350   0.213 -0.4414  0.2938  0.0237
 2864W        W 6608   4.175   3.716   4.523  0.2158 -0.1088 -0.2644
 2865W        W 6609   0.131   4.908   3.397 -0.0823  0.1250 -0.0819
 2866W        W 6610   4.685   3.499   9.156 -0.0604 -0.1199 -0.1597
 2867W        W 6611   8.241   4.517   2.037 -0.3188  0.2673  0.0787
 2868W        W 6612   8.825   9.692   3.959 -0.1030  0.4128 -0.0979
 2869W        W 6613   8.683   5.721   1.509 -0.0545  0.0504  0.1336
 2870W        W 6614   0.834   6.177   9.653 -0.0496  0.1147 -0.0498
 2871W        W 6615   9.820   8.221   3.767 -0.1403 -0.0193  0.1411
 2872W        W 6616   8.527   2.585   1.437 -0.1387 -0.0386  0.1970
 2873W        W 6617   8.616   0.432   1.306 -0.0576  0.2236 -0.1107
 2874W        W 6618   1.190   4.799   1.676 -0.1174 -0.1658 -0.0059
 2875W        W 6619   3.484   8.792  11.535  0.0484 -0.1608 -0.1210
 2876W        W 6620   5.454   0.522  10.769 -0.2662 -0.2138  0.1778
 2877W        W 6621   3.741   4.701   2.998  0.2669 -0.0412 -0.2714
 2878W        W 6622   6.360   8.164   1.270 -0.1168  0.1469 -0.0373
 2879W        W 6623   6.346   3.878  10.140  0.1606  0.0314 -0.0198
 2880W        W 6624   0.200   9.139   1.960  0.2382 -0.2204 -0.0870
 2881W        W 6625   7.094   9.708   3.871  0.1219  0.3641 -0.2382
 2882W        W 6626   1.589   4.212   3.580 -0.0479 -0.2144 -0.1547
 2883W        W 6627   7.264   7.602   5.270  0.2184 -0.4182 -0.3570
 2884W        W 6628   9.250   4.768  12.371 -0.0435  0.0248 -0.2773
 2885W        W 6629   9.686   9.957  10.372 -0.2773 -0.1495 -0.4091
 2886W        W 6630  10.106   9.010  11.755  0.4305  0.2161 -0.1477
 2887W        W 6631   0.114   4.035   1.884  0.0727  0.2336 -0.2493
 2888W        W 6632   0.149   5.946  10.289  0.0353 -0.1429 -0.3575
 2889W        W 6633   5.177   1.882   1.244  0.0984 -0.4342 -0.1270
 2890W        W 6634  10.119   9.253  10.796  0.0710 -0.1382  0.2313
 2891W        W 6635   3.448   3.543   9.231  0.1660 -0.0774  0.1047
 2892W        W 6636   7.855   0.520   0.769 -0.2575  0.0114 -0.1756
 2893W        W 6637   7.583   2.170   0.576 -0.1867 -0.2736 -0.0865
 2894W        W 6638   0.103   3.779   2.326 -0.2542  0.0099 -0.2679
 2895W        W 6639   0.974   6.329  10.659  0.2406  0.1253  0.0688
 2896W        W 6640   5.052   5.524   9.390  0.1377  0.0541 -0.1656
 2897W        W 6641   7.039   1.393  11.725 -0.0595 -0.4590  0.0895
 2898W        W 6642   1.058   3.673   1.865  0.1014  0.3251  0.1166
 2899W        W 6643   4.081   5.664   2.663 -0.0735 -0.2010  0.0604
 2900W        W 6644   6.119   5.309   0.324 -0.1885  0.1431  0.0998
 2901W        W 6645   9.178   8.706   2.330 -0.1035 -0.0537 -0.0656
 2902W        W 6646   1.297   1.624   9.205 -0.2539  0.0894 -0.1702
 2903W        W 6647   3.958   3.311  12.309 -0.3274  0.2308 -0.0830
 2904W        W 6648   0.032  10.091   8.622  0.0371  0.1378 -0.0872
 2905W        W 6649   3.695   4.430  11.395 -0.1508 -0.0351 -0.0260
 2906W        W 6650   1.661   8.232   9.714  0.0782 -0.2043  0.1109
 2907W        W 6651  10.101  10.093   1.670 -0.0959  0.2486 -0.1943
 2908W        W 6652   5.277   0.671   4.215  0.1168  0.2594 -0.1012
 2909W        W 6653   4.032   7.513   3.085 -0.0517 -0.2049  0.1204
 2910W        W 6654   1.917   2.036   1.541  0.2523 -0.2588 -0.2499
 2911W        W 6655   0.589   9.758   0.042 -0.1371  0.0001  0.1768
 2912W        W 6656   3.377   8.732   3.930  0.2165  0.1379  0.1911
 2913W        W 6657   3.618   2.708   1.948  0.0230  0.0879  0.1435
 2914W        W 6658   1.165   2.128  10.473 -0.2250 -0.0548 -0.1941
 2915W        W 6659  10.049   7.556   1.146  0.2934 -0.0075  0.1127
 2916W        W 6660   1.498   1.933   1.223  0.2877 -0.0744  0.0840
 2917W        W 6661   6.661   1.978   9.344  0.0609  0.3244 -0.2156
 2918W        W 6662   8.055   3.675  11.504  0.2295 -0.0389 -0.1472
 2919W        W 6663   8.177   0.883  10.135 -0.0541  0.0256 -0.3028
 2920W        W 6664   9.431   6.322   2.966  0.0057  0.2271  0.0295
 2921W        W 6665   3.433   5.123   2.735  0.3867 -0.2181 -0.1371
 2922W        W 6666   8.727   4.037   8.885 -0.0263  0.1836  0.0410
 2923W        W 6667   5.705   3.072  11.715  0.2814 -0.3998  0.3423
 2924W        W 6668   8.124   7.187   1.764 -0.1213 -0.0080  0.2327
 2925W        W 6669   7.534   2.804  11.347  0.2426  0.0840 -0.1580
 2926W        W 6670   3.582   1.158   3.277 -0.2171 -0.1188 -0.1392
 2927W        W 6671   2.218   7.862   9.476  0.0047 -0.0386 -0.0069
 2928W        W 6672   7.795   0.978   2.062 -0.0785 -0.2365  0.0441
 2929W        W 6673   6.750   8.703   0.396 -0.0244  0.0148  0.1342
 2930W        W 6674   7.155   9.333   3.471  0.0927  0.3065  0.5368
 2931W        W 6675   2.491   8.894   9.466 -0.1892  0.0186 -0.0626
 2932W        W 6676   6.569   4.824   1.671 -0.1782 -0.0522 -0.0495
 2933W        W 6677   6.256   5.020   8.376 -0.3136 -0.1451  0.1752
 2934W        W 6678   7.208   3.676   9.927 -0.4032  0.0537  0.0745
 2935W        W 6679   8.397   1.760  11.025  0.1545  0.2316 -0.1881
 2936W        W 6680   8.836   9.218  12.080 -0.0200 -0.0221  0.0900
 2937W        W 6681   6.867   8.610   1.072 -0.0137  0.0775 -0.2675
 2938W        W 6682   5.560   0.660   2.918  0.2139 -0.1391 -0.1776
 2939W        W 6683   6.192   1.173  10.589  0.1400 -0.1262  0.1043
 2940W        W 6684   3.190   6.779  10.980  0.2793  0.0981  0.0076
 2941W        W 6685   8.953   7.424   3.939 -0.4204  0.1793  0.0555
 2942W        W 6686   7.736   6.788   3.862  0.0458  0.0282  0.0848
 2943W        W 6687   2.285   1.017  11.918  0.2181  0.1175  0.0014
 2944W        W 6688   1.012   2.148   3.223 -0.4696  0.1410  0.2706
 2945W        W 6689   8.461   2.211   1.136  0.2589 -0.0739  0.1899
 2946W        W 6690   0.919   2.758   2.070 -0.1209  0.0566 -0.1213
 2947W        W 6691   2.054   6.642   2.356 -0.0145  0.1799  0.0557
 2948W        W 6692   7.166   5.443   9.435 -0.1338  0.2092  0.0576
 2949W        W 6693   0.776   2.726   2.560 -0.1194 -0.0237 -0.2265
 2950W        W 6694   2.561   7.918   4.247  0.1285  0.1115  0.1100
 2951W        W 6695   3.136   5.841   2.812 -0.0301 -0.1226  0.1847
 2952W        W 6696   8.745   4.161   1.155 -0.0496 -0.0630 -0.0587
 2953W        W 6697   1.815   1.718  10.792 -0.0580 -0.0374 -0.0638
 2954W        W 6698   0.621   8.048  12.317 -0.0867 -0.3229  0.2606
 2955W        W 6699   1.122   3.543  11.518  0.0955 -0.0465 -0.0096
 2956W        W 6700   7.723   6.535  10.006  0.2042  0.0838  0.1120
 2957W        W 6701   6.225   1.976   9.918 -0.1622  0.1836  0.2610
 2958W        W 6702   7.468   2.783   8.743 -0.1596 -0.1130  0.2696
 2959W        W 6703   5.158   0.476   0.900 -0.0605 -0.0564 -0.2288
 2960W        W 6704   3.421   3.521   1.927  0.1354 -0.2152  0.2074
 2961W        W 6705   5.787   0.910   4.171  0.3691 -0.1757  0.2350
 2962W        W 6706   9.070   4.489   2.358  0.1901 -0.2369 -0.1722
 2963W        W 6707   2.576   3.980  12.157  0.2293 -0.0354 -0.2048
 2964W        W 6708   6.014   9.615   2.464 -0.0939  0.1545 -0.0173
 2965W        W 6709   7.574   8.452  12.007 -0.0377  0.3089 -0.0836
 2966W        W 6710   0.382   0.118   1.257 -0.1390 -0.0699  0.1357
 2967W        W 6711   8.621   3.778   2.082 -0.1856  0.5385  0.1024
 2968W        W 6712   2.342   3.793   1.440 -0.1337 -0.1562  0.0297
 2969W        W 6713   6.587   8.405  10.073 -0.2511 -0.1685  0.1037
 2970W        W 6714   0.307   6.715   1.590  0.1078  0.0328 -0.2905
 2971W        W 6715   7.859   2.717  11.756 -0.0799  0.0810 -0.0193
 2972W        W 6716   0.667   1.907   0.472 -0.0721 -0.0255 -0.1559
 2973W        W 6717   0.597   2.708   9.892 -0.1728 -0.1233 -0.4123
 2974W        W 6718   8.372   0.434  10.103 -0.0485  0.3044  0.1406
 2975W        W 6719   9.553   4.559   2.092 -0.0279 -0.1485  0.1419
 2976W        W 6720   0.653   4.203   9.942 -0.0240  0.2310 -0.1806
 2977W        W 6721   2.847   4.051  11.676 -0.1888 -0.0599 -0.1512
 2978W        W 6722   8.221   0.427   0.415  0.0866 -0.1876 -0.1462
 2979W        W 6723   8.506   7.896   0.412 -0.0139 -0.0897  0.0425
 2980W        W 6724   6.287   7.423  10.527 -0.0117 -0.0458 -0.0507
 2981W        W 6725   0.839   1.297   3.770 -0.1318 -0.0528 -0.0694
 2982W        W 6726   2.466   5.872   2.483 -0.0929  0.3033 -0.2941
 2983W        W 6727   3.769   1.597   0.023 -0.2325  0.3176  0.3142
 2984W        W 6728   2.688   1.620   0.013  0.0902  0.2484 -0.2477
 2985W        W 6729   3.865   2.293   8.757  0.0784  0.1772  0.1208
 2986W        W 6730   4.511   9.442   2.319 -0.2306  0.1348  0.0041
 2987W        W 6731   3.735   1.379   1.686  0.4316  0.1945 -0.2262
 2988W        W 6732   3.807   3.799   1.023  0.0325  0.3580  0.0137
 2989W        W 6733   5.899   6.733   3.411  0.0176 -0.2500  0.0309
 2990W        W 6734   3.966   8.141   2.852 -0.0923  0.1120 -0.1943
 2991W        W 6735   3.864   8.278   8.702 -0.0832 -0.0068  0.2826
 2992W        W 6736   6.963   0.256  10.762 -0.2105  0.0290  0.0541
 2993W        W 6737   4.870   7.594   4.467 -0.3401 -0.1278  0.2678
 2994W        W 6738   6.636   4.343  10.020 -0.0187 -0.0736  0.2487
 2995W        W 6739   1.196   3.822   1.375 -0.1234 -0.0400 -0.0413
 2996W        W 6740   5.030   3.586  10.685  0.1047  0.2881 -0.1080
 2997W        W 6741   2.723   0.379   2.212 -0.1054  0.0179 -0.0895
 2998W        W 6742   9.915   7.470  12.322  0.2375  0.0546 -0.1258
 2999W        W 6743   8.419   0.552   8.720 -0.1110 -0.1583 -0.1167
 3000W        W 6744   6.129   2.541  11.746  0.0103 -0.0438  0.0504
 3001W        W 6745   2.805   5.126   0.048  0.1189  0.1926  0.4940
 3002W        W 6746   3.580   9.676   2.121  0.4365 -0.0814 -0.0689
 3003W        W 6747   4.815   7.540   2.345  0.2092  0.2559  0.5319
 3004W        W 6748   8.038   0.989   0.741  0.2934  0.1237 -0.1653
 3005W        W 6749   3.747   9.303  10.710 -0.0834 -0.1582  0.3123
 3006W        W 6750   0.930   0.555   3.054  0.0671 -0.2038  0.0979
 3007W        W 6751   6.287   2.075  11.650 -0.1063  0.0046 -0.1215
 3008W        W 6752   1.600   7.064  12.076 -0.3237 -0.1314  0.0124
 3009W        W 6753   7.172   7.677   9.495 -0.2678  0.3155 -0.2762
 3010W        W 6754   6.675   1.787   3.548 -0.3973  0.1426  0.0741
 3011W        W 6755   1.422   4.028   0.639  0.2667  0.1818  0.0380
 3012W        W 6756   9.542   2.677   3.808 -0.1311  0.0707  0.0444
 3013W        W 6757   2.642   8.634   0.324  0.0726 -0.2131  0.0367
 3014W        W 6758   4.482   0.651   3.968  0.2709 -0.0288 -0.1097
 3015W        W 6759   3.780   0.244  11.679 -0.0230 -0.1080  0.0824
 3016W        W 6760   4.896   0.124   9.813  0.0641  0.0839 -0.1801
 3017W        W 6761   1.885   8.040   0.497  0.0654  0.0666  0.1014
 3018W        W 6762   0.445   5.551   2.568  0.3808 -0.1761  0.1249
 3019W        W 6763   5.929   0.056  11.679  0.3194 -0.1408 -0.2360
 3020W        W 6764   5.566   5.747  11.279 -0.0259  0.1435  0.2876
 3021W        W 6765   9.078  10.030   4.189 -0.1992  0.2571  0.0593
 3022W        W 6766   0.298   8.656   3.620 -0.1210 -0.1360  0.3992
 3023W        W 6767   8.043   6.799   9.524 -0.0286 -0.0984 -0.1251
 3024W        W 6768   3.874   6.679  12.356  0.0651 -0.0994  0.1079
 3025W        W 6769   4.940   8.193   2.313 -0.3017  0.1315 -0.2436
 3026W        W 6770   7.020   9.201   5.313  0.1303 -0.1440  0.0869
 3027W        W 6771  10.105   9.044   1.324  0.1796  0.2883  0.0350
 3028W        W 6772  10.092   9.044   3.563 -0.0420  0.3392  0.0265
 3029W        W 6773   2.978   4.919   1.878  0.0951  0.0524 -0.0196
 3030W        W 6774   2.663   5.083   2.326 -0.0657  0.2394 -0.0019
 3031W        W 6775   2.301   8.063   0.127  0.1456 -0.0187  0.1563
 3032W        W 6776   6.571   7.903  10.343  0.1149  0.0373  0.2152
 3033W        W 6777   4.564   3.425   1.183  0.3214 -0.2578 -0.0156
 3034W        W 6778   5.628   6.415  10.479  0.2420  0.0129  0.0053
 3035W        W 6779   2.088   0.821   0.680  0.4399  0.3869 -0.1395
 3036W        W 6780   9.360   6.657   0.203 -0.0333  0.0832 -0.3831
 3037W        W 6781   0.744   7.155   4.526  0.0878  0.0912  0.2609
 3038W        W 6782   3.961   3.412   1.234 -0.0645 -0.2394  0.0334
 3039W        W 6783   7.131   8.811  11.768  0.3587  0.3898 -0.4262
 3040W        W 6784   1.968   1.544   9.600 -0.1752 -0.0328 -0.0082
 3041W        W 6785   9.227   8.930   8.965  0.1725  0.2108  0.1637
 3042W        W 6786   5.201   5.697  10.938  0.0945 -0.0208 -0.0839
 3043W        W 6787   4.157   2.180  10.744  0.0159 -0.0456 -0.0557
 3044W        W 6788   0.956   3.286  12.021 -0.1885 -0.1852  0.1874
 3045W        W 6789   1.338   2.025   1.871 -0.0986 -0.3532  0.0712
 3046W        W 6790   2.050   6.495  11.172  0.3072 -0.0636  0.0626
 3047W        W 6791   9.888  10.053   9.693  0.0464 -0.0580  0.0808
 3048W        W 6792   4.286   5.290  11.865 -0.0198  0.1760 -0.2584
 3049W        W 6793   0.859   3.370   2.420 -0.1454  0.3852 -0.3741
 3050W        W 6794   6.032   7.577   0.955 -0.0318  0.0727 -0.3609
 3051W        W 6795  10.118   4.932   0.545  0.1358  0.2001 -0.1122
 3052W        W 6796   8.047   2.590   0.402 -0.2036 -0.0935 -0.0604
 3053W        W 6797   7.908   7.553  10.022  0.2078 -0.0884 -0.2537
 3054W        W 6798   2.076   5.581   0.669 -0.2591  0.2815 -0.1729
 3055W        W 6799   1.105   8.949   3.495  0.1661 -0.1859  0.1818
 3056W        W 6800   7.915   0.073  12.323  0.1987 -0.2146  0.0676
 3057W        W 6801   5.300   3.281   2.355 -0.0442 -0.1865  0.1203
 3058W        W 6802   8.933   8.302   2.622 -0.1126  0.3632  0.2415
 3059W        W 6803   7.396   8.016   4.907  0.1620  0.1676  0.0956
 3060W        W 6804   7.362   3.453   1.968 -0.1367  0.0082  0.1275
 3061W        W 6805   4.593   6.199  10.414 -0.0628  0.1061  0.3194
 3062W        W 6806   4.656   0.174  10.606  0.0942  0.0193  0.1096
 3063W        W 6807   8.882   9.389   1.387 -0.0235  0.0893  0.1223
 3064W        W 6808   7.810   1.517   2.150  0.2170  0.0255 -0.2920
 3065W        W 6809   7.325   7.077   3.894  0.3193 -0.1064  0.4160
 3066W        W 6810   1.008   9.609  10.598  0.1431  0.1933  0.1261
 3067W        W 6811   3.470   4.577   2.094  0.1608  0.1557  0.0664
 3068W        W 6812   6.554   8.501   3.396  0.1148 -0.3458  0.1790
 3069W        W 6813   3.795   9.242  12.099  0.0141  0.2691  0.1008
 3070W        W 6814   0.877   7.171  10.051  0.0195 -0.0223 -0.1080
 3071W        W 6815   9.555   0.909  10.433 -0.0261  0.2046 -0.2279
 3072W        W 6816   9.630   9.062   1.433  0.0399 -0.1646  0.3046
 3073W        W 6817   8.163   5.217   4.370  0.0532 -0.0957  0.3364
 3074W        W 6818   8.295   5.284  10.366  0.1189 -0.1904  0.1289
 3075W        W 6819   0.819   4.132  10.387  0.1039  0.1424 -0.2564
 3076W        W 6820   9.664   1.251  11.470  0.0750  0.1711  0.4077
 3077W        W 6821   5.985   6.874   9.041 -0.3081 -0.1946 -0.3059
 3078W        W 6822   7.393   9.307   1.091  0.2443 -0.0681 -0.2535
 3079W        W 6823   5.933   4.355   0.368  0.3859  0.2825  0.2043
 3080W        W 6824   2.880   8.606   2.494  0.1315 -0.1323 -0.1496
 3081W        W 6825   5.113   2.228   8.827 -0.3019  0.3105  0.0749
 3082W        W 6826   0.848   1.969  12.017 -0.1397 -0.1049 -0.1298
 3083W        W 6827   3.269   1.670   2.576 -0.2813 -0.3966 -0.1561
 3084W        W 6828   7.120   8.136  12.018  0.0835  0.3263  0.0984
 3085W        W 6829   7.270   0.404  11.900 -0.1253 -0.2714 -0.4122
 3086W        W 6830   5.435   9.555   2.425  0.2354  0.1025 -0.2250
 3087W        W 6831   5.838   8.339   4.222 -0.0844  0.2174 -0.0411
 3088W        W 6832   4.045   2.965  11.944 -0.0439 -0.0324  0.0071
 3089W        W 6833   4.989   8.373   4.699  0.0373  0.1884  0.1397
 3090W        W 6834   8.334   5.489  11.370 -0.0545  0.0002 -0.0774
 3091W        W 6835   1.923   7.068   4.236 -0.0499 -0.0293  0.1439
 3092W        W 6836   4.663   1.639   3.743 -0.0368  0.6875  0.3659
 3093W        W 6837   4.736   3.183   1.646 -0.5476 -0.0626 -0.0630
 3094W        W 6838   6.781   4.863  12.072 -0.0663  0.1160 -0.0566
 3095W        W 6839   5.105   2.499  11.283  0.0660  0.0714 -0.1102
 3096W        W 6840   4.784   4.690   2.245  0.2558  0.2868  0.1943
 3097W        W 6841   8.472   5.685   4.298 -0.0169  0.1070  0.1006
 3098W        W 6842   6.697   7.217  11.093 -0.3713  0.0420 -0.0385
 3099W        W 6843   2.744   8.526  10.518  0.0274 -0.2630  0.2234
 3100W        W 6844   2.527   1.816   1.284  0.1832 -0.4864 -0.2716
 3101W        W 6845   4.110   5.837  10.886  0.0205  0.0596 -0.2963
 3102W        W 6846   9.337   3.306   9.161  0.1646  0.0901  0.0050
 3103W        W 6847   9.432   0.527  11.495 -0.2632  0.1963 -0.0115
 3104W        W 6848   1.220   9.899  10.940  0.1006  0.5711  0.0866
 3105W        W 6849   9.957   0.852   1.781  0.4165  0.1726 -0.1097
 3106W        W 6850  10.099   6.459   0.149 -0.2012  0.1402  0.1944
 3107W        W 6851   2.617   4.010   8.457  0.0267 -0.1919 -0.0856
 3108W        W 6852   6.619   8.807   2.333 -0.0942 -0.2524  0.1033
 3109W        W 6853   0.807   0.639  10.717 -0.1784  0.2806 -0.2923
 3110W        W 6854   2.761   2.973   8.641  0.2262 -0.1256 -0.0884
 3111W        W 6855   6.067   4.720   9.047  0.4112 -0.1882 -0.2926
 3112W        W 6856   4.165   5.873  10.434  0.1517  0.1123  0.0399
 3113W        W 6857   3.415   9.917   0.066 -0.3556 -0.0636 -0.1895
 3114W        W 6858   3.478   5.397   9.465 -0.1542  0.1651  0.1309
 3115W        W 6859   5.018   8.242   3.390  0.1271  0.0246  0.0669
 3116W        W 6860   6.015   0.770  11.046  0.2926 -0.3504 -0.1379
 3117W        W 6861   2.891   0.604   2.622 -0.1241  0.2926  0.3150
 3118W        W 6862   9.587   3.142   9.525 -0.0897 -0.3127  0.0083
 3119W        W 6863   4.108   4.611   9.674  0.2384 -0.0144  0.0995
 3120W        W 6864   2.602   8.895   3.455  0.0852  0.0332  0.0651
 3121W        W 6865   8.201   6.644   2.998 -0.2634 -0.0741 -0.0036
 3122W        W 6866   7.485  10.066  12.190 -0.0305  0.0525 -0.3834
 3123W        W 6867   9.241   6.613   0.690 -0.1398 -0.2253 -0.0261
 3124W        W 6868   7.995   1.432   0.478 -0.1049 -0.0522  0.0443
 3125W        W 6869   6.073   0.929   3.748  0.1945 -0.1988 -0.2432
 3126W        W 6870   1.529   2.486   3.192 -0.0850 -0.0835 -0.0369
 3127W        W 6871   4.679   9.085  10.450  0.1557  0.0252 -0.0043
 3128W        W 6872   2.443   2.411  10.975  0.0040 -0.1655 -0.0380
 3129W        W 6873   6.969   4.151   1.785 -0.1683  0.3677 -0.3347
 3130W        W 6874   2.726   4.744   9.616  0.0321  0.1635 -0.4510
 3131W        W 6875   7.631   2.603   4.137 -0.0741  0.2175  0.0368
 3132W        W 6876   0.912   2.901   0.209  0.0880 -0.2300  0.0085
 3133W        W 6877   7.215   6.928   0.541  0.0088  0.0792  0.0999
 3134W        W 6878   9.173   9.920   0.715  0.1896 -0.2692  0.0026
 3135W        W 6879   7.568   0.904   3.865  0.2397 -0.1255 -0.0321
 3136W        W 6880   2.390   1.238   3.984 -0.1311 -0.0079  0.2728
 3137W        W 6881   7.842  10.125  11.809 -0.2228 -0.1973  0.1064
 3138W        W 6882   8.502   4.205   9.351  0.0708  0.1324 -0.0181
 3139W        W 6883   5.688   5.757   8.673 -0.1552 -0.2379 -0.0228
 3140W        W 6884   5.064   3.405   8.163 -0.2069  0.2711 -0.2288
 3141W        W 6885   5.160   5.182   3.932 -0.0123 -0.1072  0.1750
 3142W        W 6886   1.204   3.521   9.670 -0.2406 -0.0425  0.0326
 3143W        W 6887   1.647   0.317  10.191 -0.1458  0.2365  0.1080
 3144W        W 6888   8.416   8.995  11.621 -0.2207  0.0279  0.1440
 3145W        W 6889   4.677   4.675   4.715 -0.0289 -0.0252 -0.1154
 3146W        W 6890   5.362   1.008   3.847  0.1433 -0.1068 -0.1632
 3147W        W 6891   9.981   7.404  11.246 -0.1036  0.1844 -0.0420
 3148W        W 6892   6.276   8.208   8.365  0.1614 -0.0097 -0.2022
 3149W        W 6893   1.436   2.157   9.333 -0.1053  0.0934  0.2890
 3150W        W 6894   9.349   5.970   4.055 -0.0740 -0.0485 -0.0559
 3151W        W 6895   9.829   2.424  11.285 -0.1564  0.1755  0.0652
 3152W        W 6896   5.963   9.491   0.113  0.0728 -0.1455  0.1641
 3153W        W 6897   8.557   3.055   1.205  0.1588 -0.0518 -0.0207
 3154W        W 6898   2.575   7.491   3.028 -0.1841  0.3438 -0.0730
 3155W        W 6899   4.683   5.364   3.761 -0.3031 -0.2395 -0.1054
 3156W        W 6900   3.178   1.862   9.167  0.1342 -0.3131 -0.3648
 3157W        W 6901   4.361   7.950   8.514 -0.1304  0.0935  0.1072
 3158W        W 6902   7.552   9.214   3.728  0.4336  0.3372  0.3154
 3159W        W 6903   8.403   7.185   4.660 -0.2050  0.2718 -0.0044
 3160W        W 6904   7.401   6.456   1.490 -0.0092  0.0644  0.2587
 3161W        W 6905   3.919   1.891  10.436 -0.0856  0.2046  0.1204
 3162W        W 6906   6.735   9.912   9.701  0.1038  0.3456  0.0068
 3163W        W 6907   4.471   1.840   4.830  0.1162  0.0206 -0.0528
 3164W        W 6908   5.095   0.378  12.160 -0.0940 -0.0917  0.2969
 3165W        W 6909   6.399  10.074   5.318  0.0442 -0.0915  0.1995
 3166W        W 6910   2.964   0.691   0.122 -0.0838 -0.3561 -0.0151
 3167W        W 6911   7.663   8.135   0.674 -0.0516  0.0955  0.2441
 3168W        W 6912   3.234   3.342   7.943  0.0490  0.1320  0.0225
 3169W        W 6913   1.964   9.872  12.178  0.0024 -0.2833  0.0783
 3170W        W 6914   7.579   6.051  11.657  0.1034  0.0179 -0.0634
 3171W        W 6915   1.376   3.240  11.007 -0.1698  0.1197  0.3301
 3172W        W 6916   4.590   9.587   4.166  0.3462  0.1345 -0.0690
 3173W        W 6917   4.128   4.602   9.142  0.0925  0.0805  0.1720
 3174W        W 6918   8.942   0.101   2.546 -0.2788  0.1312 -0.0351
 3175W        W 6919   3.359   9.229   2.207 -0.0364  0.0771  0.1439
 3176W        W 6920   5.569   8.572   0.120  0.2972 -0.0935 -0.2428
 3177W        W 6921   7.052   9.699   2.826 -0.3286  0.1903  0.1841
 3178W        W 6922   1.065   0.503  11.909  0.0033 -0.1081 -0.0482
 3179W        W 6923   4.622   3.649   1.644  0.1710 -0.2459 -0.1313
 3180W        W 6924   3.647   9.638   9.383  0.2895 -0.2892 -0.0588
 3181W        W 6925   1.372   4.065   8.847 -0.1623  0.2145 -0.2616
 3182W        W 6926   9.793   6.143  11.864 -0.1601  0.3542  0.0445
 3183W        W 6927   2.543   8.077  10.906 -0.1881 -0.5186 -0.0204
 3184W        W 6928   1.939   1.047   9.453  0.3903 -0.1697  0.2630
 3185W        W 6929   5.746   2.419   1.701  0.0395  0.0775 -0.0423
 3186W        W 6930   0.530   1.708   3.930  0.0177  0.1494  0.3204
 3187W        W 6931   0.118   1.399   4.045  0.2095 -0.1359 -0.1787
 3188W        W 6932   1.816   7.591   0.383  0.4364  0.1290 -0.0642
 3189W        W 6933   4.288   0.987  11.760  0.1425 -0.1755 -0.1721
 3190W        W 6934   2.451   2.623  11.872  0.0643  0.1739  0.0332
 3191W        W 6935   4.837   8.301   1.019 -0.1539 -0.2610  0.1078
 3192W        W 6936   7.499  10.020   0.993  0.5464 -0.0254 -0.1161
 3193W        W 6937   1.807   2.450   9.548  0.0793  0.0357  0.2956
 3194W        W 6938   6.030   5.592  11.363  0.2239  0.3414  0.0896
 3195W        W 6939   6.313   2.790   1.047 -0.2860 -0.1976 -0.1552
 3196W        W 6940   3.088   1.587   9.633 -0.0362 -0.1981 -0.0936
 3197W        W 6941   0.506   8.581   5.181  0.0270 -0.2144 -0.3514
 3198W        W 6942   8.804   4.932  12.105  0.1910 -0.3094  0.2032
 3199W        W 6943   1.394   1.503   2.710 -0.4895 -0.0015  0.0856
 3200W        W 6944   9.278   9.439   0.932 -0.2532 -0.2467 -0.3373
 3201W        W 6945   9.035   9.899  10.987 -0.1824 -0.0293  0.0836
 3202W        W 6946   7.729   8.367  10.316 -0.1325 -0.1671 -0.0762
 3203W        W 6947   6.734   3.010  10.551 -0.0042 -0.1633 -0.2667
 3204W        W 6948   4.248   9.254  10.839 -0.1691 -0.1496  0.1210
 3205W        W 6949   0.001   4.389   8.682 -0.2810 -0.0037 -0.0368
 3206W        W 6950   9.582   7.166   0.244 -0.3952 -0.3673  0.1666
 3207W        W 6951   3.110   2.451  10.937  0.0212 -0.0852 -0.1336
 3208W        W 6952   7.112   6.785   2.830 -0.1271 -0.4874  0.1142
 3209W        W 6953   7.659   0.241   9.596  0.0178  0.0866  0.1069
 3210W        W 6954   1.910   7.432  11.230 -0.1033 -0.4606  0.0888
 3211W        W 6955   5.067   7.306   0.322  0.0341  0.1170  0.2017
 3212W        W 6956   8.268   7.727   8.601  0.2831 -0.1501 -0.1876
 3213W        W 6957   3.599   5.750   2.969  0.0734  0.2521  0.2067
 3214W        W 6958   9.006   2.896   9.633 -0.3090  0.1754  0.1022
 3215W        W 6959   2.780   2.035   9.548  0.1397 -0.1560  0.2879
 3216W        W 6960   8.065   8.844  10.235  0.0969 -0.1565 -0.0934
 3217W        W 6961   5.810   6.349   2.864  0.2287 -0.1945  0.0598
 3218W        W 6962   6.806   5.466   4.503  0.0242  0.0502 -0.1466
 3219W        W 6963   3.840   3.410   3.130  0.0634  0.1860  0.5079
 3220W        W 6964   7.305   4.215  11.803 -0.2734  0.2893 -0.2472
 3221W        W 6965   1.896   1.421   4.154  0.1091 -0.0730 -0.2056
 3222W        W 6966   8.648   1.398   1.876  0.1406  0.0575  0.5480
 3223W        W 6967   2.238   1.793  11.728 -0.0842 -0.1455 -0.3474
 3224W        W 6968   7.777   9.375  11.268  0.1091  0.1463 -0.0511
 3225W        W 6969   6.871   1.736   4.562  0.1445  0.0629  0.1466
 3226W        W 6970   6.468   7.741   9.581  0.0558  0.0018 -0.0559
 3227W        W 6971   6.332   8.338  12.367  0.0782  0.1914  0.0904
 3228W        W 6972   1.027   1.068   1.246  0.4320 -0.0238 -0.0296
 3229W        W 6973   3.628   8.348   3.170  0.0725  0.0073 -0.3146
 3230W        W 6974   3.729   7.652   4.901  0.2367 -0.1276  0.0382
 3231W        W 6975   9.910   0.685   3.086 -0.0979 -0.0013 -0.1600
 3232W        W 6976   7.110   5.862   4.571 -0.0443 -0.1110  0.0215
 3233W        W 6977   1.943   9.108  12.125  0.0072  0.0955 -0.1710
 3234W        W 6978   9.038   7.782   1.837  0.3114 -0.3585  0.0211
 3235W        W 6979   0.609   2.254   4.245 -0.1850 -0.2467 -0.2118
 3236W        W 6980   9.274   4.116  11.857  0.0209  0.2248  0.0253
 3237W        W 6981   5.756   9.528   9.726  0.0191 -0.1516  0.1145
 3238W        W 6982   5.058   1.923  12.138  0.2154 -0.2424  0.0652
 3239W        W 6983   6.957  10.125   4.162  0.3012  0.3234  0.2019
 3240W        W 6984   6.941   4.209  10.511 -0.2091  0.5570  0.1788
 3241W        W 6985   4.404   5.942   2.280 -0.3856  0.0438 -0.1806
 3242W        W 6986   0.424   1.843  10.108 -0.0499 -0.1443 -0.3645
 3243W        W 6987   5.775   4.769   2.267 -0.0811  0.0247  0.2177
 3244W        W 6988   1.738   7.983  11.316  0.1915  0.0521  0.1795
 3245W        W 6989   8.615  10.055  10.798  0.0560  0.0290  0.1261
 3246W        W 6990   0.251   2.935   1.255  0.1206 -0.0434 -0.3662
 3247W        W 6991   2.228   1.916  10.681  0.0541 -0.0471  0.2590
 3248W        W 6992   9.957   2.979   0.526 -0.0572  0.0412 -0.3154
 3249W        W 6993   3.143   7.162   3.794  0.2437  0.2904 -0.0600
 3250W        W 6994   5.643   5.220  11.815  0.1204 -0.1092 -0.0543
 3251W        W 6995   9.440   2.528   8.857  0.0484 -0.0663 -0.0194
 3252W        W 6996   1.066   5.997   2.802 -0.2229  0.0431 -0.2163
 3253W        W 6997   4.382   3.814   9.344 -0.0424 -0.2365 -0.3348
 3254W        W 6998   9.397   7.962  10.052 -0.1716 -0.0251  0.0590
 3255W        W 6999   8.626   1.800   2.626  0.0253 -0.1492 -0.0099
 3256W        W 7000   2.914   4.336   8.705  0.2625  0.1454 -0.2023
 3257W        W 7001   8.455   1.555   9.048 -0.0806 -0.2470 -0.2524
 3258W        W 7002   8.573   3.148   2.281 -0.1760  0.2225 -0.3561
 3259W        W 7003   6.263   4.221   9.121 -0.1390  0.3854  0.0611
 3260W        W 7004   1.573   9.812   4.512  0.2277  0.0312  0.2679
 3261W        W 7005   1.410   7.319   0.125  0.1327  0.0855  0.0247
 3262W        W 7006   6.469   0.246  10.826 -0.3547  0.0548 -0.2578
 3263W        W 7007   3.093   3.713  10.326  0.1251  0.0835 -0.1824
 3264W        W 7008   7.642   0.653   1.716 -0.1477  0.1542 -0.0330
 3265W        W 7009   9.316   1.046   9.171  0.1314  0.0173 -0.0489
 3266W        W 7010   9.129   8.907   1.407  0.0980 -0.0439 -0.4487
 3267W        W 7011   4.750   5.195   2.242 -0.0930 -0.1589  0.0768
 3268W        W 7012   8.938   9.253   0.481 -0.1062  0.0482  0.1274
 3269W        W 7013   9.600   6.317   4.391 -0.3477  0.0090 -0.0774
 3270W        W 7014   8.222   3.168  10.807 -0.0240  0.0003  0.1899
 3271W        W 7015   4.045   2.548   0.229  0.0087  0.1873  0.3293
 3272W        W 7016   5.644   0.936  11.449 -0.3548  0.1950 -0.2893
 3273W        W 7017   1.442   3.093   0.494  0.2843  0.1214  0.1473
 3274W        W 7018   9.490   1.754   0.823  0.0481  0.1670  0.2599
 3275W        W 7019   6.591   6.688  11.236  0.0507 -0.0760  0.0114
 3276W        W 7020   9.234   1.742   0.225 -0.2777 -0.1298 -0.1338
 3277W        W 7021   1.937   5.858   9.088 -0.0356  0.0368 -0.0616
 3278W        W 7022   5.296   1.178  11.803  0.2382  0.2096  0.0218
 3279W        W 7023   0.314   2.746   8.398 -0.3747  0.0660  0.0455
 3280W        W 7024   3.861   7.944  11.051 -0.2979 -0.2587  0.0662
 3281W        W 7025   5.618   4.106   9.738  0.1653  0.0051 -0.0396
 3282W        W 7026   1.783   9.065   1.451 -0.4331  0.2091  0.1953
 3283W        W 7027   4.623   8.854  11.841 -0.0123 -0.0695 -0.0226
 3284W        W 7028   0.695   2.313   0.838  0.1202  0.2863  0.5371
 3285W        W 7029   6.330   3.355   9.822  0.3328 -0.3812 -0.0478
 3286W        W 7030  10.115   6.861  10.066  0.0105  0.0258 -0.2763
 3287W        W 7031   0.017   7.931  11.461 -0.0729  0.1709  0.0665
 3288W        W 7032   1.745   7.147   2.679  0.1854  0.0637  0.4147
 3289W        W 7033   7.372   8.304   3.803  0.1259 -0.3604 -0.0098
 3290W        W 7034   8.990   1.586   2.278  0.0795  0.3406 -0.2080
 3291W        W 7035   8.885   2.240   2.296  0.1486 -0.0186 -0.0224
 3292W        W 7036   5.432   8.749   4.049  0.2191  0.3024 -0.1554
 3293W        W 7037   0.730   5.711   9.380  0.2078  0.0278  0.0857
 3294W        W 7038   3.595   4.087   9.062 -0.1190 -0.0282  0.1501
 3295W        W 7039   5.495   7.400   0.071 -0.2782 -0.1573 -0.1678
 3296W        W 7040   0.648   6.966   3.002  0.1521 -0.4182 -0.1594
 3297W        W 7041   4.726   3.737   2.910  0.0906 -0.1485  0.1260
 3298W        W 7042   7.304  10.082  10.599  0.0251 -0.1310 -0.0241
 3299W        W 7043   5.669   8.179  10.330  0.1102 -0.1150  0.2370
 3300W        W 7044   8.761   3.217  10.716 -0.1735  0.0975  0.0678
 3301W        W 7045   5.041   0.129   8.544 -0.4486 -0.0976 -0.3225
 3302W        W 7046   9.628   7.637  11.499  0.1395  0.2393 -0.2806
 3303W        W 7047   4.030   9.644   2.879  0.0529  0.3916 -0.1585
 3304W        W 7048   3.821   2.148   3.008  0.2462 -0.1540 -0.2576
 3305W        W 7049   1.690   8.528   4.813 -0.2679  0.3269 -0.2431
 3306W        W 7050   6.540   5.212   4.036 -0.1479 -0.2947 -0.0589
 3307W        W 7051   1.214   2.956   0.902  0.2023  0.5136 -0.3469
 3308W        W 7052   9.498   1.526   9.263  0.0318  0.0580  0.2402
 3309W        W 7053   3.407   6.785   4.051 -0.2088  0.1343  0.0612
 3310W        W 7054   1.833   1.283  10.471 -0.3318 -0.3245 -0.1219
 3311W        W 7055   0.149   8.503   9.061  0.0459 -0.1600 -0.0951
 3312W        W 7056   0.765   4.888  10.714 -0.2150 -0.0571 -0.1597
 3313W        W 7057   5.531   7.863  11.738  0.3302 -0.1100 -0.1556
 3314W        W 7058   9.415   0.619   3.178  0.2269 -0.1223 -0.4017
 3315W        W 7059   8.094   3.782   9.517 -0.0462  0.3576 -0.0285
 3316W        W 7060   3.185   5.062   9.898 -0.1469  0.0199 -0.0989
 3317W        W 7061   0.079   0.891   2.715  0.2838 -0.1644  0.0599
 3318W        W 7062   6.298   9.424   0.738 -0.0470 -0.2743 -0.1193
 3319W        W 7063   7.516   4.795  10.553  0.1178 -0.0460 -0.0734
 3320W        W 7064   2.735   2.855   9.650 -0.0061 -0.2630 -0.3745
 3321W        W 7065   4.979   1.225   3.557  0.0614  0.1468  0.1512
 3322W        W 7066   2.504   0.354   0.934 -0.0492 -0.3787  0.1336
 3323W        W 7067   5.924   2.290   3.464  0.3158 -0.0690 -0.0629
 3324W        W 7068   9.092   2.599   8.425 -0.0117  0.2814  0.1092
 3325W        W 7069   7.931   7.045  11.686  0.1197  0.2146  0.0855
 3326W        W 7070   7.218   7.808   4.501  0.0225  0.0665  0.0727
 3327W        W 7071   9.843   2.190   8.746 -0.0107 -0.1731  0.0383
 3328W        W 7072   4.096   9.545  11.730 -0.1855 -0.1786  0.3012
 3329W        W 7073   8.207   6.093   2.946  0.0825 -0.2936  0.1121
 3330W        W 7074   4.205   6.230  11.914 -0.1303  0.0480 -0.1962
 3331W        W 7075   6.646   3.861   9.321 -0.0876  0.1522 -0.0051
 3332W        W 7076   4.678   0.356   0.620 -0.2282 -0.0105 -0.1340
 3333W        W 7077   4.180   9.519   1.542 -0.1770 -0.3190 -0.0600
 3334W        W 7078   2.476   4.817   8.567 -0.1856 -0.2033 -0.2463
 3335W        W 7079   5.783   0.433  11.381  0.0626 -0.0998 -0.2799
 3336W        W 7080   0.018   5.467   3.443 -0.2446 -0.2090  0.2940
 3337W        W 7081   4.397   9.110  11.327  0.1726  0.2833  0.1503
 3338W        W 7082   0.998   1.121   0.370  0.1539 -0.1173  0.2131
 3339W        W 7083   3.308   6.433  11.818 -0.0611  0.0255 -0.3016
 3340W        W 7084   0.379   0.203   4.428  0.0773 -0.1034 -0.1529
 3341W        W 7085   7.807   9.986   1.602 -0.0734  0.3352  0.1717
 3342W        W 7086   7.167   0.923  10.287 -0.3523 -0.2100 -0.1646
 3343W        W 7087   7.804   0.492  10.509 -0.0339 -0.0110  0.0420
 3344W        W 7088   5.413   8.270  11.398 -0.3088 -0.1067 -0.2580
 3345W        W 7089   0.017   5.647   2.917  0.1925  0.0106 -0.1086
 3346W        W 7090   6.545   5.664   3.676 -0.1351 -0.3497  0.2978
 3347W        W 7091   3.798   5.742   2.278  0.0480  0.1862 -0.1398
 3348W        W 7092   2.195   3.849   2.424  0.0240 -0.1585 -0.2126
 3349W        W 7093   3.775   8.732  10.694 -0.2185  0.0404 -0.3748
 3350W        W 7094   3.450   4.274   8.050 -0.1105  0.0326 -0.0858
 3351W        W 7095   6.179   7.039   4.462  0.4735  0.0532  0.0362
 3352W        W 7096   8.682   4.252  11.155 -0.2340  0.0633 -0.0583
 3353W        W 7097   8.037   0.868   4.052 -0.0301 -0.1406  0.2362
 3354W        W 7098   0.999   3.630   2.858 -0.0330 -0.1269 -0.0532
 3355W        W 7099   5.608   9.010   9.810 -0.2784  0.1908 -0.0738
 3356W        W 7100   5.169   0.663   8.309 -0.0276  0.1342 -0.0004
 3357W        W 7101   4.085   5.873   1.897 -0.0083 -0.3727  0.2160
 3358W        W 7102   5.749   1.515  10.618 -0.0789  0.1542 -0.0743
 3359W        W 7103   0.911   1.927  10.913 -0.1239  0.0657 -0.0340
 3360W        W 7104   9.120   0.162   2.070  0.0236  0.1441 -0.0637
 3361W        W 7105   1.356   6.309   9.941  0.2387  0.0841 -0.0628
 3362W        W 7106   6.367   9.110   1.525 -0.1091 -0.2589  0.0058
 3363W        W 7107   5.973   3.972  12.032  0.1352  0.3756  0.0606
 3364W        W 7108  10.037   0.452   0.304 -0.1082 -0.2531 -0.5013
 3365W        W 7109   1.921   3.945   9.806  0.0059 -0.0240  0.1324
 3366W        W 7110   3.817   3.351   4.327 -0.1005 -0.0569 -0.1151
 3367W        W 7111   8.772   6.645   2.107 -0.0014  0.1113  0.3193
 3368W        W 7112   4.315   3.209  11.071 -0.1196 -0.0202 -0.2382
 3369W        W 7113   0.941   5.237   3.104 -0.1919 -0.1824  0.0744
 3370W        W 7114   3.527   1.683   2.107 -0.3438 -0.1569  0.5181
 3371W        W 7115   1.589   1.433  12.195  0.0309 -0.0933  0.0678
 3372W        W 7116   3.603   9.037   0.374  0.2885 -0.1992  0.1542
 3373W        W 7117   9.986   2.023   0.650  0.1661  0.0042 -0.1797
 3374W        W 7118   6.669   6.454   4.778 -0.1144  0.2038 -0.1013
 3375W        W 7119  10.087   7.756   3.941 -0.1485 -0.2768 -0.0090
 3376W        W 7120   7.027   1.237   2.403 -0.1668  0.1240 -0.0074
 3377W        W 7121   6.522   0.237   0.996  0.0851  0.0823 -0.1426
 3378W        W 7122   8.424   7.729   4.493 -0.0011 -0.0435 -0.2184
 3379W        W 7123   9.800   9.833   2.975  0.0101 -0.4648 -0.3122
 3380W        W 7124   0.489   2.826  12.272 -0.0454  0.0353  0.3733
 3381W        W 7125   5.388   8.682  10.168 -0.0732  0.0467  0.2333
 3382W        W 7126   2.872   9.647   9.775  0.3016 -0.0052 -0.0061
 3383W        W 7127   8.115   8.001   1.988 -0.0768  0.4666  0.1587
 3384W        W 7128   5.054   8.969   9.919 -0.0960 -0.0700  0.4337
 3385W        W 7129   7.949   5.687   1.162  0.0017  0.0194  0.1281
 3386W        W 7130   8.156   0.635   3.112 -0.1066  0.2477 -0.0682
 3387W        W 7131   9.727   0.810   2.235  0.2283 -0.0161  0.1035
 3388W        W 7132   8.410   7.555  10.154  0.2845 -0.1188 -0.2973
 3389W        W 7133   2.312   9.716   9.609 -0.0507 -0.1895 -0.2363
 3390W        W 7134   4.378   9.526   0.748 -0.0504  0.1534  0.0286
 3391W        W 7135   0.358   7.775   2.513 -0.0314  0.4234  0.2189
 3392W        W 7136   2.843   0.051   2.760  0.0588 -0.1121 -0.2645
 3393W        W 7137   7.677   5.628   9.257  0.1878  0.1312  0.1608
 3394W        W 7138   2.036   9.334  10.533  0.2477 -0.1566 -0.1163
 3395W        W 7139   1.156   9.707   2.978  0.1095  0.0234  0.2794
 3396W        W 7140   8.308   5.286  11.822 -0.2417  0.1295 -0.2677
 3397W        W 7141   0.850   2.814  11.838 -0.0969 -0.1597 -0.0822
 3398W        W 7142   8.730   7.995  11.530  0.0031  0.2469  0.1972
 3399W        W 7143   7.803   8.620   9.825  0.1172  0.2647 -0.1912
 3400W        W 7144   9.792   4.371   0.715  0.2312  0.2765  0.1377
 3401W        W 7145   4.102   5.462   8.954 -0.0793  0.1451  0.1600
 3402W        W 7146   9.509   0.866   3.716  0.2588 -0.3235  0.1041
 3403W        W 7147   8.470   5.279   3.379  0.0467  0.1018  0.3556
 3404W        W 7148   0.503   6.129  10.744  0.1147 -0.0006 -0.0473
 3405W        W 7149   7.876   0.557  11.025 -0.2308 -0.0299 -0.0289
 3406W        W 7150   5.013   9.197   0.298 -0.3145 -0.0346  0.0245
 3407W        W 7151   2.600   2.084  11.768  0.2111  0.1638  0.2349
 3408W        W 7152   9.421   3.330   2.537 -0.0048  0.1929  0.5060
 3409W        W 7153   1.106   4.765  11.629 -0.2002 -0.1817 -0.1109
 3410W        W 7154   8.089   7.527   0.988 -0.2072 -0.4691 -0.0910
 3411W        W 7155   5.374   6.919  10.439  0.3250 -0.3413  0.3115
 3412W        W 7156   8.272   8.977   4.659 -0.0315 -0.0622 -0.0585
 3413W        W 7157   4.794   9.798   9.775  0.2584  0.2741  0.0292
 3414W        W 7158   9.273   1.718   3.886 -0.0879 -0.1261  0.1815
 3415W        W 7159   6.783   2.987   3.003 -0.0108  0.3646 -0.1293
 3416W        W 7160   8.941   8.471  11.335 -0.0056 -0.3304 -0.1455
 3417W        W 7161   5.831   4.676  11.128  0.0056 -0.4371 -0.0403
 3418W        W 7162   0.475   4.725   0.605  0.0313 -0.0105  0.0020
 3419W        W 7163   8.092   8.696  11.920 -0.0891  0.1787 -0.3208
 3420W        W 7164   2.499   0.316   0.088 -0.0532  0.1169  0.1659
 3421W        W 7165   8.459   2.714   4.618  0.3685 -0.3234  0.0283
 3422W        W 7166   6.494   2.886   1.536 -0.0032 -0.1128  0.2240
 3423W        W 7167   6.172   8.527   1.646 -0.2297  0.1937  0.0748
 3424W        W 7168   3.240   3.011  12.333  0.0337 -0.2236 -0.0754
 3425W        W 7169   2.301   1.114  10.443 -0.1425  0.0957 -0.0557
 3426W        W 7170   0.998   2.102   0.172 -0.3168  0.1836  0.4035
 3427W        W 7171   1.149   2.585   2.877  0.1330  0.2117 -0.0316
 3428W        W 7172   3.000   4.673  11.542 -0.0573  0.4235  0.2109
 3429W        W 7173   7.756   2.929   9.907 -0.1036  0.0315 -0.0552
 3430W        W 7174   1.023   3.036   9.647 -0.0089 -0.0973 -0.2554
 3431W        W 7175   1.753   1.980   9.736  0.0618  0.2061  0.0824
 3432W        W 7176   1.167   3.224   2.081 -0.1747  0.0123  0.0109
 3433W        W 7177   5.657   8.936   2.497  0.2717  0.1327 -0.0430
 3434W        W 7178   4.915   0.937  10.130  0.0933  0.2282  0.1829
 3435W        W 7179   3.391   4.935   4.323 -0.1250 -0.1219 -0.0188
 3436W        W 7180   8.103   8.556   4.498  0.3181 -0.1873  0.2462
 3437W        W 7181   0.077   1.179   3.107  0.0117 -0.3276  0.1539
 3438W        W 7182   2.990   4.183   2.914  0.1435 -0.0237 -0.0893
 3439W        W 7183   0.550   3.147   2.037 -0.1208  0.1038  0.1317
 3440W        W 7184   3.740   0.824  11.660  0.1667  0.2943  0.1857
 3441W        W 7185   0.794   7.674  12.090 -0.2041 -0.1375 -0.0864
 3442W        W 7186   8.244   3.613   0.148 -0.0770 -0.3940  0.0818
 3443W        W 7187   5.443   4.341   9.257  0.0911  0.3298 -0.0092
 3444W        W 7188   1.841   0.133   2.737 -0.1374 -0.0694 -0.0203
 3445W        W 7189   5.837   5.413   1.615  0.0060 -0.3335  0.0885
 3446W        W 7190   1.191   7.354   4.463 -0.0922 -0.0534 -0.0984
 3447W        W 7191   6.465   6.206   9.552 -0.1760  0.0611 -0.0713
 3448W        W 7192   2.096  10.114   3.162 -0.0358 -0.1350  0.2282
 3449W        W 7193   0.824   0.397   9.736  0.0243  0.2702  0.2305
 3450W        W 7194   4.420   1.119   8.901 -0.3017 -0.3912 -0.1244
 3451W        W 7195   0.861   4.329   0.429 -0.0228 -0.1914 -0.0372
 3452W        W 7196   0.443   1.287  11.358 -0.0581  0.0635  0.1418
 3453W        W 7197   2.111   7.205  10.829  0.0317  0.2049 -0.0831
 3454W        W 7198   4.608   3.882   8.873  0.0504 -0.1701 -0.2526
 3455W        W 7199   2.299   1.697   4.006  0.3029  0.1309 -0.0527
 3456W        W 7200   1.198   3.253   1.345 -0.1856  0.2294 -0.0795
 3457W        W 7201   8.479   5.724   0.420  0.2558 -0.2821  0.1633
 3458W        W 7202   0.363   8.500  11.008  0.0965  0.2080 -0.0294
 3459W        W 7203   3.046   5.593   9.881 -0.5329  0.2603  0.1207
 3460W        W 7204   3.526   8.806  10.243  0.4763 -0.1241 -0.0082
 3461W        W 7205   7.115   5.870   2.391 -0.0093  0.0867 -0.2397
 3462W        W 7206   7.033   0.884   3.333  0.3195  0.3123  0.3057
 3463W        W 7207   0.204   7.341   3.209  0.4457  0.4933  0.0342
 3464W        W 7208   9.041   1.059  10.398 -0.3218  0.1345 -0.2626
 3465W        W 7209   3.038   2.758  10.144  0.4075 -0.1032  0.1582
 3466W        W 7210   6.605   9.886   1.047  0.2818  0.0646  0.2106
 3467W        W 7211   4.916   9.652   0.379  0.2270 -0.1757 -0.1171
 3468W        W 7212   3.516   4.436   3.992  0.4045  0.0936 -0.1441
 3469W        W 7213   3.088   1.709  10.503  0.2179  0.0061  0.2213
 3470W        W 7214   6.270   4.434   1.797 -0.0203 -0.4159 -0.0078
 3471W        W 7215   8.754   2.663   1.030  0.2877 -0.3488  0.2961
 3472W        W 7216   5.762   5.548   9.154  0.1940  0.0100 -0.0227
 3473W        W 7217   6.247   0.679  11.618 -0.1384 -0.0682  0.0809
 3474W        W 7218   5.207   3.375   9.171 -0.2942  0.0046  0.0047
 3475W        W 7219   0.398   1.322   3.480 -0.1031  0.0774 -0.1296
 3476W        W 7220   4.829   5.135  10.892  0.0418  0.0505  0.0478
 3477W        W 7221   1.026   4.569   9.931  0.0487  0.2731  0.0263
 3478W        W 7222   2.629   0.677  12.061  0.1882 -0.1795 -0.0351
 3479W        W 7223   5.296   1.268  10.301 -0.2118 -0.0548 -0.0122
 3480W        W 7224   3.861   9.841   9.758 -0.0718  0.0722 -0.1793
 3481W        W 7225   6.820   4.038   4.094  0.0504 -0.3414  0.0896
 3482W        W 7226   6.621   6.711   4.308  0.0648 -0.0295 -0.1609
 3483W        W 7227  10.011   7.084   9.553  0.1054  0.0032 -0.1190
 3484W        W 7228   3.800   0.523   0.228 -0.2954  0.3925 -0.0006
 3485W        W 7229   5.987   5.178  10.876 -0.2491 -0.0417 -0.1055
 3486W        W 7230   6.363   1.971   0.567 -0.0307 -0.0465 -0.0899
 3487W        W 7231   8.360   2.940   9.155  0.2042 -0.0002  0.1190
 3488W        W 7232   7.102   1.933  11.315 -0.0386 -0.3774  0.0180
 3489W        W 7233   6.719   4.396  11.877  0.1524  0.1127 -0.2998
 3490W        W 7234   4.107   3.331   2.522 -0.1894  0.2572  0.0478
 3491W        W 7235   7.655   1.895  12.225 -0.0880 -0.0560 -0.3145
 3492W        W 7236   6.502   4.372   3.750 -0.0335  0.0319 -0.1295
 3493W        W 7237   2.853   0.931   4.166  0.2769 -0.2269 -0.1160
 3494W        W 7238   2.543   9.219   3.082  0.0656  0.0617 -0.2050
 3495W        W 7239   3.377   2.119   1.215  0.0264  0.0377 -0.1889
 3496W        W 7240   2.756   5.192  10.152 -0.3183  0.2712 -0.1104
 3497W        W 7241   6.585   2.859   1.999 -0.1335 -0.2083  0.0782
 3498W        W 7242   6.219   4.097   1.327  0.3128  0.1073  0.0989
 3499W        W 7243   5.928   8.478   1.016  0.2924  0.1888 -0.2380
 3500W        W 7244   9.587   2.197   9.234  0.1206 -0.2645 -0.0645
 3501W        W 7245   4.532   4.933  10.474 -0.1425 -0.2127 -0.2215
 3502W        W 7246   2.843   9.128   9.111 -0.2095  0.0774 -0.0704
 3503W        W 7247   4.078   6.734   1.621 -0.0711  0.0250  0.1635
 3504W        W 7248   7.064   6.904   4.256 -0.3696  0.1038 -0.3199
 3505W        W 7249   0.379   2.242   3.768  0.0826 -0.2013  0.1286
 3506W        W 7250   9.567   9.634   1.911 -0.0813 -0.0144  0.2009
 3507W        W 7251   1.092   4.532  10.443  0.0110 -0.0983  0.2063
 3508W        W 7252   1.539   0.886   1.007 -0.0228  0.1127  0.1304
 3509W        W 7253   3.919   3.013   0.400 -0.2274 -0.1397  0.1991
 3510W        W 7254   3.236   6.899   1.046  0.1371  0.0967  0.3197
 3511W        W 7255   6.531   3.346  10.883 -0.0638 -0.0549 -0.0867
 3512W        W 7256   7.868   7.922   2.455  0.0569 -0.1068 -0.0939
 3513W        W 7257   0.583   3.641   2.065  0.2241 -0.1376 -0.0415
 3514W        W 7258   6.671   2.120   2.816 -0.0159 -0.1761 -0.0224
 3515W        W 7259   4.089   0.857   4.164 -0.3347 -0.1749 -0.0422
 3516W        W 7260   5.775   7.219  12.102  0.4041  0.0095  0.1330
 3517W        W 7261   6.941   8.590   3.064  0.2207  0.3408  0.5483
 3518W        W 7262   4.926   8.566   8.952 -0.0202  0.1075 -0.3211
 3519W        W 7263   4.835   7.404  10.989  0.0675 -0.1995 -0.2094
 3520W        W 7264   7.876   4.352   0.739  0.0630  0.0080 -0.0783
 3521W        W 7265   7.598   2.720   9.474  0.3607  0.0623  0.1835
 3522W        W 7266   4.911   1.306   2.999 -0.2377 -0.0048  0.1828
 3523W        W 7267   2.085   3.628  10.725  0.0815 -0.0037  0.1172
 3524W        W 7268   5.007   3.598  12.127  0.1470 -0.0486  0.1773
 3525W        W 7269   9.646   7.723   2.563 -0.0479 -0.1321  0.2834
 3526W        W 7270   9.223   8.050  11.334 -0.1363  0.0462 -0.1354
 3527W        W 7271   2.419   7.622  11.085 -0.0049  0.0889  0.1286
 3528W        W 7272   9.191   7.029   9.982 -0.0225  0.0889  0.0384
 3529W        W 7273   5.097   0.859  10.629 -0.2027 -0.0258  0.1064
 3530W        W 7274   7.502   2.703  10.398 -0.0849  0.0778  0.1903
 3531W        W 7275   5.411   0.922   0.838  0.1449  0.4526 -0.0676
 3532W        W 7276   4.317   4.036  11.310  0.2804 -0.0617  0.2365
 3533W        W 7277   9.278   0.030  10.655  0.0430 -0.2718 -0.0314
 3534W        W 7278   5.242   4.472   2.229  0.0824  0.2342  0.2898
 3535W        W 7279   0.503   1.096   9.310  0.0108  0.0078 -0.2019
 3536W        W 7280   8.728   7.316   3.426  0.0423 -0.1501  0.4846
 3537W        W 7281   6.255   3.172   0.707 -0.1584 -0.1664  0.1651
 3538W        W 7282   6.426   8.864  10.552 -0.0194  0.0001  0.1808
 3539W        W 7283   1.051   8.662  11.864 -0.1553  0.2407 -0.1994
 3540W        W 7284   1.169   7.597   1.059  0.1070 -0.0003  0.0779
 3541W        W 7285   4.030   7.926   2.413 -0.2624  0.4095 -0.0162
 3542W        W 7286   7.425   0.684   0.531  0.2891  0.0832 -0.0633
 3543W        W 7287   7.752   2.061   4.885  0.0921 -0.3103  0.2589
 3544W        W 7288   7.891   6.426   2.653  0.0293  0.0534  0.0534
 3545W        W 7289   8.792   7.617   2.957 -0.5066  0.0189  0.2317
 3546W        W 7290   2.319   5.294  10.289  0.0893 -0.0097 -0.2096
 3547W        W 7291   1.748   4.334   2.692  0.1988  0.0827 -0.2551
 3548W        W 7292   6.203   9.638   1.252 -0.0833  0.2878 -0.0672
 3549W        W 7293   7.086  10.125   1.865 -0.2667  0.1128  0.0821
 3550W        W 7294   9.235   8.499   5.055 -0.0990  0.1276  0.3193
 3551W        W 7295   7.833   6.514  11.831  0.0231 -0.1606  0.3432
 3552W        W 7296   9.128   0.259   2.957 -0.1764  0.1163 -0.0671
 3553W        W 7297   6.106   8.083   3.750 -0.1583 -0.0616  0.0830
 3554W        W 7298   6.256   5.907   8.145  0.2160 -0.0282 -0.3773
 3555W        W 7299   2.971   9.906  10.214 -0.0932 -0.2133 -0.3719
 3556W        W 7300   8.524  10.084  10.083  0.0585  0.1431  0.0582
 3557W        W 7301   8.852   0.753   3.732 -0.0396 -0.2560 -0.5169
 3558W        W 7302   3.179   1.333   2.147  0.1642  0.3013 -0.1195
 3559W        W 7303   8.808   9.365  11.434 -0.2828 -0.1389 -0.1730
 3560W        W 7304   7.256   0.477   4.176 -0.0804  0.0463  0.0068
 3561W        W 7305   3.554  10.105   1.036 -0.2052  0.0480 -0.2550
 3562W        W 7306   5.581   2.947   0.237 -0.2200 -0.3305  0.2409
 3563W        W 7307   4.989   1.278   1.359  0.0432  0.0300 -0.0594
 3564W        W 7308   9.667   3.112  11.798 -0.2716  0.1288  0.1953
 3565W        W 7309   9.225   8.863  12.124  0.0321 -0.0001  0.2338
 3566W        W 7310  10.084   0.411   9.747  0.1685 -0.0279  0.0817
 3567W        W 7311   4.494   7.689  11.656 -0.0991  0.1153 -0.5605
 3568W        W 7312   6.148   9.907   9.090 -0.0088  0.1548  0.2172
 3569W        W 7313   7.365   4.863   4.172 -0.1997 -0.1843  0.2887
 3570W        W 7314   6.886   6.617   0.814 -0.0407  0.2927 -0.1111
 3571W        W 7315   5.847   3.975   9.337 -0.1725  0.3174 -0.0058
 3572W        W 7316   5.464   4.680   9.709 -0.2799  0.1176 -0.2425
 3573W        W 7317   6.215   0.744   8.630 -0.0599 -0.2866  0.1613
 3574W        W 7318   2.175   7.225  12.126 -0.1617  0.3863 -0.2576
 3575W        W 7319   4.526   9.476   4.996 -0.3431  0.2640 -0.1025
 3576W        W 7320   8.585   9.560  10.191 -0.1197 -0.0790  0.1539
 3577W        W 7321   7.932   2.378   3.352 -0.0721  0.0996 -0.2001
 3578W        W 7322   2.393   4.915   2.795  0.0460  0.0297  0.0189
 3579W        W 7323   1.596   9.951   8.708  0.1407  0.1040  0.1207
 3580W        W 7324   2.347   9.305   3.570 -0.2296  0.2024 -0.0298
 3581W        W 7325   3.452   0.714   0.459 -0.1522 -0.0979 -0.3037
 3582W        W 7326   1.066   3.014  11.413 -0.4753 -0.1434  0.1230
 3583W        W 7327   5.725   5.845   8.194 -0.1796  0.1074  0.0810
 3584W        W 7328   5.721   8.223  12.234 -0.2058 -0.2366 -0.0150
 3585W        W 7329   8.842   3.305   9.944 -0.0454 -0.1373 -0.3287
 3586W        W 7330   8.073   2.885   9.552  0.0660  0.0183  0.1943
 3587W        W 7331   1.563   3.678  11.249 -0.1922  0.0284 -0.0554
 3588W        W 7332   3.393   0.536   0.971 -0.0887  0.0687 -0.0541
 3589W        W 7333   1.972   6.310   1.292 -0.0287 -0.0112  0.1124
 3590W        W 7334   4.452   3.077  10.101  0.0296  0.2652  0.2314
 3591W        W 7335   2.850   6.781  10.609  0.1187 -0.1809 -0.0114
 3592W        W 7336   9.500   5.707   0.305  0.1005  0.2212 -0.1243
 3593W        W 7337   4.419   7.270   1.927  0.0737  0.0522 -0.0075
 3594W        W 7338   6.144   5.034   0.878  0.0583  0.1347  0.0611
 3595W        W 7339   1.349   1.411  10.265 -0.0972 -0.0122  0.0112
 3596W        W 7340   4.073   4.830   2.515  0.0870  0.1345 -0.3029
 3597W        W 7341   3.110   4.222   9.196 -0.0593 -0.0809 -0.3246
 3598W        W 7342   6.246   7.740   2.487  0.1448  0.0922  0.0412
 3599W        W 7343   9.985   3.080   9.908  0.1785 -0.1710 -0.1418
 3600W        W 7344   1.951   9.067   0.248 -0.0040 -0.1305 -0.2279
 3601W        W 7345   0.207   5.527   0.194  0.1861 -0.0611 -0.0531
 3602W        W 7346   5.465   2.031  11.315 -0.2357 -0.2689  0.2060
 3603W        W 7347   3.589   0.503  10.318  0.0544 -0.1466 -0.2147
 3604W        W 7348   6.434   3.400   2.916 -0.3213 -0.1743  0.1889
 3605W        W 7349   3.853   1.281   8.989  0.2232  0.0435  0.1034
 3606W        W 7350   2.141   0.325   0.518  0.0224  0.0313  0.1908
 3607W        W 7351   7.984   5.597   0.636 -0.0258 -0.1941 -0.2267
 3608W        W 7352   9.795   1.789  11.377 -0.1742 -0.1253 -0.0355
 3609W        W 7353   4.813   1.915   9.977  0.2274 -0.1250 -0.1323
 3610W        W 7354   5.056   5.361  10.487 -0.1768  0.0709  0.5444
 3611W        W 7355   3.374   6.248   1.505 -0.2280 -0.2496  0.0789
 3612W        W 7356   0.060   7.474   9.852  0.0380 -0.0665  0.0707
 3613W        W 7357   3.642   8.226   2.455  0.0437  0.2970 -0.4122
 3614W        W 7358   3.596   3.517   2.377 -0.4451 -0.0989 -0.0188
 3615W        W 7359   6.808   3.655  11.243 -0.1433 -0.0321 -0.1406
 3616W        W 7360   0.112   8.941   3.072 -0.1737  0.1383 -0.0586
 3617W        W 7361   1.227   8.400   4.050 -0.0083  0.2338 -0.0400
 3618W        W 7362   9.331   7.821  10.887  0.0285 -0.2406 -0.1153
 3619W        W 7363   3.579   5.372   8.969 -0.0159 -0.2599 -0.0935
 3620W        W 7364   0.570   2.754  10.449  0.4098 -0.4146 -0.2415
 3621W        W 7365   9.068   1.158   9.628  0.2318 -0.0544  0.1359
 3622W        W 7366   8.347   0.716   9.182 -0.0228  0.1546  0.0211
 3623W        W 7367   5.717   9.188   9.302  0.2182  0.2069  0.3126
 3624W        W 7368   4.923   8.486   4.220 -0.1489 -0.0729 -0.0165
 3625W        W 7369   5.906   8.329  11.190 -0.2973  0.1565  0.3312
 3626W        W 7370   2.874   8.158   1.143 -0.2483  0.0731 -0.1914
 3627W        W 7371   9.248   0.051  10.123 -0.0075 -0.2616  0.0513
 3628W        W 7372   6.946   0.007   5.146  0.0264  0.1668 -0.2272
 3629W        W 7373   0.263   5.705   1.632  0.0412 -0.1490 -0.0651
 3630W        W 7374   2.934   2.443   3.023 -0.2854  0.0078  0.1472
 3631W        W 7375   2.384   8.589   3.113 -0.2135 -0.0717 -0.0558
 3632W        W 7376   9.481   7.704   1.977 -0.3627 -0.0579  0.1333
 3633W        W 7377   4.101   5.136  11.436  0.0859  0.1823  0.3240
 3634W        W 7378   5.915   9.106  12.020  0.0395  0.3117  0.0753
 3635W        W 7379   6.246   8.051   9.912  0.3634 -0.2202 -0.0107
 3636W        W 7380   1.566   4.761   9.651  0.3150  0.1542 -0.3990
 3637W        W 7381   9.026   5.042   3.112 -0.1248 -0.2184 -0.0450
 3638W        W 7382   3.646   4.329   0.713  0.1950 -0.0602 -0.1596
 3639W        W 7383   1.007   4.542   3.498 -0.1268 -0.2394 -0.0513
 3640W        W 7384   9.972   9.439   1.641  0.0040 -0.1718 -0.2247
 3641W        W 7385   4.469   2.619   2.960 -0.0224  0.1121  0.2654
 3642W        W 7386   5.255   7.643   1.151 -0.0472 -0.1003  0.0032
 3643W        W 7387   4.628   1.389  10.064  0.1554 -0.5046 -0.0986
 3644W        W 7388   5.355   1.688  11.853  0.3751  0.2341  0.1253
 3645W        W 7389   1.641   5.977   2.853  0.0117 -0.2346  0.0471
 3646W        W 7390   5.771   5.607   2.488  0.1587  0.0127 -0.1608
 3647W        W 7391  10.096   8.074   2.474 -0.1216 -0.0174 -0.1437
 3648W        W 7392   9.052   6.977   2.413 -0.0239 -0.1971 -0.3051
 3649W        W 7393   6.371   0.773   9.094 -0.3610 -0.1235  0.1427
 3650W        W 7394   6.198   4.001   0.086 -0.3388  0.1641 -0.0748
 3651W        W 7395   3.067   6.965  11.494  0.0398  0.0379 -0.2454
 3652W        W 7396   6.860  10.122   3.668  0.0697 -0.0373  0.2445
 3653W        W 7397   9.366   5.909  12.210 -0.1348  0.0109  0.0328
 3654W        W 7398   6.698   5.482   1.442 -0.1906 -0.0541 -0.0169
 3655W        W 7399   9.969   4.807  11.825  0.1583 -0.0791 -0.3841
 3656W        W 7400   0.144   5.653   9.309 -0.2873 -0.1323 -0.1736
 3657W        W 7401   4.227   6.846  10.753 -0.0608 -0.1441  0.3487
 3658W        W 7402   3.122   2.931   1.793 -0.0809  0.1306 -0.1280
 3659W        W 7403   8.139   6.207  11.526 -0.1054 -0.1174 -0.1911
 3660W        W 7404   9.443   9.173   1.945  0.0494  0.1297  0.3690
 3661W        W 7405   6.935   1.277   3.573  0.0240 -0.3642  0.1160
 3662W        W 7406   1.605   6.654   2.613 -0.1195 -0.1318 -0.0565
 3663W        W 7407   0.293   7.871   2.024  0.2372 -0.1138  0.1173
 3664W        W 7408  10.100   2.833  12.067 -0.1747 -0.1466 -0.0913
 3665W        W 7409   9.900   3.723   1.547  0.1270 -0.1512  0.0337
 3666W        W 7410   8.559   1.856   1.473  0.5376 -0.1582 -0.2162
 3667W        W 7411   6.947   7.560   0.582 -0.0551  0.2615  0.0083
 3668W        W 7412   7.264   8.793  10.269 -0.1065 -0.0405  0.0032
 3669W        W 7413   4.823   0.508   1.848 -0.0626  0.0913  0.0907
 3670W        W 7414   0.505   6.094  11.313  0.0211  0.1573  0.2297
 3671W        W 7415   0.645   9.542  10.151  0.0225 -0.0000 -0.3215
 3672W        W 7416   3.124   3.230  10.059  0.0691  0.0730  0.2574
 3673W        W 7417   6.297   9.782  10.921  0.0164 -0.1658  0.2653
 3674W        W 7418   6.917   0.462   0.437 -0.0042  0.2322 -0.0896
 3675W        W 7419   0.329   6.808   3.815 -0.0960 -0.1997 -0.0369
 3676W        W 7420   5.232   9.193   2.751  0.0761 -0.0632 -0.2387
 3677W        W 7421   0.293   3.044  10.151  0.0659 -0.1512  0.0157
 3678W        W 7422   0.044   2.224   8.346 -0.2848  0.0003  0.3070
 3679W        W 7423   0.250   0.049   9.659 -0.0492 -0.0389 -0.1742
 3680W        W 7424   3.991   0.910   1.679  0.2329  0.0267 -0.3826
 3681W        W 7425   2.089   7.640   8.659 -0.0790 -0.3125 -0.4105
 3682W        W 7426   2.475   0.350   1.418 -0.4418  0.3043 -0.1315
 3683W        W 7427   0.432   7.342   2.283  0.2306 -0.0404  0.0277
 3684W        W 7428   5.275   8.968  12.325 -0.0554 -0.2174 -0.0956
 3685W        W 7429   0.288   7.637  12.274 -0.0090 -0.0955 -0.2463
 3686W        W 7430   2.428   0.115   9.175  0.5714  0.1590 -0.1457
 3687W        W 7431   1.784   3.591   8.145 -0.4962  0.0400 -0.3462
 3688W        W 7432   9.584   9.045   4.233 -0.2726  0.1845  0.1781
 3689W        W 7433   4.419   3.460  12.180 -0.1986 -0.1938 -0.1931
 3690W        W 7434   8.050   6.549   0.996 -0.3167  0.1457 -0.2146
 3691W        W 7435   2.397   0.675   2.544  0.0891 -0.1999 -0.3286
 3692W        W 7436   5.095   1.757   3.388  0.0070  0.0926  0.0843
 3693W        W 7437   8.936   5.803   2.059  0.2645 -0.1397  0.2444
 3694W        W 7438   9.431   1.098   0.629 -0.1861 -0.4165  0.4082
 3695W        W 7439   0.287   6.433  10.379 -0.0816  0.2603 -0.2999
 3696W        W 7440   9.674   9.800   3.456 -0.0359  0.2849 -0.4390
 3697W        W 7441   4.390   5.445  11.123  0.0627 -0.2062  0.1517
 3698W        W 7442   5.255   2.262   2.626  0.3234  0.2298 -0.0435
 3699W        W 7443   8.005   4.380  12.011  0.0528  0.0313 -0.0473
 3700W        W 7444   5.085   3.491   4.507 -0.0440  0.3490  0.1308
 3701W        W 7445   7.445   0.580   3.097  0.1395  0.4478 -0.2580
 3702W        W 7446   1.359   9.374   3.787 -0.1930 -0.1315 -0.0904
 3703W        W 7447   5.680   2.531   2.196  0.0755  0.1916  0.2241
 3704W        W 7448   7.574   2.177   4.389 -0.1519 -0.1241  0.0745
 3705W        W 7449   8.791   6.134  11.570 -0.1988  0.3488  0.0981
 3706W        W 7450   7.738   6.123   9.131 -0.2555  0.0647 -0.1875
 3707W        W 7451   0.630   7.155   3.594  0.1115 -0.0789  0.0539
 3708W        W 7452   0.577   8.684   1.945  0.3052 -0.1507 -0.1136
 3709W        W 7453   5.324   2.392   4.140 -0.0430  0.0025  0.2483
 3710W        W 7454   7.016   8.263   8.872  0.1834 -0.1276 -0.4760
 3711W        W 7455   7.593   7.391  10.454 -0.1290  0.2367 -0.0155
 3712W        W 7456   9.530   8.779   4.683 -0.4690 -0.0015 -0.2497
 3713W        W 7457   4.554   5.646  10.206 -0.3326 -0.0181 -0.0320
 3714W        W 7458   2.103   6.632   3.928 -0.0919 -0.0225 -0.2319
 3715W        W 7459   7.147   1.955   0.572 -0.1158  0.1365 -0.0264
 3716W        W 7460   5.232   1.547   1.671  0.0240  0.2677  0.0814
 3717W        W 7461   6.894   5.207   1.878 -0.0138  0.1992  0.0213
 3718W        W 7462   2.663   6.577   1.103  0.1033 -0.1636 -0.2566
 3719W        W 7463   3.078   9.992   1.877  0.1471  0.1024  0.1366
 3720W        W 7464   5.534   3.130   1.328  0.0811 -0.3195  0.0083
 3721W        W 7465   0.274   1.898  11.870 -0.1706  0.1346  0.0256
 3722W        W 7466   1.870  10.093  10.916 -0.0436 -0.1050 -0.0480
 3723W        W 7467   0.335   2.636  10.860 -0.0571  0.3777 -0.2361
 3724W        W 7468   4.774   4.926   1.794 -0.2084 -0.0516  0.2410
 3725W        W 7469   7.288   3.425   2.998  0.0719 -0.2948  0.3387
 3726W        W 7470   4.236   5.061   9.295 -0.1726  0.0778  0.0260
 3727W        W 7471   1.751   0.453  10.694 -0.2203  0.2220  0.0390
 3728W        W 7472   9.625   7.080   3.305  0.0951  0.0963 -0.1045
 3729W        W 7473   6.663   5.272   9.608 -0.4610  0.1073 -0.0957
 3730W        W 7474   4.127   9.670  12.202 -0.0020 -0.2102  0.1479
 3731W        W 7475   4.987   3.421   3.268 -0.0070 -0.1497  0.0890
 3732W        W 7476   5.231   8.805   4.533  0.0391  0.3680  0.0342
 3733W        W 7477   5.111   8.686   3.637 -0.0323 -0.1600 -0.1608
 3734W        W 7478   0.650   0.123  12.265 -0.2207 -0.1382 -0.0352
 3735W        W 7479   0.154   0.695   2.131 -0.1367  0.0273 -0.0439
 3736W        W 7480   3.546   4.583  10.629 -0.1843  0.1166  0.2831
 3737W        W 7481   5.258   1.452   9.394 -0.0059 -0.0516 -0.1848
 3738W        W 7482   8.246   7.963   3.385 -0.0990 -0.1431  0.0902
 3739W        W 7483   7.081   6.754   4.761  0.3830  0.2403  0.2062
 3740W        W 7484   5.775  10.112   2.186 -0.1698 -0.0066  0.3091
 3741W        W 7485   4.771   1.399  12.173 -0.2310 -0.0568 -0.3662
 3742W        W 7486   9.851   8.049   4.268 -0.4766 -0.1432  0.3597
 3743W        W 7487   4.985   7.378   9.514 -0.1875 -0.3055 -0.3426
 3744W        W 7488   1.664   3.698   9.435  0.1084 -0.0371  0.3565
 3745W        W 7489   0.375   4.534   2.221 -0.0193 -0.0947 -0.0145
 3746W        W 7490   8.170   4.159  10.288  0.1495 -0.2560 -0.0061
 3747W        W 7491   4.875   5.986   8.908 -0.1852  0.0191  0.1364
 3748W        W 7492   2.011   0.938   2.187 -0.0272  0.1883 -0.0282
 3749W        W 7493   8.389   2.632   2.500  0.0686 -0.1603 -0.0452
 3750W        W 7494   0.787   9.416   8.426  0.1822 -0.1998 -0.3901
 3751W        W 7495   6.820   0.479   3.861  0.0084 -0.1599 -0.1838
 3752W        W 7496   8.315   1.381   0.895  0.2667  0.1831  0.0566
 3753W        W 7497   8.979   9.853   9.346  0.0114  0.2213  0.2056
 3754W        W 7498   2.202   6.908  10.407 -0.3873 -0.2363 -0.1809
 3755W        W 7499   7.213   5.711   1.856  0.0590  0.2498  0.3854
 3756W        W 7500   7.160   3.142  10.437  0.0272 -0.2919  0.0575
 3757W        W 7501   3.317   3.367   0.750 -0.1423  0.0284 -0.0990
 3758W        W 7502   8.825   9.298   3.099 -0.1606 -0.3114  0.0245
 3759W        W 7503   3.182   6.884   1.945 -0.1162 -0.0123 -0.1224
 3760W        W 7504   2.572   9.370  11.055  0.0237 -0.1144  0.0952
 3761W        W 7505   3.434   5.212  10.747  0.2484  0.1350 -0.0614
 3762W        W 7506   8.220   0.312   2.487  0.0714  0.0089  0.2632
 3763W        W 7507   4.990   2.375   0.992  0.0356  0.1178 -0.3725
 3764W        W 7508   4.214   5.806   3.816 -0.2119  0.0105 -0.2248
 3765W        W 7509   9.108   0.219   9.440  0.0128  0.1319 -0.1978
 3766W        W 7510   7.692   1.764   4.070  0.1892 -0.0657  0.0376
 3767W        W 7511   6.970   4.526   4.011  0.0425  0.0803 -0.4933
 3768W        W 7512   3.711   8.351  11.851 -0.1891 -0.0415  0.2570
 3769W        W 7513   9.325   9.655   3.820 -0.0093  0.0008  0.1601
 3770W        W 7514   4.925   4.706   8.519 -0.1781  0.1290  0.4883
 3771W        W 7515   7.301   0.594   3.592 -0.1112 -0.1045 -0.0670
 3772W        W 7516   2.368   8.306   2.715 -0.1458 -0.3163  0.0431
 3773W        W 7517   2.459   5.094  11.525 -0.1224 -0.0505 -0.0243
 3774W        W 7518   1.328   3.182   0.003 -0.3949 -0.0969  0.2256
 3775W        W 7519   8.224   3.120   2.619  0.0283 -0.2731 -0.1604
 3776W        W 7520   7.580   4.685  10.087 -0.1936 -0.2119  0.0023
 3777W        W 7521   6.134   2.023   9.401 -0.4428  0.3791 -0.0810
 3778W        W 7522   2.301   3.312  11.096  0.1214 -0.0635  0.1315
 3779W        W 7523   6.467   3.100   0.212  0.1142  0.2157 -0.0244
 3780W        W 7524   9.588   4.563  10.935 -0.1527  0.0867  0.0486
 3781W        W 7525   1.497   5.231   9.817 -0.0012 -0.1802 -0.0308
 3782W        W 7526   3.729  10.122  10.678 -0.1587  0.1223  0.1308
 3783W        W 7527   1.657   9.620  10.870  0.0143  0.2070 -0.1627
 3784W        W 7528   6.999   0.274   7.961 -0.0190  0.1727  0.2426
 3785W        W 7529   8.484   7.625   1.921  0.1188 -0.1077  0.1151
 3786W        W 7530   7.764   4.049   2.406  0.0886 -0.0863  0.0942
 3787W        W 7531   8.035   9.393   4.786 -0.2918 -0.2752 -0.1230
 3788W        W 7532   0.788   3.096   3.464 -0.1465 -0.0457 -0.0798
 3789W        W 7533   1.093   0.597   0.548 -0.1606  0.0214  0.3112
 3790W        W 7534   2.633   0.612   0.504  0.2698 -0.2546 -0.0709
 3791W        W 7535   6.646   1.487   2.587 -0.1016 -0.1113  0.0930
 3792W        W 7536   3.082   5.023  11.035  0.1159  0.0071 -0.1273
 3793W        W 7537   5.303   2.663  10.508 -0.1145 -0.0116  0.2017
 3794W        W 7538   1.872   1.253   0.805 -0.0150 -0.3092 -0.0755
 3795W        W 7539   1.386   4.506   2.144  0.4933 -0.1917 -0.3209
 3796W        W 7540   8.973   5.781   0.158  0.2451  0.0986  0.2217
 3797W        W 7541   1.032   3.941   9.875 -0.1213 -0.0023  0.0593
 3798W        W 7542   8.032   1.767   1.691  0.1262  0.0786  0.0469
 3799W        W 7543   6.843   2.799  10.065 -0.1135 -0.0738 -0.5258
 3800W        W 7544   2.490   6.699   9.178  0.1598  0.0734 -0.0611
 3801W        W 7545   9.244   5.443   2.183  0.1581 -0.0996  0.0882
 3802W        W 7546   1.903   3.116  11.909  0.1501 -0.1076  0.2477
 3803W        W 7547   7.454   0.155   0.499  0.0825 -0.1788 -0.1299
 3804W        W 7548   9.548   0.269   2.395 -0.2119  0.0464 -0.2026
 3805W        W 7549   6.620   5.031  11.639 -0.1906  0.3229 -0.0054
 3806W        W 7550   1.827   9.452   4.722 -0.1748 -0.1545  0.2404
 3807W        W 7551   8.019   9.303   2.309  0.0782 -0.1448  0.0738
 3808W        W 7552   3.000   3.877   3.360  0.0041 -0.0100 -0.1719
 3809W        W 7553   4.814   9.116   2.486  0.2215  0.3314  0.0108
 3810W        W 7554   9.002   5.459   9.576  0.0927  0.2627 -0.0064
 3811W        W 7555   8.338   9.222   8.683  0.1573  0.1240 -0.1013
 3812W        W 7556   6.427   1.198   1.750 -0.1246  0.4091 -0.2203
 3813W        W 7557   2.364   4.292   1.444  0.0810  0.0942  0.1513
 3814W        W 7558   4.419   1.697   4.183  0.2158 -0.3187  0.2471
 3815W        W 7559   1.712   1.098  11.466  0.0665 -0.0520 -0.0890
 3816W        W 7560   0.749   6.834  10.579  0.2203  0.3246  0.4295
 3817W        W 7561   2.326   4.490   9.753 -0.1151 -0.2390 -0.0202
 3818W        W 7562   3.559   3.481  10.149  0.0042 -0.1094  0.0537
 3819W        W 7563   1.431   1.840   3.436 -0.0689  0.0245 -0.0618
 3820W        W 7564   4.306   2.153   3.208 -0.3565  0.2052 -0.0019
 3821W        W 7565   7.964   9.957   8.771  0.0865  0.2229 -0.1032
 3822W        W 7566   9.311   6.784   3.015  0.0113  0.1925  0.1720
 3823W        W 7567   9.177   2.171   1.812 -0.0470 -0.4536 -0.1070
 3824W        W 7568   2.243   1.934  12.233  0.1592  0.2690  0.3237
 3825W        W 7569   5.275   3.823   3.795  0.2910 -0.0787 -0.4586
 3826W        W 7570   3.804   2.220   4.529  0.0230  0.0887  0.1315
 3827W        W 7571   5.806   1.211  10.163 -0.1594 -0.1868 -0.2552
 3828W        W 7572   1.607   4.535   8.735  0.1996 -0.5522  0.0164
 3829W        W 7573   9.975   4.802   2.211 -0.3035  0.0800 -0.2144
 3830W        W 7574   3.160   0.374   9.927 -0.1054 -0.0856 -0.0253
 3831W        W 7575   5.854   1.261  11.026  0.0279  0.1116 -0.2584
 3832W        W 7576   9.521   0.127   1.061  0.1761  0.0186  0.2949
 3833W        W 7577   4.855   6.452   1.637 -0.1333 -0.1263  0.4880
 3834W        W 7578   1.874   7.467  10.520  0.0099 -0.2707  0.0507
 3835W        W 7579   6.798   9.397   9.735 -0.3968  0.0241  0.0645
 3836W        W 7580   1.503   9.824   9.784  0.2552  0.0898 -0.2022
 3837W        W 7581   5.491   8.396   2.564  0.0377  0.1119  0.0244
 3838W        W 7582   8.836   8.300   3.680 -0.1297  0.0529  0.0018
 3839W        W 7583   3.463   8.248   4.142  0.0364  0.0952 -0.0369
 3840W        W 7584   9.277   5.650  11.769 -0.0813 -0.0968 -0.0556
 3841W        W 7585   2.425   8.989   0.618 -0.2593  0.1906  0.0720
 3842W        W 7586   1.818   1.546   3.357  0.1039  0.0682 -0.1584
 3843W        W 7587   4.189   7.110   9.460  0.0011 -0.0786 -0.1250
 3844W        W 7588   6.916   7.433   4.347  0.0592 -0.2699  0.2622
 3845W        W 7589   1.558   3.258   8.516 -0.0138  0.0084 -0.2440
 3846W        W 7590   6.886   7.191   3.007  0.1545 -0.0822 -0.0527
 3847W        W 7591   7.839   8.081   9.943  0.1980  0.0077 -0.1699
 3848W        W 7592   7.618   6.615   0.556 -0.1568 -0.0535  0.2294
 3849W        W 7593   9.025   4.558  11.448  0.0099 -0.0023  0.0204
 3850W        W 7594   4.231   3.260   1.591 -0.4208 -0.1674 -0.2844
 3851W        W 7595   0.487   1.358   9.766 -0.0739  0.2014 -0.1372
 3852W        W 7596   4.638   6.648   8.270  0.2753  0.0919 -0.1189
 3853W        W 7597   1.111   0.323   2.032 -0.2182  0.0040  0.2504
 3854W        W 7598   5.929   7.584   5.215  0.1760  0.0708  0.1759
 3855W        W 7599   2.887   1.424   4.223  0.0355  0.0612 -0.0785
 3856W        W 7600   7.175   7.645  10.785  0.1136 -0.1334  0.1323
 3857W        W 7601   2.028   8.391   1.056  0.2380  0.1897 -0.2254
 3858W        W 7602   7.903   8.309  11.627  0.1724 -0.1636  0.2545
 3859W        W 7603   2.437   4.985  12.051 -0.2014 -0.1151 -0.0980
 3860W        W 7604   3.730   1.760   3.355 -0.1097 -0.2605 -0.0567
 3861W        W 7605   6.570   7.909   2.002 -0.3797 -0.0952  0.1681
 3862W        W 7606   4.107   8.090  11.805  0.1521 -0.1024  0.2318
 3863W        W 7607   9.420   2.225   0.452 -0.0572  0.2322 -0.0957
 3864W        W 7608   1.521   9.285   9.814  0.4404 -0.0655 -0.3210
 3865W        W 7609   2.322   9.894   2.639  0.0301 -0.0808  0.2436
 3866W        W 7610   2.209   1.911   9.457 -0.0289 -0.1034  0.0387
 3867W        W 7611   5.793   8.805   1.461  0.2392 -0.2304  0.0840
 3868W        W 7612   9.486   5.532   8.756  0.0086  0.1739  0.2126
 3869W        W 7613   2.924  10.010   8.932  0.1495 -0.1360  0.3929
 3870W        W 7614   6.856   4.823   3.120  0.2274 -0.3713  0.2906
 3871W        W 7615   5.517  10.028   0.632 -0.5562  0.1093  0.0798
 3872W        W 7616   5.035   4.097   9.825  0.0710 -0.0340  0.0983
 3873W        W 7617   9.993  10.057   3.799 -0.0539 -0.1675 -0.3987
 3874W        W 7618   8.942   2.870   0.179 -0.5008 -0.1350 -0.0727
 3875W        W 7619   0.416   4.482  10.678  0.1892  0.1513 -0.0951
 3876W        W 7620   1.737   4.792   9.142  0.0874 -0.0873  0.1303
 3877W        W 7621   8.945   2.612   4.797  0.2789 -0.1509 -0.1597
 3878W        W 7622   3.328   5.926  10.196 -0.2175 -0.0648  0.1803
 3879W        W 7623   9.812   8.753  10.404  0.0769 -0.2582 -0.0987
 3880W        W 7624   3.252   7.762   9.374  0.0942 -0.2878 -0.2353
 3881W        W 7625   9.658   7.224   1.263 -0.3212 -0.1413 -0.3716
 3882W        W 7626   2.706   6.001   2.897 -0.1291  0.0230 -0.3662
 3883W        W 7627   1.927   4.636   1.231 -0.0202 -0.2000 -0.0492
 3884W        W 7628   0.101   2.885   1.809 -0.0703 -0.2568 -0.1684
 3885W        W 7629   4.342   4.497   3.198 -0.1747  0.2131 -0.1719
 3886W        W 7630   7.024   4.733   1.035 -0.0395  0.1991  0.0445
 3887W        W 7631   4.005   2.309   9.582 -0.1374  0.3057 -0.4458
 3888W        W 7632   7.317   7.370   0.213 -0.5479  0.1050 -0.0290
 3889W        W 7633   2.021   8.769   0.700 -0.0624 -0.1358 -0.1106
 3890W        W 7634   8.870   4.039   9.790 -0.1521  0.1722 -0.4446
 3891W        W 7635   6.000   3.143   0.285 -0.1430  0.0396 -0.1535
 3892W        W 7636   0.567   6.914  11.380 -0.1379 -0.2156  0.3210
 3893W        W 7637   9.970   1.365   3.570 -0.2513  0.0190  0.0299
 3894W        W 7638   5.844   1.333   3.527 -0.3341 -0.0427 -0.0196
 3895W        W 7639   5.441   1.163   9.839  0.3588 -0.2651 -0.0860
 3896W        W 7640   8.260   6.232  10.773  0.1344 -0.1785  0.1948
 3897W        W 7641   5.643   1.867   9.592  0.0832  0.4006 -0.1407
 3898W        W 7642   1.753   8.446   3.870 -0.1630  0.0832 -0.2345
 3899W        W 7643   5.710   6.830   1.005 -0.1228  0.0108 -0.2134
 3900W        W 7644   1.688   7.765   2.001  0.2350  0.3014  0.1300
 3901W        W 7645   5.828   9.208   3.815  0.1080 -0.0238 -0.1087
 3902W        W 7646   7.493   0.015  10.108  0.0510 -0.2988 -0.1713
 3903W        W 7647   6.529   5.722   9.812 -0.2679  0.0759  0.0230
 3904W        W 7648   0.133   1.761   3.637 -0.1045  0.0964  0.0428
 3905W        W 7649   1.933   4.280   3.190 -0.2084 -0.1233 -0.2212
 3906W        W 7650   9.249   6.212   3.693  0.5639 -0.0317 -0.2225
 3907W        W 7651   9.091   8.337   2.008  0.0638  0.0699  0.0010
 3908W        W 7652   2.850   6.271   1.454 -0.0583 -0.1199  0.0084
 3909W        W 7653   4.124   2.289   3.687  0.1641 -0.3769  0.1754
 3910W        W 7654   1.115   6.010  11.198  0.1887  0.2658  0.2055
 3911W        W 7655   9.128   5.564  10.661 -0.0323 -0.0389 -0.1699
 3912W        W 7656   9.419   8.947   0.982 -0.0793  0.1258 -0.0529
 3913W        W 7657   3.042   7.748   2.118  0.0579 -0.1785  0.0475
 3914W        W 7658   5.018   4.343  11.192 -0.0167  0.1089  0.4294
 3915W        W 7659   7.839   5.300  11.180 -0.0434  0.2311 -0.3345
 3916W        W 7660   5.548   1.957  12.354 -0.0679 -0.0154 -0.1062
 3917W        W 7661   7.529   0.795  12.210  0.1768 -0.2876 -0.3938
 3918W        W 7662   5.428   7.294   3.944  0.0273  0.2252  0.2573
 3919W        W 7663   3.714   8.730   0.754  0.0618 -0.2402  0.1158
 3920W        W 7664   2.898   2.195   2.573 -0.0369  0.0843  0.0456
 3921W        W 7665   4.584   8.759  10.836 -0.0058  0.2784  0.1076
 3922W        W 7666   0.605   9.296   2.530 -0.2067 -0.0708  0.0696
 3923W        W 7667   9.515   0.956   1.428 -0.0281 -0.2627  0.0421
 3924W        W 7668   5.143   7.067   4.668  0.3470  0.0851  0.0363
 3925W        W 7669   0.360   5.965   9.650  0.0715 -0.0470 -0.1444
 3926W        W 7670   2.074   9.124   4.392 -0.1496  0.2819  0.3635
 3927W        W 7671   8.971   5.079   2.587 -0.4452  0.2042  0.1379
 3928W        W 7672   2.098   2.858   9.745  0.0744  0.1746  0.0485
 3929W        W 7673   3.106   9.075   3.537  0.1695  0.1076  0.1019
 3930W        W 7674   2.733   5.854   1.166  0.0415 -0.1987  0.0734
 3931W        W 7675   1.530   3.184   9.499 -0.3434 -0.0839 -0.0365
 3932W        W 7676   9.851   2.491   0.467 -0.3464 -0.1136  0.0786
 3933W        W 7677   1.514   8.373   0.693 -0.1127  0.2192  0.3213
 3934W        W 7678   7.246   6.045   4.024  0.1162  0.3468  0.2931
 3935W        W 7679   6.641   4.383   1.403  0.0255  0.2750  0.1054
 3936W        W 7680   4.082   4.136   0.631 -0.0231 -0.2085  0.3758
 3937W        W 7681  10.029   0.513  10.439  0.0672 -0.2543 -0.3916
 3938W        W 7682   7.151   6.141  10.443  0.0913 -0.4382  0.0765
 3939W        W 7683   2.110   7.200   4.720  0.0085  0.1531 -0.1397
 3940W        W 7684   5.838   8.984   8.412 -0.2114  0.0670 -0.3147
 3941W        W 7685   7.407   2.986   3.896 -0.2334  0.1205  0.1624
 3942W        W 7686   6.165   2.609   2.405  0.0170 -0.2556  0.0759
 3943W        W 7687   9.682   7.368   9.922 -0.0025 -0.0437  0.2063
 3944W        W 7688   2.448   6.503   2.036 -0.0817  0.1957 -0.2382
 3945W        W 7689   3.343   5.615  11.517 -0.0711 -0.1911 -0.0919
 3946W        W 7690   3.901   8.403  11.252 -0.0735  0.1340  0.0361
 3947W        W 7691   7.828   3.001   0.708 -0.0412  0.5608 -0.2806
 3948W        W 7692   2.492   2.077   9.002 -0.1457 -0.1428  0.0231
 3949W        W 7693   5.244   1.450  12.282  0.0273 -0.0731 -0.1810
 3950W        W 7694   4.565   0.149  11.234 -0.1071  0.1203 -0.0800
 3951W        W 7695   5.543   6.702   9.082 -0.3432 -0.1482 -0.0253
 3952W        W 7696   2.435   6.027   8.887  0.1162  0.1120  0.1598
 3953W        W 7697   7.000   5.059  11.205  0.1823 -0.0723 -0.0214
 3954W        W 7698   8.004   6.957   3.335 -0.0494 -0.1085  0.0717
 3955W        W 7699   2.824   2.465   0.716 -0.0965 -0.1262  0.1244
 3956W        W 7700   0.338   5.529  11.831  0.0169 -0.0224 -0.2528
 3957W        W 7701   0.685   9.259   1.695  0.0479  0.1136 -0.0828
 3958W        W 7702   8.745   8.311   9.502 -0.3980 -0.0623  0.0282
 3959W        W 7703   4.386   9.190   1.924  0.0956  0.0062  0.2631
 3960W        W 7704   6.059   9.961   0.890 -0.0872 -0.1841  0.0922
 3961W        W 7705   0.033   3.472   1.951 -0.1337  0.0464 -0.0215
 3962W        W 7706   4.296   3.024  10.592  0.0761  0.3896  0.0033
 3963W        W 7707   9.592   1.319   1.074 -0.0350  0.0088 -0.2615
 3964W        W 7708   8.869   3.034   9.173  0.0986  0.4032 -0.1700
 3965W        W 7709   9.534   5.877  10.825 -0.1209  0.1795 -0.1075
 3966W        W 7710   1.802   6.238   0.085 -0.1084  0.2321  0.4166
 3967W        W 7711   1.751   4.476   0.261  0.2833  0.1568 -0.2072
 3968W        W 7712   0.251   8.809   9.912 -0.3025  0.1731 -0.0882
 3969W        W 7713   9.354   3.641   2.155 -0.2609  0.0441 -0.1549
 3970W        W 7714   4.444   6.667  10.257  0.2232  0.1453 -0.0717
 3971W        W 7715   5.173   2.935  10.991 -0.0429  0.1693  0.0149
 3972W        W 7716   0.499   4.110   0.666 -0.0578 -0.2602  0.0320
 3973W        W 7717   3.305   4.088  11.255 -0.1864  0.0127 -0.0262
 3974W        W 7718   4.295   3.125   0.891  0.1735  0.1908  0.1328
 3975W        W 7719   1.872   2.728  11.157  0.0475  0.0193 -0.2019
 3976W        W 7720   3.880   8.700   2.210 -0.1204  0.0921  0.2765
 3977W        W 7721   9.126   5.989   1.565 -0.0714 -0.4097  0.2038
 3978W        W 7722   9.466   7.362   9.376  0.2178  0.1427 -0.0902
 3979W        W 7723   1.864   8.893   1.919  0.0441 -0.0727  0.0800
 3980W        W 7724   4.946   8.244  11.168  0.2465  0.2182  0.2008
 3981W        W 7725   4.464   2.975   2.499  0.0598  0.1282 -0.0775
 3982W        W 7726  10.107   1.203   2.284  0.1996  0.0032 -0.1356
 3983W        W 7727   8.829   3.081   0.788 -0.2380 -0.0663  0.0813
 3984W        W 7728   2.443   7.169   1.801 -0.0509 -0.0781  0.3674
 3985W        W 7729   4.066  10.033  11.337  0.0220 -0.3314  0.1795
 3986W        W 7730   4.291   5.345  10.600 -0.0811  0.0943  0.2264
 3987W        W 7731   0.831   5.425  11.909 -0.1147 -0.0626  0.1432
 3988W        W 7732   3.548   0.579  11.218  0.0547 -0.1920  0.1921
 3989W        W 7733   6.239   5.987   0.836  0.0947  0.0036  0.3165
 3990W        W 7734   1.597   0.243   1.088 -0.0484 -0.2496 -0.0551
 3991W        W 7735   7.197   1.798   9.276  0.0751 -0.0695 -0.0110
 3992W        W 7736   6.020   8.060  10.686 -0.0221 -0.0915 -0.2882
 3993W        W 7737   0.095   3.237  12.351 -0.0206  0.0415  0.0898
 3994W        W 7738   7.544   0.114   3.342 -0.0950  0.0022 -0.2681
 3995W        W 7739   5.960   4.852   0.400 -0.1169 -0.0977 -0.0571
 3996W        W 7740   0.962   7.021   0.991  0.0995 -0.1362  0.3432
 3997W        W 7741   9.843   1.229  10.089 -0.2567 -0.0119  0.0782
 3998W        W 7742   6.356   3.684   5.270 -0.0916 -0.1462 -0.1610
 3999W        W 7743   1.284   0.765  10.890 -0.2528  0.2898  0.1309
 4000W        W 7744   8.737   9.905   2.176 -0.1773 -0.1646  0.0516
 4001W        W 7745   8.996   9.458   2.003  0.1073 -0.1621  0.1828
 4002W        W 7746   1.083   6.078  11.744  0.2137 -0.0819 -0.1545
 4003W        W 7747   1.848   8.235  12.343  0.0502  0.0233  0.0188
 4004W        W 7748   4.857   0.017   4.640  0.0481 -0.2837  0.0751
 4005W        W 7749   6.233   6.372   3.150  0.2345  0.0623 -0.0584
 4006W        W 7750   6.373   8.922   0.704  0.0541  0.1417 -0.0217
 4007W        W 7751   5.131   4.443   1.150  0.1323  0.0060 -0.1797
 4008W        W 7752   4.262   1.674   0.948  0.1927 -0.1097 -0.4220
 4009W        W 7753   7.374   3.171   1.332  0.0979  0.3962 -0.1466
 4010W        W 7754   2.040   9.120   3.011  0.0564 -0.1197 -0.2490
 4011W        W 7755   2.549   4.185   7.972 -0.3022 -0.0349 -0.1528
 4012W        W 7756   3.576   3.097   2.656  0.1746  0.0525 -0.0190
 4013W        W 7757   3.724   1.663   2.812 -0.0654 -0.0952 -0.1493
 4014W        W 7758   0.586   7.770   0.410  0.2341 -0.0681 -0.1879
 4015W        W 7759   4.490   4.687   2.732 -0.2269  0.1637 -0.3613
 4016W        W 7760   8.908   5.520   3.146 -0.1060  0.1123 -0.0552
 4017W        W 7761   9.273   8.765   0.536 -0.1556 -0.2312  0.1406
 4018W        W 7762   1.655   3.773   0.967 -0.0304 -0.1558 -0.0976
 4019W        W 7763   8.204   4.032   4.631 -0.2006 -0.0608  0.2013
 4020W        W 7764   4.640   1.636   2.629 -0.3096  0.3627  0.0409
 4021W        W 7765   8.297   8.044  10.213  0.0369  0.0799  0.2738
 4022W        W 7766   4.740   5.235  11.491 -0.0174  0.4229  0.2610
 4023W        W 7767   2.335   8.355   0.581  0.0504 -0.1854 -0.0802
 4024W        W 7768   0.652  10.055   9.974 -0.2820 -0.1113 -0.0288
 4025W        W 7769   0.267   2.221   0.478  0.1256 -0.0003  0.2016
 4026W        W 7770   2.552   4.789   3.762 -0.1319 -0.0805  0.0057
 4027W        W 7771   5.001   9.741   1.699  0.1255 -0.0089  0.1926
 4028W        W 7772   6.827   9.108  10.464 -0.4308  0.0075  0.2985
 4029W        W 7773   3.299   5.043   0.095  0.0552  0.0463  0.2709
 4030W        W 7774   7.290   0.348   2.399  0.1524  0.0161  0.0467
 4031W        W 7775   3.326   0.328  10.808  0.4200 -0.1349 -0.0088
 4032W        W 7776   7.340   1.212   0.148  0.1956 -0.0540 -0.0652
 4033W        W 7777   5.299   1.259   5.066  0.0340 -0.1642  0.0551
 4034W        W 7778   1.551  10.051   3.151  0.0569 -0.3992  0.0814
 4035W        W 7779   8.314   2.415  11.738  0.2291  0.0934  0.1454
 4036W        W 7780   0.056   7.815  10.455 -0.1563 -0.0528  0.0628
 4037W        W 7781   7.819   4.049  10.642  0.4412  0.3699  0.0874
 4038W        W 7782   2.032   4.097   1.077 -0.2212 -0.0984 -0.0653
 4039W        W 7783   2.033   0.591   1.801  0.1925  0.2185 -0.2962
 4040W        W 7784   5.654   3.203   4.731  0.1622 -0.2241 -0.3807
 4041W        W 7785   7.858   6.377   8.607  0.1739 -0.0967  0.0294
 4042W        W 7786   8.331  10.035  11.513  0.1718  0.0012  0.1758
 4043W        W 7787   8.833   4.488   0.079  0.0188  0.1179 -0.1597
 4044W        W 7788   3.550   1.013   2.005 -0.1022  0.2620  0.0762
 4045W        W 7789   8.113   0.871  11.270 -0.0643  0.0539  0.0095
 4046W        W 7790   5.023   1.272   2.465  0.0449  0.0011  0.0754
 4047W        W 7791   2.173   3.278  10.385  0.1536 -0.2039  0.0958
 4048W        W 7792   8.417   9.532   2.126  0.1212 -0.4112 -0.0879
 4049W        W 7793   9.961   4.928  10.215  0.0800  0.1092  0.3109
 4050W        W 7794   9.236   0.128   4.617 -0.0900 -0.0184  0.3235
 4051W        W 7795   4.843   5.727  11.779  0.0810 -0.0635 -0.0554
 4052W        W 7796   5.465   2.403  10.927 -0.0679  0.1976  0.2196
 4053W        W 7797   6.519   8.974   8.729 -0.0496 -0.0786 -0.0934
 4054W        W 7798   8.901   5.478  11.525 -0.0266 -0.1911  0.0808
 4055W        W 7799   3.545   9.312  11.636 -0.2841 -0.2532  0.0994
 4056W        W 7800   0.399   8.777  11.438  0.2229  0.0298 -0.1045
 4057W        W 7801   2.727   3.618  10.005  0.0607 -0.0005  0.1603
 4058W        W 7802   4.919   1.022   0.945  0.1257 -0.2126  0.1430
 4059W        W 7803   5.640   2.918  11.258  0.0827 -0.0681 -0.4372
 4060W        W 7804   7.179   4.436   9.154 -0.0479 -0.0247  0.4218
 4061W        W 7805   3.637   3.672  12.353 -0.0009 -0.1227 -0.0269
 4062W        W 7806   4.510   1.274   3.390  0.0330  0.0110  0.0398
 4063W        W 7807   1.288   8.293   8.949  0.0846 -0.1728  0.0020
 4064W        W 7808   0.752   4.674  11.248  0.0371 -0.1662 -0.3143
 4065W        W 7809   7.835  10.127  10.782 -0.1140  0.1468 -0.1141
 4066W        W 7810   8.925   2.122   1.353  0.2700  0.1665  0.2545
 4067W        W 7811   5.547   1.946   1.636 -0.0847 -0.0550  0.0254
 4068W        W 7812   6.771   3.134  11.255  0.0576  0.0820 -0.1726
 4069W        W 7813   1.106   8.665   1.160 -0.1744 -0.2005  0.3251
 4070W        W 7814  10.055   7.349   3.642  0.0337 -0.2277 -0.1870
 4071W        W 7815   3.544   1.825   4.734 -0.1146  0.2441 -0.0695
 4072W        W 7816   6.349   5.677  10.571 -0.3232 -0.2599  0.0775
 4073W        W 7817   1.004   0.877  10.347 -0.1654 -0.1287  0.0047
 4074W        W 7818   1.448   7.014   1.053  0.2533 -0.0805  0.1460
 4075W        W 7819   2.550   5.104   9.062 -0.2222  0.2439  0.0825
 4076W        W 7820   1.814   4.423   9.939  0.0233 -0.1007  0.1539
 4077W        W 7821   6.915   6.184   2.738  0.1165  0.0754  0.0075
 4078W        W 7822   1.205   5.891   9.634 -0.2377  0.3303  0.0040
 4079W        W 7823   2.805   9.601   3.379 -0.1442 -0.0049 -0.3276
 4080W        W 7824   1.465   6.698   0.120 -0.4367 -0.1933 -0.1124
 4081W        W 7825   2.376   7.825   0.587  0.4360 -0.0978 -0.0103
 4082W        W 7826   0.489   1.537   2.355  0.2103  0.2936  0.1811
 4083W        W 7827   7.473   7.612   2.007 -0.0211  0.3054  0.0280
 4084W        W 7828   2.268   9.413   0.496  0.0073  0.1337  0.0650
 4085W        W 7829   1.660   9.783   3.846  0.1996  0.0132 -0.0625
 4086W        W 7830   3.277   7.828  11.202 -0.1617 -0.3550  0.3174
 4087W        W 7831   1.402   4.178  10.784 -0.0547  0.1878 -0.1022
 4088W        W 7832   3.919   4.985  10.641 -0.2999  0.1902  0.1419
 4089W        W 7833   0.737   8.603  10.083 -0.1765 -0.1035  0.1402
 4090W        W 7834   7.168   9.166   2.519 -0.0307  0.0258 -0.1729
 4091W        W 7835   2.913   3.891   0.128 -0.0247 -0.1208  0.2982
 4092W        W 7836   1.629   4.508  10.995  0.1580 -0.0638  0.2295
 4093W        W 7837   3.371  10.056  11.954  0.0570 -0.1279 -0.0758
 4094W        W 7838   2.746   3.200  11.361 -0.0602 -0.2833 -0.0039
 4095W        W 7839   4.471   6.289   0.748  0.0716 -0.2306 -0.2965
 4096W        W 7840   0.452   4.161   9.469  0.4779  0.2125  0.2919
 4097W        W 7841   7.288   3.246  12.101  0.0605 -0.0480  0.3483
 4098W        W 7842   6.702   3.606   4.212  0.2984  0.1869 -0.1086
 4099W        W 7843   7.325  10.055  11.669 -0.1279  0.1881 -0.3544
 4100W        W 7844   5.649   4.063   0.011 -0.0218  0.1325  0.0396
 4101W        W 7845   8.895   6.732   3.357 -0.3492 -0.2237  0.1950
 4102W        W 7846   5.992   1.300   1.221  0.0045  0.0964 -0.0589
 4103W        W 7847   5.677   0.587   3.818  0.0777  0.3492 -0.4487
 4104W        W 7848   5.256   7.714   2.126 -0.0415  0.1057  0.1722
 4105W        W 7849   6.588   0.348  11.313 -0.2004  0.1459 -0.0258
 4106W        W 7850   8.848   8.424  12.314  0.3314  0.0090 -0.0284
 4107W        W 7851   3.206   6.278   0.462 -0.1427  0.1132 -0.1347
 4108W        W 7852   2.861   7.125   1.359  0.1043 -0.0536 -0.1319
 4109W        W 7853   4.127   8.903   0.752 -0.1199  0.0640  0.1827
 4110W        W 7854   8.136   4.914  10.677 -0.1723 -0.4964 -0.0976
 4111W        W 7855   9.352   8.441   3.035 -0.1550 -0.0899  0.1410
 4112W        W 7856   4.476   8.361   9.304  0.4146  0.0914 -0.0206
 4113W        W 7857   2.237   9.008   8.649 -0.2560  0.0820 -0.1263
 4114W        W 7858   4.932   7.829   9.721 -0.3442  0.1139 -0.0116
 4115W        W 7859   7.000   7.590   2.231 -0.0050 -0.1921 -0.0962
 4116W        W 7860   3.079   4.919  10.479  0.0378 -0.0577 -0.3107
 4117W        W 7861   1.862   6.591   0.455  0.1034 -0.2865  0.1713
 4118W        W 7862   0.472   3.094   0.311 -0.1098  0.0787  0.2755
 4119W        W 7863   6.060   9.247  11.576 -0.1454 -0.1130 -0.1772
 4120W        W 7864   9.700   4.974  12.298  0.0497  0.0195  0.0567
 4121W        W 7865   4.858   7.051  10.695  0.2492  0.0533 -0.1138
 4122W        W 7866   6.307   9.362  12.180 -0.1391  0.3045  0.0359
 4123W        W 7867   7.074   9.762  10.915  0.0378  0.1225 -0.1093
 4124W        W 7868   3.103   9.978  10.702 -0.1277 -0.1066 -0.0584
 4125W        W 7869   3.582   2.381  12.372  0.2382  0.0897 -0.1921
 4126W        W 7870   0.419   9.463   3.454  0.0418 -0.0233 -0.0841
 4127W        W 7871   9.682   7.893   1.289 -0.1325  0.1654 -0.2643
 4128W        W 7872   6.012   5.203   8.879 -0.1678 -0.0841 -0.3999
 4129W        W 7873   9.780   9.380   3.784 -0.2033 -0.0617  0.0494
 4130W        W 7874   8.703   7.934  11.017 -0.1554  0.0387  0.1292
 4131W        W 7875   8.792   1.883  12.344 -0.3761 -0.1308  0.2684
 4132W        W 7876   5.346   9.594   0.668 -0.0928 -0.0438 -0.1046
 4133W        W 7877   6.543   0.163   9.971 -0.0965 -0.1962 -0.1595
 4134W        W 7878   0.756   2.285   2.212  0.0561 -0.1258  0.2438
 4135W        W 7879   1.940   6.265   3.094 -0.0879 -0.1246  0.0596
 4136W        W 7880   3.658   4.023   1.510 -0.1342  0.1743  0.2133
 4137W        W 7881   8.777   1.967  10.317  0.4531  0.2011 -0.0761
 4138W        W 7882   1.250   0.612   3.870 -0.2019  0.2447  0.2149
 4139W        W 7883   3.371   2.593   9.115 -0.3115  0.4399  0.1948
 4140W        W 7884   5.744   7.862  11.212  0.1110 -0.0098 -0.1797
 4141W        W 7885   0.613   5.177   0.490 -0.0497 -0.0098 -0.0426
 4142W        W 7886   4.409   7.775   1.162  0.1225  0.2333 -0.2382
 4143W        W 7887   6.004   8.028   9.420  0.1080  0.0504 -0.0247
 4144W        W 7888   6.252   2.252   0.143  0.2988 -0.1492 -0.3652
 4145W        W 7889   0.446   9.950  11.970  0.0170  0.3188 -0.1463
 4146W        W 7890   9.571   6.758   2.583  0.1321  0.2549  0.2675
 4147W        W 7891   5.444   9.761   0.096 -0.3459 -0.0037  0.4699
 4148W        W 7892   8.782   9.480   9.027  0.2010  0.0971  0.0344
 4149W        W 7893   1.633   4.872   1.919 -0.2365  0.0089 -0.0562
 4150W        W 7894   4.064   7.194  11.150  0.1674  0.4578  0.0958
 4151W        W 7895   1.639   3.615   1.515  0.2535 -0.0864  0.0377
 4152W        W 7896   7.766   4.590   1.153 -0.1010 -0.3577  0.0848
 4153W        W 7897   6.310   0.221   3.872 -0.0407  0.1028  0.0717
 4154W        W 7898   4.846   2.247   2.928 -0.0293 -0.0367  0.3168
 4155W        W 7899   3.232   5.976  11.143  0.1927  0.0241 -0.1389
 4156W        W 7900   1.133   4.312   7.811  0.0814  0.0536 -0.0528
 4157W        W 7901   6.377   6.438   2.621  0.2281 -0.0756  0.1627
 4158W        W 7902   2.771   2.479   3.778 -0.1216  0.0150 -0.0320
 4159W        W 7903   9.480   3.310  12.244 -0.1508  0.1377  0.0080
 4160W        W 7904   8.860   0.302   9.909 -0.0603  0.2489  0.0833
 4161W        W 7905   6.477   2.523  12.121  0.1149  0.0193 -0.1293
 4162W        W 7906   0.743   9.066  11.897  0.0407 -0.1405  0.2070
 4163W        W 7907   5.400   3.410  11.037 -0.0425  0.0708 -0.2064
 4164W        W 7908   2.415   4.572   3.176 -0.1025  0.0464 -0.3380
 4165W        W 7909   6.675   9.457  10.779  0.0892 -0.1294 -0.3772
 4166W        W 7910   8.450   6.675  12.370 -0.3642  0.0730 -0.0392
 4167W        W 7911   9.279   9.011   2.970  0.3257 -0.1047  0.2280
 4168W        W 7912   3.863   0.624   9.532  0.0242 -0.2233  0.1408
 4169W        W 7913   4.187   0.360   1.031 -0.2207 -0.1961  0.0867
 4170W        W 7914   0.201   6.924  10.612  0.2526 -0.1084 -0.1255
 4171W        W 7915   3.487   6.084   2.006 -0.3758  0.0401 -0.0179
 4172W        W 7916   7.143   2.463   0.802  0.2861  0.1246 -0.1460
 4173W        W 7917   4.883   2.460   2.113 -0.1043  0.2203  0.0848
 4174W        W 7918   7.941   8.484   0.042 -0.2311 -0.0200 -0.0127
 4175W        W 7919   3.345   7.037   0.519 -0.5625 -0.0021 -0.3486
 4176W        W 7920   6.853   4.234   9.572  0.0819 -0.5520 -0.0272
 4177W        W 7921   2.097   3.362   9.481 -0.2158  0.0053 -0.1821
 4178W        W 7922   9.670   6.947   9.191  0.1278 -0.0856  0.1016
 4179W        W 7923   0.972   2.892   9.130  0.0938  0.2089 -0.1711
 4180W        W 7924   1.187   6.271  12.316  0.3380  0.1026 -0.0151
 4181W        W 7925   9.639   4.407  11.983 -0.1970  0.0418  0.0991
 4182W        W 7926   4.431   0.113   1.898 -0.2161  0.0520 -0.0125
 4183W        W 7927   7.579   6.455  12.250 -0.2674 -0.0108 -0.0811
 4184W        W 7928   9.715   7.837   9.602  0.1061 -0.4573  0.1437
 4185W        W 7929   1.892   3.340   9.022  0.1875 -0.0689 -0.0508
 4186W        W 7930   7.321   0.340   0.027  0.0242  0.1041  0.0634
 4187W        W 7931   1.396   3.003   3.354 -0.0240 -0.0338 -0.0278
 4188W        W 7932   6.220   2.083   2.573 -0.2268 -0.0516  0.2232
 4189W        W 7933   1.018   4.790   0.200  0.7458 -0.1273 -0.2051
 4190W        W 7934   8.388   2.398   4.140 -0.2045  0.0682 -0.0827
 4191W        W 7935   6.034   1.267   2.073  0.1437 -0.0185 -0.2677
 4192W        W 7936   8.261   5.368   1.344 -0.0887 -0.0678 -0.3561
 4193W        W 7937   6.993   2.504   2.976 -0.3923  0.4266  0.0875
 4194W        W 7938   9.188   0.667   2.248 -0.2259 -0.1443  0.1446
 4195W        W 7939   2.493   6.402  10.628  0.1209  0.1574  0.1600
 4196W        W 7940   6.899   4.903   0.179 -0.0200  0.1561  0.3047
 4197W        W 7941   6.787   3.494  12.132  0.1386  0.2946 -0.3375
 4198W        W 7942   8.105   0.396  12.058 -0.0353  0.1214  0.1971
 4199W        W 7943   0.393   7.249   4.025  0.2807  0.1574 -0.0026
 4200W        W 7944   8.504   9.087  10.343 -0.0892 -0.1521  0.0879
 4201W        W 7945   6.037   2.799  12.312  0.0158  0.0336  0.3707
 4202W        W 7946   7.855   7.585   2.877  0.1099 -0.3437  0.0539
 4203W        W 7947   1.521   1.107   8.686 -0.2485 -0.2107  0.3037
 4204W        W 7948   1.887   7.301  11.715  0.3138 -0.1684 -0.0504
 4205W        W 7949   8.175   3.375   9.308  0.1595  0.0895  0.1645
 4206W        W 7950   1.639   1.243  10.963 -0.1837 -0.0090 -0.1332
 4207W        W 7951   5.646   3.165   9.784 -0.1632 -0.0235 -0.2342
 4208W        W 7952   6.490   4.116  11.347 -0.0264 -0.1495 -0.3580
 4209W        W 7953   3.691   9.876   3.206  0.0539 -0.0354  0.1109
 4210W        W 7954   3.948   8.696   2.768  0.0874 -0.0401  0.0366
 4211W        W 7955   6.876   3.938  11.660 -0.0344  0.1396  0.0407
 4212W        W 7956   7.085   9.601   1.822 -0.0292  0.0446  0.0460
 4213W        W 7957   4.650   3.405   8.633 -0.0111 -0.2381 -0.0811
 4214W        W 7958   2.745   5.039   1.426 -0.1604  0.1281 -0.2079
 4215W        W 7959   0.771   9.645   2.099 -0.0020  0.0309  0.1220
 4216W        W 7960   8.343   3.871   1.211 -0.0460  0.1663 -0.1991
 4217W        W 7961   6.948   7.259  11.636  0.0967  0.0336 -0.0554
 4218W        W 7962   1.651   0.364   4.962  0.5577 -0.1397 -0.1209
 4219W        W 7963   4.379   6.494   4.390 -0.5354  0.4338  0.0356
 4220W        W 7964   4.030   6.514   0.679  0.3715 -0.1367 -0.0151
 4221W        W 7965   1.943   0.743  10.251  0.3307  0.0457  0.0849
 4222W        W 7966   8.475   7.754   2.390  0.2797  0.0029  0.2072
 4223W        W 7967   5.148   5.154   0.567  0.1512 -0.3072  0.3638
 4224W        W 7968  10.022   4.296   2.215 -0.1669  0.0578 -0.3143
 4225W        W 7969   1.397   4.176  10.102  0.3304 -0.0437  0.1223
 4226W        W 7970   8.163   6.101   8.864  0.1018 -0.3148  0.3569
 4227W        W 7971   6.273   5.027   9.396  0.1439 -0.1349  0.0788
 4228W        W 7972   4.874   7.890  10.249 -0.1550 -0.0964 -0.0484
 4229W        W 7973   0.177   2.523  11.351 -0.2980  0.0210  0.5225
 4230W        W 7974   2.857   5.265   9.566  0.1800 -0.0316 -0.3609
 4231W        W 7975   9.450   1.461   1.539  0.0952  0.0616  0.2565
 4232W        W 7976   7.334   2.201  12.018  0.1276  0.1218 -0.0668
 4233W        W 7977   9.570  10.120   1.961 -0.2696 -0.0380 -0.2927
 4234W        W 7978   0.640   1.718   1.448 -0.2897 -0.3044 -0.1574
 4235W        W 7979   7.042   5.599   9.993  0.2364  0.2230  0.2839
 4236W        W 7980   0.748   6.485  12.224 -0.1748  0.2965 -0.2567
 4237W        W 7981   5.516   0.087   3.871  0.2909  0.0727 -0.2025
 4238W        W 7982   3.595   5.009  10.221 -0.1970  0.0479 -0.2851
 4239W        W 7983   9.973   7.597   8.792 -0.1588  0.0114  0.1329
 4240W        W 7984   9.956  10.083   1.130 -0.1901  0.1181 -0.0265
 4241W        W 7985   7.085   6.830  11.276 -0.2314 -0.2890 -0.0689
 4242W        W 7986   3.373   2.133   2.138  0.0112 -0.2944 -0.0799
 4243W        W 7987   6.888   3.576   2.003 -0.2414  0.1247  0.2643
 4244W        W 7988   5.708   0.578   0.083 -0.0944  0.2496  0.1673
 4245W        W 7989   1.678   8.065   3.331  0.2323  0.0257  0.2249
 4246W        W 7990  10.099   0.609  11.806 -0.0823 -0.0009 -0.2831
 4247W        W 7991   0.417   6.879   1.110  0.1261  0.3013  0.0394
 4248W        W 7992   1.930   2.418  10.033 -0.0461 -0.1126 -0.0660
 4249W        W 7993   6.183   2.463   1.423  0.1535  0.0385 -0.1254
 4250W        W 7994   4.856   2.370  12.047  0.2190 -0.0595  0.1233
 4251W        W 7995   6.418   9.468   4.683  0.3711  0.3784 -0.2796
 4252W        W 7996  10.026   4.036  12.327  0.0161  0.1438 -0.0650
 4253W        W 7997   1.478   8.467  12.081  0.0742  0.3543  0.2511
 4254W        W 7998   6.471   1.113   4.096  0.0884  0.1945 -0.0047
 4255W        W 7999   4.784   9.937  10.317 -0.0249 -0.0225  0.1089
 4256W        W 8000   1.281   1.242   0.837  0.0677 -0.1637  0.0423
 4257W        W 8001   9.616   9.848   0.854 -0.2651 -0.0139 -0.1655
 4258W        W 8002   2.585   7.045  11.856 -0.3764  0.0470 -0.1546
 4259W        W 8003   8.745   1.806   0.925  0.0107  0.0904 -0.0679
 4260W        W 8004   5.302   0.461  11.255 -0.2207  0.1530  0.1331
 4261W        W 8005   1.294   3.214  10.031  0.0274 -0.2240  0.0598
 4262W        W 8006   2.162   2.578   0.469  0.0386  0.2194  0.0145
 4263W        W 8007   7.523   5.610   0.821 -0.1307  0.0330 -0.5391
 4264W        W 8008   5.335   2.723   2.462 -0.3644 -0.3164 -0.0350
 4265W        W 8009   4.969   9.271   1.767  0.4380  0.2331 -0.3580
 4266W        W 8010   7.996   7.563   2.141 -0.1081 -0.1364  0.2795
 4267W        W 8011   5.843   7.481  11.626  0.0677 -0.2096 -0.2807
 4268W        W 8012   7.986   9.014   0.039  0.1973  0.0355 -0.3150
 4269W        W 8013   2.624   0.977  11.535  0.0082  0.0527 -0.1449
 4270W        W 8014   6.078   1.591   1.618 -0.1619  0.0638 -0.0443
 4271W        W 8015   6.194   8.077   0.789 -0.0074  0.1762  0.0635
 4272W        W 8016   1.685   0.009   0.448  0.0081 -0.1545  0.1944
 4273W        W 8017   0.127   6.889   0.593 -0.1350 -0.3137 -0.0359
 4274W        W 8018   9.239   9.361  11.737  0.0187  0.3242 -0.3350
 4275W        W 8019   5.805   7.124   3.104 -0.0244  0.2930 -0.1868
 4276W        W 8020   6.441   6.505   0.396 -0.2187 -0.1016  0.1333
 4277W        W 8021   1.398   1.118   2.319 -0.3009 -0.0423  0.0368
 4278W        W 8022   6.995   2.531  10.513 -0.1903 -0.0527 -0.0613
 4279W        W 8023   6.962   2.881   0.442 -0.2275  0.0419 -0.1552
 4280W        W 8024   9.203   5.005  11.855 -0.0410  0.0457 -0.4356
 4281W        W 8025   6.556   2.397   1.732  0.2007 -0.0944  0.3264
 4282W        W 8026   5.213   3.144   0.564 -0.2288  0.0537 -0.0932
 4283W        W 8027   4.713   0.336   0.104  0.1885 -0.0499  0.1706
 4284W        W 8028   4.160   7.048   0.637 -0.1525  0.1231  0.1387
 4285W        W 8029   9.300   2.143   8.566  0.1903  0.1553  0.1785
 4286W        W 8030   3.798   7.109   0.281  0.3305 -0.0802 -0.2971
 4287W        W 8031   9.189   1.068   1.106  0.0813 -0.0696  0.0384
 4288W        W 8032   3.345   3.541   9.695 -0.3156  0.1317  0.0519
 4289W        W 8033   3.207   8.681  10.661  0.1379 -0.0606  0.0155
 4290W        W 8034   1.623   6.061   2.089  0.0126 -0.0708  0.0648
 4291W        W 8035   3.135   4.839   2.342  0.0879  0.0698 -0.4025
 4292W        W 8036   1.476   8.929  11.958  0.1879 -0.0364  0.4591
 4293W        W 8037   5.170   9.681  10.983 -0.0601 -0.2401 -0.2846
 4294W        W 8038   5.373   1.080   8.410 -0.2647 -0.2743 -0.1269
 4295W        W 8039   4.326   9.236  12.128 -0.0246 -0.1502 -0.0388
 4296W        W 8040   6.331   3.797   3.816 -0.0404 -0.0771  0.0138
 4297W        W 8041   2.209   9.289  11.425  0.0899 -0.0674 -0.1357
 4298W        W 8042   0.770   2.696   3.926 -0.2644  0.2352 -0.2250
 4299W        W 8043   3.341   4.532  11.063 -0.0152  0.1459 -0.0366
 4300W        W 8044   4.485   2.519  10.495 -0.0930  0.0633  0.2545
 4301W        W 8045   7.671   2.262   2.581 -0.2900 -0.1076  0.2614
 4302W        W 8046   8.670   0.920   1.185 -0.2948 -0.2104  0.3451
 4303W        W 8047   9.650   2.380  10.276  0.2085  0.1197  0.0068
 4304W        W 8048   1.728   5.867   0.966 -0.0172 -0.1278  0.0426
 4305W        W 8049   2.714   1.582  10.842 -0.1933  0.1893 -0.1709
 4306W        W 8050   6.571   8.910   4.090 -0.0412 -0.2616  0.0266
 4307W        W 8051   9.496   8.233   8.938 -0.2283 -0.1920 -0.0870
 4308W        W 8052   9.172   0.665  10.036  0.0193 -0.3779  0.3900
 4309W        W 8053   2.092   6.876  11.800  0.0296 -0.3994  0.3848
 4310W        W 8054   6.365   4.959   2.638  0.1368 -0.1281  0.0730
 4311W        W 8055   1.926   2.456   1.329 -0.1816  0.2105  0.1864
 4312W        W 8056   3.995   2.879   2.363  0.0880  0.4034  0.0309
 4313W        W 8057   1.279   9.058   0.959 -0.2648 -0.4835 -0.0288
 4314W        W 8058   7.043   3.457  11.687  0.1878 -0.0033 -0.0862
 4315W        W 8059   8.841   6.360  10.479  0.1704  0.2198 -0.4096
 4316W        W 8060   3.910   1.135   2.870  0.1422 -0.1306  0.0309
 4317W        W 8061   4.676   7.051   0.614 -0.0358 -0.0230 -0.4288
 4318W        W 8062   3.020   1.306  11.592  0.1837 -0.1874 -0.0732
 4319W        W 8063   7.097   4.683  10.825 -0.2529  0.0642 -0.3400
 4320W        W 8064   3.020   0.202  11.197 -0.0414 -0.2739  0.2485
 4321W        W 8065   7.827   3.942   0.274  0.1603 -0.0235  0.2586
 4322W        W 8066   3.997   0.408  11.218 -0.2406 -0.2389 -0.0662
 4323W        W 8067   9.726   0.327   1.456 -0.1896 -0.2122 -0.1170
 4324W        W 8068   0.678   9.696   3.122 -0.0897  0.0279 -0.1466
 4325W        W 8069   2.712   1.251  10.140 -0.1645  0.3594  0.1895
 4326W        W 8070   1.748   6.263   9.542  0.0583  0.0858  0.2711
 4327W        W 8071   8.652   1.125   9.409  0.5650 -0.0267 -0.0471
 4328W        W 8072   4.757   7.074   3.296 -0.2641 -0.2222 -0.0514
 4329W        W 8073   7.195   9.795   4.430  0.2586 -0.0991  0.0096
 4330W        W 8074   2.964   6.720  12.071 -0.0840  0.1365 -0.1440
 4331W        W 8075   2.288   1.806   3.257 -0.2430 -0.0000  0.1981
 4332W        W 8076   7.938   1.103   2.901 -0.3345 -0.3268 -0.0040
 4333W        W 8077   6.265   5.520   9.380  0.0068 -0.1381 -0.0646
 4334W        W 8078   2.329   9.660   3.208  0.0713  0.2403  0.4643
 4335W        W 8079   0.155   7.772   0.703 -0.2601  0.1668  0.0614
 4336W        W 8080   8.778   1.480  10.790 -0.1373 -0.0912  0.1360
 4337W        W 8081   1.595   9.474   1.645 -0.1333  0.1370 -0.2062
 4338W        W 8082   7.677   9.409   9.987 -0.0039  0.2365  0.1280
 4339W        W 8083   1.917   6.901   0.973  0.3060 -0.0789 -0.1931
 4340W        W 8084   6.149   3.241   4.982 -0.1080  0.0270  0.0330
 4341W        W 8085   0.791   7.322  11.464 -0.0616 -0.1056 -0.0310
 4342W        W 8086   2.021   3.452   3.613 -0.0370 -0.0091  0.0413
 4343W        W 8087   7.915   5.911   2.627  0.0378  0.0087 -0.1691
 4344W        W 8088   1.971   7.802  10.881  0.1418  0.3371 -0.0849
 4345W        W 8089   8.836   0.637   9.522  0.1313  0.1210  0.2437
 4346W        W 8090   6.273   7.539   9.996 -0.2269  0.1997 -0.1624
 4347W        W 8091   2.777   0.129   4.910 -0.5325 -0.2013 -0.2477
 4348W        W 8092   0.523   1.990   3.286  0.2077  0.0525 -0.0105
 4349W        W 8093   2.076   0.176  10.374 -0.2436  0.0696  0.2849
 4350W        W 8094   6.677   4.658  10.507  0.2071  0.0732 -0.0910
 4351W        W 8095   0.536   8.687   0.564 -0.0253  0.2459  0.0472
 4352W        W 8096   4.126   2.266   0.694  0.1485  0.2115 -0.1771
 4353W        W 8097   0.795   9.586  11.734 -0.0674  0.0862  0.1358
 4354W        W 8098   2.862   7.859   3.380  0.1961 -0.2551 -0.1317
 4355W        W 8099   0.695   2.740   0.655 -0.1551 -0.2043  0.0564
 4356W        W 8100   2.809   2.187  11.225  0.2432  0.1227 -0.3423
 4357W        W 8101   0.904   0.942   2.754  0.1527  0.1755 -0.3043
 4358W        W 8102   4.056   7.419   3.994  0.1673 -0.0192  0.0734
 4359W        W 8103   8.643   3.224   2.940 -0.0148 -0.0843 -0.0410
 4360W        W 8104   6.868   1.507   9.507 -0.1248  0.0871 -0.1088
 4361W        W 8105   4.509   7.875   9.940  0.2205 -0.0656  0.1499
 4362W        W 8106   4.243   4.746   1.076 -0.0061  0.2584  0.0072
 4363W        W 8107   6.255   3.575   9.348  0.0094 -0.2417 -0.1050
 4364W        W 8108   7.756   7.644   0.633 -0.1162  0.0157 -0.3716
 4365W        W 8109   9.779   5.649   0.866 -0.0545 -0.1974  0.0250
 4366W        W 8110   9.089   5.766   3.564 -0.3702  0.0859 -0.3580
 4367W        W 8111   0.732   3.705   9.474 -0.0823 -0.0662 -0.1095
 4368W        W 8112   7.259   1.795   9.904 -0.2638  0.1392 -0.2299
 4369W        W 8113   9.036   0.027   8.814  0.1334  0.4519 -0.0767
 4370W        W 8114   3.960   8.934   4.462 -0.0562 -0.1063 -0.0438
 4371W        W 8115   4.156   3.880  12.288 -0.2011  0.0769 -0.1453
 4372W        W 8116   2.324   1.309   3.096 -0.1324  0.1551 -0.1537
 4373W        W 8117   7.247   6.464  11.787 -0.0387 -0.0621  0.2565
 4374W        W 8118   8.011   9.502   1.773 -0.0360  0.3056  0.0951
 4375W        W 8119   5.411   1.352   3.280  0.1276  0.0750  0.0070
 4376W        W 8120   6.571   4.540   8.583  0.0857 -0.1190  0.1272
 4377W        W 8121   1.356   1.466   3.178 -0.2021  0.0624 -0.0579
 4378W        W 8122   1.332   1.763  11.786  0.2470 -0.3072 -0.0360
 4379W        W 8123   6.329   1.372  11.159  0.0708  0.1888  0.2722
 4380W        W 8124   1.964   8.174   1.891  0.1095  0.0593  0.1427
 4381W        W 8125   1.932   0.165   1.598 -0.2123  0.1093  0.3044
 4382W        W 8126   9.371   1.166   4.477 -0.1936  0.0024  0.1385
 4383W        W 8127   2.765   0.561   3.072  0.3601  0.1444  0.0605
 4384W        W 8128   1.600   9.434   5.201  0.0225  0.4335 -0.2343
 4385W        W 8129   3.320   6.738  10.514  0.2339  0.0616  0.1093
 4386W        W 8130   4.321   0.984   9.365 -0.5337  0.0479  0.0715
 4387W        W 8131   9.104   1.565  10.378 -0.1179 -0.2945  0.2084
 4388W        W 8132   9.845   3.624   9.792 -0.0342  0.0109  0.5881
 4389W        W 8133   3.980   3.721   0.395  0.2443  0.0930  0.0504
 4390W        W 8134   3.047   6.738  10.088 -0.0285  0.0297 -0.1707
 4391W        W 8135   6.227   8.894   2.012 -0.2010 -0.2579 -0.0774
 4392W        W 8136   7.327   5.238  10.920 -0.2239 -0.0923  0.0715
 4393W        W 8137   6.508   6.553   8.726 -0.3259 -0.1380 -0.0780
 4394W        W 8138   7.441   5.063  11.417  0.1663 -0.1254 -0.0240
 4395W        W 8139   7.900   5.596   1.626 -0.0796 -0.1539 -0.0413
 4396W        W 8140   1.895   2.826   3.177  0.0361 -0.0423 -0.2564
 4397W        W 8141   6.508   9.810   4.194 -0.3479  0.1219  0.0308
 4398W        W 8142   1.793   5.371   0.262  0.1436 -0.3699  0.0626
 4399W        W 8143   6.847   1.494   4.080  0.0526  0.2945 -0.2523
 4400W        W 8144   1.682   9.478  11.443  0.3773 -0.2187 -0.0255
 4401W        W 8145   5.863   3.600   9.748  0.0166  0.0299 -0.0428
 4402W        W 8146   3.510   5.833   0.413  0.0997  0.1045 -0.3008
 4403W        W 8147   2.103   9.855   1.745  0.1698  0.0352 -0.2699
 4404W        W 8148   8.942   7.455  10.203  0.1744 -0.0123 -0.1740
 4405W        W 8149   5.389   5.181   9.658  0.1952  0.1299 -0.1186
 4406W        W 8150   0.110   1.453  12.136 -0.0387  0.2695  0.1054
 4407W        W 8151   4.818   8.741   9.439 -0.1103 -0.1145 -0.1451
 4408W        W 8152   7.368   8.679   2.849  0.0418  0.1159  0.1385
 4409W        W 8153   5.371   5.449   2.984 -0.1322  0.2574 -0.1065
 4410W        W 8154   2.474   0.784   3.833  0.1231 -0.1439 -0.3069
 4411W        W 8155   2.540   3.583   9.520 -0.3236  0.0875 -0.3032
 4412W        W 8156   3.948   6.200   3.051 -0.5301 -0.2930  0.0602
 4413W        W 8157   9.836   6.071  12.354  0.0151 -0.1512 -0.2461
 4414W        W 8158   2.816   6.762   2.238 -0.2136 -0.1735 -0.2183
 4415W        W 8159   6.848   1.487   1.013  0.0428 -0.1545  0.2429
 4416W        W 8160   4.890   1.523  11.752  0.0349 -0.2140  0.0624
 4417W        W 8161   5.724   4.342   2.492  0.0240 -0.4386  0.0790
 4418W        W 8162   9.678   2.325   8.273 -0.1562  0.0318  0.1748
 4419W        W 8163   1.036   8.194   2.323 -0.1838 -0.0391 -0.1652
 4420W        W 8164   3.671   4.585   1.544  0.0032 -0.1624 -0.0925
 4421W        W 8165   4.121   0.667   8.284 -0.0564 -0.0095  0.0566
 4422W        W 8166   5.675   2.006   2.530  0.1757  0.2330 -0.0081
 4423W        W 8167   7.995   1.415   8.856 -0.0700 -0.1359 -0.0982
 4424W        W 8168   6.486   4.983   8.867 -0.1310 -0.0502 -0.0015
 4425W        W 8169   9.378   7.515   1.511  0.2180 -0.1508 -0.1139
 4426W        W 8170   2.936   0.095   4.455 -0.1009  0.2801  0.1654
 4427W        W 8171   1.478   2.557   1.074  0.2039  0.1754  0.1148
 4428W        W 8172   3.311   7.622   8.801 -0.3541 -0.1294  0.0765
 4429W        W 8173   8.539   2.859   0.431  0.1358  0.3418  0.0021
 4430W        W 8174   5.646   2.570  10.106 -0.0922  0.1057  0.3478
 4431W        W 8175   3.531   4.639   0.227 -0.2182 -0.2193 -0.2761
 4432W        W 8176   0.715   3.892  11.448 -0.1901 -0.3613  0.1510
 4433W        W 8177   4.115   5.664   9.933 -0.0362 -0.0012  0.0227
 4434W        W 8178   0.926   4.884   0.891 -0.2457  0.1333 -0.0683
 4435W        W 8179   2.456   3.349   1.663 -0.0727  0.1949 -0.2481
 4436W        W 8180   7.641   8.031   1.776  0.1405 -0.2409  0.0639
 4437W        W 8181   9.414   7.506  10.458  0.2042 -0.2632  0.1997
 4438W        W 8182   2.807   1.715  11.438  0.1676  0.2060  0.0080
 4439W        W 8183   5.411   2.150   0.549 -0.1095 -0.0394 -0.0444
 4440W        W 8184   6.504   5.524  11.508  0.1462  0.0854 -0.0201
 4441W        W 8185   3.398   2.581  10.558 -0.0087  0.1649 -0.0787
 4442W        W 8186   3.880   5.612  12.067 -0.1123 -0.0930  0.0141
 4443W        W 8187   2.099   7.231   0.649  0.0241 -0.1975 -0.1314
 4444W        W 8188   3.801   0.368   0.751 -0.3095 -0.0924 -0.2116
 4445W        W 8189   2.105   8.016   9.943  0.1315  0.2854 -0.1064
 4446W        W 8190   5.506   9.474  11.337 -0.0183  0.0186 -0.0687
 4447W        W 8191   4.446   2.283   1.956 -0.0434  0.0234  0.1357
 4448W        W 8192   0.287   4.041  10.404  0.0701  0.0139 -0.0186
 4449W        W 8193   3.247   7.906   0.286 -0.1350 -0.2276 -0.2816
 4450W        W 8194   0.141   1.553   1.026 -0.4080 -0.0288  0.0789
 4451W        W 8195   1.013   1.240  10.666  0.0581  0.1783 -0.0367
 4452W        W 8196  10.127   4.254   9.329  0.1176  0.0547  0.0146
 4453W        W 8197   3.018   5.429   0.914  0.0204  0.0547  0.0538
 4454W        W 8198   7.999   6.158  10.108  0.2459 -0.1420 -0.1428
 4455W        W 8199   6.650   2.709   3.907  0.1585 -0.3622  0.0234
 4456W        W 8200   7.752   3.287   1.649 -0.0696 -0.0007  0.2571
 4457W        W 8201   8.198   3.477   4.043  0.3125  0.0559  0.0499
 4458W        W 8202   0.769   5.727  11.499 -0.1484 -0.1607  0.3995
 4459W        W 8203   7.740   3.484  11.170  0.0145  0.3947  0.1467
 4460W        W 8204   8.260   4.174  11.429  0.1826  0.1470 -0.0843
 4461W        W 8205   5.156   8.737   2.409 -0.1285 -0.1699  0.0080
 4462W        W 8206   8.201   7.012   1.255  0.3874 -0.0362  0.1052
 4463W        W 8207   1.266   5.342   8.699 -0.3091  0.0793  0.0463
 4464W        W 8208   8.933   1.812   8.836  0.1135  0.1640 -0.0569
 4465W        W 8209   2.994   4.476  10.724 -0.3685 -0.3178 -0.1935
 4466W        W 8210   0.287   0.236   2.423 -0.0248 -0.3357  0.3078
 4467W        W 8211   7.425   1.616   3.143  0.1162  0.1058 -0.0782
 4468W        W 8212   5.837   5.243   2.817 -0.1668 -0.1413 -0.3504
 4469W        W 8213   2.683   4.649   0.457 -0.2369 -0.1672  0.1569
 4470W        W 8214   6.853   8.291   0.056  0.0356  0.0147  0.0916
 4471W        W 8215   2.887   1.880  10.031  0.1728 -0.0538 -0.1335
 4472W        W 8216  10.102   4.737  10.961  0.3026  0.0570 -0.1670
 4473W        W 8217   0.448   8.991   1.365 -0.1345 -0.0076 -0.2653
 4474W        W 8218   7.293   6.008   0.719  0.1641 -0.0389  0.2405
 4475W        W 8219   6.747   6.872   5.099 -0.0251  0.1449  0.1231
 4476W        W 8220   0.790   9.841   2.664  0.1037  0.1058  0.0541
 4477W        W 8221   5.578   6.683  12.117 -0.3701  0.2740  0.3042
 4478W        W 8222   3.424   5.371   4.019  0.0353 -0.2494  0.2247
 4479W        W 8223   0.668   5.235  10.251  0.0621 -0.0866  0.2855
 4480W        W 8224   5.633   2.758   2.875 -0.2189 -0.0271 -0.2105
 4481W        W 8225   6.004   3.418   2.502 -0.0562  0.0266 -0.1952
 4482W        W 8226   6.608   2.594   0.216 -0.0289  0.2364 -0.0246
 4483W        W 8227   2.425   4.818  10.135 -0.0061  0.3284  0.1080
 4484W        W 8228   3.456   5.282  11.219  0.1934 -0.1506  0.0721
 4485W        W 8229   1.249   9.557   2.042 -0.3670  0.0903  0.1892
 4486W        W 8230   7.943   9.698  12.188 -0.0158 -0.0420  0.1242
 4487W        W 8231   3.395   0.031  10.282 -0.1391  0.3270 -0.0275
 4488W        W 8232   8.854   8.444   1.519 -0.0669  0.0167  0.0845
 4489W        W 8233   2.280   0.468  11.596 -0.2282 -0.0930 -0.1021
 4490W        W 8234   3.915   4.468  12.144 -0.1544  0.1151 -0.1287
 4491W        W 8235   4.833   1.241   9.144  0.0845  0.4136 -0.0690
 4492W        W 8236   0.977   1.942   9.453 -0.0630 -0.2668 -0.0254
 4493W        W 8237   3.843   7.139   1.863 -0.1889  0.1148 -0.0028
 4494W        W 8238   9.175   1.627   1.129 -0.1429  0.1258 -0.2958
 4495W        W 8239   4.688   6.597  10.745 -0.0411  0.0359 -0.2251
 4496W        W 8240   7.984   4.195   1.297  0.1935  0.3221  0.1035
 4497W        W 8241   4.359   0.344   3.335  0.2001  0.1813  0.0210
 4498W        W 8242   1.856   4.030   1.548  0.2033  0.0864 -0.1887
 4499W        W 8243   7.791   7.599   0.147 -0.2613  0.1760  0.0934
 4500W        W 8244   1.665   9.444   4.207 -0.0913  0.1820 -0.0700
 4501W        W 8245   5.732   3.108   1.824  0.1407 -0.1469  0.1041
 4502W        W 8246   5.705   2.817   9.400  0.0693  0.0463 -0.0895
 4503W        W 8247   7.514   0.173   1.984 -0.3211 -0.1590  0.0968
 4504W        W 8248   1.476   2.409   1.547  0.1900  0.0560 -0.2690
 4505W        W 8249   2.588   0.429  10.010 -0.0140  0.0868 -0.1320
 4506W        W 8250   8.459   4.756  10.241  0.4005 -0.1913 -0.0701
 4507W        W 8251   4.507   4.756  10.003 -0.3408  0.3574  0.1429
 4508W        W 8252   6.010   1.784  12.353  0.0373  0.2518  0.3135
 4509W        W 8253   9.643   9.017   3.337  0.2117 -0.3700 -0.0557
 4510W        W 8254   2.205   9.537   8.624  0.0992  0.0054 -0.1173
 4511W        W 8255   7.131   3.915   9.124  0.2686 -0.2392  0.1572
 4512W        W 8256   9.520   1.913   2.657 -0.0579 -0.1017 -0.0019
 4513W        W 8257   0.746   0.167  11.683  0.0848  0.1934 -0.1908
 4514W        W 8258   3.441   0.318   1.874 -0.0463  0.0210  0.0756
 4515W        W 8259   0.418   5.578   1.153 -0.1326 -0.1303 -0.2101
 4516W        W 8260   3.949   4.977   4.349  0.0937 -0.3191 -0.2962
 4517W        W 8261   9.225   2.614   1.978  0.1681 -0.0144  0.0198
 4518W        W 8262   7.554   9.144  10.530  0.0315 -0.0730  0.0258
 4519W        W 8263   2.438   0.857   0.981  0.2400  0.0454 -0.1496
 4520W        W 8264   2.047   2.127   2.490 -0.3126 -0.2224  0.2899
 4521W        W 8265   5.036   9.924  11.879  0.3280  0.2339  0.0002
 4522W        W 8266   5.287   5.358   3.487  0.2979 -0.3351  0.1348
 4523W        W 8267   5.224   1.938  10.865  0.3192 -0.0324 -0.0008
 4524W        W 8268   9.250   9.211   4.631 -0.1803 -0.1029 -0.2787
 4525W        W 8269   9.357   8.691   1.778 -0.0069 -0.0908 -0.2465
 4526W        W 8270   6.718   0.821   1.841 -0.2105  0.2551 -0.0729
 4527W        W 8271   9.202   1.720   3.188 -0.1217 -0.0954 -0.0985
 4528W        W 8272   4.249   3.384   9.561  0.1243 -0.2517  0.2289
 4529W        W 8273   0.596   2.187   9.121  0.0634 -0.1574 -0.0199
 4530W        W 8274   7.949   2.200   4.056 -0.2641  0.0836  0.0891
 4531W        W 8275   4.512   2.101   3.931  0.1339 -0.0020 -0.2016
 4532W        W 8276   2.977   6.762   3.345 -0.0740 -0.1076  0.1558
 4533W        W 8277   3.267   4.213  12.245 -0.1058  0.2551 -0.1807
 4534W        W 8278   7.516   6.531  11.353 -0.0555  0.0198  0.1140
 4535W        W 8279   6.395   5.404   1.834  0.0655 -0.0532 -0.1929
 4536W        W 8280   9.509   2.421   1.544  0.1124  0.0986  0.1306
 4537W        W 8281   4.966   6.431  11.735  0.1502  0.0261  0.3668
 4538W        W 8282   6.098   5.906   3.384 -0.0588 -0.2836  0.0892
 4539W        W 8283   9.284   2.089   3.544 -0.0006  0.0617 -0.1678
 4540W        W 8284   7.132   2.609   4.185 -0.1228  0.0120  0.0609
 4541W        W 8285   4.631   4.759   9.250 -0.3116 -0.3978  0.1717
 4542W        W 8286   7.882   1.082   9.722 -0.2305  0.1228 -0.1944
 4543W        W 8287   2.824   9.082   0.200  0.0260 -0.0451  0.1483
 4544W        W 8288   3.139   8.893   1.680 -0.1379 -0.3109  0.0169
 4545W        W 8289   3.684   2.522   3.602  0.0886 -0.1023  0.1267
 4546W        W 8290   3.416   4.508   3.488  0.0100  0.0109 -0.1138
 4547W        W 8291   6.873   2.165   3.337 -0.1116 -0.1718  0.0179
 4548W        W 8292   6.674   3.183   9.174 -0.1754 -0.1497 -0.2748
 4549W        W 8293   7.634   5.119   0.558 -0.2434 -0.1245 -0.0817
 4550W        W 8294   1.659   2.362   2.733  0.0521  0.3814 -0.2202
 4551W        W 8295   2.496   1.090   0.475  0.2338 -0.1236 -0.3874
 4552W        W 8296   8.853   0.479   1.788 -0.0086  0.2362  0.2973
 4553W        W 8297   5.342   8.199   9.911 -0.0375  0.3573 -0.0502
 4554W        W 8298   3.018   0.830   0.790  0.0204 -0.1656 -0.2810
 4555W        W 8299   3.110   9.589   0.914 -0.0053 -0.0948 -0.0188
 4556W        W 8300   7.608  10.105   4.362  0.1622  0.0694 -0.1465
 4557W        W 8301   0.681   8.518   3.385 -0.2051 -0.3185 -0.1095
 4558W        W 8302   7.219   7.897   8.553 -0.3038 -0.3103 -0.0649
 4559W        W 8303   9.608   5.435   3.149 -0.1024 -0.0442 -0.3606
 4560W        W 8304   2.356   3.151  12.041 -0.0901 -0.4298  0.1370
 4561W        W 8305   9.224   7.956   2.814 -0.3341 -0.0685 -0.1558
 4562W        W 8306   7.323   3.948  10.842  0.0502 -0.0561  0.0544
 4563W        W 8307   2.480   9.030  10.430 -0.1277 -0.2467 -0.0648
 4564W        W 8308   8.327   1.740   9.999 -0.0652  0.1496 -0.2230
 4565W        W 8309   8.169   4.589   9.391  0.0616 -0.0283 -0.0660
 4566W        W 8310   3.005   3.769   0.595  0.0542 -0.0007  0.1807
 4567W        W 8311   4.906   6.851   9.661 -0.0672  0.0599 -0.1391
 4568W        W 8312   3.903   3.774   3.507 -0.0409 -0.2076  0.2515
 4569W        W 8313   9.959   5.888   1.875  0.0520 -0.1384 -0.0219
 4570W        W 8314   5.819   7.455   2.349 -0.3635  0.2538  0.1781
 4571W        W 8315   9.029   1.676   9.335  0.0543  0.1439  0.1944
 4572W        W 8316   0.248   4.938  10.512  0.2426 -0.0394  0.0196
 4573W        W 8317   6.270   1.181   2.732  0.2045  0.3660  0.2037
 4574W        W 8318   3.149   0.965   3.356 -0.0704  0.0344  0.2411
 4575W        W 8319   6.891   9.818  11.668 -0.0686 -0.1055  0.1594
 4576W        W 8320   1.573   7.436   3.112  0.0795  0.3965 -0.0720
 4577W        W 8321   7.211   9.569  10.450 -0.1761  0.0673  0.0662
 4578W        W 8322   9.875   3.415  11.035 -0.0473  0.1663  0.0475
 4579W        W 8323   5.432   5.652   0.547  0.4273 -0.1488 -0.2190
 4580W        W 8324   6.264   4.826  11.984  0.2460 -0.0647  0.1238
 4581W        W 8325  10.121   2.423   2.939  0.2325  0.1070 -0.2841
 4582W        W 8326   7.748   3.500  12.329  0.0203 -0.1229 -0.0149
 4583W        W 8327   5.161   9.449  12.169  0.0731 -0.3441  0.0975
 4584W        W 8328   8.930   7.509  10.801  0.0723 -0.1767  0.0692
 4585W        W 8329   6.721   9.445   3.133  0.0820  0.2469 -0.1906
 4586W        W 8330   5.339   2.194   2.116  0.1501 -0.0532  0.2952
 4587W        W 8331   8.053   1.951   1.183  0.0958  0.0012  0.1338
 4588W        W 8332   0.589   9.010   3.487  0.0043  0.2647 -0.0630
 4589W        W 8333   6.667   2.710  10.964  0.1807 -0.1021 -0.0665
 4590W        W 8334   5.623   5.197   0.296 -0.0843  0.0633 -0.0462
 4591W        W 8335   1.253   2.394   8.515  0.1812  0.2257  0.1682
 4592W        W 8336   1.923   6.265   8.763 -0.0060  0.0941  0.2347
 4593W        W 8337   4.171   3.018   3.375 -0.1308 -0.1784  0.0666
 4594W        W 8338   5.309   2.100   9.931  0.0531 -0.2946 -0.0429
 4595W        W 8339   4.656   3.464  10.346  0.0126 -0.1674 -0.1713
 4596W        W 8340   7.890   0.791  11.789 -0.1936 -0.1104  0.2617
 4597W        W 8341   2.892   1.365   0.743  0.1063  0.2513  0.0301
 4598W        W 8342   9.661   3.033   8.903  0.1490  0.0158 -0.0756
 4599W        W 8343   2.754   8.572   0.851  0.1735 -0.1861  0.0443
 4600W        W 8344   6.844   4.539  11.284  0.1812  0.1038 -0.0200
 4601W        W 8345   1.183   7.048   9.625  0.0851  0.4083  0.0702
 4602W        W 8346   7.818   4.392   3.340 -0.1019 -0.0860 -0.0010
 4603W        W 8347   5.190   0.585   3.605 -0.0000  0.1904  0.2200
 4604W        W 8348   1.254   7.459   9.908  0.4050  0.0318  0.2340
 4605W        W 8349   5.296   8.256   8.385 -0.2409  0.2661  0.3002
 4606W        W 8350   8.457   0.755   0.767  0.0988 -0.0489  0.4394
 4607W        W 8351   2.945   0.461   1.150  0.0824 -0.2472  0.2057
 4608W        W 8352   7.039   4.312   2.397  0.0072  0.1427  0.3132
 4609W        W 8353   8.601  10.022   1.129 -0.2690  0.1060 -0.2279
 4610W        W 8354   9.977   2.605   1.429  0.1049  0.2510  0.0216
 4611W        W 8355   3.655   6.988   9.436  0.0462  0.0582 -0.2938
 4612W        W 8356   3.145   8.985  11.861  0.1384  0.3275  0.1575
 4613W        W 8357   4.316   5.046   0.665 -0.0045  0.1821  0.1325
 4614W        W 8358   8.092   4.591   9.940 -0.1079  0.1470 -0.1830
 4615W        W 8359   0.234   9.638   1.822  0.0430 -0.2169 -0.1026
 4616W        W 8360   8.169   9.346   4.267  0.2048  0.1568  0.2957
 4617W        W 8361   8.370   2.203   2.208  0.1548  0.2010 -0.3290
 4618W        W 8362   7.728   3.653   3.908  0.0055  0.2698 -0.2664
 4619W        W 8363   9.599   5.111   1.788 -0.0123  0.0320  0.0744
 4620W        W 8364   5.257   6.076   4.876 -0.1780 -0.2825 -0.3044
 4621W        W 8365   7.442   2.163   1.050 -0.0251  0.2897 -0.0645
 4622W        W 8366   5.902   1.912   1.282  0.2893 -0.3675  0.2046
 4623W        W 8367   0.029   6.445   3.656 -0.3198  0.2230  0.0099
 4624W        W 8368   3.198   7.590   2.658 -0.0372  0.5026 -0.1390
 4625W        W 8369   1.078   0.515   4.355  0.3038  0.0661 -0.0895
 4626W        W 8370   3.299   0.463   4.362  0.1356 -0.0542  0.2049
 4627W        W 8371   6.270   5.518   2.690  0.1643 -0.0376 -0.3120
 4628W        W 8372   8.801   9.006   0.969 -0.1263 -0.0561  0.0122
 4629W        W 8373   6.769   2.924   0.973  0.1198  0.0330  0.0785
 4630W        W 8374   5.229   9.013   3.244 -0.1292  0.2499 -0.2343
 4631W        W 8375   3.155   7.557  11.621 -0.0034 -0.2576  0.0722
 4632W        W 8376   5.316   2.918   3.693 -0.1415 -0.1438 -0.0578
 4633W        W 8377   5.997   2.102   8.341  0.3156 -0.1268 -0.1618
 4634W        W 8378   2.189   3.094   2.751 -0.3058 -0.1646  0.3207
 4635W        W 8379   0.669   5.730   0.069  0.0102  0.1658 -0.1057
 4636W        W 8380   1.889   0.471   3.120  0.2608  0.0133  0.0464
 4637W        W 8381   9.572   4.027  10.213 -0.0569  0.1084  0.0121
 4638W        W 8382   1.180   9.035   2.596  0.1525 -0.3189 -0.2262
 4639W        W 8383   3.073   9.951   0.549 -0.1697 -0.0849 -0.1345
 4640W        W 8384   4.878   8.642  10.290 -0.1567 -0.1092  0.0918
 4641W        W 8385   1.206   4.232   2.581 -0.1480  0.1780  0.3577
 4642W        W 8386   9.867   1.812   1.173  0.0740  0.0937  0.1356
 4643W        W 8387   2.813   3.206   2.057 -0.1261  0.1286  0.1268
 4644W        W 8388   0.576   7.176  10.933  0.4931  0.5084 -0.1180
 4645W        W 8389   9.058   2.423  11.010 -0.1076 -0.2242  0.0450
 4646W        W 8390   5.543   6.407  11.701 -0.0638 -0.0981  0.0901
 4647W        W 8391   9.551   9.872  11.051  0.2435  0.3084 -0.0867
 4648W        W 8392   0.851   0.155   4.585  0.2285 -0.0103 -0.0068
 4649W        W 8393   9.314   1.662  11.264  0.0245 -0.2838 -0.2847
 4650W        W 8394   9.158   7.822  11.803 -0.0675 -0.0240  0.0034
 4651W        W 8395   9.522   2.834   2.387  0.2676  0.0209  0.1602
 4652W        W 8396   8.397   2.786  10.560 -0.2023 -0.0208  0.0244
 4653W        W 8397   9.239   4.199   2.815  0.1457  0.0607 -0.3828
 4654W        W 8398   0.740   7.399   1.220  0.1580 -0.2364  0.0293
 4655W        W 8399   2.542   3.493   0.007  0.3362  0.2672 -0.1200
 4656W        W 8400   7.908   5.355   3.570 -0.0192  0.3717 -0.1198
 4657W        W 8401   3.973   2.631   9.121  0.1074 -0.0545 -0.3729
 4658W        W 8402   9.259   3.907   3.229  0.1968 -0.0067  0.1979
 4659W        W 8403   6.705   9.627   1.472  0.3231 -0.5660 -0.1591
 4660W        W 8404   8.757   2.729  11.987 -0.3246 -0.2846  0.0912
 4661W        W 8405   6.400   8.684   1.213 -0.2589  0.3555  0.1489
 4662W        W 8406   2.596   7.085   4.620  0.0070  0.1125 -0.0388
 4663W        W 8407   3.517   1.123  11.297  0.0210 -0.1530 -0.2504
 4664W        W 8408   3.921   3.152   9.230  0.0259 -0.1791  0.0896
 4665W        W 8409   7.418   4.308  10.397 -0.0919  0.0452  0.1316
 4666W        W 8410   0.915   4.724   2.883 -0.0863 -0.0075 -0.0370
 4667W        W 8411   6.019   3.100   1.369 -0.2547  0.0206  0.0943
 4668W        W 8412   4.136   9.466   4.346  0.1861 -0.0507 -0.0445
 4669W        W 8413   5.061   4.704   2.698  0.1366  0.2773 -0.0126
 4670W        W 8414   8.576   4.289   3.372  0.1733  0.0974 -0.2184
 4671W        W 8415   4.937   0.666   1.387  0.2424 -0.1808  0.2419
 4672W        W 8416   7.095   0.534  11.296  0.1538  0.2115 -0.2089
 4673W        W 8417   2.329   9.428   4.736  0.1918  0.1723 -0.0875
 4674W        W 8418   6.613   3.892   3.436 -0.4416  0.0446  0.2717
 4675W        W 8419   3.787   1.364  11.640 -0.1295  0.1711 -0.0743
 4676W        W 8420   4.158   7.044   8.979  0.2169  0.1288 -0.3874
 4677W        W 8421   6.974   6.680   8.894  0.2968 -0.3559  0.2177
 4678W        W 8422   2.079   1.763   8.282  0.3674  0.2072  0.0641
 4679W        W 8423   0.417   1.388  10.310  0.1169  0.2202 -0.5262
 4680W        W 8424   2.730   3.298   0.569  0.0813  0.2647  0.0667
 4681W        W 8425   5.259   9.126   9.408 -0.0298  0.1758 -0.0561
 4682W        W 8426   2.485   7.009   0.924 -0.0289  0.0748  0.1913
 4683W        W 8427   2.853   2.042   1.640 -0.0623 -0.0636 -0.1168
 4684W        W 8428   3.493   2.208  11.935 -0.2116 -0.2571  0.1086
 4685W        W 8429   7.748  10.004   8.246  0.2167 -0.0170  0.1094
 4686W        W 8430   9.981   3.782  10.243  0.1483 -0.1381  0.0383
 4687W        W 8431   3.635   5.466   9.965 -0.1199 -0.0017  0.0794
 4688W        W 8432   6.195   7.970   4.435 -0.0077 -0.0487  0.0064
 4689W        W 8433   1.646   7.220   9.773 -0.1135 -0.0797  0.0651
 4690W        W 8434   3.284   3.866   2.541 -0.0246 -0.0282  0.1572
 4691W        W 8435   3.788   7.492   9.445  0.2014 -0.0597 -0.0703
 4692W        W 8436   7.502   1.017   3.157  0.1176 -0.0187  0.1886
 4693W        W 8437   7.128   2.566   3.531 -0.3241  0.3898 -0.1186
 4694W        W 8438   3.585   9.390   1.712 -0.2230  0.2362 -0.3164
 4695W        W 8439   3.061   1.729   3.507  0.1411  0.1174  0.2653
 4696W        W 8440   0.390   9.326   4.497  0.3165  0.1853  0.0381
 4697W        W 8441   5.069   1.180   0.340  0.3300  0.0242  0.3300
 4698W        W 8442   3.475   0.315   5.415  0.0015  0.0796  0.3803
 4699W        W 8443   7.734   2.022   2.994 -0.1190  0.0500 -0.0248
 4700W        W 8444   7.817   4.435   0.257  0.1772 -0.0890 -0.0128
 4701W        W 8445   2.954   7.674   1.170 -0.0902 -0.0376 -0.2776
 4702W        W 8446   1.326   5.795   2.370  0.0307  0.2715 -0.1540
 4703W        W 8447   1.824   8.955  11.606 -0.0690  0.1412  0.3267
 4704W        W 8448   9.903   8.945   9.948  0.0091  0.0449 -0.0089
 4705W        W 8449   3.711   7.343  11.471  0.0696  0.5423  0.4311
 4706W        W 8450   6.609   7.276   3.476 -0.2111 -0.1266  0.2194
 4707W        W 8451   7.837   8.651   9.295  0.1617 -0.2101 -0.2576
 4708W        W 8452   1.597   6.708  11.659 -0.0709 -0.1754  0.1023
 4709W        W 8453   6.077   5.557   1.163  0.0685 -0.0505  0.1086
 4710W        W 8454   7.630   6.640   2.996  0.0955 -0.1812 -0.0192
 4711W        W 8455   0.511   9.706   9.669 -0.1085 -0.2968  0.1282
 4712W        W 8456   4.795   6.119   1.103 -0.1429  0.0642 -0.2837
 4713W        W 8457   8.557   0.339  11.779 -0.0212 -0.0469 -0.1415
 4714W        W 8458   7.135   9.012   0.264  0.2663 -0.1721 -0.1415
 4715W        W 8459   2.362   1.634   8.703  0.0470  0.0271  0.1843
 4716W        W 8460   4.792   9.843   0.887  0.2035 -0.0941  0.3595
 4717W        W 8461   8.926   5.795   1.051  0.3297 -0.5053 -0.1745
 4718W        W 8462   3.558   6.924  11.244  0.3144 -0.1327  0.0651
 4719W        W 8463   7.592   5.642   3.276 -0.0267  0.1553  0.2060
 4720W        W 8464   5.155   7.387   9.040 -0.1591  0.0592 -0.0806
 4721W        W 8465   4.893   4.544   9.666  0.0922  0.2898  0.1593
 4722W        W 8466   1.786   0.760   5.314 -0.0517 -0.1762 -0.0238
 4723W        W 8467   4.593   8.222   3.011 -0.2075 -0.1092 -0.2215
 4724W        W 8468   1.895   8.126   2.880 -0.0013  0.0511 -0.0816
 4725W        W 8469   2.458   4.477   0.942  0.0044  0.1106  0.3209
 4726W        W 8470   6.511   4.127   0.505 -0.1465  0.0030  0.3613
 4727W        W 8471   7.999   1.486   3.840  0.1203  0.1511 -0.0474
 4728W        W 8472   8.772   8.705  10.682  0.0931  0.1490 -0.3352
 4729W        W 8473   2.714   2.671   1.722  0.1143 -0.2423  0.3660
 4730W        W 8474   1.601   2.811  12.143 -0.1420 -0.0994  0.1868
 4731W        W 8475   5.862   6.861   3.909  0.2597  0.2925  0.0547
 4732W        W 8476   2.354   9.349   0.972  0.0579  0.0205 -0.1014
 4733W        W 8477   6.225   7.272   9.179  0.1406 -0.1834  0.4125
 4734W        W 8478   4.516  10.122   4.229 -0.2889 -0.0478  0.0923
 4735W        W 8479   2.445   5.713  11.176  0.3114  0.1134 -0.1244
 4736W        W 8480   0.162   0.782   1.418  0.0130  0.0779 -0.1563
 4737W        W 8481   4.755   6.525   3.637  0.0109  0.0881 -0.0779
 4738W        W 8482   6.632   6.512  10.320  0.1772 -0.1811  0.0318
 4739W        W 8483   1.512   6.229  11.445 -0.1224  0.1072  0.0722
 4740W        W 8484   6.834   2.381  11.352  0.1688 -0.0411  0.0042
 4741W        W 8485   4.545   7.168   8.492  0.2343 -0.1461 -0.1292
 4742W        W 8486   6.670   9.355   1.091  0.0534  0.2886  0.0770
 4743W        W 8487   5.095   4.857   3.577 -0.0207 -0.0164  0.1468
 4744W        W 8488   6.699   8.416   4.325 -0.0892 -0.2582 -0.0945
 4745W        W 8489   9.331   8.386   3.517 -0.4411  0.0240 -0.1577
 4746W        W 8490   8.755   0.418  10.897  0.1476 -0.1243  0.3898
 4747W        W 8491   2.266   9.025   2.174 -0.3778  0.2999  0.2322
 4748W        W 8492   8.323   6.050   4.564 -0.2339 -0.1206 -0.5474
 4749W        W 8493   4.421   1.817  10.878  0.0121  0.2147  0.0166
 4750W        W 8494   3.507   7.012  11.815 -0.2120 -0.0797 -0.1549
 4751W        W 8495   6.921   5.668   0.562  0.3535  0.0995 -0.0103
 4752W        W 8496   7.180   2.251   1.498  0.0580  0.0605 -0.2740
 4753W        W 8497   0.068   1.721   3.151  0.3813  0.1671  0.0154
 4754W        W 8498   1.379   8.255   1.249 -0.1111  0.1590  0.0031
 4755W        W 8499   6.127   2.942   4.270  0.0450  0.2737  0.2878
 4756W        W 8500   1.272   5.289   1.112 -0.1389  0.1055 -0.0664
 4757W        W 8501   5.193   4.084  12.040  0.0835 -0.0783 -0.2571
 4758W        W 8502   1.610   6.190  11.987  0.5013 -0.1357 -0.0064
 4759W        W 8503   8.967   8.931   9.418  0.0067  0.1640  0.1319
 4760W        W 8504   6.667  10.114   9.228 -0.0727 -0.0267  0.4565
 4761W        W 8505   9.350   9.655   4.337 -0.0669  0.0020  0.1468
 4762W        W 8506   3.731   6.182  12.193  0.2793 -0.2953  0.3215
 4763W        W 8507   5.391   5.826   3.329  0.0948  0.2391  0.1202
 4764W        W 8508   0.664   0.859   3.476 -0.3840  0.0171  0.0780
 4765W        W 8509   4.409   1.076  12.239  0.2634 -0.2424 -0.0148
 4766W        W 8510   0.940   9.092   4.075 -0.0269 -0.0110  0.2800
 4767W        W 8511   1.959   4.692  11.440 -0.3331 -0.1314 -0.0159
 4768W        W 8512   8.332   0.931   2.104  0.2100 -0.1024  0.0797
 4769W        W 8513   7.976   8.773   3.115 -0.6142 -0.1825  0.2717
 4770W        W 8514   8.391   6.374  10.262  0.0710  0.4116 -0.1009
 4771W        W 8515   5.840   9.126  11.175  0.0539 -0.2468  0.0440
 4772W        W 8516   7.368   2.113   3.392 -0.0941  0.0675 -0.0863
 4773W        W 8517   8.885   6.021  12.045 -0.0823  0.3918 -0.1583
 4774W        W 8518   3.002   3.227   3.630  0.2103 -0.0994 -0.3217
 4775W        W 8519   9.312   2.431   9.636  0.0454 -0.1349 -0.2272
 4776W        W 8520   7.090   5.591  10.635  0.0269  0.1325  0.0644
 4777W        W 8521   3.975   1.132   9.958  0.0991  0.1010 -0.0917
 4778W        W 8522   6.865   7.616   3.767  0.3320  0.0751  0.1391
 4779W        W 8523   6.784   1.079   9.156  0.0033 -0.0351 -0.4471
 4780W        W 8524   8.205   5.643   9.059  0.2676 -0.1592 -0.2165
 4781W        W 8525   6.945   7.593   3.254  0.0316  0.0298 -0.1273
 4782W        W 8526   9.830   8.136   0.066  0.2086  0.2828 -0.1516
 4783W        W 8527   7.578   6.288   5.177  0.2532  0.1981 -0.2870
 4784W        W 8528   8.749   1.148   0.744 -0.2945  0.0354 -0.2149
 4785W        W 8529   0.988  10.088   9.591  0.0904 -0.4601  0.1401
 4786W        W 8530   9.958   6.927  11.639 -0.0991 -0.0702 -0.0415
 4787W        W 8531   7.777   3.084   2.101  0.2521 -0.0093  0.2986
 4788W        W 8532   6.648   5.857   1.891  0.0586 -0.1368 -0.0175
 4789W        W 8533   2.106   4.614   8.884 -0.0170 -0.1172  0.2777
 4790W        W 8534   7.340   3.949   2.123 -0.2457  0.1226 -0.0589
 4791W        W 8535   1.501   9.939   1.416 -0.1234 -0.1642 -0.2034
 4792W        W 8536   5.264   3.629   9.639  0.0572 -0.0066  0.0275
 4793W        W 8537   3.900   4.777   0.687  0.0880 -0.0825 -0.1075
 4794W        W 8538   1.599   0.807   1.502 -0.0280 -0.2687  0.1018
 4795W        W 8539   9.236   6.083  10.385 -0.0018 -0.1001  0.0539
 4796W        W 8540   4.619   7.511   0.114  0.1285 -0.0202  0.1951
 4797W        W 8541   7.719   9.104   0.437  0.0739  0.0238  0.0232
 4798W        W 8542   6.764   5.098   4.909  0.3342 -0.2317  0.1367
 4799W        W 8543   2.985   1.603   1.192 -0.0979 -0.0575  0.2070
 4800W        W 8544   3.454   8.164   1.984  0.2012  0.4357  0.1438
 4801W        W 8545   2.586   2.760   1.158  0.0146 -0.0604 -0.1414
 4802W        W 8546   2.320   5.321   9.672  0.0633 -0.1449  0.0979
 4803W        W 8547   7.207   7.074   1.541  0.1554 -0.2154 -0.1581
 4804W        W 8548   0.086   5.185   2.428 -0.0335  0.1188  0.1217
 4805W        W 8549   1.735   5.395  12.122  0.1207  0.1937  0.0503
 4806W        W 8550   5.043   5.519   0.207 -0.0646 -0.0628  0.2856
 4807W        W 8551   5.341   1.253   4.322 -0.0326 -0.0747  0.0337
 4808W        W 8552   4.354   9.643  11.284  0.3092  0.1717 -0.1039
 4809W        W 8553   6.983   2.838   1.563  0.3967  0.3150 -0.2482
 4810W        W 8554   3.240   6.212  12.330 -0.2792 -0.0513 -0.0348
 4811W        W 8555   6.710   7.896   0.978  0.2098  0.0464 -0.2151
 4812W        W 8556   1.655   9.896   1.944 -0.0250  0.1505  0.0089
 4813W        W 8557   4.801   3.065   3.595  0.1287  0.1817 -0.3513
 4814W        W 8558   5.653   9.437  11.778 -0.1685  0.0474  0.0064
 4815W        W 8559   5.451   5.098   2.539  0.6083  0.0495  0.3846
 4816W        W 8560   2.990   2.924   0.808 -0.4713  0.3532 -0.0635
 4817W        W 8561   5.564   0.587   1.242 -0.1209 -0.0633 -0.1044
 4818W        W 8562   9.055   9.679  12.075 -0.0099 -0.0658 -0.0884
 4819W        W 8563   8.431   4.386   1.541 -0.0210 -0.1577  0.0198
 4820W        W 8564   9.292   5.164   0.429 -0.0465 -0.3354  0.1072
 4821W        W 8565   6.267   4.340  11.874  0.1225 -0.0496 -0.0299
 4822W        W 8566   2.517   6.775   0.481  0.0223 -0.1834  0.0891
 4823W        W 8567   5.023   5.859  10.335  0.0715  0.2223  0.1626
 4824W        W 8568   7.719   8.394   3.314  0.2838  0.1257  0.1973
 4825W        W 8569   8.506   6.436   4.178  0.4818  0.1041  0.2186
 4826W        W 8570   9.972   1.707   4.642  0.1665  0.0269  0.2907
 4827W        W 8571   8.123   0.536   4.610  0.2188  0.1105 -0.1577
 4828W        W 8572   3.536   9.688   0.630 -0.0425  0.1364  0.5050
 4829W        W 8573   2.049   9.093   9.609  0.2952  0.0077 -0.0023
 4830W        W 8574   3.954   6.207   9.167  0.0830 -0.1355  0.1516
 4831W        W 8575   0.498   5.386   3.512 -0.1624 -0.1961  0.2446
 4832W        W 8576   5.118   6.707   3.365 -0.1110  0.1046  0.1603
 4833W        W 8577   5.508   9.680   1.943  0.2170  0.1279  0.2697
 4834W        W 8578   8.469   9.979   2.649 -0.1290 -0.0946  0.2001
 4835W        W 8579   3.925   5.393   1.808 -0.1215  0.0437  0.0553
 4836W        W 8580   6.695   3.350   3.732  0.2031  0.1870  0.1146
 4837W        W 8581   0.163   5.737  10.797  0.0384  0.1169  0.2255
 4838W        W 8582   0.361   8.242  10.508  0.0305  0.0068  0.0259
 4839W        W 8583   4.845   4.639  10.749 -0.1619  0.1278  0.0013
 4840W        W 8584   6.806   7.921   9.220 -0.0084  0.2288 -0.0611
 4841W        W 8585   6.718   7.413   9.295  0.3821  0.0032 -0.0817
 4842W        W 8586   0.316   7.060   9.748 -0.4512 -0.1074 -0.3810
 4843W        W 8587   1.166   0.080   2.780 -0.0540 -0.1507  0.0390
 4844W        W 8588   6.327   7.752   9.139  0.0808  0.0255  0.2337
 4845W        W 8589   7.062   4.763  11.685  0.0609 -0.0225 -0.1379
 4846W        W 8590   7.146   5.903   0.234 -0.0329  0.0188 -0.0426
 4847W        W 8591   6.567   4.379  10.895 -0.0613  0.0696 -0.2299
 4848W        W 8592   6.937   0.042   1.260  0.0714  0.0150  0.0111
 4849W        W 8593   7.382   3.475   4.368 -0.0682  0.2653 -0.1955
 4850W        W 8594   8.448   6.348   9.718  0.1628  0.2179 -0.1302
 4851W        W 8595   1.590   4.304  12.169 -0.0791  0.2238  0.1089
 4852W        W 8596   6.983  10.128  12.046  0.1742 -0.0300 -0.0121
 4853W        W 8597   8.835   1.909   3.694  0.2399 -0.0448  0.1876
 4854W        W 8598   9.269   2.650   3.413  0.0220  0.1888 -0.2242
 4855W        W 8599   7.697   0.042   2.448  0.0631 -0.6658 -0.1508
 4856W        W 8600   1.828   0.073   3.595 -0.0341  0.0806 -0.1699
 4857W        W 8601   3.854   3.690   9.796 -0.2018  0.0435  0.1975
 4858W        W 8602   0.731   9.819  10.965 -0.1557 -0.2441  0.2236
 4859W        W 8603   9.184   7.108   3.574  0.1837 -0.0127  0.0411
 4860W        W 8604   8.236   7.460   0.518  0.0731  0.0316  0.0459
 4861W        W 8605   1.500   0.633   1.927  0.1765  0.1923 -0.0607
 4862W        W 8606  10.069   4.786   1.006 -0.2587 -0.2375 -0.0710
 4863W        W 8607   5.231   3.815   0.099 -0.1312  0.0049 -0.1614
 4864W        W 8608   1.553   8.449   3.040  0.3250  0.1826 -0.0878
 4865W        W 8609   8.244   7.185   3.708 -0.0197 -0.3373 -0.3996
 4866W        W 8610   4.977   5.719   3.068  0.1330  0.0297 -0.0058
 4867W        W 8611   3.310   6.566   2.477  0.2663  0.0492 -0.1219
 4868W        W 8612   1.104   2.137   0.677 -0.0944 -0.1890 -0.0030
 4869W        W 8613   0.007   9.168   4.108 -0.0287 -0.1998  0.0349
 4870W        W 8614   6.377   8.843   3.083  0.2468 -0.2394 -0.0749
 4871W        W 8615  10.108   6.074   8.871  0.0372  0.0805 -0.3636
 4872W        W 8616   5.397   2.127  10.450 -0.1691 -0.5092  0.0376
 4873W        W 8617   3.334   4.616   9.006  0.0299 -0.0005  0.0992
 4874W        W 8618   5.649   3.452  10.604  0.2233 -0.0839  0.1618
 4875W        W 8619   1.077   5.030   9.987 -0.2618 -0.0480  0.0897
 4876W        W 8620   5.214   9.536   9.662 -0.0963 -0.0243 -0.3273
 4877W        W 8621   1.817   1.819  11.996 -0.0418 -0.1090  0.3639
 4878W        W 8622   1.413   7.858   2.867 -0.0519 -0.0988  0.0524
 4879W        W 8623  10.024   9.652  10.082 -0.0025 -0.2584  0.0134
 4880W        W 8624  10.109   8.295   9.682  0.2248 -0.0607  0.0566
 4881W        W 8625   1.088   1.670   1.115  0.1555  0.0338 -0.0854
 4882W        W 8626   9.596   7.223   3.892  0.0723  0.1415 -0.0217
 4883W        W 8627   2.502   1.925   2.380 -0.1660  0.1643  0.0183
 4884W        W 8628   8.867   0.988   2.091  0.2919 -0.3392  0.0959
 4885W        W 8629   0.378   2.653   9.442 -0.2201  0.0516  0.3335
 4886W        W 8630   1.994   1.978   8.764 -0.0437  0.0726 -0.0443
 4887W        W 8631   0.832   9.452   0.708 -0.0215 -0.1110  0.0751
 4888W        W 8632   6.991   6.375  10.028 -0.1471 -0.3188 -0.1382
 4889W        W 8633   2.207   9.787   9.128 -0.0408 -0.1107  0.0811
 4890W        W 8634   4.558   6.828   9.237  0.1977  0.0997 -0.3291
 4891W        W 8635   5.574   9.293   0.312  0.3174 -0.0503 -0.1447
 4892W        W 8636   7.795   7.800   5.151  0.2304 -0.0650  0.0884
 4893W        W 8637   8.762   4.757  11.091  0.0169  0.1651 -0.1443
 4894W        W 8638   2.447   9.981  12.337  0.5156  0.4464 -0.2980
 4895W        W 8639   4.065   6.251   4.686  0.1338 -0.1860 -0.2260
 4896W        W 8640   6.660   0.923  10.275  0.1052 -0.0087 -0.1756
 4897W        W 8641   1.000   6.626   0.347  0.1576  0.1422 -0.1984
 4898W        W 8642   9.837   6.390   8.534  0.0614  0.1205  0.0093
 4899W        W 8643   9.714   8.822  10.943  0.0296  0.0933  0.2120
 4900W        W 8644   6.930   0.207  11.606  0.2232  0.2444  0.0801
 4901W        W 8645   2.524   4.335  10.728  0.1962 -0.0143 -0.0853
 4902W        W 8646   5.077   6.857   2.258  0.0398 -0.1094  0.4148
 4903W        W 8647   4.514   3.934  10.354  0.1243  0.0529  0.0005
 4904W        W 8648   6.080   7.821   8.753 -0.1712  0.0845  0.0210
 4905W        W 8649   2.820   3.345   8.980  0.1372 -0.1145  0.0504
 4906W        W 8650   7.409   7.369   0.873  0.0845 -0.1785 -0.1316
 4907W        W 8651   1.359   1.963  12.247  0.4539 -0.0647 -0.1191
 4908W        W 8652   1.068   6.917  12.309  0.2237 -0.1097 -0.0715
 4909W        W 8653   4.755   3.104  12.207  0.2060  0.2300 -0.1035
 4910W        W 8654   0.914   8.198   1.405 -0.0276  0.0915 -0.1154
 4911W        W 8655   1.817   4.171  11.327 -0.0827  0.0320 -0.4458
 4912W        W 8656   9.303   9.003  11.164 -0.2082  0.2239 -0.1471
 4913W        W 8657   8.239   2.000   3.151 -0.3726  0.0983 -0.2140
 4914W        W 8658   4.335   0.992  10.380  0.1175 -0.1169  0.0199
 4915W        W 8659   3.426   3.053   9.134 -0.1964 -0.1362 -0.5988
 4916W        W 8660   5.407   6.460   2.564  0.1756 -0.1921  0.0350
 4917W        W 8661   8.090   3.302   9.781  0.2934 -0.1146  0.1191
 4918W        W 8662   2.329   3.100   3.305  0.0590 -0.0819 -0.4031
 4919W        W 8663   0.717   8.234   1.921 -0.1042  0.0720 -0.0465
 4920W        W 8664   4.445   7.205  11.546  0.1295 -0.2406 -0.2763
 4921W        W 8665   7.873   7.058   2.760 -0.1045 -0.0356  0.1050
 4922W        W 8666   0.655   0.821   1.778  0.1579 -0.0296  0.1655
 4923W        W 8667   2.461   4.619  11.670 -0.2406 -0.3556  0.0781
 4924W        W 8668   9.926   5.365   2.116  0.0659 -0.2004 -0.3691
 4925W        W 8669   5.552   4.030  11.606 -0.0926  0.2912  0.0444
 4926W        W 8670   5.504   8.568  10.610 -0.1614  0.3305 -0.0266
 4927W        W 8671   0.851   0.007   3.693  0.0830  0.1327 -0.0266
 4928W        W 8672   9.272   1.745  10.783 -0.1344 -0.0145  0.0699
 4929W        W 8673   2.566   9.644  11.924  0.0061 -0.2053  0.0040
 4930W        W 8674   3.521   1.317   0.388  0.0264  0.2474 -0.1326
 4931W        W 8675   8.857   0.796   9.039  0.1789  0.0402 -0.0608
 4932W        W 8676   9.211   6.287  10.875 -0.1169  0.0365 -0.1023
 4933W        W 8677   6.511   6.239   1.635  0.0385 -0.2265  0.1566
 4934W        W 8678   7.527   7.446   9.208 -0.0507  0.0436 -0.1477
 4935W        W 8679   1.124   8.167  12.221  0.1236  0.4886  0.0251
 4936W        W 8680   0.911   2.385  11.162  0.0476 -0.1084  0.0262
 4937W        W 8681   9.188   9.215   9.921 -0.1728 -0.2472 -0.1212
 4938W        W 8682   1.864   3.059   0.119  0.0571  0.0704  0.0128
 4939W        W 8683   7.629   3.168  11.759 -0.1867 -0.1310 -0.0043
 4940W        W 8684   7.794   7.870  11.360  0.0007  0.0639 -0.1296
 4941W        W 8685   6.162   0.153  11.207  0.2072 -0.1230  0.0227
 4942W        W 8686   9.657   7.868  12.000  0.0471 -0.1291 -0.1889
 4943W        W 8687   4.986   9.132   4.855  0.0404  0.2119  0.1512
 4944W        W 8688   4.474   1.744  10.365 -0.0064 -0.2209  0.0054
 4945W        W 8689   1.777   4.199   8.429  0.2106  0.1096  0.1270
 4946W        W 8690   7.174   4.908   9.316 -0.1701 -0.2563  0.1162
 4947W        W 8691   7.896   9.358   3.280 -0.2809  0.1427 -0.1053
 4948W        W 8692   6.745   6.184   0.127 -0.1001 -0.2009 -0.3456
 4949W        W 8693   5.281   6.775   1.770  0.1436  0.0554  0.1093
 4950W        W 8694   5.638   3.406   0.526 -0.1098  0.2663 -0.0873
 4951W        W 8695   5.007   9.615   2.186  0.2971 -0.0916 -0.1570
 4952W        W 8696   7.851   0.240   5.032  0.0443  0.0432 -0.0953
 4953W        W 8697   0.652   1.446   4.941  0.3419 -0.0573  0.2397
 4954W        W 8698   0.748   8.138  11.889 -0.0501  0.3352  0.5497
 4955W        W 8699   5.760   6.807   1.540 -0.0034  0.1430 -0.0757
 4956W        W 8700   1.972   2.362   3.376  0.2949 -0.0290  0.0457
 4957W        W 8701   3.159   8.545   3.310 -0.2898 -0.2451 -0.0894
 4958W        W 8702   1.889   0.585   9.813  0.0644  0.1970  0.4230
 4959W        W 8703   3.328   8.488   2.769  0.2006 -0.2771  0.1194
 4960W        W 8704   9.402   1.963   1.390 -0.2578 -0.0018 -0.1174
 4961W        W 8705   8.913   1.315   8.997  0.0458 -0.0093  0.1535
 4962W        W 8706   4.344   3.984   3.730  0.5115 -0.0844  0.1985
 4963W        W 8707   4.698   8.384   1.561 -0.0435 -0.0475  0.1626
 4964W        W 8708   8.598   3.341  11.738 -0.1066  0.4512  0.0656
 4965W        W 8709   8.452   5.483   0.871  0.2593 -0.0104 -0.1768
 4966W        W 8710   2.690   8.369   3.452 -0.0269  0.4437  0.3552
 4967W        W 8711   1.228   2.620   0.491  0.1440  0.1285  0.1096
 4968W        W 8712   0.382   7.735  11.736  0.2825 -0.0261  0.0536
 4969W        W 8713   6.006   0.450   9.478  0.0559  0.2442  0.1259
 4970W        W 8714   2.884   9.029   2.245 -0.0926 -0.2079 -0.0201
 4971W        W 8715   1.594   6.708   3.921  0.0119 -0.0995 -0.2629
 4972W        W 8716   9.954   7.992   2.985  0.0359 -0.2374 -0.1980
 4973W        W 8717   5.559   1.566   1.261 -0.1004  0.0638  0.2007
 4974W        W 8718   2.831   8.346   2.917  0.3098 -0.2709  0.0735
 4975W        W 8719   7.024   6.087   1.583 -0.1768 -0.3167 -0.3662
 4976W        W 8720   5.646   2.890  10.777 -0.2344  0.0651  0.0610
 4977W        W 8721   5.468   1.872   3.086 -0.2539  0.0765  0.0814
 4978W        W 8722   4.530   9.619   3.097  0.3182  0.3306  0.0504
 4979W        W 8723   3.925   7.716   1.926  0.1857  0.0322  0.0700
 4980W        W 8724   1.263   7.276   1.412  0.0882  0.1318 -0.2068
 4981W        W 8725   5.788   7.972   2.757 -0.1608  0.2453  0.2215
 4982W        W 8726   4.576   3.740  10.836  0.0721 -0.0605  0.0964
 4983W        W 8727   7.240   6.300   4.831 -0.2730 -0.1019  0.0203
 4984W        W 8728   3.545   0.840   9.884  0.2388 -0.0670 -0.0340
 4985W        W 8729   3.669   6.878   2.301  0.2391  0.2777  0.0341
 4986W        W 8730   6.084   7.078   1.129 -0.0514 -0.6192  0.2166
 4987W        W 8731   6.950   5.142   2.655  0.2306  0.0354 -0.2857
 4988W        W 8732   5.683   9.084  10.681  0.1134  0.1493  0.1718
 4989W        W 8733   3.297   8.648   2.238 -0.1831 -0.1553 -0.0299
 4990W        W 8734   4.742   5.791   4.040  0.3247  0.2413  0.0032
 4991W        W 8735   8.210   7.981   0.834 -0.1584 -0.1403 -0.2496
 4992W        W 8736   1.147   9.282  10.197 -0.0370  0.0940 -0.3232
 4993W        W 8737   4.050   6.164   4.155 -0.1653 -0.2653  0.1163
 4994W        W 8738   9.701   1.548  10.972  0.0644 -0.0652 -0.0513
 4995W        W 8739   9.151   4.977   1.379  0.0885  0.0174  0.0608
 4996W        W 8740   6.732   0.468   1.479  0.0371 -0.0776 -0.0841
 4997W        W 8741   9.293   8.635   3.964 -0.2546 -0.2348 -0.1257
 4998W        W 8742   6.840   3.416   3.271 -0.0090 -0.1386 -0.0237
 4999W        W 8743   6.578   2.545   4.417  0.0574 -0.4052  0.0331
 5000W        W 8744   0.631   8.514   1.073  0.0580  0.2220 -0.2831
 5001W        W 8745   6.814   1.493  11.277  0.2490  0.2947 -0.0163
 5002W        W 8746   9.768   2.972   0.057  0.0243  0.0121  0.0416
 5003W        W 8747   3.660   7.470  10.999 -0.2270  0.1394  0.1273
 5004W        W 8748   6.921   2.523  11.853  0.1929  0.0763  0.2378
 5005W        W 8749   0.157   3.199   3.497  0.2176  0.1856 -0.1297
 5006W        W 8750   3.539   3.662  11.292  0.0288  0.0671 -0.2690
 5007W        W 8751   6.219   7.102   2.549  0.1544  0.0096 -0.0323
 5008W        W 8752   4.900   8.971  11.305 -0.1619 -0.3074  0.0395
 5009W        W 8753   8.191   8.955   0.506 -0.0340  0.0646  0.0162
 5010W        W 8754   2.501   4.886  10.636 -0.0307 -0.0496 -0.4893
 5011W        W 8755   2.456   8.941   3.996  0.1364 -0.1981  0.1807
 5012W        W 8756   7.660   4.428   4.005  0.0343  0.4302 -0.0810
 5013W        W 8757   6.537   1.894   1.779  0.1171  0.2013  0.0811
 5014W        W 8758   8.140   3.114   0.272  0.0139  0.1942 -0.0830
 5015W        W 8759   1.598   2.282  11.862  0.1550  0.4645  0.2667
 5016W        W 8760   9.833   1.825  12.005 -0.3530 -0.1876  0.0058
 5017W        W 8761   3.883   5.388   3.812 -0.0530  0.1642 -0.1664
 5018W        W 8762   4.476   9.133   1.047  0.0177 -0.1163 -0.3273
 5019W        W 8763   7.692   0.828   5.034  0.0683 -0.1328  0.1151
 5020W        W 8764   9.658   9.892   1.487  0.1457  0.1721  0.0608
 5021W        W 8765   4.790   1.460   1.787  0.3630  0.1449 -0.3145
 5022W        W 8766   0.977   7.250   2.378 -0.0617 -0.0204 -0.0842
 5023W        W 8767   7.845   0.590   9.952 -0.1589 -0.0468  0.0294
 5024W        W 8768   7.362   8.877   4.138 -0.0988  0.0773  0.1063
 5025W        W 8769   3.171   3.440  11.062  0.1011 -0.1876  0.0574
 5026W        W 8770   7.444   8.885   1.404 -0.0044 -0.1611 -0.0287
 5027W        W 8771   5.220   8.216  11.904  0.1065  0.2046  0.0959
 5028W        W 8772   4.589   3.910  11.850 -0.3302 -0.1806  0.0316
 5029W        W 8773   8.445   9.373   3.467  0.1483 -0.0877 -0.0943
 5030W        W 8774   9.812   4.083   9.711  0.1731  0.1423  0.1915
 5031W        W 8775   1.488   7.971   3.803  0.3358  0.1413 -0.1221
 5032W        W 8776   6.725   9.979  10.534  0.1334 -0.0424  0.3039
 5033W        W 8777   7.933   3.733   8.797 -0.2268  0.0463 -0.1104
 5034W        W 8778   2.101   8.306  10.833  0.0070  0.1428  0.0217
 5035W        W 8779   4.852   2.321   9.682  0.0417  0.0554  0.1803
 5036W        W 8780   2.953   9.080   4.150 -0.1212  0.3395 -0.0431
 5037W        W 8781   3.466   0.523   4.859  0.0361  0.0258  0.2945
 5038W        W 8782   1.386   4.728   3.854  0.5120  0.0997  0.0272
 5039W        W 8783   3.595   6.103   0.828  0.0791  0.0109 -0.0380
 5040W        W 8784   2.048   3.741   1.909  0.1534  0.0293  0.3001
 5041W        W 8785   8.916   7.342   2.089 -0.0102  0.1916  0.2800
 5042W        W 8786   5.957   7.059   2.067 -0.2051  0.3135  0.0466
 5043W        W 8787   1.010   2.934  10.411 -0.0184 -0.1629  0.2693
 5044W        W 8788   8.414   0.786  11.721 -0.1149 -0.0199  0.0485
 5045W        W 8789   2.109   6.812   2.855 -0.0096  0.0690 -0.2868
 5046W        W 8790   5.662   1.385   0.146 -0.3922  0.1978  0.2666
 5047W        W 8791   0.478   0.508  11.930  0.1125 -0.0006 -0.2180
 5048W        W 8792   9.529   8.407  11.085 -0.0571  0.0656 -0.3585
 5049W        W 8793   8.239   8.424   9.904  0.1197  0.3054  0.1652
 5050W        W 8794   1.882   2.828   9.265 -0.2240  0.0677 -0.1397
 5051W        W 8795   1.870   3.485   2.585  0.1714 -0.0381  0.0433
 5052W        W 8796   2.736   5.716  10.275  0.1228 -0.2165  0.1199
 5053W        W 8797   4.601   2.538   8.905 -0.0723 -0.0002  0.0426
 5054W        W 8798   3.500   9.481   3.004 -0.0393  0.1126  0.0954
 5055W        W 8799   3.741   4.947   9.246 -0.3072 -0.1646  0.1720
 5056W        W 8800   0.756   9.362  11.201  0.1037 -0.0433  0.2664
 5057W        W 8801   9.737   8.241   4.789  0.2196 -0.0701  0.1962
 5058W        W 8802   7.777   6.040   0.787  0.0261  0.0225  0.2047
 5059W        W 8803   3.527   0.059  11.176 -0.1578 -0.0654  0.0196
 5060W        W 8804   0.692   9.077  10.303  0.0599  0.1046 -0.1402
 5061W        W 8805   6.061   0.840   0.471  0.0028  0.1406  0.0381
 5062W        W 8806   8.282   7.318  11.973  0.3612 -0.0954  0.0768
 5063W        W 8807   7.540   8.785   0.062  0.4594  0.5362  0.0222
 5064W        W 8808   0.648   9.873   1.542  0.0926 -0.2534 -0.1453
 5065W        W 8809   7.131   7.739  11.589  0.0291 -0.0548  0.0479
 5066W        W 8810   7.914   7.666  11.825 -0.1682  0.2673 -0.0092
 5067W        W 8811   1.622   3.018   2.831 -0.2249  0.0278  0.1823
 5068W        W 8812  10.003   6.035   3.257  0.3782 -0.1114  0.0992
 5069W        W 8813   1.770   4.437   0.768 -0.0226 -0.2252  0.2365
 5070W        W 8814   5.699   9.712   9.183 -0.0411  0.0429  0.0038
 5071W        W 8815   4.045   4.751  10.138  0.2141  0.1247  0.3283
 5072W        W 8816   3.214   0.818   3.880  0.1955  0.2543  0.1525
 5073W        W 8817   0.542   6.034   2.764 -0.1232 -0.3659 -0.2451
 5074W        W 8818   6.126   4.063   0.794  0.1006 -0.0975 -0.0598
 5075W        W 8819   2.443   0.747   4.445 -0.2879 -0.0588  0.1212
 5076W        W 8820   9.239   4.363   0.494 -0.2672  0.0930  0.0013
 5077W        W 8821   2.413   6.277   1.577  0.0132  0.2414 -0.1459
 5078W        W 8822   5.222   0.035   3.042 -0.1387  0.3149  0.0090
 5079W        W 8823   0.223   7.201   1.462  0.1430  0.1654  0.0516
 5080W        W 8824   3.792   2.755   0.825  0.1615 -0.1379  0.1004
 5081W        W 8825   3.704   5.906  11.732  0.2999  0.0600  0.1236
 5082W        W 8826   9.800   6.567  10.541 -0.0286 -0.0575 -0.2659
 5083W        W 8827   8.787   7.838   9.829 -0.2602 -0.0839 -0.1301
 5084W        W 8828   4.674   8.663   3.324 -0.0182 -0.2155  0.3811
 5085W        W 8829   6.197   1.693  10.771 -0.0266  0.4027  0.1738
 5086W        W 8830   4.520   6.232   3.991  0.0371 -0.1496  0.0965
 5087W        W 8831   5.456   5.857  10.483 -0.0243  0.0269 -0.0463
 5088W        W 8832   0.791   0.894  12.182 -0.0760 -0.0787  0.0148
 5089W        W 8833   5.512   0.295   3.379  0.1446  0.2334  0.2147
 5090W        W 8834   6.003   3.768   8.909 -0.3909 -0.2273 -0.2055
 5091W        W 8835   5.804   5.792   3.026 -0.1645  0.0130  0.2348
 5092W        W 8836   3.006   8.031   9.833  0.1278  0.1126  0.3045
 5093W        W 8837   4.339   7.509  10.314 -0.1178 -0.0358 -0.3175
 5094W        W 8838   8.443   7.623  11.340  0.0616 -0.0188  0.1482
 5095W        W 8839   6.543   5.461   5.317  0.0890  0.0382  0.3863
 5096W        W 8840   8.752   4.083  10.585  0.3202 -0.1007  0.3599
 5097W        W 8841   9.503   3.820   2.735  0.2230 -0.1734  0.0300
 5098W        W 8842   0.093   9.578   2.820  0.1347  0.2255  0.0034
 5099W        W 8843   1.614   9.943   0.902  0.0417 -0.0174 -0.2900
 5100W        W 8844   2.357   8.978  12.349 -0.1003  0.0107  0.0516
 5101W        W 8845   0.645   5.067  11.558 -0.1246 -0.4239 -0.1000
 5102W        W 8846   9.753   6.206   0.993 -0.1511 -0.0675 -0.1685
 5103W        W 8847   4.761   3.020   0.359 -0.1486 -0.3340  0.1468
 5104W        W 8848   5.958   0.193   3.059 -0.1512  0.1756  0.1078
 5105W        W 8849   2.890   6.397   9.005 -0.0794  0.2662  0.0418
 5106W        W 8850   1.203   5.692   0.393 -0.0210  0.0415  0.4042
 5107W        W 8851   9.307   8.392  10.344 -0.0442 -0.0053  0.0458
 5108W        W 8852   0.882   1.500  10.019  0.2203 -0.0497  0.1702
 5109W        W 8853   3.765   9.224   9.624 -0.1827  0.4331  0.0089
 5110W        W 8854   9.468   5.193   9.447  0.0713  0.0583 -0.0622
 5111W        W 8855   9.660   2.707   9.795 -0.0808  0.2341  0.0853
 5112W        W 8856   4.033   1.309   1.287  0.0339  0.1316  0.1873
 5113W        W 8857   0.312   0.086   0.247 -0.0450  0.0334 -0.2803
 5114W        W 8858  10.070   2.113  10.923 -0.1740 -0.1550 -0.2100
 5115W        W 8859   5.520   3.054   8.521  0.1395  0.1513 -0.2052
 5116W        W 8860   9.628   1.256   9.640  0.1951  0.3808 -0.0795
 5117W        W 8861   7.457   4.960   1.027  0.1425  0.0721  0.1942
 5118W        W 8862   4.130   1.478   2.528  0.2716 -0.4831  0.0815
 5119W        W 8863   5.235   7.007  12.297 -0.2291 -0.0089  0.1496
 5120W        W 8864   1.436   2.976  10.605 -0.0660  0.0290 -0.1909
 5121W        W 8865   6.005   8.741  10.770  0.1022  0.2207 -0.0920
 5122W        W 8866   2.095   1.249   1.807 -0.4602 -0.3540 -0.0317
 5123W        W 8867   8.706   7.813   3.410  0.0449  0.2448  0.0951
 5124W        W 8868   0.498   3.517  12.028 -0.2020  0.0596  0.0028
 5125W        W 8869   6.737   9.020   2.818 -0.0988  0.1311  0.2741
 5126W        W 8870   8.998   3.473  11.379 -0.0658 -0.0947  0.1215
 5127W        W 8871   5.551   3.525  11.484  0.0379  0.2267  0.0059
 5128W        W 8872   1.747   9.175  11.065 -0.0691 -0.1247 -0.1663
 5129W        W 8873   0.266   4.745  11.493  0.0569 -0.4093 -0.1465
 5130W        W 8874   8.583   9.416   2.610 -0.0241 -0.0631 -0.0261
 5131W        W 8875   0.585   6.211  10.080 -0.3420  0.0115  0.0870
 5132W        W 8876   5.855   9.906   1.601  0.0789 -0.1779 -0.0306
 5133W        W 8877   3.376   8.131   3.655  0.0908 -0.3010 -0.1683
 5134W        W 8878   3.920   9.388  11.271 -0.0879 -0.2907 -0.2255
 5135W        W 8879   2.117   8.560   9.690 -0.1032  0.1844 -0.5084
 5136W        W 8880   4.720   8.187  11.629 -0.0084  0.1763 -0.2441
 5137W        W 8881   5.506   6.325   9.567 -0.1027 -0.0303 -0.1852
 5138W        W 8882   4.592   6.887   2.324  0.1323  0.1334 -0.0209
 5139W        W 8883   0.909   3.263   0.683  0.0417 -0.2839 -0.0246
 5140W        W 8884   3.793   1.261  10.888  0.2028  0.2100  0.3100
 5141W        W 8885   2.480   4.020   9.848 -0.0207 -0.1546  0.0384
 5142W        W 8886  10.005   2.807  10.959  0.0125  0.0845 -0.2588
 5143W        W 8887   7.158   7.405  11.226 -0.0765  0.0222 -0.2280
 5144W        W 8888   5.740   1.939  10.827  0.0828 -0.0211  0.0336
 5145W        W 8889   0.652   6.485   1.295 -0.2148  0.1928  0.0654
 5146W        W 8890   2.045   7.696   3.146 -0.1983 -0.0080  0.0291
 5147W        W 8891   9.119   7.124  10.550  0.1321 -0.1129  0.0793
 5148W        W 8892   5.083   8.622  10.872 -0.1663 -0.1140  0.0651
 5149W        W 8893   7.872   4.744   4.310 -0.0315 -0.2399 -0.1333
 5150W        W 8894   4.490   6.536   9.671  0.1632  0.0871  0.1136
 5151W        W 8895  10.090   2.974   2.277 -0.0369  0.1088 -0.3365
 5152W        W 8896   6.409   7.508   4.504 -0.2756 -0.0974  0.0766
 5153W        W 8897   8.193   3.405   1.274  0.0004  0.3048 -0.2090
 5154W        W 8898   5.838   7.555   0.411  0.0701  0.2804  0.4499
 5155W        W 8899   6.902   9.280   4.774  0.1016  0.0669  0.1017
 5156W        W 8900   8.711   1.210  11.708  0.2407  0.0564  0.1569
 5157W        W 8901   0.466   2.429   1.319  0.2302  0.2467 -0.3941
 5158W        W 8902   0.019   1.603  10.002  0.0676 -0.0419  0.1828
 5159W        W 8903   0.110   5.786  12.176 -0.0318 -0.2089  0.1479
 5160W        W 8904   3.180   3.218   3.108  0.1486 -0.1542 -0.0100
 5161W        W 8905  10.046   4.364   3.160  0.0099 -0.3058  0.1736
 5162W        W 8906   6.873   8.444  11.513  0.0991 -0.1921  0.2487
 5163W        W 8907   0.150   9.158  10.326  0.1876  0.0762  0.1356
 5164W        W 8908   9.647   7.730   3.669 -0.2956  0.0699 -0.0589
 5165W        W 8909   0.612   2.832  11.368  0.3127 -0.0771  0.3015
 5166W        W 8910   5.843   6.647   4.343 -0.0650 -0.2099  0.1341
 5167W        W 8911   0.537   0.613   2.627 -0.2823 -0.2391  0.1848
 5168W        W 8912   3.950   0.334   1.836  0.1991  0.5631  0.2344
 5169W        W 8913   0.159   9.175   9.389 -0.0412  0.0472 -0.0635
 5170W        W 8914   4.668   9.340  11.731  0.2340 -0.1620 -0.0929
 5171W        W 8915   7.878   7.883  10.517 -0.1550  0.0083  0.2348
 5172W        W 8916   9.700   8.742   3.757  0.0505 -0.2338  0.1726
 5173W        W 8917   9.877   8.436   1.606 -0.1816 -0.3035 -0.0489
 5174W        W 8918   2.816   4.640   9.142 -0.1621 -0.3410 -0.0809
 5175W        W 8919   3.187   8.809   0.669  0.0048  0.0544  0.0472
 5176W        W 8920   4.223   7.929   9.527 -0.3010  0.2217  0.0569
 5177W        W 8921   1.994   7.878   3.641 -0.1832  0.2699  0.0707
 5178W        W 8922   4.173   6.721   1.102 -0.1497 -0.1318  0.2115
 5179W        W 8923   8.580   3.659   9.532  0.2944  0.2494 -0.0731
 5180W        W 8924   4.592   6.377  12.252 -0.0234 -0.0668  0.1495
 5181W        W 8925   2.106   5.810   1.276  0.1755  0.1544 -0.4099
 5182W        W 8926   7.594   9.597   4.137 -0.0970 -0.0492 -0.0707
 5183W        W 8927   7.710   1.247  11.620  0.2833 -0.3949  0.0676
 5184W        W 8928   8.300   5.997   1.006  0.1139  0.0097 -0.1076
 5185W        W 8929   4.830   7.877  12.083 -0.4013  0.3248 -0.1947
 5186W        W 8930   6.060   6.100   4.079  0.4739 -0.0860 -0.0871
 5187W        W 8931   5.396   9.350   1.557 -0.3357 -0.1752  0.1557
 5188W        W 8932   6.083   1.654  10.263 -0.0983 -0.1328  0.0436
 5189W        W 8933   1.726   0.705  11.172  0.0657  0.3222 -0.0047
 5190W        W 8934   1.229   3.619   0.339  0.1089  0.5324  0.4582
 5191W        W 8935   1.569   3.859   2.464 -0.0331  0.3094 -0.0090
 5192W        W 8936   8.487   3.867   3.812 -0.4266 -0.0271 -0.0107
 5193W        W 8937   8.909   0.815   2.810 -0.1237  0.0794 -0.2137
 5194W        W 8938   4.817   0.402   3.134  0.2328 -0.5373  0.0388
 5195W        W 8939   0.386   2.359  10.176  0.0360  0.1095  0.0761
 5196W        W 8940   6.557   3.857   1.017 -0.1992  0.1673 -0.0077
 5197W        W 8941   7.317   0.598   9.781 -0.0939 -0.3159 -0.1297
 5198W        W 8942   3.923   5.603  11.414  0.0979 -0.0565  0.0213
 5199W        W 8943   9.831   8.729   2.791 -0.2090  0.2018  0.0210
 5200W        W 8944   4.604   4.375  11.534 -0.0060  0.1978 -0.1551
 5201W        W 8945   6.461   1.485   1.355  0.2744  0.0988  0.2372
 5202W        W 8946   2.101   7.697   4.945  0.2343  0.0390 -0.1531
 5203W        W 8947   2.771   9.253  12.083  0.2023  0.2075 -0.1755
 5204W        W 8948   5.845   9.293   2.115  0.2001 -0.1588  0.0539
 5205W        W 8949   5.030   9.524  10.496 -0.0410 -0.2855 -0.0844
 5206W        W 8950   8.291   9.654   1.316 -0.1229  0.2266 -0.1908
 5207W        W 8951   4.135   7.236   4.825  0.0740 -0.4482  0.0963
 5208W        W 8952   8.829   6.320   9.424 -0.0763 -0.0402 -0.2149
 5209W        W 8953   2.849   6.242   3.336 -0.2786 -0.0223  0.0710
 5210W        W 8954   4.973   1.919   0.792  0.0454  0.1592 -0.1771
 5211W        W 8955   0.435   8.759   9.469  0.1690  0.0276  0.4496
 5212W        W 8956   6.254   8.102   3.010 -0.1803 -0.2600  0.0250
 5213W        W 8957   2.318   6.845   9.717 -0.2367  0.1746  0.2948
 5214W        W 8958   0.031   6.107   2.718 -0.2087 -0.1535 -0.0849
 5215W        W 8959   3.967   2.562   3.148 -0.2248  0.0200  0.1845
 5216W        W 8960   0.639   4.606  10.213  0.2280 -0.5181  0.0084
 5217W        W 8961   2.322   7.127  11.299 -0.3774 -0.1292 -0.1649
 5218W        W 8962   4.620   5.706  10.778 -0.2244 -0.2409 -0.1839
 5219W        W 8963   3.426   7.421   3.112 -0.1048  0.2442 -0.2138
 5220W        W 8964   6.372   3.225   3.363 -0.0593  0.5663 -0.1658
 5221W        W 8965   7.701   0.729   2.597  0.1848  0.0839  0.0533
 5222W        W 8966   1.994   2.712   2.285  0.2841 -0.1615 -0.2893
 5223W        W 8967   0.162   7.877   9.524 -0.0374  0.0212 -0.1595
 5224W        W 8968   4.636   1.253  11.371  0.0411  0.0936  0.1076
 5225W        W 8969   7.832   1.936   3.530  0.0210  0.2275  0.0835
 5226W        W 8970   0.914   3.838   0.683 -0.0483 -0.0044 -0.0713
 5227W        W 8971   0.260  10.029   2.824  0.3024  0.3566  0.1958
 5228W        W 8972   5.431   9.288  10.174  0.0561 -0.0945 -0.1838
 5229W        W 8973   2.129   5.282   8.247  0.0908  0.0156 -0.1888
 5230W        W 8974   5.845   3.920  10.355 -0.0260  0.2580  0.2824
 5231W        W 8975   4.560   1.269   5.041 -0.2477  0.1252 -0.1541
 5232W        W 8976   7.452   7.793  12.243  0.1100 -0.2813 -0.0957
 5233W        W 8977   8.548   8.187   4.447  0.2426  0.4361  0.0936
 5234W        W 8978   6.745   6.945   2.550 -0.1080 -0.2604  0.1469
 5235W        W 8979   1.773   7.623  10.066 -0.0454  0.4795  0.1907
 5236W        W 8980   8.094   5.729  10.580 -0.0233  0.0846 -0.1597
 5237W        W 8981   2.815   9.004  10.839 -0.0303  0.4106 -0.0214
 5238W        W 8982   8.104   1.842   9.275  0.0164 -0.3783 -0.1037
 5239W        W 8983   0.332   7.329   0.806  0.0210 -0.1139 -0.0606
 5240W        W 8984   7.019   1.061  11.327  0.0838  0.1069  0.0769
 5241W        W 8985   7.095   0.287   9.018  0.0335  0.0627 -0.2555
 5242W        W 8986   0.696   0.818   4.774  0.3452  0.0362 -0.0596
 5243W        W 8987   3.433   2.891  10.983 -0.2459  0.0095  0.0797
 5244W        W 8988   8.928   8.858   0.164 -0.1389 -0.1861 -0.0680
 5245W        W 8989   4.324   2.055   2.676 -0.2043  0.0099  0.3489
 5246W        W 8990   8.307   6.696   1.959 -0.1154  0.0822  0.1558
 5247W        W 8991   5.250   5.975   1.033  0.0905  0.0372 -0.4364
 5248W        W 8992   9.192   9.338   9.288 -0.4781  0.1117  0.0491
 5249W        W 8993   8.174   7.476   3.314  0.0221  0.2729 -0.1674
 5250W        W 8994   6.105   3.644   0.452 -0.0951  0.1104 -0.0085
 5251W        W 8995   8.209   3.499   3.019 -0.0710 -0.2933 -0.1416
 5252W        W 8996   0.602   9.045   0.043  0.0718 -0.0214 -0.0444
 5253W        W 8997   4.133   4.087   9.942  0.2201 -0.0184 -0.0242
 5254W        W 8998   8.150   4.923   2.380  0.0908  0.1622 -0.1819
 5255W        W 8999   2.941  10.032  11.721 -0.2958  0.3309 -0.0886
 5256W        W 9000   3.531   2.905  10.185  0.1894 -0.3578  0.1078
 5257W        W 9001   6.772   9.629  10.184  0.2588 -0.3471 -0.0977
 5258W        W 9002   4.108   0.845   1.168  0.1451 -0.0216  0.1279
 5259W        W 9003   9.988   2.063   2.568 -0.0694  0.2151 -0.0728
 5260W        W 9004   9.358   8.850  10.199 -0.2833 -0.2100 -0.0745
 5261W        W 9005   4.358   9.290   3.767 -0.1685 -0.2130 -0.0684
 5262W        W 9006   5.329   9.204   2.095  0.0508  0.0541 -0.1434
 5263W        W 9007   0.683   0.174   2.815  0.2941  0.4309  0.0907
 5264W        W 9008   6.505   0.815  11.208 -0.2129 -0.1335 -0.0033
 5265W        W 9009   2.966   8.263  12.356 -0.2345  0.4991 -0.1582
 5266W        W 9010   1.055   6.686   2.203 -0.1233 -0.0592 -0.0942
 5267W        W 9011   5.593   7.253   9.222  0.0452 -0.0296  0.0540
 5268W        W 9012   5.030   6.424   5.861  0.5869 -0.0731  0.0643
 5269W        W 9013   6.437   4.975   0.040 -0.0386  0.1200  0.4714
 5270W        W 9014   7.953   0.940  10.706  0.1730  0.2747  0.1469
 5271W        W 9015   0.717   6.758   4.155  0.0192  0.0808  0.1180
 5272W        W 9016   3.015   5.211  11.529  0.0140 -0.0177  0.0436
 5273W        W 9017   1.819   2.181  12.338  0.1483 -0.0044 -0.2122
 5274W        W 9018   2.954   5.064   2.906  0.4507 -0.4250  0.0829
 5275W        W 9019   5.874   2.901   8.834 -0.0822  0.2126 -0.1655
 5276W        W 9020   2.524   5.137   1.841  0.0201 -0.2320 -0.2732
 5277W        W 9021   0.422   0.347  10.536 -0.1232 -0.1723 -0.1081
 5278W        W 9022   2.784   2.063  10.759  0.0966  0.0175 -0.0724
 5279W        W 9023   1.129   9.452   9.500  0.0540  0.0626 -0.0180
 5280W        W 9024   3.103   5.359   1.484 -0.0562 -0.1701  0.4123
 5281W        W 9025   2.478   6.185  11.311  0.2403 -0.0189 -0.1924
 5282W        W 9026   5.913   6.706   0.512 -0.0580 -0.0771  0.0545
 5283W        W 9027   9.769   0.260   2.947 -0.1012 -0.2768  0.1473
 5284W        W 9028   7.413   8.679   4.682 -0.0243 -0.1115  0.2160
 5285W        W 9029   9.374   9.095   3.766 -0.2782  0.2076 -0.0619
 5286W        W 9030   8.763   5.245   1.287 -0.1646  0.1892 -0.3721
 5287W        W 9031   4.441   5.556   3.033 -0.0802  0.0436 -0.1210
 5288W        W 9032   3.389   4.028   2.030  0.1140  0.4096  0.0542
 5289W        W 9033   7.354   0.489  10.339 -0.0814 -0.0265 -0.3206
 5290W        W 9034   9.032   2.529   2.718  0.0644  0.2277 -0.2587
 5291W        W 9035   2.776   7.616   3.862 -0.1386 -0.1358  0.1817
 5292W        W 9036   6.617   2.348   2.190 -0.2678  0.1525 -0.5368
 5293W        W 9037   4.280   8.399   9.881  0.2783 -0.1308 -0.0497
 5294W        W 9038  10.000   9.826   2.105  0.2446 -0.1021  0.3262
 5295W        W 9039   6.309   0.268   9.095  0.2002  0.2189 -0.1297
 5296W        W 9040   3.142   2.841   2.732  0.0677  0.5023  0.0389
 5297W        W 9041   0.886   9.401   3.601 -0.0976  0.1489  0.1501
 5298W        W 9042   3.132   0.770  11.381  0.0574 -0.1470  0.0563
 5299W        W 9043   3.872   8.102  10.592  0.2460  0.1049  0.1986
 5300W        W 9044   5.495   5.183  10.147  0.1339  0.3393 -0.1141
 5301W        W 9045   1.237   0.050  10.023  0.3176  0.0228 -0.0060
 5302W        W 9046   5.913   1.785  11.853  0.0625  0.0206  0.0840
 5303W        W 9047   6.010   8.096   2.179  0.1603 -0.2198  0.1645
 5304W        W 9048   1.213   5.783   1.013  0.4248  0.0500  0.0888
 5305W        W 9049   8.399   7.904   9.053 -0.0809 -0.2054 -0.1422
 5306W        W 9050   8.882   6.959   5.394 -0.0057 -0.2690 -0.2244
 5307W        W 9051   4.906   0.896   3.932 -0.0244 -0.3862  0.1037
 5308W        W 9052   8.060   7.749  10.953 -0.2310 -0.1603 -0.0126
 5309W        W 9053   3.802   7.063   3.151 -0.2231  0.0695  0.2150
 5310W        W 9054   4.669   5.360  12.214 -0.3913  0.1008  0.2005
 5311W        W 9055   6.718   4.902   9.267 -0.0444 -0.2670  0.3294
 5312W        W 9056   5.493   8.758   2.896 -0.2531 -0.4449 -0.3570
 5313W        W 9057   4.710   5.883   9.363 -0.0929 -0.0688  0.1377
 5314W        W 9058   1.272   1.073   9.804 -0.2350  0.1866  0.1943
 5315W        W 9059   3.411   5.582  12.354 -0.1134 -0.2322  0.0847
 5316W        W 9060   2.451   2.606   3.424 -0.1615  0.1308 -0.1961
 5317W        W 9061   9.890   2.582   4.143 -0.0783 -0.1030 -0.1679
 5318W        W 9062   2.994   3.039   1.315 -0.1650  0.2477 -0.1077
 5319W        W 9063   1.491   0.876   0.520  0.2175  0.1636 -0.1475
 5320W        W 9064   7.581   4.566   2.467 -0.0076  0.1310  0.2351
 5321W        W 9065   6.030   3.105   2.879 -0.2573 -0.1908  0.1548
 5322W        W 9066   9.009   3.361   9.501  0.0741 -0.1381 -0.1583
 5323W        W 9067   5.458   8.144  10.930 -0.2271  0.1033  0.2410
 5324W        W 9068   2.428   6.491  11.923 -0.1928  0.1088  0.0233
 5325W        W 9069   7.987   5.378   2.073  0.2667  0.1620  0.2146
 5326W        W 9070   9.166   7.817   3.648  0.2161 -0.2842  0.0926
 5327W        W 9071   8.174   7.101  10.363 -0.0315 -0.1617  0.1316
 5328W        W 9072   7.207   9.750   9.969 -0.2828  0.0884 -0.0864
 5329W        W 9073   4.392   9.513   0.242  0.3761 -0.1274 -0.2152
 5330W        W 9074   9.496   0.478   1.856  0.1599 -0.0923 -0.2053
 5331W        W 9075   2.295   4.367   2.586  0.1856 -0.1696 -0.2779
 5332W        W 9076   0.767   3.085   8.423  0.2641 -0.1121 -0.1418
 5333W        W 9077   3.977   9.022  11.668  0.0016 -0.0571  0.0764
 5334W        W 9078   5.164   5.059   0.064 -0.0178  0.0667 -0.2666
 5335W        W 9079   0.616   6.969   0.512 -0.1132 -0.0254 -0.1569
 5336W        W 9080   3.083   2.532   9.600  0.1384  0.0976 -0.1329
 5337W        W 9081   5.496   7.787  10.606 -0.0436 -0.1507 -0.1283
 5338W        W 9082   3.637   5.368   1.349  0.2755 -0.0727 -0.1277
 5339W        W 9083   0.026   0.395  11.048 -0.3388 -0.1927  0.2420
 5340W        W 9084   8.014   1.545   9.607 -0.0624 -0.0570 -0.0270
 5341W        W 9085   8.026   8.038   0.321 -0.0769 -0.0447  0.2727
 5342W        W 9086   7.713   8.588   0.479  0.1668  0.0433 -0.1381
 5343W        W 9087   4.119   7.524   0.150  0.1794 -0.2531  0.2770
 5344W        W 9088   1.031   7.713  11.653  0.0426 -0.0737  0.0290
 5345W        W 9089   6.605   1.942  11.266  0.4229  0.3406 -0.1928
 5346W        W 9090   2.809   7.889  11.403  0.1786  0.2345 -0.3534
 5347W        W 9091   9.682   9.595   9.217 -0.1305 -0.0107 -0.1341
 5348W        W 9092   3.267   9.276   5.138  0.1755 -0.1349  0.2861
 5349W        W 9093   0.159   0.388   1.676 -0.2297  0.1224 -0.1149
 5350W        W 9094   9.242   7.552   9.833  0.0923 -0.1075 -0.1083
 5351W        W 9095   8.724   7.531   8.888 -0.1893 -0.0883 -0.1777
 5352W        W 9096   5.304   2.901  10.027  0.0571 -0.2684 -0.2594
 5353W        W 9097   1.635   8.290   4.347 -0.2129  0.1666 -0.2899
 5354W        W 9098   4.462   2.657  11.909 -0.2794  0.2248 -0.2855
 5355W        W 9099   5.417   1.044   1.345  0.1445  0.2003  0.0262
 5356W        W 9100   3.256   1.527   0.022 -0.0044 -0.1877 -0.0786
 5357W        W 9101   5.253   4.871   9.282  0.0946 -0.1513 -0.0301
 5358W        W 9102   2.550   2.963   3.813  0.1582 -0.3114 -0.2032
 5359W        W 9103   9.984   7.470  11.805 -0.1368  0.0516  0.1279
 5360W        W 9104   5.015   3.569   1.348 -0.1188 -0.0729  0.0353
 5361W        W 9105   2.286   7.566   3.952 -0.1222 -0.2183  0.1780
 5362W        W 9106   3.804   2.432  11.605  0.1530  0.0322  0.2564
 5363W        W 9107   3.658   2.176   9.301 -0.0074  0.4378 -0.1278
 5364W        W 9108   2.356   5.678  10.617  0.0975  0.0621 -0.2378
 5365W        W 9109   5.445   1.391   2.163  0.2977  0.0289 -0.0905
 5366W        W 9110   1.075  10.064   1.769  0.0029  0.4564 -0.0386
 5367W        W 9111   1.325   8.114   1.842 -0.2431 -0.1226  0.1465
 5368W        W 9112   6.588   4.561   8.005 -0.1211 -0.0772 -0.0293
 5369W        W 9113   2.494   6.358   2.572  0.0010 -0.0134 -0.3358
 5370W        W 9114   9.539   4.687  11.626  0.0894  0.0740  0.2047
 5371W        W 9115   4.300   8.896   2.386 -0.4042  0.0145 -0.0986
 5372W        W 9116   4.334   7.809  10.822 -0.0034  0.2172 -0.0211
 5373W        W 9117   9.543   4.763   1.085 -0.0675  0.2200 -0.0831
 5374W        W 9118   8.206   7.325  10.859  0.2380 -0.2848 -0.0620
 5375W        W 9119   3.463   3.119  11.464 -0.0173 -0.1158  0.1069
 5376W        W 9120   1.959   4.172  10.823 -0.3228  0.0318 -0.0909
 5377W        W 9121   6.915   8.504   2.576  0.3455  0.0219 -0.1496
 5378W        W 9122   9.202   4.241   1.886  0.2756 -0.0862 -0.0877
 5379W        W 9123   6.059  10.062  12.225 -0.2157  0.1264 -0.0108
 5380W        W 9124   7.011   2.242   4.519  0.0321 -0.3087  0.1479
 5381W        W 9125   8.650   4.737   3.135 -0.2649  0.2031  0.0171
 5382W        W 9126   6.979   2.892   8.877 -0.0732 -0.0093 -0.2345
 5383W        W 9127   8.786   9.326   9.697 -0.0341 -0.2407 -0.0639
 5384W        W 9128   2.245   3.620  12.022  0.1588  0.0201 -0.0961
 5385W        W 9129   9.110   4.457  10.946 -0.1933  0.1924 -0.1714
 5386W        W 9130   8.211   1.995  11.485  0.1267 -0.0884 -0.1754
 5387W        W 9131   2.856   8.217   0.523 -0.0899 -0.3365  0.2221
 5388W        W 9132   7.205   5.965  10.943 -0.2723 -0.2987 -0.2865
 5389W        W 9133   8.092   9.748   9.935  0.0330 -0.4954  0.0416
 5390W        W 9134   5.709   3.073  10.271  0.1822 -0.1652  0.0872
 5391W        W 9135   1.959   3.861   2.878 -0.0512  0.1527  0.3062
 5392W        W 9136   9.061   4.804   0.704  0.0417  0.0584 -0.2844
 5393W        W 9137   0.423   6.089   1.335 -0.1707  0.0233  0.0796
 5394W        W 9138   0.912   0.454   3.526 -0.2652  0.0454  0.1168
 5395W        W 9139   8.243   6.872   4.155 -0.0859  0.0885  0.3050
 5396W        W 9140   6.894   5.712   4.094  0.0683 -0.0270 -0.1401
 5397W        W 9141   4.722   2.349   4.799  0.2384  0.5115 -0.3266
 5398W        W 9142   2.011   7.124   3.722  0.0583 -0.1926  0.0120
 5399W        W 9143   3.326   7.793  10.098 -0.1221 -0.0982  0.0576
 5400W        W 9144   4.652   0.114  11.922  0.2280 -0.1958  0.1768
 5401W        W 9145   6.107   0.380   0.792 -0.0178  0.0138 -0.0025
 5402W        W 9146   6.938   2.084   8.909 -0.2120 -0.0914 -0.1174
 5403W        W 9147   9.949   7.515   9.341  0.0692  0.1955  0.2200
 5404W        W 9148   2.242   6.098  12.123 -0.3298 -0.0269 -0.1375
 5405W        W 9149   7.639   9.908   9.665 -0.0812  0.1909 -0.0613
 5406W        W 9150   8.748   6.175   2.342  0.3200  0.0502  0.0493
 5407W        W 9151   3.858   5.061   8.193 -0.1945 -0.0395  0.0643
 5408W        W 9152   0.252   7.060   2.740  0.1450 -0.3859 -0.0882
 5409W        W 9153   5.029   7.358   3.671 -0.0162 -0.2189  0.0856
 5410W        W 9154   4.521   0.639   4.827 -0.1745 -0.2278 -0.0884
 5411W        W 9155   9.579   6.989  10.315  0.0040  0.1597 -0.0819
 5412W        W 9156   0.903   2.511   9.551 -0.1182  0.1897  0.1938
 5413W        W 9157   5.504   6.396   0.682  0.2220 -0.0812 -0.3394
 5414W        W 9158   5.472   8.197   2.070 -0.0605 -0.0608  0.0358
 5415W        W 9159   0.830   7.598  11.019 -0.1649 -0.1275  0.2104
 5416W        W 9160   4.151   6.259   0.183  0.1376  0.2236 -0.2439
 5417W        W 9161   4.289   2.755   0.548  0.0986  0.1299  0.2138
 5418W        W 9162   2.520   5.379   2.990 -0.2742 -0.0265  0.0152
 5419W        W 9163   1.839   4.084   9.076  0.1835  0.2258  0.2530
 5420W        W 9164   2.431   3.990   2.897 -0.3574 -0.2344  0.3020
 5421W        W 9165   2.841   1.838   8.644 -0.3511 -0.1079  0.2219
 5422W        W 9166   3.481   6.288   2.989  0.0270 -0.0269 -0.0953
 5423W        W 9167   0.547   9.397   9.262 -0.1987 -0.0219  0.0454
 5424W        W 9168   0.890   6.442   1.784 -0.0584 -0.0027  0.0427
 5425W        W 9169   3.588   9.652   4.205  0.1288  0.1328  0.1246
 5426W        W 9170   8.305   1.058   0.322 -0.2296 -0.0130  0.2384
 5427W        W 9171   2.935   7.581  10.434 -0.0542  0.0458  0.1843
 5428W        W 9172   9.083   4.411   3.328 -0.2886 -0.0571 -0.1452
 5429W        W 9173   3.282   5.763   1.222 -0.0167  0.0194 -0.1766
 5430W        W 9174   8.025   5.430  12.191 -0.3167  0.2474  0.3974
 5431W        W 9175   2.830   9.195   0.793 -0.1173  0.2785  0.0133
 5432W        W 9176   7.852   4.742   2.837  0.0732  0.0670 -0.3404
 5433W        W 9177   1.375   0.510   2.955 -0.1032 -0.2581 -0.2117
 5434W        W 9178   1.834   3.764   8.692 -0.2866  0.2476 -0.0911
 5435W        W 9179   4.259   2.168  10.229  0.0231  0.0415  0.0320
 5436W        W 9180   1.336   0.143   3.599  0.1937 -0.4502  0.0837
 5437W        W 9181   6.817   1.116   1.388  0.2241 -0.1277 -0.1574
 5438W        W 9182   4.156   9.254   4.801 -0.1907 -0.1000  0.0347
 5439W        W 9183   6.216   2.470  10.111  0.1746 -0.0460 -0.0817
 5440W        W 9184   6.770   7.627  11.974  0.3272  0.1039  0.1068
 5441W        W 9185   6.099   0.542   3.416 -0.0457 -0.2619  0.1944
 5442W        W 9186   2.724   3.945   8.950  0.1320  0.0772 -0.0478
 5443W        W 9187   8.857   2.287   9.528 -0.1830  0.0591 -0.1547
 5444W        W 9188   1.528   0.569   3.446  0.3996  0.0377  0.2942
 5445W        W 9189   3.072   1.115   0.318  0.3296  0.1979 -0.3616
 5446W        W 9190   9.852   6.828   3.710 -0.1775 -0.0982  0.1275
 5447W        W 9191   6.079   1.108  11.652  0.0943 -0.0236 -0.0489
 5448W        W 9192   5.291   7.774   3.579  0.0424  0.0347  0.0547
 5449W        W 9193   9.718   2.285   1.082 -0.0450  0.2798  0.0104
 5450W        W 9194   3.903   4.233   3.292  0.1467  0.0826 -0.0538
 5451W        W 9195   1.679   5.460   8.401  0.0485  0.2667 -0.0318
 5452W        W 9196   9.836   1.701   9.600  0.0069  0.2216 -0.1261
 5453W        W 9197   2.713   7.406   2.550  0.1487  0.4137 -0.2083
 5454W        W 9198   3.658   3.007   3.349 -0.3735 -0.0817 -0.1106
 5455W        W 9199   8.308   4.105   9.798  0.2099 -0.1325 -0.3477
 5456W        W 9200   3.296   0.316   2.366  0.0254 -0.0532 -0.2342
 5457W        W 9201   1.343   9.127   4.822  0.4860 -0.0563 -0.1624
 5458W        W 9202   0.425   6.391   4.054  0.3314  0.2230  0.1962
 5459W        W 9203   9.987   1.205   1.368  0.1167 -0.0785 -0.0671
 5460W        W 9204   1.200   3.873  10.445 -0.1024  0.0461  0.0587
 5461W        W 9205   9.389   0.023  11.638  0.0933  0.1101 -0.1578
 5462W        W 9206   1.520   1.321   1.263  0.1139 -0.0760 -0.1650
 5463W        W 9207   2.722   3.116  10.333  0.0702 -0.0845 -0.1821
 5464W        W 9208   6.683   7.286   2.032 -0.1039  0.3084  0.0837
 5465W        W 9209   2.794   6.168   4.412  0.2312 -0.1782 -0.1983
 5466W        W 9210   5.229   3.141   1.720 -0.3481 -0.0151  0.0991
 5467W        W 9211   2.017   5.145  11.792 -0.2660  0.1647 -0.1735
 5468W        W 9212   2.717   4.255   9.498 -0.0894  0.0631  0.2364
 5469W        W 9213   6.164   9.219  10.715 -0.3273 -0.2507 -0.1741
 5470W        W 9214   5.634   2.672   3.387  0.1043 -0.2081  0.1157
 5471W        W 9215   1.550   0.280   4.478 -0.3295  0.1066  0.1130
 5472W        W 9216   9.651   4.738   0.388 -0.0985  0.0798  0.2188
 5473W        W 9217   8.591   6.966   1.620 -0.2705  0.2641 -0.2004
 5474W        W 9218   6.046   7.494   2.874  0.1387  0.0997  0.0367
 5475W        W 9219   7.863   1.718  11.294  0.1290  0.1820 -0.1268
 5476W        W 9220   2.446   5.458   0.189 -0.0108  0.2959  0.0592
 5477W        W 9221   0.407   3.301   8.689 -0.2408 -0.1037 -0.0264
 5478W        W 9222   7.174   0.800   4.657  0.0492 -0.1117 -0.0695
 5479W        W 9223   3.224   3.155   8.721 -0.2144 -0.0549  0.2505
 5480W        W 9224   9.917   8.552   0.983 -0.1437 -0.0349  0.1004
 5481W        W 9225   4.313   5.819  12.184 -0.3133 -0.0244 -0.0391
 5482W        W 9226   6.196   0.525  12.162 -0.4472 -0.1784 -0.3862
 5483W        W 9227   1.251   9.302  11.121 -0.0619  0.1349  0.2328
 5484W        W 9228   9.889   2.076   1.567 -0.1754 -0.1386 -0.0062
 5485W        W 9229   5.335   0.821   2.476  0.0336  0.0722 -0.0705
 5486W        W 9230   9.990   0.520   2.554  0.0431 -0.0818  0.0255
 5487W        W 9231   1.620   7.185   1.761 -0.0372  0.2473  0.3413
 5488W        W 9232   1.087   3.333   9.249  0.1331  0.3109 -0.3439
 5489W        W 9233   7.533   2.468   3.062  0.3267 -0.1321  0.0430
 5490W        W 9234   7.618   6.866   1.031 -0.2030 -0.0970  0.3846
 5491W        W 9235   1.801   3.164  11.389 -0.1277 -0.2673  0.0740
 5492W        W 9236   5.601   4.991   4.326  0.1091  0.2003  0.0361
 5493W        W 9237   4.102   9.755   8.463  0.1809 -0.2067 -0.3499
 5494W        W 9238   0.141   3.162  10.700 -0.2075 -0.2433 -0.0472
 5495W        W 9239   5.610   5.491   3.993 -0.4132 -0.2189  0.0347
 5496W        W 9240   5.003   0.317   9.268 -0.0577  0.2060  0.2370
 5497W        W 9241   8.973   7.784   2.332  0.2864 -0.1254 -0.0824
 5498W        W 9242   0.562   6.446   2.278 -0.0846 -0.0974 -0.3883
 5499W        W 9243   1.729   7.763   9.593  0.3318  0.2694 -0.3569
 5500W        W 9244   2.991   0.181   9.350 -0.1458 -0.2545 -0.1117
 5501W        W 9245   1.791   0.946  12.216 -0.1144  0.1239 -0.2890
 5502W        W 9246   1.005   2.402   1.766 -0.1285  0.0831  0.0015
 5503W        W 9247   0.107   0.338   9.011  0.0245  0.0185 -0.3884
 5504W        W 9248   3.459   4.035   9.516  0.0316  0.2452 -0.2512
 5505W        W 9249   6.314   1.219  10.035 -0.0673 -0.1270  0.1306
 5506W        W 9250   2.093   0.021  11.792  0.0061 -0.4671 -0.0803
 5507W        W 9251   8.353   4.405   1.004  0.1384 -0.3809 -0.0656
 5508W        W 9252   2.795   6.900   8.791 -0.0153  0.1697 -0.0284
 5509W        W 9253   5.222   2.624   0.434  0.3262 -0.1490  0.1794
 5510W        W 9254   4.561   4.356  11.018 -0.0740 -0.0892 -0.3064
 5511W        W 9255   7.832   0.991   0.338  0.1170 -0.0312  0.2197
 5512W        W 9256   9.927   3.437  11.521  0.1067  0.0062 -0.0452
 5513W        W 9257   6.341   4.064   9.662  0.0347  0.2257  0.2305
 5514W        W 9258   6.061   4.437   9.946  0.1367 -0.0498  0.3061
 5515W        W 9259   1.698   6.024  10.834 -0.3699  0.0277 -0.2919
 5516W        W 9260   8.171   9.585   9.124  0.0830 -0.0130  0.2124
 5517W        W 9261   5.384   4.165   0.384 -0.0537  0.2038 -0.1672
 5518W        W 9262   7.935   6.986   2.147  0.0299 -0.1538 -0.3007
 5519W        W 9263   8.242   3.040   1.670 -0.0004  0.0069  0.0627
 5520W        W 9264   8.044   5.854   0.156  0.0706  0.2651  0.1806
 5521W        W 9265   0.092   8.908   0.380  0.1321  0.2308  0.5675
 5522W        W 9266   9.663   6.130   9.669 -0.1396 -0.3398 -0.0172
 5523W        W 9267   6.296   3.874   4.345 -0.1728 -0.2986  0.0800
 5524W        W 9268   7.208   3.535   9.459  0.3356  0.0943 -0.0553
 5525W        W 9269   7.492   9.657   3.568  0.0015  0.1924  0.0273
 5526W        W 9270   1.477   0.603   2.441 -0.1030 -0.2932 -0.0669
 5527W        W 9271   5.985   8.493   2.928 -0.0430  0.0614 -0.0940
 5528W        W 9272   9.415   6.630   3.469  0.0798 -0.2697 -0.3417
 5529W        W 9273   3.921   4.804   2.002 -0.1344 -0.0021  0.1525
 5530W        W 9274   2.331   2.826   1.983 -0.2923 -0.1627  0.2997
 5531W        W 9275   7.900   7.595   1.660 -0.0732  0.0349 -0.2714
 5532W        W 9276   3.670   9.542   0.153 -0.4145  0.0709  0.0494
 5533W        W 9277   6.206   0.658   4.188 -0.3721  0.0268  0.0860
 5534W        W 9278   7.050   5.249  11.698 -0.0040  0.0089 -0.3040
 5535W        W 9279   6.430   8.498   3.859 -0.1124 -0.2923 -0.0140
 5536W        W 9280   5.837   5.353  10.415 -0.0146 -0.0559 -0.0604
 5537W        W 9281   7.575   4.169   9.033 -0.1450  0.2804 -0.2016
 5538W        W 9282   7.170   7.188   3.450 -0.1465 -0.1568 -0.0762
 5539W        W 9283   2.805   1.056   2.311 -0.2979 -0.0907  0.0019
 5540W        W 9284   2.062   8.734   9.182  0.0633 -0.1884  0.1897
 5541W        W 9285   1.718   1.614   1.726 -0.0223 -0.0638  0.2589
 5542W        W 9286   4.725   2.555   0.159  0.0995 -0.2845  0.0524
 5543W        W 9287   0.708   0.949  11.088 -0.0179 -0.2151  0.2751
 5544W        W 9288   8.698   0.650   0.297  0.1412  0.0626 -0.0203
 5545W        W 9289   3.233   4.841   1.408  0.0270  0.1072 -0.0390
 5546W        W 9290   6.153   7.593   3.361  0.1022  0.1886  0.1129
 5547W        W 9291   0.985   3.606   3.382 -0.1512  0.2553 -0.2173
 5548W        W 9292   4.453   6.036   2.870  0.1151  0.0385 -0.1433
 5549W        W 9293   1.089   5.781  12.169  0.2468  0.0102  0.1294
 5550W        W 9294   6.763   6.494   3.868  0.0733  0.2669 -0.0138
 5551W        W 9295   2.846   5.164   8.336  0.1178  0.1063 -0.1872
 5552W        W 9296   4.365  10.094   0.782 -0.2447 -0.1127 -0.2083
 5553W        W 9297   4.779   2.077   2.403  0.2687  0.2070  0.3318
 5554W        W 9298   7.505   8.175   2.216 -0.2474 -0.2280  0.0890
 5555W        W 9299   4.717   7.285   9.047 -0.1258  0.0781 -0.0760
 5556W        W 9300   1.109   0.659   1.598 -0.2782 -0.1226 -0.0040
 5557W        W 9301   3.210   6.877   4.519 -0.1335 -0.1797  0.1842
 5558W        W 9302   3.383   6.809   3.062  0.2123 -0.1465  0.1043
 5559W        W 9303   7.945   5.690  11.555 -0.3186 -0.2419 -0.1108
 5560W        W 9304   2.846   7.244   2.099 -0.0322  0.1180  0.0087
 5561W        W 9305   3.817   2.357  10.416 -0.0036 -0.0987  0.3686
 5562W        W 9306   1.236   7.772   3.395 -0.0808 -0.5005  0.1246
 5563W        W 9307   0.421   7.765   1.431  0.0323 -0.0703  0.0545
 5564W        W 9308   4.386   7.330  10.778 -0.1414  0.2126 -0.0893
 5565W        W 9309   9.403   2.869   0.463  0.1391  0.0717  0.0659
 5566W        W 9310   9.125   7.465   1.048 -0.2677 -0.0449  0.1279
 5567W        W 9311   9.007   6.222   3.273 -0.0870  0.0507  0.2047
 5568W        W 9312   1.496   7.787   4.365 -0.0645  0.0210  0.0390
 5569W        W 9313   3.290   0.316  11.644 -0.1657 -0.1764 -0.0597
 5570W        W 9314   2.584   8.337   4.450 -0.0358  0.0125  0.0384
 5571W        W 9315   3.511   4.163   3.027 -0.1380  0.4353  0.2579
 5572W        W 9316   9.908   4.026   1.143  0.0386 -0.0458  0.2144
 5573W        W 9317   5.117   0.433   2.724 -0.1358  0.2395 -0.0725
 5574W        W 9318  10.085   7.561   2.747 -0.0509  0.1069 -0.1741
 5575W        W 9319   2.423   7.771  10.550 -0.0035  0.2889 -0.0687
 5576W        W 9320   8.608   8.689   4.384  0.0792  0.1768  0.1025
 5577W        W 9321   0.042   5.044   0.017  0.2142 -0.2578  0.0797
 5578W        W 9322   7.010   0.285   3.244 -0.0271  0.1234 -0.0462
 5579W        W 9323   4.029   4.154   9.446  0.1987 -0.3484 -0.0827
 5580W        W 9324   5.885   5.762   0.379  0.0008  0.0954 -0.1917
 5581W        W 9325   0.804   4.989   1.401 -0.3280  0.4972  0.0213
 5582W        W 9326   0.018   7.153   1.920  0.0257 -0.0834 -0.0251
 5583W        W 9327   2.701   6.243   0.705 -0.0403  0.1259  0.2516
 5584W        W 9328   9.144   0.958   8.233  0.1949 -0.0228 -0.3055
 5585W        W 9329   4.310   5.278   3.480 -0.1959  0.1760  0.1857
 5586W        W 9330   2.255   4.947   1.481  0.2709  0.2198  0.1379
 5587W        W 9331   2.752   9.687   2.854  0.1554  0.0322 -0.2826
 5588W        W 9332   9.715   6.775   0.598  0.2564 -0.0323 -0.0595
 5589W        W 9333   5.844   3.132   3.354  0.0816 -0.1746 -0.2816
 5590W        W 9334   3.489   0.066   3.521  0.2419 -0.1437 -0.0538
 5591W        W 9335   6.994   7.660  10.102 -0.0772 -0.3339 -0.3091
 5592W        W 9336   5.520   6.853   9.532 -0.1644 -0.1764 -0.1397
 5593W        W 9337  10.110   2.536   9.937  0.3740 -0.2457 -0.0158
 5594W        W 9338   8.451   8.555  10.382 -0.0059  0.1120  0.2232
 5595W        W 9339   4.467   2.468   2.443  0.0193 -0.0420  0.3558
 5596W        W 9340   3.679   9.196   2.593  0.0356 -0.1509  0.2275
 5597W        W 9341   2.942   7.267   3.333 -0.2852 -0.2674 -0.0920
 5598W        W 9342   1.637   7.423   0.835  0.0465 -0.0496 -0.3614
 5599W        W 9343   2.949   6.720   3.831 -0.1377  0.0342  0.1449
 5600W        W 9344   4.876   4.442  10.161 -0.0692  0.2655 -0.0809
 5601W        W 9345   9.411   3.515  11.763 -0.1105 -0.2702 -0.0589
 5602W        W 9346   5.119   5.972   9.741 -0.5404  0.4867 -0.1340
 5603W        W 9347   3.019   9.278   3.034  0.1187  0.0798  0.1281
 5604W        W 9348   1.736   5.401  11.542  0.1394  0.0684 -0.0323
 5605W        W 9349   4.705   8.782   4.562  0.4954  0.3643 -0.0414
 5606W        W 9350   2.338   0.807   9.851 -0.2000  0.2563 -0.1615
 5607W        W 9351   2.274   0.724   9.265 -0.5111 -0.3041 -0.3105
 5608W        W 9352   0.778   5.323   1.836 -0.1806  0.2956 -0.1163
 5609W        W 9353   1.846   9.550   9.510 -0.2534 -0.1380  0.1534
 5610W        W 9354   5.495   6.293   4.141 -0.0184  0.0176 -0.0036
 5611W        W 9355  10.028   0.226   4.828 -0.2180  0.1253  0.0877
 5612W        W 9356   8.447   7.125   5.701  0.1419  0.0421  0.1313
 5613W        W 9357   2.551   0.189  11.890 -0.0589  0.0714 -0.4354
 5614W        W 9358   9.061   4.526  11.937 -0.0062 -0.1756 -0.4186
 5615W        W 9359   6.666   5.272   3.005 -0.1487 -0.2209  0.2967
 5616W        W 9360   3.454   0.566   3.524  0.1123 -0.1966 -0.1757
 5617W        W 9361   3.341   2.164   3.268 -0.1074  0.1535  0.0531
 5618W        W 9362   0.146   4.083   9.874 -0.0901 -0.1830 -0.3169
 5619W        W 9363   2.628   7.079   3.708  0.0616  0.2366  0.0640
 5620W        W 9364   3.588   8.813  12.012  0.1078  0.5292  0.0998
 5621W        W 9365   0.718   8.018   3.342 -0.1136  0.1247 -0.1165
 5622W        W 9366   3.872   7.374   2.292 -0.0041 -0.5167  0.4581
 5623W        W 9367   6.789   0.591   4.374 -0.3243 -0.0809 -0.2725
 5624W        W 9368   2.866   3.708   2.820  0.0837 -0.0822 -0.1219
 5625W        W 9369   3.607   9.796  11.458  0.0826  0.0601  0.0515
 5626W        W 9370   9.201   2.626  10.059  0.0989  0.0301  0.0324
 5627W        W 9371   3.539   1.583   9.288 -0.1547  0.2212  0.1386
 5628W        W 9372   9.183   4.320   8.832  0.0029  0.0572 -0.0664
 5629W        W 9373   4.186   4.984   3.851 -0.0660 -0.3795 -0.5039
 5630W        W 9374   0.701   9.539   4.257 -0.0783 -0.1554  0.2541
 5631W        W 9375   7.701   9.031   2.699 -0.1909  0.3181 -0.1383
 5632W        W 9376   3.129   3.382   2.499  0.3116  0.3677  0.3245
 5633W        W 9377   7.123   8.694  12.241  0.2095  0.0426  0.0355
 5634W        W 9378   1.897   8.426  10.107 -0.0004 -0.2648  0.0902
 5635W        W 9379   3.150   2.109   0.685  0.1870  0.0640  0.2773
 5636W        W 9380   8.655   7.008  10.096 -0.1813 -0.0925 -0.0597
 5637W        W 9381   5.011   7.453  10.471 -0.0416  0.0096 -0.0081
 5638W        W 9382   9.112   5.495   4.089 -0.5028  0.0492  0.0629
 5639W        W 9383   6.257   3.416  11.318 -0.1393  0.0476  0.0856
 5640W        W 9384   8.543   1.119  10.429 -0.1500  0.2283 -0.0946
 5641W        W 9385   3.920   4.774  11.719  0.1408 -0.1939 -0.0514
 5642W        W 9386   8.441   1.567  10.463  0.1390  0.0252 -0.0568
 5643W        W 9387   5.296   4.708   4.050 -0.0500 -0.2306 -0.0768
 5644W        W 9388   7.704   3.316  10.161  0.1989 -0.2643  0.0142
 5645W        W 9389   0.765   4.820   9.050 -0.1817 -0.0978 -0.1657
 5646W        W 9390   8.563   5.177   2.902  0.0989  0.1602 -0.1903
 5647W        W 9391   4.873  10.056   2.048  0.0169 -0.0687  0.0993
 5648W        W 9392   5.905   0.510   8.962 -0.0956 -0.1442 -0.0021
 5649W        W 9393   6.619   0.664   3.152  0.0003 -0.3148  0.0077
 5650W        W 9394   6.819   1.490   1.928  0.0973  0.1171  0.0424
 5651W        W 9395   7.221   9.278   4.378 -0.0343  0.2443  0.1055
 5652W        W 9396   7.115   8.033   1.344  0.1812  0.2712  0.1123
 5653W        W 9397   8.689   3.503   1.027 -0.1377 -0.2870 -0.1594
 5654W        W 9398   7.026   3.804   0.234 -0.0325 -0.1398 -0.1552
 5655W        W 9399   2.420   8.310   1.449  0.2866  0.0463 -0.3160
 5656W        W 9400   9.137   1.213   4.008  0.0032  0.5600  0.0521
 5657W        W 9401   4.252   0.441   9.230 -0.2414 -0.0238 -0.0741
 5658W        W 9402   6.438  10.094   1.504  0.0884 -0.0224  0.0446
 5659W        W 9403   2.374   9.995  10.135  0.1397  0.0234  0.1637
 5660W        W 9404   2.066   7.001   0.184 -0.1531 -0.0571 -0.0797
 5661W        W 9405   2.766   3.180   2.815  0.2057  0.2133 -0.1050
 5662W        W 9406   8.598   0.723  12.186  0.2640 -0.1062  0.2309
 5663W        W 9407   9.458   2.705  11.057  0.0976 -0.1052  0.3163
 5664W        W 9408   5.027   0.501   8.820 -0.0116 -0.1332 -0.1015
 5665W        W 9409   6.794   6.874   9.960 -0.0731  0.0643  0.1775
 5666W        W 9410   2.546   8.706  10.016 -0.1481 -0.2157  0.1917
 5667W        W 9411   6.732   4.008   8.292 -0.3002 -0.1914  0.1745
 5668W        W 9412   6.236   6.382   4.527 -0.0240  0.2176 -0.1737
 5669W        W 9413   6.675   2.475   8.618 -0.0705 -0.0908  0.3399
 5670W        W 9414   8.907   2.379   3.268  0.0451  0.0862 -0.1010
 5671W        W 9415   4.193   8.282   1.274 -0.0584  0.0235 -0.3046
 5672W        W 9416   5.057   8.259   2.864  0.0059 -0.2482  0.0391
 5673W        W 9417   9.285   0.687   4.545  0.2847 -0.1971  0.1160
 5674W        W 9418   9.802   4.561   3.629 -0.1069  0.0962 -0.0312
 5675W        W 9419   9.526   7.994   3.252  0.1713 -0.2426 -0.3450
 5676W        W 9420   2.772   4.126  10.252  0.0190  0.1887 -0.0620
 5677W        W 9421   7.322   3.205   9.828 -0.3604 -0.0111 -0.1727
 5678W        W 9422   8.862   6.636   9.854  0.1111  0.1515  0.3323
 5679W        W 9423   1.845   6.961  11.333 -0.1948 -0.0214  0.0017
 5680W        W 9424   1.059   9.956  11.429  0.1811 -0.2847 -0.2649
 5681W        W 9425   2.608   9.374   9.468  0.1967 -0.0748  0.1204
 5682W        W 9426   9.303   1.658   9.764  0.0642 -0.0586  0.1122
 5683W        W 9427   5.361   5.891   9.146 -0.2523 -0.2025 -0.2581
 5684W        W 9428   2.115   7.373   9.678 -0.1399 -0.3843 -0.1434
 5685W        W 9429   8.017   7.052   0.754 -0.0187  0.3113 -0.1013
 5686W        W 9430   3.777   0.971   3.742  0.0255 -0.1290  0.0754
 5687W        W 9431   5.196  10.107   1.045 -0.2962 -0.1609 -0.1722
 5688W        W 9432   0.564   2.571   3.415 -0.1608 -0.0351 -0.0269
 5689W        W 9433   5.405   3.907  10.680 -0.2119 -0.0899  0.3598
 5690W        W 9434   4.771   7.314   1.094 -0.0858 -0.0780 -0.0636
 5691W        W 9435   2.290   2.359   8.073 -0.2043  0.1072 -0.1167
 5692W        W 9436   3.466   2.003  10.659  0.0068  0.2121  0.0427
 5693W        W 9437   1.728   2.138  10.505 -0.2035 -0.0043  0.0362
 5694W        W 9438   7.283   3.227  11.232  0.0554  0.0431 -0.0171
 5695W        W 9439   8.807   8.805   3.904 -0.0565  0.2262  0.0345
 5696W        W 9440   1.195   3.886   9.326 -0.0865 -0.2443  0.0676
 5697W        W 9441   6.332   5.596   4.275 -0.2686 -0.1870 -0.5503
 5698W        W 9442   6.471   3.510   4.654  0.1033  0.1881  0.2699
 5699W        W 9443   3.214   7.997   5.538  0.2514  0.1344  0.1114
 5700W        W 9444   9.228   5.956   2.404  0.2104  0.0903 -0.0101
 5701W        W 9445   9.179   8.036   9.480 -0.0819  0.2723 -0.2878
 5702W        W 9446   7.699   6.166   2.243  0.2719 -0.0107 -0.1046
 5703W        W 9447   8.601   3.130  11.327 -0.1818  0.2091  0.0541
 5704W        W 9448   6.128   0.529   8.183 -0.1292 -0.0417  0.0714
 5705W        W 9449   5.816   2.682   1.092 -0.2165  0.4932  0.0055
 5706W        W 9450   2.306   2.377   9.642 -0.0418  0.1309 -0.0730
 5707W        W 9451   5.880   9.343   1.585  0.3515  0.1036  0.2077
 5708W        W 9452   0.152   5.443  10.255  0.0045  0.1352  0.2199
 5709W        W 9453   6.027   6.224   0.380  0.3210  0.0402 -0.0137
 5710W        W 9454   9.529   5.023   2.330 -0.2304  0.4173 -0.0163
 5711W        W 9455   0.493   6.793  10.110 -0.0966 -0.2215 -0.0033
 5712W        W 9456   0.113   0.551   3.995  0.1521  0.0348  0.0023
 5713W        W 9457   5.741   9.965   2.648 -0.1602 -0.0096  0.4297
 5714W        W 9458   8.335   8.652   9.256  0.0776  0.1568 -0.1775
 5715W        W 9459   3.788   0.691   2.752 -0.0045 -0.2457  0.1996
 5716W        W 9460   0.441   6.232   1.786 -0.0598 -0.0974  0.1541
 5717W        W 9461   4.020   3.723  11.108  0.2788  0.1887  0.2124
 5718W        W 9462   6.183   9.269   9.475 -0.0873  0.3035 -0.0529
 5719W        W 9463   5.289   7.190   9.868 -0.3491 -0.0629  0.3277
 5720W        W 9464   8.213   2.889  10.048 -0.3168 -0.0704  0.0435
 5721W        W 9465   6.805   3.289   9.918 -0.0887 -0.1378  0.2127
 5722W        W 9466   5.893   2.266  12.111 -0.0867  0.2793 -0.0814
 5723W        W 9467   5.747   5.806   4.329 -0.3027  0.2103 -0.3094
 5724W        W 9468   8.175   3.591  11.070 -0.1146 -0.1115 -0.0259
 5725W        W 9469   6.009   7.576   9.477  0.0060  0.1703 -0.2498
 5726W        W 9470   8.057   3.795   8.320 -0.2094 -0.0242 -0.1969
 5727W        W 9471   4.278   2.488   8.496 -0.2199 -0.1301 -0.2860
 5728W        W 9472   5.824   5.379   0.741  0.0207  0.0079  0.1186
 5729W        W 9473   5.964   8.086   4.932 -0.1439  0.0377 -0.1351
 5730W        W 9474   7.665   7.726   9.643 -0.0657  0.0007 -0.2159
 5731W        W 9475   5.704   0.683   9.794  0.2144 -0.0097 -0.2192
 5732W        W 9476   3.890   9.190   2.106  0.0021  0.2825 -0.0026
 5733W        W 9477   6.091   8.633   4.898  0.1675  0.0479 -0.3010
 5734W        W 9478   7.197   3.042   0.860 -0.2409  0.1706 -0.0955
 5735W        W 9479   4.761   1.650   1.184  0.3772 -0.0808 -0.1263
 5736W        W 9480   8.848   2.381  12.371  0.2505  0.0387 -0.0104
 5737W        W 9481   4.500   1.131   1.198  0.0206  0.0964  0.1218
 5738W        W 9482   2.344   0.182   1.887  0.1121 -0.0661 -0.1849
 5739W        W 9483   3.691   5.609  10.499 -0.2117  0.3377 -0.0697
 5740W        W 9484   1.455   1.563  11.329 -0.1216 -0.0388  0.0876
 5741W        W 9485   6.904   9.534   0.006 -0.0298  0.1585  0.0765
 5742W        W 9486  10.069   7.802   3.439 -0.2372 -0.0727  0.3374
 5743W        W 9487   5.958   4.865  10.261 -0.4319  0.1876  0.0595
 5744W        W 9488   1.332   4.786   2.558 -0.4528 -0.0698 -0.1497
 5745W        W 9489   5.390   9.883   1.456 -0.0851 -0.2023  0.3646
 5746W        W 9490   4.171   6.881   3.497  0.0436  0.0416 -0.2386
 5747W        W 9491   8.052   1.261   5.082  0.2376  0.3088  0.1625
 5748W        W 9492   2.993   1.700   0.401 -0.3009 -0.0764  0.3470
 5749W        W 9493   4.190   7.472   8.599 -0.0576  0.2639 -0.1583
 5750W        W 9494   7.162   8.810  11.297 -0.0819  0.2938  0.3493
 5751W        W 9495   6.591   8.405   0.731  0.0315 -0.0053  0.0850
 5752W        W 9496   2.563   2.984   2.405  0.0073 -0.2281  0.2832
 5753W        W 9497   9.381   9.489   1.492  0.0904  0.0150  0.0908
 5754W        W 9498   2.362   1.888  11.192 -0.2270 -0.1742  0.2943
 5755W        W 9499   5.327   7.307  11.360 -0.3266 -0.1620 -0.3437
 5756W        W 9500   8.114   9.577  11.665  0.0288 -0.0351 -0.1490
 5757W        W 9501   9.400   9.307  12.275 -0.1697 -0.1221 -0.1907
 5758W        W 9502   6.106   0.376   1.315 -0.0358 -0.3130 -0.1200
 5759W        W 9503   7.431   5.636  11.880  0.0348 -0.0359  0.1763
 5760W        W 9504   3.258   6.284  10.792 -0.2905 -0.3111  0.0290
 5761W        W 9505   8.440   5.881  10.158 -0.1019  0.2606 -0.0399
 5762W        W 9506   7.029   7.543   1.228 -0.0635  0.2213 -0.3016
 5763W        W 9507   0.250   3.509   9.126  0.2144  0.1250  0.2865
 5764W        W 9508   7.632   7.298   4.894  0.0539  0.0311  0.1079
 5765W        W 9509   3.815   4.990  12.164  0.0085 -0.2023  0.0931
 5766W        W 9510   7.346   7.858   3.738  0.0406  0.2291  0.1221
 5767W        W 9511   0.209   9.356   9.891 -0.0737  0.0129 -0.1417
 5768W        W 9512   1.589   6.615   2.086 -0.0291 -0.2561  0.0142
 5769W        W 9513   2.655   5.720   9.569  0.1657 -0.0396  0.1811
 5770W        W 9514   7.209   7.370  12.048  0.0146  0.0637  0.1240
 5771W        W 9515   9.922  10.120   0.102 -0.1040 -0.0529  0.0037
 5772W        W 9516   9.476   5.318  10.883  0.2357 -0.0249 -0.0297
 5773W        W 9517   7.344   6.463   0.988 -0.3343 -0.0138 -0.2388
 5774W        W 9518   1.285   6.007   3.298 -0.1461 -0.2150 -0.1374
 5775W        W 9519   5.308   2.528   9.686 -0.2518  0.0176 -0.2568
 5776W        W 9520   9.151   2.366  11.946  0.0714 -0.0481  0.0830
 5777W        W 9521   6.076   4.119   3.505 -0.2188 -0.3815 -0.0072
 5778W        W 9522   3.436   6.094   2.524 -0.2144  0.1560  0.3650
 5779W        W 9523   8.658   4.771   2.151 -0.0103 -0.0416 -0.2719
 5780W        W 9524   0.665   0.705   0.805  0.0736 -0.0686 -0.1310
 5781W        W 9525   3.504   7.740   2.258 -0.0134  0.1150 -0.2690
 5782W        W 9526   3.487   5.091   0.588  0.2484  0.1731  0.0785
 5783W        W 9527   3.928   9.352   0.589 -0.0770 -0.1271 -0.2990
 5784W        W 9528   2.703   2.882  12.212  0.0601  0.0237  0.1560
 5785W        W 9529   0.729   8.704   3.864 -0.2695  0.2367  0.2974
 5786W        W 9530   5.543   9.385   3.305 -0.0139 -0.1821 -0.0484
 5787W        W 9531   5.930   8.730   3.944 -0.1395 -0.2110  0.2081
 5788W        W 9532   0.628   5.954  11.950 -0.0697 -0.1844  0.1721
 5789W        W 9533   0.029   2.133  10.445  0.1997  0.2358  0.3281
 5790W        W 9534   1.121   9.612   1.554 -0.1398  0.0214  0.1831
 5791W        W 9535   6.690   3.771   1.519  0.3140  0.0741 -0.5160
 5792W        W 9536   2.255   4.720   8.063  0.1664 -0.0832  0.4384
 5793W        W 9537   3.641   1.699   4.261  0.0820  0.2973 -0.2433
 5794W        W 9538   0.020   3.870   2.834  0.1703 -0.1774 -0.1311
 5795W        W 9539   5.344   0.195   4.402  0.0634 -0.0572  0.0352
 5796W        W 9540   9.700   6.318   3.852 -0.1730 -0.1345 -0.0783
 5797W        W 9541   6.365   7.153   3.091 -0.0973 -0.3413 -0.0697
 5798W        W 9542   9.927   5.475   1.594  0.4018  0.1206  0.1081
 5799W        W 9543   4.216   9.365   9.785 -0.1702  0.1441 -0.1185
 5800W        W 9544   3.277   9.440   3.854  0.0756  0.0627 -0.2721
 5801W        W 9545   9.967   8.573  12.354 -0.3052 -0.3079  0.0421
 5802W        W 9546   8.900   5.288  11.053 -0.0189  0.1941  0.2126
 5803W        W 9547   1.118   7.997  11.134 -0.1191 -0.3667 -0.1664
 5804W        W 9548   3.288   5.420  10.300  0.1221 -0.0504  0.0484
 5805W        W 9549   7.803   1.287   1.186 -0.2183 -0.3400 -0.0391
 5806W        W 9550   3.158   4.726   0.766  0.2096 -0.1390  0.0513
 5807W        W 9551   3.913   1.994   2.420 -0.1474 -0.0299 -0.0396
 5808W        W 9552   3.968   3.159  10.206  0.0029 -0.0432  0.0982
 5809W        W 9553  10.117   6.041  11.186 -0.0886  0.0105  0.1580
 5810W        W 9554   8.281   9.279  12.039 -0.0170  0.1847 -0.0459
 5811W        W 9555   5.716   7.820   4.504 -0.0548 -0.2115 -0.2452
 5812W        W 9556   5.838   0.721  11.884  0.0968 -0.0717  0.1084
 5813W        W 9557   4.414   7.310  12.047 -0.2651 -0.1041  0.2186
 5814W        W 9558   1.371   6.694   0.704  0.0659 -0.1372  0.3346
 5815W        W 9559   2.951   0.877   9.894 -0.2546 -0.1683  0.5347
 5816W        W 9560   1.273   8.467  10.046  0.1185  0.1138 -0.1379
 5817W        W 9561   7.434   1.750  10.913  0.2584  0.2313 -0.4069
 5818W        W 9562   8.164   3.933   2.198 -0.2157  0.0120 -0.2520
 5819W        W 9563   2.326   3.578   9.076  0.2521  0.4054 -0.2557
 5820W        W 9564   1.517   5.793  12.364 -0.1144 -0.0569 -0.2126
 5821W        W 9565   9.203   2.721  10.607  0.1895  0.1103  0.0823
 5822W        W 9566   3.183   9.319   1.301 -0.3498  0.0559 -0.1426
 5823W        W 9567   8.206   1.343   4.325  0.0309 -0.0277  0.1427
 5824W        W 9568   8.679   7.975   8.601  0.0111  0.2029 -0.2752
 5825W        W 9569   1.170   3.427  10.568  0.1297  0.1023 -0.2295
 5826W        W 9570   8.524   2.278  11.184  0.0409  0.0669 -0.1774
 5827W        W 9571   1.368   8.417   0.200 -0.0269  0.2524 -0.0978
 5828W        W 9572   6.488   7.099   9.620  0.0101  0.0363 -0.1616
 5829W        W 9573   9.914   3.425   2.473  0.0374  0.0671  0.0736
 5830W        W 9574   4.097   7.465   9.831  0.2911  0.0194  0.1263
 5831W        W 9575   1.533   9.279   0.048 -0.2318 -0.3490 -0.2323
 5832W        W 9576   2.273   5.577  12.096  0.0237  0.1705 -0.1868
 5833W        W 9577   5.968   3.599   3.464  0.0314  0.0820 -0.2393
 5834W        W 9578   0.165   6.871   3.286  0.0626 -0.0173  0.0038
 5835W        W 9579   5.645   0.368   4.822  0.0981  0.0892 -0.2716
 5836W        W 9580   0.417   8.007   4.531 -0.1615 -0.2928 -0.1864
 5837W        W 9581   6.675   8.566  12.019 -0.0666  0.0795 -0.0818
 5838W        W 9582   3.530   3.826   0.532  0.2755  0.0592 -0.2691
 5839W        W 9583   4.988   2.893   4.099 -0.1572 -0.0626  0.0004
 5840W        W 9584   0.837   4.175   9.048  0.0069  0.0395 -0.0582
 5841W        W 9585   9.632   1.289   3.930  0.3370  0.0769 -0.0499
 5842W        W 9586   0.828   3.902   0.067  0.0261  0.0071  0.1383
 5843W        W 9587   7.894   2.983   1.195  0.2135  0.0074 -0.0130
 5844W        W 9588   1.062   3.352   8.735 -0.2359 -0.2614 -0.0826
 5845W        W 9589   0.727   3.690   8.962 -0.4261 -0.1418 -0.0333
 5846W        W 9590   8.864   2.079   4.268 -0.1626  0.2880 -0.0935
 5847W        W 9591   1.037   8.633   3.019 -0.1656  0.1083 -0.0922
 5848W        W 9592   9.847   8.074   0.788 -0.0722 -0.0143  0.0716
 5849W        W 9593   4.570   8.901   1.501  0.0005 -0.4036  0.0692
 5850W        W 9594   0.747   0.209   0.946 -0.2046  0.1263 -0.2463
 5851W        W 9595   2.599   9.730   1.755 -0.2380 -0.1659  0.1262
 5852W        W 9596   8.379   0.788  10.819  0.3333 -0.0822 -0.0044
 5853W        W 9597   5.326   7.817  12.198 -0.1161 -0.0505 -0.1372
 5854W        W 9598   0.629   7.817   0.931  0.5137 -0.2260  0.0647
 5855W        W 9599   3.990   5.754   0.205  0.0091  0.0094 -0.0737
 5856W        W 9600   7.328   8.544   9.790 -0.0509  0.1779  0.0765
 5857W        W 9601   7.116   5.561   3.633  0.0778  0.2401 -0.2272
 5858W        W 9602   4.052   6.565   8.806 -0.3150  0.0575  0.3597
 5859W        W 9603   8.458   5.443   9.947 -0.1545 -0.2921  0.3016
 5860W        W 9604   4.826   7.417   9.976 -0.4301 -0.2099  0.0909
 5861W        W 9605   0.022   9.593   8.991  0.1982  0.0936 -0.2378
 5862W        W 9606   4.530   9.979   0.182 -0.2318  0.2000  0.0133
 5863W        W 9607   5.555   0.945   0.401 -0.1480  0.0218  0.3455
 5864W        W 9608   3.567   9.065   8.474 -0.0738  0.0550  0.0804
 5865W        W 9609   4.050   6.702   9.825  0.2801  0.2398 -0.0628
 5866W        W 9610   2.977   5.893   0.327 -0.0295 -0.1153 -0.2317
 5867W        W 9611   8.363   0.798   9.687  0.1808  0.3674 -0.0243
 5868W        W 9612   2.913   7.752   9.024  0.0112  0.2136 -0.1108
 5869W        W 9613   5.716   6.102   2.365 -0.1398  0.2221  0.2470
 5870W        W 9614   8.282   8.863   1.860  0.2167 -0.0037 -0.1817
 5871W        W 9615   0.693   4.287   2.765  0.2194  0.1801 -0.1922
 5872W        W 9616   2.387   1.396   0.956 -0.4557  0.1916 -0.3621
 5873W        W 9617   8.315   4.144  12.292  0.0886 -0.0911 -0.0055
 5874W        W 9618   7.993   2.875   3.278  0.0238 -0.1649 -0.4031
 5875W        W 9619   3.957   1.946   1.254 -0.0430  0.0043 -0.2771
 5876W        W 9620   3.811   7.991   5.345  0.0433  0.0341  0.2029
 5877W        W 9621   5.738   3.343   9.298  0.0794  0.1104  0.0432
 5878W        W 9622   5.711   6.441   1.920  0.1228 -0.2147 -0.2145
 5879W        W 9623   3.617   2.798   8.711 -0.0724  0.1505 -0.0975
 5880W        W 9624   7.647   5.691   2.221 -0.1987  0.0858  0.0301
 5881W        W 9625   1.313   1.428   3.709 -0.0916 -0.1075 -0.0745
 5882W        W 9626   9.296   6.201  11.817 -0.0651 -0.0993  0.1780
 5883W        W 9627   8.560   3.640   8.498 -0.3399  0.0324  0.3028
 5884W        W 9628   0.646   8.117  10.900 -0.1202  0.0346  0.0425
 5885W        W 9629   3.268   9.276  12.283 -0.0798  0.1867 -0.0799
 5886W        W 9630   5.252   5.889   4.254  0.1119 -0.0400 -0.2038
 5887W        W 9631   3.185   9.883   2.990  0.0170  0.1990  0.2465
 5888W        W 9632   7.186   2.305  10.928  0.2402  0.2222 -0.1921
 5889W        W 9633   8.736   9.528   0.905 -0.0797  0.1698  0.1684
 5890W        W 9634   7.374   2.885   5.045  0.2165 -0.0633  0.2564
 5891W        W 9635   3.805   6.009  10.094 -0.1200 -0.0682 -0.0215
 5892W        W 9636   9.043   7.109   0.300 -0.0267  0.0599 -0.2988
 5893W        W 9637   8.662   6.188   1.269 -0.1937 -0.0299  0.1328
 5894W        W 9638   6.336   5.144  10.516 -0.0292 -0.2039  0.1067
 5895W        W 9639   9.435   3.210  11.375 -0.0261  0.0172  0.3258
 5896W        W 9640   7.315   6.768   9.846  0.1339 -0.0439 -0.2468
 5897W        W 9641   4.182   4.270  11.776  0.2191  0.0584 -0.0757
 5898W        W 9642   7.360   4.392   3.167  0.0213 -0.0169 -0.3999
 5899W        W 9643   7.268   1.488   2.089 -0.2619  0.4241  0.1931
 5900W        W 9644   9.947   0.859   9.471 -0.0854 -0.2674  0.0648
 5901W        W 9645   8.628   3.573  12.233  0.1278  0.0232 -0.0464
 5902W        W 9646   1.965   6.378   1.834 -0.0199 -0.3885 -0.0142
 5903W        W 9647   8.719   4.985  11.613  0.0352 -0.2123  0.2386
 5904W        W 9648   0.650   1.470  12.051 -0.2927  0.1433 -0.1168
 5905W        W 9649   3.036   7.202  12.028 -0.1600 -0.1100  0.0017
 5906W        W 9650   1.012   0.509   2.513  0.1013  0.1150  0.1895
 5907W        W 9651   1.975   1.861   2.040  0.2073  0.0469  0.0326
 5908W        W 9652   3.936   6.337   2.163 -0.1256 -0.2230  0.0950
 5909W        W 9653   1.426   3.570   9.020 -0.0146  0.1636  0.0825
 5910W        W 9654   7.546   0.371   4.648  0.1668  0.1091  0.0380
 5911W        W 9655   5.796   6.877  11.670 -0.3289 -0.0996  0.2256
 5912W        W 9656   4.970   4.466   9.075 -0.0870 -0.2237  0.0488
 5913W        W 9657   6.826   4.756   9.752 -0.2617 -0.0661  0.1130
 5914W        W 9658   0.549   2.275  11.591 -0.1362 -0.0413 -0.1477
 5915W        W 9659   5.135   0.850   9.265  0.0364  0.0514  0.0827
 5916W        W 9660   5.859   7.368   4.158 -0.0340  0.0276  0.1659
 5917W        W 9661   1.950   5.613  11.019  0.1725 -0.0903  0.2111
 5918W        W 9662   1.069   2.674  10.022  0.2109  0.2860  0.0080
 5919W        W 9663   5.317   9.182   3.766  0.2422 -0.0531  0.1419
 5920W        W 9664   3.651   9.957   1.618 -0.1724 -0.1780  0.0102
 5921W        W 9665   0.203   2.581   0.822  0.1537 -0.1115 -0.0469
 5922W        W 9666   6.523   0.649   0.666  0.2571 -0.0542 -0.0540
 5923W        W 9667   7.076   1.660   1.460  0.1060 -0.2211 -0.1769
 5924W        W 9668   0.138   7.395   0.299 -0.0388  0.0285 -0.1839
 5925W        W 9669   5.895   3.607   2.981 -0.0273  0.0248  0.1265
 5926W        W 9670   7.828   4.907   9.677 -0.1642 -0.2692 -0.1098
 5927W        W 9671   5.673   2.675   0.625  0.0457  0.4206 -0.2102
 5928W        W 9672   2.058   5.153  11.219  0.3367  0.0601  0.3718
 5929W        W 9673   6.921   6.729   3.372 -0.2778  0.1791  0.1877
 5930W        W 9674   6.262   5.905  11.785 -0.1929  0.1740 -0.0479
 5931W        W 9675   9.373   3.845   1.676 -0.1418  0.0102  0.0780
 5932W        W 9676   1.442   2.679   2.014 -0.0866 -0.0188 -0.1919
 5933W        W 9677   5.959   1.401   9.711 -0.2226  0.1779  0.0408
 5934W        W 9678   4.488   5.091   1.247  0.1531  0.2057 -0.2895
 5935W        W 9679   8.240   5.011   1.838 -0.2797  0.2004 -0.3606
 5936W        W 9680   7.467   1.348  10.069 -0.2247 -0.1860 -0.2580
 5937W        W 9681   5.773   3.121   0.904 -0.3366 -0.2976 -0.1390
 5938W        W 9682   7.226   8.384   4.275  0.0171 -0.0187 -0.4258
 5939W        W 9683   6.051   5.915   1.758  0.0268  0.2158  0.0587
 5940W        W 9684   7.391   4.733   0.324  0.0563  0.0534  0.0780
 5941W        W 9685   9.425   4.705   9.725  0.0090 -0.1651  0.0130
 5942W        W 9686   8.947   9.732   2.734  0.3754 -0.4202 -0.0651
 5943W        W 9687   8.928   2.039  11.386  0.1795 -0.3177 -0.2299
 5944W        W 9688   5.147   1.352  11.288  0.0878  0.1731  0.1357
 5945W        W 9689   2.349   8.973  11.825 -0.1498  0.4890 -0.1238
 5946W        W 9690   9.550   1.802   1.896 -0.2535  0.0410  0.3119
 5947W        W 9691   2.852   5.865  11.478  0.1503 -0.3457 -0.0213
 5948W        W 9692   7.563   9.623  11.815 -0.1131 -0.1177  0.0867
 5949W        W 9693   0.885   6.666   9.794  0.3359 -0.1647 -0.0667
 5950W        W 9694   4.438   7.032   3.868 -0.0091 -0.4343 -0.1189
 5951W        W 9695   3.006   3.740   2.207 -0.1031 -0.1133  0.1693
 5952W        W 9696   3.794   2.876  10.665  0.0850 -0.1072 -0.3222
 5953W        W 9697   9.505   7.396  11.926 -0.1396  0.0768 -0.0695
 5954W        W 9698   5.001   9.566  11.459 -0.2032  0.0986 -0.3207
 5955W        W 9699   5.417   2.241   3.649 -0.3903  0.2595 -0.2909
 5956W        W 9700   5.360   2.929   9.069 -0.1351 -0.2788  0.2503
 5957W        W 9701   0.413   2.658   2.158 -0.0888  0.0696  0.1133
 5958W        W 9702   3.648   6.644   1.262 -0.1808  0.0612  0.2707
 5959W        W 9703   5.066   0.008  10.851 -0.2073 -0.3381 -0.0283
 5960W        W 9704   3.838   5.451   8.522 -0.0735 -0.0442 -0.2477
 5961W        W 9705   5.846   7.743  12.162 -0.3543  0.4132  0.0097
 5962W        W 9706   1.882   2.676  11.628 -0.0855  0.1135  0.1078
 5963W        W 9707   8.247   7.711  12.322 -0.1365  0.2506 -0.0787
 5964W        W 9708   5.289   1.674   0.393 -0.1594  0.0958 -0.0211
 5965W        W 9709   0.197   5.977   0.876 -0.0903  0.1740 -0.1768
 5966W        W 9710   4.129   7.419   1.572 -0.0429 -0.3302 -0.1195
 5967W        W 9711   9.428   1.436   3.511  0.2250 -0.3157 -0.1420
 5968W        W 9712   6.889   4.506   0.549  0.0468  0.5108  0.2163
 5969W        W 9713   8.334   1.495   2.936 -0.0350 -0.1313 -0.2616
 5970W        W 9714   6.967   8.832   4.425 -0.1770  0.1154  0.2016
 5971W        W 9715   5.576   7.932   0.241  0.2892 -0.0294 -0.2338
 5972W        W 9716   2.510   9.561  10.590  0.2806 -0.0203  0.0801
 5973W        W 9717   6.729   1.705  10.850  0.0713 -0.1492  0.3804
 5974W        W 9718   9.238   1.143  11.821  0.0077  0.1555  0.2271
 5975W        W 9719   3.782   6.630   2.818 -0.2134 -0.0562  0.1046
 5976W        W 9720   8.825   2.924   3.372  0.2027 -0.3366 -0.0309
 5977W        W 9721   8.390   0.397   5.043 -0.2025  0.0090  0.1990
 5978W        W 9722   5.153   3.759   0.574  0.4060  0.3681  0.4652
 5979W        W 9723   0.485   3.823   2.584  0.0198  0.1305 -0.2584
 5980W        W 9724   8.333   1.259   1.395 -0.0683  0.3510  0.2007
 5981W        W 9725   3.259   4.918   9.409 -0.1246 -0.1825 -0.1127
 5982W        W 9726   4.798   1.038  10.972 -0.0823 -0.0200 -0.2018
 5983W        W 9727   3.681   8.994  11.101  0.0460  0.2994  0.0133
 5984W        W 9728   4.585   3.462   2.526 -0.1871  0.0447  0.0780
 5985W        W 9729   8.355   2.659   1.957  0.0929 -0.3412  0.0334
 5986W        W 9730   6.935   9.654   9.276  0.1829 -0.3596  0.1518
 5987W        W 9731   3.444   4.870  11.557  0.0852 -0.0609  0.0074
 5988W        W 9732   5.760   9.364   2.819  0.0589 -0.5024 -0.2165
 5989W        W 9733   7.051   4.150   1.249 -0.1802  0.1716  0.3079
 5990W        W 9734   5.919   8.965   3.112 -0.0519 -0.0281 -0.1545
 5991W        W 9735   1.420   6.751  11.166 -0.0894 -0.2465  0.1487
 5992W        W 9736   6.479   0.596   2.414 -0.1195 -0.0959 -0.2892
 5993W        W 9737   0.189   9.648  10.486 -0.1633 -0.0416 -0.0934
 5994W        W 9738   4.262   0.316  12.221  0.1095  0.1228  0.1715
 5995W        W 9739   7.425   4.964   8.380  0.0043  0.0394 -0.1986
 5996W        W 9740   8.661   2.322   1.811 -0.3240 -0.0429 -0.2134
 5997W        W 9741   3.815   7.926  12.126  0.0059  0.1699 -0.1390
 5998W        W 9742   5.672   6.258   3.355 -0.2796  0.3591  0.0721
 5999W        W 9743   6.714   3.018  12.105  0.0125  0.3221 -0.0004
 6000W        W 9744   5.204   8.256   0.068 -0.0528 -0.2960  0.0459
 6001W        W 9745   6.181   2.646   0.461  0.0300 -0.2323 -0.0433
 6002W        W 9746   9.636   9.480   4.866 -0.0607 -0.1499  0.0361
 6003W        W 9747   8.494   9.321   1.685  0.1332  0.2273  0.0472
 6004W        W 9748   2.909   9.055   9.709  0.0849  0.1268 -0.3240
 6005W        W 9749   4.828   3.491   0.257 -0.0201  0.0732  0.1008
 6006W        W 9750   8.631   5.006  10.700 -0.1037 -0.0874  0.0260
 6007W        W 9751   7.018   6.537  12.217 -0.2270  0.2384  0.0127
 6008W        W 9752   4.934   4.039   1.980 -0.1758 -0.0856  0.1052
 6009W        W 9753  10.026   1.084  11.775 -0.2476  0.0275  0.2064
 6010W        W 9754   3.927   7.574  10.638 -0.0266  0.0444  0.0190
 6011W        W 9755   0.469   8.318   9.816 -0.0957  0.0158  0.0538
 6012W        W 9756   2.481   3.943   0.904  0.2956 -0.0444  0.0675
 6013W        W 9757   4.168   3.493   8.913 -0.2467 -0.1500 -0.0908
 6014W        W 9758  10.113   1.063  10.501  0.3616  0.1342  0.2528
 6015W        W 9759   8.910   1.128   0.196  0.1554 -0.1005 -0.1098
 6016W        W 9760   3.636   4.678   2.512  0.3675  0.0448 -0.0357
 6017W        W 9761   0.223   9.694   1.342  0.0008  0.2610  0.0710
 6018W        W 9762   6.198   9.787   8.562 -0.4639 -0.2740 -0.2525
 6019W        W 9763   8.679   8.162  10.564 -0.2327  0.3071 -0.0183
 6020W        W 9764   4.035   9.238   8.673 -0.0152  0.2033  0.0641
 6021W        W 9765   0.581   7.388   2.779 -0.1034 -0.2024  0.4730
 6022W        W 9766   8.254   0.325  10.573 -0.3004  0.0465  0.0961
 6023W        W 9767   2.964   2.318   9.144 -0.1364  0.0080  0.0778
 6024W        W 9768   8.597   6.574  11.399 -0.2294 -0.0400  0.0310
 6025W        W 9769   8.003   2.248   0.801  0.3275 -0.1388  0.0242
 6026W        W 9770   8.569   2.247   2.799 -0.0725 -0.3075  0.0293
 6027W        W 9771   2.505   2.852   0.702 -0.1386  0.0458  0.1341
 6028W        W 9772   8.656   5.617   3.823 -0.0303  0.0052  0.0809
 6029W        W 9773   0.858   7.434   0.721  0.2060 -0.0361 -0.0679
 6030W        W 9774   7.920   9.995   3.989  0.1455 -0.3521  0.0755
 6031W        W 9775   8.387   9.660   3.009 -0.1082 -0.2580  0.0790
 6032W        W 9776   2.576   7.268   0.458  0.0700 -0.3061 -0.0766
 6033W        W 9777   1.170   6.473   9.432  0.0788 -0.1495 -0.1130
 6034W        W 9778   7.662   7.339   3.574 -0.0342  0.2057  0.1451
 6035W        W 9779   5.517   9.906   3.409  0.1515  0.2641  0.0876
 6036W        W 9780   2.669   1.783   0.784  0.1355 -0.0090 -0.0414
 6037W        W 9781   1.856   7.749  12.225  0.1029  0.2520  0.0190
 6038W        W 9782   3.539   2.701   2.943 -0.2395  0.2370  0.2758
 6039W        W 9783   7.350   3.988   9.552  0.1262  0.1253 -0.0456
 6040W        W 9784   6.978   5.479  12.189  0.0663 -0.0465  0.1609
 6041W        W 9785   8.771   5.843   4.652  0.3754  0.2647  0.1098
 6042W        W 9786   4.794   1.261  10.510 -0.0871 -0.1487  0.1865
 6043W        W 9787   2.772   5.675   3.304  0.1801 -0.1778  0.0298
 6044W        W 9788   3.832   1.907  11.635  0.2434 -0.0671 -0.3972
 6045W        W 9789   9.936   6.960   2.941 -0.2364  0.2047 -0.0098
 6046W        W 9790   1.978   1.540   1.235  0.0333 -0.1577 -0.1527
 6047W        W 9791   8.987   3.544   1.884 -0.1462 -0.0191  0.0090
 6048W        W 9792   3.011   8.378   8.273  0.1734  0.4551 -0.0864
 6049W        W 9793   0.255   0.251  11.500  0.3633  0.0643 -0.0680
 6050W        W 9794   6.849   8.520   9.564 -0.2126  0.2630 -0.2145
 6051W        W 9795   0.993   5.319   0.115 -0.1943 -0.2362  0.2147
 6052W        W 9796   7.222   6.395   3.176 -0.4583  0.0749 -0.1819
 6053W        W 9797   8.666   8.731   0.574  0.1343 -0.1094  0.5978
 6054W        W 9798   5.572   0.005  11.040 -0.3398  0.2566 -0.0231
 6055W        W 9799   1.334   8.447   2.610 -0.0865 -0.0521  0.0196
 6056W        W 9800   4.607   5.961   9.844 -0.3633 -0.0718 -0.0072
 6057W        W 9801   8.436   7.168   2.112 -0.1085  0.0763 -0.1806
 6058W        W 9802   3.798   1.442   0.884 -0.2540  0.1869  0.2349
 6059W        W 9803   4.783   5.285   3.271 -0.1589 -0.1459 -0.1248
 6060W        W 9804   2.272   6.310   9.719  0.0980 -0.0952  0.2174
 6061W        W 9805   9.213   9.744   2.275  0.0164 -0.1540  0.3265
 6062W        W 9806   1.267   5.335  12.104 -0.2498  0.0585 -0.0783
 6063W        W 9807   6.765   8.051   3.133 -0.1490 -0.1203 -0.0761
 6064W        W 9808   1.471   4.183   9.625  0.0455  0.0205 -0.1443
 6065W        W 9809   4.542   9.696   1.891  0.1297  0.1106 -0.0899
 6066W        W 9810   2.604   6.168   9.312 -0.1122  0.2153  0.1443
 6067W        W 9811   4.651   0.851   0.565  0.1533 -0.0612 -0.0892
 6068W        W 9812   7.101   9.950   0.263 -0.0233 -0.0869  0.3020
 6069W        W 9813   8.330   7.557   1.409  0.0411  0.1362 -0.0645
 6070W        W 9814   6.668   8.247   1.662  0.1414 -0.1828 -0.2571
 6071W        W 9815   0.527   1.426   0.183  0.1207  0.0126 -0.3085
 6072W        W 9816   9.864   8.525   3.272  0.2341 -0.1320  0.0398
 6073W        W 9817   4.666   8.703   3.884  0.0167  0.0845 -0.1393
 6074W        W 9818   7.230   5.943   3.054  0.3479 -0.2292 -0.0026
 6075W        W 9819   1.809   1.723   0.130  0.4253 -0.2600  0.0629
 6076W        W 9820   2.849   7.871   2.839  0.0719  0.2693  0.0876
 6077W        W 9821   1.388   5.165   9.283 -0.2272 -0.0951  0.1061
 6078W        W 9822   2.266   0.211   9.625 -0.0103 -0.1066  0.1519
 6079W        W 9823   6.127   6.176   1.289 -0.0398  0.3227  0.0181
 6080W        W 9824   7.821   6.991  10.683  0.1317 -0.4391 -0.0531
 6081W        W 9825   4.278   3.851   2.593 -0.1503  0.3797 -0.1249
 6082W        W 9826   4.558   4.878   3.571 -0.0790  0.1256 -0.3503
 6083W        W 9827   5.949   8.532   2.389 -0.1200 -0.2822  0.0804
 6084W        W 9828   9.475   3.696  11.306  0.1487 -0.0461  0.0054
 6085W        W 9829   3.844   7.689   1.167  0.0247  0.2204  0.2570
 6086W        W 9830   7.088   2.950  11.610 -0.1613 -0.2579  0.2915
 6087W        W 9831   7.208   7.158   2.156  0.1670  0.1137 -0.1512
 6088W        W 9832   7.144   8.185   9.424  0.0485 -0.0661 -0.1084
 6089W        W 9833   0.071   8.374   0.599  0.2777  0.1965 -0.1538
 6090W        W 9834   9.902   2.962   2.789  0.0260 -0.4814  0.1474
 6091W        W 9835   7.213   4.691   2.795 -0.0246  0.1496 -0.1092
 6092W        W 9836   1.248   9.787   3.516  0.0714 -0.0774 -0.0110
 6093W        W 9837   6.781   1.500   8.868  0.1795  0.1404  0.0274
 6094W        W 9838   0.384   5.245   1.529  0.3280  0.1292  0.2495
 6095W        W 9839   6.902   3.333   1.457 -0.3241  0.1084 -0.0731
 6096W        W 9840   0.172   1.687   0.442  0.0768  0.0754  0.0195
 6097W        W 9841   2.102   1.793   0.822  0.1310  0.1281 -0.1276
 6098W        W 9842   6.925   9.071   1.405  0.0534 -0.1135 -0.1562
 6099W        W 9843   8.700   8.907  11.257  0.0391  0.1511  0.1068
 6100W        W 9844   2.270   5.324   2.501 -0.0300  0.1872  0.0207
 6101W        W 9845   4.428   8.618   0.240 -0.1379  0.2611 -0.1465
 6102W        W 9846   5.820   8.444   9.889  0.3024 -0.1825  0.0365
 6103W        W 9847   7.813   2.227  11.704 -0.0785  0.3573  0.0802
 6104W        W 9848   1.800   5.798  10.411 -0.2771 -0.2824  0.2661
 6105W        W 9849   1.700   8.451  11.553 -0.0786 -0.0913  0.1927
 6106W        W 9850   4.475   6.423   5.809  0.2083  0.1707  0.2950
 6107W        W 9851   6.666   0.408  10.386  0.0838  0.0614  0.0322
 6108W        W 9852   8.414   1.166   3.835  0.0994 -0.0169 -0.0326
 6109W        W 9853   9.022   3.666  10.530 -0.0524  0.2534  0.0507
 6110W        W 9854   9.518   1.308   0.209  0.1777 -0.0988  0.1368
 6111W        W 9855   2.048   6.610  10.105  0.2457  0.2598  0.1390
 6112W        W 9856   0.944   3.807  11.919 -0.1296 -0.2157 -0.3944
 6113W        W 9857   5.994   9.160   1.071  0.1084  0.1524 -0.1618
 6114W        W 9858   6.051   0.330   2.428 -0.1327  0.0919  0.0953
 6115W        W 9859   8.653   8.090   2.089  0.2158  0.1533 -0.2028
 6116W        W 9860   9.493   8.572   1.337 -0.0182  0.1808  0.0359
 6117W        W 9861   7.324   3.543   8.900 -0.0284  0.2469  0.0733
 6118W        W 9862   1.325   1.600   2.127  0.1463  0.0373  0.0108
 6119W        W 9863   4.030   4.509  10.857 -0.1127  0.0349 -0.0855
 6120W        W 9864   7.581   9.726  10.899 -0.0467 -0.1405 -0.2863
 6121W        W 9865   0.344   2.269   2.479 -0.1340 -0.2289  0.2853
 6122W        W 9866   4.634   7.508   1.586 -0.1868  0.1676  0.0755
 6123W        W 9867   5.716   0.486   4.327 -0.1184  0.0751  0.1177
 6124W        W 9868   1.509   0.722   9.528 -0.1132  0.4504 -0.0253
 6125W        W 9869   1.142   7.112   0.484 -0.1853  0.0424  0.0408
 6126W        W 9870   5.131   6.614   1.245  0.1416  0.0574 -0.1105
 6127W        W 9871   5.870   9.745   3.096 -0.0266  0.2087 -0.0621
 6128W        W 9872   1.017   6.499  11.237  0.3567  0.0515 -0.3011
 6129W        W 9873   4.727   7.120   2.760 -0.0878  0.0859  0.0801
 6130W        W 9874   4.223   4.577   1.601 -0.0175  0.6506 -0.4974
 6131W        W 9875   2.173   3.545   0.961 -0.0872  0.1173  0.2186
 6132W        W 9876   5.740   9.966   8.739 -0.0705 -0.0481  0.0207
 6133W        W 9877   5.616   6.407   1.358  0.0759  0.2543  0.2092
 6134W        W 9878   5.798   4.061   1.634  0.2667  0.3448 -0.1713
 6135W        W 9879   5.702   7.924   0.709  0.0520 -0.1332 -0.1628
 6136W        W 9880   6.541   2.883   9.682 -0.0100  0.3385  0.0355
 6137W        W 9881   3.992   9.799   1.935 -0.0208 -0.2052  0.0866
 6138W        W 9882   0.109   2.068   9.807  0.2133 -0.2987  0.1159
 6139W        W 9883   7.413   6.456  10.851  0.0315  0.1763  0.1151
 6140W        W 9884   2.199   1.520   0.402 -0.1142  0.1362 -0.0658
 6141W        W 9885   8.731   6.307  10.967  0.1057  0.2664  0.2146
 6142W        W 9886   7.812   3.729   1.429 -0.0783 -0.0155 -0.0842
 6143W        W 9887   1.601   4.978   0.964  0.1817  0.0793 -0.0232
 6144W        W 9888   4.948   6.617   0.276  0.2900 -0.1618 -0.1662
 6145W        W 9889   0.662   7.933   9.607 -0.1648  0.0746 -0.1541
 6146W        W 9890   3.545   4.936   3.803 -0.2377  0.1289  0.1273
 6147W        W 9891   1.250   5.014  10.514 -0.0448  0.1458 -0.0248
 6148W        W 9892   9.675   0.395  10.792  0.0163  0.0569  0.3030
 6149W        W 9893   6.729   5.135  10.198 -0.1747  0.1624  0.0431
 6150W        W 9894   6.956   1.966  10.490  0.4015 -0.1849  0.0073
 6151W        W 9895   1.256   4.837   8.964  0.1295  0.2181  0.1157
 6152W        W 9896   6.673   0.329   1.972 -0.1038  0.0478 -0.1833
 6153W        W 9897   6.871   9.118   0.682 -0.0270  0.1195 -0.0348
 6154W        W 9898   1.121   3.352   8.162  0.1576  0.0899 -0.1814
 6155W        W 9899   8.087   9.758  10.996  0.1387  0.0208 -0.2887
 6156W        W 9900   2.450   8.026   3.159  0.3354  0.0564 -0.1917
 6157W        W 9901   9.104   1.651   4.471 -0.0269  0.1217  0.3073
 6158W        W 9902   2.885   4.667   3.346 -0.1995 -0.0587  0.1691
 6159W        W 9903   4.736   6.941  11.948  0.0110  0.1237  0.3364
 6160W        W 9904   1.455   1.925  10.150 -0.0024  0.0816 -0.0015
 6161W        W 9905   4.490   7.538   0.630  0.0336  0.0339  0.1300
 6162W        W 9906   5.628   1.025   9.364 -0.0916 -0.1451 -0.1279
 6163W        W 9907   6.425   4.221  10.463  0.4612 -0.0190 -0.2381
 6164W        W 9908   4.351   8.881   9.107  0.0563  0.0759 -0.0563
 6165W        W 9909   6.446   0.968  12.047 -0.1319 -0.0086 -0.1638
 6166W        W 9910   0.695   0.180   9.265 -0.0114  0.0427  0.4806
 6167W        W 9911   2.646   7.997   4.907 -0.3335 -0.3026 -0.0277
 6168W        W 9912   7.442   2.192   3.852 -0.1961 -0.0500 -0.1576
 6169W        W 9913   0.872   2.102  10.018 -0.0880  0.0549 -0.0182
 6170W        W 9914   6.591   1.510   0.577 -0.2177  0.0136  0.2568
 6171W        W 9915   3.018   7.493   1.648 -0.0433  0.2782  0.4139
 6172W        W 9916   2.510   7.013   3.202  0.2567 -0.0191  0.3644
 6173W        W 9917   2.680   2.444   8.729  0.1855 -0.0556 -0.2496
 6174W        W 9918   8.253   2.124   3.675  0.0058 -0.1392 -0.0503
 6175W        W 9919   3.354   8.281   9.463 -0.0147 -0.0360  0.0030
 6176W        W 9920   1.363   7.573  11.082 -0.4593 -0.0965 -0.3397
 6177W        W 9921   5.529   3.305   2.803  0.0394 -0.1872  0.1929
 6178W        W 9922   9.640   5.223   1.282  0.1315  0.1097  0.0518
 6179W        W 9923   4.139   9.057   0.164  0.2075 -0.1345  0.1397
 6180W        W 9924   4.633   6.167  11.528 -0.3061 -0.0477  0.1507
 6181W        W 9925   9.729   3.238   2.023  0.0801  0.1754 -0.0567
 6182W        W 9926   0.996   5.340   3.720  0.1682  0.1270 -0.0538
 6183W        W 9927   7.313   5.578   8.917  0.0278  0.1589 -0.1373
 6184W        W 9928   3.219   7.085   2.423  0.3382 -0.0083 -0.0473
 6185W        W 9929   8.488   0.854   1.636 -0.2805  0.2299 -0.0890
 6186W        W 9930   9.102   8.278  10.879  0.1521  0.0108  0.5043
 6187W        W 9931   2.910   4.223   0.818 -0.0170 -0.1986  0.4262
 6188W        W 9932   6.615   9.302   9.145  0.1862  0.2115  0.3528
 6189W        W 9933   0.198   3.638   3.919 -0.2773 -0.0725 -0.3372
 6190W        W 9934   7.036   4.600   1.584  0.3087 -0.0881 -0.0294
 6191W        W 9935   7.968   4.106   3.663 -0.0371  0.0046 -0.2369
 6192W        W 9936   9.945   7.543   1.661 -0.3044 -0.0694 -0.1151
 6193W        W 9937   9.646   0.880   4.200  0.3312 -0.2933  0.1816
 6194W        W 9938   3.590   7.525   0.082  0.0222  0.0838 -0.1926
 6195W        W 9939   3.583   0.099   0.404 -0.0321 -0.0009 -0.1272
 6196W        W 9940   6.776   7.324  10.407  0.0885  0.3781  0.1746
 6197W        W 9941   0.374   8.321  11.590 -0.0118 -0.0528  0.5990
 6198W        W 9942   2.880   4.542  10.071 -0.2645 -0.2342 -0.0866
 6199W        W 9943   9.470   5.717   1.244 -0.2028  0.1556 -0.0516
 6200W        W 9944   6.139   4.916   1.897 -0.0973 -0.1211  0.0075
 6201W        W 9945   7.056   9.002   9.474 -0.4390 -0.1943  0.0619
 6202W        W 9946   6.940   9.605   2.266 -0.0427  0.3661 -0.3171
 6203W        W 9947   1.574   6.550  10.289  0.1501 -0.3685 -0.2596
 6204W        W 9948   0.449   6.445   0.298 -0.1768  0.1567  0.1865
 6205W        W 9949   7.454   0.501   8.734 -0.1678 -0.3336  0.0508
 6206W        W 9950   3.065   2.347   0.231 -0.0980  0.0989  0.2355
 6207W        W 9951   7.257   1.643   2.670 -0.2325  0.0745  0.1751
 6208W        W 9952   2.402   5.987   3.259  0.2147  0.0777 -0.0615
 6209W        W 9953  10.034   1.193   0.229 -0.1075 -0.2550  0.1733
 6210W        W 9954   7.608   0.857   1.050  0.0131  0.1496 -0.1236
 6211W        W 9955   7.780   4.243   2.861  0.3414  0.1515  0.2274
 6212W        W 9956  10.106   3.727  10.707  0.0989  0.0187 -0.4256
 6213W        W 9957   5.310   2.335   3.128  0.1822  0.0009 -0.2129
 6214W        W 9958   6.511   3.609   0.178 -0.3628  0.0186  0.0974
 6215W        W 9959   9.914   5.650  11.689  0.1455 -0.0647 -0.3203
 6216W        W 9960   7.934   6.956   4.605  0.4088 -0.0139  0.1091
 6217W        W 9961   3.994   6.262   1.108  0.0991 -0.0941  0.1101
 6218W        W 9962   0.043   2.159   2.067  0.1658  0.0587 -0.1779
 6219W        W 9963   6.516   3.562  11.676  0.0092 -0.2008  0.2327
 6220W        W 9964   1.573   8.760   3.484 -0.1920 -0.0489  0.3722
 6221W        W 9965   9.808   7.107  10.750 -0.1201 -0.1827 -0.0493
 6222W        W 9966  10.068   0.049   4.352  0.0309  0.0499 -0.3710
 6223W        W 9967   0.408   8.798   2.397 -0.0889  0.1522 -0.1391
 6224W        W 9968   4.033   3.034   7.871 -0.1643 -0.0805  0.2507
 6225W        W 9969   7.483   0.849  11.218  0.0848 -0.1418  0.0284
 6226W        W 9970   7.540   0.404  11.477  0.0221 -0.0384  0.0846
 6227W        W 9971   2.364   5.556   9.122 -0.0798 -0.2961  0.1975
 6228W        W 9972   6.943   6.050   3.632  0.0767 -0.0644  0.0215
 6229W        W 9973   4.377   7.540   4.418  0.0444  0.0543 -0.1952
 6230W        W 9974   1.887   4.130  11.826  0.1046  0.3826 -0.0220
 6231W        W 9975   0.066   9.153   2.503  0.0792 -0.2444 -0.0316
 6232W        W 9976   0.074   2.663  10.456 -0.0516 -0.0303  0.3064
 6233W        W 9977   2.312   9.479  12.313 -0.0715  0.2336  0.0868
 6234W        W 9978   4.135   6.621  11.183  0.0216  0.3110 -0.2814
 6235W        W 9979   9.461   9.857   9.652  0.0093  0.0738 -0.0290
 6236W        W 9980   6.563   9.796  12.072 -0.1682  0.2043  0.2275
 6237W        W 9981   7.072   2.594   2.024  0.1248 -0.0446  0.0261
 6238W        W 9982   1.306   3.854  12.277 -0.2152 -0.3803  0.1783
 6239W        W 9983   9.333   9.504   8.397  0.3073 -0.0694  0.2663
 6240W        W 9984   3.640   4.472   9.373  0.1236 -0.3087 -0.0635
 6241W        W 9985   1.590   1.888   2.442  0.4447 -0.0208  0.1110
 6242W        W 9986   8.323   6.739  11.818 -0.1532 -0.0553 -0.4130
 6243W        W 9987   0.341   7.763   3.042 -0.0276  0.0362  0.0173
 6244W        W 9988   1.935   2.164  11.006  0.1515  0.1371 -0.1187
 6245W        W 9989   2.709   9.605   0.408  0.1588  0.1945 -0.0404
 6246W        W 9990   0.043   9.279   0.066 -0.1756 -0.0205  0.0702
 6247W        W 9991   5.946   6.539   2.403 -0.2861  0.0753 -0.0107
 6248W        W 9992   7.619   7.174   1.843  0.4322 -0.0194  0.0193
 6249W        W 9993   8.907   5.657  10.110  0.0043 -0.1548 -0.0084
 6250W        W 9994   3.653   0.061   3.989  0.2627 -0.2022 -0.1070
 6251W        W 9995   1.486   4.999   0.119  0.1058  0.0750 -0.2987
 6252W        W 9996   6.945   0.620   9.326  0.2260  0.0030 -0.0717
 6253W        W 9997   1.970   6.665  12.194  0.0813 -0.0518 -0.0855
 6254W        W 9998   6.383   6.207   3.614 -0.4827  0.1026  0.1929
 6255W        W 9999   3.823   4.169   1.983 -0.0459 -0.1976 -0.0150
 6256W        W10000   0.627   9.962   0.506 -0.1737 -0.1034 -0.0481
 6257W        W10001   6.571   3.131   4.307 -0.2607  0.4347 -0.3071
 6258W        W10002   9.786   7.668  10.705 -0.2629  0.1280  0.2964
 6259W        W10003   4.535   6.191  10.980  0.2948  0.1123  0.1464
 6260W        W10004   8.500   4.518  12.013  0.0768 -0.0788 -0.0073
 6261W        W10005   2.511   8.053   1.872  0.2335  0.1978 -0.1536
 6262W        W10006   7.555   3.698  11.596 -0.1027  0.0406 -0.0716
 6263W        W10007   3.995   6.910  11.636 -0.3476  0.1275  0.1862
 6264W        W10008   7.479   0.371   8.191  0.0616  0.0315  0.0409
 6265W        W10009   1.494   4.196   1.176 -0.0567  0.1523  0.0147
 6266W        W10010   6.198   4.437   2.768  0.3162 -0.1054  0.0338
 6267W        W10011   4.043   4.340   2.735 -0.0070  0.2006 -0.4019
 6268W        W10012   4.741   4.766  11.274 -0.2201 -0.0131  0.1440
 6269W        W10013   7.139   5.132   9.797  0.0074 -0.1795  0.1411
 6270W        W10014   4.517   0.772  11.359  0.0967 -0.2515 -0.2142
 6271W        W10015   7.000   5.378   0.991  0.1402  0.3337  0.1057
 6272W        W10016   6.188   5.668   2.210  0.0242  0.0764 -0.2463
 6273W        W10017   5.356   0.672  10.196 -0.1698  0.2136 -0.0203
 6274W        W10018   3.719   4.888  11.132  0.0266 -0.0673  0.0886
 6275W        W10019   5.091   3.247   8.649  0.1469  0.0141  0.0226
 6276W        W10020   5.282   9.606   8.543 -0.2780 -0.1626 -0.2950
 6277W        W10021   0.529   9.765   4.672  0.0314  0.2363  0.1418
 6278W        W10022   6.352   6.786   0.813  0.1366  0.0123  0.2131
 6279W        W10023   2.120   2.643  12.269 -0.0319 -0.0030 -0.0191
 6280W        W10024   4.453   6.145   5.392 -0.4277 -0.3698  0.0124
 6281W        W10025   5.171   5.440  11.381 -0.1190 -0.4099  0.2727
 6282W        W10026   9.693   1.961  10.638  0.0667 -0.2103  0.0130
 6283W        W10027   8.593   9.596  11.836 -0.2313 -0.0924 -0.2919
 6284W        W10028   0.284   1.227   0.624 -0.2961  0.2873 -0.2698
 6285W        W10029   1.802   0.600   0.175 -0.2590 -0.0654 -0.4563
 6286W        W10030   0.377   0.538  10.050 -0.0088 -0.1545 -0.0094
 6287W        W10031   2.042   6.122   0.541  0.0347  0.0181 -0.0279
 6288W        W10032   1.722   7.974   0.944  0.3317 -0.2120  0.0838
 6289W        W10033   9.937   4.496  11.392 -0.0203 -0.2532  0.0807
 6290W        W10034   7.688   6.074  10.557  0.0423 -0.1132  0.2270
 6291W        W10035   8.808   7.448   0.562 -0.0861 -0.0897 -0.0490
 6292W        W10036   3.736   8.387   1.126  0.1069 -0.0618  0.0415
 6293W        W10037   1.282   7.603   0.544  0.1873 -0.0984  0.0620
 6294W        W10038   7.375   9.174   4.876 -0.0500  0.1545 -0.1148
 6295W        W10039   7.626   4.714  11.817  0.1117 -0.0723  0.1194
 6296W        W10040   0.287   5.986   0.229  0.2772 -0.1098 -0.1675
 6297W        W10041   5.218   4.993   1.079  0.0890  0.0527 -0.0196
 6298W        W10042   3.886   8.359   4.459 -0.1520 -0.3533  0.3240
 6299W        W10043   7.869   8.737  10.686  0.0106 -0.0754  0.0387
 6300W        W10044   7.993   3.906   0.861  0.0616  0.0439 -0.1183
 6301W        W10045   5.115   5.605   8.842  0.4225  0.1796 -0.0568
 6302W        W10046   9.021   2.997   2.576 -0.0509 -0.1530  0.0827
 6303W        W10047   9.085   4.099  10.220 -0.1707  0.1943  0.1672
 6304W        W10048   6.421   6.875   2.143 -0.1012 -0.2611 -0.2432
 6305W        W10049   2.767   5.963  10.841 -0.0067  0.0449  0.4956
 6306W        W10050   7.184   8.649   3.463 -0.2090  0.2573 -0.1718
 6307W        W10051   5.862   8.007   1.213 -0.0859  0.1838 -0.3085
 6308W        W10052   8.714   1.884   2.007 -0.0358 -0.0089 -0.1042
 6309W        W10053   2.433   0.233   4.538  0.0350  0.1534 -0.0485
 6310W        W10054   3.212   7.357  11.188  0.3059  0.1142  0.1117
 6311W        W10055   2.192   2.010  10.067  0.0306 -0.1638  0.2428
 6312W        W10056   4.844   5.842  12.287 -0.3054  0.1540  0.2713
 6313W        W10057   6.737   2.524   9.203  0.1186  0.1605 -0.1282
 6314W        W10058   0.829   2.234   2.700 -0.2426  0.1972  0.1276
 6315W        W10059   4.511   3.807   2.150 -0.0220  0.1632 -0.1380
 6316W        W10060   0.910   1.453  11.591  0.1709 -0.0668  0.0151
 6317W        W10061   5.125   9.553   1.194  0.0854 -0.0642 -0.0120
 6318W        W10062   7.988   3.529  10.554  0.1356 -0.3952 -0.0242
 6319W        W10063   2.549   3.240   1.130  0.3500  0.0493 -0.0853
 6320W        W10064   4.479   1.264   4.444 -0.1569 -0.0769  0.0339
 6321W        W10065   4.352  10.086   2.876 -0.0894  0.1595 -0.1890
 6322W        W10066   5.739   9.959  10.042 -0.1573  0.2336 -0.1440
 6323W        W10067   0.159   0.988   9.983 -0.1544  0.0153 -0.0506
 6324W        W10068   8.581   9.684  12.312 -0.0098  0.1264  0.1207
 6325W        W10069   0.204   6.819   9.304 -0.1203 -0.2991 -0.2302
 6326W        W10070   3.203   0.284   3.852 -0.1031  0.2473  0.2096
 6327W        W10071   0.260   2.798   2.651  0.0510  0.1974  0.2006
 6328W        W10072   5.948   8.364   9.057 -0.1410  0.2456 -0.1415
 6329W        W10073   9.359   6.760   2.088 -0.0090 -0.1847 -0.3221
 6330W        W10074   4.840   8.090   3.848  0.0771 -0.1699 -0.4474
 6331W        W10075   4.511   1.829  11.427 -0.1010  0.1106  0.1591
 6332W        W10076   1.215   5.325  11.588 -0.1458  0.3194 -0.2938
 6333W        W10077   2.844   5.677  12.218 -0.3252 -0.2798 -0.1246
 6334W        W10078   4.517   7.503   9.557 -0.0237 -0.1030  0.0571
 6335W        W10079   0.518   2.312   1.813  0.3356  0.2505 -0.1629
 6336W        W10080   1.189   7.298  11.981 -0.0977  0.1142  0.1529
 6337W        W10081   2.533   6.648  10.138 -0.1837  0.2438  0.0648
 6338W        W10082   7.412   6.339   2.675 -0.0118 -0.2516  0.1006
 6339W        W10083   7.366   8.399   0.953 -0.0822  0.0752  0.1511
 6340W        W10084   4.377   9.526  10.444  0.0502 -0.1739 -0.0571
 6341W        W10085   2.571   8.619   8.499  0.1279 -0.0426  0.2876
 6342W        W10086   0.407   4.833   2.869  0.1406 -0.2244 -0.2551
 6343W        W10087   8.343   4.964   9.650  0.1133 -0.4003 -0.3990
 6344W        W10088   3.363   6.274   9.223 -0.0120  0.0254 -0.0430
 6345W        W10089   7.998   6.310   9.536 -0.1083  0.2455 -0.4271
 6346W        W10090   9.533   3.159   0.881 -0.0487  0.1568  0.1188
 6347W        W10091   3.890   3.626   1.718  0.0627 -0.0385  0.2006
 6348W        W10092   8.197   0.286   9.678 -0.2898 -0.0701  0.0524
 6349W        W10093   0.893   6.453   2.731 -0.2680 -0.0692 -0.0316
 6350W        W10094   0.685   3.979   1.110 -0.0788 -0.1146 -0.3112
 6351W        W10095   1.131   5.313   2.603  0.0907  0.1145  0.1021
 6352W        W10096   8.504   1.629   9.521 -0.3310  0.2011  0.2599
 6353W        W10097   1.153   1.181   1.784 -0.1450 -0.3151  0.2594
 6354W        W10098   7.825   8.402  11.070  0.0938  0.2054 -0.0241
 6355W        W10099   8.929   3.697  11.824 -0.1466  0.0199 -0.2016
 6356W        W10100   7.946   2.957  12.184  0.0398 -0.0731  0.0871
 6357W        W10101   1.855   3.894  10.332 -0.1806  0.2078 -0.2243
 6358W        W10102   9.587   5.024   8.805 -0.0546  0.0625  0.3017
 6359W        W10103   6.314   8.462   9.602 -0.2241 -0.1375  0.0446
 6360W        W10104   0.968   5.384  10.709 -0.1430  0.1449 -0.2343
 6361W        W10105   8.798   0.038   4.782 -0.0672  0.1522 -0.1836
 6362W        W10106   0.666  10.000   4.235 -0.0102 -0.2189  0.1231
 6363W        W10107   9.857   5.336   0.250 -0.2191 -0.0749  0.0569
 6364W        W10108   9.157   0.561  10.635 -0.0283  0.1282 -0.2431
 6365W        W10109   0.707   3.721  10.666 -0.2338 -0.0299  0.0604
 6366W        W10110   2.331   8.489   3.878  0.0632 -0.2188  0.0153
 6367W        W10111   3.963   9.225   1.129 -0.0665  0.1187 -0.1014
 6368W        W10112   4.242   3.582  10.098  0.2187 -0.2002 -0.0983
 6369W        W10113   0.309   3.332   2.559  0.0979 -0.0095  0.1342
 6370W        W10114   9.979   2.868  11.516 -0.1404  0.1287  0.3921
 6371W        W10115   0.138   6.020  11.658  0.2430  0.0115 -0.1752
 6372W        W10116   1.142   1.245  12.101  0.1587  0.0573  0.2300
 6373W        W10117   0.522   4.112   2.194  0.0583  0.1116  0.2070
 6374W        W10118   1.500   7.059   3.565 -0.0369  0.0253 -0.0128
 6375W        W10119   5.386   7.079   1.275  0.0690 -0.0039 -0.1078
 6376W        W10120   6.140   0.749   2.093  0.0440  0.1735 -0.1708
 6377W        W10121   2.927   3.259  12.046  0.0634 -0.4490  0.2725
 6378W        W10122   2.019   0.542   1.124  0.1643  0.0282  0.0252
 6379W        W10123   6.884   0.634   1.039 -0.0806 -0.2558  0.1705
 6380W        W10124   9.020   9.208   4.146  0.0904  0.3654  0.4609
 6381W        W10125   7.547   9.290   1.650 -0.0165 -0.1365  0.3127
 6382W        W10126   2.816   9.385   4.755 -0.0113  0.3538 -0.0159
 6383W        W10127   2.804   8.957   5.029  0.0127  0.1441 -0.1091
 6384W        W10128   5.082   0.179   1.515 -0.2668 -0.1427  0.0984
 6385W        W10129   6.773   9.087  12.200  0.1043 -0.0888 -0.1505
 6386W        W10130   9.470   8.007   0.424 -0.1272  0.0294 -0.0330
 6387W        W10131   1.679   9.396   2.217  0.0728 -0.3373  0.3319
 6388W        W10132   2.652   7.444  11.438 -0.1375  0.0516 -0.3301
 6389W        W10133   4.646   3.100   9.569 -0.0840  0.3829  0.2312
 6390W        W10134   3.487   8.478   8.403 -0.2812 -0.0895 -0.2466
 6391W        W10135   8.159   5.886   9.697  0.0784  0.1315 -0.1207
 6392W        W10136   5.892   3.295  11.031 -0.1859 -0.1800  0.1794
 6393W        W10137   5.573   8.252   9.474  0.0991  0.0291  0.3193
 6394W        W10138   7.917   5.628   4.413  0.3431 -0.1316  0.1946
 6395W        W10139   0.917   7.702   3.760  0.1206  0.0072 -0.2430
 6396W        W10140   1.020   2.105   1.338  0.1331  0.1456  0.4009
 6397W        W10141   1.905   9.581   0.741  0.0148 -0.1991 -0.0091
 6398W        W10142   7.463   0.591   9.296  0.0823 -0.2975 -0.1022
 6399W        W10143   1.383   7.144  11.469 -0.1551 -0.0385 -0.0376
 6400W        W10144   7.150   1.061   0.863  0.1033  0.0523 -0.0185
 6401W        W10145   7.605   2.131  11.243 -0.4851  0.1194 -0.0541
 6402W        W10146   8.856   4.543  10.501 -0.1769  0.0421 -0.0219
 6403W        W10147   8.466   1.892   8.656 -0.0620  0.2194  0.0410
 6404W        W10148   0.349   6.945   4.418 -0.1082 -0.0157  0.2754
 6405W        W10149   7.646   1.077   9.246  0.0590  0.1018 -0.2516
 6406W        W10150   2.238   3.607   9.972 -0.1398 -0.0512  0.0974
 6407W        W10151   5.781   5.524   3.488 -0.2488 -0.3724  0.2158
 6408W        W10152   5.003   7.842  10.720 -0.1498 -0.1008 -0.1818
 6409W        W10153   4.960   4.385   4.981 -0.0795 -0.0237 -0.3096
 6410W        W10154   7.524   6.836   9.319  0.0443 -0.0871  0.1545
 6411W        W10155   6.622   5.997   4.613  0.1088 -0.1758  0.1910
 6412W        W10156   2.949   7.474   9.900 -0.2270 -0.2543 -0.0431
 6413W        W10157   6.783   1.813  10.021  0.1867  0.1783  0.0470
 6414W        W10158   3.355   6.415  11.274  0.0853  0.0755 -0.0879
 6415W        W10159   4.971   8.297   9.427  0.1411 -0.0853 -0.1588
 6416W        W10160   7.148   9.277  10.089 -0.2611 -0.2052 -0.3476
 6417W        W10161   4.636   0.261   2.331 -0.0035  0.1445  0.3110
 6418W        W10162   5.761   5.014   8.094 -0.1695  0.1728  0.0316
 6419W        W10163   3.822   1.180   9.458 -0.1156  0.2345  0.2493
 6420W        W10164   5.385   9.905  10.533 -0.1605  0.0833 -0.0272
 6421W        W10165   4.792   1.601   9.585 -0.1129  0.1730  0.1461
 6422W        W10166   3.962   9.054   3.089 -0.1773  0.1354 -0.0858
 6423W        W10167   8.757   2.291   8.692 -0.0289  0.1284 -0.0168
 6424W        W10168   4.951   3.525   2.048 -0.0851 -0.2706 -0.2429
 6425W        W10169   0.603   2.778   1.671  0.1093 -0.1571 -0.1630
 6426W        W10170   8.614   3.985   0.249 -0.1497  0.0799 -0.0352
 6427W        W10171   5.545   4.619   3.532  0.1180  0.2373  0.0084
 6428W        W10172   8.539   9.975   9.082  0.0742 -0.4642  0.1560
 6429W        W10173   6.861   8.610  10.470  0.1577 -0.2141  0.0524
 6430W        W10174   0.272   7.339   8.563  0.1827 -0.0589 -0.1000
 6431W        W10175   4.863   7.765   0.842 -0.0622 -0.0252 -0.1098
 6432W        W10176   1.262  10.042   2.284 -0.2579  0.4356 -0.0220
 6433W        W10177   0.318   8.169   3.680  0.2644  0.1120  0.0805
 6434W        W10178   5.188   5.656   1.416 -0.1017 -0.0183  0.0079
 6435W        W10179   5.603   4.151   3.971  0.1399 -0.5453  0.0169
 6436W        W10180   6.493   6.717   9.266 -0.0220 -0.2339  0.0429
 6437W        W10181   5.518   8.646   8.622 -0.0575  0.1639 -0.1007
 6438W        W10182   1.527   7.597  11.618  0.3024  0.1893 -0.1589
 6439W        W10183   7.459   4.818   1.585 -0.2261 -0.1022 -0.0299
 6440W        W10184   9.311   9.631   5.347 -0.1026  0.2563  0.0684
 6441W        W10185   0.343   3.123   0.823 -0.3096 -0.1968 -0.1745
 6442W        W10186   5.851   1.989   0.396  0.3057 -0.0745  0.0494
 6443W        W10187   5.409   6.176  10.073  0.0387  0.1516  0.0271
 6444W        W10188   7.207   1.917   4.200  0.0168  0.1694 -0.1090
 6445W        W10189   2.912  10.009   3.617 -0.1813  0.2961  0.0284
 6446W        W10190   5.590   7.366  10.357  0.2157  0.1429 -0.0342
 6447W        W10191   3.421   3.995  10.003 -0.0861  0.1182  0.0415
 6448W        W10192   5.809   2.407  11.269  0.2410  0.1393  0.0535
 6449W        W10193   3.727   2.264   1.774 -0.1959  0.0457 -0.1160
 6450W        W10194   6.963   4.023   0.730  0.1169  0.0643  0.1964
 6451W        W10195   0.260   3.693   0.911 -0.0039 -0.1300  0.0088
 6452W        W10196   1.216   9.268  11.607  0.3699 -0.0116  0.2045
 6453W        W10197   8.157   2.011  12.097  0.0547 -0.1494  0.1872
 6454W        W10198   2.873   0.271   8.605  0.2523 -0.2015  0.0984
 6455W        W10199   7.470   8.058  11.041  0.1040 -0.1538 -0.1416
 6456W        W10200   4.768   4.207   8.515 -0.0839 -0.2142 -0.0604
 6457W        W10201   9.361   4.176   9.790  0.1700 -0.0820 -0.3870
 6458W        W10202   4.347   0.638   2.042  0.0188  0.1110  0.0294
 6459W        W10203   8.307   1.808   4.076  0.1535  0.4470  0.1061
 6460W        W10204   3.924   0.709  12.159 -0.1129  0.0301  0.1729
 6461W        W10205   0.062   6.439   1.128  0.1372 -0.2015  0.0313
 6462W        W10206   0.168   4.289   2.622  0.2601 -0.0081 -0.2800
 6463W        W10207   0.842   4.524   2.339 -0.0586  0.0361 -0.2156
 6464W        W10208   4.872   3.469  11.206 -0.0785  0.0032 -0.2096
 6465W        W10209   5.187   5.778   3.762  0.1246  0.0764  0.0564
 6466W        W10210   3.208   4.323   2.459 -0.1702 -0.0837  0.1603
 6467W        W10211   8.624   1.301   2.397 -0.0301  0.1309  0.0164
 6468W        W10212   4.458   7.832   2.123  0.1002  0.1279 -0.0526
 6469W        W10213  10.069   6.637   2.502 -0.0807 -0.0640  0.0219
 6470W        W10214   4.698   3.609   9.683 -0.0123  0.2337  0.0772
 6471W        W10215   8.740   7.657   8.232  0.3648 -0.0589 -0.3751
 6472W        W10216   0.969   6.910  11.657  0.0848 -0.2197 -0.1540
 6473W        W10217   4.897   9.410   3.865  0.1036 -0.1950  0.1762
 6474W        W10218   3.740   0.449   8.586  0.4503 -0.0432 -0.0572
 6475W        W10219   0.884   8.566   0.210 -0.0248 -0.0909 -0.0477
 6476W        W10220   7.116   3.574   0.996 -0.0906 -0.1228 -0.1367
 6477W        W10221   9.736   3.570   0.669 -0.1782 -0.2750  0.1525
 6478W        W10222   2.365   8.891   2.608  0.3113 -0.1775 -0.1473
 6479W        W10223   7.181   6.231   2.034 -0.1700  0.0477 -0.0753
 6480W        W10224   7.571   5.533   8.330  0.0891 -0.1386  0.2204
 6481W        W10225   4.028   0.634  10.006  0.1959  0.0665  0.4163
 6482W        W10226   2.096   2.018   0.383 -0.1886 -0.1340  0.2507
 6483W        W10227   9.993  10.039  11.851 -0.0855  0.0275  0.2685
 6484W        W10228   7.178   4.740   3.622 -0.1540  0.1377 -0.0135
 6485W        W10229   2.758   2.111   3.361 -0.0037  0.0709  0.0353
 6486W        W10230   6.491   9.169   0.313 -0.0467 -0.5274  0.1355
 6487W        W10231   7.774   8.918   0.994  0.3713 -0.0039 -0.0621
 6488W        W10232   5.031   1.706   2.189 -0.0295 -0.0268  0.0470
 6489W        W10233   0.065   3.286   3.000  0.0004 -0.2057 -0.0606
 6490W        W10234   4.774   6.508   5.397 -0.4404 -0.2332 -0.1748
 6491W        W10235   2.546   1.574   3.606 -0.1448  0.1137  0.1434
 6492W        W10236   6.115   2.726   1.838 -0.1580 -0.1282  0.1516
 6493W        W10237   8.068   5.863   2.012 -0.1797  0.2297 -0.1215
 6494W        W10238   4.921   7.052   1.461  0.0246 -0.0012  0.1263
 6495W        W10239   9.528   1.593  11.774  0.1688 -0.2432 -0.0433
 6496W        W10240   0.272   0.792  11.309 -0.1115  0.0581  0.1480
 6497W        W10241   8.357   8.912   5.204 -0.0531  0.0876 -0.0680
 6498W        W10242   7.906   6.527   4.285  0.1402  0.2986 -0.1224
 6499W        W10243   2.073   2.756   8.295  0.0182 -0.1857 -0.3167
 6500W        W10244   5.707   6.176  12.353  0.0370  0.0782 -0.0547
 6501W        W10245   1.515   2.007   8.860  0.3574  0.2892 -0.0736
 6502W        W10246   1.371   0.309   0.255  0.2511  0.0493 -0.0736
 6503W        W10247   8.609   3.793  10.158 -0.0962  0.3921 -0.0072
 6504W        W10248   3.789   0.094   4.937  0.0000 -0.0982  0.0487
 6505W        W10249   5.937   4.933   9.805 -0.2936  0.1911  0.0251
 6506W        W10250   2.971   7.311   4.244 -0.1333  0.0370 -0.2426
 6507W        W10251   9.864   1.236   9.154 -0.1179  0.0211  0.7325
 6508W        W10252   1.931   3.152  10.851  0.0105 -0.0430 -0.0990
 6509W        W10253   0.530   4.087  11.930 -0.0567  0.0371  0.0889
 6510W        W10254   0.379   0.543   0.044  0.0740 -0.0025 -0.2037
 6511W        W10255   5.952   6.118  11.481  0.1717 -0.3688 -0.4073
 6512W        W10256   5.560   7.367   2.738 -0.3877 -0.1111 -0.0612
 6513W        W10257   6.747   5.873  10.318 -0.3083  0.0379 -0.2183
 6514W        W10258   0.689   0.243   1.647  0.1057 -0.3457  0.0519
 6515W        W10259   5.473   3.560   1.848 -0.1712  0.1522  0.0147
 6516W        W10260   5.777   8.195   8.656  0.2040  0.0947  0.2013
 6517W        W10261   2.907   1.070  11.078  0.0418  0.4615 -0.2861
 6518W        W10262   9.999   7.268   4.640  0.0075  0.2638 -0.0230
 6519W        W10263   3.687   7.358   3.609  0.0467 -0.0489 -0.1397
 6520W        W10264   4.681   9.214   9.574  0.0694 -0.1166  0.3078
 6521W        W10265   0.985   6.386   0.883  0.1246  0.0869 -0.0973
 6522W        W10266   9.216   3.396   4.062 -0.1719  0.3711 -0.0325
 6523W        W10267   6.776   6.251   9.143 -0.2639  0.0028 -0.3050
 6524W        W10268   4.524   3.445   3.430  0.2071  0.1935 -0.2798
 6525W        W10269   1.362   9.363   3.305 -0.3557  0.1378 -0.0404
 6526W        W10270   9.810   6.456  11.498 -0.0258 -0.1495 -0.0954
 6527W        W10271   4.955   9.552   3.369 -0.2700  0.4585  0.2165
 6528W        W10272   4.037   0.929  11.236  0.1996 -0.0080 -0.3618
 6529W        W10273   7.569   4.246  12.233 -0.3289  0.1427 -0.2094
 6530W        W10274   2.653   9.056   1.386  0.1998  0.0445  0.2251
 6531W        W10275   5.944   0.792   0.927 -0.0457  0.1342 -0.0517
 6532W        W10276   0.353   9.953   9.184 -0.0689  0.2085  0.0629
 6533W        W10277   9.735   9.397   9.717  0.0208  0.0937 -0.1350
 6534W        W10278   8.459   8.277   1.222  0.0726 -0.3461 -0.0295
 6535W        W10279   3.835   8.540   1.576 -0.2235 -0.0922 -0.1173
 6536W        W10280   7.838   5.323  10.667 -0.1811  0.2612 -0.0647
 6537W        W10281   8.727   6.729   1.136 -0.1116 -0.3699  0.1811
 6538W        W10282   5.557   2.523   8.881  0.1748  0.3518 -0.2505
 6539W        W10283   7.585   0.808   4.380 -0.0375  0.1349  0.2681
 6540W        W10284   8.786   2.639  11.488  0.0765 -0.1551 -0.0203
 6541W        W10285  10.075   8.448  11.275  0.2346  0.0045 -0.1957
 6542W        W10286   5.280   3.700   2.993  0.4257  0.0329  0.1286
 6543W        W10287   5.625   9.565  10.839  0.1014  0.2851 -0.1280
 6544W        W10288   5.900   8.973   8.891  0.0036  0.2531 -0.1004
 6545W        W10289   5.510   4.526   4.957  0.1430 -0.3494 -0.0281
 6546W        W10290   9.690   5.127   0.742  0.0496  0.0868 -0.3668
 6547W        W10291   4.930   2.750   2.806  0.3218 -0.0577  0.1613
 6548W        W10292   3.523   8.326  10.973  0.0523 -0.1239  0.1088
 6549W        W10293   0.132   0.230  12.092  0.0457  0.0988  0.0328
 6550W        W10294   8.835   5.372   1.883  0.2035  0.0415 -0.1506
 6551W        W10295   2.222   8.889   1.197  0.0692 -0.0622 -0.0871
 6552W        W10296   5.896   1.791   2.936 -0.0450 -0.2940  0.3272
 6553W        W10297   0.144   7.993   0.224 -0.3053  0.3837  0.1008
 6554W        W10298   8.239   8.094  11.261  0.0407 -0.2941  0.3931
 6555W        W10299   8.383   1.867   8.111 -0.0498  0.0803 -0.0890
 6556W        W10300   0.775   8.354   4.357 -0.0759  0.0378  0.0772
 6557W        W10301   4.894   9.652   2.739  0.1846 -0.0212 -0.0719
 6558W        W10302   5.812   2.087   4.003  0.2215 -0.1521 -0.0831
 6559W        W10303   8.561   7.068  11.599 -0.2917  0.1085  0.5338
 6560W        W10304   4.957   1.697  10.448 -0.0690  0.0118 -0.1780
 6561W        W10305   4.510   8.304   2.097  0.0165  0.1973  0.0112
 6562W        W10306   0.424   5.357   3.005  0.0171 -0.1882  0.0011
 6563W        W10307   4.821   1.057  11.833  0.7963  0.0689 -0.2041
 6564W        W10308   8.280   5.064   3.801 -0.1842 -0.1645  0.1242
 6565W        W10309   7.143   5.988  12.081 -0.1405 -0.0721  0.1570
 6566W        W10310   7.272   6.624  10.364 -0.0978  0.0377  0.1270
 6567W        W10311   9.949   2.690   8.659 -0.0699  0.3016  0.0139
 6568W        W10312   2.308   8.479  11.624 -0.3120  0.1552 -0.3167
 6569W        W10313   7.625   2.654  10.928 -0.1576  0.2888  0.2301
 6570W        W10314   6.448   7.454   8.709 -0.2260 -0.0947  0.2633
 6571W        W10315   7.181   9.319   8.563 -0.1345  0.0759  0.3329
 6572W        W10316   4.073   1.395  10.439 -0.3299 -0.0199 -0.0605
 6573W        W10317   0.534   1.140   1.434  0.0669  0.0147 -0.0700
 6574W        W10318   0.838   0.735   8.498 -0.0206 -0.0549 -0.0147
 6575W        W10319   6.418   4.546   9.524  0.2908  0.0868 -0.0823
 6576W        W10320   6.578   6.021  11.427  0.2272  0.1669  0.5393
 6577W        W10321   7.696   9.601   0.740  0.1411  0.2369 -0.1128
 6578W        W10322   1.727   4.992   8.085  0.0592 -0.3026  0.1235
 6579W        W10323   0.325   4.857  11.968 -0.0898 -0.4479 -0.1714
 6580W        W10324   5.063   8.413   1.871 -0.2979  0.2742 -0.1406
 6581W        W10325   4.172   8.479   3.167 -0.0307 -0.3627  0.1540
 6582W        W10326   6.380   4.591   0.463  0.4522  0.4298 -0.1668
 6583W        W10327   3.056   0.266   3.316 -0.2515  0.1424  0.0520
 6584W        W10328   8.202   0.046   3.125  0.5199 -0.1469 -0.0136
 6585W        W10329   6.893   7.069   8.498 -0.3193  0.0106 -0.0360
 6586W        W10330   4.347   5.938   1.362  0.2784  0.2193 -0.0118
 6587W        W10331   5.462   3.443   3.473 -0.2907 -0.0387  0.2051
 6588W        W10332   7.781   5.244  11.769 -0.2401  0.0438 -0.1240
 6589W        W10333   2.074   7.612   1.057  0.0538  0.1930  0.0008
 6590W        W10334   6.272   6.142  12.354 -0.0007 -0.1867  0.0779
 6591W        W10335   2.281   0.340   4.041 -0.0418 -0.2564  0.0778
 6592W        W10336   5.108   8.620  11.575 -0.1018 -0.0024 -0.3907
 6593W        W10337   8.550   0.532  11.327 -0.0085 -0.1329 -0.0808
 6594W        W10338   7.116   1.484  10.505  0.2168 -0.2879 -0.3140
 6595W        W10339   3.792   4.166   0.212  0.4414  0.0226  0.1466
 6596W        W10340   7.533   8.204   2.753  0.0875  0.3195  0.2186
 6597W        W10341   4.397   1.223   0.353  0.1413  0.0687 -0.1209
 6598W        W10342   4.913   1.414   4.119  0.1425  0.1220  0.3512
 6599W        W10343   8.319   4.048  10.905 -0.2840 -0.1649 -0.1882
 6600W        W10344   3.391   0.800   2.491  0.2682  0.1243 -0.0019
 6601W        W10345   2.475   1.509   4.513 -0.3506  0.0446  0.0814
 6602W        W10346   6.512   6.603  12.247  0.2561  0.2255  0.0472
 6603W        W10347   4.132   0.714   0.696  0.2220  0.2293 -0.2539
 6604W        W10348   7.100   5.043   0.610  0.1454  0.0336  0.0078
 6605W        W10349   2.485   2.085   2.875 -0.1221 -0.2261 -0.2945
 6606W        W10350  10.112   6.288   1.591 -0.1084  0.2676 -0.1869
 6607W        W10351   4.341   8.004   1.659  0.1371 -0.2035  0.0113
 6608W        W10352   6.431   5.877   3.000  0.0422 -0.1354 -0.0039
 6609W        W10353   6.809   6.995   3.816 -0.0584 -0.0205  0.0899
 6610W        W10354   3.152   7.635  12.257  0.0306  0.0996 -0.1662
 6611W        W10355   8.371   6.519   1.489 -0.0665 -0.0496  0.5549
 6612W        W10356   0.590   3.847   3.088 -0.0207  0.0006  0.2397
 6613W        W10357   4.826   8.305   9.938 -0.1802  0.2304  0.2512
 6614W        W10358   3.143   8.135   2.417  0.2906  0.0145 -0.0885
 6615W        W10359   9.514   7.778   9.080 -0.1447  0.1182  0.2479
 6616W        W10360   1.666   1.012   3.804  0.2354  0.3583  0.1010
 6617W        W10361   3.693   0.925   0.848  0.1943 -0.1842  0.0123
 6618W        W10362   6.284   8.784   9.960 -0.0917  0.1604 -0.1273
 6619W        W10363   4.252   7.948   3.294 -0.0621  0.2845 -0.1528
 6620W        W10364   0.597   3.149   9.384 -0.0838  0.3983 -0.0039
 6621W        W10365   7.638   8.952  11.109  0.1844  0.1517 -0.0521
 6622W        W10366   2.955   3.759   9.351 -0.0173  0.1589  0.0555
 6623W        W10367   8.180   2.248   1.673  0.0255  0.0820 -0.0606
 6624W        W10368   1.029   4.291   0.911 -0.2659  0.0866 -0.2306
 6625W        W10369   5.375   3.448   0.951  0.0469 -0.1995 -0.1877
 6626W        W10370   3.819   2.379   1.083  0.3836  0.0908 -0.0864
 6627W        W10371   1.952   8.571   1.513  0.1210  0.0956 -0.1312
 6628W        W10372   9.440   2.438  12.369 -0.0746  0.0649  0.1321
 6629W        W10373   0.546   8.208   0.614 -0.5583  0.0954 -0.0552
 6630W        W10374   4.932   4.161  10.644  0.1305  0.0189 -0.2247
 6631W        W10375   1.951   6.245   2.630 -0.0647 -0.0293  0.2579
 6632W        W10376   2.414   0.857   1.517  0.3139 -0.2728  0.1309
 6633W        W10377   9.329   9.562  10.679  0.0807 -0.0442 -0.1597
 6634W        W10378   0.922   1.737   2.909 -0.0852  0.1317 -0.0464
 6635W        W10379   3.250   0.947  10.264  0.0002 -0.0428  0.1423
 6636W        W10380   1.609   2.549  10.783 -0.0882 -0.0351  0.1391
 6637W        W10381   3.624   7.881   9.727 -0.0494  0.3516 -0.1872
 6638W        W10382   5.258   3.964   1.069 -0.4034  0.1617  0.1396
 6639W        W10383   1.641   5.600   1.413 -0.0230 -0.0715 -0.2470
 6640W        W10384   7.839   1.707   0.838  0.1695 -0.0271 -0.0543
 6641W        W10385   5.674   1.333   1.708 -0.0488 -0.0801 -0.0635
 6642W        W10386   1.143   3.346   6.927 -0.0595  0.1235  0.0663
 6643W        W10387   8.554   8.848   9.786  0.1422  0.0678 -0.1966
 6644W        W10388   7.521   7.984  11.793 -0.3932  0.1470 -0.0101
 6645W        W10389   7.193   9.109   3.024  0.4413 -0.2778  0.3254
 6646W        W10390   8.815   6.702   2.866  0.0852  0.1032 -0.1554
 6647W        W10391   7.340   7.971   9.882  0.0967  0.0641 -0.2148
 6648W        W10392   8.260   0.009   4.764  0.1705 -0.3057  0.2342
 6649W        W10393   1.212   1.099  11.211  0.1560  0.0843  0.0606
 6650W        W10394   1.541   8.307  11.031 -0.0912 -0.1969  0.4176
 6651W        W10395   8.058   9.986   9.366 -0.2333  0.1613 -0.1330
 6652W        W10396   8.465   3.657  10.638 -0.0673  0.1019  0.5132
 6653W        W10397   3.236   5.368  11.976  0.0439  0.1114  0.4464
 6654W        W10398   1.644   5.248  10.331  0.0802 -0.0618 -0.0189
 6655W        W10399   2.329   3.046   0.169 -0.0090 -0.2815 -0.0406
 6656W        W10400   9.207   0.767   0.356  0.0235 -0.0383  0.2160
 6657W        W10401   1.149   8.913  12.369  0.0804 -0.2725 -0.2692
 6658W        W10402   7.104   7.026   1.049 -0.0669 -0.1198  0.1694
 6659W        W10403   7.646   3.723   9.237  0.1488 -0.2929 -0.0436
 6660W        W10404   5.422   5.672  11.719 -0.1265 -0.0640 -0.0983
 6661W        W10405   2.055   5.886   1.810  0.0352 -0.0660 -0.1208
 6662W        W10406   9.322   9.419   3.378 -0.2462  0.3194 -0.0410
 6663W        W10407   7.869   3.969  11.135  0.0865 -0.2969 -0.0234
 6664W        W10408   4.195   7.542   9.164  0.4289  0.3206  0.2616
 6665W        W10409   7.811   0.578   3.461 -0.1241 -0.0661  0.0989
 6666W        W10410   4.412   7.063   1.425 -0.0401  0.3945  0.2459
 6667W        W10411   5.955   3.533  11.750  0.0163  0.0834  0.0740
 6668W        W10412   4.336   3.389   0.353 -0.4993  0.4056  0.0956
 6669W        W10413   8.302   9.338  11.238 -0.1428 -0.3391 -0.0842
 6670W        W10414   5.093   6.447  10.433 -0.1235  0.0989  0.1742
 6671W        W10415   9.988   5.895   0.441  0.1363  0.2248 -0.1203
 6672W        W10416  10.097   8.412   4.502  0.1931  0.3380 -0.1587
 6673W        W10417   1.536   0.368  12.132  0.4883 -0.3067  0.1036
 6674W        W10418   0.669   7.193   8.912 -0.1587  0.4955 -0.0210
 6675W        W10419   3.868   7.117  12.155 -0.2759  0.1015 -0.3457
 6676W        W10420   2.115   0.901   4.974  0.0678  0.2252 -0.2165
 6677W        W10421   8.736   6.890   3.846 -0.0756 -0.2376  0.1274
 6678W        W10422   0.945   1.171   8.966  0.1370 -0.0418  0.0988
 6679W        W10423   3.056   9.851  11.253 -0.0903 -0.0992 -0.0236
 6680W        W10424   2.475   1.633  10.343  0.1859 -0.1766  0.2254
 6681W        W10425   6.297   5.796   8.926 -0.3406  0.0836  0.0368
 6682W        W10426   7.160   1.024   1.816  0.1648 -0.2185 -0.1552
 6683W        W10427   6.888   8.868   9.954 -0.0677 -0.0946 -0.0463
 6684W        W10428   5.149   8.516   1.379 -0.0792  0.1978 -0.2032
 6685W        W10429   1.845   9.614   1.251 -0.2405  0.2624 -0.2548
 6686W        W10430   6.586   5.823  12.187  0.1596 -0.2492  0.1405
 6687W        W10431   3.807   7.124   1.296 -0.0917 -0.2002  0.1212
 6688W        W10432   1.473   7.936   0.167 -0.0190 -0.1311 -0.2889
 6689W        W10433   8.464   3.040   3.997 -0.0681  0.2274 -0.1875
 6690W        W10434   0.966   2.565   1.311 -0.0215  0.0141 -0.0512
 6691W        W10435   8.553   5.306   2.297 -0.3483 -0.2386 -0.1225
 6692W        W10436   6.135   7.916  11.509 -0.0692  0.2556 -0.1260
 6693W        W10437   2.003   3.828   7.769 -0.0192 -0.0188  0.0447
 6694W        W10438   2.027   5.238   2.068  0.0748 -0.0439  0.4215
 6695W        W10439   1.462   2.540  10.278 -0.1949  0.1939  0.1794
 6696W        W10440   4.459   0.199  10.091 -0.2707  0.0896 -0.1420
 6697W        W10441   8.904   9.709   3.445 -0.0041 -0.0364  0.0767
 6698W        W10442   7.559   9.003   3.283  0.1408  0.2078 -0.1151
 6699W        W10443   9.162   0.600   1.319  0.0322  0.1754  0.3043
 6700W        W10444   8.820  10.099  11.920  0.0453  0.0913  0.1599
 6701W        W10445   6.949   6.019   9.733  0.1384  0.2231 -0.2873
 6702W        W10446   7.660   9.160   9.313 -0.0200 -0.2081  0.1300
 6703W        W10447   1.307   5.535   3.034 -0.0892 -0.0000  0.1702
 6704W        W10448   6.889   0.495   2.731 -0.3419  0.0794 -0.0457
 6705W        W10449   4.683   1.464   0.723  0.0609  0.1209  0.2088
 6706W        W10450  10.066   1.716   2.189  0.2826 -0.1400  0.0609
 6707W        W10451   8.639   8.256   0.780 -0.0524 -0.0711  0.4807
 6708W        W10452   4.409   1.879   1.523 -0.1131 -0.2474 -0.1889
 6709W        W10453   9.217   7.560   3.168  0.1148 -0.1568  0.1926
 6710W        W10454   2.317   8.880   1.685 -0.0526 -0.2522  0.1254
 6711W        W10455   8.588   4.271   2.433 -0.2720 -0.1911 -0.1575
 6712W        W10456   1.026   4.892   9.472 -0.2852  0.0247 -0.1502
 6713W        W10457   4.192   1.660   3.015 -0.1904  0.2337  0.2012
 6714W        W10458   5.520   4.408   4.378  0.2304  0.3075  0.1578
 6715W        W10459   5.911  10.012   4.046  0.0183 -0.0480 -0.1279
 6716W        W10460   8.420   9.959   3.553  0.1656  0.2638 -0.1315
 6717W        W10461   2.465   5.944  11.752 -0.1767  0.1663  0.0146
 6718W        W10462   7.663   4.871  11.035 -0.1040  0.1507  0.0469
 6719W        W10463   2.717   1.073   4.659  0.4328 -0.0199  0.2322
 6720W        W10464   3.936   1.292   4.400  0.3014  0.0082 -0.1515
 6721W        W10465   9.509   2.916   1.333  0.1397  0.1490  0.1207
 6722W        W10466   2.644   7.336  12.334  0.0584  0.0331  0.3658
 6723W        W10467   2.044   8.708  11.249 -0.2986 -0.1591  0.0929
 6724W        W10468   3.990   9.979   4.474  0.0994  0.0553  0.2993
 6725W        W10469   9.379   1.148   1.965 -0.2179 -0.7151 -0.1674
 6726W        W10470   2.126   4.111  12.226  0.3014 -0.2004 -0.1459
 6727W        W10471   6.201   2.826   3.681  0.0838 -0.0254 -0.1324
 6728W        W10472   2.201   6.097   2.209 -0.0862 -0.1844 -0.0137
 6729W        W10473   1.020   1.914  11.420 -0.2493  0.0082  0.3303
 6730W        W10474   7.014   0.186   9.711 -0.0476  0.2006  0.0079
 6731W        W10475   8.065   9.111   1.397  0.1543  0.0765  0.1084
 6732W        W10476   4.617   1.933  11.892  0.2363  0.1066 -0.1474
 6733W        W10477   7.013   3.116   4.130 -0.1485 -0.1229  0.0104
 6734W        W10478   6.118   6.775   2.883 -0.1993 -0.1812  0.0175
 6735W        W10479  10.083   8.659   4.059  0.1097  0.2949  0.2617
 6736W        W10480   7.658   5.088   2.440  0.1556  0.1598  0.3363
 6737W        W10481   2.186   6.771   1.414  0.0149  0.1504 -0.0999
 6738W        W10482   8.135   5.831  11.109 -0.1044  0.2157  0.1511
 6739W        W10483   5.034   2.003  11.535  0.2783 -0.0614  0.3436
 6740W        W10484   3.578   1.971   3.788  0.0177  0.0358 -0.0325
 6741W        W10485   6.169   2.810  10.886  0.2887 -0.0188  0.0642
 6742W        W10486   4.525   4.264   9.244  0.2116 -0.3458 -0.0047
 6743W        W10487   0.170   0.791   9.087 -0.2993 -0.2712 -0.1769
 6744W        W10488   6.203   7.522  11.207 -0.4341 -0.0606 -0.3295
 6745W        W10489   7.191   9.332   9.052 -0.0486 -0.0325 -0.3667
 6746W        W10490   9.000   3.964   9.298  0.0412  0.1423 -0.0852
 6747W        W10491   7.435   9.506  12.301 -0.0863 -0.0152 -0.2335
 6748W        W10492   5.872   6.230   9.876 -0.0466  0.0747  0.0729
 6749W        W10493   0.012   1.529   2.673 -0.2080  0.1210  0.1496
 6750W        W10494   4.222   8.781   3.660  0.4896  0.0150  0.3094
 6751W        W10495   1.618   5.051  10.853 -0.0526  0.1031  0.1804
 6752W        W10496   5.914   5.082  12.259 -0.0570 -0.1769 -0.0468
 6753W        W10497   5.525   7.028   3.549  0.0025 -0.0517  0.0359
 6754W        W10498   3.974   1.764   9.477  0.1256 -0.1482 -0.2895
 6755W        W10499   2.730  10.038   2.302 -0.1081 -0.0191  0.3657
 6756W        W10500   9.720   3.887   3.177 -0.1726  0.3078 -0.1850
 6757W        W10501   5.233   3.333   3.915  0.0550  0.1122 -0.2342
 6758W        W10502   8.777   4.063  12.186 -0.3387  0.1483  0.1123
 6759W        W10503   4.336   7.511   2.598  0.1512  0.4158 -0.2227
 6760W        W10504   4.488   4.882   4.246 -0.1903  0.0120 -0.0122
 6761W        W10505   6.362   1.398   3.627  0.0898 -0.0277 -0.0667
 6762W        W10506   8.890   9.893   9.882 -0.1085  0.0070 -0.0957
 6763W        W10507   7.350   7.816   0.397 -0.0037 -0.1383 -0.0126
 6764W        W10508   9.398   8.087   2.300  0.0207  0.4146  0.2464
 6765W        W10509   9.438   0.698   9.591 -0.1188 -0.0758 -0.0045
 6766W        W10510   0.249   9.654   0.392 -0.1217 -0.1006 -0.5548
 6767W        W10511   8.927   9.820  10.445 -0.1604 -0.2406 -0.3559
 6768W        W10512   3.918   9.642   8.963 -0.0930 -0.3040 -0.0739
 6769W        W10513   0.307   0.182   0.736  0.0508 -0.0430 -0.0103
 6770W        W10514   5.268   3.988   1.635  0.2217  0.1798 -0.0030
 6771W        W10515   2.011   2.295   9.122 -0.2877  0.0061  0.1168
 6772W        W10516   3.107   5.298   9.096 -0.0905  0.0307  0.1098
 6773W        W10517   5.195   9.109  10.969  0.3081 -0.0115  0.1085
 6774W        W10518   7.292   4.022  11.351  0.1861 -0.1928 -0.3107
 6775W        W10519   7.995   1.373  10.230  0.0743  0.1357 -0.0198
 6776W        W10520   6.055   8.592  12.099  0.1421  0.2141 -0.4053
 6777W        W10521   2.729   5.764   4.055  0.0236 -0.1312 -0.2049
 6778W        W10522   9.966   2.509   2.416  0.0152 -0.0702 -0.1001
 6779W        W10523   2.731   4.569   2.800  0.1498  0.3387 -0.0626
 6780W        W10524   8.587   0.290   3.524 -0.5058  0.4702 -0.0982
 6781W        W10525   2.203   1.279   9.984  0.1961  0.0564 -0.2814
 6782W        W10526   6.541   7.766  10.936 -0.3675 -0.1349  0.0532
 6783W        W10527   8.193   3.422  12.086  0.2403  0.0574  0.0370
 6784W        W10528   1.993   5.242   3.000  0.4893  0.1648 -0.0900
 6785W        W10529   1.829   9.936   5.021 -0.1533  0.1042  0.1479
 6786W        W10530   5.078   3.683   8.837  0.0411  0.1544 -0.4871
 6787W        W10531   5.113   1.503   9.963 -0.0169 -0.1755 -0.2444
 6788W        W10532   9.708   8.198  11.607 -0.0247 -0.1596  0.2316
 6789W        W10533   8.183   6.513   3.784  0.1670  0.0460  0.2176
 6790W        W10534   1.348   6.406   2.978  0.0134 -0.0001  0.0195
 6791W        W10535   4.760   0.238   1.081  0.0500  0.0607 -0.0943
 6792W        W10536   2.507   9.792   0.861 -0.0120 -0.2218 -0.0553
 6793W        W10537   5.387   0.957  11.046  0.2878 -0.2354 -0.0342
 6794W        W10538   6.348   8.928   3.660 -0.2455  0.0768  0.1947
 6795W        W10539   8.455   5.761   2.279  0.3567 -0.3707  0.0435
 6796W        W10540   7.482   8.255   0.086 -0.0721 -0.0233  0.1769
 6797W        W10541   9.339   4.429  10.464 -0.1328 -0.1401  0.0742
 6798W        W10542   4.876   3.965   9.349 -0.4038  0.0233  0.0729
 6799W        W10543   6.655   0.900   3.652 -0.3304 -0.0409  0.0224
 6800W        W10544   2.330   7.790   2.705  0.3779 -0.0429  0.2436
 6801W        W10545   1.767   0.219   2.190  0.5088  0.0192  0.1153
 6802W        W10546   6.207  10.107   9.564  0.0065 -0.0338 -0.1398
 6803W        W10547   6.522   5.861   1.192  0.0482  0.0759  0.3507
 6804W        W10548   1.288   0.582   9.965 -0.0878  0.2083 -0.2334
 6805W        W10549   3.649   5.832   1.576 -0.0646  0.1874 -0.0884
 6806W        W10550   5.511   8.339   3.124  0.0866 -0.2953 -0.0141
 6807W        W10551   8.739   4.804   1.683 -0.0419  0.4961  0.4024
 6808W        W10552   9.415   2.077  11.594  0.3357  0.3820 -0.1312
 6809W        W10553   5.094   7.483   2.808 -0.1104 -0.1023  0.1611
 6810W        W10554   0.517   1.034   8.692  0.4535  0.2624  0.1550
 6811W        W10555   2.441   1.847   1.862 -0.1725 -0.1136 -0.3979
 6812W        W10556   1.927   4.704   8.421 -0.0941 -0.5356  0.0744
 6813W        W10557   2.214   5.500   3.358 -0.3773 -0.0737 -0.0084
 6814W        W10558   8.822   7.472   1.504 -0.2503 -0.1779 -0.0621
 6815W        W10559   4.368   4.936  10.983 -0.0320 -0.2115  0.2564
 6816W        W10560   7.522   3.964   8.616  0.4423  0.1178  0.0026
 6817W        W10561   1.604   5.696   9.454 -0.2126  0.2347  0.2049
 6818W        W10562   6.211   1.681   0.921  0.0351 -0.0505  0.0202
 6819W        W10563   5.878   1.106   8.500  0.2048 -0.1396 -0.0235
 6820W        W10564   8.349  10.041  12.015 -0.0897 -0.1128 -0.2458
 6821W        W10565   3.799   0.588  10.787 -0.1955 -0.2359  0.2795
 6822W        W10566   2.142   2.537  10.580 -0.0221 -0.0572  0.2045
 6823W        W10567   1.456   7.772   1.476  0.0687  0.1501  0.2945
 6824W        W10568   3.786   8.660   0.070 -0.0014 -0.1113  0.1443
 6825W        W10569   0.885   2.928  10.886 -0.1038 -0.2218  0.1906
 6826W        W10570   7.400   7.927  10.414  0.0919  0.1026  0.1767
 6827W        W10571   6.487   6.772   8.209  0.2008  0.0035  0.2129
 6828W        W10572   0.860   7.302  10.548  0.1611 -0.0908  0.1053
 6829W        W10573   3.916   2.823  11.247  0.0552 -0.0793  0.0871
 6830W        W10574   4.169   1.542  11.246  0.0291  0.0100 -0.1401
 6831W        W10575   7.267   9.949   2.282 -0.0455  0.1518 -0.0878
 6832W        W10576   2.877   1.509   1.667 -0.3982 -0.3214  0.3149
 6833W        W10577   7.936   5.187   0.956 -0.2533 -0.2693 -0.0021
 6834W        W10578   6.580   5.011   1.109 -0.3123  0.1515 -0.1368
 6835W        W10579   3.580   3.307   0.300  0.1162 -0.1116 -0.2184
 6836W        W10580   9.230   6.742   3.906  0.3948  0.0705 -0.0022
 6837W        W10581   1.135   1.532   4.634  0.0265 -0.0491  0.0064
 6838W        W10582   0.118   2.125   1.096 -0.1130  0.1322  0.0992
 6839W        W10583   7.393   7.689   3.021  0.1491 -0.1486  0.2351
 6840W        W10584   4.581   6.830   1.839 -0.1492  0.1155 -0.1168
 6841W        W10585   0.062   6.306   2.140 -0.1531 -0.0051  0.1114
 6842W        W10586   6.046   2.294   0.808  0.3255 -0.0706 -0.0401
 6843W        W10587   1.489  10.084  10.543  0.2720 -0.1899 -0.3982
 6844W        W10588   0.801   4.919  12.024 -0.0299  0.1088  0.3366
 6845W        W10589   3.216   5.907  11.926  0.0342  0.3088 -0.1226
 6846W        W10590   5.441   4.864  12.036 -0.0116  0.2996  0.3858
 6847W        W10591   2.240   9.066  10.898 -0.0044 -0.2734  0.2391
 6848W        W10592   2.655   8.002   2.386  0.1866  0.1376  0.1989
 6849W        W10593   5.985   4.523   0.898 -0.1471  0.1850  0.1896
 6850W        W10594   9.169   6.211   0.339 -0.0831 -0.1701  0.1153
 6851W        W10595   0.071   9.767  12.291  0.0386 -0.2730  0.1506
 6852W        W10596   6.274   4.586  11.352 -0.1790 -0.4705 -0.1365
 6853W        W10597   0.463   9.263   3.912  0.2253 -0.1031  0.4270
 6854W        W10598   0.121   4.348   0.868 -0.1309  0.1975 -0.1573
 6855W        W10599   6.810   0.594   9.917 -0.0314 -0.3299  0.2770
 6856W        W10600   8.042   8.093   2.955 -0.0864 -0.0342 -0.1910
 6857W        W10601   6.307   6.753   4.893 -0.0868  0.1729 -0.0945
 6858W        W10602   0.270   0.758  10.792 -0.0669 -0.1065 -0.1306
 6859W        W10603   7.481   1.801  10.374 -0.0493 -0.2822  0.2554
 6860W        W10604   6.435   1.609   9.712  0.0288 -0.0228 -0.2982
 6861W        W10605   7.476   9.019   9.738 -0.0803  0.0811 -0.0241
 6862W        W10606   3.051   8.610   4.304  0.0136  0.2025 -0.2736
 6863W        W10607   7.580   8.726  11.566  0.1235  0.0122 -0.1288
 6864W        W10608   2.721   0.463   9.013  0.0192 -0.2112 -0.0343
 6865W        W10609   2.261   8.301   9.301  0.4093 -0.1348 -0.0371
 6866W        W10610   4.928   2.122   0.323  0.1141  0.2982  0.1230
 6867W        W10611   3.878   8.840   9.912  0.2499 -0.1723 -0.1472
 6868W        W10612   6.173   0.902   9.650 -0.2022 -0.0345 -0.3890
 6869W        W10613   3.347   3.015   2.211 -0.1936 -0.1137 -0.0419
 6870W        W10614   5.543   3.628   1.370  0.2695 -0.1598 -0.2117
 6871W        W10615   2.053   4.618  11.975 -0.2938  0.3181  0.3500
 6872W        W10616   7.315   0.526   5.121  0.1726 -0.1526 -0.2758
 6873W        W10617   8.979   6.513  12.233  0.0066  0.1281  0.0410
 6874W        W10618   3.224   3.283   4.053 -0.3203 -0.0129 -0.2512
 6875W        W10619   4.567   9.248   4.536  0.0012  0.0245  0.0237
 6876W        W10620   7.928   8.435   0.938 -0.1007  0.0362  0.0127
 6877W        W10621   4.414   3.030   9.124 -0.0224 -0.4988 -0.4446
 6878W        W10622   2.426   0.345   3.467  0.2094 -0.1856 -0.0498
 6879W        W10623   1.599   8.428  10.476 -0.0178  0.0531  0.0104
 6880W        W10624   3.302   0.176   1.406  0.0892 -0.1064  0.4315
 6881W        W10625   6.998   6.373   4.368  0.0546  0.0532 -0.0281
 6882W        W10626   4.842   9.073   3.513 -0.1641  0.3600 -0.2137
 6883W        W10627   6.052   6.511   9.498 -0.1345  0.0379  0.1116
 6884W        W10628   5.928   2.368   9.696 -0.4499  0.2759  0.0422
 6885W        W10629   8.201   1.206   9.304  0.1935 -0.0981 -0.1050
 6886W        W10630   1.603   7.144  10.899  0.0449 -0.0166  0.0783
 6887W        W10631   9.930   8.042   9.155  0.0311 -0.0320  0.1452
 6888W        W10632   7.931   5.057   0.158 -0.1487  0.2801  0.0723
 6889W        W10633   7.946   1.942   8.825 -0.0305  0.2773  0.0390
 6890W        W10634   7.888   4.834   8.730 -0.2682  0.3210  0.0630
 6891W        W10635   4.774   4.431   3.472 -0.0947 -0.1115  0.1712
 6892W        W10636   3.242   8.950   2.652  0.0816  0.1831 -0.1950
 6893W        W10637   9.666   9.341  11.001  0.0603 -0.0174 -0.2086
 6894W        W10638   8.998   8.293  11.796  0.2127  0.2126  0.0167
 6895W        W10639   5.212   8.238  10.373  0.1899 -0.3189 -0.2992
 6896W        W10640   2.557   9.907  10.962  0.1626  0.1459 -0.0299
 6897W        W10641   2.737   9.468   3.848  0.1670 -0.2623  0.2760
 6898W        W10642   9.676   4.291   0.205 -0.0762 -0.3680  0.2361
 6899W        W10643   5.976   5.944   9.378  0.0215  0.0271  0.1394
 6900W        W10644   9.117   2.135   0.869  0.1715  0.0382 -0.0222
 6901W        W10645   1.382   2.059  10.997 -0.0168  0.1689  0.0597
 6902W        W10646   4.935   6.377   9.533  0.1713  0.0024  0.0195
 6903W        W10647   6.021   3.948   2.544  0.2257  0.3012 -0.0879
 6904W        W10648   4.861   7.916   1.333  0.0287  0.0447 -0.1340
 6905W        W10649   1.505   2.126   0.376  0.0658 -0.2044  0.1282
 6906W        W10650   0.842   3.410   0.131  0.1076 -0.2012 -0.1863
 6907W        W10651   7.296   2.202   0.210 -0.0872 -0.0098  0.1235
 6908W        W10652   9.377   6.812  10.783 -0.1113 -0.0433  0.1733
 6909W        W10653   3.516   6.893   3.572  0.0115  0.1561  0.1180
 6910W        W10654   6.438   0.329   2.811 -0.1079 -0.3968  0.1731
 6911W        W10655   9.595   5.897  11.409  0.1633  0.0162 -0.1685
 6912W        W10656   6.706   9.334   4.310 -0.1478  0.1289 -0.2653
 6913W        W10657   3.368   7.980   1.184  0.1324 -0.0461  0.0049
 6914W        W10658   5.440   5.869   2.718 -0.2382 -0.2783  0.1265
 6915W        W10659   1.426   5.033   2.993  0.3233  0.0426  0.1462
 6916W        W10660   1.122   7.301   3.491  0.3492 -0.0233 -0.3263
 6917W        W10661  10.027   5.911   1.278  0.0111 -0.0389 -0.4317
 6918W        W10662   1.626   6.662   9.813 -0.3519 -0.0307  0.1192
 6919W        W10663   2.602   8.885   4.496  0.2205  0.1516 -0.0242
 6920W        W10664   2.159   3.275   2.194 -0.1229 -0.1224  0.3469
 6921W        W10665   0.149   3.128  11.214 -0.0591  0.0598  0.1798
 6922W        W10666   5.671   5.988   3.773  0.4846 -0.4024 -0.1181
 6923W        W10667   2.950   2.882   9.144  0.1274 -0.1810  0.1812
 6924W        W10668   7.657   7.657   4.575 -0.2369 -0.2792 -0.0145
 6925W        W10669   0.187   1.968   8.882 -0.0336 -0.0937 -0.1191
 6926W        W10670   3.143   2.086  11.599 -0.0578  0.0205  0.1584
 6927W        W10671   3.373   4.139  10.441 -0.1404  0.0683  0.0454
 6928W        W10672   1.606   8.007   2.438  0.1713 -0.2224 -0.0440
 6929W        W10673   8.327   0.781   2.568 -0.2665  0.0123 -0.1266
 6930W        W10674   1.688   0.493   0.642 -0.1800  0.1815 -0.2697
 6931W        W10675   8.297   9.782   0.800 -0.1380  0.1618 -0.1780
 6932W        W10676   7.427   7.482   9.998 -0.1644 -0.1724  0.0342
 6933W        W10677   8.222   5.959   1.493 -0.1571 -0.1475 -0.0355
 6934W        W10678   6.733   9.600   0.502  0.2370  0.0250  0.0773
 6935W        W10679   4.947   9.084   1.243  0.0375  0.0810  0.1289
 6936W        W10680   6.144   9.654   1.907  0.0310  0.0990 -0.1293
 6937W        W10681   6.067   6.466  10.279 -0.2027  0.1138  0.1406
 6938W        W10682   3.902   8.292   9.621 -0.0392 -0.1512 -0.0167
 6939W        W10683   6.620   7.988   8.707  0.0811  0.1885 -0.2689
 6940W        W10684   3.130   6.699   1.461  0.2592  0.7057  0.0048
 6941W        W10685   0.963   7.206   4.030  0.1761  0.2156 -0.2076
 6942W        W10686   1.517   8.535   2.147  0.0446 -0.3355  0.0395
 6943W        W10687   9.565   1.429  10.498 -0.1336  0.2430 -0.1293
 6944W        W10688   9.993   5.103   3.011  0.0286  0.0489 -0.1145
 6945W        W10689   0.959   9.092  10.798  0.4660  0.0904 -0.1782
 6946W        W10690   2.245   1.417  10.838  0.0469 -0.1056  0.0415
 6947W        W10691   2.156   4.493   3.683 -0.0534  0.0856 -0.0453
 6948W        W10692   7.337   1.602   0.976 -0.0881 -0.1581 -0.0113
 6949W        W10693   8.858   1.436   3.419  0.0629 -0.0406 -0.0147
 6950W        W10694   0.491   0.147  11.009  0.0421  0.0511 -0.2387
 6951W        W10695   8.907   7.849   4.524  0.2160 -0.1663 -0.1649
 6952W        W10696   0.645   0.667   9.029 -0.2912  0.0533  0.0565
 6953W        W10697   2.875   7.017   9.662  0.0307  0.0825  0.1280
 6954W        W10698   9.046   2.952  11.139  0.2622  0.2797  0.2678
 6955W        W10699   4.771   0.806   2.245  0.2724 -0.1264 -0.2094
 6956W        W10700   6.264   7.574  11.840 -0.0012 -0.2104 -0.0178
 6957W        W10701   0.898   7.690   1.622  0.0203  0.0953  0.1907
 6958W        W10702   9.471   5.834   1.862  0.0001 -0.0221 -0.0696
 6959W        W10703   8.744   1.551   4.022  0.0859 -0.0538  0.0036
 6960W        W10704   0.464   5.064   1.006 -0.0184 -0.3277  0.0199
 6961W        W10705   6.275   7.135   1.618 -0.2908 -0.2264 -0.1160
 6962W        W10706   8.435   8.166   3.919 -0.0467 -0.0730 -0.2189
 6963W        W10707   9.346   2.314   2.392  0.2800 -0.1878 -0.0702
 6964W        W10708   9.946   2.489  12.358  0.0441  0.1360  0.0043
 6965W        W10709   2.537   0.070  11.380 -0.2851 -0.3293  0.1061
 6966W        W10710   6.361   9.886   3.720  0.0122 -0.0721  0.0996
 6967W        W10711   9.362   7.333  10.978 -0.1112 -0.0765  0.2399
 6968W        W10712   0.077   7.157   8.953 -0.1702  0.0825 -0.2961
 6969W        W10713   2.376   5.614   2.089 -0.1630 -0.0301  0.1241
 6970W        W10714   9.502   5.006   2.889  0.2149  0.2022 -0.4315
 6971W        W10715   2.677   4.461  12.168 -0.0312  0.1148  0.6531
 6972W        W10716   6.434   2.057   4.644  0.1365  0.1788 -0.2164
 6973W        W10717   4.049   9.508   3.414  0.0827 -0.0895 -0.2559
 6974W        W10718   4.485   2.633   3.474 -0.2670 -0.1129 -0.2236
 6975W        W10719   5.044   5.429   1.912  0.1398 -0.0723  0.2497
 6976W        W10720   7.226   6.458   3.701 -0.2978 -0.2533 -0.2463
 6977W        W10721   5.077   7.833   8.600  0.2056 -0.4549  0.0270
 6978W        W10722   6.738   6.248   3.199  0.1140 -0.2623  0.0743
 6979W        W10723   5.139   6.961   9.246  0.4273  0.2761 -0.2681
 6980W        W10724   1.498   7.851  10.739  0.1045  0.0521 -0.0446
 6981W        W10725   8.291   9.285   0.967  0.1536 -0.0907  0.1222
 6982W        W10726   6.544   2.987   8.100 -0.2193 -0.2469 -0.0259
 6983W        W10727   5.476   6.657   3.048 -0.1387 -0.0140  0.1495
 6984W        W10728   3.616   7.213   2.692  0.0831 -0.0197  0.1623
 6985W        W10729   1.056   5.834   3.797  0.2702 -0.0757 -0.0166
 6986W        W10730   8.656   3.361   0.335  0.0128  0.0645  0.1592
 6987W        W10731   4.669   4.384  12.106 -0.1257 -0.0887  0.3693
 6988W        W10732   5.024   8.685   5.152  0.0049  0.1018  0.4372
 6989W        W10733   6.662   1.002   9.646  0.1045  0.1499 -0.2052
 6990W        W10734   7.280   0.064   2.819  0.0860  0.0739 -0.1436
 6991W        W10735   3.289   8.396   0.951  0.0318 -0.1324 -0.0921
 6992W        W10736   0.398   6.709  11.883 -0.1509 -0.0029  0.1281
 6993W        W10737   8.872   2.001  10.843  0.2922  0.0059  0.0304
 6994W        W10738   1.920   0.750   2.689  0.0189  0.1598 -0.0494
 6995W        W10739   7.697   8.228   9.526 -0.1266 -0.0976  0.2941
 6996W        W10740   2.283   3.069   8.831 -0.4081 -0.3410  0.0353
 6997W        W10741  10.120   2.247   9.348  0.3829  0.3760  0.2005
 6998W        W10742   7.352   3.373   0.542 -0.0604  0.0188 -0.0910
 6999W        W10743   3.621   8.499   4.873 -0.2193 -0.0383 -0.1288
 7000W        W10744   2.067   9.412   5.164 -0.2703 -0.2225  0.0978
 7001W        W10745   4.031   7.996  10.120  0.1212 -0.0344 -0.0314
 7002W        W10746   5.408   0.246   9.859 -0.1701 -0.1208 -0.0571
 7003W        W10747   8.721   0.536   2.383 -0.1136 -0.0767 -0.0872
 7004W        W10748   5.832   8.959   0.660  0.0561 -0.2480  0.0272
 7005W        W10749   0.536   1.727  11.436  0.0481  0.0784 -0.0017
 7006W        W10750   5.087   4.895  10.038  0.0089 -0.2688 -0.0475
 7007W        W10751   1.812   7.546   4.013  0.1508 -0.5230  0.1008
 7008W        W10752   3.959   0.208   3.043 -0.1147  0.1153 -0.1099
 7009W        W10753   8.952   3.237  12.159 -0.0097 -0.2841 -0.1190
 7010W        W10754   5.312   8.246   4.110 -0.1670  0.4971 -0.3189
 7011W        W10755   2.988   6.941   0.215  0.1823  0.0011  0.2589
 7012W        W10756   6.842   5.726   3.258 -0.0640 -0.2618  0.0762
 7013W        W10757   6.141   0.995   3.160  0.1441  0.1899 -0.1751
 7014W        W10758   2.678   5.460  11.808  0.2662  0.1485 -0.0252
 7015W        W10759   0.206   3.552   1.450 -0.3482  0.2506  0.0110
 7016W        W10760   2.106   5.687   8.612 -0.1974 -0.0980  0.0826
 7017W        W10761   4.280   3.854   1.277  0.1990  0.0892  0.1610
 7018W        W10762   4.394   0.465   2.739 -0.2304  0.1720 -0.3104
 7019W        W10763   3.734   2.443  10.938  0.0293 -0.4283 -0.2123
 7020W        W10764   6.699   7.050   4.628 -0.0608 -0.2274 -0.1333
 7021W        W10765   4.444   2.200   0.010  0.1159 -0.0641 -0.0395
 7022W        W10766   6.924   4.317   3.480 -0.2233 -0.0098  0.2201
 7023W        W10767   7.697   7.886   3.349  0.1886 -0.2832  0.1553
 7024W        W10768   0.538   0.944   0.289 -0.0587 -0.1020 -0.2815
 7025W        W10769   4.360   8.439   8.713 -0.2150 -0.0379  0.0811
 7026W        W10770   6.253   4.598   2.290  0.2517 -0.0128 -0.0122
 7027W        W10771   3.551   1.614   1.255  0.0781 -0.2154 -0.0482
 7028W        W10772   3.774   8.007   0.256 -0.3168  0.2192 -0.1659
 7029W        W10773   1.949   1.538  11.316 -0.0894 -0.1335  0.0970
 7030W        W10774   0.720   4.774   1.866  0.1328 -0.3400  0.3129
 7031W        W10775   7.694   0.435   3.941 -0.1078 -0.0461  0.0022
 7032W        W10776   8.727   4.170  11.671 -0.4119 -0.1012 -0.2170
 7033W        W10777   2.348   0.558  10.455 -0.0339 -0.1605 -0.0576
 7034W        W10778   3.779   6.480  11.594  0.1633  0.0990  0.1234
 7035W        W10779   7.603   4.851   3.287 -0.2587  0.0619  0.0874
 7036W        W10780   6.944   0.761   2.275  0.0061  0.2393 -0.0322
 7037W        W10781   6.854   1.738   3.069 -0.2192  0.0899 -0.2770
 7038W        W10782   5.728   1.371   4.004  0.3652  0.0214 -0.1585
 7039W        W10783   5.418   6.507   3.712 -0.0603 -0.0409 -0.4804
 7040W        W10784   6.679   9.258   1.995  0.2472 -0.0922 -0.1295
 7041W        W10785   6.149   1.872   3.371 -0.1818  0.0442 -0.4645
 7042W        W10786   6.590   6.081   4.096 -0.1399 -0.1267  0.1231
 7043W        W10787   8.023   5.675   3.101 -0.2403 -0.0110  0.3956
 7044W        W10788   8.094   8.033   4.272 -0.0844 -0.4450  0.2491
 7045W        W10789   9.357   8.479   0.144  0.1510 -0.1068  0.1793
 7046W        W10790   6.379   2.268   3.736 -0.0071  0.0213  0.0827
 7047W        W10791   9.941   9.109   4.965  0.1601 -0.1725  0.3116
 7048W        W10792   4.734   2.319   1.501  0.3481 -0.0358  0.4180
 7049W        W10793   6.789  10.048  11.185 -0.1347  0.1420  0.1415
 7050W        W10794   4.972   8.564  12.142  0.1305  0.0651  0.0486
 7051W        W10795   4.989   2.349  10.248 -0.0338 -0.0225  0.2261
 7052W        W10796   7.475   5.302   1.852 -0.0951 -0.3253 -0.0011
 7053W        W10797   2.130   3.234   0.599 -0.0809  0.0386 -0.1667
 7054W        W10798   7.603   1.344   1.699  0.0676 -0.0320  0.1024
 7055W        W10799   9.658   8.686  11.459  0.0858 -0.0801 -0.0602
 7056W        W10800   1.649   7.303   4.540 -0.0275 -0.0714 -0.1770
 7057W        W10801   6.467   7.434   1.029 -0.0534 -0.1141  0.1074
 7058W        W10802   8.790   8.862   2.726 -0.1410 -0.0994 -0.0723
 7059W        W10803   6.439   4.026   8.707  0.0850  0.0401 -0.1385
 7060W        W10804   2.874   1.329   8.646  0.3039  0.2640 -0.4216
 7061W        W10805   8.468   5.643   2.893 -0.1593 -0.0305 -0.1257
 7062W        W10806   0.845   3.365  11.055  0.0774  0.3646  0.1320
 7063W        W10807   8.774   3.066   1.744 -0.2493 -0.0929 -0.1268
 7064W        W10808   6.866   1.251   0.078  0.2391  0.0814 -0.1695
 7065W        W10809   1.219   0.125   0.689  0.1075 -0.1814  0.0239
 7066W        W10810   4.535   9.800  11.750  0.1737 -0.1980  0.3002
 7067W        W10811   2.982   8.936  10.267  0.1764 -0.0042  0.2206
 7068W        W10812   7.576   1.250   0.712 -0.3034  0.1419 -0.1807
 7069W        W10813   2.514   2.570   9.252  0.3549 -0.4006  0.0973
 7070W        W10814   3.780   6.106   3.556 -0.0151  0.2479 -0.0303
 7071W        W10815   8.360   8.949  10.779 -0.0202 -0.1265 -0.3153
 7072W        W10816   2.076   9.613  11.778  0.0703 -0.0666 -0.0829
 7073W        W10817   7.416   7.758   2.526 -0.2726  0.0225 -0.2736
 7074W        W10818   8.239   3.427   2.061  0.1417 -0.0305  0.4831
 7075W        W10819   1.317   1.632  10.719 -0.1903 -0.1577  0.2775
 7076W        W10820   7.735   9.932  11.350 -0.1810  0.1982 -0.2217
 7077W        W10821   1.519   5.705   9.974  0.2190  0.0339  0.0624
 7078W        W10822   6.545   5.012   2.160  0.0805  0.0628 -0.3025
 7079W        W10823   0.615   1.291   4.249 -0.0225 -0.3998  0.3126
 7080W        W10824   4.980   7.246   1.915  0.1685 -0.0146  0.0373
 7081W        W10825   1.627   8.334   5.245 -0.2489 -0.1472  0.1268
 7082W        W10826   1.490   2.339  11.385 -0.0519  0.2572  0.0623
 7083W        W10827   8.668   8.744  11.963  0.0005  0.1135 -0.0568
 7084W        W10828   0.159   8.388   2.055 -0.0563  0.1483 -0.1536
 7085W        W10829   1.582   8.703   9.709 -0.4512 -0.3846  0.0398
 7086W        W10830   6.078   5.421  11.852  0.0638 -0.1866 -0.1131
 7087W        W10831   8.798   2.742   2.166  0.0192 -0.0209  0.2504
 7088W        W10832   5.212   4.952   2.058  0.1380 -0.0836 -0.1393
 7089W        W10833   2.892   8.474   1.557  0.1919 -0.2116  0.0718
 7090W        W10834   6.313   6.657   3.923 -0.2852  0.0939  0.0414
 7091W        W10835   9.215   0.744  11.121 -0.0088 -0.2257  0.0846
 7092W        W10836   1.317   2.284   9.795  0.0139  0.0583 -0.2259
 7093W        W10837   6.724   3.855  10.821  0.2457 -0.1006  0.2238
 7094W        W10838   7.697   5.980  12.194  0.0172  0.3628  0.3074
 7095W        W10839   5.119   1.967   9.451 -0.1490 -0.0007 -0.1538
 7096W        W10840   0.030   4.548   1.814 -0.0178 -0.2429 -0.0164
 7097W        W10841   0.941   1.402   2.488  0.1032  0.2753 -0.0278
 7098W        W10842   1.041   7.703   0.132  0.0383  0.1431 -0.2485
 7099W        W10843   3.810   8.027   1.543 -0.0827  0.1756 -0.1451
 7100W        W10844   4.419   8.763   2.858 -0.1366  0.0934 -0.0208
 7101W        W10845   4.502   4.426  10.486  0.2606 -0.0715 -0.0487
 7102W        W10846   3.370   3.222  10.573  0.4236  0.2166  0.0323
 7103W        W10847   6.966   3.733  10.351  0.0429  0.1662  0.0358
 7104W        W10848   4.343   2.633   8.011 -0.0640 -0.4716  0.0355
 7105W        W10849   3.301   0.628   9.464  0.3790 -0.0454  0.3240
 7106W        W10850   4.081   0.283   4.046  0.2344  0.3421  0.0615
 7107W        W10851   8.656   2.092  11.898 -0.0199  0.0725  0.2601
 7108W        W10852   3.951   2.661  10.062 -0.3215 -0.2057  0.2412
 7109W        W10853   6.646   8.006   2.638  0.1410  0.3085 -0.1409
 7110W        W10854   5.772   5.954  11.925  0.2924 -0.0096 -0.1646
 7111W        W10855   4.736   3.840   0.989 -0.2344  0.2805  0.2064
 7112W        W10856   4.793   9.225   3.022  0.0621 -0.0172 -0.0163
 7113W        W10857   8.480   4.605  11.508 -0.0346  0.2984  0.1303
 7114W        W10858   3.489   7.284   4.075 -0.3001  0.1098 -0.0532
 7115W        W10859   5.900   5.639  10.805 -0.1342 -0.3150 -0.1184
 7116W        W10860   6.539   2.770  11.583 -0.2240  0.0608 -0.1497
 7117W        W10861   6.835   3.231   2.539  0.1419  0.0633 -0.2606
 7118W        W10862   5.804   4.010   4.363 -0.1319 -0.2031  0.0744
 7119W        W10863   7.399   0.905   2.281  0.2070 -0.2148 -0.0377
 7120W        W10864   9.277   2.197  10.557  0.1451  0.3080 -0.3339
 7121W        W10865   8.728   7.924  12.129  0.2043 -0.0892  0.2381
 7122W        W10866   0.345  10.081   2.037 -0.2153  0.2165  0.2088
 7123W        W10867   3.540   8.338   9.939  0.2164 -0.1419 -0.0686
 7124W        W10868   9.041   0.230   1.028 -0.1021 -0.0527  0.3421
 7125W        W10869   6.632   8.561   5.072 -0.3724 -0.0813  0.1777
 7126W        W10870   9.290   2.672   0.917 -0.1110  0.0305 -0.0258
 7127W        W10871   7.739   8.727   3.658  0.0805 -0.1437 -0.0735
 7128W        W10872   8.180   7.341   2.525 -0.1554  0.3258 -0.2713
 7129W        W10873   9.492  10.122   9.015  0.0692  0.2933 -0.1239
 7130W        W10874   9.846   7.680   0.385  0.0387  0.0628 -0.0500
 7131W        W10875   2.612   2.446   4.352  0.1037 -0.3439 -0.1808
 7132W        W10876   0.218   2.863   3.178  0.0932  0.1492 -0.2463
 7133W        W10877   2.227   7.326  10.129 -0.0268  0.2527  0.1885
 7134W        W10878   1.903   2.691   1.799 -0.0150 -0.1496 -0.2829
 7135W        W10879   4.218   0.437  10.451  0.0242 -0.0478  0.0243
 7136W        W10880   1.157   3.772  10.953  0.0804  0.0647 -0.3684
 7137W        W10881   0.013   9.666   9.532 -0.0523  0.3275  0.4488
 7138W        W10882   7.839   3.500   0.539 -0.1423  0.3445  0.1128
 7139W        W10883   9.747   4.938  10.672  0.0324 -0.0049 -0.0048
 7140W        W10884   4.301   5.212  10.077 -0.0904  0.1631  0.0476
 7141W        W10885   2.251   0.849   0.078  0.0216  0.1793 -0.0711
 7142W        W10886   2.498   8.631  10.931  0.2871  0.2587 -0.0270
 7143W        W10887   9.035   7.459   9.266  0.1582 -0.2812  0.0353
 7144W        W10888   2.977   3.435   1.632  0.0467  0.1864  0.1276
 7145W        W10889   9.351   0.750  12.250 -0.0359  0.1386  0.2177
 7146W        W10890   3.290   8.773   9.774 -0.3346 -0.0984 -0.1912
 7147W        W10891   6.773   4.880   4.372  0.3885 -0.0312  0.1161
 7148W        W10892   3.847   0.726   3.252  0.1571  0.1349 -0.0840
 7149W        W10893   4.191   0.197   0.375 -0.1619 -0.4839  0.2334
 7150W        W10894   5.277   7.612   0.646 -0.3458 -0.1954 -0.3169
 7151W        W10895   1.968   1.113   8.926  0.0262 -0.0974  0.0351
 7152W        W10896   0.145   3.766  11.396  0.0654  0.2198  0.0285
 7153W        W10897   6.382   3.968   2.030  0.3389  0.0966 -0.2542
 7154W        W10898   8.319   4.318   0.464  0.1203 -0.1390 -0.0537
 7155W        W10899   9.051   1.037   1.572  0.4048  0.0745  0.1690
 7156W        W10900   7.925   2.367   9.689 -0.1353 -0.0467  0.3460
 7157W        W10901   2.002   1.042   1.257  0.2277  0.1860 -0.0522
 7158W        W10902   4.161   8.761  11.092 -0.4534 -0.2705  0.1189
 7159W        W10903   4.521   3.196   8.105 -0.1086 -0.1385  0.0734
 7160W        W10904   8.209   7.766   9.675  0.1935  0.1360 -0.2237
 7161W        W10905   0.725   7.136  12.028 -0.1663 -0.0684  0.2368
 7162W        W10906   8.244   6.229   2.324 -0.1104  0.1088 -0.0252
 7163W        W10907  10.013  10.011   0.601  0.1518  0.0468  0.0715
 7164W        W10908   1.363   2.744   9.430  0.1980 -0.2068  0.0357
 7165W        W10909   9.666   6.197   2.560 -0.2984  0.4194 -0.0111
 7166W        W10910   3.745   6.578  10.864 -0.1978  0.3172  0.0097
 7167W        W10911   9.893   5.348   9.107  0.0764 -0.4372 -0.2254
 7168W        W10912   6.383   4.819   9.965 -0.2733  0.0545 -0.0462
 7169W        W10913   1.220   2.509  12.344  0.1021  0.1122 -0.1134
 7170W        W10914   6.117   6.017   2.645 -0.2471  0.2516 -0.0815
 7171W        W10915   7.944   9.292  10.820 -0.1346  0.0295  0.2462
 7172W        W10916   3.231   4.204   0.405  0.2999 -0.1265 -0.2746
 7173W        W10917   6.158   2.539   9.248 -0.0466  0.4468 -0.1829
 7174W        W10918   6.090   2.099   2.032  0.2568  0.0204 -0.1880
 7175W        W10919   6.049   9.134   4.814 -0.0657 -0.1653 -0.3027
 7176W        W10920   1.844   1.315   2.871 -0.2677 -0.0622 -0.1363
 7177W        W10921   1.241   2.886   2.442  0.3690  0.1172 -0.1924
 7178W        W10922   4.704   8.196   0.075 -0.0471 -0.0533 -0.1133
 7179W        W10923   8.798   2.373  10.061  0.1840  0.0762 -0.3947
 7180W        W10924   8.433   6.802   3.467  0.1129 -0.0866  0.0847
 7181W        W10925   2.083   5.794   0.189 -0.0665 -0.0769 -0.0540
 7182W        W10926   2.852   1.031   1.228  0.2295  0.0965  0.0248
 7183W        W10927   7.846   6.806   1.520  0.0786  0.1388 -0.4103
 7184W        W10928  10.094   8.468  11.773  0.1568 -0.0831  0.1565
 7185W        W10929   5.867  10.059  10.559  0.2988  0.1328  0.2192
 7186W        W10930   4.114   0.235   9.704 -0.3416 -0.0249  0.0881
 7187W        W10931   5.525   5.303   2.058  0.0709 -0.1218  0.0125
 7188W        W10932   4.979   2.674   3.306  0.0892  0.0049  0.1080
 7189W        W10933   7.004   6.666   2.216 -0.2852 -0.1207 -0.0805
 7190W        W10934   5.154   5.494   0.938  0.0801 -0.1571  0.0355
 7191W        W10935   2.708   8.374  11.287  0.3014  0.4738  0.0313
 7192W        W10936   0.941   5.550   2.206  0.3254 -0.0424 -0.0881
 7193W        W10937   7.005   6.647   8.211  0.2908  0.0983 -0.0475
 7194W        W10938   4.140   1.663   9.971 -0.0057 -0.0787  0.2673
 7195W        W10939   4.420   1.196   3.974 -0.2213 -0.0039  0.2651
 7196W        W10940   7.044   8.086   2.356 -0.0474 -0.1129 -0.1937
 7197W        W10941   7.718   6.152   3.072 -0.0248  0.1353  0.0044
 7198W        W10942   8.449   0.294   1.996  0.0562  0.0992 -0.0125
 7199W        W10943   2.437   2.467   2.371  0.0234  0.2683 -0.0807
 7200W        W10944   7.380   4.482   0.804  0.2269  0.2120 -0.0646
 7201W        W10945   5.525   1.592  11.117 -0.0919 -0.1605 -0.2923
 7202W        W10946   9.841   3.472   9.189 -0.0546 -0.3752 -0.3165
 7203W        W10947   0.661   5.701  11.025 -0.0114 -0.1834 -0.1152
 7204W        W10948   4.030   7.112  10.303 -0.2407  0.1268 -0.2239
 7205W        W10949   3.644   2.658   9.527 -0.0186  0.0896  0.1292
 7206W        W10950   7.428   5.809   1.326 -0.1099 -0.1697  0.0096
 7207W        W10951   5.321   4.962   3.113  0.1412 -0.1708  0.0200
 7208W        W10952   1.766   1.799   9.240  0.1394 -0.0251  0.0199
 7209W        W10953   3.550   5.591   4.452  0.2227 -0.0943 -0.0850
 7210W        W10954   5.813   3.814  10.978 -0.1921 -0.2910  0.2027
 7211W        W10955   2.690   2.628  10.577 -0.0337 -0.1068  0.1091
 7212W        W10956   3.623   9.225   9.001  0.0782 -0.1100 -0.0450
 7213W        W10957   9.580   6.477  12.179  0.1078 -0.3631 -0.0159
 7214W        W10958   9.729   6.066  10.243  0.1048 -0.0578 -0.0692
 7215W        W10959   1.598   3.697  10.735  0.1724 -0.2469 -0.0839
 7216W        W10960   4.570   9.081   0.456 -0.0697  0.3783 -0.0194
 7217W        W10961   8.653   7.963   1.524  0.1869  0.0020  0.4186
 7218W        W10962   9.472   5.045   3.988 -0.2538 -0.1393 -0.0691
 7219W        W10963   5.250   4.994  11.611 -0.0980 -0.0957  0.0026
 7220W        W10964   0.249   8.348   3.186  0.2713 -0.2503 -0.0782
 7221W        W10965   0.446   9.443  12.076 -0.0912  0.3850 -0.1315
 7222W        W10966   7.935   9.446   9.583 -0.2129  0.0949  0.1802
 7223W        W10967   0.263   3.977   9.004  0.4292  0.1612  0.1490
 7224W        W10968   9.235   9.914   3.168  0.1821 -0.0991  0.1595
 7225W        W10969   4.991   2.510   3.743  0.0432  0.1983  0.0207
 7226W        W10970   9.184   5.865   9.699 -0.4720 -0.2317  0.0622
 7227W        W10971   9.276   0.110   1.521 -0.0153 -0.1063 -0.1180
 7228W        W10972   2.315   4.624   0.057  0.0576 -0.2293  0.3407
 7229W        W10973   0.425   6.402   0.769 -0.0651 -0.3740 -0.1284
 7230ION    NA+10974   8.360   3.550   2.478  0.2466 -0.3835 -0.1304
 7231ION    NA+10975   7.208   7.110  10.254  0.0136  0.0384  0.1358
 7232ION    NA+10976   3.697   9.262  10.120 -0.0533 -0.0046 -0.0215
 7233ION    NA+10977   9.899   1.252   4.366 -0.0420 -0.0126 -0.1863
 7234ION    NA+10978   4.003   1.545   0.456 -0.0192 -0.0890  0.3071
 7235ION    NA+10979   9.668   8.115  10.500 -0.0843  0.1795 -0.0906
 7236ION    NA+10980   1.488   4.885  11.316  0.0467  0.0816  0.3982
 7237ION    NA+10981   1.725   8.967   2.555  0.1117  0.1643 -0.2909
 7238ION    NA+10982   1.407   9.351   0.527  0.0524 -0.2115 -0.1920
 7239ION    NA+10983   1.647   7.049   0.491  0.2137  0.0216 -0.0714
 7240ION    NA+10984   4.843   2.425   4.321 -0.1352  0.3091 -0.4316
 7241ION    NA+10985   3.375   7.343   2.028 -0.0578  0.0506  0.0313
 7242ION    NA+10986   9.920   6.753   1.489 -0.0867 -0.1675  0.0781
 7243ION    NA+10987   1.301   4.923   3.418 -0.1151  0.2677  0.0069
 7244ION    NA+10988   6.564   5.896   2.474  0.0323  0.0507  0.0045
 7245ION    NA+10989   9.657   3.361   3.026 -0.1346 -0.2235  0.0949
 7246ION    NA+10990   3.968   5.962   8.658  0.0152 -0.3192 -0.1179
 7247ION    NA+10991   2.784   6.167  12.092  0.1497  0.0753 -0.0020
 7248ION    NA+10992   5.450   0.146   0.163 -0.2322  0.2827 -0.3266
 7249ION    NA+10993   4.932   3.969   4.730 -0.1320 -0.1871  0.0322
 7250ION    NA+10994   7.527   1.241   2.647  0.1555  0.1635 -0.0199
 7251ION    NA+10995   4.012   4.998   1.500 -0.1162  0.2741 -0.1680
 7252ION    NA+10996   2.275   8.908   5.489 -0.0232 -0.1509 -0.1332
 7253ION    NA+10997   8.010   4.919  11.479  0.1829  0.0697  0.2194
 7254ION    NA+10998   9.805   0.807   8.903  0.2688 -0.0870 -0.3405
 7255ION    NA+10999   8.471   7.701  10.624 -0.1787 -0.1271 -0.3153
 7256ION    NA+11000   0.190   8.763  10.644  0.2575 -0.1274  0.4146
 7257ION    NA+11001   3.906   0.607   2.289  0.1448  0.2703  0.1641
 7258ION    NA+11002   3.509   8.400   5.359 -0.1351 -0.1207 -0.0251
 7259ION    NA+11003   7.604   9.534   2.496  0.0430 -0.0499  0.2464
 7260ION    NA+11004   4.669   0.967   1.696 -0.1436 -0.3715  0.0954
 7261ION    NA+11005   5.122   9.542   5.026 -0.1322 -0.1190  0.3482
 7262ION    NA+11006   1.680   5.056   8.676  0.0965 -0.2236  0.1576
 7263ION    NA+11007   8.886   6.548   1.581 -0.0400  0.0285  0.1442
 7264ION    NA+11008   6.709   2.461   1.207 -0.0783 -0.1113 -0.1585
 7265ION    NA+11009   0.853   5.401   0.879  0.3680 -0.3739 -0.0111
 7266ION    NA+11010   0.315   6.364   3.243  0.1387  0.0191  0.1892
 7267ION    NA+11011   0.443   5.247   9.108  0.1415 -0.0785  0.2833
 7268ION    NA+11012   8.383   8.209  12.331  0.0788 -0.0809 -0.4079
 7269ION    NA+11013   4.253   1.545   8.715  0.1037  0.0087 -0.1806
 7270ION    NA+11014   0.616   3.250  10.614  0.2737 -0.1699  0.1026
 7271ION    NA+11015   3.585   7.491  11.962 -0.2566 -0.1217 -0.0386
 7272ION    NA+11016   1.058   4.293  11.897 -0.0924 -0.1523 -0.0728
 7273ION    NA+11017   6.058   4.671   3.595  0.0678 -0.1042 -0.1465
 7274ION    NA+11018   3.833   7.489   4.455  0.4008  0.2253 -0.0693
 7275ION    NA+11019   2.587   3.507   2.470 -0.0276  0.1873  0.0192
 7276ION    NA+11020   4.820   5.811   8.414  0.1668  0.4800  0.0404
 7277ION    NA+11021   2.851   1.006   1.735  0.0374  0.0966  0.0096
 7278ION    NA+11022   0.935   1.380   9.476 -0.3935  0.1413  0.1128
 7279ION    NA+11023   0.273   4.919   9.964  0.1897 -0.2645  0.2986
 7280ION    NA+11024   2.968   9.721   4.345 -0.0038  0.0495 -0.3043
 7281ION    NA+11025   7.186   3.209   8.536 -0.0474 -0.1319  0.3317
 7282ION    NA+11026   0.984   9.873   0.957  0.1517  0.2805 -0.1221
 7283ION    NA+11027   7.790   3.705   1.942 -0.4349 -0.1142  0.0208
 7284ION    NA+11028   5.712   6.098   5.171  0.3315  0.1240 -0.1202
 7285ION    NA+11029   7.384   8.719   2.338 -0.1787 -0.0099 -0.1182
 7286ION    NA+11030   7.883   6.377   4.810 -0.0011  0.1763  0.3209
 7287ION    NA+11031   5.081   2.911   8.268  0.0439 -0.3271  0.0046
 7288ION    NA+11032   4.681   7.791   3.507 -0.1702 -0.0213  0.2726
 7289ION    NA+11033   8.344   8.706   3.980  0.0917  0.0947  0.0335
 7290ION    NA+11034   9.222   3.509   0.811 -0.4562 -0.0483  0.0598
 7291ION    NA+11035   5.995   7.028   9.538 -0.1453  0.1463 -0.0072
 7292ION    NA+11036   5.798   1.097   2.502  0.0355 -0.0826 -0.2210
 7293ION    NA+11037   4.852   5.859   0.684  0.2095 -0.0633 -0.0905
 7294ION    NA+11038   3.024   5.838   1.658  0.0425  0.0687  0.2076
 7295ION    NA+11039   5.962   7.718  10.327 -0.1350 -0.3161  0.0623
 7296ION    NA+11040   6.764   3.376   0.685 -0.2300  0.2420  0.2010
 7297ION    NA+11041   2.285   4.361   8.437 -0.5777  0.0762 -0.0426
 7298ION    NA+11042   0.362   5.500   2.078 -0.1725 -0.0201  0.0106
 7299ION    NA+11043   5.335   0.003   1.885 -0.0904  0.1139  0.2144
 7300ION    NA+11044   9.553   0.367   4.955 -0.2772 -0.0268 -0.0957
 7301ION    NA+11045   2.644   9.283   2.587  0.1988  0.0337  0.2572
 7302ION    NA+11046   8.606   3.985   4.299 -0.4167 -0.2928 -0.2802
 7303ION    NA+11047   3.122   5.904   0.786  0.1599 -0.0447  0.0269
 7304ION    NA+11048   1.230   5.659   9.118 -0.1380  0.1298  0.1780
 7305ION    NA+11049   5.858   9.598   4.788  0.3609  0.2890  0.0927
 7306ION    CL-11050   3.107   0.697   2.097 -0.2120 -0.1611  0.0704
 7307ION    CL-11051   4.932   5.246   2.760 -0.2673 -0.2807  0.0763
 7308ION    CL-11052   8.228   3.931   1.744  0.0032  0.1468  0.1961
 7309ION    CL-11053   5.060   0.049   0.501 -0.2574  0.2932  0.0883
 7310ION    CL-11054   6.681   6.135   0.658 -0.1991  0.0043 -0.0523
 7311ION    CL-11055   8.141   2.648   3.805  0.0641  0.1810  0.1176
 7312ION    CL-11056   9.723   5.826   9.126 -0.1837 -0.0773  0.1760
 7313ION    CL-11057   3.615   8.772   9.418  0.0207  0.0744 -0.0395
 7314ION    CL-11058   2.092   8.058   4.077 -0.0711  0.0934 -0.0386
 7315ION    CL-11059   1.569   4.997  11.819 -0.0275  0.1696 -0.2143
 7316ION    CL-11060   4.295   0.901   2.493 -0.1910  0.2257  0.1938
 7317ION    CL-11061   0.646   4.884   3.325 -0.2497 -0.0183 -0.1094
 7318ION    CL-11062   7.682   6.978  10.154  0.0624 -0.2178 -0.0676
 7319ION    CL-11063  10.000   0.972   3.887 -0.2735  0.2232  0.2739
 7320ION    CL-11064   2.529   6.030   0.202 -0.1931  0.0036  0.3153
 7321ION    CL-11065   3.850   3.177   1.993 -0.0455 -0.3463 -0.1832
 7322ION    CL-11066   3.392   5.532   1.908  0.1081 -0.4542 -0.0138
 7323ION    CL-11067   0.031   8.376  10.181 -0.1105 -0.0858 -0.0114
 7324ION    CL-11068   1.413   3.885  11.766  0.0237 -0.0348 -0.2069
 7325ION    CL-11069   5.609   3.861   0.700 -0.0202  0.1422  0.2124
 7326ION    CL-11070   4.620   7.537   3.921 -0.1660  0.0491  0.0789
 7327ION    CL-11071   3.302   4.318  11.743 -0.2394  0.1027  0.1604
 7328ION    CL-11072   4.025   5.603   9.451 -0.2484 -0.1101 -0.0741
 7329ION    CL-11073   1.505   8.859   0.575  0.0190  0.0466  0.0723
 7330ION    CL-11074   9.308   5.529   2.739  0.0191  0.1667 -0.3061
 7331ION    CL-11075   4.976   4.397   4.339 -0.0774 -0.0546 -0.0913
 7332ION    CL-11076   6.252   6.171   2.197 -0.0543  0.2324  0.0516
 7333ION    CL-11077   1.651   5.472   8.985  0.1640  0.3033 -0.0870
 7334ION    CL-11078   3.153   9.452   2.601  0.0399  0.2008 -0.2379
 7335ION    CL-11079   3.419   9.658  10.448 -0.0787 -0.2942  0.1400
 7336ION    CL-11080   7.224   1.187  10.902 -0.3015  0.2474 -0.2204
 7337ION    CL-11081   2.661  10.034   4.104 -0.0088  0.3226  0.0109
 7338ION    CL-11082   5.843   8.869  10.239  0.1120 -0.2309  0.2208
 7339ION    CL-11083   8.650   0.021   3.951 -0.2398 -0.0958  0.2277
 7340ION    CL-11084   8.683   3.622   3.296 -0.3695  0.0509 -0.0967
 7341ION    CL-11085   9.244   8.918  10.678 -0.2024  0.0882  0.0109
 7342ION    CL-11086   8.507   7.310   4.188 -0.3152  0.0053 -0.1006
 7343ION    CL-11087   0.648   5.150   9.676  0.0822 -0.0738  0.1643
 7344ION    CL-11088   5.761   7.905   9.835  0.0686 -0.0132 -0.2362
 7345ION    CL-11089   6.824   6.429  10.823  0.1312  0.1707  0.3142
 7346ION    CL-11090   0.940   3.992   8.545  0.0579 -0.1882  0.1114
 7347ION    CL-11091   5.628   5.045   3.719  0.1643  0.2057  0.0334
 7348ION    CL-11092   9.612   6.669   1.093 -0.0748  0.0382 -0.2162
 7349ION    CL-11093   9.033   2.037   2.756 -0.3856  0.0459  0.2903
 7350ION    CL-11094   2.930   2.863   0.262 -0.0076  0.0972 -0.2357
 7351ION    CL-11095   6.433   2.054   1.254 -0.0443 -0.0030 -0.0628
 7352ION    CL-11096   0.044   3.396   0.531  0.2890  0.3215  0.1934
 7353ION    CL-11097   0.367   6.526   2.787  0.1418  0.1101 -0.1305
 7354ION    CL-11098   3.557   5.477   0.824 -0.1460 -0.0426 -0.0307
 7355ION    CL-11099   1.518   0.206   9.667 -0.2365 -0.2418  0.0198
 7356ION    CL-11100   7.552   6.110   4.467 -0.0529  0.3736  0.4083
 7357ION    CL-11101   3.454   9.156   4.259 -0.0431 -0.1365  0.1702
 7358ION    CL-11102   1.278   9.798   0.545 -0.0347  0.2915 -0.0630
 7359ION    CL-11103   8.435   8.715   0.027  0.2076 -0.1202  0.1443
 7360ION    CL-11104   7.035   2.223   9.566 -0.0883  0.1814 -0.0370
 7361ION    CL-11105   3.675   0.034   2.206  0.1370 -0.1900  0.2676
 7362ION    CL-11106   1.038   7.942   4.179 -0.1193 -0.2093  0.3424
 7363ION    CL-11107   7.005   8.479   2.067  0.0502  0.0565 -0.1073
 7364ION    CL-11108   5.109   1.071   1.899 -0.1003 -0.0010  0.0781
 7365ION    CL-11109   6.122   4.247   3.978  0.0629  0.3896 -0.1323
 7366ION    CL-11110   2.087   5.226   8.922 -0.0482  0.1979 -0.0602
 7367ION    CL-11111   9.123   7.972  10.486 -0.0454 -0.3631 -0.0958
 7368ION    CL-11112   2.094   2.256  11.886 -0.1874 -0.2749 -0.0643
 7369ION    CL-11113   3.132   6.344   1.027 -0.3312 -0.2625 -0.3672
 7370ION    CL-11114   2.094   9.026  10.086  0.0911  0.0088  0.2063
 7371ION    CL-11115   4.355   9.826  10.033  0.4445  0.1371  0.2411
 7372ION    CL-11116   9.757   4.440  10.057  0.0568 -0.0945  0.0507
 7373ION    CL-11117   7.079   1.276   3.014  0.0210 -0.2908  0.3246
 7374ION    CL-11118   8.534   6.116   1.857 -0.0808 -0.2694 -0.3236
 7375ION    CL-11119   4.517   6.328   9.220 -0.1637 -0.1537 -0.0265
 7376ION    CL-11120   2.584   1.140   9.630 -0.2543 -0.3536  0.2389
 7377ION    CL-11121   8.474   9.156   3.946 -0.0830 -0.0157  0.2486
 7378ION    CL-11122   5.472   0.495   9.400 -0.2212 -0.0286  0.1984
 7379ION    CL-11123   5.327   6.644   9.925  0.1415 -0.1654  0.0470
 7380ION    CL-11124   2.243   3.996   8.764  0.1027 -0.0527 -0.4480
 7381ION    CL-11125   5.690   0.445   2.040  0.3702 -0.1928  0.1318
  10.13036  10.13036  12.37248
