Protein in INSANE! Membrane UpperLeaflet>POPC=1.0 LowerLeaflet>POPC=1.0
11125
    1AU     AUC    1   1.273   1.859   6.670 -0.0288  0.0286 -0.0399
    1AU     AUC    2   1.219   1.818   6.990 -0.1194  0.0942 -0.0885
    1AU     AUC    3   1.286   2.109   6.823  0.0526 -0.0691  0.1103
    1AU     AUC    4   1.264   1.559   6.508  0.0026  0.0004 -0.0159
    1AU     AUC    5   1.380   1.870   6.377  0.0047  0.0356  0.0008
    1AU     AUC    6   1.550   1.704   6.600 -0.1276 -0.0734 -0.0436
    1AU     AUC    7   1.523   1.866   6.901  0.0379 -0.0093  0.0698
    1AU     AUC    8   1.057   1.805   6.467  0.0747 -0.0854  0.0707
    1AU     AUC    9   0.987   1.964   6.766 -0.0576 -0.0408 -0.0434
    1AU     AUC   10   1.164   2.120   6.543  0.0095 -0.0194  0.0678
    1AU     AUC   11   1.537   2.039   6.604 -0.0293 -0.1052 -0.0210
    1AU     AUC   12   1.034   1.641   6.761 -0.0782  0.0556 -0.0880
    1AU     AUC   13   1.361   1.566   6.855  0.0080  0.0042 -0.0173
    1AU     AUC   14   1.116   1.827   7.352 -0.0177 -0.0080 -0.0109
    1AU     AUC   15   1.183   2.144   7.214  0.1035  0.1097  0.0792
    1AU     AUC   16   1.276   2.418   6.971  0.0226  0.0186  0.0789
    1AU     AUC   17   1.245   1.259   6.296 -0.0331  0.0076  0.0964
    1AU     AUC   18   1.362   1.566   6.153  0.0319  0.0818  0.0528
    1AU     AUC   19   1.506   1.867   6.045 -0.0073  0.1396  0.0104
    1AU     AUC   20   1.870   1.545   6.525 -0.0330 -0.0717 -0.0344
    1AU     AUC   21   1.848   1.691   6.875  0.0051 -0.0926  0.0063
    1AU     AUC   22   1.739   1.899   7.120 -0.0621  0.0529  0.0723
    1AU     AUC   23   0.801   1.752   6.249  0.0210 -0.0795  0.0422
    1AU     AUC   24   0.699   1.942   6.539 -0.0693 -0.1025 -0.0742
    1AU     AUC   25   0.627   2.095   6.841 -0.0497 -0.0327  0.0863
    1AU     AUC   26   1.095   2.390   6.355 -0.1042 -0.0968  0.0533
    1AU     AUC   27   1.462   2.337   6.422 -0.0515  0.0706  0.0157
    1AU     AUC   28   1.777   2.254   6.563 -0.0559 -0.0661 -0.0293
    1AU     AUC   29   0.795   1.438   6.850  0.0343  0.1257 -0.0101
    1AU     AUC   30   1.113   1.301   6.938 -0.0816  0.0033  0.0390
    1AU     AUC   31   1.422   1.287   7.007 -0.0283 -0.0090  0.1415
    1AU     AUC   32   1.168   2.421   6.662  0.0889  0.0984  0.0406
    1AU     AUC   33   1.501   2.385   6.772  0.0270 -0.0424 -0.1187
    1AU     AUC   34   0.946   1.579   7.139 -0.0168 -0.0356  0.0009
    1AU     AUC   35   1.306   1.568   7.193 -0.0463  0.1381 -0.0342
    1AU     AUC   36   1.351   2.152   6.193  0.0183  0.0053  0.0474
    1AU     AUC   37   1.683   2.072   6.267  0.0157  0.0454 -0.0449
    1AU     AUC   38   0.996   1.339   6.569 -0.0227  0.0470 -0.0681
    1AU     AUC   39   1.318   1.243   6.622 -0.1585  0.0391  0.0171
    1AU     AUC   40   1.422   1.897   7.287 -0.1242  0.0788  0.0027
    1AU     AUC   41   1.522   2.191   7.050  0.0344 -0.0157  0.0929
    1AU     AUC   42   1.575   1.417   6.375 -0.0784 -0.0827 -0.0316
    1AU     AUC   43   1.711   1.712   6.263 -0.0546 -0.0779 -0.0164
    1AU     AUC   44   0.863   1.963   7.113 -0.0663 -0.0120  0.0798
    1AU     AUC   45   0.907   2.264   6.923 -0.0377 -0.0236 -0.0031
    1AU     AUC   46   0.998   1.520   6.197  0.0140  0.0635  0.0040
    1AU     AUC   47   1.165   1.854   6.119 -0.0557  0.0828 -0.0384
    1AU     AUC   48   1.868   1.916   6.560 -0.0611 -0.0086 -0.0171
    1AU     AUC   49   1.791   2.076   6.846 -0.0912 -0.0828 -0.0477
    1AU     AUC   50   0.925   2.095   6.294 -0.0133 -0.0066 -0.0088
    1AU     AUC   51   0.805   2.239   6.552 -0.0398 -0.0554  0.1200
    1AU     AUC   52   1.627   1.390   6.746  0.0297  0.0415  0.0396
    1AU     AUC   53   1.625   1.558   7.116 -0.0232  0.0525 -0.0396
    1AU     AUC   54   0.748   1.571   6.518  0.0191 -0.0511  0.0011
    1AU     AUC   55   0.723   1.736   6.909  0.0496 -0.1486  0.0421
    1AU    AUSL   56   1.291   2.771   6.808 -0.0242 -0.0128 -0.1261
    1AU    AUSL   57   0.928   2.604   6.507  0.0265  0.0102  0.0661
    1AU     AUL   58   0.996   2.863   6.722  0.0219  0.0208  0.0143
    1AU       S   59   0.525   2.862   6.750 -0.0893  0.3452 -0.0840
    1AU     LIG   60   0.413   3.232   6.790 -0.0748 -0.0710  0.1730
    1AU     LIG   61   0.224   3.565   6.569 -0.1761 -0.2434 -0.2727
    1AU     LIG   62  -0.088   3.693   6.395 -0.2638  0.0179  0.2679
    1AU     LIG   63  -0.227   3.876   5.925  0.2013  0.0712 -0.2164
    1AU       S   64   1.336   3.179   6.623 -0.2949 -0.1544 -0.0090
    1AU     LIG   65   1.219   3.710   6.494  0.3117  0.1252  0.0215
    1AU     LIG   66   0.975   4.126   6.599  0.4453  0.2117 -0.0179
    1AU     LIG   67   0.652   4.144   6.791  0.1518  0.3705 -0.3073
    1AU     LIG   68   0.362   3.788   6.952  0.0612  0.1776 -0.1966
    1AU    AUSL   69   1.312   2.719   6.371 -0.0307 -0.0093  0.0194
    1AU    AUSL   70   1.731   2.546   6.224 -0.0844 -0.1266  0.0815
    1AU     AUL   71   1.623   2.883   6.297 -0.1022  0.0784  0.0278
    1AU       S   72   1.146   2.989   6.294 -0.1266  0.0473  0.0217
    1AU     LIG   73   0.765   3.087   6.300  0.0921 -0.3845 -0.5842
    1AU     LIG   74   0.374   3.225   6.276 -0.1199  0.0851 -0.1399
    1AU     LIG   75  -0.054   3.294   5.938  0.1112 -0.2192 -0.2180
    1AU     LIG   76  -0.089   3.143   5.513  0.0867  0.1675 -0.2548
    1AU       S   77   1.712   2.694   5.866 -0.1085  0.0320 -0.1531
    1AU     LIG   78   1.874   3.104   5.886  0.1895 -0.3254 -0.0684
    1AU     LIG   79   2.264   3.316   6.136 -0.2708 -0.0496  0.0609
    1AU     LIG   80   2.527   3.575   6.300 -0.0850  0.3797  0.2869
    1AU     LIG   81   2.574   4.070   6.430 -0.0491 -0.0810  0.1969
    1AU    AUSL   82   1.606   2.483   6.616 -0.0977 -0.1282  0.0098
    1AU    AUSL   83   1.628   2.638   7.041 -0.0754 -0.0709 -0.0369
    1AU     AUL   84   1.637   2.835   6.763  0.0236  0.0148  0.0458
    1AU       S   85   2.078   2.793   6.445  0.2082  0.1610  0.0105
    1AU     LIG   86   2.244   2.823   6.116  0.2474 -0.0794  0.0943
    1AU     LIG   87   2.314   3.009   5.749  0.2120 -0.1101  0.2569
    1AU     LIG   88   2.652   3.367   5.771 -0.3462 -0.2162  0.2946
    1AU     LIG   89   2.965   3.538   5.597  0.1912 -0.3007  0.3372
    1AU       S   90   1.811   2.833   7.198  0.3597  0.0618 -0.1151
    1AU     LIG   91   1.676   3.202   7.125 -0.2480 -0.2137  0.0105
    1AU     LIG   92   1.518   3.614   6.963  0.0151  0.0426 -0.7371
    1AU     LIG   93   1.053   3.755   6.987 -0.0721 -0.0402  0.0645
    1AU     LIG   94   0.705   3.600   7.238  0.1019 -0.2099  0.0800
    1AU    AUSL   95   1.137   1.539   7.379  0.0092 -0.0416 -0.0070
    1AU    AUSL   96   1.536   1.352   7.433  0.0533 -0.0008  0.0725
    1AU     AUL   97   1.302   1.329   7.709 -0.0316  0.0493  0.0480
    1AU       S   98   1.128   0.940   7.535 -0.0091 -0.1483  0.1336
    1AU     LIG   99   1.394   0.665   7.803 -0.1207 -0.2815 -0.0605
    1AU     LIG  100   1.219   0.421   8.138 -0.0875 -0.2515  0.3110
    1AU     LIG  101   1.082   0.127   7.880  0.0300 -0.3205 -0.1348
    1AU     LIG  102   0.678   0.251   7.879 -0.3192  0.0849 -0.2689
    1AU       S  103   1.827   1.537   7.796 -0.1307 -0.4876 -0.2145
    1AU     LIG  104   1.829   1.070   7.888  0.0570 -0.1661  0.0121
    1AU     LIG  105   1.977   0.770   7.584 -0.0317  0.1516  0.2788
    1AU     LIG  106   1.919   0.368   7.697 -0.2626 -0.0875 -0.2319
    1AU     LIG  107   1.496   0.227   7.548  0.2206  0.2943 -0.5882
    1AU    AUSL  108   0.819   1.226   7.304 -0.0570 -0.0345  0.1165
    1AU    AUSL  109   0.759   1.699   7.484 -0.0089 -0.0581 -0.0780
    1AU     AUL  110   0.841   1.406   7.624  0.0569 -0.0298 -0.0367
    1AU       S  111   0.409   1.577   7.577 -0.1577 -0.3253  0.5594
    1AU     LIG  112   0.481   1.806   7.944  0.5042 -0.0457 -0.2743
    1AU     LIG  113   0.187   1.960   8.341  0.0178 -0.0912 -0.0911
    1AU     LIG  114   0.018   1.723   8.721 -0.1435  0.0312 -0.0867
    1AU     LIG  115   0.277   1.592   9.048 -0.1198  0.0174 -0.0666
    1AU       S  116   0.971   0.948   7.599 -0.1706  0.7574  0.0361
    1AU     LIG  117   0.534   1.010   7.728 -0.0569  0.1231 -0.3422
    1AU     LIG  118   0.099   1.173   7.800 -0.2255 -0.2408 -0.0239
    1AU     LIG  119   0.021   1.508   7.862 -0.0503 -0.1505 -0.0453
    1AU     LIG  120  -0.199   1.701   8.232 -0.0469 -0.1321  0.0113
    1AU    AUSL  121   1.239   1.188   7.160 -0.0513 -0.0631  0.0660
    1AU    AUSL  122   0.879   1.164   6.877  0.0041  0.0925 -0.1185
    1AU     AUL  123   0.817   0.972   7.149 -0.0124 -0.0143  0.0184
    1AU       S  124   0.836   0.596   6.864 -0.0963 -0.3162 -0.0694
    1AU     LIG  125   0.456   0.592   6.664 -0.1012  0.1534  0.0161
    1AU     LIG  126   0.378   0.160   6.599  0.2244  0.0616 -0.3865
    1AU     LIG  127   0.295  -0.380   6.556  0.2826 -0.1491 -0.2421
    1AU     LIG  128   0.597  -0.685   6.353  0.0939  0.1179 -0.1297
    1AU       S  129   1.265   0.966   7.367  0.2086  0.1067  0.2701
    1AU     LIG  130   1.584   0.694   7.259  0.0699  0.0713 -0.1254
    1AU     LIG  131   1.945   0.448   7.194  0.2970 -0.4955  0.1140
    1AU     LIG  132   1.983   0.116   7.276 -0.2171 -0.0253  0.3878
    1AU     LIG  133   1.818  -0.265   7.262  0.0777  0.0812 -0.1651
    1AU    AUSL  134   1.672   2.208   5.931  0.0461 -0.0091  0.0381
    1AU    AUSL  135   1.933   2.182   6.312 -0.1761  0.0564  0.0347
    1AU     AUL  136   2.025   2.377   5.999  0.0618  0.0092  0.1141
    1AU       S  137   1.595   2.595   5.769  0.0233 -0.2861 -0.0734
    1AU     LIG  138   1.990   2.411   5.564  0.2530 -0.2502  0.1106
    1AU     LIG  139   2.466   2.525   5.761  0.4386 -0.2672  0.1097
    1AU     LIG  140   2.681   2.439   5.956 -0.0174  0.0923 -0.4518
    1AU     LIG  141   2.693   2.536   6.336  0.2384 -0.3997 -0.3427
    1AU       S  142   2.334   1.982   6.025  0.3294  0.0730  0.1265
    1AU     LIG  143   2.582   2.027   5.699  0.1151 -0.4085 -0.3019
    1AU     LIG  144   2.708   2.275   5.438  0.0044  0.0283  0.1765
    1AU     LIG  145   3.058   2.508   5.435  0.3237  0.0219 -0.0292
    1AU     LIG  146   3.559   2.371   5.388  0.0334 -0.1184 -0.2569
    1AU    AUSL  147   1.342   2.331   6.192 -0.0932  0.0562 -0.0968
    1AU    AUSL  148   1.239   2.145   5.793  0.0043  0.0187 -0.0079
    1AU     AUL  149   1.495   2.160   5.706  0.0561 -0.0063 -0.0162
    1AU       S  150   1.111   2.417   5.550  0.2818  0.3118  0.2459
    1AU     LIG  151   1.468   2.531   5.303  0.0797 -0.1497  0.2159
    1AU     LIG  152   1.872   2.461   5.084 -0.2129  0.1602 -0.1142
    1AU     LIG  153   2.239   2.166   5.105  0.0413 -0.1222 -0.2604
    1AU     LIG  154   2.642   1.896   5.163 -0.0445 -0.2072  0.0040
    1AU       S  155   1.384   2.668   5.925 -0.1971  0.3142  0.0187
    1AU     LIG  156   1.434   3.143   5.878  0.1642 -0.0968 -0.2013
    1AU     LIG  157   1.516   3.380   6.132  0.0883  0.0792 -0.0981
    1AU     LIG  158   1.881   3.192   6.517  0.2542 -0.1855  0.1793
    1AU     LIG  159   2.186   3.289   6.819  0.4598 -0.5498  0.0613
    1AU    AUSL  160   1.068   1.004   6.517 -0.0341 -0.1393  0.0376
    1AU    AUSL  161   0.678   1.276   6.510  0.0413 -0.0455  0.0126
    1AU     AUL  162   0.634   0.994   6.687  0.0965 -0.0372  0.1202
    1AU       S  163   0.947   0.572   6.675  0.0155 -0.1191 -0.0599
    1AU     LIG  164   1.134   0.230   6.622  0.0190 -0.1831 -0.1507
    1AU     LIG  165   1.206  -0.136   6.336  0.0769  0.3706 -0.0316
    1AU     LIG  166   1.080  -0.566   6.503 -0.0707  0.1342 -0.0629
    1AU     LIG  167   1.290  -0.976   6.310  0.0510 -0.4324  0.2048
    1AU       S  168   0.582   0.976   6.209 -0.2255  0.5766  0.1357
    1AU     LIG  169   0.289   0.572   6.050 -0.0006 -0.1095 -0.1978
    1AU     LIG  170   0.110   0.206   6.146 -0.3447 -0.0105 -0.3496
    1AU     LIG  171  -0.114  -0.097   6.368  0.3155  0.0057  0.0655
    1AU     LIG  172  -0.425  -0.477   6.189  0.1742 -0.1572  0.0145
    1AU    AUSL  173   1.255   0.859   6.906 -0.0621 -0.1000 -0.0952
    1AU    AUSL  174   1.462   0.946   6.342 -0.0213 -0.0544  0.0249
    1AU     AUL  175   1.354   0.725   6.551 -0.1130  0.0723  0.0264
    1AU       S  176   1.650   0.676   6.180 -0.1521  0.1415  0.2803
    1AU     LIG  177   1.656   0.179   6.370 -0.0373 -0.1564  0.0695
    1AU     LIG  178   1.800  -0.210   6.397  0.0033 -0.0374 -0.0771
    1AU     LIG  179   2.147  -0.521   6.465 -0.1645  0.0216  0.0473
    1AU     LIG  180   2.613  -0.596   6.654  0.0070  0.3314 -0.2321
    1AU       S  181   1.154   0.618   6.995  0.5306 -0.1762  0.0377
    1AU     LIG  182   1.556   0.402   6.833 -0.0076 -0.1494 -0.1341
    1AU     LIG  183   1.667   0.005   6.816  0.4646 -0.1154  0.2037
    1AU     LIG  184   1.580  -0.411   6.814  0.0449 -0.3468  0.2753
    1AU     LIG  185   1.701  -0.730   6.523  0.1867  0.0857 -0.1168
    1AU    AUSL  186   1.660   2.163   7.480 -0.0171  0.0983 -0.0512
    1AU    AUSL  187   1.407   1.771   7.620  0.0084 -0.0176  0.0367
    1AU     AUL  188   1.642   2.080   7.845  0.0392  0.0772  0.0083
    1AU       S  189   1.640   1.636   7.762 -0.1617 -0.2905  0.0889
    1AU     LIG  190   1.439   1.475   8.185 -0.3660 -0.3762 -0.2472
    1AU     LIG  191   1.110   1.672   8.457 -0.0607  0.1703  0.2430
    1AU     LIG  192   0.820   2.062   8.306 -0.0443  0.1622 -0.2195
    1AU     LIG  193   0.574   2.385   8.050 -0.3078  0.2756  0.3558
    1AU       S  194   1.507   2.573   7.605  0.0456  0.0419  0.2036
    1AU     LIG  195   1.619   2.714   8.047  0.1433  0.2166  0.0074
    1AU     LIG  196   1.441   2.790   8.449 -0.1356  0.2456  0.0112
    1AU     LIG  197   1.499   3.154   8.721  0.1149 -0.1326 -0.2087
    1AU     LIG  198   1.412   3.585   8.485 -0.1540  0.4670  0.2201
    1AU    AUSL  199   1.225   2.151   7.575  0.0538  0.0014  0.0115
    1AU    AUSL  200   0.970   2.438   7.362  0.0037  0.0449  0.0599
    1AU     AUL  201   0.937   2.309   7.709  0.1550  0.0260  0.0119
    1AU       S  202   1.360   2.454   7.689  0.3633 -0.0115 -0.2345
    1AU     LIG  203   1.098   2.808   7.807 -0.1153  0.3236  0.0295
    1AU     LIG  204   1.046   3.168   7.671 -0.2722 -0.1237  0.1633
    1AU     LIG  205   1.202   3.534   7.397 -0.1370 -0.1381 -0.2685
    1AU     LIG  206   1.662   3.693   7.424  0.0633 -0.5747  0.0833
    1AU       S  207   0.592   2.605   7.525  0.0274  0.0490  0.0921
    1AU     LIG  208   0.080   2.721   7.465 -0.2931  0.3369 -0.2038
    1AU     LIG  209  -0.330   2.955   7.497 -0.1550  0.2502 -0.1653
    1AU     LIG  210  -0.706   2.896   7.563 -0.4129 -0.2275  0.1800
    1AU     LIG  211  -1.119   2.797   7.481  0.2707  0.0262 -0.0801
    1AU    AUSL  212   1.367   2.348   7.199 -0.0642  0.0291  0.0079
    1AU    AUSL  213   1.814   2.219   7.071  0.0477 -0.0523  0.1120
    1AU     AUL  214   1.817   2.395   7.325 -0.1101  0.0772 -0.0167
    1AU       S  215   2.138   2.726   7.190  0.2523 -0.2222 -0.2484
    1AU     LIG  216   2.438   2.644   7.384 -0.0247 -0.3933 -0.1475
    1AU     LIG  217   2.774   2.350   7.263  0.0906 -0.2607 -0.0315
    1AU     LIG  218   2.866   2.291   6.839  0.4005 -0.3832 -0.0328
    1AU     LIG  219   3.155   2.361   6.478 -0.4828  0.1573 -0.0628
    1AU       S  220   1.392   2.628   7.410 -0.2123  0.5042 -0.0306
    1AU     LIG  221   1.274   2.991   7.288  0.0892  0.1902  0.2058
    1AU     LIG  222   0.988   3.229   7.139 -0.1821  0.1122 -0.2103
    1AU     LIG  223   0.899   3.351   6.777 -0.1672 -0.2000 -0.1330
    1AU     LIG  224   0.735   3.600   6.493  0.1503  0.1403  0.0445
    1AU    AUSL  225   1.901   1.438   6.234  0.0157 -0.0438 -0.1066
    1AU    AUSL  226   1.864   1.837   6.032 -0.0222  0.0058 -0.0492
    1AU     AUL  227   2.123   1.503   5.962 -0.0513 -0.0153 -0.0474
    1AU       S  228   2.049   1.951   5.817  0.0488  0.1428 -0.1481
    1AU     LIG  229   2.285   1.789   5.429  0.2550 -0.1866 -0.0543
    1AU     LIG  230   2.070   1.643   5.077  0.3320  0.2617  0.1820
    1AU     LIG  231   1.627   1.575   5.044 -0.0115 -0.1292  0.0573
    1AU     LIG  232   1.474   1.217   5.138  0.0317 -0.4686 -0.1245
    1AU       S  233   2.265   1.316   6.337  0.1391  0.1022 -0.3455
    1AU     LIG  234   2.463   1.101   6.254 -0.0577 -0.1061  0.1058
    1AU     LIG  235   2.744   0.842   6.377 -0.2747 -0.3391  0.0562
    1AU     LIG  236   3.149   0.830   6.541 -0.0872 -0.0382 -0.1874
    1AU     LIG  237   3.603   0.582   6.593  0.1837 -0.1487 -0.0882
    1AU    AUSL  238   1.468   1.321   6.169  0.0378 -0.0066 -0.0119
    1AU    AUSL  239   1.871   1.101   6.469  0.0711 -0.0292  0.0729
    1AU     AUL  240   1.784   1.105   6.106 -0.0896  0.0898 -0.0625
    1AU       S  241   1.212   0.842   5.974  0.0998 -0.2920  0.1873
    1AU     LIG  242   1.526   0.742   5.676  0.2053  0.1913 -0.4176
    1AU     LIG  243   1.918   0.571   5.732  0.0148 -0.1350 -0.1486
    1AU     LIG  244   2.250   0.801   5.889 -0.1947 -0.0616  0.1052
    1AU     LIG  245   2.777   0.860   5.869 -0.1366 -0.2658 -0.1710
    1AU       S  246   2.035   0.855   6.419 -0.2083 -0.2400  0.1764
    1AU     LIG  247   2.349   0.511   6.346  0.1642  0.1375  0.0656
    1AU     LIG  248   2.367   0.070   6.325 -0.0178 -0.2225  0.0113
    1AU     LIG  249   2.541  -0.287   6.194 -0.0468  0.2110  0.2549
    1AU     LIG  250   2.621  -0.425   5.789 -0.3366 -0.1787 -0.1170
    1AU    AUSL  251   1.650   1.527   5.837  0.0061 -0.0133  0.0127
    1AU    AUSL  252   1.199   1.305   5.843 -0.0195 -0.0624  0.0305
    1AU     AUL  253   1.461   1.204   5.808 -0.0387 -0.0164  0.0792
    1AU       S  254   1.231   1.514   5.510  0.3647  0.0429 -0.0151
    1AU     LIG  255   1.117   0.968   5.452  0.1783  0.1799  0.0442
    1AU     LIG  256   1.030   0.509   5.292 -0.0522 -0.0148 -0.3420
    1AU     LIG  257   1.055   0.311   4.899 -0.2192  0.1801 -0.0431
    1AU     LIG  258   1.047  -0.089   4.583  0.0627  0.2038 -0.0284
    1AU       S  259   1.753   1.579   5.651  0.0520 -0.2443  0.1967
    1AU     LIG  260   1.766   1.853   5.414 -0.1971 -0.2935  0.2341
    1AU     LIG  261   1.606   2.073   5.132  0.4012  0.0862 -0.0550
    1AU     LIG  262   1.461   2.229   4.873 -0.2030  0.0012  0.1971
    1AU     LIG  263   1.294   2.175   4.431  0.2511  0.0148  0.4217
    1AU    AUSL  264   0.636   2.271   7.130 -0.0143  0.0219  0.0075
    1AU    AUSL  265   1.018   2.445   6.908  0.0321 -0.0177 -0.0279
    1AU     AUL  266   0.928   2.648   7.173 -0.0609 -0.0426 -0.0404
    1AU       S  267   0.433   2.403   7.229 -0.2008  0.0691  0.1027
    1AU     LIG  268   0.022   2.129   7.271  0.2905  0.1942 -0.1039
    1AU     LIG  269  -0.275   1.915   7.396  0.4478 -0.0570  0.4029
    1AU     LIG  270  -0.494   1.638   7.526  0.0087 -0.2034  0.2460
    1AU     LIG  271  -0.683   1.529   7.871 -0.1685 -0.2138 -0.0968
    1AU       S  272   0.549   2.811   6.973 -0.0055  0.0635 -0.0159
    1AU     LIG  273   0.064   3.027   7.072 -0.0535 -0.1479  0.2721
    1AU     LIG  274  -0.265   2.920   6.983 -0.0597 -0.0838  0.3153
    1AU     LIG  275  -0.623   2.829   6.776 -0.1165 -0.1197 -0.1669
    1AU     LIG  276  -1.071   2.840   6.852  0.1536 -0.1281 -0.2648
    1AU    AUSL  277   0.956   2.018   7.293  0.0020 -0.0582 -0.0018
    1AU    AUSL  278   0.451   1.893   7.229  0.0083  0.0834 -0.0071
    1AU     AUL  279   0.652   2.022   7.519 -0.0065  0.1053  0.1038
    1AU       S  280   0.527   2.473   7.551 -0.3662  0.0074  0.1374
    1AU     LIG  281   0.197   2.219   7.745  0.0590  0.0868  0.0509
    1AU     LIG  282  -0.203   2.025   7.841 -0.4105  0.1604  0.1454
    1AU     LIG  283  -0.599   2.009   7.820 -0.0784  0.2628 -0.1242
    1AU     LIG  284  -0.848   1.962   8.208 -0.0000 -0.1548  0.0666
    1AU       S  285   0.260   1.731   7.484 -0.3054 -0.1363  0.0231
    1AU     LIG  286  -0.068   1.471   7.295  0.2093 -0.2428  0.3095
    1AU     LIG  287  -0.460   1.433   6.990 -0.0131 -0.3357  0.3639
    1AU     LIG  288  -0.557   1.660   6.566 -0.0425  0.4070  0.3165
    1AU     LIG  289  -0.546   1.711   6.121 -0.1027  0.1782  0.2940
    1AU    AUSL  290   0.887   1.625   5.893  0.0198 -0.0707 -0.1331
    1AU    AUSL  291   0.978   1.267   6.195  0.0983 -0.0665  0.0802
    1AU     AUL  292   0.884   1.244   5.808  0.0251 -0.0791  0.0341
    1AU       S  293   0.789   0.982   6.138 -0.0562  0.2497 -0.3675
    1AU     LIG  294   0.768   0.515   6.168 -0.1826 -0.0887 -0.0989
    1AU     LIG  295   0.786   0.159   6.303 -0.2076 -0.0853 -0.2625
    1AU     LIG  296   0.797  -0.202   6.656  0.0654  0.1236  0.0862
    1AU     LIG  297   0.622  -0.498   6.990 -0.3415 -0.0482 -0.0324
    1AU       S  298   1.053   1.565   5.462 -0.0778  0.0234 -0.2424
    1AU     LIG  299   1.090   1.532   5.051  0.0439 -0.2884  0.0211
    1AU     LIG  300   1.194   1.420   4.709 -0.3787 -0.0326  0.0963
    1AU     LIG  301   1.444   1.124   4.664  0.1900 -0.0318 -0.0049
    1AU     LIG  302   1.560   0.936   4.318 -0.2383  0.2854 -0.1107
    1AU    AUSL  303   1.316   1.748   5.939  0.0526 -0.0233  0.0637
    1AU    AUSL  304   0.946   2.020   6.079 -0.0410 -0.0342  0.0714
    1AU     AUL  305   0.952   1.936   5.728  0.0142 -0.0027 -0.0346
    1AU       S  306   0.910   2.432   5.595  0.0169 -0.0626 -0.2083
    1AU     LIG  307   0.449   2.504   5.570  0.0410  0.2963  0.0994
    1AU     LIG  308   0.048   2.472   5.601 -0.3494  0.3085  0.0992
    1AU     LIG  309  -0.294   2.148   5.505  0.2500 -0.0886  0.2340
    1AU     LIG  310  -0.502   1.722   5.636 -0.0818 -0.2992 -0.1398
    1AU       S  311   1.297   1.668   5.524 -0.5768 -0.2689 -0.0236
    1AU     LIG  312   1.131   2.010   5.279 -0.1409 -0.2982 -0.1163
    1AU     LIG  313   0.665   2.166   5.292  0.1756  0.1059  0.0158
    1AU     LIG  314   0.397   2.031   5.558 -0.0715  0.2025  0.4198
    1AU     LIG  315   0.319   1.617   5.719  0.0629 -0.2578  0.5048
    1AU    AUSL  316   2.077   2.081   6.711 -0.0463  0.0368 -0.1215
    1AU    AUSL  317   2.118   1.795   6.379  0.0140  0.0224 -0.0507
    1AU     AUL  318   2.258   2.218   6.428  0.0030  0.0870 -0.1451
    1AU       S  319   2.329   1.785   6.248 -0.1899  0.1987 -0.0694
    1AU     LIG  320   2.606   1.555   5.945 -0.1579  0.1269 -0.2800
    1AU     LIG  321   2.475   1.256   5.670  0.1056  0.4588  0.0425
    1AU     LIG  322   2.476   0.808   5.440  0.1393  0.1367  0.4595
    1AU     LIG  323   2.383   0.446   5.563  0.1183  0.2196 -0.1638
    1AU       S  324   2.469   2.040   6.793 -0.1333  0.1944  0.0655
    1AU     LIG  325   2.727   2.059   6.444 -0.1100 -0.0973  0.2758
    1AU     LIG  326   2.960   2.088   6.040 -0.1933  0.0066 -0.0697
    1AU     LIG  327   3.241   2.406   5.872 -0.0164  0.1214  0.0888
    1AU     LIG  328   3.112   2.718   6.136 -0.0140 -0.1353 -0.5280
    1AU    AUSL  329   2.216   1.641   6.763  0.1236 -0.0228 -0.0403
    1AU    AUSL  330   2.015   1.485   7.167  0.0746 -0.0051 -0.0015
    1AU     AUL  331   2.385   1.543   7.159  0.0382  0.0358 -0.0654
    1AU       S  332   2.450   1.739   6.746 -0.0591  0.4892 -0.1599
    1AU     LIG  333   2.757   1.506   6.392 -0.0383  0.2424 -0.3524
    1AU     LIG  334   3.073   1.269   6.344  0.2393  0.1377  0.1752
    1AU     LIG  335   3.321   0.935   6.086 -0.3581 -0.0338  0.3127
    1AU     LIG  336   3.187   0.459   6.207  0.0921  0.1650 -0.2184
    1AU       S  337   2.166   1.131   6.955 -0.1611 -0.3200 -0.0835
    1AU     LIG  338   2.431   1.101   7.378 -0.3506  0.1225 -0.0304
    1AU     LIG  339   2.758   0.858   7.670 -0.2530 -0.3236  0.2027
    1AU     LIG  340   2.999   0.779   7.989 -0.2442  0.1744  0.0292
    1AU     LIG  341   3.011   0.422   8.261  0.2723 -0.0411  0.4164
    1AU    AUSL  342   2.113   1.919   7.126  0.0304  0.0240  0.0285
    1AU    AUSL  343   1.993   2.489   6.779 -0.0042  0.0485 -0.0036
    1AU     AUL  344   2.167   2.293   7.046 -0.0157 -0.0360 -0.0671
    1AU       S  345   2.098   2.773   6.979 -0.3613 -0.4279 -0.4744
    1AU     LIG  346   2.511   2.592   6.775 -0.1570  0.0458 -0.3341
    1AU     LIG  347   2.991   2.765   6.736  0.2506 -0.3025 -0.0528
    1AU     LIG  348   3.235   3.011   6.620 -0.1033 -0.0793  0.2667
    1AU     LIG  349   3.515   3.032   6.936  0.0832 -0.3343 -0.0316
    1AU       S  350   2.518   1.993   7.013  0.0536 -0.1479  0.0390
    1AU     LIG  351   2.880   1.707   6.900 -0.0575 -0.4174  0.4250
    1AU     LIG  352   3.192   1.826   6.591  0.2207  0.1149  0.0413
    1AU     LIG  353   3.454   1.603   6.256 -0.1286  0.2569  0.1170
    1AU     LIG  354   3.646   1.357   5.916 -0.1714  0.0384  0.0805
    1AU    AUSL  355   0.673   2.337   6.284  0.0941  0.0417  0.0768
    1AU    AUSL  356   0.596   2.418   6.733 -0.0331  0.0743  0.0482
    1AU     AUL  357   0.622   2.638   6.354  0.0517 -0.0057  0.0555
    1AU       S  358   0.250   2.405   6.136  0.0003  0.6120  0.1372
    1AU     LIG  359  -0.060   2.752   6.001  0.1503  0.1105 -0.0505
    1AU     LIG  360  -0.423   2.913   6.094  0.1657  0.1288 -0.1107
    1AU     LIG  361  -0.693   3.171   6.330  0.3807 -0.0292 -0.1422
    1AU     LIG  362  -0.883   3.290   6.806  0.0029  0.0919 -0.0347
    1AU       S  363   0.467   2.573   6.805  0.1415 -0.4679 -0.3629
    1AU     LIG  364   0.097   2.456   6.889  0.2133  0.1407  0.0946
    1AU     LIG  365  -0.292   2.464   6.597  0.0793 -0.0234  0.2972
    1AU     LIG  366  -0.664   2.585   6.339  0.1615 -0.1018 -0.1708
    1AU     LIG  367  -0.905   2.514   6.077 -0.0044 -0.0752 -0.1719
    1AU    AUSL  368   0.528   1.948   6.096 -0.0083 -0.0541  0.0664
    1AU    AUSL  369   0.981   2.481   6.051  0.0586 -0.1088  0.0683
    1AU     AUL  370   0.666   2.245   5.926 -0.0085  0.1514 -0.0806
    1AU       S  371   0.172   2.186   6.009  0.0883 -0.2787  0.3246
    1AU     LIG  372  -0.093   1.903   5.877  0.3385 -0.3915 -0.2029
    1AU     LIG  373  -0.129   1.476   6.193  0.2521 -0.1738 -0.0654
    1AU     LIG  374  -0.339   1.176   6.403 -0.1646  0.0400 -0.2000
    1AU     LIG  375  -0.721   1.151   6.650 -0.5952 -0.1231  0.0383
    1AU       S  376   0.935   2.563   5.755  0.1089  0.2366  0.1982
    1AU     LIG  377   0.888   3.000   5.857  0.2818 -0.2678  0.0566
    1AU     LIG  378   0.957   3.475   6.052  0.0129 -0.1790  0.0122
    1AU     LIG  379   1.017   3.933   6.026  0.2837 -0.0784  0.1100
    1AU     LIG  380   1.290   4.045   5.740  0.1434 -0.0815  0.0199
    1AU    AUSL  381   0.371   2.110   6.487 -0.0149 -0.0743  0.0342
    1AU    AUSL  382   0.615   1.719   6.453 -0.0128 -0.0914  0.0276
    1AU     AUL  383   0.305   1.823   6.282  0.0113  0.0519 -0.0282
    1AU       S  384   0.065   1.814   6.679  0.2535  0.0830 -0.2624
    1AU     LIG  385  -0.217   1.974   6.427 -0.2024 -0.0982  0.2187
    1AU     LIG  386  -0.342   2.266   6.147 -0.1545  0.2128 -0.0393
    1AU     LIG  387  -0.698   2.112   5.790 -0.1060  0.1824 -0.1473
    1AU     LIG  388  -1.031   2.304   5.654  0.0461  0.1922  0.0272
    1AU       S  389   0.215   2.291   6.409  0.2949  0.1202 -0.1719
    1AU     LIG  390   0.134   2.790   6.469  0.3310 -0.1838  0.2561
    1AU     LIG  391  -0.143   3.105   6.474 -0.1151 -0.4425 -0.1932
    1AU     LIG  392  -0.372   3.461   6.739 -0.1284  0.1534 -0.0915
    1AU     LIG  393  -0.476   3.949   6.758 -0.1396 -0.0753 -0.1284
    1AU    AUSL  394   1.726   1.151   7.087  0.0254  0.1615  0.0061
    1AU    AUSL  395   1.696   1.765   7.312  0.0487  0.0262 -0.0441
    1AU     AUL  396   1.881   1.295   7.405  0.0051  0.0695  0.0525
    1AU       S  397   2.079   0.963   7.129  0.1151 -0.2302  0.1301
    1AU     LIG  398   2.309   0.676   6.815 -0.3231 -0.4619  0.2330
    1AU     LIG  399   2.673   0.466   6.697  0.2091  0.1941 -0.1237
    1AU     LIG  400   3.074   0.317   6.733 -0.0725  0.2186  0.1247
    1AU     LIG  401   3.344  -0.032   6.572  0.3484  0.1270  0.0735
    1AU       S  402   1.896   1.752   7.583  0.0650  0.2034  0.1486
    1AU     LIG  403   2.179   2.118   7.549 -0.2520 -0.1456 -0.0254
    1AU     LIG  404   2.451   2.296   7.818  0.2080 -0.1725  0.1727
    1AU     LIG  405   2.821   2.470   7.856 -0.1596 -0.0806 -0.0845
    1AU     LIG  406   3.052   2.707   8.270 -0.2458  0.2895 -0.2023
    1AU    AUSL  407   1.860   1.431   6.753 -0.0352 -0.0424 -0.0507
    1AU    AUSL  408   1.521   1.154   6.720  0.0319 -0.0318 -0.0953
    1AU     AUL  409   1.715   0.956   6.802 -0.0452  0.0149 -0.0136
    1AU       S  410   2.160   1.182   6.814 -0.5985 -0.2406  0.3236
    1AU     LIG  411   2.619   1.147   6.698  0.1691 -0.0059  0.0147
    1AU     LIG  412   3.078   1.221   6.881  0.0312 -0.1097  0.0099
    1AU     LIG  413   3.379   1.578   7.035  0.1580 -0.0225 -0.1700
    1AU     LIG  414   3.667   1.545   7.434 -0.1140  0.0169 -0.0713
    1AU       S  415   1.813   0.616   6.451  0.1678 -0.3668  0.0873
    1AU     LIG  416   2.044   0.284   6.671  0.2615  0.2110 -0.3300
    1AU     LIG  417   2.106  -0.099   6.795 -0.0816 -0.1211 -0.0112
    1AU     LIG  418   2.076  -0.521   6.961 -0.4834 -0.0856  0.1153
    1AU     LIG  419   2.276  -0.817   6.987 -0.0384 -0.1827  0.0860
    1AU    AUSL  420   0.397   1.487   6.763 -0.0562 -0.0730 -0.0537
    1AU    AUSL  421   0.564   1.456   6.133  0.0977 -0.0410  0.0434
    1AU     AUL  422   0.369   1.378   6.431 -0.1173  0.0085  0.0646
    1AU       S  423   0.459   1.162   6.049 -0.2432  0.1628  0.1730
    1AU     LIG  424   0.121   0.957   6.348 -0.1423  0.0936  0.0150
    1AU     LIG  425  -0.024   0.598   6.586  0.4311  0.0210  0.0176
    1AU     LIG  426  -0.350   0.320   6.580  0.0570 -0.2977  0.2360
    1AU     LIG  427  -0.586  -0.109   6.524  0.0659 -0.1655  0.0442
    1AU       S  428   0.002   1.502   6.717  0.0575 -0.1213  0.1787
    1AU     LIG  429  -0.080   1.061   6.876 -0.0272 -0.1918  0.1603
    1AU     LIG  430  -0.433   0.772   6.830  0.0313 -0.1330  0.1278
    1AU     LIG  431  -0.981   0.725   6.796 -0.1773 -0.0778 -0.1922
    1AU     LIG  432  -1.281   0.579   6.738 -0.2334  0.3248 -0.0251
    1AU    AUSL  433   0.543   1.914   6.827  0.0353 -0.0954 -0.0787
    1AU    AUSL  434   0.707   1.556   7.060  0.0204  0.0794 -0.0652
    1AU     AUL  435   0.307   1.642   7.034 -0.0162 -0.0229  0.0087
    1AU       S  436   0.084   1.971   6.835  0.2506  0.0909 -0.0250
    1AU     LIG  437  -0.332   2.054   6.914  0.2641  0.0324  0.0662
    1AU     LIG  438  -0.691   2.185   6.692 -0.0978 -0.1011  0.0655
    1AU     LIG  439  -1.051   2.372   6.600 -0.3531 -0.3949  0.2614
    1AU     LIG  440  -1.467   2.363   6.453  0.4105 -0.1642  0.1401
    1AU       S  441   0.400   1.387   7.402 -0.1591  0.2153 -0.6560
    1AU     LIG  442   0.353   1.100   7.096  0.0078 -0.2300  0.0773
    1AU     LIG  443   0.382   0.717   7.159 -0.2108  0.1504  0.4707
    1AU     LIG  444   0.766   0.530   7.437  0.5306  0.6766  0.0301
    1AU     LIG  445   1.121   0.499   7.492 -0.0457  0.3191  0.3945
    2POPC   NC3  446   4.374   5.170   8.407  0.0440  0.1547  0.1285
    2POPC   PO4  447   4.424   5.602   8.273 -0.0852  0.0242  0.4429
    2POPC   GL1  448   4.258   5.390   7.980  0.2833 -0.1571 -0.3017
    2POPC   GL2  449   4.160   5.637   7.725  0.0899 -0.2018  0.0680
    2POPC   C1A  450   4.121   5.123   7.553  0.2467 -0.0430  0.1820
    2POPC   D2A  451   4.195   5.028   7.129 -0.1504  0.1708 -0.4051
    2POPC   C3A  452   4.077   4.618   6.877  0.0473 -0.0904  0.0334
    2POPC   C4A  453   4.197   4.162   6.785  0.5136 -0.2240 -0.0919
    2POPC   C1B  454   4.282   5.908   7.337 -0.0342  0.3686  0.0388
    2POPC   C2B  455   4.673   5.986   7.024 -0.1224 -0.0590  0.0735
    2POPC   C3B  456   5.052   6.065   6.752 -0.4749  0.3626 -0.2549
    2POPC   C4B  457   5.309   6.372   6.604 -0.1546  0.0151  0.1700
    3POPC   NC3  458   4.279   1.821   8.743  0.0514  0.0615 -0.2597
    3POPC   PO4  459   4.129   2.295   8.785 -0.1354  0.1421  0.2947
    3POPC   GL1  460   4.017   2.175   8.362 -0.2828 -0.1615 -0.1712
    3POPC   GL2  461   4.020   1.798   8.310  0.0254  0.1230  0.2356
    3POPC   C1A  462   3.693   2.152   8.013 -0.3390  0.1306 -0.0162
    3POPC   D2A  463   3.699   2.042   7.655 -0.2694 -0.0866 -0.1211
    3POPC   C3A  464   3.343   2.066   7.500  0.1052 -0.2717  0.1230
    3POPC   C4A  465   3.275   2.090   7.047  0.1404  0.1301  0.0751
    3POPC   C1B  466   4.073   1.456   7.957 -0.2441 -0.1049  0.1266
    3POPC   C2B  467   3.911   1.130   7.749 -0.1535  0.0489 -0.0081
    3POPC   C3B  468   3.951   0.784   7.442  0.0632 -0.2032  0.0909
    3POPC   C4B  469   3.786   0.671   7.050  0.0840  0.2820  0.0230
    4POPC   NC3  470   9.213   7.039   8.842  0.2441 -0.0059 -0.2125
    4POPC   PO4  471   9.522   7.134   8.789 -0.0027  0.2316  0.1570
    4POPC   GL1  472   9.601   7.232   8.378 -0.0565  0.0032 -0.0141
    4POPC   GL2  473   9.544   7.007   8.282  0.2759  0.0207  0.0530
    4POPC   C1A  474   9.582   7.543   8.028  0.0045 -0.1181  0.2583
    4POPC   D2A  475   9.308   7.724   7.694  0.1058 -0.2700 -0.0272
    4POPC   C3A  476   9.538   7.726   7.290 -0.2795  0.1856 -0.2998
    4POPC   C4A  477   9.960   7.679   6.995  0.1017  0.2187  0.0002
    4POPC   C1B  478   9.352   7.198   7.796  0.1937  0.0649  0.0149
    4POPC   C2B  479   9.242   7.303   7.444  0.0448  0.1032  0.1404
    4POPC   C3B  480   9.316   7.435   6.950  0.2214 -0.0336 -0.2965
    4POPC   C4B  481   9.070   7.241   6.516 -0.0338 -0.0398 -0.2054
    5POPC   NC3  482   1.638   7.882   8.457 -0.3088  0.2322  0.2783
    5POPC   PO4  483   1.366   8.178   8.501 -0.0582  0.0294 -0.2385
    5POPC   GL1  484   1.349   8.338   8.120 -0.3183  0.0210  0.0684
    5POPC   GL2  485   1.146   8.521   8.080 -0.2584 -0.4128  0.0331
    5POPC   C1A  486   1.241   8.294   7.641  0.0961  0.5706 -0.3033
    5POPC   D2A  487   1.207   8.217   7.247  0.0534 -0.0272  0.3527
    5POPC   C3A  488   0.954   8.127   6.849 -0.3107 -0.0923 -0.3128
    5POPC   C4A  489   1.079   8.371   6.493  0.0270 -0.2207 -0.0278
    5POPC   C1B  490   1.302   8.773   7.789 -0.1210 -0.3032  0.2582
    5POPC   C2B  491   1.560   9.134   7.705  0.0012  0.0053 -0.0872
    5POPC   C3B  492   1.410   9.339   7.313  0.0725 -0.2458 -0.1517
    5POPC   C4B  493   1.134   9.607   6.991  0.2880 -0.1742 -0.1420
    6POPC   NC3  494   1.887   6.547   8.628 -0.3772 -0.0332 -0.0880
    6POPC   PO4  495   2.223   6.422   8.453  0.1528  0.0103 -0.1971
    6POPC   GL1  496   2.127   6.318   8.008 -0.1733  0.0428 -0.0125
    6POPC   GL2  497   2.133   6.061   7.904  0.3816 -0.0764 -0.1134
    6POPC   C1A  498   2.137   6.485   7.574 -0.3069  0.0496 -0.2805
    6POPC   D2A  499   2.186   6.855   7.291  0.1500 -0.1046  0.2418
    6POPC   C3A  500   2.175   6.887   6.826 -0.3143  0.1452 -0.2602
    6POPC   C4A  501   2.026   6.797   6.351  0.1884  0.1036 -0.2182
    6POPC   C1B  502   2.262   5.907   7.502  0.0686 -0.0424  0.2353
    6POPC   C2B  503   2.150   5.918   7.071 -0.0443  0.2213 -0.1331
    6POPC   C3B  504   2.093   5.727   6.635  0.0164 -0.0272 -0.1405
    6POPC   C4B  505   2.227   5.990   6.370  0.0162 -0.1754 -0.1677
    7POPC   NC3  506   3.639   2.454   8.898  0.1006 -0.3966 -0.1563
    7POPC   PO4  507   3.510   2.868   8.684 -0.0659 -0.2290 -0.1768
    7POPC   GL1  508   3.622   3.019   8.258 -0.2222  0.3925  0.0099
    7POPC   GL2  509   3.390   3.265   8.106  0.2864  0.1255 -0.0923
    7POPC   C1A  510   3.736   3.203   7.745  0.0511  0.3007 -0.1235
    7POPC   D2A  511   3.593   3.344   7.451 -0.0427  0.0713  0.3321
    7POPC   C3A  512   3.746   3.656   7.105 -0.1773 -0.3735 -0.2259
    7POPC   C4A  513   3.822   3.842   6.755 -0.0199 -0.4276  0.2232
    7POPC   C1B  514   3.149   3.371   7.644  0.0290 -0.2446  0.0873
    7POPC   C2B  515   2.989   3.255   7.195 -0.0482 -0.2565  0.2495
    7POPC   C3B  516   2.653   3.089   6.867 -0.0251  0.0081 -0.2172
    7POPC   C4B  517   2.652   3.030   6.404  0.1940  0.0108 -0.0650
    8POPC   NC3  518   3.538   3.768   8.714  0.0236  0.1984  0.0433
    8POPC   PO4  519   3.731   3.985   8.325 -0.0984  0.0587  0.0301
    8POPC   GL1  520   3.849   3.927   7.881 -0.1604  0.2958 -0.2116
    8POPC   GL2  521   4.012   4.109   7.886  0.2557 -0.2390 -0.1043
    8POPC   C1A  522   3.973   3.648   7.659 -0.1495  0.2222  0.0198
    8POPC   D2A  523   4.126   3.264   7.272 -0.1393  0.3383  0.2489
    8POPC   C3A  524   4.589   3.276   6.982  0.1464  0.0704  0.3535
    8POPC   C4A  525   4.986   3.302   6.873 -0.2445 -0.4151 -0.1563
    8POPC   C1B  526   4.101   4.029   7.395 -0.1450  0.0939  0.1018
    8POPC   C2B  527   4.451   4.178   7.204  0.1679  0.1086  0.0794
    8POPC   C3B  528   4.729   4.228   6.877 -0.0332 -0.1314  0.1705
    8POPC   C4B  529   4.745   4.205   6.477  0.2779  0.1927 -0.3486
    9POPC   NC3  530   8.902   9.047   8.797  0.0342 -0.2345  0.0835
    9POPC   PO4  531   9.135   8.744   8.907 -0.2504  0.0296  0.1354
    9POPC   GL1  532   9.332   9.005   8.589 -0.4485  0.0346 -0.1270
    9POPC   GL2  533   9.654   9.179   8.568  0.1237 -0.1113 -0.0792
    9POPC   C1A  534   9.373   9.282   8.179  0.1668 -0.0412 -0.0557
    9POPC   D2A  535   9.338   9.159   7.670  0.0318 -0.0923  0.0532
    9POPC   C3A  536   9.155   9.463   7.359 -0.2585 -0.1225 -0.0040
    9POPC   C4A  537   9.039   9.670   6.984 -0.1730 -0.0195 -0.2275
    9POPC   C1B  538   9.596   8.710   8.319  0.3295  0.1160 -0.0536
    9POPC   C2B  539   9.198   8.738   7.959  0.1410 -0.2115  0.0348
    9POPC   C3B  540   9.150   8.721   7.533  0.0335  0.2520  0.2839
    9POPC   C4B  541   8.959   8.606   7.221 -0.1770 -0.1266 -0.2272
   10POPC   NC3  542   2.425   0.037   9.056 -0.3050 -0.0127 -0.0239
   10POPC   PO4  543   2.250  -0.103   8.613 -0.0733 -0.1494 -0.1247
   10POPC   GL1  544   2.029   0.137   8.306 -0.1036 -0.0883 -0.0151
   10POPC   GL2  545   2.036   0.352   8.246  0.3226 -0.0973 -0.1543
   10POPC   C1A  546   1.711   0.028   8.029  0.0561 -0.1297 -0.1739
   10POPC   D2A  547   1.553  -0.268   7.729 -0.1630  0.3021  0.2664
   10POPC   C3A  548   1.195  -0.178   7.433  0.1096  0.1166  0.0267
   10POPC   C4A  549   1.284   0.116   7.113 -0.2384  0.0044  0.1741
   10POPC   C1B  550   1.713   0.582   8.132  0.1932  0.1623  0.0978
   10POPC   C2B  551   1.420   0.998   8.210 -0.2828 -0.0464  0.1494
   10POPC   C3B  552   1.018   1.140   8.154 -0.2325 -0.1995 -0.3774
   10POPC   C4B  553   0.736   1.432   8.117  0.1465 -0.0273  0.1362
   11POPC   NC3  554   8.609   6.424   8.424  0.1374  0.3406  0.3859
   11POPC   PO4  555   8.886   6.190   8.777 -0.2319 -0.0301  0.2507
   11POPC   GL1  556   9.137   6.211   8.389  0.1030 -0.1045  0.2250
   11POPC   GL2  557   9.386   6.500   8.268  0.0340  0.3573  0.0702
   11POPC   C1A  558   9.316   5.920   7.974 -0.0791 -0.0221 -0.2655
   11POPC   D2A  559   9.102   5.886   7.593 -0.1060  0.0128  0.2085
   11POPC   C3A  560   9.167   5.588   7.288 -0.0657 -0.2908  0.1688
   11POPC   C4A  561   9.435   5.423   7.136 -0.0291  0.0462 -0.2925
   11POPC   C1B  562   9.266   6.390   7.899 -0.2271 -0.0497  0.0838
   11POPC   C2B  563   9.142   6.463   7.479 -0.2828 -0.3320  0.0516
   11POPC   C3B  564   9.125   6.250   7.198 -0.0827  0.1097  0.1568
   11POPC   C4B  565   9.346   5.877   6.892 -0.0198  0.6063  0.1688
   12POPC   NC3  566   5.767   6.781   8.505  0.0685 -0.1604  0.0170
   12POPC   PO4  567   6.022   6.477   8.334  0.0081 -0.0225  0.2950
   12POPC   GL1  568   5.818   6.622   7.952  0.1178  0.2004  0.0886
   12POPC   GL2  569   5.499   6.682   8.071  0.3318  0.1214  0.1628
   12POPC   C1A  570   6.024   6.680   7.552 -0.0687  0.1973  0.1262
   12POPC   D2A  571   6.026   6.648   7.124  0.0092 -0.0221  0.2495
   12POPC   C3A  572   6.179   6.942   6.772  0.0847 -0.0700  0.2465
   12POPC   C4A  573   6.294   7.081   6.398 -0.0445  0.3954  0.2476
   12POPC   C1B  574   5.526   6.975   7.741 -0.0285  0.0616  0.1848
   12POPC   C2B  575   5.683   6.986   7.288 -0.2215 -0.1665 -0.2385
   12POPC   C3B  576   5.746   7.077   6.886  0.1705  0.0049 -0.2141
   12POPC   C4B  577   5.775   7.010   6.421 -0.0309 -0.1977  0.2848
   13POPC   NC3  578   9.840   6.320   8.492  0.0062 -0.1174  0.0769
   13POPC   PO4  579  10.120   6.066   8.652  0.2572  0.0363 -0.0194
   13POPC   GL1  580  10.089   6.111   8.132  0.0761 -0.2239  0.1208
   13POPC   GL2  581   9.814   6.063   8.075 -0.0651  0.0877  0.2222
   13POPC   C1A  582  10.055   5.947   7.670  0.1365  0.0159  0.0474
   13POPC   D2A  583  10.087   5.919   7.246  0.0039 -0.0199 -0.1242
   13POPC   C3A  584   9.796   5.701   7.005  0.1345 -0.0830  0.1583
   13POPC   C4A  585   9.722   5.451   6.658 -0.0982  0.2337  0.2668
   13POPC   C1B  586   9.738   6.345   7.707 -0.2313  0.1948 -0.0162
   13POPC   C2B  587   9.671   6.499   7.474  0.0128 -0.3560  0.2336
   13POPC   C3B  588   9.526   6.589   7.090  0.0918 -0.2915 -0.0806
   13POPC   C4B  589   9.151   6.425   6.749  0.1304  0.0697 -0.2806
   14POPC   NC3  590   8.176   9.473   8.668 -0.0653 -0.2946  0.1110
   14POPC   PO4  591   8.342   9.075   8.739 -0.3815 -0.3039  0.2644
   14POPC   GL1  592   8.241   9.019   8.401 -0.1855  0.2588 -0.2602
   14POPC   GL2  593   7.949   8.885   8.482 -0.2295  0.0376 -0.0959
   14POPC   C1A  594   8.424   9.178   8.052  0.0932  0.0738  0.1033
   14POPC   D2A  595   8.548   9.445   7.715 -0.2314  0.1818  0.4679
   14POPC   C3A  596   8.337   9.162   7.287  0.1174 -0.1702  0.2233
   14POPC   C4A  597   8.164   8.936   6.973 -0.1983 -0.0614  0.1959
   14POPC   C1B  598   7.981   8.724   8.055  0.2640 -0.3471 -0.0259
   14POPC   C2B  599   7.719   8.401   7.862  0.2103  0.2489 -0.0454
   14POPC   C3B  600   7.689   8.288   7.427  0.1083 -0.2158  0.2578
   14POPC   C4B  601   7.589   8.219   7.084 -0.1895  0.2543 -0.2105
   15POPC   NC3  602   7.866   9.178   8.879  0.3106 -0.0985 -0.0240
   15POPC   PO4  603   7.659   9.500   8.939  0.3742  0.0574 -0.0086
   15POPC   GL1  604   7.636   9.379   8.469 -0.0776 -0.2766  0.1599
   15POPC   GL2  605   7.404   9.262   8.237  0.1956 -0.1960 -0.2705
   15POPC   C1A  606   7.816   9.188   7.997  0.0671 -0.0170 -0.1726
   15POPC   D2A  607   8.027   9.064   7.657  0.1890 -0.1166 -0.2483
   15POPC   C3A  608   7.897   8.782   7.522  0.0236  0.0403  0.2608
   15POPC   C4A  609   7.750   8.785   7.150  0.0528 -0.1929  0.2656
   15POPC   C1B  610   7.315   9.458   7.874  0.0669  0.3047  0.1748
   15POPC   C2B  611   7.531   9.474   7.570 -0.4665 -0.6106  0.2114
   15POPC   C3B  612   8.037   9.476   7.470 -0.1190  0.2127 -0.2117
   15POPC   C4B  613   8.456   9.625   7.141 -0.0005  0.1804  0.1876
   16POPC   NC3  614   2.792   9.719   8.584 -0.0506 -0.2344 -0.3595
   16POPC   PO4  615   3.244   9.917   8.673 -0.3023 -0.0999 -0.0611
   16POPC   GL1  616   3.532   9.980   8.336  0.1328  0.1177  0.0653
   16POPC   GL2  617   3.768   9.847   8.335 -0.1101 -0.0340  0.0645
   16POPC   C1A  618   3.389  10.164   7.918  0.4152 -0.3376  0.2746
   16POPC   D2A  619   3.286  10.149   7.416  0.0120  0.0568 -0.0233
   16POPC   C3A  620   2.819  10.318   7.237 -0.3462  0.0288 -0.2706
   16POPC   C4A  621   2.408  10.158   7.093 -0.0414  0.1048 -0.0810
   16POPC   C1B  622   3.879  10.183   7.913  0.1109 -0.0194 -0.0934
   16POPC   C2B  623   3.734  10.275   7.482  0.0815  0.1765  0.0279
   16POPC   C3B  624   3.631  10.111   6.971 -0.3987  0.1087 -0.0688
   16POPC   C4B  625   3.802  10.051   6.559  0.1586  0.1544 -0.0567
   17POPC   NC3  626   2.714   8.507   8.839 -0.0982 -0.0651  0.3321
   17POPC   PO4  627   2.723   8.764   8.388  0.0577  0.1599 -0.0206
   17POPC   GL1  628   2.670   9.065   8.005 -0.0398  0.1497  0.0626
   17POPC   GL2  629   2.550   8.906   7.688 -0.0706 -0.2142 -0.1095
   17POPC   C1A  630   2.641   9.384   7.726 -0.0476  0.0754 -0.0926
   17POPC   D2A  631   2.386   9.501   7.447  0.1031  0.0888  0.2363
   17POPC   C3A  632   2.592   9.539   7.121  0.3133  0.1687 -0.2196
   17POPC   C4A  633   2.680   9.853   6.835  0.0479  0.4060  0.2885
   17POPC   C1B  634   2.698   9.140   7.290  0.2422  0.2251 -0.2527
   17POPC   C2B  635   3.011   9.369   7.277 -0.2148  0.5316 -0.1032
   17POPC   C3B  636   3.297   9.465   6.854  0.0059 -0.0858  0.0060
   17POPC   C4B  637   3.568   9.297   6.524 -0.6831  0.2666 -0.1726
   18POPC   NC3  638   1.990   9.457   8.363  0.2122 -0.2902  0.0116
   18POPC   PO4  639   2.231   9.072   8.249 -0.2067 -0.2334 -0.0207
   18POPC   GL1  640   2.183   9.208   7.832  0.0882 -0.1511 -0.2075
   18POPC   GL2  641   2.012   9.424   7.814 -0.1914  0.0108  0.2453
   18POPC   C1A  642   1.957   9.189   7.393 -0.3202  0.1457  0.2322
   18POPC   D2A  643   1.769   8.999   6.972 -0.3396  0.1057 -0.3970
   18POPC   C3A  644   2.026   8.802   6.718  0.1614 -0.0831  0.2827
   18POPC   C4A  645   2.152   8.820   6.307  0.2880  0.1965  0.0592
   18POPC   C1B  646   2.166   9.819   7.816 -0.2843  0.0028  0.1771
   18POPC   C2B  647   2.409  10.044   7.622 -0.0172  0.0018  0.0156
   18POPC   C3B  648   2.430  10.531   7.382  0.1634 -0.0153 -0.1590
   18POPC   C4B  649   2.726  10.769   7.068 -0.0444 -0.1175 -0.2383
   19POPC   NC3  650   8.000   4.333   8.714 -0.0196 -0.1199 -0.0220
   19POPC   PO4  651   7.683   3.989   8.582  0.0168 -0.2788 -0.0717
   19POPC   GL1  652   7.652   3.622   8.265  0.1699 -0.0044 -0.1638
   19POPC   GL2  653   7.676   3.915   8.061 -0.0912  0.1819  0.1358
   19POPC   C1A  654   7.374   3.407   7.998  0.1700  0.0933 -0.0014
   19POPC   D2A  655   6.996   3.237   7.845  0.0478  0.0144 -0.3217
   19POPC   C3A  656   6.620   3.419   7.724 -0.1725  0.3114 -0.3868
   19POPC   C4A  657   6.428   3.387   7.275  0.1407  0.1619  0.0070
   19POPC   C1B  658   7.692   3.765   7.630 -0.0643 -0.3855  0.1977
   19POPC   C2B  659   7.922   3.879   7.203  0.1400 -0.0532  0.0124
   19POPC   C3B  660   8.187   3.794   6.900 -0.2330  0.0387  0.3142
   19POPC   C4B  661   8.321   3.805   6.491  0.0058  0.1151 -0.1092
   20POPC   NC3  662   7.387   7.345   9.178 -0.1001 -0.2104 -0.0784
   20POPC   PO4  663   7.468   7.222   8.689  0.1163  0.0810 -0.0708
   20POPC   GL1  664   7.586   7.426   8.411 -0.1440 -0.0992  0.2330
   20POPC   GL2  665   7.794   7.526   8.310  0.2245  0.0964 -0.1376
   20POPC   C1A  666   7.264   7.521   8.102 -0.0518 -0.0437  0.3257
   20POPC   D2A  667   7.105   7.296   7.759  0.3813 -0.4357 -0.1307
   20POPC   C3A  668   7.273   7.319   7.413  0.0291  0.2431 -0.0614
   20POPC   C4A  669   7.653   7.215   7.201 -0.2093  0.0076  0.2337
   20POPC   C1B  670   7.740   7.389   7.854  0.0364 -0.0964  0.4278
   20POPC   C2B  671   8.159   7.402   7.552  0.2078  0.3779  0.4379
   20POPC   C3B  672   8.171   7.561   7.200 -0.0273  0.3446  0.0455
   20POPC   C4B  673   7.991   7.920   7.021  0.0185  0.3297 -0.0343
   21POPC   NC3  674   6.653   3.374   8.933  0.0207 -0.3954 -0.2105
   21POPC   PO4  675   6.884   3.401   8.582 -0.3242 -0.0277 -0.1161
   21POPC   GL1  676   6.842   3.592   8.259 -0.0709  0.1963 -0.0337
   21POPC   GL2  677   6.601   3.862   8.164 -0.1560  0.0466  0.3119
   21POPC   C1A  678   7.043   3.762   7.937 -0.2695 -0.0668  0.1156
   21POPC   D2A  679   7.023   3.703   7.573  0.0128 -0.5637 -0.3010
   21POPC   C3A  680   7.315   4.004   7.324  0.0249 -0.3885 -0.3800
   21POPC   C4A  681   7.484   3.987   6.893  0.3741  0.1248 -0.2666
   21POPC   C1B  682   6.601   3.898   7.790 -0.3818  0.0528 -0.0516
   21POPC   C2B  683   6.406   3.898   7.352 -0.2254 -0.0980 -0.2246
   21POPC   C3B  684   6.010   3.834   7.306 -0.0470 -0.0465 -0.0855
   21POPC   C4B  685   5.644   3.989   7.410  0.1414 -0.4017  0.0230
   22POPC   NC3  686   5.830   0.019   9.080  0.0846 -0.1154  0.1706
   22POPC   PO4  687   5.824   0.025   8.570 -0.1654 -0.0649 -0.2918
   22POPC   GL1  688   6.030   0.137   8.153  0.0191  0.1560  0.0979
   22POPC   GL2  689   5.752   0.069   7.887  0.1907 -0.2629  0.1409
   22POPC   C1A  690   6.204   0.449   7.888  0.1090  0.2744 -0.0648
   22POPC   D2A  691   6.393   0.491   7.532 -0.0393  0.3757 -0.3282
   22POPC   C3A  692   6.244   0.787   7.291  0.0700  0.0461  0.0125
   22POPC   C4A  693   6.272   0.593   6.874  0.0523 -0.0318 -0.4103
   22POPC   C1B  694   5.509   0.111   7.527  0.0231  0.2132  0.2036
   22POPC   C2B  695   5.514   0.244   7.100  0.3175  0.1864  0.2115
   22POPC   C3B  696   5.526  -0.100   6.854  0.4432 -0.1256  0.1386
   22POPC   C4B  697   5.437  -0.226   6.460 -0.0605  0.4589 -0.0311
   23POPC   NC3  698   3.216   6.290   8.177  0.1099 -0.1016  0.1556
   23POPC   PO4  699   3.703   6.486   8.349  0.0343 -0.1423 -0.2722
   23POPC   GL1  700   3.466   6.660   8.036 -0.0228 -0.5751  0.1025
   23POPC   GL2  701   3.578   6.732   7.810  0.1423  0.0095 -0.0393
   23POPC   C1A  702   3.135   6.771   7.694 -0.2093  0.0496 -0.2103
   23POPC   D2A  703   3.142   6.772   7.271 -0.0300  0.1036 -0.1564
   23POPC   C3A  704   3.172   6.790   6.737  0.1461 -0.0568  0.2423
   23POPC   C4A  705   3.101   7.183   6.528 -0.0056  0.1655  0.0497
   23POPC   C1B  706   3.583   6.600   7.390  0.2154  0.1890  0.1963
   23POPC   C2B  707   3.911   6.696   7.030 -0.0636  0.1413  0.1710
   23POPC   C3B  708   4.311   6.943   7.044 -0.0635  0.2163  0.1867
   23POPC   C4B  709   4.476   7.364   6.958 -0.0860 -0.2034 -0.0838
   24POPC   NC3  710   4.469   2.399   8.386 -0.1583 -0.2464 -0.1164
   24POPC   PO4  711   4.524   2.007   8.333  0.2150  0.0273 -0.2332
   24POPC   GL1  712   4.533   1.946   7.922  0.1216 -0.5462 -0.0035
   24POPC   GL2  713   4.230   1.961   7.838  0.0945  0.2184  0.2065
   24POPC   C1A  714   4.610   1.896   7.484 -0.0487  0.4591 -0.0107
   24POPC   D2A  715   4.573   1.877   7.087  0.2486 -0.3037 -0.0643
   24POPC   C3A  716   4.220   1.670   6.996 -0.1608  0.1495  0.0152
   24POPC   C4A  717   3.882   1.583   6.677  0.1249 -0.1197  0.2159
   24POPC   C1B  718   4.082   1.939   7.348 -0.0991 -0.1621  0.1968
   24POPC   C2B  719   3.817   1.918   7.053  0.2716 -0.2398  0.0255
   24POPC   C3B  720   3.646   2.103   6.676  0.2045 -0.1058  0.0972
   24POPC   C4B  721   3.502   2.088   6.207  0.1382  0.2430 -0.0265
   25POPC   NC3  722   0.022   7.267   8.744 -0.2251 -0.0313 -0.0842
   25POPC   PO4  723   0.041   6.831   8.520 -0.2494  0.1065 -0.1019
   25POPC   GL1  724   0.141   6.586   8.110  0.1200 -0.0963  0.0231
   25POPC   GL2  725  -0.146   6.572   8.095 -0.1379  0.0994 -0.3687
   25POPC   C1A  726   0.324   6.458   7.781 -0.2180 -0.3913  0.2586
   25POPC   D2A  727   0.224   6.400   7.369 -0.1233  0.2575 -0.2636
   25POPC   C3A  728   0.447   6.313   7.010  0.2895 -0.0430 -0.1966
   25POPC   C4A  729   0.963   6.393   6.930  0.3625  0.1206  0.1426
   25POPC   C1B  730  -0.276   6.816   7.868  0.0797  0.0999  0.1757
   25POPC   C2B  731  -0.346   6.964   7.424 -0.0453  0.3099  0.0691
   25POPC   C3B  732  -0.068   7.297   7.337  0.1822  0.0212 -0.1480
   25POPC   C4B  733  -0.043   7.607   7.629 -0.2042 -0.0000  0.1407
   26POPC   NC3  734   5.081   0.320   8.416  0.1014  0.0171 -0.2043
   26POPC   PO4  735   5.478   0.339   8.192  0.2128  0.0848 -0.0934
   26POPC   GL1  736   5.116   0.282   7.934  0.0228 -0.0634 -0.1227
   26POPC   GL2  737   4.784   0.204   7.915 -0.2904  0.0633  0.0797
   26POPC   C1A  738   5.074   0.284   7.478  0.1736  0.2360 -0.1503
   26POPC   D2A  739   4.706   0.237   7.257 -0.0748  0.2681 -0.2140
   26POPC   C3A  740   4.811   0.065   6.897 -0.0029 -0.3114  0.1061
   26POPC   C4A  741   4.931  -0.133   6.601  0.1851  0.0743 -0.3991
   26POPC   C1B  742   4.614  -0.178   7.776 -0.0934 -0.0496  0.0730
   26POPC   C2B  743   4.472  -0.177   7.345  0.1393  0.3112 -0.0261
   26POPC   C3B  744   4.257  -0.401   7.027 -0.0689 -0.0507  0.0658
   26POPC   C4B  745   3.884  -0.336   6.832 -0.0441 -0.2175  0.3200
   27POPC   NC3  746   8.179   7.954   9.379 -0.0984 -0.3461 -0.0699
   27POPC   PO4  747   7.965   8.104   8.935 -0.0242  0.1859  0.2213
   27POPC   GL1  748   7.732   8.009   8.467 -0.2725  0.0516 -0.2275
   27POPC   GL2  749   7.742   8.411   8.457 -0.0224 -0.3256  0.2390
   27POPC   C1A  750   7.695   7.893   8.005 -0.2473 -0.0930 -0.2227
   27POPC   D2A  751   7.944   7.830   7.575  0.0535 -0.0475 -0.0569
   27POPC   C3A  752   8.462   7.822   7.435  0.2429  0.0664  0.2400
   27POPC   C4A  753   8.909   7.951   7.518  0.0663 -0.0951  0.0788
   27POPC   C1B  754   8.027   8.240   8.159  0.1500  0.1351 -0.1031
   27POPC   C2B  755   8.198   8.324   7.777  0.5031  0.1859  0.1694
   27POPC   C3B  756   8.204   8.246   7.308 -0.0714 -0.1441  0.0338
   27POPC   C4B  757   8.153   8.389   6.956  0.2047  0.1537  0.0924
   28POPC   NC3  758   0.454   7.130   8.394 -0.0065 -0.1297 -0.7051
   28POPC   PO4  759   0.638   7.492   8.241 -0.3189 -0.2540  0.1970
   28POPC   GL1  760   0.645   7.362   7.835  0.3474  0.0199 -0.0167
   28POPC   GL2  761   0.916   7.530   7.689 -0.1338  0.2772  0.1733
   28POPC   C1A  762   0.439   7.309   7.400 -0.1296  0.1041 -0.0944
   28POPC   D2A  763   0.455   7.469   6.948 -0.0700 -0.1519  0.0863
   28POPC   C3A  764   0.213   7.135   6.623  0.1891  0.0314  0.2227
   28POPC   C4A  765   0.295   6.956   6.313 -0.0388  0.1785  0.0569
   28POPC   C1B  766   1.294   7.796   7.514  0.1465 -0.0465  0.1012
   28POPC   C2B  767   1.671   8.016   7.508  0.0605  0.4105  0.0342
   28POPC   C3B  768   1.883   8.318   7.139  0.1615 -0.1796 -0.0500
   28POPC   C4B  769   1.621   8.526   6.911 -0.3085  0.1164 -0.1167
   29POPC   NC3  770   8.640   5.823   9.046 -0.1265  0.0673 -0.2722
   29POPC   PO4  771   8.470   5.468   8.801  0.2654 -0.3047 -0.2090
   29POPC   GL1  772   8.395   5.529   8.351  0.0536  0.0821 -0.1411
   29POPC   GL2  773   8.386   5.933   8.242 -0.2712 -0.2397 -0.2288
   29POPC   C1A  774   8.446   5.444   7.820 -0.1782 -0.0757 -0.1590
   29POPC   D2A  775   8.270   5.114   7.601 -0.1221 -0.1223 -0.1908
   29POPC   C3A  776   8.518   4.863   7.438 -0.0178 -0.0079 -0.0893
   29POPC   C4A  777   8.760   4.539   7.575 -0.1432  0.1432  0.0128
   29POPC   C1B  778   8.388   5.903   7.820 -0.0591  0.0801 -0.0039
   29POPC   C2B  779   8.574   5.991   7.425  0.1375  0.0787 -0.0256
   29POPC   C3B  780   8.780   5.945   6.988  0.0783 -0.1258 -0.4210
   29POPC   C4B  781   8.860   6.045   6.541 -0.0369  0.0548 -0.0036
   30POPC   NC3  782   0.303   3.383   9.661 -0.0430 -0.1994 -0.0352
   30POPC   PO4  783  -0.078   3.256   9.489 -0.1008 -0.0125  0.1074
   30POPC   GL1  784  -0.084   3.038   9.073  0.0304 -0.2643 -0.0219
   30POPC   GL2  785  -0.244   3.141   8.738 -0.1572 -0.1283  0.2960
   30POPC   C1A  786   0.183   2.891   8.700 -0.3155  0.0958  0.2936
   30POPC   D2A  787   0.522   2.574   8.512 -0.4812  0.1205  0.1200
   30POPC   C3A  788   0.940   2.587   8.614 -0.2427  0.0222  0.2683
   30POPC   C4A  789   1.195   2.320   8.796  0.0956  0.1706  0.0356
   30POPC   C1B  790  -0.119   2.992   8.272 -0.1976 -0.1570  0.0461
   30POPC   C2B  791   0.055   3.085   7.867  0.0182 -0.1987  0.5593
   30POPC   C3B  792   0.098   3.355   7.478 -0.1326  0.1216 -0.0061
   30POPC   C4B  793  -0.130   3.729   7.161 -0.1627  0.1681  0.0181
   31POPC   NC3  794   7.939   0.411   8.718 -0.0301 -0.1203  0.2333
   31POPC   PO4  795   8.228   0.139   8.577 -0.0421  0.0486  0.0665
   31POPC   GL1  796   7.882   0.265   8.238 -0.0337 -0.0043  0.1450
   31POPC   GL2  797   8.124   0.439   8.154  0.1329  0.0738 -0.0039
   31POPC   C1A  798   7.944   0.091   7.867 -0.0805 -0.0848 -0.2029
   31POPC   D2A  799   8.272  -0.036   7.473 -0.0057  0.2455 -0.3376
   31POPC   C3A  800   8.483   0.229   7.109 -0.0944 -0.1156 -0.1694
   31POPC   C4A  801   8.624   0.003   6.804  0.1344  0.0187 -0.1587
   31POPC   C1B  802   8.275   0.490   7.714  0.2784  0.4094 -0.1271
   31POPC   C2B  803   8.031   0.513   7.295  0.3953 -0.0647 -0.2090
   31POPC   C3B  804   8.073   0.367   6.907  0.0275  0.2095 -0.1619
   31POPC   C4B  805   8.110  -0.071   6.616  0.0177  0.3877 -0.2751
   32POPC   NC3  806   8.659   2.138   9.727 -0.2624 -0.1982  0.1550
   32POPC   PO4  807   8.809   1.893   9.327  0.3090  0.1676  0.1356
   32POPC   GL1  808   9.208   1.895   9.055 -0.1359 -0.1861  0.0586
   32POPC   GL2  809   9.183   2.238   9.031  0.2202 -0.3099 -0.1308
   32POPC   C1A  810   9.644   2.012   9.073 -0.2281 -0.0365 -0.0286
   32POPC   D2A  811  10.063   2.030   9.288 -0.1446 -0.0596 -0.0471
   32POPC   C3A  812  10.337   2.017   8.919  0.1839 -0.0756  0.1216
   32POPC   C4A  813  10.665   2.172   8.764 -0.1324 -0.0261  0.1796
   32POPC   C1B  814   9.267   2.317   8.644 -0.3929  0.1525 -0.1804
   32POPC   C2B  815   9.108   2.510   8.255  0.0530  0.0185 -0.0636
   32POPC   C3B  816   8.943   2.903   8.010 -0.2337  0.0099  0.0181
   32POPC   C4B  817   8.961   3.207   7.747 -0.4682 -0.2495 -0.1367
   33POPC   NC3  818   0.543   5.762   8.635 -0.0179  0.1191 -0.0386
   33POPC   PO4  819   0.594   5.925   8.222  0.0814  0.0077  0.3158
   33POPC   GL1  820   0.624   5.749   7.827  0.1111  0.1262 -0.0043
   33POPC   GL2  821   0.778   6.004   7.703  0.0084 -0.0148  0.2842
   33POPC   C1A  822   0.401   5.476   7.431  0.1222  0.1155  0.0664
   33POPC   D2A  823   0.344   5.361   7.026 -0.3511  0.1041  0.1126
   33POPC   C3A  824   0.462   4.993   6.791  0.0077  0.1752 -0.0002
   33POPC   C4A  825   0.551   4.625   6.781 -0.1297 -0.0872 -0.1765
   33POPC   C1B  826   0.792   6.058   7.314  0.2098  0.3903  0.1993
   33POPC   C2B  827   0.634   5.812   6.886  0.1811 -0.0097 -0.0727
   33POPC   C3B  828   0.196   5.869   6.718 -0.1449 -0.1604  0.0690
   33POPC   C4B  829  -0.261   5.948   6.466  0.0705 -0.2442 -0.0376
   34POPC   NC3  830   6.768   5.252   8.493  0.3542  0.0279  0.0540
   34POPC   PO4  831   7.060   5.061   8.280 -0.1063 -0.0363  0.0200
   34POPC   GL1  832   7.126   5.021   7.884 -0.0084  0.2236 -0.0317
   34POPC   GL2  833   7.090   4.672   7.852  0.0172 -0.1186  0.0132
   34POPC   C1A  834   7.273   4.981   7.490  0.0709 -0.1971 -0.3203
   34POPC   D2A  835   7.560   4.861   7.149  0.1053  0.1210  0.0188
   34POPC   C3A  836   7.755   5.113   6.775 -0.0497  0.1411 -0.0962
   34POPC   C4A  837   8.117   5.260   6.640  0.0061 -0.2958 -0.4984
   34POPC   C1B  838   7.082   4.225   7.797  0.0508  0.0854 -0.0203
   34POPC   C2B  839   6.869   4.137   7.418 -0.1083 -0.2207  0.0035
   34POPC   C3B  840   6.900   3.959   6.974  0.0071 -0.0328 -0.0759
   34POPC   C4B  841   7.152   3.815   6.566  0.0919 -0.0693 -0.0472
   35POPC   NC3  842   1.253   8.939   8.918 -0.1719 -0.2709 -0.1228
   35POPC   PO4  843   1.276   9.226   8.588  0.1952  0.0934  0.2597
   35POPC   GL1  844   1.053   8.970   8.345  0.0214  0.1857  0.0883
   35POPC   GL2  845   1.035   9.131   8.104  0.1475  0.4001  0.1000
   35POPC   C1A  846   0.772   8.822   7.902 -0.4621 -0.3287  0.2701
   35POPC   D2A  847   0.871   8.616   7.473  0.1102 -0.0603 -0.2498
   35POPC   C3A  848   0.637   8.383   7.149  0.1605  0.1796  0.1350
   35POPC   C4A  849   0.610   8.442   6.671 -0.0653 -0.0238 -0.0731
   35POPC   C1B  850   1.081   9.341   7.735  0.0821  0.3302  0.0640
   35POPC   C2B  851   0.782   9.599   7.673 -0.1470  0.0848 -0.1539
   35POPC   C3B  852   0.691   9.866   7.355 -0.0891 -0.3208 -0.1423
   35POPC   C4B  853   0.686  10.095   7.011 -0.1351  0.2355 -0.1962
   36POPC   NC3  854   6.672   6.708   8.787  0.2362  0.1940  0.0139
   36POPC   PO4  855   7.052   6.695   8.675 -0.1564 -0.0294  0.2859
   36POPC   GL1  856   7.223   6.642   8.244  0.0388  0.3132 -0.1158
   36POPC   GL2  857   7.011   6.377   8.141  0.0545 -0.0225  0.1331
   36POPC   C1A  858   7.324   6.426   7.790 -0.1147 -0.3752  0.1390
   36POPC   D2A  859   7.369   6.295   7.317  0.0295 -0.0628  0.0284
   36POPC   C3A  860   7.734   6.695   7.093  0.1618 -0.0090  0.0391
   36POPC   C4A  861   7.656   6.895   6.644 -0.0830 -0.1791  0.0979
   36POPC   C1B  862   6.773   6.215   7.865 -0.2300 -0.1245 -0.1154
   36POPC   C2B  863   6.744   6.041   7.552 -0.0811  0.1657 -0.1022
   36POPC   C3B  864   6.613   5.761   7.165  0.2643  0.0182 -0.0129
   36POPC   C4B  865   6.395   5.367   6.938  0.5814 -0.4355  0.0122
   37POPC   NC3  866   3.697   5.550   8.807 -0.1984  0.2024  0.2943
   37POPC   PO4  867   3.915   5.144   8.659  0.0592 -0.0325 -0.1514
   37POPC   GL1  868   3.958   5.049   8.170  0.3157 -0.0773  0.0929
   37POPC   GL2  869   3.738   5.229   7.901 -0.0043 -0.1854 -0.1809
   37POPC   C1A  870   4.022   4.715   7.811 -0.3073 -0.2464  0.2410
   37POPC   D2A  871   4.074   4.520   7.411  0.1511 -0.0188 -0.4266
   37POPC   C3A  872   3.739   4.796   7.282  0.2630 -0.2830  0.1422
   37POPC   C4A  873   3.294   4.703   7.060  0.3667 -0.0921  0.1869
   37POPC   C1B  874   3.640   5.494   7.522  0.0134 -0.1024  0.2792
   37POPC   C2B  875   3.904   5.489   7.125  0.2158  0.0444 -0.2099
   37POPC   C3B  876   3.870   5.253   6.775  0.0656  0.0458  0.0485
   37POPC   C4B  877   3.647   4.930   6.696  0.4407 -0.2029  0.2721
   38POPC   NC3  878   4.598   7.468   9.135  0.0974 -0.0510  0.1265
   38POPC   PO4  879   4.695   7.536   8.652 -0.0262 -0.2532 -0.5224
   38POPC   GL1  880   4.775   7.631   8.156 -0.0574  0.0350  0.0962
   38POPC   GL2  881   4.997   7.896   8.069  0.0819 -0.2707  0.2256
   38POPC   C1A  882   4.702   7.534   7.722  0.0078  0.1620 -0.1219
   38POPC   D2A  883   4.689   7.663   7.300  0.2423  0.2002  0.1642
   38POPC   C3A  884   4.269   7.893   7.275 -0.0029 -0.3981  0.0269
   38POPC   C4A  885   4.002   8.082   7.162 -0.0435 -0.0446 -0.1443
   38POPC   C1B  886   5.031   7.942   7.681 -0.0937  0.3027  0.2106
   38POPC   C2B  887   5.099   8.040   7.281 -0.1115 -0.0753 -0.1713
   38POPC   C3B  888   5.369   8.078   6.965  0.0738 -0.2632  0.1555
   38POPC   C4B  889   5.373   7.990   6.582 -0.1849 -0.2387 -0.0570
   39POPC   NC3  890   2.930   8.627   7.980  0.3336  0.3174  0.1475
   39POPC   PO4  891   3.216   8.946   8.108  0.1506 -0.0261  0.3127
   39POPC   GL1  892   3.264   9.033   7.757  0.2293  0.1973  0.0176
   39POPC   GL2  893   3.025   8.962   7.558 -0.1012  0.1115 -0.2362
   39POPC   C1A  894   3.504   9.172   7.390  0.1119  0.1076  0.1236
   39POPC   D2A  895   3.665   9.052   7.030 -0.0581  0.0060 -0.0564
   39POPC   C3A  896   3.697   8.802   6.602 -0.0298 -0.0066  0.0530
   39POPC   C4A  897   4.042   8.722   6.500  0.0819  0.1330  0.0358
   39POPC   C1B  898   3.141   8.876   7.092 -0.2739 -0.2766  0.1568
   39POPC   C2B  899   3.085   9.008   6.588  0.1493  0.4617  0.2844
   39POPC   C3B  900   3.014   9.414   6.376 -0.1093  0.1779 -0.1648
   39POPC   C4B  901   2.908   9.961   6.349  0.1593  0.2467 -0.2625
   40POPC   NC3  902   6.398   8.035   9.167  0.2521 -0.2183 -0.0232
   40POPC   PO4  903   6.095   8.141   8.875 -0.0923  0.1748 -0.0210
   40POPC   GL1  904   6.025   8.044   8.433  0.1471  0.0509  0.0651
   40POPC   GL2  905   6.023   7.747   8.395 -0.1261 -0.0628 -0.0387
   40POPC   C1A  906   6.302   8.036   8.063  0.0679 -0.0296 -0.0835
   40POPC   D2A  907   6.376   8.228   7.732 -0.3932 -0.1236 -0.0650
   40POPC   C3A  908   6.833   8.275   7.736  0.2487 -0.2378 -0.1169
   40POPC   C4A  909   7.105   8.511   7.911 -0.0244 -0.2005  0.3342
   40POPC   C1B  910   6.133   7.407   8.074  0.1094 -0.3244 -0.0603
   40POPC   C2B  911   6.098   7.172   7.729 -0.0724  0.1903 -0.1833
   40POPC   C3B  912   6.452   6.990   7.507 -0.0206 -0.0737 -0.2254
   40POPC   C4B  913   6.787   7.269   7.355 -0.0573  0.3368 -0.1128
   41POPC   NC3  914   6.198   1.737   8.311  0.0270 -0.2942 -0.2418
   41POPC   PO4  915   6.596   1.927   8.354 -0.1230  0.4401  0.0249
   41POPC   GL1  916   6.811   2.141   8.021  0.0489 -0.0956  0.0073
   41POPC   GL2  917   6.612   2.013   7.709 -0.4075 -0.0810  0.4404
   41POPC   C1A  918   6.878   2.438   7.707  0.1062 -0.0977 -0.1654
   41POPC   D2A  919   7.011   2.608   7.291  0.0568  0.2203 -0.1218
   41POPC   C3A  920   6.940   2.418   6.906 -0.1285  0.6352  0.1102
   41POPC   C4A  921   6.452   2.241   6.775  0.1704 -0.2096  0.2919
   41POPC   C1B  922   6.558   1.632   7.558  0.2535 -0.2106  0.0615
   41POPC   C2B  923   6.640   1.340   7.336  0.2807  0.0462 -0.1968
   41POPC   C3B  924   6.661   1.055   6.988  0.1192  0.2181 -0.0586
   41POPC   C4B  925   6.798   0.768   6.733 -0.0683  0.2452  0.3439
   42POPC   NC3  926   2.787   3.465   9.124 -0.0605 -0.0392 -0.3197
   42POPC   PO4  927   3.150   3.733   9.016  0.1689 -0.0252 -0.0044
   42POPC   GL1  928   2.865   3.553   8.630 -0.0909  0.0572 -0.1338
   42POPC   GL2  929   2.614   3.363   8.689  0.1082  0.2612  0.1047
   42POPC   C1A  930   2.943   3.483   8.159  0.0612  0.0897 -0.0543
   42POPC   D2A  931   3.002   3.887   7.805 -0.1989  0.2952 -0.2573
   42POPC   C3A  932   2.664   4.145   7.633  0.2939 -0.2892 -0.0843
   42POPC   C4A  933   2.488   4.407   7.277 -0.3078  0.0266  0.0789
   42POPC   C1B  934   2.684   3.118   8.334 -0.0079  0.0666  0.0934
   42POPC   C2B  935   2.871   3.070   7.918 -0.1534  0.1670  0.0230
   42POPC   C3B  936   3.274   2.872   7.846  0.0512  0.1449  0.0992
   42POPC   C4B  937   3.317   2.451   7.930 -0.1344 -0.0246  0.3941
   43POPC   NC3  938   2.456   5.894   8.296  0.0906 -0.0233 -0.0113
   43POPC   PO4  939   2.606   5.505   8.446  0.4790  0.0723  0.0573
   43POPC   GL1  940   2.645   5.520   7.990  0.2976 -0.0408 -0.0457
   43POPC   GL2  941   2.772   5.810   7.846  0.0619  0.0886 -0.4886
   43POPC   C1A  942   2.238   5.462   7.762  0.2623  0.3516 -0.0125
   43POPC   D2A  943   1.941   5.342   7.592 -0.2754  0.0848 -0.0145
   43POPC   C3A  944   1.979   5.150   7.132  0.1540  0.0232  0.6051
   43POPC   C4A  945   1.896   4.831   6.692 -0.0605  0.2587 -0.0994
   43POPC   C1B  946   2.738   5.767   7.431 -0.1682  0.1565 -0.2598
   43POPC   C2B  947   2.814   5.828   7.017 -0.1781  0.0969  0.1091
   43POPC   C3B  948   2.598   6.046   6.703 -0.2079 -0.1269  0.1750
   43POPC   C4B  949   2.371   6.418   6.613 -0.0488  0.0757 -0.0302
   44POPC   NC3  950   6.250   3.942   8.534  0.3205  0.1376  0.1073
   44POPC   PO4  951   6.037   3.900   8.204 -0.0161 -0.0376  0.1794
   44POPC   GL1  952   5.921   4.169   7.891 -0.0249  0.3180 -0.2406
   44POPC   GL2  953   6.257   4.208   7.746 -0.1505 -0.0463  0.0444
   44POPC   C1A  954   5.915   4.406   7.474  0.1811  0.0127 -0.0026
   44POPC   D2A  955   5.932   4.700   7.156 -0.2697  0.0606  0.1350
   44POPC   C3A  956   5.983   5.150   7.046  0.3379  0.2356 -0.0650
   44POPC   C4A  957   5.875   5.400   6.710  0.3100 -0.2580 -0.0353
   44POPC   C1B  958   6.591   4.496   7.784 -0.0428 -0.1713  0.0322
   44POPC   C2B  959   6.864   4.677   7.474  0.7986  0.1383 -0.0941
   44POPC   C3B  960   6.765   4.897   7.075  0.1721 -0.2282  0.0234
   44POPC   C4B  961   6.771   4.988   6.683  0.2972  0.0539  0.2387
   45POPC   NC3  962   7.323   9.084   9.193  0.0485 -0.1946 -0.0343
   45POPC   PO4  963   6.946   9.199   8.972  0.0424  0.2404  0.0731
   45POPC   GL1  964   7.129   9.095   8.603  0.2505  0.1884 -0.0689
   45POPC   GL2  965   7.446   8.877   8.588 -0.0458 -0.2063 -0.0679
   45POPC   C1A  966   7.025   8.959   8.155  0.4189  0.1032  0.3554
   45POPC   D2A  967   6.660   8.722   7.976 -0.0336  0.0177  0.1564
   45POPC   C3A  968   6.756   8.734   7.562  0.0976 -0.0778  0.0442
   45POPC   C4A  969   6.871   8.759   7.158  0.2019  0.0230  0.2387
   45POPC   C1B  970   7.495   8.727   8.189 -0.3483  0.3017  0.1124
   45POPC   C2B  971   7.401   8.845   7.715 -0.1275 -0.0414 -0.2388
   45POPC   C3B  972   7.316   8.627   7.381  0.0050 -0.0299 -0.2307
   45POPC   C4B  973   7.361   8.606   6.893 -0.0901  0.1223 -0.3106
   46POPC   NC3  974   0.352   8.113   8.399  0.0253  0.4135  0.0519
   46POPC   PO4  975   0.219   8.515   8.602 -0.2255  0.2884  0.0344
   46POPC   GL1  976   0.150   8.462   8.114 -0.1606  0.0826 -0.0615
   46POPC   GL2  977   0.273   8.742   7.974  0.1264  0.0938 -0.2499
   46POPC   C1A  978  -0.120   8.596   7.737  0.3933  0.3631 -0.0651
   46POPC   D2A  979  -0.322   8.678   7.334  0.1637 -0.3693 -0.2060
   46POPC   C3A  980  -0.360   8.644   7.022 -0.0301  0.0404  0.1408
   46POPC   C4A  981  -0.239   8.812   6.620  0.0988  0.2582 -0.2919
   46POPC   C1B  982   0.462   8.957   7.542  0.0003 -0.0257  0.3429
   46POPC   C2B  983   0.701   9.218   7.384 -0.1790 -0.1771  0.2347
   46POPC   C3B  984   0.959   9.108   7.214 -0.0398 -0.0427  0.1065
   46POPC   C4B  985   1.327   9.106   6.806  0.1472 -0.0670 -0.4576
   47POPC   NC3  986   3.416   0.788   9.061 -0.4157  0.2414 -0.0840
   47POPC   PO4  987   3.641   1.151   8.991 -0.1164 -0.0471 -0.2544
   47POPC   GL1  988   3.518   1.105   8.643  0.2465 -0.2898 -0.0301
   47POPC   GL2  989   3.537   0.821   8.579  0.1287  0.1922  0.1347
   47POPC   C1A  990   3.806   1.116   8.272  0.0753 -0.3840 -0.0680
   47POPC   D2A  991   4.021   0.735   8.062 -0.1416  0.1923 -0.0163
   47POPC   C3A  992   4.260   0.606   7.767 -0.0741 -0.0866 -0.1651
   47POPC   C4A  993   4.287   0.242   7.510 -0.1783 -0.0933 -0.0434
   47POPC   C1B  994   3.497   0.629   8.203  0.2312 -0.2747  0.0851
   47POPC   C2B  995   3.617   0.718   7.814 -0.0128 -0.4392 -0.1518
   47POPC   C3B  996   3.299   0.686   7.463 -0.1044 -0.2023  0.0350
   47POPC   C4B  997   3.233   0.723   7.009  0.0180 -0.2284 -0.2450
   48POPC   NC3  998   1.899   8.633   8.286 -0.1932  0.2156  0.1659
   48POPC   PO4  999   1.923   8.163   8.207 -0.1150 -0.1033  0.1010
   48POPC   GL1 1000   1.939   8.358   7.768  0.0526  0.0086  0.0039
   48POPC   GL2 1001   1.958   8.773   7.830  0.2560 -0.1803  0.1968
   48POPC   C1A 1002   1.702   8.711   7.432  0.2283 -0.0303 -0.0213
   48POPC   D2A 1003   1.394   8.763   7.326  0.0617 -0.0581 -0.2909
   48POPC   C3A 1004   1.128   8.593   6.934  0.1952 -0.1181  0.1633
   48POPC   C4A 1005   0.886   8.872   6.702  0.2073  0.1908  0.0873
   48POPC   C1B 1006   2.190   8.723   7.391 -0.1693  0.4480  0.3177
   48POPC   C2B 1007   2.558   8.716   7.029  0.1885 -0.0073 -0.2098
   48POPC   C3B 1008   2.571   8.799   6.585  0.0348  0.2744 -0.1872
   48POPC   C4B 1009   2.647   9.066   6.220  0.1894 -0.3955 -0.0418
   49POPC   NC3 1010   7.915   5.202   8.513 -0.0557  0.3694  0.2005
   49POPC   PO4 1011   7.539   4.959   8.544  0.1680  0.1622 -0.2615
   49POPC   GL1 1012   7.582   5.054   8.134 -0.0577 -0.0153  0.0753
   49POPC   GL2 1013   7.564   4.638   7.880 -0.1233 -0.1815  0.3545
   49POPC   C1A 1014   7.687   5.089   7.705  0.2393  0.2749 -0.0184
   49POPC   D2A 1015   7.860   5.188   7.301  0.0710 -0.2184 -0.2338
   49POPC   C3A 1016   8.167   4.960   7.071  0.2201 -0.2035 -0.2187
   49POPC   C4A 1017   8.550   4.742   6.925 -0.2144  0.1570 -0.3400
   49POPC   C1B 1018   7.494   4.463   7.506  0.0787 -0.2062  0.2161
   49POPC   C2B 1019   7.682   4.297   7.181 -0.1561  0.1228  0.1863
   49POPC   C3B 1020   8.053   4.344   6.925  0.3118  0.3418  0.0494
   49POPC   C4B 1021   7.956   4.125   6.569 -0.0333  0.2206 -0.1190
   50POPC   NC3 1022   0.826   9.415   8.654 -0.0033 -0.2351  0.1927
   50POPC   PO4 1023   0.416   9.436   8.931 -0.2210  0.2927 -0.0386
   50POPC   GL1 1024   0.292   9.430   8.477 -0.0098  0.1152  0.0872
   50POPC   GL2 1025   0.561   9.093   8.319 -0.0535 -0.0281 -0.2227
   50POPC   C1A 1026   0.076   9.291   8.158 -0.2394 -0.1906  0.2360
   50POPC   D2A 1027  -0.149   9.210   7.821 -0.2337  0.1667  0.2153
   50POPC   C3A 1028  -0.219   9.276   7.385 -0.1570  0.0805 -0.3390
   50POPC   C4A 1029  -0.027   9.020   7.055 -0.3312 -0.1641 -0.2472
   50POPC   C1B 1030   0.596   9.240   7.945  0.1371  0.0709  0.1937
   50POPC   C2B 1031   0.275   9.372   7.590  0.3214 -0.0418 -0.1105
   50POPC   C3B 1032   0.139   9.572   7.163  0.0739  0.0246  0.1478
   50POPC   C4B 1033  -0.054   9.874   6.842 -0.0300  0.2012  0.0013
   51POPC   NC3 1034   8.540   2.895   9.093  0.1195  0.0416  0.0140
   51POPC   PO4 1035   8.454   3.329   9.037  0.0606 -0.3078 -0.0765
   51POPC   GL1 1036   8.398   3.383   8.700 -0.0418  0.0047  0.0187
   51POPC   GL2 1037   8.095   3.655   8.597  0.1531  0.0778 -0.0230
   51POPC   C1A 1038   8.526   3.184   8.187 -0.0843 -0.2405  0.0080
   51POPC   D2A 1039   8.405   3.230   7.644  0.1975  0.2171 -0.3230
   51POPC   C3A 1040   8.442   2.925   7.179  0.0232  0.0380 -0.0695
   51POPC   C4A 1041   8.608   2.439   7.077  0.0702 -0.1166  0.1931
   51POPC   C1B 1042   8.296   3.697   8.294 -0.0844  0.1152 -0.0652
   51POPC   C2B 1043   8.118   3.990   7.847 -0.1465  0.1089 -0.1867
   51POPC   C3B 1044   7.971   4.286   7.626  0.3095 -0.2472 -0.1159
   51POPC   C4B 1045   7.949   4.725   7.487  0.1355  0.0107  0.1676
   52POPC   NC3 1046   4.334   5.069   8.902  0.0988 -0.1162 -0.2325
   52POPC   PO4 1047   4.625   4.787   8.684 -0.0363  0.0608 -0.2316
   52POPC   GL1 1048   4.653   4.744   8.307  0.0218  0.0223  0.1683
   52POPC   GL2 1049   4.595   4.973   7.957  0.1034  0.4646  0.2267
   52POPC   C1A 1050   4.408   4.458   7.951  0.1153 -0.2282 -0.3142
   52POPC   D2A 1051   4.542   4.076   7.815 -0.0381 -0.4057 -0.1131
   52POPC   C3A 1052   4.875   4.159   7.457  0.1049  0.0750  0.0033
   52POPC   C4A 1053   5.185   4.120   7.133  0.0956  0.0858  0.2926
   52POPC   C1B 1054   4.613   5.146   7.576  0.1932  0.0793 -0.0527
   52POPC   C2B 1055   4.466   5.407   7.362  0.0817  0.2808  0.0386
   52POPC   C3B 1056   4.390   5.551   6.973  0.3416  0.2432 -0.0279
   52POPC   C4B 1057   4.169   5.773   6.680 -0.1620 -0.0587 -0.0657
   53POPC   NC3 1058   9.341   8.106   8.696 -0.0078 -0.1743 -0.1924
   53POPC   PO4 1059   9.819   8.100   8.560  0.1202 -0.2172 -0.2033
   53POPC   GL1 1060   9.748   8.115   8.194 -0.0219  0.1179 -0.3781
   53POPC   GL2 1061   9.335   7.963   8.200 -0.1997  0.1095 -0.0636
   53POPC   C1A 1062   9.815   8.097   7.674 -0.3358  0.0291 -0.0177
   53POPC   D2A 1063   9.845   8.122   7.271  0.1737  0.1240  0.1973
   53POPC   C3A 1064  10.304   8.014   7.016  0.1105 -0.0574 -0.0939
   53POPC   C4A 1065  10.528   7.872   6.754 -0.1828  0.0921  0.1509
   53POPC   C1B 1066   9.383   8.251   7.821 -0.0704  0.0943  0.1483
   53POPC   C2B 1067   9.355   8.218   7.401  0.0219 -0.1275  0.2204
   53POPC   C3B 1068   9.425   8.216   6.979 -0.1655  0.2821  0.2956
   53POPC   C4B 1069   9.546   8.355   6.632  0.0599  0.4286 -0.0164
   54POPC   NC3 1070   8.451   8.104   8.854 -0.1707  0.1415  0.2074
   54POPC   PO4 1071   8.808   8.427   8.676 -0.2440  0.0535  0.1671
   54POPC   GL1 1072   8.726   8.704   8.444 -0.2617  0.3835 -0.3276
   54POPC   GL2 1073   8.880   9.015   8.258  0.3886 -0.2319 -0.2121
   54POPC   C1A 1074   8.589   8.655   8.076  0.0857  0.0509 -0.0746
   54POPC   D2A 1075   8.474   8.779   7.661 -0.1594 -0.0672 -0.4179
   54POPC   C3A 1076   8.491   8.605   7.257 -0.1502 -0.3690 -0.1849
   54POPC   C4A 1077   8.669   8.245   7.106  0.0372  0.1799  0.3268
   54POPC   C1B 1078   8.903   9.087   7.858  0.0912  0.1297  0.0132
   54POPC   C2B 1079   8.837   9.094   7.488  0.1389  0.3921 -0.0608
   54POPC   C3B 1080   8.741   9.053   7.045  0.4821  0.3014  0.5478
   54POPC   C4B 1081   8.862   9.269   6.684  0.1016  0.0991 -0.2742
   55POPC   NC3 1082   9.229   4.130   9.465  0.1754  0.0390 -0.3656
   55POPC   PO4 1083   9.604   3.966   9.227 -0.4076  0.2166  0.0474
   55POPC   GL1 1084   9.628   3.596   8.986 -0.1615 -0.1688 -0.1451
   55POPC   GL2 1085   9.926   3.544   8.968  0.2831 -0.1711  0.0560
   55POPC   C1A 1086   9.585   3.539   8.478 -0.1567  0.2646  0.2814
   55POPC   D2A 1087   9.822   3.531   7.988  0.3058 -0.3453  0.1176
   55POPC   C3A 1088   9.536   3.427   7.600 -0.1842  0.1439  0.1071
   55POPC   C4A 1089   9.429   3.295   7.235  0.4222  0.4352 -0.0449
   55POPC   C1B 1090  10.093   3.445   8.555 -0.0610 -0.1674 -0.2247
   55POPC   C2B 1091  10.327   3.326   8.174 -0.2976 -0.1701 -0.1491
   55POPC   C3B 1092  10.757   3.455   8.250 -0.0033 -0.1579  0.1551
   55POPC   C4B 1093  10.919   3.587   8.661  0.2167 -0.1528 -0.1719
   56POPC   NC3 1094   5.478   4.058   8.240 -0.3163 -0.0655 -0.0775
   56POPC   PO4 1095   5.613   3.670   8.264  0.1514 -0.0889  0.1160
   56POPC   GL1 1096   5.644   3.741   7.879 -0.1663 -0.1419 -0.0380
   56POPC   GL2 1097   5.356   3.701   7.747 -0.3764  0.0849 -0.1283
   56POPC   C1A 1098   5.709   3.364   7.490  0.3033 -0.1612  0.2335
   56POPC   D2A 1099   5.966   3.370   7.108 -0.0199 -0.0167  0.1924
   56POPC   C3A 1100   6.140   3.064   6.851  0.1272  0.4922  0.3261
   56POPC   C4A 1101   6.456   2.898   6.594 -0.0803  0.2391  0.1155
   56POPC   C1B 1102   5.322   3.631   7.263  0.3043 -0.0416  0.0567
   56POPC   C2B 1103   5.600   3.693   6.979 -0.1989  0.0904  0.1152
   56POPC   C3B 1104   6.004   3.923   6.840 -0.0841 -0.1541  0.2431
   56POPC   C4B 1105   6.477   3.763   6.885  0.0606  0.2073 -0.1766
   57POPC   NC3 1106   2.239   2.246   9.478 -0.0145  0.1697  0.2689
   57POPC   PO4 1107   2.420   2.642   9.583 -0.3368 -0.0565 -0.1896
   57POPC   GL1 1108   2.283   2.627   9.184 -0.0490 -0.0075  0.1394
   57POPC   GL2 1109   2.042   2.354   9.013 -0.3819 -0.0498 -0.3705
   57POPC   C1A 1110   2.234   2.830   8.764 -0.0824  0.0787  0.0268
   57POPC   D2A 1111   2.077   3.304   8.632  0.1878  0.3659  0.1561
   57POPC   C3A 1112   2.248   3.393   8.313 -0.2300  0.5003  0.1388
   57POPC   C4A 1113   2.424   3.302   7.958  0.0572 -0.1140 -0.1338
   57POPC   C1B 1114   2.238   2.285   8.576 -0.1084 -0.2179 -0.2228
   57POPC   C2B 1115   1.952   2.270   8.150  0.0954 -0.1698  0.1226
   57POPC   C3B 1116   2.057   2.572   7.744 -0.1186  0.0022  0.0569
   57POPC   C4B 1117   2.341   2.792   7.831 -0.0738 -0.3714  0.0501
   58POPC   NC3 1118   9.398   3.201   9.232 -0.0502 -0.0316  0.0320
   58POPC   PO4 1119   9.058   2.905   9.221  0.2145  0.2148 -0.0364
   58POPC   GL1 1120   9.337   2.797   8.995  0.2355 -0.1510  0.0320
   58POPC   GL2 1121   9.252   2.847   8.709  0.0277  0.1259 -0.0349
   58POPC   C1A 1122   9.650   2.596   8.840  0.3414 -0.0886 -0.2115
   58POPC   D2A 1123   9.968   2.400   8.617 -0.3619 -0.1315  0.1542
   58POPC   C3A 1124  10.039   2.490   8.265  0.0934 -0.1093  0.1910
   58POPC   C4A 1125   9.976   2.595   7.944  0.1654  0.0284 -0.0792
   58POPC   C1B 1126   9.301   3.136   8.383 -0.0409 -0.2553 -0.1989
   58POPC   C2B 1127   9.387   3.289   8.028  0.4388 -0.2892  0.4332
   58POPC   C3B 1128   9.328   3.748   7.947 -0.0252 -0.0729  0.0394
   58POPC   C4B 1129   9.528   3.907   7.552 -0.1761 -0.3632  0.2675
   59POPC   NC3 1130   4.496   2.699   8.775 -0.0058  0.2191 -0.2621
   59POPC   PO4 1131   4.912   2.608   8.486  0.0096  0.0758  0.2228
   59POPC   GL1 1132   4.962   2.602   8.023  0.3168 -0.0330 -0.2939
   59POPC   GL2 1133   4.703   2.390   7.947  0.1944 -0.2459 -0.0272
   59POPC   C1A 1134   5.102   2.687   7.551  0.0974  0.1483  0.0356
   59POPC   D2A 1135   5.365   2.628   7.166  0.0794  0.0451 -0.0410
   59POPC   C3A 1136   5.096   2.317   6.863 -0.1892  0.1838 -0.2315
   59POPC   C4A 1137   4.686   2.063   6.647  0.0374 -0.0024 -0.0706
   59POPC   C1B 1138   4.551   2.498   7.518  0.1390  0.1554 -0.1593
   59POPC   C2B 1139   4.151   2.377   7.236  0.0900  0.0687 -0.2665
   59POPC   C3B 1140   3.737   2.376   7.184 -0.0673 -0.3036  0.2710
   59POPC   C4B 1141   3.451   2.538   6.866 -0.0222 -0.1234  0.2522
   60POPC   NC3 1142   3.917   5.695   8.161  0.1582 -0.0177 -0.3210
   60POPC   PO4 1143   3.507   5.482   8.304 -0.0334  0.3684  0.3107
   60POPC   GL1 1144   3.258   5.486   7.935  0.0039 -0.2259  0.1361
   60POPC   GL2 1145   3.276   5.756   7.780  0.0846 -0.0789  0.0250
   60POPC   C1A 1146   2.901   5.366   7.637 -0.0504 -0.3187 -0.2308
   60POPC   D2A 1147   2.895   4.931   7.366  0.0160 -0.3498 -0.1325
   60POPC   C3A 1148   2.656   4.875   7.060  0.1033  0.2305  0.1491
   60POPC   C4A 1149   2.383   4.942   6.684  0.1200  0.3781  0.0378
   60POPC   C1B 1150   3.198   5.703   7.337 -0.1209 -0.3632 -0.1644
   60POPC   C2B 1151   2.928   5.355   7.090  0.2125  0.0929  0.3106
   60POPC   C3B 1152   3.031   4.996   6.751  0.3267  0.1944  0.1215
   60POPC   C4B 1153   2.751   4.723   6.424  0.1896  0.0805  0.0001
   61POPC   NC3 1154   5.244   0.791   8.112 -0.1198 -0.2613  0.2886
   61POPC   PO4 1155   4.774   0.708   8.113  0.0688 -0.1059  0.2274
   61POPC   GL1 1156   4.771   0.816   7.717 -0.0273 -0.0895 -0.1426
   61POPC   GL2 1157   4.943   1.124   7.570 -0.0937  0.0821  0.1701
   61POPC   C1A 1158   4.941   0.741   7.219  0.0229 -0.2295 -0.1022
   61POPC   D2A 1159   5.186   0.611   6.798 -0.3148 -0.0585 -0.2448
   61POPC   C3A 1160   5.144   0.750   6.280  0.4529  0.0742  0.0464
   61POPC   C4A 1161   5.393   1.017   6.099  0.2903 -0.1063 -0.2168
   61POPC   C1B 1162   4.739   1.372   7.178 -0.2587 -0.0127 -0.0687
   61POPC   C2B 1163   4.462   1.147   6.908  0.0464  0.0966 -0.3089
   61POPC   C3B 1164   4.136   0.922   6.636  0.2855  0.0326 -0.0686
   61POPC   C4B 1165   4.031   0.820   6.183 -0.0726 -0.2400  0.0413
   62POPC   NC3 1166   6.675   2.429   8.500  0.2511  0.1579 -0.0755
   62POPC   PO4 1167   6.350   2.598   8.287 -0.1492  0.1458 -0.1255
   62POPC   GL1 1168   6.408   2.671   7.873  0.2996  0.0781  0.1215
   62POPC   GL2 1169   6.213   2.562   7.647 -0.1374 -0.3548  0.0806
   62POPC   C1A 1170   6.659   2.908   7.637  0.0907  0.3778  0.1989
   62POPC   D2A 1171   6.949   3.161   7.379 -0.0536  0.4288 -0.5638
   62POPC   C3A 1172   6.869   3.412   7.039 -0.0748 -0.2699 -0.3304
   62POPC   C4A 1173   6.758   3.419   6.615 -0.0092  0.0016 -0.1462
   62POPC   C1B 1174   6.496   2.405   7.404 -0.0580  0.1139 -0.1530
   62POPC   C2B 1175   6.782   2.084   7.200  0.0800 -0.1452 -0.0436
   62POPC   C3B 1176   6.985   1.692   7.220  0.0199  0.0068  0.1407
   62POPC   C4B 1177   6.897   1.483   6.828  0.0588 -0.1946  0.2466
   63POPC   NC3 1178   5.920   0.589   8.438  0.0821  0.0070 -0.2628
   63POPC   PO4 1179   5.708   0.949   8.266  0.0889 -0.1124  0.1085
   63POPC   GL1 1180   5.726   0.665   7.929 -0.1789 -0.0863 -0.0630
   63POPC   GL2 1181   5.427   0.622   7.703 -0.0770 -0.0082  0.2481
   63POPC   C1A 1182   5.872   0.489   7.536 -0.2277  0.2952  0.0020
   63POPC   D2A 1183   6.080   0.250   7.232 -0.0059  0.0051  0.0536
   63POPC   C3A 1184   6.020   0.191   6.714  0.1899 -0.0714 -0.5530
   63POPC   C4A 1185   6.111   0.546   6.433 -0.2910 -0.0102 -0.0952
   63POPC   C1B 1186   5.479   0.712   7.320 -0.0873  0.3164  0.4199
   63POPC   C2B 1187   5.711   0.701   7.016 -0.0906 -0.0855  0.2944
   63POPC   C3B 1188   5.908   0.995   6.754 -0.0531 -0.1820  0.0705
   63POPC   C4B 1189   5.851   1.147   6.418 -0.2232 -0.1216  0.1646
   64POPC   NC3 1190   1.131   4.611   8.598  0.2384  0.1186 -0.1155
   64POPC   PO4 1191   1.076   5.065   8.446  0.0679 -0.0288  0.1011
   64POPC   GL1 1192   1.067   5.084   7.978  0.1334 -0.3438  0.1265
   64POPC   GL2 1193   1.437   5.078   7.847 -0.1067  0.3083 -0.3484
   64POPC   C1A 1194   0.932   5.080   7.584  0.0311  0.0090  0.1668
   64POPC   D2A 1195   0.680   5.048   7.265  0.2254  0.2047 -0.0810
   64POPC   C3A 1196   0.372   4.728   7.243 -0.2562  0.3247 -0.1836
   64POPC   C4A 1197   0.096   4.601   7.016  0.2397  0.3362 -0.2352
   64POPC   C1B 1198   1.592   4.880   7.452 -0.0178  0.0882  0.0777
   64POPC   C2B 1199   1.579   4.662   7.083  0.0632 -0.0482  0.2676
   64POPC   C3B 1200   1.430   4.503   6.632  0.2755  0.1127 -0.0528
   64POPC   C4B 1201   1.336   4.222   6.227  0.1654 -0.3980 -0.1608
   65POPC   NC3 1202   6.062   5.986   8.474 -0.1189 -0.1206 -0.0965
   65POPC   PO4 1203   6.495   5.743   8.581  0.0189 -0.1341  0.2210
   65POPC   GL1 1204   6.737   5.749   8.162 -0.1813 -0.3630 -0.0419
   65POPC   GL2 1205   7.107   5.830   8.115  0.0297  0.0237 -0.2373
   65POPC   C1A 1206   6.724   5.579   7.671  0.2262  0.2970  0.1573
   65POPC   D2A 1207   6.969   5.346   7.324  0.2884  0.1054  0.0477
   65POPC   C3A 1208   6.951   5.427   6.855  0.1186  0.1000  0.0557
   65POPC   C4A 1209   6.914   5.696   6.494  0.3200 -0.1589  0.2214
   65POPC   C1B 1210   7.323   5.961   7.707  0.3342  0.0840  0.2570
   65POPC   C2B 1211   7.130   5.813   7.347  0.2159  0.2689 -0.0241
   65POPC   C3B 1212   7.162   5.857   6.930 -0.2723  0.1974  0.0172
   65POPC   C4B 1213   7.267   6.084   6.588 -0.1753 -0.1033 -0.1304
   66POPC   NC3 1214   4.938   3.922   8.116 -0.0834  0.1193  0.0537
   66POPC   PO4 1215   5.113   4.378   8.179  0.1344 -0.3916  0.1218
   66POPC   GL1 1216   4.910   4.549   7.857 -0.0885 -0.1101 -0.3640
   66POPC   GL2 1217   5.040   4.717   7.548  0.3676 -0.1627 -0.3666
   66POPC   C1A 1218   4.549   4.680   7.510 -0.2869 -0.2597 -0.1298
   66POPC   D2A 1219   4.533   4.694   7.107 -0.0174  0.1958 -0.4474
   66POPC   C3A 1220   4.580   4.695   6.689  0.2580 -0.0731  0.0289
   66POPC   C4A 1221   4.438   5.080   6.408  0.0358 -0.1548 -0.1913
   66POPC   C1B 1222   5.444   4.509   7.313 -0.3484  0.0590 -0.0763
   66POPC   C2B 1223   5.667   4.323   7.039 -0.0502 -0.0028  0.1755
   66POPC   C3B 1224   5.891   4.463   6.693 -0.1100 -0.0549 -0.0177
   66POPC   C4B 1225   5.983   4.219   6.325  0.0484  0.1177  0.0812
   67POPC   NC3 1226   2.688   4.568   8.829  0.1480  0.0488 -0.3052
   67POPC   PO4 1227   2.964   4.209   8.748  0.1866  0.0958  0.0609
   67POPC   GL1 1228   2.760   4.125   8.479 -0.0005  0.1033  0.0652
   67POPC   GL2 1229   2.782   4.319   8.095  0.0419 -0.0229 -0.2642
   67POPC   C1A 1230   2.620   3.847   8.148  0.0839 -0.4108  0.0267
   67POPC   D2A 1231   2.541   3.682   7.631  0.1287 -0.0224 -0.1392
   67POPC   C3A 1232   2.724   3.797   7.227 -0.1556  0.0433  0.1547
   67POPC   C4A 1233   2.577   3.742   6.826 -0.0088 -0.1821  0.0564
   67POPC   C1B 1234   2.572   4.603   7.834  0.1430 -0.1268 -0.0200
   67POPC   C2B 1235   2.513   4.962   7.704  0.0451 -0.0995 -0.1213
   67POPC   C3B 1236   2.479   5.233   7.385 -0.1304 -0.0120 -0.0137
   67POPC   C4B 1237   2.418   5.483   7.057 -0.1538  0.1413  0.0590
   68POPC   NC3 1238   5.573   7.551   8.650  0.3438 -0.2845  0.2508
   68POPC   PO4 1239   5.958   7.199   8.710 -0.0128 -0.1669 -0.1301
   68POPC   GL1 1240   6.308   7.033   8.368 -0.1598 -0.0974  0.0243
   68POPC   GL2 1241   6.258   6.906   8.120 -0.2354  0.0510  0.1025
   68POPC   C1A 1242   6.564   7.233   7.940 -0.3976  0.1793 -0.1666
   68POPC   D2A 1243   6.429   7.541   7.614  0.0842 -0.0704 -0.2703
   68POPC   C3A 1244   6.495   7.831   7.286  0.0811 -0.0419  0.1821
   68POPC   C4A 1245   6.587   8.217   7.233 -0.0030  0.4394 -0.2194
   68POPC   C1B 1246   6.391   6.499   7.794  0.1707  0.2243  0.0401
   68POPC   C2B 1247   6.335   6.297   7.419  0.0934 -0.0884  0.1358
   68POPC   C3B 1248   6.238   5.970   7.320 -0.1436  0.1941 -0.1095
   68POPC   C4B 1249   6.039   5.728   7.064  0.0222  0.0728 -0.1069
   69POPC   NC3 1250   4.508   1.274   8.723 -0.2862 -0.2923  0.0725
   69POPC   PO4 1251   4.435   1.012   8.391 -0.1927 -0.0896  0.0554
   69POPC   GL1 1252   4.440   1.098   7.947 -0.2824  0.1162 -0.1904
   69POPC   GL2 1253   4.530   1.476   7.769 -0.0885  0.0106  0.3087
   69POPC   C1A 1254   4.432   1.054   7.425  0.2910 -0.0381  0.3487
   69POPC   D2A 1255   4.288   0.739   7.120 -0.0780  0.1643 -0.1392
   69POPC   C3A 1256   4.620   0.582   6.896  0.0490 -0.1046 -0.1553
   69POPC   C4A 1257   4.654   0.771   6.532 -0.2075 -0.1913 -0.3075
   69POPC   C1B 1258   4.201   1.488   7.500  0.0454 -0.0690  0.1629
   69POPC   C2B 1259   3.995   1.217   7.137  0.0173 -0.0907  0.1930
   69POPC   C3B 1260   3.651   1.105   6.829 -0.2172 -0.2184  0.0727
   69POPC   C4B 1261   3.626   1.088   6.426 -0.2315 -0.1538  0.1206
   70POPC   NC3 1262   7.926   6.892   8.881 -0.0945  0.0260 -0.1488
   70POPC   PO4 1263   8.316   7.101   8.868  0.0609  0.0486  0.0223
   70POPC   GL1 1264   8.342   7.231   8.406  0.1523  0.2098 -0.0993
   70POPC   GL2 1265   8.613   6.975   8.421 -0.1542  0.0424  0.1819
   70POPC   C1A 1266   8.171   7.350   8.012 -0.1277 -0.0000 -0.1634
   70POPC   D2A 1267   8.283   7.823   8.018  0.2299  0.1508  0.0596
   70POPC   C3A 1268   8.636   8.042   7.961 -0.1032 -0.1648  0.1242
   70POPC   C4A 1269   8.760   8.373   7.696 -0.2139 -0.0204 -0.0364
   70POPC   C1B 1270   8.615   7.063   7.997  0.1197  0.5029 -0.2862
   70POPC   C2B 1271   8.596   7.007   7.557 -0.2083 -0.0656 -0.0819
   70POPC   C3B 1272   8.814   6.868   7.278 -0.1166  0.0384  0.0243
   70POPC   C4B 1273   9.137   6.913   6.955 -0.3300 -0.1877  0.0368
   71POPC   NC3 1274   1.074   7.710   8.112 -0.0029 -0.2152  0.1946
   71POPC   PO4 1275   1.338   7.524   8.221 -0.2874 -0.2148  0.0658
   71POPC   GL1 1276   1.431   7.346   7.855 -0.0761 -0.1008 -0.2388
   71POPC   GL2 1277   1.780   7.273   7.939  0.0880  0.3444  0.0599
   71POPC   C1A 1278   1.333   7.257   7.465  0.1167 -0.3923  0.2186
   71POPC   D2A 1279   1.333   7.565   7.096  0.0927 -0.1205 -0.0557
   71POPC   C3A 1280   1.524   7.963   6.997 -0.3277  0.1150 -0.1668
   71POPC   C4A 1281   1.509   8.134   6.613  0.2457  0.0364 -0.0158
   71POPC   C1B 1282   1.818   7.548   7.540  0.0122 -0.2438  0.1354
   71POPC   C2B 1283   1.947   7.795   7.173  0.1263 -0.0097 -0.0282
   71POPC   C3B 1284   2.006   8.017   6.743 -0.1305  0.0518  0.1175
   71POPC   C4B 1285   1.981   8.333   6.543  0.4136  0.3608 -0.1670
   72POPC   NC3 1286   6.858   8.357   9.688  0.0651  0.0315 -0.1070
   72POPC   PO4 1287   6.896   8.159   9.168  0.2287  0.0891 -0.4107
   72POPC   GL1 1288   6.983   8.084   8.806 -0.2474  0.0802 -0.1162
   72POPC   GL2 1289   7.216   8.160   8.609 -0.1063 -0.0226  0.0021
   72POPC   C1A 1290   6.806   8.054   8.352  0.1362  0.0858  0.0445
   72POPC   D2A 1291   6.713   7.842   7.940 -0.1444 -0.0805 -0.1577
   72POPC   C3A 1292   6.891   7.724   7.577  0.0206  0.2710 -0.1204
   72POPC   C4A 1293   7.114   8.123   7.299 -0.0052  0.0875  0.0729
   72POPC   C1B 1294   7.282   8.201   8.238  0.0618 -0.1143  0.2019
   72POPC   C2B 1295   7.213   7.976   7.862 -0.1239  0.0190  0.0645
   72POPC   C3B 1296   7.386   7.735   7.586 -0.3401  0.0794 -0.1404
   72POPC   C4B 1297   7.534   7.725   7.187  0.1410 -0.0157 -0.2076
   73POPC   NC3 1298   3.951   7.983   8.401 -0.0110 -0.0986  0.1747
   73POPC   PO4 1299   3.716   7.566   8.352 -0.0492  0.3110  0.1397
   73POPC   GL1 1300   3.674   7.376   7.909 -0.3363  0.0434  0.1960
   73POPC   GL2 1301   3.867   7.091   7.676 -0.0177  0.0817 -0.3765
   73POPC   C1A 1302   3.437   7.140   7.541 -0.2472 -0.0101 -0.5310
   73POPC   D2A 1303   3.207   7.255   7.106  0.3176  0.0348 -0.0101
   73POPC   C3A 1304   3.087   7.647   7.101  0.0238 -0.0416  0.1013
   73POPC   C4A 1305   3.160   7.937   6.814 -0.1521 -0.0069 -0.3116
   73POPC   C1B 1306   4.070   7.348   7.265  0.1831  0.1051 -0.1205
   73POPC   C2B 1307   4.023   7.643   6.867  0.3592  0.2871  0.1941
   73POPC   C3B 1308   4.347   7.763   6.577 -0.1005  0.1717  0.2167
   73POPC   C4B 1309   4.330   7.863   6.130 -0.1014  0.1064  0.0634
   74POPC   NC3 1310   2.444   9.933   9.987  0.1791 -0.5115  0.1227
   74POPC   PO4 1311   2.330  10.367   9.723 -0.0497 -0.1978 -0.0872
   74POPC   GL1 1312   2.214  10.440   9.301  0.1075  0.2874 -0.0321
   74POPC   GL2 1313   2.188  10.752   9.298 -0.2590  0.3176 -0.1282
   74POPC   C1A 1314   2.220  10.569   8.726  0.2759 -0.2130  0.1268
   74POPC   D2A 1315   2.601  10.709   8.377 -0.0757  0.1017 -0.0025
   74POPC   C3A 1316   2.703  11.118   8.243  0.0468  0.1209 -0.1190
   74POPC   C4A 1317   2.901  11.301   7.875 -0.0197 -0.2267  0.1468
   74POPC   C1B 1318   1.843  10.694   9.140  0.0127  0.0732  0.2449
   74POPC   C2B 1319   1.615  10.745   8.660 -0.1905 -0.2523 -0.3631
   74POPC   C3B 1320   1.159  10.635   8.531 -0.2110  0.1771 -0.0630
   74POPC   C4B 1321   0.691  10.621   8.567  0.0916  0.1464  0.0789
   75POPC   NC3 1322   4.924   1.188   8.176 -0.1463  0.0959  0.1815
   75POPC   PO4 1323   5.385   1.264   8.016 -0.1434 -0.1490 -0.0381
   75POPC   GL1 1324   5.331   1.449   7.596 -0.0179  0.3840 -0.0085
   75POPC   GL2 1325   5.602   1.613   7.592  0.0986 -0.1064 -0.0416
   75POPC   C1A 1326   5.077   1.704   7.371  0.2074 -0.0166  0.0144
   75POPC   D2A 1327   5.065   1.809   6.978  0.2121 -0.0064 -0.0167
   75POPC   C3A 1328   4.818   1.568   6.709  0.3350 -0.1255 -0.0098
   75POPC   C4A 1329   4.456   1.512   6.531  0.3545 -0.0836  0.2797
   75POPC   C1B 1330   5.764   1.672   7.162 -0.1188 -0.1824  0.0763
   75POPC   C2B 1331   5.938   1.500   6.724 -0.2058  0.1866 -0.1351
   75POPC   C3B 1332   6.289   1.513   6.370 -0.2098 -0.2049  0.1438
   75POPC   C4B 1333   6.734   1.385   6.233  0.0493  0.2583 -0.0256
   76POPC   NC3 1334   1.657   1.116   9.891 -0.3289 -0.3900  0.0011
   76POPC   PO4 1335   1.288   1.227   9.857 -0.1309  0.0471  0.0043
   76POPC   GL1 1336   1.308   1.319   9.514 -0.3409  0.0249  0.3508
   76POPC   GL2 1337   1.024   1.483   9.226  0.1431 -0.0238 -0.1504
   76POPC   C1A 1338   1.383   1.196   9.090  0.1849 -0.1196  0.2396
   76POPC   D2A 1339   1.217   1.190   8.642 -0.1256  0.1938  0.4592
   76POPC   C3A 1340   0.687   1.149   8.579  0.0474 -0.2280  0.1023
   76POPC   C4A 1341   0.261   1.116   8.738  0.0947  0.1808  0.3427
   76POPC   C1B 1342   0.726   1.526   8.862  0.0669 -0.3105  0.1087
   76POPC   C2B 1343   0.575   1.687   8.580  0.2283 -0.0594  0.0583
   76POPC   C3B 1344   0.283   1.490   8.362 -0.0461  0.1232  0.0905
   76POPC   C4B 1345   0.352   1.149   8.220 -0.1459 -0.1632 -0.1089
   77POPC   NC3 1346   3.768   7.008   8.278 -0.1971  0.2095  0.3316
   77POPC   PO4 1347   3.385   7.176   8.251  0.0202 -0.1793 -0.0301
   77POPC   GL1 1348   3.180   7.243   7.974  0.3905  0.1321  0.0814
   77POPC   GL2 1349   3.048   7.576   7.947  0.2544  0.5766  0.1737
   77POPC   C1A 1350   2.973   7.229   7.533 -0.0216 -0.1324  0.2682
   77POPC   D2A 1351   2.659   7.200   7.233  0.1449 -0.0052  0.1209
   77POPC   C3A 1352   2.731   7.345   6.858 -0.0142 -0.1551 -0.0634
   77POPC   C4A 1353   2.576   7.209   6.499  0.1919 -0.2054  0.1881
   77POPC   C1B 1354   3.299   7.705   7.585  0.2900 -0.0984 -0.0676
   77POPC   C2B 1355   3.601   7.542   7.360  0.0795 -0.0883 -0.1110
   77POPC   C3B 1356   3.714   7.176   7.058  0.0691 -0.0665 -0.0923
   77POPC   C4B 1357   4.031   7.202   6.691  0.0118  0.0332 -0.2010
   78POPC   NC3 1358   5.109   4.808   8.499  0.0547  0.3047  0.2075
   78POPC   PO4 1359   4.871   5.227   8.251  0.0978  0.2572 -0.0284
   78POPC   GL1 1360   4.782   5.473   7.943  0.1319  0.1166 -0.0037
   78POPC   GL2 1361   5.024   5.664   7.953  0.2941 -0.1240  0.0309
   78POPC   C1A 1362   4.882   5.575   7.488 -0.0781 -0.0741 -0.2871
   78POPC   D2A 1363   5.104   5.751   7.186 -0.0680  0.2633 -0.1571
   78POPC   C3A 1364   4.971   5.534   6.863  0.1118 -0.0061 -0.0134
   78POPC   C4A 1365   4.626   5.144   6.849  0.0034  0.0429  0.1336
   78POPC   C1B 1366   5.333   5.718   7.698 -0.0472 -0.2070  0.1086
   78POPC   C2B 1367   5.509   5.391   7.284  0.0471 -0.2342 -0.1802
   78POPC   C3B 1368   5.445   5.166   6.922  0.0288 -0.2893 -0.3635
   78POPC   C4B 1369   5.480   4.770   6.909 -0.1346 -0.2132 -0.3365
   79POPC   NC3 1370   2.769   0.928   9.561  0.1930  0.1894 -0.3057
   79POPC   PO4 1371   3.236   1.146   9.361 -0.0727  0.1350 -0.1826
   79POPC   GL1 1372   3.131   1.237   8.982  0.2728  0.0063 -0.2010
   79POPC   GL2 1373   2.942   0.913   8.955 -0.0076  0.1813 -0.2022
   79POPC   C1A 1374   3.083   1.455   8.658 -0.0082 -0.0659 -0.0722
   79POPC   D2A 1375   2.990   1.617   8.295  0.2056  0.0026  0.2583
   79POPC   C3A 1376   2.534   1.832   8.159 -0.2725 -0.0202  0.0703
   79POPC   C4A 1377   2.169   1.864   8.008  0.0732  0.2487  0.2225
   79POPC   C1B 1378   3.041   0.895   8.490  0.2416 -0.0172  0.1454
   79POPC   C2B 1379   3.290   1.189   8.185 -0.0234  0.1008  0.0254
   79POPC   C3B 1380   3.309   1.143   7.750 -0.1269  0.1933 -0.2669
   79POPC   C4B 1381   3.345   1.161   7.307 -0.2711 -0.3520 -0.1998
   80POPC   NC3 1382   3.881   1.559   9.489 -0.0303 -0.2085 -0.1880
   80POPC   PO4 1383   3.901   1.646   9.045 -0.2638  0.4375 -0.1042
   80POPC   GL1 1384   3.649   1.644   8.642 -0.1026 -0.1212 -0.1671
   80POPC   GL2 1385   3.688   1.965   8.678  0.4481 -0.1154  0.1930
   80POPC   C1A 1386   3.575   1.577   8.216  0.2737 -0.2750  0.1208
   80POPC   D2A 1387   3.358   1.718   7.938  0.2671  0.2679 -0.3701
   80POPC   C3A 1388   3.168   1.579   7.510  0.0914 -0.1018 -0.1251
   80POPC   C4A 1389   2.851   1.358   7.331  0.0505  0.1314  0.1808
   80POPC   C1B 1390   3.334   2.048   8.373  0.4725 -0.0569 -0.2175
   80POPC   C2B 1391   3.004   2.037   8.046  0.1232  0.0359 -0.0264
   80POPC   C3B 1392   2.786   1.916   7.730  0.1832 -0.0519 -0.0770
   80POPC   C4B 1393   2.705   1.838   7.434 -0.2942  0.2145 -0.1523
   81POPC   NC3 1394   2.977   5.182   8.242 -0.0217 -0.4056  0.1765
   81POPC   PO4 1395   2.939   4.741   8.300  0.1926 -0.2429 -0.0010
   81POPC   GL1 1396   3.072   4.747   7.938 -0.2982 -0.0306  0.1455
   81POPC   GL2 1397   3.390   4.861   8.107 -0.1757  0.0998 -0.2091
   81POPC   C1A 1398   3.025   4.495   7.528 -0.2653  0.0553 -0.4127
   81POPC   D2A 1399   3.049   4.173   7.256 -0.0868 -0.4437 -0.1659
   81POPC   C3A 1400   2.798   4.235   6.927 -0.1352  0.1665 -0.3479
   81POPC   C4A 1401   2.445   4.438   6.792 -0.2365  0.0069  0.1065
   81POPC   C1B 1402   3.332   5.017   7.626 -0.1722  0.0466  0.1829
   81POPC   C2B 1403   3.407   5.224   7.167 -0.0427 -0.1538  0.1625
   81POPC   C3B 1404   3.316   5.535   6.838 -0.2644 -0.0243  0.1892
   81POPC   C4B 1405   3.563   5.864   6.436 -0.0502  0.0520 -0.2801
   82POPC   NC3 1406   0.703   3.962  10.180  0.1609 -0.3268 -0.3521
   82POPC   PO4 1407   1.004   3.837   9.813  0.0395 -0.1270  0.2912
   82POPC   GL1 1408   0.904   3.402   9.589  0.1793 -0.2091 -0.1270
   82POPC   GL2 1409   0.752   3.411   9.316 -0.0554 -0.0171 -0.3538
   82POPC   C1A 1410   0.986   2.989   9.425 -0.0291 -0.1198  0.1501
   82POPC   D2A 1411   1.222   2.840   9.027  0.2465  0.0071  0.0555
   82POPC   C3A 1412   1.641   2.616   8.945 -0.0427  0.2288 -0.0566
   82POPC   C4A 1413   1.698   2.336   8.636 -0.1857  0.1979  0.2298
   82POPC   C1B 1414   1.026   3.301   9.030  0.1824  0.3702  0.0967
   82POPC   C2B 1415   1.016   3.117   8.587  0.2597  0.1727 -0.2944
   82POPC   C3B 1416   0.782   2.955   8.221 -0.4727  0.0487 -0.0987
   82POPC   C4B 1417   0.529   2.856   7.883 -0.2332  0.1279 -0.1038
   83POPC   NC3 1418   9.128   1.522   9.362 -0.0716  0.0849 -0.0215
   83POPC   PO4 1419   8.974   1.161   9.180 -0.2194 -0.0418 -0.1235
   83POPC   GL1 1420   9.141   1.389   8.820 -0.2962 -0.0871  0.1089
   83POPC   GL2 1421   9.089   1.236   8.495 -0.0776 -0.0240  0.0474
   83POPC   C1A 1422   9.456   1.708   8.613  0.0103 -0.0716  0.1215
   83POPC   D2A 1423   9.650   2.088   8.503  0.2723 -0.1044  0.1822
   83POPC   C3A 1424   9.563   2.371   8.088  0.1689 -0.0538  0.0681
   83POPC   C4A 1425   9.476   2.761   8.051  0.2337  0.1543  0.2486
   83POPC   C1B 1426   9.179   1.071   8.125 -0.1763  0.1331 -0.0736
   83POPC   C2B 1427   8.817   1.098   7.867  0.0663 -0.0943 -0.0032
   83POPC   C3B 1428   8.675   0.894   7.509  0.5028  0.0126  0.2129
   83POPC   C4B 1429   8.497   0.761   7.185  0.3593  0.2157  0.0761
   84POPC   NC3 1430   3.834   9.729   8.882 -0.0012 -0.2370 -0.1076
   84POPC   PO4 1431   4.047   9.393   8.570  0.1061 -0.4369 -0.0482
   84POPC   GL1 1432   4.048   9.352   8.212 -0.0661 -0.0244  0.2711
   84POPC   GL2 1433   4.191   9.232   7.991  0.0640 -0.1344  0.2021
   84POPC   C1A 1434   4.117   9.770   7.903  0.1412  0.1337  0.0778
   84POPC   D2A 1435   3.637   9.756   7.790 -0.0577 -0.1629 -0.2753
   84POPC   C3A 1436   3.468   9.707   7.243  0.1874  0.1647 -0.2259
   84POPC   C4A 1437   3.102   9.914   7.067 -0.1627  0.2286  0.0710
   84POPC   C1B 1438   4.433   9.251   7.608  0.1584 -0.0541 -0.3155
   84POPC   C2B 1439   4.619   8.880   7.320  0.2287 -0.1678  0.0693
   84POPC   C3B 1440   4.485   8.641   7.424  0.2080  0.2950  0.0486
   84POPC   C4B 1441   4.111   8.396   7.550 -0.0250  0.1711 -0.3705
   85POPC   NC3 1442   8.364   6.013   8.733  0.1740 -0.1358 -0.2773
   85POPC   PO4 1443   8.208   6.452   8.731  0.0051 -0.0419 -0.0438
   85POPC   GL1 1444   8.164   6.652   8.349 -0.0407  0.4295 -0.0278
   85POPC   GL2 1445   7.859   6.931   8.366  0.0864  0.1485 -0.0040
   85POPC   C1A 1446   8.152   6.868   7.872  0.2359 -0.2813  0.0002
   85POPC   D2A 1447   8.147   6.879   7.425 -0.1345  0.4032  0.3574
   85POPC   C3A 1448   8.211   7.115   7.030 -0.0710 -0.0421  0.0061
   85POPC   C4A 1449   8.140   7.066   6.602  0.0847  0.0286  0.0006
   85POPC   C1B 1450   7.685   6.604   8.102  0.0371 -0.0850  0.0376
   85POPC   C2B 1451   7.807   6.550   7.578 -0.1634  0.0262  0.0561
   85POPC   C3B 1452   8.120   6.274   7.293  0.1518 -0.0651  0.0621
   85POPC   C4B 1453   8.237   6.615   6.979  0.0951 -0.1318 -0.2041
   86POPC   NC3 1454   3.625   9.284   8.881 -0.1335 -0.0948  0.0444
   86POPC   PO4 1455   3.501   9.488   8.574  0.2056 -0.1060 -0.0845
   86POPC   GL1 1456   3.469   9.409   8.111 -0.1731  0.1841 -0.0711
   86POPC   GL2 1457   3.671   9.217   7.862 -0.1296 -0.1607 -0.1092
   86POPC   C1A 1458   3.139   9.507   7.727  0.1721  0.0853 -0.0693
   86POPC   D2A 1459   2.933   9.820   7.531  0.1824  0.1160  0.1520
   86POPC   C3A 1460   2.866  10.248   7.712  0.3301 -0.3432  0.0342
   86POPC   C4A 1461   2.529  10.387   7.955 -0.1149  0.1072  0.0629
   86POPC   C1B 1462   3.941   9.496   7.490 -0.0182 -0.0660 -0.0730
   86POPC   C2B 1463   3.942   9.816   7.306  0.2677  0.1224 -0.1421
   86POPC   C3B 1464   4.164  10.121   7.014  0.2361  0.2464 -0.0462
   86POPC   C4B 1465   4.232  10.372   6.626 -0.1706 -0.3170  0.2512
   87POPC   NC3 1466   9.548   7.405   9.176  0.0992  0.0390 -0.0415
   87POPC   PO4 1467   9.191   7.531   8.835 -0.1299 -0.2178 -0.1520
   87POPC   GL1 1468   9.104   7.182   8.419 -0.0695  0.0891  0.0473
   87POPC   GL2 1469   9.119   7.452   8.259  0.1686 -0.1754  0.1820
   87POPC   C1A 1470   9.087   6.855   8.072  0.2566 -0.3930 -0.0887
   87POPC   D2A 1471   8.816   6.635   7.797  0.0001 -0.2629 -0.0619
   87POPC   C3A 1472   8.788   6.207   7.836  0.2623 -0.0275  0.4669
   87POPC   C4A 1473   8.831   5.877   8.057  0.0161  0.2461 -0.1907
   87POPC   C1B 1474   8.854   7.517   7.837  0.0416  0.1754  0.0585
   87POPC   C2B 1475   8.799   7.482   7.369  0.1248  0.2397 -0.1234
   87POPC   C3B 1476   8.687   7.378   6.983  0.1642 -0.0722  0.0332
   87POPC   C4B 1477   8.370   7.524   6.683  0.2800  0.1261 -0.0685
   88POPC   NC3 1478   5.301   1.674   8.672 -0.0799  0.0745  0.3855
   88POPC   PO4 1479   5.687   1.455   8.354 -0.2703 -0.1217  0.1074
   88POPC   GL1 1480   5.845   1.482   8.034 -0.0314  0.1800  0.1288
   88POPC   GL2 1481   5.868   1.249   7.873 -0.0978  0.1312  0.0820
   88POPC   C1A 1482   6.072   1.448   7.505  0.0330 -0.1847 -0.0953
   88POPC   D2A 1483   6.203   1.259   7.059 -0.0501  0.0572 -0.1092
   88POPC   C3A 1484   6.384   1.724   6.852  0.1419  0.1595 -0.1245
   88POPC   C4A 1485   6.707   1.870   6.490 -0.1060  0.0746  0.1499
   88POPC   C1B 1486   5.793   1.062   7.573  0.2594 -0.1633  0.2693
   88POPC   C2B 1487   5.593   1.194   7.229  0.1712 -0.2277  0.3171
   88POPC   C3B 1488   5.317   1.362   7.043 -0.1823  0.1087  0.0358
   88POPC   C4B 1489   5.372   1.132   6.602  0.0177  0.0707  0.0888
   89POPC   NC3 1490   0.910   7.765   8.636 -0.1464  0.0325 -0.1996
   89POPC   PO4 1491   0.857   8.124   8.375  0.0664 -0.0762  0.2243
   89POPC   GL1 1492   0.750   8.027   7.890 -0.3669  0.0448 -0.1572
   89POPC   GL2 1493   0.690   8.324   7.883  0.2910  0.1039 -0.1300
   89POPC   C1A 1494   0.756   7.953   7.437 -0.2390  0.0498  0.0257
   89POPC   D2A 1495   0.872   7.704   7.156  0.1174  0.0255 -0.2078
   89POPC   C3A 1496   0.892   7.327   7.202 -0.2192 -0.0073  0.2543
   89POPC   C4A 1497   0.924   7.029   7.530 -0.2205  0.1673  0.0419
   89POPC   C1B 1498   0.349   8.312   7.581 -0.1554 -0.0024  0.0327
   89POPC   C2B 1499   0.177   8.579   7.293 -0.0021 -0.0999 -0.0784
   89POPC   C3B 1500   0.094   8.441   6.829  0.1741 -0.2382 -0.2419
   89POPC   C4B 1501   0.106   8.112   6.609 -0.1903 -0.3841  0.0854
   90POPC   NC3 1502   0.025   0.632   9.030 -0.3709  0.3059 -0.2685
   90POPC   PO4 1503  -0.306   0.926   9.030  0.1011  0.1398  0.0971
   90POPC   GL1 1504  -0.358   1.050   8.637 -0.0624  0.0712  0.1908
   90POPC   GL2 1505  -0.565   0.794   8.543 -0.4355  0.0137  0.2047
   90POPC   C1A 1506  -0.230   1.148   8.180  0.2123 -0.1672 -0.0741
   90POPC   D2A 1507  -0.401   1.112   7.783 -0.0742  0.0583 -0.3308
   90POPC   C3A 1508  -0.560   1.140   7.419 -0.1198  0.1035  0.5049
   90POPC   C4A 1509  -0.814   0.884   7.226  0.2164 -0.3450 -0.1938
   90POPC   C1B 1510  -0.416   0.717   8.189  0.0276 -0.0757 -0.1212
   90POPC   C2B 1511  -0.064   0.691   7.910  0.2139  0.0161  0.1412
   90POPC   C3B 1512   0.163   0.493   7.571 -0.3553 -0.0116  0.0768
   90POPC   C4B 1513   0.202   0.260   7.178  0.0722 -0.0017  0.2267
   91POPC   NC3 1514   2.958   1.482   9.506 -0.0576 -0.1064  0.0108
   91POPC   PO4 1515   2.560   1.381   9.724 -0.2108 -0.3560 -0.1679
   91POPC   GL1 1516   2.463   1.341   9.309 -0.2114 -0.0002 -0.0473
   91POPC   GL2 1517   2.687   1.305   9.104  0.2167  0.0038 -0.1266
   91POPC   C1A 1518   2.123   1.386   9.044  0.1403 -0.0282  0.0032
   91POPC   D2A 1519   1.975   1.148   8.792  0.0141 -0.0040  0.2229
   91POPC   C3A 1520   2.057   0.966   8.387  0.0654 -0.1222  0.4015
   91POPC   C4A 1521   2.330   0.869   7.948  0.1520 -0.2565  0.0176
   91POPC   C1B 1522   2.535   1.099   8.742 -0.2836 -0.1454 -0.0074
   91POPC   C2B 1523   2.324   1.412   8.539  0.0327  0.3700 -0.0219
   91POPC   C3B 1524   2.305   1.368   8.046 -0.0469 -0.0170 -0.1005
   91POPC   C4B 1525   2.321   1.500   7.686 -0.1507  0.0697  0.3995
   92POPC   NC3 1526   9.846   5.559   9.243  0.1128 -0.3896  0.2450
   92POPC   PO4 1527   9.756   5.700   8.819  0.1838  0.2741 -0.0580
   92POPC   GL1 1528   9.593   5.678   8.375 -0.0558 -0.3974  0.1988
   92POPC   GL2 1529   9.220   5.510   8.329 -0.1179 -0.4013  0.1062
   92POPC   C1A 1530   9.800   5.602   7.954 -0.0428 -0.0113  0.2116
   92POPC   D2A 1531   9.604   5.638   7.617 -0.1982  0.2493  0.1049
   92POPC   C3A 1532   9.564   6.016   7.351 -0.1579  0.0332  0.2003
   92POPC   C4A 1533   9.773   6.206   6.917  0.1576 -0.1192 -0.3143
   92POPC   C1B 1534   9.223   5.431   7.889 -0.2140 -0.0326 -0.2592
   92POPC   C2B 1535   9.445   5.135   7.535  0.0621 -0.2599  0.3279
   92POPC   C3B 1536   9.495   4.847   7.077  0.0319  0.2056 -0.1892
   92POPC   C4B 1537   9.540   4.561   6.814  0.0299  0.0151 -0.0040
   93POPC   NC3 1538   1.343   0.137   9.030 -0.1023  0.1874 -0.2817
   93POPC   PO4 1539   1.190  -0.178   8.718  0.1036  0.0329 -0.2786
   93POPC   GL1 1540   0.990  -0.053   8.350 -0.1971 -0.0690  0.1778
   93POPC   GL2 1541   0.824  -0.326   8.192  0.0752 -0.1817 -0.0256
   93POPC   C1A 1542   0.692   0.238   8.341  0.1932 -0.0227 -0.0955
   93POPC   D2A 1543   0.313   0.257   8.397  0.4914 -0.1000  0.0883
   93POPC   C3A 1544   0.104   0.260   8.017 -0.2524  0.0788  0.1470
   93POPC   C4A 1545   0.265   0.022   7.621 -0.0935 -0.0858  0.2087
   93POPC   C1B 1546   0.385  -0.191   8.060 -0.0089  0.1555  0.1494
   93POPC   C2B 1547  -0.077  -0.243   7.868  0.3410 -0.0246 -0.2844
   93POPC   C3B 1548  -0.584  -0.310   7.805  0.0204 -0.0430 -0.2161
   93POPC   C4B 1549  -0.972  -0.394   8.007 -0.1325 -0.1868 -0.2703
   94POPC   NC3 1550   4.552   6.088   8.407  0.0790  0.0469  0.1951
   94POPC   PO4 1551   4.139   6.159   8.202  0.2253  0.1734  0.1174
   94POPC   GL1 1552   3.880   6.076   7.796  0.0021 -0.1409 -0.1030
   94POPC   GL2 1553   3.587   6.222   7.893 -0.0304  0.2241 -0.1579
   94POPC   C1A 1554   3.696   5.969   7.424  0.0048 -0.1836 -0.0126
   94POPC   D2A 1555   3.545   6.052   6.919 -0.1700 -0.1227  0.1864
   94POPC   C3A 1556   3.489   6.465   6.874 -0.1174 -0.2068 -0.3460
   94POPC   C4A 1557   3.657   6.810   6.571  0.0323  0.0075  0.0601
   94POPC   C1B 1558   3.183   6.203   7.474 -0.0032 -0.1152  0.1787
   94POPC   C2B 1559   3.011   6.319   7.026  0.2646  0.0879 -0.0859
   94POPC   C3B 1560   3.190   6.209   6.632  0.0740  0.1224  0.0306
   94POPC   C4B 1561   3.055   5.875   6.522 -0.1353 -0.0139 -0.0569
   95POPC   NC3 1562   8.610   1.020   8.864 -0.1229 -0.1605 -0.2737
   95POPC   PO4 1563   8.516   1.186   8.516 -0.2570 -0.2232  0.1800
   95POPC   GL1 1564   8.461   1.007   8.182  0.2578  0.0185 -0.0404
   95POPC   GL2 1565   8.329   1.277   8.081 -0.1952  0.2590 -0.0621
   95POPC   C1A 1566   8.631   0.653   7.984 -0.0091  0.3114  0.1448
   95POPC   D2A 1567   8.740   0.427   7.591  0.0781  0.2332  0.2795
   95POPC   C3A 1568   8.969   0.365   7.232 -0.0877  0.0145  0.3451
   95POPC   C4A 1569   9.052   0.241   6.815  0.0194  0.1926  0.2092
   95POPC   C1B 1570   8.468   1.350   7.637  0.0998 -0.1714  0.0686
   95POPC   C2B 1571   8.860   1.334   7.415 -0.0058 -0.2235 -0.0423
   95POPC   C3B 1572   8.994   1.408   7.068 -0.0458 -0.0450  0.1805
   95POPC   C4B 1573   8.976   1.772   6.759  0.3613 -0.1023 -0.1802
   96POPC   NC3 1574   2.502   7.876   8.414 -0.1106 -0.2112  0.1348
   96POPC   PO4 1575   2.626   8.088   8.061  0.0530 -0.0906  0.0465
   96POPC   GL1 1576   2.824   8.055   7.696  0.0396  0.0356 -0.2235
   96POPC   GL2 1577   2.733   7.777   7.449  0.2782  0.1601  0.0816
   96POPC   C1A 1578   2.855   8.350   7.372  0.1682  0.0189  0.1900
   96POPC   D2A 1579   3.102   8.329   7.096  0.1033  0.4905  0.1360
   96POPC   C3A 1580   3.102   8.473   6.683  0.3603 -0.0170 -0.0964
   96POPC   C4A 1581   3.036   8.332   6.338 -0.0594  0.1545  0.1854
   96POPC   C1B 1582   2.612   7.895   7.027  0.1342  0.1220 -0.1111
   96POPC   C2B 1583   2.657   8.227   6.746  0.2598  0.2831  0.0937
   96POPC   C3B 1584   2.529   8.451   6.238  0.0377  0.1095  0.3225
   96POPC   C4B 1585   2.405   8.665   5.877 -0.3354 -0.0663  0.1138
   97POPC   NC3 1586   4.475   9.262   8.754 -0.0069 -0.0018 -0.0500
   97POPC   PO4 1587   4.885   9.420   8.630 -0.4030 -0.0443  0.3062
   97POPC   GL1 1588   5.044   9.302   8.207  0.3021  0.3485 -0.1338
   97POPC   GL2 1589   4.832   9.039   8.054 -0.2745 -0.2284  0.0215
   97POPC   C1A 1590   5.378   9.158   7.972  0.0349  0.0852  0.2510
   97POPC   D2A 1591   5.390   9.283   7.572  0.2402 -0.2115  0.0309
   97POPC   C3A 1592   5.609   9.669   7.334  0.0111  0.0582  0.0207
   97POPC   C4A 1593   5.982   9.790   7.520 -0.0391 -0.0206  0.1189
   97POPC   C1B 1594   4.923   9.164   7.692  0.0282  0.0554 -0.1468
   97POPC   C2B 1595   5.104   9.001   7.262 -0.2534 -0.4177  0.0157
   97POPC   C3B 1596   5.349   8.959   6.910 -0.2274 -0.0497 -0.1742
   97POPC   C4B 1597   5.256   8.489   6.738  0.0882 -0.3926 -0.1658
   98POPC   NC3 1598   7.452   1.164   8.617  0.4799  0.3319 -0.0529
   98POPC   PO4 1599   7.594   0.918   8.822 -0.1264 -0.0175  0.1102
   98POPC   GL1 1600   7.676   0.733   8.363  0.2705  0.1031 -0.4081
   98POPC   GL2 1601   7.984   0.853   8.281 -0.3574  0.0980 -0.0748
   98POPC   C1A 1602   7.536   0.619   7.973 -0.0460  0.3431 -0.0536
   98POPC   D2A 1603   7.757   0.473   7.716 -0.0177 -0.2674 -0.2010
   98POPC   C3A 1604   7.496   0.501   7.326 -0.1602  0.0569 -0.2399
   98POPC   C4A 1605   7.189   0.214   7.128  0.1137 -0.1667 -0.2262
   98POPC   C1B 1606   7.901   0.954   7.822 -0.2955  0.1422 -0.2529
   98POPC   C2B 1607   8.133   1.076   7.468  0.1121 -0.0152  0.0017
   98POPC   C3B 1608   8.371   1.274   7.119  0.0811  0.1529 -0.4718
   98POPC   C4B 1609   8.569   1.464   6.752  0.5021 -0.0088 -0.1897
   99POPC   NC3 1610   7.467   3.483   8.749 -0.0315 -0.3110  0.0668
   99POPC   PO4 1611   7.576   3.001   8.461 -0.1617 -0.1556  0.0114
   99POPC   GL1 1612   7.605   2.786   8.098  0.0857  0.4071  0.1971
   99POPC   GL2 1613   7.795   2.557   8.052  0.0637 -0.0848 -0.2040
   99POPC   C1A 1614   7.775   3.084   7.781  0.6119 -0.0940 -0.0024
   99POPC   D2A 1615   7.487   3.224   7.546  0.2246  0.2133  0.1487
   99POPC   C3A 1616   7.359   3.506   7.295  0.3884 -0.1689 -0.1515
   99POPC   C4A 1617   7.722   3.469   6.990 -0.1476  0.4185  0.0172
   99POPC   C1B 1618   7.838   2.393   7.703  0.0706  0.0399 -0.3379
   99POPC   C2B 1619   7.895   2.228   7.330  0.1462  0.1273  0.0666
   99POPC   C3B 1620   8.068   2.155   6.876 -0.1984  0.3775  0.1360
   99POPC   C4B 1621   8.546   2.013   6.790  0.1955 -0.0710 -0.0696
  100POPC   NC3 1622   1.905   6.030   8.373 -0.0791 -0.0897  0.4457
  100POPC   PO4 1623   1.654   5.786   8.165  0.0214  0.1342  0.3066
  100POPC   GL1 1624   1.473   5.572   7.852  0.0785  0.1734 -0.1312
  100POPC   GL2 1625   1.125   5.567   7.781 -0.2819 -0.1519  0.0476
  100POPC   C1A 1626   1.381   5.405   7.342  0.2112 -0.1722 -0.1088
  100POPC   D2A 1627   1.171   4.969   7.172  0.2259 -0.0925 -0.0296
  100POPC   C3A 1628   0.979   4.964   6.705 -0.1603  0.0612 -0.3404
  100POPC   C4A 1629   0.976   4.671   6.325 -0.1300  0.3078  0.0676
  100POPC   C1B 1630   0.909   5.591   7.346 -0.1757  0.0454  0.0576
  100POPC   C2B 1631   0.902   5.375   6.971 -0.1846  0.0094 -0.0444
  100POPC   C3B 1632   0.672   5.418   6.584 -0.3461 -0.3262 -0.1823
  100POPC   C4B 1633   0.716   5.579   6.298 -0.2300 -0.1922  0.2468
  101POPC   NC3 1634   9.513   5.187   8.656 -0.5170  0.2000 -0.1913
  101POPC   PO4 1635   9.347   4.764   8.596 -0.0281  0.1941 -0.0983
  101POPC   GL1 1636   9.592   4.752   8.367  0.0254 -0.0894  0.0486
  101POPC   GL2 1637   9.217   5.008   8.235 -0.4899 -0.3296 -0.1635
  101POPC   C1A 1638   9.866   4.360   8.313  0.0015  0.3647  0.1068
  101POPC   D2A 1639  10.123   3.925   8.343  0.2236  0.0330 -0.0268
  101POPC   C3A 1640  10.311   3.770   8.024  0.0803  0.0106 -0.2733
  101POPC   C4A 1641  10.138   3.756   7.651  0.0955 -0.0068 -0.2320
  101POPC   C1B 1642   9.596   4.994   7.977  0.1499  0.1388 -0.0698
  101POPC   C2B 1643   9.951   4.778   7.967 -0.2608 -0.0751  0.0494
  101POPC   C3B 1644  10.371   4.926   7.714  0.2667  0.2478  0.2143
  101POPC   C4B 1645  10.706   4.610   7.582  0.1407 -0.1063 -0.1854
  102POPC   NC3 1646   5.652   5.427   9.028  0.1851 -0.2814  0.0445
  102POPC   PO4 1647   5.767   5.374   8.673  0.2926  0.2616 -0.1242
  102POPC   GL1 1648   5.893   5.475   8.311  0.0001 -0.3296 -0.0132
  102POPC   GL2 1649   5.800   5.215   8.173 -0.2574  0.0471  0.1340
  102POPC   C1A 1650   5.804   5.690   7.961  0.1531  0.0305 -0.1759
  102POPC   D2A 1651   5.841   5.645   7.545  0.2762 -0.2568 -0.1157
  102POPC   C3A 1652   5.625   5.890   7.287  0.0538  0.0871 -0.0874
  102POPC   C4A 1653   5.676   6.246   7.032  0.1032 -0.0173  0.0994
  102POPC   C1B 1654   5.510   5.260   7.874 -0.0988  0.1901 -0.0268
  102POPC   C2B 1655   5.185   5.245   7.666 -0.0339 -0.0169 -0.2170
  102POPC   C3B 1656   5.014   5.183   7.219  0.3946  0.0158  0.0612
  102POPC   C4B 1657   5.011   4.847   7.084 -0.1667  0.2479 -0.0051
  103POPC   NC3 1658   4.148   6.450   8.573  0.0189 -0.4056  0.2404
  103POPC   PO4 1659   4.173   6.949   8.514  0.1707 -0.2278  0.2587
  103POPC   GL1 1660   4.240   6.738   8.048 -0.0905  0.2492  0.1647
  103POPC   GL2 1661   4.469   6.517   8.074  0.1982  0.0130 -0.0899
  103POPC   C1A 1662   4.052   6.566   7.578 -0.2129  0.2270  0.0329
  103POPC   D2A 1663   4.309   6.405   7.146  0.1096  0.3264 -0.0158
  103POPC   C3A 1664   4.060   6.234   6.808  0.1577 -0.1726 -0.3162
  103POPC   C4A 1665   3.853   6.361   6.449 -0.2484 -0.1790 -0.1168
  103POPC   C1B 1666   4.599   6.639   7.687 -0.1359 -0.0201  0.1353
  103POPC   C2B 1667   4.675   6.704   7.269 -0.2235  0.2010 -0.0857
  103POPC   C3B 1668   4.828   6.505   6.953  0.2700  0.0241  0.0319
  103POPC   C4B 1669   4.877   6.609   6.459 -0.2158  0.0631 -0.1575
  104POPC   NC3 1670   1.458   6.866   8.055  0.0296 -0.0137  0.0088
  104POPC   PO4 1671   1.649   6.431   8.140  0.0456  0.0671 -0.1773
  104POPC   GL1 1672   1.565   6.534   7.643 -0.1151 -0.0560 -0.4123
  104POPC   GL2 1673   1.278   6.700   7.518 -0.5757  0.2197 -0.0984
  104POPC   C1A 1674   1.678   6.366   7.357  0.1737 -0.0232  0.2764
  104POPC   D2A 1675   1.686   6.156   6.939 -0.2127 -0.0889 -0.3045
  104POPC   C3A 1676   1.592   5.791   6.593  0.1604 -0.2341  0.1748
  104POPC   C4A 1677   1.333   5.668   6.119 -0.1596 -0.2021  0.0986
  104POPC   C1B 1678   1.226   6.794   7.140  0.0317 -0.1352 -0.0428
  104POPC   C2B 1679   1.230   7.039   6.848 -0.1915 -0.0828 -0.3069
  104POPC   C3B 1680   1.060   7.395   6.671 -0.0175  0.1698  0.0540
  104POPC   C4B 1681   1.124   7.757   6.572 -0.1679 -0.0543 -0.0225
  105POPC   NC3 1682   5.027   8.335   8.264 -0.3326 -0.2839 -0.1824
  105POPC   PO4 1683   4.719   8.583   8.249  0.0238  0.1976 -0.0239
  105POPC   GL1 1684   4.708   8.428   7.864 -0.4449 -0.0695  0.0897
  105POPC   GL2 1685   5.026   8.544   7.758  0.0359 -0.0036  0.0263
  105POPC   C1A 1686   4.613   8.162   7.465 -0.0540  0.1651 -0.2482
  105POPC   D2A 1687   4.531   8.188   7.006 -0.2285  0.0874  0.1186
  105POPC   C3A 1688   4.822   8.189   6.691  0.0409  0.0970  0.2041
  105POPC   C4A 1689   4.889   7.941   6.306  0.0633 -0.1757 -0.0705
  105POPC   C1B 1690   5.010   8.518   7.336  0.1850  0.0069 -0.1323
  105POPC   C2B 1691   4.829   8.662   6.956 -0.0733 -0.2148 -0.0283
  105POPC   C3B 1692   4.846   8.990   6.790  0.2734  0.2382 -0.3076
  105POPC   C4B 1693   5.191   9.349   6.675  0.0026  0.1789  0.0524
  106POPC   NC3 1694   6.810   1.567   8.621 -0.1347  0.2446 -0.2789
  106POPC   PO4 1695   6.966   1.206   8.470 -0.3984 -0.0476 -0.3462
  106POPC   GL1 1696   6.914   1.302   8.048 -0.2750  0.0630  0.0518
  106POPC   GL2 1697   6.827   1.634   8.032  0.3603  0.2981  0.2304
  106POPC   C1A 1698   7.052   1.214   7.601 -0.0325 -0.0430  0.0472
  106POPC   D2A 1699   7.189   1.090   7.110 -0.0014  0.0842  0.1116
  106POPC   C3A 1700   7.200   0.725   6.954 -0.0841 -0.2521 -0.0376
  106POPC   C4A 1701   7.537   0.544   6.853 -0.0865  0.0772  0.2901
  106POPC   C1B 1702   7.076   1.681   7.708  0.1663 -0.0677  0.0195
  106POPC   C2B 1703   7.179   2.055   7.513  0.0696 -0.0504 -0.0722
  106POPC   C3B 1704   7.342   2.248   7.342 -0.1393 -0.0446  0.0166
  106POPC   C4B 1705   7.502   2.386   6.959  0.0946  0.0918  0.3414
  107POPC   NC3 1706   8.744   3.715   8.947 -0.2143 -0.2166  0.0619
  107POPC   PO4 1707   9.155   3.790   9.127 -0.3430  0.6574 -0.0349
  107POPC   GL1 1708   9.097   3.600   8.651 -0.2112  0.3637  0.1796
  107POPC   GL2 1709   9.232   3.833   8.590 -0.0608  0.1085 -0.1086
  107POPC   C1A 1710   8.898   3.574   8.268  0.0318  0.0904  0.0158
  107POPC   D2A 1711   8.613   3.668   7.832 -0.1242 -0.2162  0.1189
  107POPC   C3A 1712   8.823   3.944   7.442 -0.1932 -0.1551 -0.0333
  107POPC   C4A 1713   9.176   3.728   7.197 -0.1671 -0.3598  0.3080
  107POPC   C1B 1714   9.507   4.009   8.306  0.2168 -0.3361 -0.2557
  107POPC   C2B 1715   9.852   4.004   7.933  0.1210  0.2364 -0.1093
  107POPC   C3B 1716   9.887   4.354   7.574  0.1483 -0.1863  0.4594
  107POPC   C4B 1717   9.849   4.706   7.476 -0.3100 -0.0894  0.2609
  108POPC   NC3 1718   1.356   4.385   9.307 -0.2639  0.1304  0.3579
  108POPC   PO4 1719   0.948   4.268   8.970  0.3647 -0.3738 -0.1249
  108POPC   GL1 1720   0.785   4.233   8.524 -0.1693  0.0295  0.2074
  108POPC   GL2 1721   1.087   4.053   8.440  0.2299  0.0394  0.0143
  108POPC   C1A 1722   0.742   4.058   8.102  0.0256 -0.3609 -0.2998
  108POPC   D2A 1723   0.801   3.726   7.746  0.5916  0.0254  0.0943
  108POPC   C3A 1724   0.542   3.400   7.730 -0.1747 -0.1216  0.3198
  108POPC   C4A 1725   0.557   3.106   7.394 -0.0298  0.1144 -0.0004
  108POPC   C1B 1726   1.163   3.821   8.093  0.0105 -0.0341 -0.0189
  108POPC   C2B 1727   1.485   3.547   7.798 -0.3087 -0.0903 -0.0095
  108POPC   C3B 1728   1.558   3.186   7.719 -0.2278  0.2260  0.0243
  108POPC   C4B 1729   1.899   3.005   7.638 -0.0301 -0.0588  0.2082
  109POPC   NC3 1730   0.577   4.550   9.180  0.1416 -0.1114 -0.1179
  109POPC   PO4 1731   0.362   4.794   8.880 -0.0436 -0.1664  0.1692
  109POPC   GL1 1732   0.644   4.697   8.519  0.2734  0.1553 -0.2180
  109POPC   GL2 1733   0.548   4.962   8.235  0.3674  0.3121 -0.1499
  109POPC   C1A 1734   0.428   4.454   8.119  0.1690 -0.0702 -0.0598
  109POPC   D2A 1735   0.425   4.237   7.684  0.0398  0.1190 -0.4015
  109POPC   C3A 1736   0.268   4.137   7.266  0.3463  0.0072 -0.2845
  109POPC   C4A 1737  -0.232   4.187   7.122  0.3730  0.3704  0.1470
  109POPC   C1B 1738   0.263   5.296   7.960  0.1394  0.0184  0.0336
  109POPC   C2B 1739  -0.005   5.200   7.601  0.0576 -0.1085 -0.0851
  109POPC   C3B 1740  -0.023   5.113   7.164 -0.1806  0.0908 -0.3733
  109POPC   C4B 1741  -0.078   4.899   6.722  0.0013  0.0620  0.2223
  110POPC   NC3 1742   7.437   5.897   8.506 -0.3888 -0.1288  0.0114
  110POPC   PO4 1743   7.572   5.469   8.756 -0.0504 -0.0524 -0.0678
  110POPC   GL1 1744   7.384   5.406   8.339  0.2361  0.1570 -0.0075
  110POPC   GL2 1745   7.540   5.591   8.138 -0.2135 -0.1057  0.0275
  110POPC   C1A 1746   7.187   5.471   7.778 -0.0013 -0.1995 -0.2948
  110POPC   D2A 1747   7.487   5.463   7.489  0.1509  0.0450 -0.1497
  110POPC   C3A 1748   7.383   5.363   7.025  0.2545  0.4089  0.0951
  110POPC   C4A 1749   7.266   4.995   6.727  0.0702 -0.1026  0.0403
  110POPC   C1B 1750   7.796   5.630   7.864 -0.1421 -0.2411 -0.1358
  110POPC   C2B 1751   8.128   5.649   7.482  0.2457 -0.0562  0.2295
  110POPC   C3B 1752   8.115   5.808   7.119 -0.0341  0.0081  0.2106
  110POPC   C4B 1753   8.359   6.146   6.799  0.2455  0.1624 -0.1385
  111POPC   NC3 1754   6.062   3.385   8.197 -0.0009 -0.0900 -0.0363
  111POPC   PO4 1755   6.061   3.053   8.461  0.0098  0.2343 -0.2389
  111POPC   GL1 1756   5.889   2.873   8.082 -0.0154 -0.0824 -0.0259
  111POPC   GL2 1757   6.080   3.080   7.777  0.0118  0.5127 -0.0344
  111POPC   C1A 1758   5.647   2.846   7.680 -0.3548 -0.1979 -0.2573
  111POPC   D2A 1759   5.808   2.960   7.312 -0.0621  0.0294  0.1140
  111POPC   C3A 1760   5.751   2.661   6.874  0.1332 -0.1371 -0.0907
  111POPC   C4A 1761   5.641   2.374   6.612  0.0431  0.0302 -0.1258
  111POPC   C1B 1762   6.283   2.961   7.369  0.0958  0.1165  0.1734
  111POPC   C2B 1763   6.605   2.913   7.092  0.2127 -0.0149  0.0592
  111POPC   C3B 1764   6.947   2.934   6.906  0.0902 -0.0479  0.1188
  111POPC   C4B 1765   7.452   3.015   6.962 -0.4227 -0.0285  0.0433
  112POPC   NC3 1766   9.426   4.268   8.904 -0.0346  0.0802 -0.3086
  112POPC   PO4 1767   9.014   4.267   8.710 -0.2757 -0.1111  0.1511
  112POPC   GL1 1768   9.210   4.401   8.287 -0.1589  0.0297  0.0030
  112POPC   GL2 1769   9.004   4.583   7.996 -0.0273 -0.0408  0.2677
  112POPC   C1A 1770   9.579   4.409   7.917  0.1036 -0.1358  0.1869
  112POPC   D2A 1771   9.335   4.582   7.489 -0.0945  0.0308 -0.0194
  112POPC   C3A 1772   9.041   4.806   7.256  0.0311 -0.2100 -0.0933
  112POPC   C4A 1773   8.812   5.177   7.019 -0.0125  0.1895 -0.1314
  112POPC   C1B 1774   8.816   4.990   7.976 -0.2406 -0.0655  0.0137
  112POPC   C2B 1775   8.870   5.213   7.568  0.2953  0.0017  0.2259
  112POPC   C3B 1776   8.680   5.488   7.371  0.3648 -0.1316  0.1784
  112POPC   C4B 1777   8.357   5.392   7.058  0.1966  0.3196  0.1532
  113POPC   NC3 1778   2.342   1.821   9.699 -0.0321 -0.1410 -0.1697
  113POPC   PO4 1779   2.624   1.844   9.406 -0.2151 -0.1748  0.2158
  113POPC   GL1 1780   2.375   1.876   9.020  0.0969 -0.2135  0.0983
  113POPC   GL2 1781   2.107   1.891   9.140 -0.2172 -0.1096 -0.2619
  113POPC   C1A 1782   2.473   1.886   8.604 -0.2529 -0.1697 -0.0921
  113POPC   D2A 1783   2.718   2.272   8.376  0.1219  0.4027  0.2862
  113POPC   C3A 1784   2.457   2.693   8.370  0.0073  0.2133 -0.0346
  113POPC   C4A 1785   2.062   2.875   8.267 -0.4340  0.0082 -0.0851
  113POPC   C1B 1786   2.003   1.815   8.676 -0.1110 -0.1592 -0.0135
  113POPC   C2B 1787   1.683   1.887   8.342  0.1505  0.3532  0.1808
  113POPC   C3B 1788   1.345   2.076   8.352  0.5027  0.0349 -0.0838
  113POPC   C4B 1789   1.110   2.440   8.157  0.1197 -0.0285  0.1953
  114POPC   NC3 1790   4.870   5.718   8.469  0.0315 -0.1415  0.1399
  114POPC   PO4 1791   5.051   6.129   8.641 -0.1502  0.0656  0.0014
  114POPC   GL1 1792   5.027   6.123   8.148  0.2207  0.0710 -0.0643
  114POPC   GL2 1793   4.987   6.458   8.157 -0.2439  0.1200 -0.1429
  114POPC   C1A 1794   4.949   6.084   7.716  0.0459  0.1731 -0.2267
  114POPC   D2A 1795   4.869   6.286   7.421 -0.0667 -0.0525 -0.3422
  114POPC   C3A 1796   5.217   6.273   7.263 -0.0001 -0.0554  0.2515
  114POPC   C4A 1797   5.596   6.416   7.467 -0.1131 -0.1164  0.0302
  114POPC   C1B 1798   5.091   6.612   7.715 -0.2370 -0.2652 -0.0571
  114POPC   C2B 1799   5.222   6.795   7.343 -0.4269  0.2779 -0.0152
  114POPC   C3B 1800   5.284   6.908   6.982  0.1050 -0.0820  0.0331
  114POPC   C4B 1801   4.838   7.068   6.749  0.0804  0.0544 -0.0199
  115POPC   NC3 1802   6.751   0.716   8.633 -0.3243  0.2353  0.0370
  115POPC   PO4 1803   6.343   0.777   8.686  0.5639  0.0958  0.0532
  115POPC   GL1 1804   6.475   0.927   8.270  0.0153 -0.0971  0.1091
  115POPC   GL2 1805   6.201   0.946   8.021  0.0162  0.4375 -0.1219
  115POPC   C1A 1806   6.650   0.647   7.980 -0.2020 -0.1022 -0.0376
  115POPC   D2A 1807   6.678   0.276   7.868  0.1281 -0.0530 -0.0188
  115POPC   C3A 1808   6.392  -0.013   7.762 -0.0681 -0.2785 -0.2248
  115POPC   C4A 1809   6.136  -0.350   7.948  0.0913 -0.1201 -0.1501
  115POPC   C1B 1810   6.399   0.981   7.705 -0.1495  0.2208  0.2750
  115POPC   C2B 1811   6.708   0.837   7.502 -0.0315 -0.0163  0.0659
  115POPC   C3B 1812   6.735   0.561   7.182 -0.3187  0.2922  0.0062
  115POPC   C4B 1813   6.774   0.131   7.423  0.0618  0.1188  0.2189
  116POPC   NC3 1814   4.621   7.145   8.394  0.2210  0.0246  0.4089
  116POPC   PO4 1815   4.994   6.892   8.380  0.0881  0.0853  0.0770
  116POPC   GL1 1816   5.111   7.113   8.063  0.0826 -0.1757  0.0693
  116POPC   GL2 1817   4.847   7.026   7.904  0.1309  0.2270  0.1161
  116POPC   C1A 1818   5.219   7.479   7.793 -0.1365 -0.1534  0.0698
  116POPC   D2A 1819   5.444   7.682   7.433  0.1359 -0.3427 -0.3175
  116POPC   C3A 1820   5.804   7.535   7.303  0.0142  0.3454  0.1683
  116POPC   C4A 1821   6.121   7.201   7.178 -0.0091  0.0039  0.1596
  116POPC   C1B 1822   4.897   7.093   7.498  0.2507 -0.1056  0.2776
  116POPC   C2B 1823   5.101   7.335   7.162  0.3841 -0.0643  0.3794
  116POPC   C3B 1824   5.390   7.578   6.908 -0.1119  0.3030 -0.1453
  116POPC   C4B 1825   5.797   7.737   6.892  0.1680  0.1798  0.2755
  117POPC   NC3 1826   5.970   8.562   8.596 -0.0081  0.0940  0.0525
  117POPC   PO4 1827   5.724   8.886   8.570  0.0105  0.1236  0.0333
  117POPC   GL1 1828   5.762   8.748   8.097 -0.0117  0.1508 -0.1748
  117POPC   GL2 1829   5.856   8.472   8.004 -0.0042  0.1432  0.2393
  117POPC   C1A 1830   5.505   8.763   7.664 -0.1047  0.0503 -0.1057
  117POPC   D2A 1831   5.699   8.991   7.291  0.3227  0.0453 -0.2803
  117POPC   C3A 1832   5.666   9.368   6.916 -0.2764  0.2027  0.0864
  117POPC   C4A 1833   5.992   9.727   7.004 -0.1279  0.0307 -0.2740
  117POPC   C1B 1834   6.179   8.649   7.793  0.0567 -0.1804 -0.2145
  117POPC   C2B 1835   6.390   9.071   7.776 -0.0257  0.0801  0.0200
  117POPC   C3B 1836   6.492   9.494   7.520  0.1876  0.2465  0.0076
  117POPC   C4B 1837   6.431   9.754   7.207  0.1286 -0.1288  0.3691
  118POPC   NC3 1838   9.298   9.772   8.680  0.1605  0.1967 -0.2763
  118POPC   PO4 1839   8.884   9.881   8.735  0.3276 -0.1219  0.0012
  118POPC   GL1 1840   8.686   9.957   8.434 -0.0045  0.2574 -0.0558
  118POPC   GL2 1841   8.670  10.254   8.325 -0.0840  0.4853 -0.0730
  118POPC   C1A 1842   8.663   9.937   7.903  0.1702  0.0944 -0.6226
  118POPC   D2A 1843   8.803   9.858   7.490 -0.1260 -0.0019 -0.0978
  118POPC   C3A 1844   9.216   9.969   7.460  0.1821 -0.0680  0.2042
  118POPC   C4A 1845   9.400  10.033   7.110 -0.0759 -0.1532 -0.0290
  118POPC   C1B 1846   9.046  10.218   8.024 -0.1279 -0.0416 -0.0765
  118POPC   C2B 1847   9.192  10.528   7.662 -0.0186 -0.0179 -0.2840
  118POPC   C3B 1848   9.513  10.550   7.351 -0.5624 -0.1394  0.0539
  118POPC   C4B 1849   9.839  10.829   7.411  0.3198 -0.4347  0.1033
  119POPC   NC3 1850   2.163   2.684  10.044  0.1490  0.4597 -0.0355
  119POPC   PO4 1851   1.897   2.355   9.836 -0.0148 -0.0895  0.0748
  119POPC   GL1 1852   1.793   2.499   9.426  0.2336  0.1513  0.0056
  119POPC   GL2 1853   1.477   2.657   9.470  0.3872 -0.1824 -0.1888
  119POPC   C1A 1854   1.535   2.150   9.231 -0.0766  0.2103  0.0655
  119POPC   D2A 1855   1.644   1.689   9.093  0.0337 -0.2908  0.1837
  119POPC   C3A 1856   1.637   1.502   8.667 -0.2922  0.2928  0.1236
  119POPC   C4A 1857   1.901   1.458   8.302  0.2196  0.0869 -0.0246
  119POPC   C1B 1858   1.143   2.484   9.460  0.2353  0.1697  0.0762
  119POPC   C2B 1859   0.739   2.445   9.203  0.1123  0.2913 -0.0499
  119POPC   C3B 1860   0.287   2.561   9.092 -0.2917  0.2670 -0.2329
  119POPC   C4B 1861  -0.052   2.488   9.348  0.0469  0.0699 -0.2783
  120POPC   NC3 1862   3.247   7.672   8.431  0.2216  0.0995 -0.3126
  120POPC   PO4 1863   3.502   8.024   8.634  0.0791 -0.0324 -0.3676
  120POPC   GL1 1864   3.513   7.953   8.179  0.1936  0.1299 -0.1195
  120POPC   GL2 1865   3.219   8.051   8.099  0.1563 -0.1233  0.0796
  120POPC   C1A 1866   3.733   8.021   7.774  0.1002  0.0069 -0.0804
  120POPC   D2A 1867   3.981   7.930   7.629  0.0275 -0.1260 -0.0972
  120POPC   C3A 1868   4.137   7.561   7.652 -0.2955  0.2150 -0.0860
  120POPC   C4A 1869   4.368   7.134   7.679 -0.3914 -0.0378  0.0130
  120POPC   C1B 1870   3.294   8.214   7.608  0.0020 -0.2835  0.1455
  120POPC   C2B 1871   3.465   8.006   7.231 -0.2750 -0.3698  0.1300
  120POPC   C3B 1872   3.611   7.856   6.920 -0.1116 -0.4075  0.0620
  120POPC   C4B 1873   3.561   7.496   6.719  0.4800  0.1656  0.1199
  121POPC   NC3 1874   7.389   2.778   8.844  0.1131  0.0935 -0.1538
  121POPC   PO4 1875   7.122   2.593   8.602 -0.0338  0.2812  0.0857
  121POPC   GL1 1876   7.111   2.517   8.216  0.0857  0.0405 -0.0825
  121POPC   GL2 1877   6.823   2.675   8.133 -0.3022  0.0498 -0.0643
  121POPC   C1A 1878   7.349   2.259   7.945  0.1678 -0.1898 -0.2879
  121POPC   D2A 1879   7.633   1.912   7.977 -0.1572 -0.3032  0.0483
  121POPC   C3A 1880   7.625   1.903   7.585 -0.2093  0.3259  0.0134
  121POPC   C4A 1881   7.641   1.894   7.112  0.1161 -0.0205  0.1130
  121POPC   C1B 1882   7.153   2.786   7.732 -0.0455 -0.2704 -0.1230
  121POPC   C2B 1883   7.476   2.733   7.379  0.0251  0.0325 -0.0201
  121POPC   C3B 1884   7.855   2.711   7.171 -0.1419  0.0029 -0.0145
  121POPC   C4B 1885   8.239   2.623   6.832  0.0304  0.0719  0.3880
  122POPC   NC3 1886   3.730   8.443   8.459  0.1722  0.3111  0.2541
  122POPC   PO4 1887   3.924   8.771   8.133  0.0570  0.1067 -0.0476
  122POPC   GL1 1888   3.750   8.718   7.760  0.2882 -0.2802 -0.1586
  122POPC   GL2 1889   3.978   8.983   7.575 -0.5292 -0.0100 -0.0922
  122POPC   C1A 1890   3.522   8.648   7.480 -0.0788 -0.0420  0.0278
  122POPC   D2A 1891   3.610   8.498   7.086  0.0155 -0.1255 -0.1895
  122POPC   C3A 1892   3.999   8.664   7.083  0.0091  0.1418  0.2026
  122POPC   C4A 1893   4.359   8.726   6.826 -0.1456 -0.0137  0.3288
  122POPC   C1B 1894   4.207   9.063   7.178 -0.0955  0.1117 -0.0143
  122POPC   C2B 1895   4.112   9.132   6.808 -0.3223 -0.0072 -0.0733
  122POPC   C3B 1896   4.088   9.317   6.358 -0.1311  0.0646 -0.0584
  122POPC   C4B 1897   3.987   9.745   6.227  0.0882  0.0179 -0.0775
  123POPC   NC3 1898   2.475   6.836   8.360 -0.1051 -0.2005 -0.1601
  123POPC   PO4 1899   2.720   6.319   8.340  0.1451 -0.2644  0.1963
  123POPC   GL1 1900   2.601   6.242   7.982  0.2096  0.0042 -0.1606
  123POPC   GL2 1901   2.551   6.598   7.920  0.0530  0.3587  0.1317
  123POPC   C1A 1902   2.656   6.241   7.584  0.3200  0.0779  0.1720
  123POPC   D2A 1903   2.515   6.270   7.148 -0.1755 -0.0453 -0.2128
  123POPC   C3A 1904   2.094   6.429   7.082 -0.0649 -0.3219  0.1783
  123POPC   C4A 1905   1.684   6.699   6.858  0.1582 -0.0695  0.2231
  123POPC   C1B 1906   2.630   6.726   7.452 -0.2151  0.1279 -0.2628
  123POPC   C2B 1907   2.724   6.769   7.022  0.0234  0.0276 -0.1029
  123POPC   C3B 1908   2.740   6.756   6.544 -0.1587 -0.1661 -0.2898
  123POPC   C4B 1909   2.985   6.602   6.329  0.0366 -0.0522 -0.2170
  124POPC   NC3 1910   7.195   0.645   8.795 -0.1564  0.1631 -0.0014
  124POPC   PO4 1911   7.412   0.416   8.630  0.1520  0.1764 -0.4985
  124POPC   GL1 1912   7.292   0.124   8.239  0.0201  0.0164 -0.1656
  124POPC   GL2 1913   7.531  -0.092   8.104  0.0590  0.0786  0.0795
  124POPC   C1A 1914   7.113   0.329   7.997 -0.0825  0.0842  0.0468
  124POPC   D2A 1915   7.082   0.421   7.636  0.1056  0.1909 -0.0711
  124POPC   C3A 1916   7.183   0.777   7.689  0.1895 -0.2482  0.0925
  124POPC   C4A 1917   7.536   0.972   7.392  0.1595 -0.3548  0.0416
  124POPC   C1B 1918   7.432   0.107   7.652 -0.2525 -0.0190  0.1741
  124POPC   C2B 1919   7.643  -0.006   7.300  0.1834 -0.1973  0.0743
  124POPC   C3B 1920   7.883  -0.226   7.061  0.0293 -0.2905 -0.0598
  124POPC   C4B 1921   8.109  -0.552   6.853  0.0730 -0.1374  0.1889
  125POPC   NC3 1922   6.109   9.102   8.742  0.0872 -0.0081 -0.2144
  125POPC   PO4 1923   6.112   9.504   8.812  0.0175  0.1019 -0.1326
  125POPC   GL1 1924   5.798   9.432   8.424  0.0170 -0.1300  0.1036
  125POPC   GL2 1925   5.854   9.256   8.252 -0.0694 -0.0066 -0.2032
  125POPC   C1A 1926   5.579   9.610   8.020 -0.3903 -0.0317  0.0858
  125POPC   D2A 1927   5.153   9.727   7.837 -0.3393 -0.3114 -0.0210
  125POPC   C3A 1928   5.111   9.705   7.359  0.2564 -0.1167 -0.0560
  125POPC   C4A 1929   4.849   9.493   7.044  0.3482  0.1829  0.1193
  125POPC   C1B 1930   5.870   9.132   7.776 -0.0429 -0.1796  0.0360
  125POPC   C2B 1931   6.054   9.296   7.455  0.0024  0.0725 -0.1402
  125POPC   C3B 1932   6.220   9.180   7.101  0.0094 -0.1661 -0.2350
  125POPC   C4B 1933   6.406   9.406   6.754 -0.2677 -0.1155 -0.1924
  126POPC   NC3 1934   7.714   1.883   8.438 -0.1246 -0.0770 -0.1399
  126POPC   PO4 1935   7.751   1.508   8.688 -0.2339  0.0585  0.3403
  126POPC   GL1 1936   7.784   1.293   8.251  0.4399 -0.4068  0.2025
  126POPC   GL2 1937   7.496   1.118   8.084 -0.1607 -0.1329 -0.1070
  126POPC   C1A 1938   8.010   1.604   7.845 -0.0164  0.0682  0.4940
  126POPC   D2A 1939   8.141   1.842   7.494  0.1317  0.0625 -0.0946
  126POPC   C3A 1940   8.032   1.668   7.020 -0.1116  0.1899  0.0954
  126POPC   C4A 1941   7.811   1.866   6.638  0.0813  0.0000  0.0100
  126POPC   C1B 1942   7.538   1.380   7.737  0.0227  0.0428 -0.0050
  126POPC   C2B 1943   7.831   1.430   7.394 -0.0503  0.6739 -0.5129
  126POPC   C3B 1944   7.862   1.195   7.103 -0.1370  0.0443 -0.1687
  126POPC   C4B 1945   7.735   0.975   6.789 -0.1776 -0.1066 -0.0006
  127POPC   NC3 1946   7.969   2.760   8.681 -0.1599 -0.0039  0.0001
  127POPC   PO4 1947   7.982   3.102   8.848 -0.3110  0.0659 -0.1055
  127POPC   GL1 1948   8.006   3.221   8.423 -0.0671 -0.2565  0.1234
  127POPC   GL2 1949   8.017   2.956   8.211  0.0524  0.0262  0.0971
  127POPC   C1A 1950   8.025   3.427   7.995  0.3315  0.2868  0.1793
  127POPC   D2A 1951   8.051   3.479   7.464  0.4147 -0.1828  0.2239
  127POPC   C3A 1952   8.481   3.504   7.229 -0.2661 -0.0640 -0.0811
  127POPC   C4A 1953   8.884   3.266   7.251 -0.1439  0.0013 -0.1429
  127POPC   C1B 1954   8.358   2.758   7.922  0.0189 -0.0245  0.1356
  127POPC   C2B 1955   8.288   2.565   7.496 -0.2101 -0.3649 -0.0058
  127POPC   C3B 1956   8.551   2.122   7.417  0.1226  0.2800 -0.2731
  127POPC   C4B 1957   8.591   1.755   7.209 -0.0639  0.2772 -0.1530
  128POPC   NC3 1958   2.057   3.963   9.168  0.1943 -0.1363  0.0724
  128POPC   PO4 1959   1.621   3.969   9.167 -0.2199  0.2632 -0.0034
  128POPC   GL1 1960   1.814   3.982   8.725 -0.0678  0.2373  0.2737
  128POPC   GL2 1961   1.852   3.704   8.688 -0.0647 -0.0365 -0.1061
  128POPC   C1A 1962   1.628   4.132   8.325  0.2879  0.2677 -0.0266
  128POPC   D2A 1963   1.365   4.333   8.134 -0.1221  0.0878  0.0368
  128POPC   C3A 1964   1.206   4.131   7.669 -0.0716 -0.0954 -0.1603
  128POPC   C4A 1965   0.836   4.061   7.394 -0.1927  0.0684  0.1882
  128POPC   C1B 1966   1.828   3.674   8.204  0.1561 -0.1433  0.0727
  128POPC   C2B 1967   1.747   3.969   7.816 -0.0235  0.0085 -0.1138
  128POPC   C3B 1968   1.697   4.228   7.484  0.0382  0.0738 -0.1603
  128POPC   C4B 1969   1.414   4.139   7.103  0.0482 -0.0933  0.1343
  129POPC   NC3 1970   1.095   5.933   8.104 -0.0368  0.1702  0.1067
  129POPC   PO4 1971   1.143   6.422   8.186 -0.0023 -0.1047  0.2145
  129POPC   GL1 1972   1.140   6.272   7.731 -0.1098  0.1557 -0.3541
  129POPC   GL2 1973   1.508   6.081   7.787  0.3150 -0.0784 -0.1921
  129POPC   C1A 1974   1.234   6.087   7.321 -0.2223 -0.1884  0.0114
  129POPC   D2A 1975   1.258   5.874   6.955 -0.0719  0.1640 -0.2066
  129POPC   C3A 1976   1.048   5.926   6.467  0.0351 -0.0602  0.2396
  129POPC   C4A 1977   1.257   6.244   6.253 -0.0236 -0.1390 -0.3185
  129POPC   C1B 1978   1.741   5.831   7.478  0.2423  0.0828 -0.1713
  129POPC   C2B 1979   1.756   5.604   7.059  0.0074 -0.2201  0.0306
  129POPC   C3B 1980   1.583   5.210   6.829 -0.0262  0.3515 -0.0736
  129POPC   C4B 1981   1.260   5.371   6.574 -0.0128 -0.1736  0.1608
  130POPC   NC3 1982   7.167   0.051   8.910 -0.0206 -0.0777  0.1637
  130POPC   PO4 1983   6.882   0.215   8.575  0.1649  0.2064 -0.2856
  130POPC   GL1 1984   6.801  -0.099   8.243  0.0469  0.0801 -0.1747
  130POPC   GL2 1985   6.857  -0.350   8.282 -0.1108  0.2080  0.4160
  130POPC   C1A 1986   6.858  -0.179   7.772  0.1173 -0.1182 -0.2348
  130POPC   D2A 1987   7.101  -0.308   7.365  0.0257  0.2376 -0.0702
  130POPC   C3A 1988   6.884  -0.181   6.953  0.1834 -0.3474 -0.1920
  130POPC   C4A 1989   6.706   0.264   6.782  0.3068  0.0429 -0.1535
  130POPC   C1B 1990   6.821  -0.662   7.822  0.0530 -0.0034  0.0343
  130POPC   C2B 1991   7.018  -0.771   7.581 -0.0679  0.2053 -0.1695
  130POPC   C3B 1992   7.340  -0.824   7.278 -0.0452  0.1218  0.0326
  130POPC   C4B 1993   7.702  -0.659   7.115 -0.1480  0.1925  0.0285
  131POPC   NC3 1994   3.698   4.688   8.723  0.0178  0.2280 -0.4620
  131POPC   PO4 1995   3.717   4.486   8.374 -0.2100 -0.0379  0.0174
  131POPC   GL1 1996   3.607   4.416   7.938  0.0491  0.0869  0.2937
  131POPC   GL2 1997   3.398   4.216   7.864  0.4468  0.1654 -0.2424
  131POPC   C1A 1998   3.619   4.385   7.460 -0.0590  0.2045  0.3901
  131POPC   D2A 1999   3.658   4.219   7.042 -0.0331 -0.0109  0.2516
  131POPC   C3A 2000   3.335   4.006   6.732  0.1635 -0.0596  0.1759
  131POPC   C4A 2001   2.981   3.874   6.567 -0.0567  0.0201 -0.0479
  131POPC   C1B 2002   3.471   3.911   7.556  0.2111  0.2817 -0.0692
  131POPC   C2B 2003   3.256   3.686   7.172 -0.1611  0.2593 -0.4268
  131POPC   C3B 2004   3.273   3.518   6.815  0.0110  0.0695  0.6145
  131POPC   C4B 2005   3.459   3.678   6.417 -0.0294  0.3816  0.0841
  132POPC   NC3 2006   7.686   6.023   9.246 -0.3936  0.0703  0.0337
  132POPC   PO4 2007   7.841   6.049   8.826 -0.1560 -0.1222 -0.2109
  132POPC   GL1 2008   7.956   6.201   8.412 -0.0078 -0.0816  0.3714
  132POPC   GL2 2009   7.795   6.031   8.151  0.0423 -0.0585  0.2261
  132POPC   C1A 2010   8.081   6.334   7.961 -0.0251  0.0932 -0.0450
  132POPC   D2A 2011   8.353   6.421   7.693  0.0411 -0.0425  0.3369
  132POPC   C3A 2012   8.525   6.523   7.405  0.0131  0.0303 -0.1259
  132POPC   C4A 2013   8.711   6.471   6.956 -0.0674 -0.0104 -0.1488
  132POPC   C1B 2014   7.811   6.008   7.589 -0.2543  0.0567  0.1786
  132POPC   C2B 2015   7.635   5.853   7.168  0.1175 -0.0073 -0.1705
  132POPC   C3B 2016   7.756   5.719   6.713  0.2396  0.2452  0.0872
  132POPC   C4B 2017   7.409   5.563   6.569  0.3023  0.1108  0.1939
  133POPC   NC3 2018   5.796   2.552   8.459 -0.1114  0.2403 -0.0826
  133POPC   PO4 2019   5.503   2.106   8.423  0.3287 -0.4684  0.1532
  133POPC   GL1 2020   5.788   2.101   8.096  0.0585  0.0609  0.0036
  133POPC   GL2 2021   5.838   2.413   7.893 -0.2569 -0.2572 -0.0186
  133POPC   C1A 2022   6.011   2.024   7.653 -0.2088 -0.1061 -0.2444
  133POPC   D2A 2023   6.211   2.019   7.290 -0.0217  0.1210 -0.0612
  133POPC   C3A 2024   5.971   2.117   6.883 -0.4198  0.0868 -0.0227
  133POPC   C4A 2025   6.145   1.983   6.485 -0.0160  0.0569 -0.1507
  133POPC   C1B 2026   5.888   2.416   7.330  0.4040  0.4354  0.0330
  133POPC   C2B 2027   6.185   2.609   7.051  0.3368 -0.4951  0.4337
  133POPC   C3B 2028   6.110   2.549   6.481  0.0301 -0.0537  0.2451
  133POPC   C4B 2029   6.052   2.321   6.136  0.1893 -0.0569  0.2569
  134POPC   NC3 2030   8.838   4.678   8.493  0.0669  0.0185 -0.0190
  134POPC   PO4 2031   8.504   4.500   8.607  0.1671  0.0520 -0.0652
  134POPC   GL1 2032   8.502   4.370   8.245  0.1710 -0.2558 -0.1482
  134POPC   GL2 2033   8.319   4.642   7.905  0.3134 -0.0946 -0.0623
  134POPC   C1A 2034   8.888   4.107   8.061  0.0256 -0.0077 -0.1310
  134POPC   D2A 2035   9.155   4.179   7.705  0.0934  0.2263  0.1471
  134POPC   C3A 2036   9.184   4.247   7.192 -0.1733 -0.0002  0.1733
  134POPC   C4A 2037   8.970   4.407   6.772  0.4502 -0.0656 -0.2107
  134POPC   C1B 2038   8.539   4.203   7.758  0.1306  0.4037 -0.0401
  134POPC   C2B 2039   8.348   4.046   7.406  0.0020  0.1020  0.1065
  134POPC   C3B 2040   8.659   4.154   7.027 -0.0064 -0.0132  0.0609
  134POPC   C4B 2041   8.688   3.780   6.871  0.0516 -0.0863  0.2102
  135POPC   NC3 2042   0.237   9.861   9.292  0.0690  0.1343 -0.0359
  135POPC   PO4 2043   0.432  10.195   9.104 -0.1149  0.0464 -0.2246
  135POPC   GL1 2044   0.110  10.081   8.828  0.2127  0.0429 -0.0635
  135POPC   GL2 2045  -0.114  10.003   8.962 -0.2609  0.0150  0.0451
  135POPC   C1A 2046  -0.042   9.777   8.431 -0.4778 -0.1186 -0.2190
  135POPC   D2A 2047  -0.424   9.764   8.255 -0.0693 -0.0791 -0.0620
  135POPC   C3A 2048  -0.398  10.107   7.980  0.1428 -0.0044  0.2188
  135POPC   C4A 2049  -0.274  10.160   7.681 -0.1792  0.1870  0.0702
  135POPC   C1B 2050  -0.269  10.335   8.550 -0.0670 -0.0551  0.1534
  135POPC   C2B 2051   0.029  10.644   8.381 -0.1779 -0.0626  0.0975
  135POPC   C3B 2052   0.440  10.608   8.095  0.3808  0.2160 -0.0286
  135POPC   C4B 2053   0.851  10.627   8.023 -0.1419 -0.1569  0.1212
  136POPC   NC3 2054   6.015   4.413   8.535 -0.0963 -0.2307  0.0866
  136POPC   PO4 2055   5.547   4.412   8.598  0.0691  0.0768  0.3035
  136POPC   GL1 2056   5.615   4.641   8.256 -0.0167  0.2339 -0.1982
  136POPC   GL2 2057   5.958   4.669   8.087  0.1681 -0.1039 -0.0084
  136POPC   C1A 2058   5.563   4.621   7.794 -0.1984  0.1381  0.3439
  136POPC   D2A 2059   5.745   4.907   7.535  0.3449 -0.1609  0.0131
  136POPC   C3A 2060   5.998   5.157   7.691  0.1495  0.1811 -0.0474
  136POPC   C4A 2061   6.326   5.423   7.424  0.1256  0.3232 -0.0190
  136POPC   C1B 2062   6.196   4.721   7.738 -0.3756  0.0686  0.1437
  136POPC   C2B 2063   6.363   4.453   7.276  0.0042  0.0606  0.2749
  136POPC   C3B 2064   6.691   4.435   6.926 -0.2835 -0.0323 -0.0239
  136POPC   C4B 2065   7.140   4.408   7.043 -0.1347  0.1263 -0.2069
  137POPC   NC3 2066   1.651   5.275   8.312 -0.0714  0.0599  0.0286
  137POPC   PO4 2067   2.044   4.962   8.506  0.1148  0.0552  0.0528
  137POPC   GL1 2068   2.038   4.766   8.136  0.0084  0.1657 -0.1205
  137POPC   GL2 2069   2.010   4.989   7.930  0.0502  0.1285  0.1211
  137POPC   C1A 2070   1.700   4.611   7.899  0.0124  0.0036 -0.0615
  137POPC   D2A 2071   1.269   4.596   7.734 -0.1172  0.0058 -0.1944
  137POPC   C3A 2072   1.193   4.493   7.376  0.0410 -0.1248  0.1570
  137POPC   C4A 2073   1.061   4.466   6.995 -0.0124  0.0170  0.0598
  137POPC   C1B 2074   2.092   4.842   7.451  0.3397 -0.1199  0.0095
  137POPC   C2B 2075   2.086   4.613   7.120 -0.1572 -0.1738  0.0282
  137POPC   C3B 2076   1.828   4.308   6.892  0.0922 -0.0413 -0.2741
  137POPC   C4B 2077   1.618   3.973   6.615  0.0118  0.0918 -0.1329
  138POPC   NC3 2078   5.597   8.130   8.887 -0.0211  0.0681 -0.1517
  138POPC   PO4 2079   5.469   8.373   8.525  0.0899  0.0329  0.1020
  138POPC   GL1 2080   5.556   8.141   8.164  0.0922 -0.2551  0.1266
  138POPC   GL2 2081   5.461   7.786   8.217  0.0174  0.0470  0.0871
  138POPC   C1A 2082   5.473   8.181   7.736  0.0163  0.0622  0.0367
  138POPC   D2A 2083   5.530   8.414   7.301  0.6064  0.1656 -0.0836
  138POPC   C3A 2084   6.000   8.549   7.285  0.0351 -0.0321  0.1364
  138POPC   C4A 2085   6.389   8.718   7.214  0.3030  0.1603  0.0604
  138POPC   C1B 2086   5.758   7.695   7.874 -0.0771 -0.1173  0.0605
  138POPC   C2B 2087   5.950   8.030   7.640 -0.2006  0.1140 -0.0079
  138POPC   C3B 2088   5.942   8.060   7.289 -0.0962 -0.0197  0.0510
  138POPC   C4B 2089   6.184   8.133   6.926  0.2103 -0.4639  0.1227
  139POPC   NC3 2090   9.424   2.618  10.146 -0.1365 -0.0539 -0.1856
  139POPC   PO4 2091   9.807   2.755  10.134 -0.2247 -0.0295  0.1930
  139POPC   GL1 2092  10.005   2.727   9.789  0.0726  0.1432 -0.0487
  139POPC   GL2 2093  10.215   2.858   9.562  0.0172 -0.2144 -0.0444
  139POPC   C1A 2094  10.316   2.385   9.597  0.0312  0.0713 -0.0831
  139POPC   D2A 2095  10.582   2.035   9.491  0.3174 -0.0929 -0.0033
  139POPC   C3A 2096  10.909   1.987   9.177  0.0573 -0.1427 -0.4822
  139POPC   C4A 2097  11.111   1.837   8.903 -0.0579 -0.1037 -0.0922
  139POPC   C1B 2098  10.488   2.863   9.347 -0.2697  0.2978  0.0268
  139POPC   C2B 2099  10.601   2.894   8.899  0.3282 -0.0848  0.0038
  139POPC   C3B 2100  10.521   3.267   8.676 -0.1586 -0.2352 -0.0617
  139POPC   C4B 2101  10.449   3.751   8.675  0.0173 -0.1024  0.1840
  140POPC   NC3 2102   6.264   5.269   8.647  0.0815  0.5765  0.0694
  140POPC   PO4 2103   6.284   4.839   8.416  0.1291  0.1592 -0.0985
  140POPC   GL1 2104   6.340   5.147   8.190  0.1962 -0.3146  0.0341
  140POPC   GL2 2105   6.712   5.257   8.030 -0.0330  0.1362 -0.0833
  140POPC   C1A 2106   6.279   5.561   7.936 -0.0463 -0.1937  0.1497
  140POPC   D2A 2107   6.338   6.012   7.897  0.1494  0.3061 -0.1304
  140POPC   C3A 2108   5.874   6.153   7.774 -0.2404  0.1920  0.0918
  140POPC   C4A 2109   5.454   6.212   7.888 -0.0441 -0.1939  0.1480
  140POPC   C1B 2110   6.577   5.038   7.646  0.0212  0.0781  0.0945
  140POPC   C2B 2111   6.343   4.949   7.289 -0.1680 -0.0634  0.1189
  140POPC   C3B 2112   6.307   4.799   6.837  0.0732  0.0013 -0.4221
  140POPC   C4B 2113   6.365   4.501   6.563  0.2214  0.3165 -0.2172
  141POPC   NC3 2114   2.357   4.533   8.436 -0.1794 -0.0243  0.3348
  141POPC   PO4 2115   2.249   4.263   8.701  0.1943 -0.3414  0.0250
  141POPC   GL1 2116   2.149   4.047   8.344 -0.0684 -0.1377 -0.0009
  141POPC   GL2 2117   2.051   4.250   8.122  0.0565 -0.0925 -0.2200
  141POPC   C1A 2118   2.177   3.829   7.930  0.1001  0.0318  0.0687
  141POPC   D2A 2119   1.984   3.491   7.758 -0.0278  0.0787  0.1284
  141POPC   C3A 2120   1.778   3.232   8.189 -0.1381  0.2113  0.1071
  141POPC   C4A 2121   1.270   3.121   8.170 -0.0312  0.1192  0.1211
  141POPC   C1B 2122   2.108   4.343   7.662 -0.0381  0.0244  0.1694
  141POPC   C2B 2123   2.160   4.021   7.407 -0.3088  0.1351 -0.0985
  141POPC   C3B 2124   2.232   3.558   7.285 -0.3337  0.2598 -0.0074
  141POPC   C4B 2125   2.475   3.150   7.321 -0.2367  0.1008  0.1373
  142POPC   NC3 2126   4.198   3.157   8.214 -0.1605 -0.1382 -0.1490
  142POPC   PO4 2127   4.622   2.920   8.207 -0.1467 -0.0690  0.0679
  142POPC   GL1 2128   4.613   3.051   7.734  0.0087  0.0257 -0.2247
  142POPC   GL2 2129   4.379   3.372   7.702 -0.1706 -0.0868 -0.1068
  142POPC   C1A 2130   4.625   3.007   7.394  0.3459 -0.0564 -0.0434
  142POPC   D2A 2131   4.933   2.898   7.106  0.0432  0.1795 -0.3256
  142POPC   C3A 2132   4.814   2.828   6.692  0.1294  0.0052  0.1703
  142POPC   C4A 2133   4.811   2.934   6.286 -0.3237  0.1491 -0.1686
  142POPC   C1B 2134   4.411   3.632   7.400 -0.1550  0.1058 -0.1900
  142POPC   C2B 2135   4.271   3.704   7.018 -0.0384 -0.1705  0.1007
  142POPC   C3B 2136   4.074   3.412   6.801 -0.1160 -0.2335 -0.0426
  142POPC   C4B 2137   3.782   3.253   6.495 -0.2803 -0.0127 -0.2679
  143POPC   NC3 2138   8.334   2.037   8.588 -0.2117  0.1244 -0.1820
  143POPC   PO4 2139   8.097   2.376   8.411 -0.2841  0.3653  0.2069
  143POPC   GL1 2140   8.127   2.165   8.088 -0.1947 -0.1264 -0.2143
  143POPC   GL2 2141   8.250   2.290   7.877  0.0987 -0.0064 -0.2380
  143POPC   C1A 2142   8.452   1.885   7.869 -0.0467  0.0503 -0.0041
  143POPC   D2A 2143   8.888   1.806   7.773  0.2013 -0.1967  0.4752
  143POPC   C3A 2144   9.072   2.055   7.410 -0.0281  0.2475 -0.2728
  143POPC   C4A 2145   9.097   2.484   7.212 -0.1061 -0.2187 -0.0661
  143POPC   C1B 2146   8.684   2.393   7.941  0.1211 -0.1342 -0.1913
  143POPC   C2B 2147   9.125   2.415   7.740  0.2310  0.1167 -0.1122
  143POPC   C3B 2148   9.534   2.444   7.620 -0.5183  0.0200  0.0510
  143POPC   C4B 2149   9.627   2.472   7.165  0.1008  0.2446 -0.0066
  144POPC   NC3 2150   0.927   6.669   8.613 -0.2674  0.0643 -0.2034
  144POPC   PO4 2151   0.977   7.045   8.214  0.1329  0.1092 -0.2051
  144POPC   GL1 2152   0.665   6.746   8.079  0.0356  0.4731 -0.0402
  144POPC   GL2 2153   0.814   6.632   7.809  0.1516 -0.1458 -0.1801
  144POPC   C1A 2154   0.428   6.929   7.820  0.1496 -0.3011  0.0948
  144POPC   D2A 2155   0.143   6.869   7.488  0.1049 -0.0016 -0.0636
  144POPC   C3A 2156   0.098   6.860   7.080  0.4902 -0.1827  0.2084
  144POPC   C4A 2157   0.045   6.631   6.722  0.2853  0.1331 -0.0393
  144POPC   C1B 2158   0.755   6.552   7.464  0.0095  0.2296 -0.1032
  144POPC   C2B 2159   0.587   6.890   7.102 -0.2217 -0.3278  0.0380
  144POPC   C3B 2160   0.723   7.052   6.645 -0.3572 -0.0297  0.3359
  144POPC   C4B 2161   0.634   7.404   6.387 -0.0981 -0.3515 -0.1478
  145POPC   NC3 2162   3.890   3.215   8.762 -0.1468 -0.2810  0.0204
  145POPC   PO4 2163   4.049   2.813   8.679 -0.2566 -0.1782 -0.2126
  145POPC   GL1 2164   4.081   2.709   8.249 -0.2745  0.1596  0.2053
  145POPC   GL2 2165   4.257   2.693   7.865 -0.2299  0.3520  0.0098
  145POPC   C1A 2166   3.759   2.704   7.858  0.0133  0.4680  0.3590
  145POPC   D2A 2167   3.647   2.743   7.507 -0.0496 -0.2684  0.1391
  145POPC   C3A 2168   3.356   2.744   7.269  0.2122 -0.2514  0.0171
  145POPC   C4A 2169   2.968   2.865   7.474 -0.1054  0.0052  0.3505
  145POPC   C1B 2170   4.156   2.823   7.442  0.0264 -0.0804 -0.1966
  145POPC   C2B 2171   3.932   2.844   7.068 -0.0265 -0.1732  0.0157
  145POPC   C3B 2172   3.962   2.827   6.685 -0.0735 -0.1921  0.0193
  145POPC   C4B 2173   3.969   2.373   6.445  0.0666 -0.1383 -0.0726
  146POPC   NC3 2174   5.124   3.040   8.153  0.0645  0.0569  0.0751
  146POPC   PO4 2175   5.114   3.480   8.347 -0.0095 -0.0769 -0.0336
  146POPC   GL1 2176   4.934   3.433   7.891  0.0984 -0.3591 -0.0575
  146POPC   GL2 2177   5.210   3.196   7.716  0.0679  0.0611  0.0093
  146POPC   C1A 2178   4.885   3.414   7.473 -0.1048  0.0182 -0.3459
  146POPC   D2A 2179   4.854   3.760   7.090  0.3321 -0.1715  0.1123
  146POPC   C3A 2180   5.071   3.782   6.678 -0.0927 -0.1096  0.2224
  146POPC   C4A 2181   5.053   3.755   6.253  0.2312 -0.0332  0.0727
  146POPC   C1B 2182   5.293   3.167   7.373  0.3451 -0.2693  0.1794
  146POPC   C2B 2183   5.464   3.241   6.970 -0.2424  0.1501  0.1171
  146POPC   C3B 2184   5.497   3.571   6.513  0.2165 -0.0545 -0.0897
  146POPC   C4B 2185   5.596   4.061   6.548  0.2837 -0.1181 -0.0222
  147POPC   NC3 2186   3.106   7.186   8.751  0.1766  0.0819  0.0430
  147POPC   PO4 2187   2.865   7.213   8.330 -0.1371  0.0586 -0.0488
  147POPC   GL1 2188   2.617   7.156   7.999 -0.1866  0.0210  0.1480
  147POPC   GL2 2189   2.473   7.448   7.783 -0.1085  0.0259  0.0350
  147POPC   C1A 2190   2.184   7.044   7.789  0.0520 -0.0785 -0.1624
  147POPC   D2A 2191   1.775   6.985   7.489  0.0187  0.0692  0.0350
  147POPC   C3A 2192   1.759   7.167   7.063 -0.0678  0.0892  0.0702
  147POPC   C4A 2193   1.713   7.535   6.815 -0.2115  0.1590 -0.1147
  147POPC   C1B 2194   2.325   7.431   7.438  0.1366 -0.1243  0.1822
  147POPC   C2B 2195   2.276   7.498   6.934  0.2109  0.1880 -0.0195
  147POPC   C3B 2196   2.342   7.653   6.521 -0.2482 -0.3606  0.2111
  147POPC   C4B 2197   2.387   7.943   6.270  0.0773  0.1255 -0.0108
  148POPC   NC3 2198   6.929   6.850   9.317  0.0707 -0.1777 -0.0637
  148POPC   PO4 2199   6.947   7.137   8.912 -0.1206 -0.2919  0.1726
  148POPC   GL1 2200   6.983   7.121   8.412 -0.1859  0.4977 -0.1573
  148POPC   GL2 2201   6.736   6.851   8.268 -0.2725  0.1017  0.0887
  148POPC   C1A 2202   7.410   7.054   8.041 -0.1030  0.2407  0.0431
  148POPC   D2A 2203   7.482   6.936   7.632 -0.1227  0.1841  0.1482
  148POPC   C3A 2204   7.241   6.785   7.256 -0.0172 -0.0572 -0.0449
  148POPC   C4A 2205   7.314   6.513   6.830 -0.0998 -0.0062 -0.0496
  148POPC   C1B 2206   6.829   6.815   7.799 -0.1499  0.0519 -0.0307
  148POPC   C2B 2207   6.833   6.581   7.475 -0.0214 -0.0416 -0.2424
  148POPC   C3B 2208   6.864   6.303   7.157 -0.2839 -0.1713  0.2617
  148POPC   C4B 2209   6.693   6.111   6.789  0.3207  0.4591 -0.0814
  149POPC   NC3 2210   4.996   2.076   8.439  0.1403  0.4057 -0.3855
  149POPC   PO4 2211   4.940   1.700   8.174  0.0887  0.0406 -0.4731
  149POPC   GL1 2212   5.032   1.994   7.797 -0.0758  0.1197  0.1378
  149POPC   GL2 2213   5.284   2.183   7.886  0.0027  0.0018 -0.1204
  149POPC   C1A 2214   4.929   2.215   7.326 -0.2772 -0.0838  0.0461
  149POPC   D2A 2215   4.607   2.409   7.063 -0.4215  0.1573  0.1793
  149POPC   C3A 2216   4.400   2.754   6.981  0.0652 -0.3930  0.0786
  149POPC   C4A 2217   4.385   3.030   6.552 -0.0290  0.0451 -0.0322
  149POPC   C1B 2218   5.447   2.173   7.552  0.0697  0.1310  0.0016
  149POPC   C2B 2219   5.567   2.148   7.098  0.1294  0.1592 -0.3569
  149POPC   C3B 2220   5.545   1.887   6.752 -0.0125  0.0976  0.3961
  149POPC   C4B 2221   5.707   1.972   6.339 -0.1539  0.4051  0.2403
  150POPC   NC3 2222   0.450   1.601   3.143 -0.2990 -0.1208 -0.0642
  150POPC   PO4 2223   0.203   1.277   3.421  0.1547 -0.2043 -0.0760
  150POPC   GL1 2224   0.150   1.288   3.853  0.1239 -0.0133 -0.0210
  150POPC   GL2 2225  -0.026   1.095   3.976 -0.1765  0.2475  0.2731
  150POPC   C1A 2226   0.138   1.612   4.126 -0.3791 -0.0693 -0.1842
  150POPC   D2A 2227   0.186   1.773   4.496  0.1078 -0.0904  0.1251
  150POPC   C3A 2228   0.295   1.576   4.938  0.3823  0.2429 -0.0854
  150POPC   C4A 2229   0.617   1.701   5.215 -0.2265  0.0399 -0.1606
  150POPC   C1B 2230   0.140   0.950   4.364 -0.1661  0.1572 -0.0066
  150POPC   C2B 2231   0.283   1.070   4.714  0.1451  0.2726  0.0346
  150POPC   C3B 2232   0.611   1.183   4.924  0.1633  0.2531 -0.2349
  150POPC   C4B 2233   0.696   1.201   5.314 -0.0363 -0.0527  0.1532
  151POPC   NC3 2234   2.143   1.792   2.561  0.0857  0.2847 -0.0602
  151POPC   PO4 2235   1.982   1.476   2.631 -0.2318  0.0676 -0.0856
  151POPC   GL1 2236   1.854   1.478   3.023  0.1481  0.1023  0.5255
  151POPC   GL2 2237   2.086   1.258   3.179  0.0005 -0.3029  0.0662
  151POPC   C1A 2238   1.800   1.823   3.354 -0.0467 -0.2995  0.0939
  151POPC   D2A 2239   1.876   1.844   3.900  0.2999  0.1633  0.0226
  151POPC   C3A 2240   2.271   1.757   4.146  0.1169  0.1427 -0.1328
  151POPC   C4A 2241   2.504   1.336   4.044  0.1842  0.0913 -0.1065
  151POPC   C1B 2242   1.904   1.357   3.550 -0.3363  0.1489  0.0445
  151POPC   C2B 2243   1.490   1.430   3.735  0.4147 -0.0964  0.1246
  151POPC   C3B 2244   1.050   1.632   3.821 -0.3242 -0.1283 -0.0247
  151POPC   C4B 2245   0.991   2.062   3.772  0.1066  0.2938 -0.2101
  152POPC   NC3 2246   1.125   8.353   4.483 -0.0784  0.3193  0.2268
  152POPC   PO4 2247   1.478   8.507   4.287 -0.0701  0.2589  0.2904
  152POPC   GL1 2248   1.651   8.449   4.740  0.1031  0.0941  0.0154
  152POPC   GL2 2249   1.927   8.631   4.646  0.1679  0.5437 -0.0782
  152POPC   C1A 2250   1.439   8.571   5.178 -0.5074 -0.0402  0.0743
  152POPC   D2A 2251   1.429   8.733   5.646 -0.0532  0.0889  0.4318
  152POPC   C3A 2252   1.134   8.595   5.919  0.0174  0.1288  0.0022
  152POPC   C4A 2253   0.810   8.659   6.183  0.0314  0.0975 -0.0097
  152POPC   C1B 2254   1.908   8.722   5.137 -0.2575 -0.0424 -0.1343
  152POPC   C2B 2255   1.942   8.895   5.517  0.2205  0.1173  0.3372
  152POPC   C3B 2256   1.796   9.083   5.919  0.0025 -0.0703 -0.2894
  152POPC   C4B 2257   1.532   9.456   6.124  0.3285  0.3123  0.0119
  153POPC   NC3 2258   8.723   3.803   4.730 -0.0187 -0.2253 -0.2278
  153POPC   PO4 2259   8.916   3.688   4.346  0.0008 -0.1962  0.0994
  153POPC   GL1 2260   9.014   3.424   4.773 -0.0260 -0.0125  0.0887
  153POPC   GL2 2261   9.014   3.130   4.967  0.2550 -0.0962 -0.0566
  153POPC   C1A 2262   8.996   3.541   5.344  0.2590 -0.1596  0.2837
  153POPC   D2A 2263   8.866   3.670   5.718  0.0581  0.2908 -0.5095
  153POPC   C3A 2264   8.918   3.968   6.045  0.0308  0.0487  0.0050
  153POPC   C4A 2265   8.978   4.419   6.162  0.1433  0.3009 -0.0244
  153POPC   C1B 2266   9.388   3.115   5.268 -0.0970 -0.0192  0.2152
  153POPC   C2B 2267   9.398   3.318   5.677  0.3104 -0.0481  0.0296
  153POPC   C3B 2268   9.291   3.608   6.045  0.1756  0.2338  0.2358
  153POPC   C4B 2269   9.034   3.761   6.506  0.5416  0.0235  0.1471
  154POPC   NC3 2270   3.020   2.739   3.860 -0.2040 -0.0764  0.2954
  154POPC   PO4 2271   2.922   2.414   3.505 -0.1344 -0.0780 -0.1437
  154POPC   GL1 2272   2.705   2.283   3.736 -0.2269  0.2359  0.0246
  154POPC   GL2 2273   2.734   2.349   4.034  0.3889 -0.1398 -0.4596
  154POPC   C1A 2274   2.268   2.255   4.044  0.3844  0.3242  0.1466
  154POPC   D2A 2275   2.158   2.292   4.557 -0.1902 -0.0870  0.2828
  154POPC   C3A 2276   1.743   2.528   4.580  0.1694 -0.0806  0.0570
  154POPC   C4A 2277   1.384   2.706   4.583 -0.1583 -0.0104 -0.2192
  154POPC   C1B 2278   2.644   2.121   4.400 -0.1935 -0.0083  0.0615
  154POPC   C2B 2279   2.459   1.837   4.682  0.0036 -0.2535 -0.3748
  154POPC   C3B 2280   2.362   1.457   4.751  0.0387  0.1504 -0.0889
  154POPC   C4B 2281   2.390   0.954   4.845  0.0429 -0.0843 -0.0121
  155POPC   NC3 2282   3.691   6.870   4.432  0.0575 -0.0828 -0.2212
  155POPC   PO4 2283   3.686   7.451   4.344 -0.2002 -0.1555  0.0313
  155POPC   GL1 2284   3.560   7.523   4.730 -0.0154  0.3684  0.1311
  155POPC   GL2 2285   3.726   7.771   4.857 -0.0514 -0.2970 -0.2148
  155POPC   C1A 2286   3.310   7.583   5.113  0.2569 -0.2838  0.4052
  155POPC   D2A 2287   3.052   7.394   5.285 -0.0331  0.0803  0.1052
  155POPC   C3A 2288   3.071   7.364   5.841 -0.3988 -0.1480  0.0439
  155POPC   C4A 2289   3.295   7.469   6.146 -0.1255 -0.0393  0.1119
  155POPC   C1B 2290   3.820   7.724   5.290 -0.0392  0.1581 -0.2185
  155POPC   C2B 2291   3.465   7.788   5.728 -0.0427 -0.0939  0.2514
  155POPC   C3B 2292   3.520   8.075   6.061  0.4018 -0.1278 -0.2951
  155POPC   C4B 2293   3.374   7.976   6.364  0.0645  0.2478  0.4965
  156POPC   NC3 2294   8.881   6.497   5.026 -0.2932  0.1357 -0.0091
  156POPC   PO4 2295   9.030   6.195   4.915  0.0588  0.1151 -0.1074
  156POPC   GL1 2296   9.338   5.994   5.270  0.0900  0.2527 -0.1254
  156POPC   GL2 2297   9.328   6.300   5.441 -0.1975 -0.0359 -0.1768
  156POPC   C1A 2298   9.175   5.686   5.641  0.1590  0.1678  0.1171
  156POPC   D2A 2299   9.186   5.330   5.869  0.0188 -0.0185 -0.1938
  156POPC   C3A 2300   9.353   5.180   6.339  0.1039 -0.1199  0.2222
  156POPC   C4A 2301   9.315   5.156   6.770  0.1407 -0.2424 -0.0944
  156POPC   C1B 2302   9.418   6.710   5.405  0.1958  0.3160  0.1266
  156POPC   C2B 2303   9.602   6.937   5.629 -0.3195  0.3616  0.1992
  156POPC   C3B 2304   9.891   7.040   5.850 -0.0292 -0.0598 -0.0701
  156POPC   C4B 2305  10.222   6.703   5.878  0.2781 -0.0826  0.0033
  157POPC   NC3 2306   9.252   7.744   4.723 -0.0701 -0.1139 -0.1946
  157POPC   PO4 2307   9.743   7.779   4.846 -0.0095 -0.2049  0.2611
  157POPC   GL1 2308   9.715   7.858   5.272 -0.1839  0.1234 -0.1765
  157POPC   GL2 2309  10.107   7.890   5.368 -0.0888 -0.3048  0.0234
  157POPC   C1A 2310   9.742   8.026   5.673 -0.3884 -0.1547  0.3528
  157POPC   D2A 2311   9.830   8.119   5.923 -0.0100  0.2824  0.1919
  157POPC   C3A 2312   9.692   7.978   6.287 -0.0230  0.1866  0.0697
  157POPC   C4A 2313   9.583   7.790   6.674 -0.0016 -0.2166  0.1078
  157POPC   C1B 2314  10.057   7.554   5.589  0.1907  0.1649  0.2001
  157POPC   C2B 2315  10.346   7.266   5.855 -0.1129 -0.0644  0.1267
  157POPC   C3B 2316  10.611   7.095   6.035  0.1651  0.1533  0.1728
  157POPC   C4B 2317  10.938   7.157   6.233 -0.0807  0.0405 -0.0060
  158POPC   NC3 2318   5.171   5.797   4.629  0.3135 -0.3562 -0.0713
  158POPC   PO4 2319   5.057   6.108   4.689 -0.1438 -0.1845  0.2338
  158POPC   GL1 2320   5.126   6.035   5.133  0.0334  0.0804  0.0280
  158POPC   GL2 2321   5.352   5.916   5.075  0.0886 -0.1054  0.1555
  158POPC   C1A 2322   5.033   6.137   5.519  0.3675  0.0876 -0.1273
  158POPC   D2A 2323   5.052   6.302   5.934  0.1728 -0.2200  0.6160
  158POPC   C3A 2324   4.829   6.112   6.251 -0.0855 -0.2606  0.1563
  158POPC   C4A 2325   4.512   6.104   6.551  0.1830 -0.2075  0.4401
  158POPC   C1B 2326   5.589   6.076   5.482 -0.2449 -0.2932  0.1921
  158POPC   C2B 2327   5.550   6.118   5.921  0.0960 -0.1359 -0.1379
  158POPC   C3B 2328   5.601   6.484   6.226 -0.0179 -0.2236 -0.1208
  158POPC   C4B 2329   5.728   6.594   6.712 -0.1517  0.1022  0.0792
  159POPC   NC3 2330   6.251   4.867   4.744 -0.1036  0.0121 -0.1971
  159POPC   PO4 2331   5.958   4.616   4.849 -0.1856  0.3769 -0.1609
  159POPC   GL1 2332   5.937   4.494   5.218 -0.1613  0.1971 -0.0090
  159POPC   GL2 2333   5.608   4.355   5.253  0.0144 -0.0172 -0.0304
  159POPC   C1A 2334   6.211   4.616   5.577 -0.0021 -0.1508 -0.2980
  159POPC   D2A 2335   6.238   4.892   5.884  0.1589  0.0615 -0.2079
  159POPC   C3A 2336   5.911   4.776   6.280  0.1744  0.2069  0.0141
  159POPC   C4A 2337   5.764   4.952   6.572 -0.0443  0.1644  0.1027
  159POPC   C1B 2338   5.450   4.145   5.576  0.3011 -0.0282 -0.1262
  159POPC   C2B 2339   5.653   4.007   5.979  0.0759  0.0634 -0.1457
  159POPC   C3B 2340   5.897   3.701   6.197 -0.0507  0.1608  0.3955
  159POPC   C4B 2341   6.022   3.477   6.598  0.1875  0.0614 -0.1175
  160POPC   NC3 2342   7.978   1.580   4.100  0.1329 -0.4158  0.0305
  160POPC   PO4 2343   8.164   1.450   4.440  0.2190 -0.0800 -0.0529
  160POPC   GL1 2344   8.330   1.427   4.811 -0.1131 -0.1055 -0.1197
  160POPC   GL2 2345   8.041   1.365   4.954 -0.1522 -0.0158  0.0874
  160POPC   C1A 2346   8.664   1.327   5.167 -0.1880 -0.1370  0.1794
  160POPC   D2A 2347   8.903   0.958   5.304  0.0805  0.0414  0.1251
  160POPC   C3A 2348   9.025   0.879   5.787  0.0915  0.2388  0.1951
  160POPC   C4A 2349   8.949   0.839   6.315  0.1752  0.0919  0.1411
  160POPC   C1B 2350   8.059   1.308   5.377 -0.1475 -0.0561  0.2692
  160POPC   C2B 2351   8.100   1.223   5.753 -0.4026 -0.0509 -0.0937
  160POPC   C3B 2352   8.468   1.247   6.183 -0.1453 -0.0171 -0.1173
  160POPC   C4B 2353   8.976   1.378   6.230 -0.0517 -0.1215  0.0346
  161POPC   NC3 2354   4.796   2.685   4.522 -0.1610 -0.0570  0.3159
  161POPC   PO4 2355   4.328   2.604   4.437 -0.0368 -0.2371  0.1939
  161POPC   GL1 2356   4.480   2.689   4.948  0.2739 -0.2099  0.2819
  161POPC   GL2 2357   4.772   2.521   4.982  0.0804 -0.1691 -0.2375
  161POPC   C1A 2358   4.178   2.760   5.319  0.0146 -0.2707 -0.0747
  161POPC   D2A 2359   4.088   2.643   5.800 -0.2601  0.0331  0.0753
  161POPC   C3A 2360   3.898   2.284   5.929  0.1452  0.1825 -0.3382
  161POPC   C4A 2361   3.616   2.012   5.732  0.0730  0.1325  0.1483
  161POPC   C1B 2362   4.596   2.463   5.406 -0.0492 -0.0519  0.2368
  161POPC   C2B 2363   4.414   2.288   5.798 -0.1598 -0.3014 -0.2224
  161POPC   C3B 2364   4.351   2.030   6.157 -0.3349  0.0409  0.0052
  161POPC   C4B 2365   4.223   1.914   6.620  0.0969  0.0303  0.1779
  162POPC   NC3 2366   6.212   9.583   4.719 -0.0106  0.0691  0.2836
  162POPC   PO4 2367   5.951   9.938   4.770  0.1758  0.0022 -0.3562
  162POPC   GL1 2368   5.713  10.073   5.165  0.1784 -0.0767  0.4894
  162POPC   GL2 2369   5.484  10.309   5.231  0.3065 -0.2131  0.1779
  162POPC   C1A 2370   5.649   9.965   5.600 -0.2219  0.3320 -0.1752
  162POPC   D2A 2371   5.405  10.058   5.874 -0.1521 -0.1088 -0.2944
  162POPC   C3A 2372   5.308  10.428   5.866 -0.2452 -0.0446  0.6208
  162POPC   C4A 2373   5.391  10.710   5.532  0.0340  0.1029 -0.1929
  162POPC   C1B 2374   5.141  10.244   5.445 -0.1105 -0.1436  0.3222
  162POPC   C2B 2375   4.845  10.466   5.757  0.0680 -0.3469  0.0068
  162POPC   C3B 2376   4.522  10.504   6.087 -0.0485 -0.1820 -0.1235
  162POPC   C4B 2377   4.094  10.250   6.125  0.0705 -0.0418 -0.1901
  163POPC   NC3 2378   8.218   5.889   4.767  0.0749 -0.1412  0.0411
  163POPC   PO4 2379   8.542   6.167   4.792 -0.1691 -0.0925 -0.0278
  163POPC   GL1 2380   8.572   5.980   5.138  0.1024 -0.0281  0.1860
  163POPC   GL2 2381   8.792   6.128   5.371 -0.0528  0.0574 -0.0056
  163POPC   C1A 2382   8.563   5.866   5.684  0.1395 -0.0658  0.0427
  163POPC   D2A 2383   8.414   6.017   6.044 -0.1360 -0.2219 -0.0706
  163POPC   C3A 2384   8.176   6.279   6.045 -0.1218  0.0517  0.1350
  163POPC   C4A 2385   7.811   6.428   5.993  0.1003  0.0698  0.2789
  163POPC   C1B 2386   8.977   6.113   5.730  0.0707 -0.2530  0.1793
  163POPC   C2B 2387   8.899   5.849   6.057 -0.1324  0.1333  0.3985
  163POPC   C3B 2388   9.088   5.617   6.293  0.3377 -0.5204 -0.2514
  163POPC   C4B 2389   8.954   5.531   6.740  0.1368  0.1611  0.2784
  164POPC   NC3 2390   7.787   5.992   4.052  0.0992  0.2016 -0.0690
  164POPC   PO4 2391   7.825   5.858   4.506 -0.2351  0.2520  0.3641
  164POPC   GL1 2392   7.757   6.062   4.868 -0.0046 -0.3656  0.0489
  164POPC   GL2 2393   8.047   6.054   5.160 -0.1347  0.5012 -0.0851
  164POPC   C1A 2394   7.527   6.282   5.177  0.1173  0.0037  0.0535
  164POPC   D2A 2395   7.561   6.272   5.559 -0.3482 -0.1997  0.0551
  164POPC   C3A 2396   7.364   6.553   5.878 -0.0780 -0.5094 -0.1952
  164POPC   C4A 2397   7.245   6.784   6.253  0.0649  0.0280 -0.2849
  164POPC   C1B 2398   8.135   6.102   5.582  0.0821  0.3903  0.3527
  164POPC   C2B 2399   7.853   5.844   5.926 -0.3928  0.0144 -0.1842
  164POPC   C3B 2400   7.835   5.498   6.255 -0.2791  0.4245  0.1819
  164POPC   C4B 2401   7.565   5.090   6.287 -0.1673 -0.0678  0.2533
  165POPC   NC3 2402   0.701   1.039   2.642  0.1864 -0.0725 -0.1786
  165POPC   PO4 2403   0.858   1.408   2.928  0.2894  0.3843  0.5008
  165POPC   GL1 2404   0.832   1.389   3.375 -0.0886  0.1111  0.1989
  165POPC   GL2 2405   0.544   1.552   3.661 -0.4851 -0.0561  0.1058
  165POPC   C1A 2406   0.753   1.128   3.730  0.1437 -0.1840 -0.1093
  165POPC   D2A 2407   0.550   1.116   4.119 -0.3631 -0.1642 -0.1740
  165POPC   C3A 2408   0.590   1.477   4.271 -0.1624 -0.1976 -0.0181
  165POPC   C4A 2409   0.744   1.596   4.747  0.0877 -0.0986  0.0992
  165POPC   C1B 2410   0.570   1.874   4.035 -0.0929  0.1569  0.1775
  165POPC   C2B 2411   0.714   2.063   4.406  0.0867 -0.0557  0.2681
  165POPC   C3B 2412   0.442   2.051   4.844 -0.1604  0.0553  0.0752
  165POPC   C4B 2413   0.111   2.207   5.196 -0.1615  0.0032  0.1688
  166POPC   NC3 2414   7.475   8.002   5.155 -0.0164 -0.0721 -0.0439
  166POPC   PO4 2415   7.830   8.304   5.033  0.0977  0.1311 -0.0938
  166POPC   GL1 2416   7.840   8.399   5.438  0.0638  0.0536 -0.0055
  166POPC   GL2 2417   7.954   8.161   5.551  0.3041 -0.0259 -0.3213
  166POPC   C1A 2418   7.576   8.487   5.817 -0.2117  0.3255 -0.6907
  166POPC   D2A 2419   7.485   8.469   6.292 -0.3066 -0.2887  0.0770
  166POPC   C3A 2420   7.809   8.674   6.564 -0.0468 -0.0899  0.0446
  166POPC   C4A 2421   7.890   9.039   6.557  0.0080  0.1497 -0.1022
  166POPC   C1B 2422   8.011   7.847   5.747 -0.5542  0.0111 -0.3042
  166POPC   C2B 2423   7.908   7.575   6.102 -0.1667 -0.1692  0.2961
  166POPC   C3B 2424   7.932   7.490   6.444  0.1130  0.0073  0.3757
  166POPC   C4B 2425   7.824   7.540   6.809  0.3192  0.0418 -0.4943
  167POPC   NC3 2426   4.493   0.236   4.152  0.1107 -0.3728  0.0952
  167POPC   PO4 2427   4.694   0.330   4.478 -0.3690  0.1476 -0.1557
  167POPC   GL1 2428   4.512   0.168   4.794  0.1671  0.0138  0.2039
  167POPC   GL2 2429   4.648  -0.057   4.934 -0.2157 -0.3811  0.0810
  167POPC   C1A 2430   4.087   0.400   4.760  0.0502  0.1228  0.0801
  167POPC   D2A 2431   3.808   0.739   4.537  0.2948  0.2566 -0.2446
  167POPC   C3A 2432   3.708   1.053   4.810 -0.3720  0.1630 -0.4098
  167POPC   C4A 2433   3.822   1.165   5.229  0.0308 -0.2278 -0.0903
  167POPC   C1B 2434   4.642   0.171   5.265 -0.1777 -0.1157 -0.0244
  167POPC   C2B 2435   4.524   0.540   5.329 -0.1027  0.2498 -0.1262
  167POPC   C3B 2436   4.392   0.831   5.614  0.1529  0.0307  0.1035
  167POPC   C4B 2437   4.004   1.082   5.667 -0.0451 -0.1879  0.1210
  168POPC   NC3 2438   8.805   2.674   4.087  0.1983 -0.1295  0.0200
  168POPC   PO4 2439   8.665   2.213   4.228 -0.0839  0.0152  0.0955
  168POPC   GL1 2440   8.742   2.041   4.587 -0.1657  0.0667 -0.3795
  168POPC   GL2 2441   8.795   1.638   4.658 -0.0575 -0.1755  0.1011
  168POPC   C1A 2442   8.746   2.304   5.040  0.0104  0.2271 -0.2571
  168POPC   D2A 2443   8.438   2.183   5.466 -0.0169  0.1309  0.0837
  168POPC   C3A 2444   8.488   2.123   5.901  0.1802  0.1403 -0.0482
  168POPC   C4A 2445   8.528   1.756   6.347 -0.3083  0.4908  0.0119
  168POPC   C1B 2446   8.804   1.790   5.055  0.1816  0.1659 -0.2524
  168POPC   C2B 2447   8.898   1.826   5.509  0.2377  0.2873  0.0494
  168POPC   C3B 2448   8.891   1.779   5.936 -0.3280 -0.1368  0.0775
  168POPC   C4B 2449   8.988   1.955   6.272  0.0025  0.0451  0.1125
  169POPC   NC3 2450   7.224   1.753   4.803  0.0537 -0.2428  0.3112
  169POPC   PO4 2451   7.388   2.061   4.602  0.0627 -0.0436  0.4130
  169POPC   GL1 2452   7.701   2.116   4.916  0.1470  0.2090  0.1762
  169POPC   GL2 2453   7.738   1.781   4.985 -0.1129  0.0084 -0.1144
  169POPC   C1A 2454   7.885   2.235   5.253 -0.2429 -0.0665 -0.0094
  169POPC   D2A 2455   8.034   2.549   5.562 -0.0884 -0.0507 -0.1428
  169POPC   C3A 2456   8.205   3.037   5.681 -0.1552  0.1672 -0.1804
  169POPC   C4A 2457   8.402   3.201   5.990 -0.1426 -0.4454 -0.1594
  169POPC   C1B 2458   7.905   1.758   5.485 -0.0052  0.2332  0.2851
  169POPC   C2B 2459   7.740   1.742   5.864  0.0183 -0.1883 -0.2740
  169POPC   C3B 2460   7.490   2.098   6.116 -0.0062 -0.1775  0.2011
  169POPC   C4B 2461   7.204   2.442   5.970  0.2787 -0.2482 -0.2040
  170POPC   NC3 2462   5.889   8.038   4.368  0.0364  0.4466  0.1821
  170POPC   PO4 2463   6.172   7.761   4.639 -0.0601  0.1540  0.2279
  170POPC   GL1 2464   6.367   7.662   5.072 -0.0271  0.0160 -0.0339
  170POPC   GL2 2465   6.552   7.919   5.198  0.1933 -0.2030 -0.1251
  170POPC   C1A 2466   6.202   7.460   5.395  0.0735  0.1110 -0.1254
  170POPC   D2A 2467   6.428   7.411   5.796  0.1124 -0.3546  0.1807
  170POPC   C3A 2468   6.799   7.184   5.768 -0.0645  0.1134 -0.1409
  170POPC   C4A 2469   7.041   6.873   5.702 -0.0729  0.0234 -0.0274
  170POPC   C1B 2470   6.493   7.855   5.514  0.1884 -0.1663 -0.1160
  170POPC   C2B 2471   6.228   7.834   5.944  0.0701  0.2062 -0.1725
  170POPC   C3B 2472   5.765   7.797   5.988  0.2191 -0.1314 -0.2326
  170POPC   C4B 2473   5.323   7.965   6.048  0.0473  0.1562 -0.0293
  171POPC   NC3 2474   3.629   9.138   4.025  0.2400 -0.3140  0.0094
  171POPC   PO4 2475   3.740   8.913   4.414 -0.1120 -0.0060  0.1110
  171POPC   GL1 2476   3.600   8.965   4.796 -0.0578 -0.0934  0.3412
  171POPC   GL2 2477   3.366   8.731   4.888 -0.1356  0.1772 -0.0858
  171POPC   C1A 2478   3.529   9.188   5.238 -0.0573 -0.0574  0.0645
  171POPC   D2A 2479   3.487   9.433   5.551  0.2976  0.2109  0.0726
  171POPC   C3A 2480   3.620   9.845   5.625 -0.4744  0.2807 -0.1000
  171POPC   C4A 2481   3.593  10.028   6.036 -0.0591 -0.2897 -0.1581
  171POPC   C1B 2482   3.043   9.013   5.134 -0.0124 -0.0383  0.3599
  171POPC   C2B 2483   2.816   9.300   5.422  0.0805 -0.1866  0.1462
  171POPC   C3B 2484   3.106   9.428   5.799  0.2355 -0.1888  0.1521
  171POPC   C4B 2485   3.161   9.889   5.776  0.3363 -0.0324  0.1683
  172POPC   NC3 2486   8.587   5.131   4.741 -0.0550  0.1727 -0.0797
  172POPC   PO4 2487   8.399   5.417   4.580 -0.1184  0.3128  0.2317
  172POPC   GL1 2488   8.468   5.512   5.050 -0.0573  0.1062  0.4648
  172POPC   GL2 2489   8.747   5.447   5.202  0.1883 -0.1863 -0.2218
  172POPC   C1A 2490   8.244   5.639   5.405 -0.0034  0.1874  0.0151
  172POPC   D2A 2491   8.268   5.516   5.886  0.0836 -0.2036  0.0142
  172POPC   C3A 2492   8.494   5.535   6.242 -0.4168 -0.0051  0.1289
  172POPC   C4A 2493   8.469   5.694   6.631  0.0577 -0.0953 -0.2830
  172POPC   C1B 2494   8.749   5.362   5.633  0.2043 -0.0978  0.2304
  172POPC   C2B 2495   8.558   5.113   5.818 -0.1340 -0.7025  0.0892
  172POPC   C3B 2496   8.785   4.994   6.128 -0.2238  0.0591  0.1576
  172POPC   C4B 2497   9.000   4.808   6.501  0.1907  0.0097  0.0831
  173POPC   NC3 2498   8.333   8.153   5.116  0.3126 -0.1090 -0.1051
  173POPC   PO4 2499   8.300   8.534   4.947  0.0584  0.0599  0.1218
  173POPC   GL1 2500   8.300   8.657   5.301  0.2206 -0.0061  0.0145
  173POPC   GL2 2501   8.523   8.538   5.467  0.3618 -0.3316 -0.0784
  173POPC   C1A 2502   8.061   8.727   5.710 -0.4399 -0.1344  0.1380
  173POPC   D2A 2503   7.977   8.820   6.109  0.0680 -0.0226 -0.0964
  173POPC   C3A 2504   8.265   8.559   6.471 -0.1472 -0.1341 -0.1648
  173POPC   C4A 2505   8.621   8.572   6.716 -0.0181 -0.3561 -0.0182
  173POPC   C1B 2506   8.399   8.217   5.755 -0.1493 -0.3307  0.1843
  173POPC   C2B 2507   8.051   8.291   6.099  0.5136  0.0832 -0.1654
  173POPC   C3B 2508   7.733   8.067   6.150 -0.1714 -0.0214  0.0971
  173POPC   C4B 2509   7.482   7.794   6.238  0.1198  0.0555 -0.6108
  174POPC   NC3 2510   6.971   2.367   4.560  0.0149 -0.2192  0.0706
  174POPC   PO4 2511   7.315   2.536   4.846 -0.0403 -0.2359 -0.0174
  174POPC   GL1 2512   7.400   2.422   5.233  0.1121 -0.3503 -0.1802
  174POPC   GL2 2513   7.260   2.083   5.176 -0.0784 -0.3489  0.1254
  174POPC   C1A 2514   7.610   2.266   5.668  0.1970  0.1435 -0.3306
  174POPC   D2A 2515   8.003   2.170   5.809  0.2756  0.0840 -0.1724
  174POPC   C3A 2516   8.175   2.510   6.047 -0.0124 -0.1893 -0.1046
  174POPC   C4A 2517   8.060   2.922   6.189 -0.1324  0.0799 -0.0302
  174POPC   C1B 2518   7.019   1.966   5.610  0.4368 -0.1464 -0.0758
  174POPC   C2B 2519   6.902   2.087   6.068 -0.0517  0.4514  0.2075
  174POPC   C3B 2520   7.057   2.273   6.417  0.1188  0.0036 -0.0571
  174POPC   C4B 2521   7.304   2.667   6.548 -0.0512 -0.0198  0.0890
  175POPC   NC3 2522   0.522   6.294   4.429  0.1482  0.0058  0.2958
  175POPC   PO4 2523   0.884   6.593   4.558 -0.0635  0.1463 -0.1672
  175POPC   GL1 2524   0.803   6.299   4.882 -0.0733  0.0446 -0.0980
  175POPC   GL2 2525   0.519   6.153   4.963  0.0757 -0.1121  0.1613
  175POPC   C1A 2526   1.017   6.297   5.327  0.0964  0.0179  0.2628
  175POPC   D2A 2527   1.191   6.405   5.684 -0.3485  0.3750  0.0902
  175POPC   C3A 2528   1.480   6.046   5.757  0.0926  0.1618  0.1592
  175POPC   C4A 2529   1.781   6.003   6.092  0.0325 -0.0811  0.1232
  175POPC   C1B 2530   0.570   5.930   5.367  0.1515  0.2341 -0.2109
  175POPC   C2B 2531   0.311   5.770   5.760  0.0108  0.2569 -0.3201
  175POPC   C3B 2532   0.131   5.808   6.181 -0.0757 -0.0340 -0.1830
  175POPC   C4B 2533   0.204   5.378   6.401 -0.1377 -0.1252 -0.2330
  176POPC   NC3 2534   5.841   1.135   4.414 -0.2396  0.1440  0.0808
  176POPC   PO4 2535   6.251   1.059   4.515 -0.3448  0.1045  0.2693
  176POPC   GL1 2536   6.114   1.026   4.922  0.0182 -0.2880 -0.3118
  176POPC   GL2 2537   5.822   0.869   5.008  0.0158 -0.2165  0.0008
  176POPC   C1A 2538   6.026   1.119   5.364  0.3480  0.2868  0.0911
  176POPC   D2A 2539   5.873   1.031   5.739 -0.0685  0.0074 -0.1756
  176POPC   C3A 2540   6.209   1.097   6.138  0.0912  0.2100 -0.0643
  176POPC   C4A 2541   6.412   1.074   6.541 -0.0322 -0.0483 -0.3095
  176POPC   C1B 2542   5.904   0.636   5.372 -0.0813  0.3589  0.1821
  176POPC   C2B 2543   5.778   0.546   5.763 -0.1923 -0.2662 -0.0200
  176POPC   C3B 2544   5.821   0.699   6.106 -0.1692  0.0770 -0.0179
  176POPC   C4B 2545   5.623   0.690   6.523 -0.1715  0.0338 -0.0913
  177POPC   NC3 2546   2.149   7.391   4.388  0.1591  0.2486 -0.1120
  177POPC   PO4 2547   2.008   6.947   4.417 -0.1564 -0.2263 -0.1434
  177POPC   GL1 2548   1.990   7.072   4.800 -0.1386 -0.1908 -0.2984
  177POPC   GL2 2549   1.625   7.188   4.813 -0.1331  0.1485  0.3342
  177POPC   C1A 2550   2.112   7.216   5.229 -0.0232 -0.1712  0.1931
  177POPC   D2A 2551   2.195   7.308   5.632  0.2546 -0.0853  0.2688
  177POPC   C3A 2552   1.900   7.509   6.057 -0.0722  0.1005 -0.2525
  177POPC   C4A 2553   1.857   7.898   6.252  0.0402  0.0572  0.2127
  177POPC   C1B 2554   1.559   6.920   5.225  0.3210  0.0825  0.2933
  177POPC   C2B 2555   1.601   6.707   5.643 -0.0646  0.0182 -0.0493
  177POPC   C3B 2556   1.709   6.541   6.078  0.2245  0.2041  0.0816
  177POPC   C4B 2557   1.674   6.308   6.475 -0.1779 -0.0546  0.1425
  178POPC   NC3 2558   3.234   0.663   3.694 -0.1684  0.0884 -0.0801
  178POPC   PO4 2559   2.840   0.440   3.562  0.0257 -0.2166  0.1737
  178POPC   GL1 2560   2.564   0.596   3.934  0.2500  0.3934 -0.0943
  178POPC   GL2 2561   2.657   0.524   4.138  0.2619  0.1666 -0.0049
  178POPC   C1A 2562   2.352   0.854   4.259  0.0630  0.0459 -0.1506
  178POPC   D2A 2563   2.025   0.955   4.480  0.0411  0.0183 -0.0952
  178POPC   C3A 2564   1.946   1.141   4.942  0.0228  0.0997  0.0233
  178POPC   C4A 2565   2.287   1.263   5.244 -0.2106 -0.0988 -0.1855
  178POPC   C1B 2566   2.848   0.957   4.161 -0.0133  0.1572  0.4179
  178POPC   C2B 2567   3.057   1.362   4.179  0.0502  0.0571  0.2629
  178POPC   C3B 2568   2.852   1.537   4.481  0.0123 -0.1049  0.1234
  178POPC   C4B 2569   2.998   1.741   4.759 -0.1968 -0.0249 -0.0285
  179POPC   NC3 2570   0.149   9.734   4.118  0.1691  0.1616  0.0212
  179POPC   PO4 2571  -0.034   9.995   3.913  0.1019 -0.1645  0.0234
  179POPC   GL1 2572   0.142  10.160   4.354 -0.0865 -0.1252 -0.0162
  179POPC   GL2 2573   0.450  10.070   4.373  0.1198 -0.4411  0.1133
  179POPC   C1A 2574  -0.001  10.266   4.733 -0.1300 -0.2783 -0.1035
  179POPC   D2A 2575   0.183  10.375   5.124  0.2029  0.1373 -0.1244
  179POPC   C3A 2576   0.565  10.680   5.202 -0.1551  0.2412 -0.0976
  179POPC   C4A 2577   0.816  10.623   5.702  0.0922 -0.2341 -0.0021
  179POPC   C1B 2578   0.891  10.288   4.337  0.4177  0.3149  0.3382
  179POPC   C2B 2579   1.247  10.456   4.312 -0.0244 -0.1299 -0.1081
  179POPC   C3B 2580   1.483  10.571   4.717  0.0846  0.1377 -0.1354
  179POPC   C4B 2581   1.538  10.624   5.137 -0.1952 -0.0067 -0.0844
  180POPC   NC3 2582   4.844   6.978   4.212 -0.2910  0.1352  0.0881
  180POPC   PO4 2583   4.769   6.672   4.606 -0.1967  0.2671  0.0738
  180POPC   GL1 2584   4.564   6.792   4.899 -0.0166  0.4953 -0.0894
  180POPC   GL2 2585   4.778   6.852   5.175 -0.3204 -0.2914 -0.1208
  180POPC   C1A 2586   4.320   6.455   5.248 -0.2612 -0.1596  0.0019
  180POPC   D2A 2587   4.520   6.181   5.482  0.1030  0.0037  0.0459
  180POPC   C3A 2588   4.479   6.185   5.879 -0.2191  0.1665 -0.3304
  180POPC   C4A 2589   4.392   6.437   6.163  0.0696 -0.0358  0.1066
  180POPC   C1B 2590   4.827   6.637   5.552 -0.0378 -0.0537  0.0669
  180POPC   C2B 2591   4.767   6.878   6.054 -0.1524 -0.2331  0.1326
  180POPC   C3B 2592   4.552   6.931   6.357  0.0753  0.0764 -0.0180
  180POPC   C4B 2593   4.342   6.625   6.649 -0.2994 -0.3062 -0.1144
  181POPC   NC3 2594   6.264   5.686   4.796  0.1097 -0.1275  0.1753
  181POPC   PO4 2595   6.722   5.553   4.897  0.2235 -0.2256  0.0077
  181POPC   GL1 2596   6.429   5.514   5.251  0.1856 -0.1424  0.1811
  181POPC   GL2 2597   6.089   5.695   5.331 -0.1499  0.3237 -0.2365
  181POPC   C1A 2598   6.502   5.729   5.646 -0.1694  0.2455 -0.1710
  181POPC   D2A 2599   6.131   5.929   5.814 -0.2237 -0.1494  0.0411
  181POPC   C3A 2600   6.013   6.081   6.202 -0.0057 -0.1028 -0.1901
  181POPC   C4A 2601   5.789   6.080   6.569 -0.1563  0.1442  0.1708
  181POPC   C1B 2602   6.108   5.427   5.708  0.0686  0.2273 -0.1534
  181POPC   C2B 2603   6.483   5.305   6.024  0.1419  0.1411 -0.1394
  181POPC   C3B 2604   6.554   5.420   6.337  0.0251  0.1212 -0.4023
  181POPC   C4B 2605   6.386   5.753   6.673  0.4019  0.1554 -0.0032
  182POPC   NC3 2606   1.404   4.379   3.826 -0.0492  0.0409 -0.2064
  182POPC   PO4 2607   1.666   4.309   4.092 -0.0695 -0.2257  0.0736
  182POPC   GL1 2608   1.840   3.836   4.215  0.3425  0.0442 -0.0118
  182POPC   GL2 2609   1.568   3.530   4.054 -0.1723 -0.0871  0.1370
  182POPC   C1A 2610   2.131   3.668   4.369 -0.2599 -0.5236 -0.0464
  182POPC   D2A 2611   2.628   3.566   4.593  0.1556  0.1663  0.0132
  182POPC   C3A 2612   2.811   3.481   5.037  0.3149 -0.4252  0.0045
  182POPC   C4A 2613   3.027   3.126   5.301 -0.1948  0.0098  0.1103
  182POPC   C1B 2614   1.251   3.426   4.452 -0.0383 -0.0910 -0.2086
  182POPC   C2B 2615   1.325   3.169   4.709  0.0099 -0.0867 -0.3249
  182POPC   C3B 2616   1.275   2.915   5.043 -0.0505 -0.1939  0.0294
  182POPC   C4B 2617   1.225   2.900   5.529  0.1358  0.1486 -0.3616
  183POPC   NC3 2618   6.478   0.531   4.550  0.0813 -0.0314 -0.0774
  183POPC   PO4 2619   6.854   0.504   4.678 -0.1875  0.1889 -0.0774
  183POPC   GL1 2620   6.976   0.588   5.160  0.3363  0.1099  0.0668
  183POPC   GL2 2621   7.132   0.363   5.403 -0.0034 -0.2035 -0.0015
  183POPC   C1A 2622   6.894   0.764   5.562 -0.1202 -0.0570  0.0565
  183POPC   D2A 2623   6.673   1.127   5.843  0.2620  0.1561 -0.1586
  183POPC   C3A 2624   6.347   1.314   5.690  0.3484 -0.0073  0.1369
  183POPC   C4A 2625   5.942   1.508   5.579  0.1073  0.2586  0.0346
  183POPC   C1B 2626   7.487   0.278   5.542 -0.0806 -0.2362 -0.0758
  183POPC   C2B 2627   7.673   0.327   5.869 -0.0676  0.0869  0.1019
  183POPC   C3B 2628   7.479   0.324   6.266  0.2072 -0.0129 -0.0591
  183POPC   C4B 2629   7.510   0.829   6.387  0.0827  0.1660 -0.0377
  184POPC   NC3 2630   0.674   7.035   4.510  0.1257 -0.1512 -0.0976
  184POPC   PO4 2631   0.405   6.755   4.429  0.1430  0.0434 -0.0054
  184POPC   GL1 2632   0.377   6.634   4.848  0.1003 -0.0053  0.1859
  184POPC   GL2 2633   0.486   6.947   5.002 -0.1557  0.2847  0.1413
  184POPC   C1A 2634   0.446   6.494   5.287  0.0846  0.0227 -0.1267
  184POPC   D2A 2635   0.458   6.256   5.707 -0.1855 -0.2955 -0.0942
  184POPC   C3A 2636   0.592   6.123   6.052 -0.0820 -0.0273 -0.4713
  184POPC   C4A 2637   0.594   6.136   6.496 -0.4764  0.0438 -0.3396
  184POPC   C1B 2638   0.601   6.962   5.472  0.3521  0.2212 -0.2350
  184POPC   C2B 2639   0.735   6.655   5.725 -0.0650 -0.0392  0.0035
  184POPC   C3B 2640   0.696   6.559   6.136  0.0952 -0.2589  0.0076
  184POPC   C4B 2641   0.594   6.638   6.678  0.0334  0.1372  0.0011
  185POPC   NC3 2642   1.787   9.034   4.294 -0.0017  0.0441 -0.0310
  185POPC   PO4 2643   1.784   9.466   4.061 -0.1143  0.3976 -0.0740
  185POPC   GL1 2644   1.742   9.626   4.547  0.1602  0.0744  0.0887
  185POPC   GL2 2645   1.434   9.509   4.745 -0.2423  0.2406 -0.0852
  185POPC   C1A 2646   2.026  10.038   4.653  0.1307 -0.3210  0.2311
  185POPC   D2A 2647   1.989  10.490   4.775  0.1297 -0.2748  0.0581
  185POPC   C3A 2648   2.022  10.600   5.224  0.1552 -0.1344 -0.2991
  185POPC   C4A 2649   1.988  11.006   5.587  0.2176  0.1699 -0.0610
  185POPC   C1B 2650   1.302   9.635   5.132 -0.0484  0.0190  0.0564
  185POPC   C2B 2651   1.036   9.926   5.302  0.0834  0.0210 -0.1952
  185POPC   C3B 2652   0.595  10.134   5.261  0.0734 -0.1439  0.0884
  185POPC   C4B 2653   0.438  10.304   5.652 -0.1980 -0.0668  0.1530
  186POPC   NC3 2654   1.633   6.707   4.588  0.3230 -0.0413 -0.2267
  186POPC   PO4 2655   1.967   6.466   4.302  0.0687  0.0818 -0.1781
  186POPC   GL1 2656   2.099   6.455   4.735  0.2475  0.3293  0.0588
  186POPC   GL2 2657   2.399   6.644   4.866 -0.1274 -0.0719  0.0916
  186POPC   C1A 2658   2.222   6.316   5.168  0.0503  0.1425 -0.1251
  186POPC   D2A 2659   2.369   6.426   5.538 -0.1214  0.2734  0.1307
  186POPC   C3A 2660   2.803   6.560   5.661  0.2535  0.1075 -0.1455
  186POPC   C4A 2661   3.115   6.491   5.853 -0.0016  0.1415 -0.1173
  186POPC   C1B 2662   2.061   6.753   5.114 -0.0453  0.0342 -0.0923
  186POPC   C2B 2663   2.076   6.837   5.516  0.1759  0.2102 -0.3527
  186POPC   C3B 2664   2.210   6.889   5.893 -0.0441  0.0272 -0.0487
  186POPC   C4B 2665   2.402   7.251   6.035 -0.0321  0.1670 -0.2286
  187POPC   NC3 2666   7.950   7.400   4.833 -0.4012 -0.1390  0.0429
  187POPC   PO4 2667   8.317   7.714   4.823 -0.0939  0.2916  0.1689
  187POPC   GL1 2668   8.519   7.633   5.229  0.2368  0.2132 -0.0721
  187POPC   GL2 2669   8.343   7.716   5.419  0.1110  0.0990  0.1747
  187POPC   C1A 2670   8.854   7.475   5.522 -0.3812  0.2395 -0.0067
  187POPC   D2A 2671   9.008   7.273   5.932  0.3033  0.0235  0.0678
  187POPC   C3A 2672   9.368   7.112   6.038  0.0081 -0.0052  0.0796
  187POPC   C4A 2673   9.670   6.912   6.260  0.0823  0.4041 -0.0697
  187POPC   C1B 2674   8.470   7.602   5.795  0.1205  0.2067 -0.0587
  187POPC   C2B 2675   8.303   7.799   6.244 -0.2788 -0.2514  0.0812
  187POPC   C3B 2676   8.026   7.985   6.513  0.2611  0.3031 -0.2348
  187POPC   C4B 2677   7.557   7.930   6.710  0.1883 -0.0867  0.0790
  188POPC   NC3 2678   3.883   0.271   3.326 -0.2427 -0.3255 -0.1569
  188POPC   PO4 2679   3.706   0.461   3.710 -0.1949  0.0474 -0.3707
  188POPC   GL1 2680   3.649   0.514   4.122 -0.0505  0.1242 -0.0303
  188POPC   GL2 2681   3.311   0.653   4.211 -0.1044  0.1843 -0.1618
  188POPC   C1A 2682   3.505   0.354   4.564  0.1734  0.4966  0.1749
  188POPC   D2A 2683   3.211   0.420   4.969  0.3007 -0.0242 -0.2108
  188POPC   C3A 2684   3.176   0.831   5.020 -0.1083  0.0142  0.1701
  188POPC   C4A 2685   2.987   1.127   5.441 -0.0192  0.0978  0.0428
  188POPC   C1B 2686   3.189   0.950   4.512 -0.4667  0.2427  0.0611
  188POPC   C2B 2687   2.910   1.176   4.762  0.0108  0.0718  0.0373
  188POPC   C3B 2688   2.825   1.405   5.052 -0.0820 -0.1226  0.1322
  188POPC   C4B 2689   2.845   1.583   5.493 -0.2460 -0.0089 -0.0516
  189POPC   NC3 2690   1.093   9.387   3.903  0.1564  0.0432 -0.1979
  189POPC   PO4 2691   0.848   9.262   4.154 -0.3339 -0.2222 -0.0440
  189POPC   GL1 2692   0.779   9.470   4.527  0.1511 -0.3135  0.0011
  189POPC   GL2 2693   0.463   9.582   4.464 -0.0918 -0.2764 -0.1824
  189POPC   C1A 2694   0.747   9.634   5.087 -0.0138  0.1445  0.0637
  189POPC   D2A 2695   0.669   9.741   5.574 -0.1074  0.2192  0.0470
  189POPC   C3A 2696   0.935  10.120   5.739  0.2466 -0.1851  0.0598
  189POPC   C4A 2697   1.241  10.286   6.040 -0.2736  0.3733  0.0523
  189POPC   C1B 2698   0.419   9.913   4.833  0.4087 -0.1147 -0.1116
  189POPC   C2B 2699   0.533  10.302   4.810  0.0373  0.1318  0.0283
  189POPC   C3B 2700   0.564  10.592   4.459  0.3500 -0.1512 -0.1023
  189POPC   C4B 2701   0.841  10.684   4.054  0.1369  0.1687  0.1295
  190POPC   NC3 2702   5.281   8.694   4.690 -0.2804 -0.1504  0.0465
  190POPC   PO4 2703   5.746   8.670   4.696 -0.0080  0.0967  0.4024
  190POPC   GL1 2704   5.673   8.625   5.038  0.1894 -0.1040  0.1788
  190POPC   GL2 2705   5.751   8.878   5.210 -0.4546 -0.0341  0.1595
  190POPC   C1A 2706   5.525   8.288   5.244  0.1943  0.2464  0.2132
  190POPC   D2A 2707   5.220   7.955   5.446  0.1981  0.1067 -0.2296
  190POPC   C3A 2708   5.200   7.504   5.615 -0.0987  0.0453  0.2561
  190POPC   C4A 2709   5.052   7.046   5.650  0.0718  0.0121 -0.3679
  190POPC   C1B 2710   5.661   9.043   5.613  0.0750  0.0034 -0.1239
  190POPC   C2B 2711   5.918   9.255   5.909  0.1824 -0.1813 -0.0304
  190POPC   C3B 2712   6.255   9.445   6.234  0.0700  0.1297 -0.1513
  190POPC   C4B 2713   6.417   9.764   6.438  0.0935  0.0269 -0.0999
  191POPC   NC3 2714   5.522   2.871   3.806  0.0012  0.0609 -0.2541
  191POPC   PO4 2715   5.656   2.937   4.180  0.0240  0.0775  0.0974
  191POPC   GL1 2716   5.591   2.811   4.551  0.1772  0.1024  0.0375
  191POPC   GL2 2717   5.286   2.892   4.826 -0.2299  0.2267 -0.0960
  191POPC   C1A 2718   5.726   2.654   4.929 -0.2375 -0.1447 -0.2321
  191POPC   D2A 2719   5.752   2.818   5.347  0.0315 -0.0858  0.0082
  191POPC   C3A 2720   5.920   2.832   5.761  0.0487  0.1903 -0.0482
  191POPC   C4A 2721   6.325   2.780   6.037  0.5143 -0.1387 -0.1190
  191POPC   C1B 2722   5.203   2.793   5.246  0.2693 -0.0492  0.0427
  191POPC   C2B 2723   5.072   2.558   5.470  0.2129 -0.1290  0.2525
  191POPC   C3B 2724   4.873   2.518   5.832  0.1102  0.2350 -0.0268
  191POPC   C4B 2725   4.812   2.398   6.283 -0.3300  0.0443 -0.1116
  192POPC   NC3 2726   7.918   4.538   4.800  0.0535  0.0255  0.0241
  192POPC   PO4 2727   7.781   4.096   4.925  0.3763  0.1694 -0.2221
  192POPC   GL1 2728   7.757   4.216   5.266  0.4207  0.0506 -0.5083
  192POPC   GL2 2729   8.063   4.324   5.384 -0.1206 -0.0517 -0.2419
  192POPC   C1A 2730   7.564   4.227   5.704 -0.0923  0.1858 -0.0092
  192POPC   D2A 2731   7.386   3.890   5.844  0.3053 -0.1496  0.1301
  192POPC   C3A 2732   7.075   3.693   5.696  0.1742 -0.0511  0.1089
  192POPC   C4A 2733   6.847   3.677   5.353 -0.5064  0.0097  0.2619
  192POPC   C1B 2734   8.280   4.664   5.630  0.0792  0.0239 -0.0803
  192POPC   C2B 2735   8.436   4.621   6.184  0.0654 -0.0227  0.1773
  192POPC   C3B 2736   8.571   4.493   6.480 -0.1175  0.2187 -0.3921
  192POPC   C4B 2737   8.643   4.129   6.389 -0.0876  0.0744 -0.0468
  193POPC   NC3 2738   5.650   0.420   4.769 -0.3002 -0.1001  0.0196
  193POPC   PO4 2739   5.972   0.588   4.542 -0.0829 -0.1027  0.0812
  193POPC   GL1 2740   6.138   0.413   4.989 -0.2171  0.1268 -0.1267
  193POPC   GL2 2741   6.423   0.481   5.134 -0.0747 -0.0674  0.2239
  193POPC   C1A 2742   6.200   0.220   5.514  0.1677  0.0698  0.1008
  193POPC   D2A 2743   6.143   0.249   6.038 -0.3178  0.0132  0.0637
  193POPC   C3A 2744   5.676   0.261   6.260  0.0751 -0.0151 -0.2942
  193POPC   C4A 2745   5.390   0.275   6.528  0.2792  0.2982  0.1367
  193POPC   C1B 2746   6.631   0.366   5.520 -0.1664  0.0807  0.0938
  193POPC   C2B 2747   6.653  -0.062   5.684 -0.0466 -0.0493 -0.2724
  193POPC   C3B 2748   6.645  -0.312   5.968 -0.0220 -0.0045 -0.0705
  193POPC   C4B 2749   6.777  -0.634   6.352  0.3120 -0.0588 -0.0044
  194POPC   NC3 2750   3.487   3.363   4.260  0.0629 -0.1084  0.1639
  194POPC   PO4 2751   3.785   3.061   4.263 -0.2134 -0.2099 -0.0592
  194POPC   GL1 2752   3.684   3.045   4.691  0.4267 -0.0118 -0.0243
  194POPC   GL2 2753   3.916   2.863   4.858  0.2234 -0.0667  0.0248
  194POPC   C1A 2754   3.242   3.068   4.901 -0.4608  0.1631  0.3486
  194POPC   D2A 2755   2.994   2.671   5.010  0.1056 -0.0807  0.2571
  194POPC   C3A 2756   2.668   2.819   5.350  0.0946  0.2417 -0.4725
  194POPC   C4A 2757   2.317   2.685   5.282 -0.0279 -0.1906  0.3774
  194POPC   C1B 2758   3.659   3.031   5.182 -0.1940  0.0270 -0.1295
  194POPC   C2B 2759   3.623   2.863   5.600  0.0201 -0.1547 -0.1524
  194POPC   C3B 2760   3.703   2.761   6.044 -0.1266 -0.0064 -0.0137
  194POPC   C4B 2761   3.514   2.662   6.422 -0.1581  0.2576 -0.1148
  195POPC   NC3 2762   0.228   7.414   4.177 -0.0145 -0.3923  0.0728
  195POPC   PO4 2763   0.557   7.582   4.326  0.0450 -0.1991  0.1746
  195POPC   GL1 2764   0.774   7.447   4.795 -0.0969  0.0378  0.1023
  195POPC   GL2 2765   0.962   7.148   4.915 -0.1863  0.2591 -0.0475
  195POPC   C1A 2766   0.939   7.662   5.153  0.1669  0.2205  0.0603
  195POPC   D2A 2767   0.900   7.896   5.500  0.1883  0.1547 -0.0410
  195POPC   C3A 2768   0.582   7.882   5.677  0.3783  0.1457 -0.0358
  195POPC   C4A 2769   0.326   7.843   6.054  0.1072 -0.0675 -0.0758
  195POPC   C1B 2770   1.264   7.269   5.319  0.2872 -0.1386  0.0027
  195POPC   C2B 2771   1.336   7.593   5.606 -0.2556 -0.0181 -0.3815
  195POPC   C3B 2772   1.361   7.468   5.977 -0.0085 -0.0298  0.1651
  195POPC   C4B 2773   1.496   7.467   6.322 -0.0254 -0.0041  0.2491
  196POPC   NC3 2774   3.005   5.872   4.641  0.2839  0.0310  0.0614
  196POPC   PO4 2775   2.976   5.412   4.694  0.2047 -0.1749 -0.0231
  196POPC   GL1 2776   3.237   5.194   4.930  0.0703  0.0010  0.2010
  196POPC   GL2 2777   2.984   5.077   5.126  0.0436  0.1293 -0.2138
  196POPC   C1A 2778   3.476   5.253   5.240  0.0324  0.1465  0.1175
  196POPC   D2A 2779   3.530   5.300   5.655  0.1774 -0.0679 -0.0590
  196POPC   C3A 2780   3.735   5.014   5.962 -0.2095  0.0762  0.3887
  196POPC   C4A 2781   4.193   4.753   5.934  0.0676  0.0042 -0.0673
  196POPC   C1B 2782   3.021   5.191   5.651 -0.0475 -0.4230 -0.2525
  196POPC   C2B 2783   3.197   5.070   6.015  0.0072 -0.1386 -0.1794
  196POPC   C3B 2784   3.280   4.742   6.232 -0.0680 -0.1825 -0.3472
  196POPC   C4B 2785   3.138   4.453   6.583  0.2055 -0.0868  0.0258
  197POPC   NC3 2786   0.598   3.404   3.927  0.2313 -0.1596  0.1054
  197POPC   PO4 2787   0.678   3.846   3.800  0.2577 -0.3668  0.4299
  197POPC   GL1 2788   0.786   3.830   4.251  0.0286 -0.3061  0.0371
  197POPC   GL2 2789   0.672   3.571   4.386 -0.1968 -0.2015 -0.5071
  197POPC   C1A 2790   1.097   3.874   4.568 -0.0636  0.2126 -0.3467
  197POPC   D2A 2791   1.062   3.600   4.895 -0.0604 -0.1057 -0.1529
  197POPC   C3A 2792   0.805   3.771   5.236  0.0433 -0.1620 -0.2027
  197POPC   C4A 2793   0.690   3.703   5.524 -0.4435  0.0635  0.0414
  197POPC   C1B 2794   0.540   3.505   4.874  0.1066  0.0963  0.0020
  197POPC   C2B 2795   0.381   3.331   5.330 -0.2473 -0.0631 -0.2791
  197POPC   C3B 2796   0.417   3.247   5.742  0.0673  0.2632  0.1845
  197POPC   C4B 2797   0.400   2.836   5.956  0.1248 -0.0914 -0.0305
  198POPC   NC3 2798   5.126   7.727   4.721  0.0431 -0.1120  0.2779
  198POPC   PO4 2799   5.468   7.755   4.466 -0.2236 -0.0055 -0.0125
  198POPC   GL1 2800   5.640   7.702   4.892 -0.1248  0.0189  0.0715
  198POPC   GL2 2801   5.899   7.957   5.025  0.0991 -0.3714  0.0796
  198POPC   C1A 2802   5.555   7.464   5.258  0.1612 -0.1555 -0.2440
  198POPC   D2A 2803   5.768   7.341   5.608  0.4020  0.0526 -0.1172
  198POPC   C3A 2804   5.542   7.264   5.962  0.0048 -0.3149  0.1412
  198POPC   C4A 2805   5.128   7.357   6.108  0.1318 -0.2571  0.0213
  198POPC   C1B 2806   6.109   8.255   5.425 -0.0505  0.2362 -0.0997
  198POPC   C2B 2807   6.123   8.300   5.787  0.2564 -0.2016 -0.2917
  198POPC   C3B 2808   5.996   8.340   6.222 -0.1344 -0.1266 -0.3457
  198POPC   C4B 2809   6.196   8.461   6.526 -0.2860 -0.0066  0.4345
  199POPC   NC3 2810   5.826   4.927   4.390  0.0183 -0.0885  0.0136
  199POPC   PO4 2811   5.595   4.945   4.805 -0.0290 -0.2023  0.1095
  199POPC   GL1 2812   5.368   4.783   5.178  0.0794  0.0406  0.1666
  199POPC   GL2 2813   5.071   4.921   5.280  0.1053  0.1222  0.0991
  199POPC   C1A 2814   5.407   4.647   5.573 -0.1571  0.0304  0.0499
  199POPC   D2A 2815   5.644   4.507   5.981 -0.0245  0.0329  0.0297
  199POPC   C3A 2816   5.431   4.607   6.405 -0.1186 -0.2376 -0.1362
  199POPC   C4A 2817   5.127   4.501   6.714  0.2555 -0.1737 -0.3295
  199POPC   C1B 2818   5.272   5.116   5.587  0.2919  0.0223  0.2076
  199POPC   C2B 2819   5.117   4.876   5.876  0.1718  0.2081 -0.1350
  199POPC   C3B 2820   4.881   4.787   6.273  0.1268  0.0405  0.0516
  199POPC   C4B 2821   5.098   5.002   6.634  0.3045 -0.0813 -0.1212
  200POPC   NC3 2822   8.859   5.083   4.262 -0.0872  0.2976 -0.1159
  200POPC   PO4 2823   9.060   5.310   4.599  0.2740  0.0103  0.0040
  200POPC   GL1 2824   9.140   5.204   5.040  0.5049 -0.0182  0.0571
  200POPC   GL2 2825   9.436   5.380   5.206  0.1034 -0.2203  0.0652
  200POPC   C1A 2826   9.152   5.068   5.430  0.1395 -0.3560  0.0297
  200POPC   D2A 2827   8.785   4.779   5.611 -0.1160  0.1841  0.2232
  200POPC   C3A 2828   8.804   4.426   5.653 -0.2644 -0.2786  0.3945
  200POPC   C4A 2829   8.731   4.312   5.330  0.0598 -0.0544  0.0974
  200POPC   C1B 2830   9.634   5.503   5.535 -0.0061  0.0596  0.0957
  200POPC   C2B 2831   9.770   5.895   5.723  0.6077 -0.3273  0.1378
  200POPC   C3B 2832   9.812   6.267   5.965 -0.0351  0.0811 -0.0927
  200POPC   C4B 2833  10.105   6.332   6.308  0.3766 -0.1488 -0.0877
  201POPC   NC3 2834   9.727   1.600   3.582  0.2163  0.0518  0.0239
  201POPC   PO4 2835   9.362   1.732   3.880 -0.0167 -0.1510  0.1504
  201POPC   GL1 2836   9.496   1.440   4.190  0.1347  0.4173 -0.1954
  201POPC   GL2 2837   9.247   1.373   4.355 -0.0737 -0.0250 -0.0538
  201POPC   C1A 2838   9.788   1.403   4.531 -0.0193 -0.2761 -0.0438
  201POPC   D2A 2839   9.780   1.363   4.919  0.2035  0.0861  0.0999
  201POPC   C3A 2840  10.151   1.139   5.263 -0.1327  0.1777  0.1011
  201POPC   C4A 2841  10.226   0.884   5.633  0.2784  0.0996  0.2174
  201POPC   C1B 2842   9.362   1.641   4.779 -0.1103 -0.1869 -0.1964
  201POPC   C2B 2843   9.358   1.888   5.197  0.1941  0.1599 -0.0287
  201POPC   C3B 2844   9.155   2.185   5.217 -0.1057 -0.0182 -0.1642
  201POPC   C4B 2845   8.996   2.688   5.246  0.4094 -0.0642 -0.1156
  202POPC   NC3 2846   4.868   0.531   4.034 -0.1592 -0.1612  0.2877
  202POPC   PO4 2847   4.604   0.779   4.192 -0.1129 -0.1987  0.2329
  202POPC   GL1 2848   4.343   0.760   4.545 -0.0709  0.1592  0.0918
  202POPC   GL2 2849   4.630   0.902   4.761  0.2857  0.3074  0.2582
  202POPC   C1A 2850   4.173   1.117   4.796 -0.0946  0.1014  0.0703
  202POPC   D2A 2851   4.185   1.482   5.132  0.1856 -0.0960  0.1131
  202POPC   C3A 2852   4.092   1.949   5.185  0.1721 -0.0042  0.1125
  202POPC   C4A 2853   4.043   2.244   5.400 -0.0188  0.3912  0.0999
  202POPC   C1B 2854   4.508   1.072   5.154 -0.0247  0.1983 -0.4140
  202POPC   C2B 2855   4.496   1.346   5.568  0.1593 -0.0230 -0.1964
  202POPC   C3B 2856   4.565   1.618   5.929 -0.0687 -0.0972 -0.2567
  202POPC   C4B 2857   4.842   1.864   6.227 -0.3877  0.0296  0.1549
  203POPC   NC3 2858   0.534   8.073   4.426 -0.0676  0.0045  0.2234
  203POPC   PO4 2859   0.493   8.575   4.349  0.1003  0.3891 -0.0229
  203POPC   GL1 2860   0.661   8.941   4.603  0.5378 -0.0566 -0.1755
  203POPC   GL2 2861   0.425   9.118   4.647 -0.2324 -0.0041  0.0898
  203POPC   C1A 2862   0.604   8.923   5.133  0.0940 -0.0118  0.1760
  203POPC   D2A 2863   0.386   8.730   5.452  0.1001 -0.1603 -0.0463
  203POPC   C3A 2864   0.617   8.453   5.651  0.3033 -0.1461 -0.1841
  203POPC   C4A 2865   0.922   8.187   5.883  0.0625  0.4044 -0.2936
  203POPC   C1B 2866   0.373   9.332   4.945 -0.0592 -0.2095 -0.2774
  203POPC   C2B 2867   0.529   9.261   5.436 -0.1991  0.2201  0.0728
  203POPC   C3B 2868   0.470   9.355   5.838 -0.1284  0.0223 -0.0409
  203POPC   C4B 2869   0.524   9.758   6.073 -0.1077 -0.2553 -0.0170
  204POPC   NC3 2870   7.456   9.845   4.788 -0.0731  0.1460  0.3111
  204POPC   PO4 2871   7.652   9.385   4.880 -0.1127 -0.0907 -0.0457
  204POPC   GL1 2872   7.664   9.315   5.306  0.1497 -0.1424  0.1778
  204POPC   GL2 2873   8.075   9.134   5.351 -0.2444  0.3594 -0.2245
  204POPC   C1A 2874   7.473   9.079   5.699 -0.1151 -0.0661 -0.0829
  204POPC   D2A 2875   7.475   8.951   6.216  0.0010 -0.0322 -0.2886
  204POPC   C3A 2876   7.396   9.216   6.461  0.0484  0.1223  0.1219
  204POPC   C4A 2877   7.305   9.519   6.853  0.1177  0.0960  0.4737
  204POPC   C1B 2878   8.023   9.253   5.694  0.3431  0.1463 -0.2543
  204POPC   C2B 2879   7.737   9.333   6.043 -0.1765 -0.1133  0.0308
  204POPC   C3B 2880   7.647   9.690   6.269  0.1778 -0.2093 -0.0302
  204POPC   C4B 2881   7.639   9.974   6.610 -0.0659 -0.0566 -0.0245
  205POPC   NC3 2882   6.626   8.309   4.967 -0.0677 -0.2781  0.4036
  205POPC   PO4 2883   6.834   8.620   5.070 -0.1344 -0.1352  0.0168
  205POPC   GL1 2884   6.791   8.934   5.406  0.2916  0.0626 -0.2256
  205POPC   GL2 2885   6.552   8.651   5.585 -0.0805  0.0742 -0.2094
  205POPC   C1A 2886   6.886   9.380   5.568  0.1546 -0.0435  0.0559
  205POPC   D2A 2887   7.135   9.459   5.999 -0.2054  0.0397 -0.0743
  205POPC   C3A 2888   7.135   9.810   6.339  0.0472 -0.1714 -0.1583
  205POPC   C4A 2889   7.112  10.296   6.571  0.3060 -0.1406 -0.4862
  205POPC   C1B 2890   6.443   8.579   6.087  0.3285 -0.1964  0.2877
  205POPC   C2B 2891   6.647   8.831   6.366  0.2330  0.1819  0.0712
  205POPC   C3B 2892   6.537   8.932   6.790  0.0411  0.2982  0.1712
  205POPC   C4B 2893   6.762   9.204   7.150  0.2667 -0.1374 -0.0190
  206POPC   NC3 2894   3.998   4.088   3.860  0.0986 -0.0626 -0.0606
  206POPC   PO4 2895   4.213   4.101   4.194 -0.0913  0.2186 -0.3267
  206POPC   GL1 2896   4.083   3.981   4.685 -0.1023  0.0256 -0.0014
  206POPC   GL2 2897   4.081   4.356   4.849 -0.1249  0.0805 -0.2074
  206POPC   C1A 2898   3.817   4.005   5.038  0.3834 -0.1696 -0.3619
  206POPC   D2A 2899   3.802   4.423   5.227  0.0265 -0.2592  0.0549
  206POPC   C3A 2900   3.738   4.468   5.592  0.2395 -0.1194 -0.0248
  206POPC   C4A 2901   3.729   4.546   6.080 -0.0792 -0.1859  0.0984
  206POPC   C1B 2902   4.231   4.618   5.287  0.2761 -0.2158  0.1963
  206POPC   C2B 2903   4.572   4.776   5.503 -0.2471  0.0662  0.1618
  206POPC   C3B 2904   4.629   4.972   5.850  0.2983 -0.0862  0.1768
  206POPC   C4B 2905   4.867   5.301   5.948  0.0401 -0.2239 -0.0561
  207POPC   NC3 2906   4.976   2.182   4.276  0.2014  0.0660 -0.0183
  207POPC   PO4 2907   5.243   2.423   4.543 -0.0086 -0.0584 -0.1191
  207POPC   GL1 2908   5.199   2.332   4.991 -0.1726  0.1209  0.2030
  207POPC   GL2 2909   5.535   2.207   4.980  0.2152 -0.2695 -0.1489
  207POPC   C1A 2910   5.031   2.078   5.278  0.2126 -0.0502 -0.0308
  207POPC   D2A 2911   5.040   1.962   5.631  0.0563  0.1734 -0.4348
  207POPC   C3A 2912   5.182   2.166   5.947 -0.1288 -0.4041  0.0727
  207POPC   C4A 2913   5.229   2.149   6.415 -0.1540 -0.3017  0.1082
  207POPC   C1B 2914   5.526   2.285   5.359 -0.0670  0.0120 -0.3761
  207POPC   C2B 2915   5.574   2.488   5.752 -0.1663  0.4677 -0.2660
  207POPC   C3B 2916   5.588   2.497   6.151  0.0985 -0.0861 -0.2347
  207POPC   C4B 2917   5.263   2.619   6.477  0.0084 -0.0833 -0.0583
  208POPC   NC3 2918   6.280   2.120   3.816 -0.3124 -0.2448 -0.1118
  208POPC   PO4 2919   6.375   2.387   4.180  0.2277 -0.1447  0.3352
  208POPC   GL1 2920   6.302   2.227   4.571 -0.2076 -0.0814 -0.0534
  208POPC   GL2 2921   6.160   2.386   4.797  0.0769  0.2276  0.0926
  208POPC   C1A 2922   6.386   2.010   5.047  0.0597 -0.0189 -0.2764
  208POPC   D2A 2923   6.490   1.952   5.476  0.1470  0.1310 -0.1889
  208POPC   C3A 2924   6.500   2.282   5.840 -0.2394  0.3352 -0.2224
  208POPC   C4A 2925   6.523   2.367   6.242  0.1374  0.2725  0.0644
  208POPC   C1B 2926   6.193   2.583   5.167  0.0380 -0.0106  0.2961
  208POPC   C2B 2927   6.403   2.707   5.540 -0.2941  0.2808 -0.0567
  208POPC   C3B 2928   6.772   2.710   5.759  0.0806  0.1373  0.0999
  208POPC   C4B 2929   6.870   2.741   6.229  0.0509  0.0743 -0.2067
  209POPC   NC3 2930   6.068   2.717   4.373  0.1945  0.0135  0.2251
  209POPC   PO4 2931   6.079   3.099   4.510 -0.2231 -0.0838 -0.0720
  209POPC   GL1 2932   6.262   3.061   4.891 -0.4888 -0.0786  0.3668
  209POPC   GL2 2933   6.409   3.391   4.889 -0.0509  0.3768 -0.3079
  209POPC   C1A 2934   6.166   3.115   5.336  0.1201  0.3002  0.2179
  209POPC   D2A 2935   5.859   3.275   5.647  0.1331 -0.1740 -0.0681
  209POPC   C3A 2936   6.078   3.233   6.025 -0.0845  0.1095  0.1531
  209POPC   C4A 2937   6.334   3.245   6.243 -0.1899  0.1755  0.1218
  209POPC   C1B 2938   6.659   3.207   5.243  0.1601  0.1045 -0.0317
  209POPC   C2B 2939   6.618   3.175   5.690 -0.0392 -0.0589  0.1687
  209POPC   C3B 2940   6.788   3.272   6.083  0.4624  0.4079  0.1655
  209POPC   C4B 2941   7.226   3.432   6.131 -0.0048  0.0226 -0.2532
  210POPC   NC3 2942   4.185   3.048   4.513 -0.1676  0.1195 -0.1101
  210POPC   PO4 2943   4.678   3.200   4.632 -0.1863  0.0745 -0.0964
  210POPC   GL1 2944   4.863   3.054   5.041 -0.1762 -0.0608 -0.0132
  210POPC   GL2 2945   5.112   3.321   5.190  0.3678 -0.1881 -0.1958
  210POPC   C1A 2946   4.713   2.934   5.385 -0.0081  0.2369 -0.0927
  210POPC   D2A 2947   4.604   2.975   5.832 -0.0976 -0.0377  0.0616
  210POPC   C3A 2948   4.446   2.686   6.202  0.0902  0.1164  0.0077
  210POPC   C4A 2949   4.434   2.487   6.587  0.0382 -0.2898  0.0130
  210POPC   C1B 2950   4.998   3.266   5.525 -0.1139 -0.1097  0.1950
  210POPC   C2B 2951   4.947   3.520   5.780 -0.1906  0.2711 -0.1514
  210POPC   C3B 2952   5.064   3.977   5.806  0.1045 -0.0983 -0.0502
  210POPC   C4B 2953   5.159   4.229   6.100 -0.2090 -0.0982  0.2185
  211POPC   NC3 2954   4.913   3.915   4.501  0.0984 -0.2740  0.0905
  211POPC   PO4 2955   5.296   3.960   4.455  0.3507 -0.4816 -0.2814
  211POPC   GL1 2956   5.290   3.879   4.905  0.0029  0.3539  0.0498
  211POPC   GL2 2957   5.387   3.729   5.050 -0.4107 -0.2554 -0.3222
  211POPC   C1A 2958   4.971   3.809   5.306 -0.0829  0.2658  0.0720
  211POPC   D2A 2959   4.688   3.920   5.559  0.3669 -0.0980  0.2088
  211POPC   C3A 2960   4.500   3.944   5.965  0.0049 -0.0008  0.1068
  211POPC   C4A 2961   4.350   3.984   6.340 -0.1096 -0.0090 -0.1898
  211POPC   C1B 2962   5.488   3.655   5.560 -0.1443 -0.1446 -0.1753
  211POPC   C2B 2963   5.449   3.547   5.931  0.1281  0.3546  0.2063
  211POPC   C3B 2964   5.130   3.255   6.126  0.1660 -0.1799 -0.3368
  211POPC   C4B 2965   5.249   3.125   6.470 -0.0212 -0.1068 -0.3251
  212POPC   NC3 2966   2.949   3.929   4.580  0.2473  0.1741  0.0615
  212POPC   PO4 2967   3.244   3.836   4.253  0.2733  0.0455  0.2134
  212POPC   GL1 2968   3.411   3.695   4.646 -0.0515 -0.1079  0.0257
  212POPC   GL2 2969   3.664   3.691   4.611 -0.0635  0.0939 -0.1145
  212POPC   C1A 2970   3.322   3.703   5.130 -0.1014 -0.1998 -0.1674
  212POPC   D2A 2971   3.530   3.410   5.500 -0.2084  0.2089  0.0802
  212POPC   C3A 2972   3.181   3.101   5.800  0.3364 -0.1403  0.1369
  212POPC   C4A 2973   2.817   2.920   5.820  0.0051 -0.1425  0.0868
  212POPC   C1B 2974   3.912   3.502   4.956  0.0237  0.1448 -0.1039
  212POPC   C2B 2975   4.008   3.319   5.407 -0.2742  0.0238  0.0912
  212POPC   C3B 2976   4.121   3.104   5.724 -0.1517  0.0780  0.1416
  212POPC   C4B 2977   4.123   3.100   6.105 -0.1842 -0.1366  0.0042
  213POPC   NC3 2978   5.837   6.872   4.702 -0.2911 -0.1257  0.0181
  213POPC   PO4 2979   6.076   6.568   4.892 -0.1453 -0.2710  0.0690
  213POPC   GL1 2980   6.164   6.634   5.173  0.1239  0.0695 -0.0887
  213POPC   GL2 2981   6.127   6.433   5.373 -0.1726 -0.3166 -0.4709
  213POPC   C1A 2982   6.250   6.967   5.558  0.1258 -0.1110  0.1008
  213POPC   D2A 2983   6.473   6.784   5.989  0.0715  0.1987  0.1628
  213POPC   C3A 2984   6.759   6.944   6.254 -0.3296 -0.0468 -0.1787
  213POPC   C4A 2985   7.059   7.113   6.604  0.3306 -0.3675  0.3090
  213POPC   C1B 2986   6.055   6.506   5.865  0.1200 -0.0267 -0.0823
  213POPC   C2B 2987   6.096   6.660   6.342 -0.1984  0.2370 -0.1516
  213POPC   C3B 2988   6.520   6.671   6.619 -0.2370 -0.0636 -0.2092
  213POPC   C4B 2989   6.608   6.730   7.032  0.2235  0.0531 -0.1570
  214POPC   NC3 2990   9.727   8.445   4.868 -0.1676 -0.0419  0.2869
  214POPC   PO4 2991  10.023   8.355   4.524  0.1164  0.2348  0.0815
  214POPC   GL1 2992  10.237   8.116   4.924  0.1183 -0.0332 -0.4193
  214POPC   GL2 2993  10.311   7.774   4.903  0.0299  0.1597  0.1407
  214POPC   C1A 2994  10.557   8.188   5.199  0.0472  0.1093 -0.0329
  214POPC   D2A 2995  10.938   8.360   5.281 -0.0683 -0.1887 -0.0651
  214POPC   C3A 2996  10.936   8.750   5.370  0.0900 -0.2927 -0.5047
  214POPC   C4A 2997  10.725   8.930   5.707 -0.2977 -0.2775 -0.0752
  214POPC   C1B 2998  10.435   7.517   5.253  0.1687  0.2087 -0.0129
  214POPC   C2B 2999  10.803   7.415   5.595  0.0340  0.0148  0.3623
  214POPC   C3B 3000  10.795   7.634   5.964  0.0813  0.3135 -0.1500
  214POPC   C4B 3001  10.722   7.915   6.272 -0.2645  0.2117  0.0091
  215POPC   NC3 3002   9.271   2.993   3.358  0.1153  0.1256 -0.0688
  215POPC   PO4 3003   9.150   2.795   3.776  0.1148  0.0047  0.0861
  215POPC   GL1 3004   9.379   2.677   4.101  0.1537  0.1345 -0.2153
  215POPC   GL2 3005   9.446   2.974   4.288 -0.0258  0.3093 -0.2946
  215POPC   C1A 3006   9.316   2.361   4.363  0.1165 -0.2478 -0.0865
  215POPC   D2A 3007   9.313   2.157   4.746  0.0367 -0.1652  0.0658
  215POPC   C3A 3008   9.620   2.341   5.032 -0.1334  0.0445 -0.1178
  215POPC   C4A 3009   9.664   2.704   5.242  0.3957  0.0215  0.1820
  215POPC   C1B 3010   9.402   3.170   4.681 -0.2112  0.0517 -0.2134
  215POPC   C2B 3011   9.500   3.546   4.939  0.0156  0.5095  0.3462
  215POPC   C3B 3012   9.500   3.846   5.215  0.1613  0.2004 -0.0512
  215POPC   C4B 3013   9.944   3.665   5.536 -0.1942 -0.0284  0.3649
  216POPC   NC3 3014   4.931   8.605   4.313 -0.2846 -0.1732  0.0320
  216POPC   PO4 3015   4.963   9.025   4.499  0.0349  0.0586 -0.0232
  216POPC   GL1 3016   4.844   9.043   4.928 -0.4633 -0.2405 -0.1280
  216POPC   GL2 3017   4.512   9.146   5.021  0.2704  0.1093 -0.1342
  216POPC   C1A 3018   4.713   8.799   5.362  0.1395 -0.2302  0.0372
  216POPC   D2A 3019   4.593   8.795   5.796  0.0482 -0.1420 -0.2130
  216POPC   C3A 3020   4.466   8.359   6.039 -0.0274 -0.0065 -0.0580
  216POPC   C4A 3021   4.348   8.288   6.496 -0.0310 -0.0889  0.0595
  216POPC   C1B 3022   4.377   9.179   5.458 -0.0938  0.3140 -0.0376
  216POPC   C2B 3023   4.336   9.250   5.920 -0.1468 -0.0666 -0.1167
  216POPC   C3B 3024   4.464   9.543   6.101  0.1086 -0.0287  0.2038
  216POPC   C4B 3025   4.483   9.974   6.229 -0.1316  0.3294  0.0126
  217POPC   NC3 3026   2.566   2.718   2.850  0.6033 -0.2641  0.2912
  217POPC   PO4 3027   2.168   2.870   3.021 -0.1598  0.1502  0.1262
  217POPC   GL1 3028   2.080   2.557   3.374  0.2962 -0.1143 -0.1783
  217POPC   GL2 3029   2.226   2.655   3.740  0.1159 -0.1050 -0.1946
  217POPC   C1A 3030   1.884   2.243   3.665 -0.0286 -0.2256  0.0259
  217POPC   D2A 3031   1.462   2.127   3.606 -0.0248  0.1218  0.2266
  217POPC   C3A 3032   1.398   1.887   4.017 -0.1256 -0.1916 -0.0175
  217POPC   C4A 3033   1.090   1.737   4.316 -0.0914  0.1567  0.0145
  217POPC   C1B 3034   2.073   2.705   4.223  0.1642  0.1572 -0.0878
  217POPC   C2B 3035   2.215   2.767   4.721  0.2530 -0.0256  0.0896
  217POPC   C3B 3036   1.911   2.948   4.937  0.1920 -0.1240 -0.0201
  217POPC   C4B 3037   1.924   2.930   5.381 -0.3369 -0.1666 -0.0811
  218POPC   NC3 3038   3.442   0.066   3.893 -0.2284  0.1709 -0.0888
  218POPC   PO4 3039   3.425  -0.400   3.893  0.1759 -0.3600 -0.2083
  218POPC   GL1 3040   3.423  -0.278   4.305  0.0446 -0.0108  0.4257
  218POPC   GL2 3041   3.308  -0.013   4.383  0.0361  0.2123 -0.0510
  218POPC   C1A 3042   3.640  -0.160   4.662 -0.0606  0.0232  0.3145
  218POPC   D2A 3043   3.660   0.163   4.991 -0.1293  0.0889  0.2549
  218POPC   C3A 3044   3.678   0.604   5.117 -0.1932  0.1287  0.0606
  218POPC   C4A 3045   4.119   0.728   5.135  0.0107  0.0823 -0.0158
  218POPC   C1B 3046   3.180  -0.006   4.766  0.1773 -0.2514 -0.2813
  218POPC   C2B 3047   2.802  -0.021   4.975 -0.0256 -0.0217  0.1805
  218POPC   C3B 3048   2.758  -0.002   5.469 -0.2995  0.1270 -0.3419
  218POPC   C4B 3049   2.662   0.106   5.901 -0.0672  0.2276 -0.0623
  219POPC   NC3 3050   2.850   8.360   4.283  0.1846 -0.0220 -0.0386
  219POPC   PO4 3051   2.817   8.014   4.391 -0.0765  0.3865 -0.0847
  219POPC   GL1 3052   2.661   8.285   4.792 -0.0292 -0.2550 -0.0716
  219POPC   GL2 3053   2.413   8.536   4.885  0.1639 -0.2820 -0.1387
  219POPC   C1A 3054   2.650   8.042   5.162  0.1949  0.0338 -0.0074
  219POPC   D2A 3055   3.042   7.969   5.469 -0.0935  0.0631 -0.1566
  219POPC   C3A 3056   3.015   7.856   5.943 -0.1229 -0.0185  0.0944
  219POPC   C4A 3057   2.932   7.714   6.449 -0.1675 -0.0978 -0.0599
  219POPC   C1B 3058   2.695   8.692   5.078  0.2239 -0.0720  0.0398
  219POPC   C2B 3059   2.767   8.564   5.459 -0.0189 -0.1100  0.5372
  219POPC   C3B 3060   2.791   8.912   5.765  0.3873  0.3013 -0.1461
  219POPC   C4B 3061   3.024   8.817   6.082 -0.2139  0.2284 -0.1326
  220POPC   NC3 3062   9.831   4.569   4.509  0.3996  0.1027 -0.2100
  220POPC   PO4 3063   9.664   4.110   4.448 -0.1567 -0.1541 -0.0804
  220POPC   GL1 3064   9.590   4.192   4.874  0.2839 -0.1276 -0.2505
  220POPC   GL2 3065   9.228   3.980   4.763  0.3138 -0.1553  0.1258
  220POPC   C1A 3066   9.880   4.192   5.116  0.2345  0.0176  0.1485
  220POPC   D2A 3067  10.174   4.178   5.455 -0.0905  0.2178  0.0529
  220POPC   C3A 3068  10.216   4.050   5.833  0.3111 -0.0775  0.1056
  220POPC   C4A 3069  10.281   3.621   5.977 -0.0478  0.1408 -0.3153
  220POPC   C1B 3070   9.204   4.190   5.090  0.0608 -0.1741 -0.1295
  220POPC   C2B 3071   9.164   4.093   5.515  0.1947  0.1560 -0.1515
  220POPC   C3B 3072   9.348   4.168   5.926 -0.1497  0.0685  0.1798
  220POPC   C4B 3073   9.412   4.189   6.361 -0.0509  0.0952  0.2351
  221POPC   NC3 3074   9.537   5.328   4.671 -0.1915  0.0095 -0.0677
  221POPC   PO4 3075   9.366   4.904   4.447 -0.2035 -0.3191  0.0365
  221POPC   GL1 3076   9.437   4.876   4.841  0.1044 -0.0803 -0.0687
  221POPC   GL2 3077   9.791   4.994   4.972  0.0265 -0.1124 -0.0973
  221POPC   C1A 3078   9.565   4.577   5.181 -0.1423 -0.3377  0.3168
  221POPC   D2A 3079   9.671   4.280   5.589  0.2022 -0.1147  0.0748
  221POPC   C3A 3080   9.848   4.434   6.020 -0.2797 -0.3084 -0.0718
  221POPC   C4A 3081   9.991   4.477   6.484  0.2158  0.1575  0.2832
  221POPC   C1B 3082   9.683   4.964   5.483 -0.0638 -0.5970  0.2206
  221POPC   C2B 3083   9.646   5.031   5.821  0.3419 -0.0009 -0.4129
  221POPC   C3B 3084  10.066   4.955   6.102  0.1107 -0.0374 -0.0548
  221POPC   C4B 3085  10.561   5.004   6.282 -0.1088 -0.1301 -0.1085
  222POPC   NC3 3086   5.886   1.967   4.661 -0.0263  0.0065  0.1752
  222POPC   PO4 3087   5.765   1.595   4.426  0.2213  0.0812 -0.2553
  222POPC   GL1 3088   5.524   1.561   4.827 -0.3913  0.1857 -0.0145
  222POPC   GL2 3089   5.606   1.270   4.915  0.2717 -0.2828 -0.0357
  222POPC   C1A 3090   5.482   1.785   5.343  0.0302 -0.2879 -0.0404
  222POPC   D2A 3091   5.641   1.942   5.787  0.2386 -0.2050  0.1979
  222POPC   C3A 3092   6.047   1.856   5.969 -0.0592  0.1899  0.0720
  222POPC   C4A 3093   6.481   1.694   5.911 -0.0730 -0.1569 -0.0753
  222POPC   C1B 3094   5.482   1.197   5.385  0.3091 -0.2819  0.1951
  222POPC   C2B 3095   5.461   1.395   5.703  0.1905 -0.3452 -0.1020
  222POPC   C3B 3096   5.616   1.504   6.035 -0.4201 -0.1693  0.0236
  222POPC   C4B 3097   5.429   1.570   6.365 -0.0923  0.2014 -0.1752
  223POPC   NC3 3098   8.300   0.254   4.399 -0.0393  0.2985  0.0671
  223POPC   PO4 3099   8.346   0.527   4.753  0.1205  0.1046 -0.1326
  223POPC   GL1 3100   8.678   0.523   5.040  0.2098  0.2533 -0.0689
  223POPC   GL2 3101   8.514   0.668   5.231  0.0490 -0.1073  0.1521
  223POPC   C1A 3102   8.995   0.408   5.330 -0.1159  0.1262 -0.2322
  223POPC   D2A 3103   9.274   0.405   5.675  0.0921  0.2549  0.0446
  223POPC   C3A 3104   9.663   0.240   5.504 -0.1325  0.0276  0.0444
  223POPC   C4A 3105  10.006   0.039   5.644  0.1291 -0.1528  0.3022
  223POPC   C1B 3106   8.636   0.630   5.651 -0.3618  0.0127  0.2064
  223POPC   C2B 3107   8.848   0.408   5.981  0.3936  0.1787  0.3785
  223POPC   C3B 3108   9.138   0.380   6.259  0.3681 -0.0009  0.4389
  223POPC   C4B 3109   9.425   0.713   6.355 -0.1328  0.0711 -0.0924
  224POPC   NC3 3110   7.326   7.151   4.887 -0.2069  0.2225 -0.1076
  224POPC   PO4 3111   7.565   7.513   5.139 -0.0384 -0.0199  0.0464
  224POPC   GL1 3112   7.651   7.506   5.571  0.0290  0.1454 -0.1660
  224POPC   GL2 3113   7.463   7.822   5.699  0.1226  0.0974 -0.2098
  224POPC   C1A 3114   7.429   7.349   5.910 -0.2668  0.1537 -0.1615
  224POPC   D2A 3115   7.009   7.380   6.228  0.1954 -0.1773 -0.0230
  224POPC   C3A 3116   6.954   7.784   6.518  0.2111 -0.0390 -0.0680
  224POPC   C4A 3117   7.087   8.074   6.785  0.0869 -0.1283  0.2634
  224POPC   C1B 3118   7.184   8.071   5.893  0.0922  0.1826  0.1249
  224POPC   C2B 3119   7.016   8.257   6.219 -0.1150 -0.0358 -0.2259
  224POPC   C3B 3120   7.100   8.674   6.484  0.3691  0.0700 -0.0516
  224POPC   C4B 3121   7.036   9.019   6.768  0.2253  0.3806  0.1072
  225POPC   NC3 3122   2.907   8.882   3.575 -0.3427 -0.0566  0.4344
  225POPC   PO4 3123   3.117   9.052   3.972  0.0321  0.1615 -0.0084
  225POPC   GL1 3124   3.201   9.146   4.366  0.0819 -0.3098 -0.1257
  225POPC   GL2 3125   2.905   9.373   4.524 -0.1970 -0.2275 -0.2774
  225POPC   C1A 3126   3.357   9.414   4.790  0.1118 -0.1559  0.3884
  225POPC   D2A 3127   3.223   9.641   5.158  0.1345  0.3804  0.2002
  225POPC   C3A 3128   3.195  10.009   5.313  0.2212 -0.0450 -0.0651
  225POPC   C4A 3129   3.436  10.278   5.560 -0.2210  0.1611  0.3510
  225POPC   C1B 3130   2.746   9.450   4.895  0.0625  0.3382 -0.3012
  225POPC   C2B 3131   2.420   9.623   5.238 -0.2670 -0.2302  0.1235
  225POPC   C3B 3132   2.266   9.882   5.562 -0.2346  0.0425  0.1117
  225POPC   C4B 3133   2.111  10.120   5.926  0.2235  0.0663  0.1290
  226POPC   NC3 3134   4.926   7.149   4.694  0.1074  0.3897  0.0499
  226POPC   PO4 3135   4.515   7.347   4.616 -0.4646 -0.0663 -0.1748
  226POPC   GL1 3136   4.700   7.448   5.012 -0.1281 -0.1104  0.1670
  226POPC   GL2 3137   4.482   7.223   5.132 -0.1871 -0.1693  0.1632
  226POPC   C1A 3138   4.779   7.807   5.243 -0.1478  0.0461  0.0634
  226POPC   D2A 3139   4.791   7.883   5.778 -0.3089  0.3313 -0.0740
  226POPC   C3A 3140   4.933   8.296   5.902  0.1275  0.2317  0.1631
  226POPC   C4A 3141   4.892   8.543   6.310  0.1613  0.3102 -0.0631
  226POPC   C1B 3142   4.660   7.403   5.512  0.0291 -0.3503 -0.0340
  226POPC   C2B 3143   4.583   7.439   5.942  0.3068  0.0170  0.1232
  226POPC   C3B 3144   4.737   7.466   6.412  0.1167 -0.2047  0.1673
  226POPC   C4B 3145   4.909   7.703   6.747  0.0336  0.1395  0.0583
  227POPC   NC3 3146   5.294   0.035   4.910 -0.1814  0.1936  0.1422
  227POPC   PO4 3147   5.045  -0.372   4.992  0.3041  0.0606  0.0209
  227POPC   GL1 3148   4.927  -0.576   5.336 -0.1202 -0.5583 -0.2447
  227POPC   GL2 3149   5.106  -0.853   5.497  0.0577 -0.1367  0.1114
  227POPC   C1A 3150   4.802  -0.595   5.802 -0.0102  0.1109  0.4488
  227POPC   D2A 3151   4.902  -0.608   6.220 -0.0238 -0.2983 -0.2952
  227POPC   C3A 3152   4.609  -0.558   6.595 -0.0504  0.0353 -0.1792
  227POPC   C4A 3153   4.432  -0.139   6.679  0.2470  0.1747 -0.5392
  227POPC   C1B 3154   5.134  -1.076   5.989  0.2991 -0.1339 -0.2576
  227POPC   C2B 3155   5.306  -0.996   6.446 -0.0980  0.2029  0.3268
  227POPC   C3B 3156   5.653  -1.192   6.589 -0.2987  0.1884 -0.0091
  227POPC   C4B 3157   5.879  -1.165   6.868 -0.0067  0.3146  0.1638
  228POPC   NC3 3158   1.124   2.942   3.264 -0.1000 -0.0630 -0.3016
  228POPC   PO4 3159   0.914   3.105   3.620 -0.0690  0.0471  0.1595
  228POPC   GL1 3160   1.218   2.950   3.881 -0.1401 -0.0711  0.0573
  228POPC   GL2 3161   1.146   2.573   3.667 -0.2056 -0.4379  0.0807
  228POPC   C1A 3162   1.458   2.997   4.190  0.0904 -0.4321  0.0296
  228POPC   D2A 3163   1.765   3.198   4.415 -0.0354 -0.2762  0.1579
  228POPC   C3A 3164   1.694   3.583   4.631  0.1320 -0.1275  0.2917
  228POPC   C4A 3165   1.543   3.853   4.842  0.2631 -0.1215 -0.3977
  228POPC   C1B 3166   1.407   2.526   4.057 -0.1148 -0.0242 -0.1323
  228POPC   C2B 3167   1.669   2.239   4.146 -0.0327  0.3716 -0.0064
  228POPC   C3B 3168   1.844   1.902   4.371  0.2021 -0.2564 -0.0889
  228POPC   C4B 3169   1.952   1.590   4.540 -0.2552  0.0130 -0.0609
  229POPC   NC3 3170   9.482   6.957   4.410 -0.2363  0.1003 -0.3658
  229POPC   PO4 3171   9.420   7.123   4.841  0.1891 -0.0413  0.2833
  229POPC   GL1 3172   9.441   7.471   5.114 -0.2839  0.4202 -0.2517
  229POPC   GL2 3173   9.185   7.700   5.278  0.1802 -0.2120 -0.0069
  229POPC   C1A 3174   9.562   7.486   5.531 -0.4151  0.0904  0.1019
  229POPC   D2A 3175   9.566   7.604   5.908 -0.0961 -0.0540 -0.1789
  229POPC   C3A 3176   9.934   7.523   6.086  0.0548  0.0749 -0.1403
  229POPC   C4A 3177  10.126   7.636   6.497 -0.1634  0.0879 -0.1016
  229POPC   C1B 3178   9.261   7.885   5.642 -0.1094 -0.1926 -0.1988
  229POPC   C2B 3179   9.330   8.137   5.979 -0.1897  0.1245 -0.1387
  229POPC   C3B 3180   9.171   8.297   6.296  0.0653  0.3032 -0.2677
  229POPC   C4B 3181   8.995   8.222   6.696 -0.1728  0.1516  0.1359
  230POPC   NC3 3182   2.186   9.098   4.004  0.3116 -0.0938  0.2785
  230POPC   PO4 3183   2.321   8.683   4.316 -0.0270 -0.2112 -0.1143
  230POPC   GL1 3184   2.368   9.041   4.575  0.0260  0.1693 -0.0732
  230POPC   GL2 3185   2.217   9.297   4.441  0.1038  0.0393 -0.2942
  230POPC   C1A 3186   2.424   9.104   5.047  0.3548  0.0050  0.0662
  230POPC   D2A 3187   2.405   8.874   5.407  0.0730  0.0186  0.1007
  230POPC   C3A 3188   2.226   8.482   5.446 -0.1355  0.1115  0.0232
  230POPC   C4A 3189   2.163   8.171   5.845 -0.3524 -0.0456  0.2856
  230POPC   C1B 3190   1.940   9.251   4.861  0.0491  0.0919  0.2234
  230POPC   C2B 3191   1.986   9.301   5.224  0.3999  0.2189  0.0417
  230POPC   C3B 3192   2.189   9.293   5.550 -0.2654 -0.2367 -0.3169
  230POPC   C4B 3193   2.275   9.136   5.909  0.4397 -0.1380 -0.0460
  231POPC   NC3 3194   6.673   1.432   4.198 -0.2411  0.3730 -0.1180
  231POPC   PO4 3195   6.706   1.380   4.558 -0.2505  0.0420  0.0115
  231POPC   GL1 3196   6.654   1.442   4.947  0.2157 -0.0685 -0.2290
  231POPC   GL2 3197   6.804   1.763   5.111  0.1898 -0.1737 -0.1322
  231POPC   C1A 3198   6.318   1.451   5.137 -0.1244 -0.1068 -0.3287
  231POPC   D2A 3199   5.980   1.560   5.117  0.1389 -0.0788 -0.3973
  231POPC   C3A 3200   5.981   2.005   5.309  0.2648  0.0912  0.0195
  231POPC   C4A 3201   6.054   2.326   5.628 -0.0464 -0.0136 -0.0881
  231POPC   C1B 3202   6.878   1.500   5.473  0.1536 -0.0068 -0.0957
  231POPC   C2B 3203   7.098   1.185   5.733  0.0095 -0.1771 -0.0006
  231POPC   C3B 3204   6.983   0.958   6.191  0.0560  0.0019  0.0283
  231POPC   C4B 3205   7.159   1.077   6.614  0.0174 -0.0888 -0.1423
  232POPC   NC3 3206   5.923   3.321   4.102 -0.1918 -0.0579  0.1050
  232POPC   PO4 3207   5.835   3.791   4.298  0.0346 -0.0547 -0.0734
  232POPC   GL1 3208   5.679   3.580   4.685 -0.0247  0.3546 -0.2511
  232POPC   GL2 3209   5.651   3.274   4.662 -0.0153 -0.0563  0.1474
  232POPC   C1A 3210   5.968   3.553   5.002  0.0599  0.2431  0.0512
  232POPC   D2A 3211   6.320   3.611   5.363 -0.1621 -0.0423 -0.1872
  232POPC   C3A 3212   6.435   3.608   5.777  0.0615 -0.0716  0.0077
  232POPC   C4A 3213   6.492   3.814   6.098 -0.1565  0.1246  0.0305
  232POPC   C1B 3214   5.590   3.221   5.111 -0.1397 -0.2161 -0.0870
  232POPC   C2B 3215   5.427   3.007   5.649  0.1013 -0.1678 -0.1158
  232POPC   C3B 3216   5.648   3.084   6.118 -0.0810  0.3005  0.1540
  232POPC   C4B 3217   5.813   3.045   6.522  0.0420  0.1357 -0.1409
  233POPC   NC3 3218   5.461   4.479   4.745  0.1411  0.1852 -0.1097
  233POPC   PO4 3219   5.003   4.431   4.527 -0.1804  0.1533  0.0482
  233POPC   GL1 3220   4.961   4.212   4.944  0.1528  0.3946  0.0367
  233POPC   GL2 3221   4.963   4.477   5.184 -0.0896 -0.0267  0.3070
  233POPC   C1A 3222   4.532   4.269   5.176 -0.0615 -0.2922 -0.3792
  233POPC   D2A 3223   4.340   4.319   5.634 -0.3703  0.0207 -0.3653
  233POPC   C3A 3224   4.054   4.207   5.893  0.2734  0.1355 -0.0219
  233POPC   C4A 3225   3.881   3.985   6.239  0.0403  0.0285 -0.2416
  233POPC   C1B 3226   4.947   4.469   5.665 -0.0709  0.0341 -0.0200
  233POPC   C2B 3227   4.688   4.399   5.969 -0.1775 -0.2584 -0.3319
  233POPC   C3B 3228   4.350   4.471   6.309  0.0848  0.0565  0.5144
  233POPC   C4B 3229   4.015   4.829   6.381 -0.1287  0.4060  0.3120
  234POPC   NC3 3230   5.330   1.344   4.426  0.0768  0.1108 -0.1148
  234POPC   PO4 3231   5.010   1.206   4.728 -0.2099 -0.0936  0.0447
  234POPC   GL1 3232   5.047   1.292   5.137  0.1089 -0.0913 -0.0291
  234POPC   GL2 3233   5.006   0.911   5.336 -0.2515 -0.0154  0.2840
  234POPC   C1A 3234   5.010   1.425   5.497 -0.1980 -0.1066 -0.3388
  234POPC   D2A 3235   5.068   1.515   5.948  0.0192  0.0356  0.2547
  234POPC   C3A 3236   4.930   1.198   6.349 -0.0510 -0.1248  0.2004
  234POPC   C4A 3237   4.951   1.064   6.848  0.1993  0.0402 -0.0476
  234POPC   C1B 3238   4.873   1.061   5.819  0.0941  0.3156 -0.1151
  234POPC   C2B 3239   4.513   1.097   6.117  0.2817 -0.2233  0.0038
  234POPC   C3B 3240   4.086   1.350   6.164  0.0419  0.1671  0.1150
  234POPC   C4B 3241   3.912   1.793   6.126 -0.2268  0.1004 -0.2860
  235POPC   NC3 3242   6.196   4.112   4.253  0.1905  0.0464 -0.2039
  235POPC   PO4 3243   6.339   4.272   4.688 -0.3909  0.2056 -0.1326
  235POPC   GL1 3244   6.164   4.142   4.969 -0.1273  0.1711  0.0142
  235POPC   GL2 3245   6.308   4.148   5.358  0.0003  0.1241 -0.3758
  235POPC   C1A 3246   5.889   3.959   5.231 -0.1768  0.2534  0.1612
  235POPC   D2A 3247   5.935   3.794   5.641 -0.0100  0.1479  0.1764
  235POPC   C3A 3248   6.164   4.143   5.842  0.0003  0.3818  0.3100
  235POPC   C4A 3249   6.582   4.445   6.059  0.0399 -0.3865  0.1634
  235POPC   C1B 3250   6.641   4.116   5.627 -0.0450 -0.0558  0.1629
  235POPC   C2B 3251   6.902   4.035   6.027  0.1271 -0.1991  0.1482
  235POPC   C3B 3252   7.339   4.206   6.259 -0.0555  0.3656 -0.0743
  235POPC   C4B 3253   7.461   4.494   6.598  0.0019  0.0741 -0.2360
  236POPC   NC3 3254   2.560   3.127   3.773 -0.4037  0.0320  0.0425
  236POPC   PO4 3255   2.939   3.218   4.009  0.3659  0.0036 -0.1902
  236POPC   GL1 3256   2.743   3.067   4.315  0.2759 -0.1403  0.1047
  236POPC   GL2 3257   2.429   3.150   4.311 -0.3739 -0.1239 -0.1945
  236POPC   C1A 3258   2.604   3.053   4.793 -0.0220  0.0989 -0.0787
  236POPC   D2A 3259   2.378   3.173   5.154  0.3075 -0.0182  0.3555
  236POPC   C3A 3260   1.948   3.456   5.118 -0.3586  0.3921 -0.1777
  236POPC   C4A 3261   1.474   3.466   5.181 -0.0559 -0.3121  0.2513
  236POPC   C1B 3262   2.175   3.333   4.738  0.0158  0.1517 -0.1782
  236POPC   C2B 3263   2.276   3.756   4.869 -0.0088 -0.1150  0.1051
  236POPC   C3B 3264   2.043   3.952   5.141  0.1666  0.0393 -0.2248
  236POPC   C4B 3265   1.597   4.294   4.987 -0.1423  0.2775 -0.1171
  237POPC   NC3 3266   2.439   6.491   4.295 -0.3865 -0.0352 -0.1014
  237POPC   PO4 3267   2.703   6.099   4.299  0.0135 -0.1491 -0.1821
  237POPC   GL1 3268   2.671   6.216   4.796 -0.4006 -0.0123  0.1281
  237POPC   GL2 3269   2.703   5.927   5.065  0.1363 -0.0011 -0.2424
  237POPC   C1A 3270   2.874   6.418   5.148 -0.0375 -0.3726 -0.3818
  237POPC   D2A 3271   3.106   6.857   5.236  0.2267  0.2629  0.2355
  237POPC   C3A 3272   3.275   6.946   5.691 -0.0622  0.0446  0.2341
  237POPC   C4A 3273   3.308   6.988   6.065  0.0720 -0.0483 -0.4339
  237POPC   C1B 3274   2.328   5.849   5.301 -0.1439  0.0766  0.0972
  237POPC   C2B 3275   2.260   5.895   5.822  0.0004  0.0177  0.3223
  237POPC   C3B 3276   2.262   5.447   6.047  0.2957  0.0997 -0.0899
  237POPC   C4B 3277   2.321   4.920   6.176 -0.3274 -0.2020 -0.0589
  238POPC   NC3 3278   6.816   9.091   4.809 -0.0689 -0.2398 -0.3242
  238POPC   PO4 3279   6.399   9.203   4.954  0.2399  0.1618 -0.0570
  238POPC   GL1 3280   6.204   9.169   5.255  0.2445  0.4585  0.2428
  238POPC   GL2 3281   6.375   9.294   5.501  0.1189  0.0517 -0.3054
  238POPC   C1A 3282   6.135   8.863   5.522  0.2308  0.0771  0.0668
  238POPC   D2A 3283   6.018   8.796   5.924 -0.1587  0.2377  0.0506
  238POPC   C3A 3284   5.681   8.645   6.076  0.3753 -0.1489 -0.2642
  238POPC   C4A 3285   5.366   8.449   6.210 -0.0125  0.1214  0.1941
  238POPC   C1B 3286   6.453   9.148   5.821 -0.2594 -0.0502  0.0245
  238POPC   C2B 3287   6.857   8.999   5.908  0.0098  0.1108  0.0914
  238POPC   C3B 3288   7.079   8.709   5.983 -0.1563  0.0841 -0.1933
  238POPC   C4B 3289   7.021   8.526   5.673 -0.1110  0.1978 -0.5939
  239POPC   NC3 3290   8.896   1.333   3.946  0.1486 -0.1214 -0.0765
  239POPC   PO4 3291   8.381   1.179   4.035  0.5335 -0.1105  0.1875
  239POPC   GL1 3292   8.634   1.180   4.492  0.0551  0.0604  0.1254
  239POPC   GL2 3293   8.674   0.846   4.648 -0.0767 -0.3186  0.0108
  239POPC   C1A 3294   8.987   1.215   4.805  0.1480 -0.0962  0.0679
  239POPC   D2A 3295   9.161   1.383   5.160 -0.0135 -0.2389 -0.1514
  239POPC   C3A 3296   9.026   1.335   5.592 -0.1440 -0.0520 -0.1543
  239POPC   C4A 3297   8.606   1.145   5.694 -0.1521  0.2499  0.2374
  239POPC   C1B 3298   9.101   0.743   4.863  0.0987  0.3390 -0.0438
  239POPC   C2B 3299   9.362   0.921   5.215 -0.6488 -0.0705  0.1155
  239POPC   C3B 3300   9.482   0.987   5.686 -0.0708  0.2372  0.1332
  239POPC   C4B 3301   9.813   1.062   5.909  0.0202 -0.2138 -0.3384
  240POPC   NC3 3302   7.013   4.218   4.605 -0.2085 -0.0595  0.0047
  240POPC   PO4 3303   7.212   3.864   4.819 -0.4244  0.2423  0.0077
  240POPC   GL1 3304   7.293   3.927   5.229  0.3842  0.2899 -0.0541
  240POPC   GL2 3305   7.520   3.728   5.397 -0.0071  0.1015  0.2509
  240POPC   C1A 3306   7.121   4.191   5.502 -0.0352 -0.1527  0.0356
  240POPC   D2A 3307   7.143   4.462   5.863 -0.1678 -0.1357 -0.0229
  240POPC   C3A 3308   6.757   4.857   5.910  0.0738 -0.1207  0.1299
  240POPC   C4A 3309   6.656   5.094   5.500  0.1224 -0.0637 -0.2242
  240POPC   C1B 3310   7.645   3.502   5.688  0.2666 -0.0612 -0.0141
  240POPC   C2B 3311   7.951   3.447   5.996 -0.2705  0.1487  0.1824
  240POPC   C3B 3312   8.052   3.334   6.435 -0.0523  0.0971 -0.2730
  240POPC   C4B 3313   8.139   3.212   6.927  0.2965  0.0703  0.0948
  241POPC   NC3 3314   3.841   5.821   4.629  0.1000 -0.2317  0.5816
  241POPC   PO4 3315   3.480   5.638   4.568  0.1820 -0.3773  0.1828
  241POPC   GL1 3316   3.528   5.761   5.015 -0.0435 -0.3000  0.2712
  241POPC   GL2 3317   3.261   5.754   5.070 -0.0256  0.1271 -0.2521
  241POPC   C1A 3318   3.603   5.817   5.408  0.1352 -0.1196 -0.1150
  241POPC   D2A 3319   3.244   5.760   5.678 -0.1540  0.1791  0.1332
  241POPC   C3A 3320   3.279   6.006   6.075 -0.0190  0.2179  0.0217
  241POPC   C4A 3321   3.472   6.476   6.203  0.3917  0.0920  0.0552
  241POPC   C1B 3322   2.922   5.579   5.383 -0.0347 -0.1601  0.0169
  241POPC   C2B 3323   2.662   5.590   5.774  0.0105 -0.1101 -0.3295
  241POPC   C3B 3324   2.655   5.669   6.212 -0.0920  0.3486 -0.1796
  241POPC   C4B 3325   2.581   5.418   6.583  0.0294 -0.1134  0.1399
  242POPC   NC3 3326   2.981   7.173   3.808 -0.4770  0.1645 -0.0749
  242POPC   PO4 3327   3.282   7.081   4.117 -0.1023 -0.2157 -0.0246
  242POPC   GL1 3328   3.276   7.074   4.540  0.0643  0.0351 -0.4676
  242POPC   GL2 3329   3.122   7.222   4.779 -0.0733 -0.0416  0.1347
  242POPC   C1A 3330   3.522   7.076   4.963 -0.1228 -0.1558 -0.2714
  242POPC   D2A 3331   3.525   7.291   5.478 -0.2903  0.0878  0.0976
  242POPC   C3A 3332   3.685   7.189   5.796 -0.0367 -0.3545  0.0001
  242POPC   C4A 3333   3.725   7.253   6.267  0.1029 -0.2237 -0.2804
  242POPC   C1B 3334   2.706   7.163   5.032 -0.0485 -0.0914  0.1951
  242POPC   C2B 3335   2.549   6.908   5.280  0.2856  0.3479  0.1403
  242POPC   C3B 3336   2.635   7.076   5.635 -0.2961 -0.1212 -0.2070
  242POPC   C4B 3337   2.833   6.971   6.090 -0.0067 -0.0222 -0.2864
  243POPC   NC3 3338   1.377   8.663   3.802 -0.0097  0.2028 -0.1187
  243POPC   PO4 3339   1.390   9.026   3.968 -0.0110 -0.1652 -0.0630
  243POPC   GL1 3340   1.264   9.126   4.453 -0.0593 -0.2556 -0.0598
  243POPC   GL2 3341   1.345   8.842   4.662 -0.2453  0.0061  0.0514
  243POPC   C1A 3342   0.995   9.177   4.856 -0.0319 -0.0963  0.0254
  243POPC   D2A 3343   1.012   9.255   5.333  0.3318  0.0080 -0.0692
  243POPC   C3A 3344   1.308   9.643   5.618 -0.4940 -0.2052  0.2006
  243POPC   C4A 3345   1.553   9.881   5.875 -0.0787 -0.2245 -0.0090
  243POPC   C1B 3346   1.511   9.038   4.949  0.1288 -0.1238 -0.1838
  243POPC   C2B 3347   1.523   9.195   5.398  0.0472  0.3288  0.3163
  243POPC   C3B 3348   1.347   9.189   5.750  0.0141 -0.0255 -0.2915
  243POPC   C4B 3349   0.996   9.352   5.944 -0.0653  0.0589 -0.1525
  244POPC   NC3 3350   6.794   7.384   5.117  0.0440 -0.0818  0.4821
  244POPC   PO4 3351   7.165   7.671   4.857  0.1633 -0.0710  0.1569
  244POPC   GL1 3352   7.042   7.795   5.312 -0.2301 -0.0318  0.0195
  244POPC   GL2 3353   6.980   8.108   5.418 -0.0167  0.2917  0.0573
  244POPC   C1A 3354   6.984   7.680   5.759  0.2165  0.2177 -0.1292
  244POPC   D2A 3355   6.710   7.771   6.110  0.1787  0.0312  0.1461
  244POPC   C3A 3356   6.473   7.517   6.352  0.0651 -0.1087  0.1918
  244POPC   C4A 3357   6.607   7.236   6.763 -0.2772 -0.1736 -0.0023
  244POPC   C1B 3358   6.657   8.202   5.839 -0.0083  0.0827  0.1554
  244POPC   C2B 3359   6.499   8.139   6.324 -0.0751 -0.0219  0.4222
  244POPC   C3B 3360   6.522   7.836   6.740  0.0475 -0.1892 -0.0525
  244POPC   C4B 3361   6.212   7.494   6.796  0.0956  0.0464  0.1584
  245POPC   NC3 3362   7.786   3.814   4.498 -0.3121 -0.1912  0.0792
  245POPC   PO4 3363   8.157   3.703   4.812  0.1786 -0.0835 -0.0057
  245POPC   GL1 3364   8.226   3.860   5.150 -0.2124  0.1887 -0.2067
  245POPC   GL2 3365   7.983   3.705   5.273  0.1001 -0.0718 -0.0244
  245POPC   C1A 3366   8.444   3.958   5.503 -0.1012  0.0350 -0.2638
  245POPC   D2A 3367   8.299   4.149   5.904 -0.0108 -0.1230 -0.0440
  245POPC   C3A 3368   7.957   4.435   5.923 -0.0084  0.2218  0.1495
  245POPC   C4A 3369   7.714   4.705   5.529 -0.1571  0.0166 -0.1917
  245POPC   C1B 3370   7.934   3.873   5.667 -0.3389  0.1230 -0.2710
  245POPC   C2B 3371   7.844   3.925   6.118 -0.2216 -0.2260 -0.1391
  245POPC   C3B 3372   7.594   3.721   6.406 -0.3530  0.1448  0.3619
  245POPC   C4B 3373   7.329   3.319   6.625 -0.0700 -0.0639 -0.2132
  246POPC   NC3 3374   1.287   6.607   4.254  0.0566  0.0002  0.1729
  246POPC   PO4 3375   1.201   7.018   4.532  0.1271  0.1022  0.1504
  246POPC   GL1 3376   1.197   6.682   4.924 -0.0864  0.0636 -0.3067
  246POPC   GL2 3377   1.537   6.485   5.073 -0.0108  0.2886 -0.1865
  246POPC   C1A 3378   1.071   6.787   5.326  0.0186  0.0119  0.2061
  246POPC   D2A 3379   1.178   7.028   5.725  0.0066  0.3318  0.0032
  246POPC   C3A 3380   1.183   6.750   6.085 -0.1216 -0.0955 -0.2358
  246POPC   C4A 3381   1.042   6.688   6.475  0.1362 -0.2921 -0.0619
  246POPC   C1B 3382   1.560   6.185   5.315  0.1440 -0.0585  0.1522
  246POPC   C2B 3383   1.898   6.311   5.652 -0.2517 -0.0896 -0.0750
  246POPC   C3B 3384   2.212   6.388   5.965  0.1443 -0.0115  0.1067
  246POPC   C4B 3385   2.587   6.551   6.078  0.0668 -0.2139  0.1211
  247POPC   NC3 3386   7.644   3.567   4.934  0.1234 -0.3089  0.2486
  247POPC   PO4 3387   7.313   3.438   5.072  0.0070 -0.0413  0.1069
  247POPC   GL1 3388   7.206   3.120   5.321 -0.0646  0.0763 -0.0582
  247POPC   GL2 3389   7.464   2.928   5.242  0.0580  0.1017  0.1238
  247POPC   C1A 3390   7.099   3.189   5.717 -0.1775  0.3405 -0.1279
  247POPC   D2A 3391   7.251   2.974   5.967  0.3075  0.2438  0.0565
  247POPC   C3A 3392   7.605   3.127   6.205  0.4550 -0.1212 -0.0538
  247POPC   C4A 3393   7.816   2.928   6.640 -0.1105 -0.2325  0.0942
  247POPC   C1B 3394   7.682   2.962   5.745 -0.1201 -0.0141 -0.2032
  247POPC   C2B 3395   7.678   2.592   6.112  0.1521  0.1364 -0.2539
  247POPC   C3B 3396   7.859   2.398   6.407  0.2621 -0.0639  0.1394
  247POPC   C4B 3397   8.121   2.033   6.290 -0.0423 -0.1746  0.3826
  248POPC   NC3 3398   0.215   3.812   4.127 -0.1791  0.0973 -0.1751
  248POPC   PO4 3399   0.090   3.389   3.847  0.0421  0.0074 -0.2484
  248POPC   GL1 3400   0.215   3.315   4.230 -0.1069  0.0739 -0.1652
  248POPC   GL2 3401   0.377   3.082   4.259 -0.3843 -0.2444 -0.0220
  248POPC   C1A 3402   0.099   3.330   4.607  0.0854  0.2240 -0.0863
  248POPC   D2A 3403  -0.064   3.059   4.984 -0.1710  0.0712  0.2697
  248POPC   C3A 3404   0.259   2.815   5.255 -0.2747 -0.2225 -0.2449
  248POPC   C4A 3405   0.722   2.750   5.228  0.0932 -0.0156  0.2298
  248POPC   C1B 3406   0.424   2.737   4.437  0.0704 -0.2917 -0.0506
  248POPC   C2B 3407  -0.090   2.826   4.548 -0.0867 -0.1629 -0.3583
  248POPC   C3B 3408  -0.411   2.671   4.674  0.0505 -0.3164 -0.0261
  248POPC   C4B 3409  -0.817   2.694   4.682 -0.1191  0.1176  0.0576
  249POPC   NC3 3410   3.159   7.998   3.697  0.0272  0.1055  0.1077
  249POPC   PO4 3411   3.320   8.099   4.160 -0.1027 -0.1092  0.0124
  249POPC   GL1 3412   3.195   8.222   4.609 -0.3214  0.0749  0.0786
  249POPC   GL2 3413   3.314   8.031   4.774 -0.1121  0.2176  0.0998
  249POPC   C1A 3414   3.052   8.303   5.065 -0.0594  0.2726 -0.0653
  249POPC   D2A 3415   3.293   8.584   5.356 -0.0666 -0.1492 -0.1728
  249POPC   C3A 3416   3.257   8.913   5.595  0.1076  0.0089 -0.0402
  249POPC   C4A 3417   3.466   9.003   6.070  0.0040 -0.0124  0.1476
  249POPC   C1B 3418   3.522   8.093   5.192  0.1833  0.0171 -0.1795
  249POPC   C2B 3419   3.573   8.263   5.599  0.1898  0.0646 -0.0321
  249POPC   C3B 3420   3.602   8.556   5.825 -0.5395  0.1376  0.2384
  249POPC   C4B 3421   3.460   8.552   6.248 -0.0647 -0.0389  0.3814
  250POPC   NC3 3422   4.116   8.453   4.436 -0.1765 -0.3048  0.1260
  250POPC   PO4 3423   4.584   8.323   4.633 -0.3585  0.0715 -0.2065
  250POPC   GL1 3424   4.391   8.650   4.985 -0.2250  0.1420  0.0543
  250POPC   GL2 3425   4.140   8.833   4.813  0.1621 -0.0079  0.0954
  250POPC   C1A 3426   4.288   8.566   5.483  0.0179 -0.0851  0.3645
  250POPC   D2A 3427   4.090   8.593   5.696 -0.1377 -0.2146 -0.0769
  250POPC   C3A 3428   4.183   8.826   6.045 -0.0590 -0.1648  0.1622
  250POPC   C4A 3429   4.519   8.922   6.399  0.1854 -0.0722  0.3343
  250POPC   C1B 3430   4.013   9.140   5.116  0.2060 -0.0012  0.2564
  250POPC   C2B 3431   3.987   9.439   5.462 -0.0244 -0.0519 -0.0458
  250POPC   C3B 3432   4.089   9.818   5.750  0.0007 -0.2213  0.1645
  250POPC   C4B 3433   4.408  10.171   5.760 -0.0684  0.3099  0.1022
  251POPC   NC3 3434   8.028   9.691   4.760  0.0963 -0.0469 -0.1232
  251POPC   PO4 3435   7.892  10.039   4.793 -0.1508  0.1034  0.2594
  251POPC   GL1 3436   7.746   9.839   5.252 -0.1661  0.1218  0.2420
  251POPC   GL2 3437   7.896   9.983   5.427  0.0049 -0.2997 -0.1284
  251POPC   C1A 3438   7.519   9.768   5.805 -0.0776  0.0303  0.3582
  251POPC   D2A 3439   7.141   9.954   5.870 -0.0147  0.0555  0.1436
  251POPC   C3A 3440   7.089  10.380   5.938  0.3332 -0.0933  0.3147
  251POPC   C4A 3441   7.359  10.667   5.955 -0.1601  0.1222  0.0735
  251POPC   C1B 3442   8.149  10.294   5.680 -0.2380 -0.0301  0.0434
  251POPC   C2B 3443   8.300  10.563   6.010  0.4080  0.0054  0.1380
  251POPC   C3B 3444   8.438  10.727   6.355 -0.1427  0.1976  0.1858
  251POPC   C4B 3445   8.246  10.841   6.706 -0.2046  0.0174  0.1332
  252POPC   NC3 3446   7.753   2.388   4.453  0.2564  0.1153  0.0561
  252POPC   PO4 3447   8.123   2.585   4.523 -0.1883  0.1963 -0.1737
  252POPC   GL1 3448   8.231   2.247   4.866  0.1283  0.1729 -0.0825
  252POPC   GL2 3449   8.303   2.478   5.080 -0.1654  0.1560  0.2510
  252POPC   C1A 3450   8.275   1.906   5.065  0.1685 -0.6295 -0.0609
  252POPC   D2A 3451   8.397   1.648   5.453 -0.1307  0.2167  0.0558
  252POPC   C3A 3452   8.269   1.680   5.904 -0.2219  0.0051  0.3257
  252POPC   C4A 3453   7.961   1.525   6.187 -0.0866  0.2255 -0.1517
  252POPC   C1B 3454   8.495   2.637   5.383 -0.2678  0.0305 -0.2225
  252POPC   C2B 3455   8.661   2.698   5.724  0.0807  0.0327  0.0155
  252POPC   C3B 3456   8.570   2.758   6.117  0.0711  0.1218  0.2536
  252POPC   C4B 3457   8.491   2.852   6.466  0.0049  0.2774  0.0069
  253POPC   NC3 3458   4.598   9.478   4.690 -0.5031 -0.1273  0.1457
  253POPC   PO4 3459   4.291   9.761   4.359  0.1980 -0.1335  0.0577
  253POPC   GL1 3460   4.090   9.779   4.807 -0.1252  0.2059 -0.0414
  253POPC   GL2 3461   4.183   9.581   4.985  0.1073 -0.2334  0.3041
  253POPC   C1A 3462   4.091  10.049   5.289 -0.0267 -0.0235  0.0221
  253POPC   D2A 3463   3.983  10.342   5.540  0.1433 -0.1248 -0.2097
  253POPC   C3A 3464   3.792  10.548   5.828  0.1693  0.0434  0.2262
  253POPC   C4A 3465   3.476  10.839   5.588 -0.0016  0.3824 -0.0506
  253POPC   C1B 3466   4.493   9.615   5.382  0.2480 -0.0188  0.4296
  253POPC   C2B 3467   4.893   9.866   5.645  0.1950  0.1089  0.1604
  253POPC   C3B 3468   4.930   9.854   5.983 -0.0217 -0.0810 -0.2613
  253POPC   C4B 3469   4.931  10.201   6.202  0.2938  0.0506 -0.3175
  254POPC   NC3 3470   2.523   5.650   4.598  0.0932  0.2404 -0.0979
  254POPC   PO4 3471   2.257   5.268   4.706 -0.0848 -0.0929 -0.0808
  254POPC   GL1 3472   2.231   5.415   5.007  0.1013  0.0664 -0.1746
  254POPC   GL2 3473   1.942   5.590   4.981  0.5217  0.1166 -0.3033
  254POPC   C1A 3474   2.427   5.299   5.412 -0.0514 -0.0821 -0.1891
  254POPC   D2A 3475   2.513   5.094   5.779  0.0362  0.0104 -0.0844
  254POPC   C3A 3476   2.725   5.151   6.143 -0.0494 -0.1742 -0.1862
  254POPC   C4A 3477   3.053   5.377   6.378  0.1726 -0.0011  0.0817
  254POPC   C1B 3478   1.817   5.727   5.358 -0.0319  0.1664 -0.1258
  254POPC   C2B 3479   1.813   5.599   5.818 -0.4567  0.0939  0.2915
  254POPC   C3B 3480   1.838   5.503   6.244  0.0372 -0.1037  0.3372
  254POPC   C4B 3481   2.019   5.236   6.536 -0.4051 -0.2229  0.0341
  255POPC   NC3 3482   1.465   5.598   4.705  0.0202  0.0745 -0.0343
  255POPC   PO4 3483   1.089   5.831   4.770 -0.1400  0.0516 -0.0047
  255POPC   GL1 3484   1.252   5.810   5.126  0.0485 -0.0483 -0.0669
  255POPC   GL2 3485   0.988   5.707   5.327 -0.0563  0.1443 -0.0374
  255POPC   C1A 3486   1.373   5.595   5.573 -0.1281 -0.2908 -0.4689
  255POPC   D2A 3487   1.391   5.266   5.837  0.1673 -0.0241  0.0772
  255POPC   C3A 3488   1.439   4.935   5.542  0.1221 -0.3394  0.0109
  255POPC   C4A 3489   1.255   4.555   5.375 -0.3913 -0.2524 -0.0137
  255POPC   C1B 3490   0.618   5.444   5.382 -0.1354  0.0371 -0.0011
  255POPC   C2B 3491   0.562   4.961   5.419  0.2200  0.1531  0.1232
  255POPC   C3B 3492   0.683   4.618   5.600 -0.0708  0.4174 -0.0210
  255POPC   C4B 3493   0.751   4.194   5.658 -0.0869  0.0576 -0.0570
  256POPC   NC3 3494   8.196   0.886   4.455 -0.0570 -0.0107 -0.0722
  256POPC   PO4 3495   7.815   0.638   4.743 -0.0589  0.1731  0.1822
  256POPC   GL1 3496   7.745   0.901   5.111  0.1621  0.1003 -0.0021
  256POPC   GL2 3497   7.538   1.308   5.095 -0.1818  0.0906 -0.1714
  256POPC   C1A 3498   7.926   0.770   5.496  0.1514 -0.0598  0.2121
  256POPC   D2A 3499   7.832   0.806   5.941 -0.1890 -0.1517  0.3342
  256POPC   C3A 3500   7.968   1.022   6.290  0.2868 -0.0318 -0.1834
  256POPC   C4A 3501   8.048   1.333   6.617  0.0757  0.1814 -0.0201
  256POPC   C1B 3502   7.401   1.542   5.521 -0.0908 -0.0642 -0.1347
  256POPC   C2B 3503   7.233   1.630   5.947  0.2330 -0.0168 -0.0547
  256POPC   C3B 3504   7.170   1.760   6.345 -0.0112  0.1226 -0.1241
  256POPC   C4B 3505   7.277   1.860   6.732 -0.1407 -0.2296  0.1829
  257POPC   NC3 3506   8.091   6.455   4.795  0.1080  0.2454 -0.0279
  257POPC   PO4 3507   8.112   6.880   4.870 -0.1265  0.1169 -0.0278
  257POPC   GL1 3508   8.160   6.754   5.225 -0.3210  0.0152  0.0147
  257POPC   GL2 3509   8.332   6.446   5.248  0.0422  0.0104  0.2764
  257POPC   C1A 3510   8.245   6.769   5.672 -0.0300  0.4299 -0.0442
  257POPC   D2A 3511   8.230   6.749   6.107  0.1004 -0.0320  0.1655
  257POPC   C3A 3512   8.091   6.485   6.506  0.0908 -0.3117  0.0798
  257POPC   C4A 3513   7.867   6.270   6.898  0.1159  0.1656  0.4538
  257POPC   C1B 3514   8.552   6.368   5.714 -0.1914  0.0375  0.2064
  257POPC   C2B 3515   8.732   6.425   6.046  0.1805 -0.1596  0.0985
  257POPC   C3B 3516   8.636   6.578   6.481  0.0245 -0.2110  0.1394
  257POPC   C4B 3517   8.588   6.928   6.722  0.0942 -0.2265  0.1222
  258POPC   NC3 3518   9.174   9.379   4.194 -0.0527 -0.0006 -0.0284
  258POPC   PO4 3519   8.882   9.511   4.455  0.3439 -0.3205  0.4263
  258POPC   GL1 3520   8.890   9.486   4.929 -0.1276  0.0550 -0.0552
  258POPC   GL2 3521   9.129   9.170   5.011 -0.0961 -0.0696 -0.0063
  258POPC   C1A 3522   8.689   9.410   5.391 -0.0773 -0.2518 -0.3218
  258POPC   D2A 3523   8.487   9.503   5.801 -0.1089 -0.0706  0.2233
  258POPC   C3A 3524   8.342   9.185   6.147 -0.2204  0.1657  0.1133
  258POPC   C4A 3525   8.374   9.044   6.556 -0.1875  0.0600  0.0114
  258POPC   C1B 3526   9.189   9.350   5.387 -0.0444  0.1442  0.0925
  258POPC   C2B 3527   8.989   9.429   5.806 -0.3363  0.0267 -0.0832
  258POPC   C3B 3528   8.820   9.435   6.163 -0.4382 -0.1269  0.1740
  258POPC   C4B 3529   8.471   9.523   6.442  0.0717  0.1822  0.0745
  259POPC   NC3 3530   4.306   4.592   4.381  0.0376  0.3040  0.0078
  259POPC   PO4 3531   4.176   5.054   4.648  0.3095 -0.2166  0.1152
  259POPC   GL1 3532   4.196   5.122   5.114 -0.0584 -0.4135  0.0912
  259POPC   GL2 3533   4.468   5.147   5.190  0.0444  0.1511  0.1798
  259POPC   C1A 3534   3.960   5.441   5.303 -0.0579 -0.1638  0.1732
  259POPC   D2A 3535   4.012   5.614   5.752 -0.2030 -0.1922 -0.3551
  259POPC   C3A 3536   3.650   5.581   6.035 -0.0112  0.0415 -0.0111
  259POPC   C4A 3537   3.521   5.346   6.392  0.1531  0.1597  0.1015
  259POPC   C1B 3538   4.787   5.296   5.453 -0.2013 -0.1587 -0.2012
  259POPC   C2B 3539   5.056   5.642   5.427 -0.1568  0.0835 -0.0764
  259POPC   C3B 3540   5.178   5.704   5.848 -0.2445 -0.1453  0.0324
  259POPC   C4B 3541   5.299   5.935   6.307 -0.0194 -0.0950  0.0040
  260POPC   NC3 3542   4.514   1.616   3.977 -0.0273 -0.0067  0.1259
  260POPC   PO4 3543   4.887   1.721   4.162  0.0208 -0.1541 -0.0203
  260POPC   GL1 3544   4.530   1.635   4.493  0.0183 -0.1193 -0.2155
  260POPC   GL2 3545   4.566   1.410   4.804  0.0981  0.1012 -0.0682
  260POPC   C1A 3546   4.298   1.869   4.795  0.0148  0.2098  0.1892
  260POPC   D2A 3547   4.244   2.261   4.825 -0.1277 -0.0926 -0.1645
  260POPC   C3A 3548   3.907   2.409   4.973  0.0469  0.1711  0.1570
  260POPC   C4A 3549   3.465   2.604   4.922  0.0126  0.2832 -0.0725
  260POPC   C1B 3550   4.749   1.707   5.074 -0.5196  0.1266  0.0135
  260POPC   C2B 3551   4.535   1.874   5.495  0.1289 -0.1029  0.1216
  260POPC   C3B 3552   4.127   1.842   5.703  0.1034  0.2455 -0.0614
  260POPC   C4B 3553   3.923   1.570   5.622  0.4486 -0.0917 -0.0665
  261POPC   NC3 3554   2.889   4.752   4.163  0.0008 -0.3844  0.0735
  261POPC   PO4 3555   3.111   4.336   4.325 -0.2321  0.2847  0.2810
  261POPC   GL1 3556   3.057   4.317   4.810 -0.3310 -0.0480  0.3379
  261POPC   GL2 3557   2.927   4.596   4.959 -0.3175  0.0907  0.1086
  261POPC   C1A 3558   3.336   4.280   5.197 -0.0551 -0.0328 -0.1752
  261POPC   D2A 3559   3.521   3.952   5.612  0.1767 -0.0952 -0.1484
  261POPC   C3A 3560   3.649   3.651   5.937  0.4016  0.2006  0.0546
  261POPC   C4A 3561   3.604   3.248   5.983  0.1477 -0.0084 -0.1885
  261POPC   C1B 3562   2.860   4.337   5.390 -0.1076 -0.0147 -0.2036
  261POPC   C2B 3563   2.974   4.034   5.683  0.1619  0.2527  0.0796
  261POPC   C3B 3564   2.942   3.788   6.027 -0.0912  0.1825 -0.3150
  261POPC   C4B 3565   3.041   3.418   6.160 -0.1456 -0.1661  0.2124
  262POPC   NC3 3566   4.945   3.443   4.285  0.1611  0.1127  0.0437
  262POPC   PO4 3567   4.568   3.608   4.304  0.0002 -0.1837  0.2120
  262POPC   GL1 3568   4.510   3.655   4.781 -0.0362 -0.1527  0.0104
  262POPC   GL2 3569   4.845   3.631   4.887 -0.0220 -0.1973 -0.1599
  262POPC   C1A 3570   4.307   3.793   5.131 -0.0212 -0.1666 -0.3234
  262POPC   D2A 3571   4.032   3.853   5.480 -0.1774 -0.2243  0.0142
  262POPC   C3A 3572   4.145   3.648   5.852 -0.0077  0.0296  0.1625
  262POPC   C4A 3573   4.115   3.568   6.314 -0.5101 -0.1081 -0.1400
  262POPC   C1B 3574   4.633   3.435   5.248 -0.4193 -0.4683 -0.2560
  262POPC   C2B 3575   4.510   3.444   5.619 -0.1545 -0.0087  0.2681
  262POPC   C3B 3576   4.588   3.416   6.111 -0.0681 -0.1923 -0.2105
  262POPC   C4B 3577   4.641   3.630   6.508  0.2447  0.1592 -0.3001
  263POPC   NC3 3578   0.041   8.877   4.360  0.0073  0.2595 -0.0873
  263POPC   PO4 3579  -0.436   9.032   4.318 -0.1156 -0.1587  0.1425
  263POPC   GL1 3580  -0.475   9.450   4.624 -0.1348  0.1426 -0.1339
  263POPC   GL2 3581  -0.642   9.704   4.768 -0.1350  0.0238 -0.0909
  263POPC   C1A 3582  -0.125   9.793   4.815 -0.3506  0.1688 -0.0464
  263POPC   D2A 3583   0.130   9.780   5.221 -0.3037  0.0260  0.1461
  263POPC   C3A 3584   0.010   9.523   5.487  0.1254 -0.2017 -0.1591
  263POPC   C4A 3585   0.021   9.625   5.973  0.1963  0.3132  0.0125
  263POPC   C1B 3586  -0.878   9.859   5.137 -0.0628 -0.1039 -0.3067
  263POPC   C2B 3587  -0.885   9.888   5.532  0.1416 -0.0359 -0.0408
  263POPC   C3B 3588  -0.909   9.889   5.971 -0.1064 -0.0027 -0.1324
  263POPC   C4B 3589  -1.034   9.892   6.343  0.3677  0.0005  0.1243
  264POPC   NC3 3590   7.881   3.155   5.111  0.0391  0.2407 -0.0589
  264POPC   PO4 3591   8.129   3.080   4.855 -0.1834  0.1301 -0.2450
  264POPC   GL1 3592   8.461   3.101   5.084  0.2067  0.0617  0.1702
  264POPC   GL2 3593   8.544   3.432   5.135 -0.0622 -0.2912  0.1499
  264POPC   C1A 3594   8.732   3.109   5.439 -0.0537 -0.4356  0.1239
  264POPC   D2A 3595   8.906   3.137   5.853  0.1175  0.2817  0.0836
  264POPC   C3A 3596   9.204   2.867   5.671  0.1964  0.1664  0.0046
  264POPC   C4A 3597   9.522   2.530   5.710 -0.1263 -0.1389 -0.0001
  264POPC   C1B 3598   8.298   3.515   5.552 -0.0992  0.1427 -0.3418
  264POPC   C2B 3599   8.434   3.676   5.947 -0.0330 -0.1826 -0.0860
  264POPC   C3B 3600   8.722   3.490   6.267 -0.0423 -0.0630  0.0087
  264POPC   C4B 3601   8.541   3.358   6.722 -0.1395 -0.2499 -0.0206
  265POPC   NC3 3602   2.333   8.180   4.473 -0.2233  0.4388  0.0746
  265POPC   PO4 3603   2.388   7.766   4.345 -0.2521  0.1231  0.2981
  265POPC   GL1 3604   2.430   7.583   4.746  0.1460 -0.1009  0.1122
  265POPC   GL2 3605   2.237   7.704   4.999  0.2156  0.2024 -0.0061
  265POPC   C1A 3606   2.519   7.520   5.297  0.0861 -0.0232 -0.0266
  265POPC   D2A 3607   2.607   7.737   5.586 -0.0782 -0.0121  0.0065
  265POPC   C3A 3608   2.679   8.150   5.714  0.0350  0.4018  0.0550
  265POPC   C4A 3609   3.052   8.402   5.804  0.0166  0.2472 -0.0412
  265POPC   C1B 3610   2.090   7.752   5.441 -0.0334 -0.4211 -0.0709
  265POPC   C2B 3611   1.754   7.843   5.649  0.1605 -0.1068  0.2930
  265POPC   C3B 3612   1.509   8.040   5.834  0.0585 -0.1319  0.0399
  265POPC   C4B 3613   1.266   8.037   6.194 -0.0745  0.2041  0.0239
  266POPC   NC3 3614   3.731   5.069   4.443  0.3616  0.0760 -0.1588
  266POPC   PO4 3615   3.807   4.592   4.505 -0.2843  0.0493 -0.0048
  266POPC   GL1 3616   3.799   4.818   4.918  0.0847 -0.2106  0.0956
  266POPC   GL2 3617   3.536   4.772   5.061  0.1971  0.2153 -0.2722
  266POPC   C1A 3618   3.820   4.957   5.429  0.1780  0.1535 -0.2007
  266POPC   D2A 3619   4.200   5.108   5.576  0.2191  0.2549  0.4829
  266POPC   C3A 3620   4.221   5.246   5.962  0.0757  0.1518  0.1971
  266POPC   C4A 3621   4.087   5.443   6.370  0.0799  0.1923  0.0559
  266POPC   C1B 3622   3.219   4.800   5.433  0.2372  0.0972  0.1274
  266POPC   C2B 3623   3.234   4.532   5.752 -0.4395 -0.1289  0.3784
  266POPC   C3B 3624   3.384   4.203   6.129 -0.2582  0.0605 -0.0340
  266POPC   C4B 3625   3.698   4.434   6.544 -0.1109  0.0372  0.1190
  267POPC   NC3 3626   7.909   5.350   4.421  0.0500 -0.0476  0.0376
  267POPC   PO4 3627   8.088   5.050   4.766  0.0501 -0.1809  0.2327
  267POPC   GL1 3628   8.334   5.088   5.225  0.0767 -0.4276 -0.0503
  267POPC   GL2 3629   8.687   4.929   5.179 -0.1257 -0.0182  0.0806
  267POPC   C1A 3630   8.161   5.168   5.463 -0.3687  0.2394 -0.3185
  267POPC   D2A 3631   7.962   4.984   5.890  0.1515  0.1641 -0.2649
  267POPC   C3A 3632   8.227   5.099   6.203  0.2966  0.2321 -0.0907
  267POPC   C4A 3633   8.556   5.048   6.557 -0.1325 -0.0841  0.1687
  267POPC   C1B 3634   9.079   4.652   5.195  0.1994 -0.1110 -0.1049
  267POPC   C2B 3635   9.314   4.625   5.602  0.2849  0.2726  0.0630
  267POPC   C3B 3636   9.230   4.825   5.999  0.1548 -0.1018  0.1205
  267POPC   C4B 3637   9.587   4.775   6.304  0.2422  0.0267  0.2658
  268POPC   NC3 3638   2.759   1.901   3.388 -0.0924 -0.0637 -0.1334
  268POPC   PO4 3639   3.185   1.578   3.448  0.1487  0.1833 -0.2640
  268POPC   GL1 3640   3.359   1.679   3.940  0.3052 -0.0477 -0.2178
  268POPC   GL2 3641   3.633   1.527   4.147 -0.0518  0.1679 -0.1591
  268POPC   C1A 3642   3.202   1.906   4.322  0.1810 -0.1493  0.1157
  268POPC   D2A 3643   3.279   2.322   4.525  0.1072 -0.1411  0.0594
  268POPC   C3A 3644   2.912   2.603   4.511 -0.1729 -0.2890  0.5879
  268POPC   C4A 3645   2.533   2.606   4.425 -0.0548 -0.0541 -0.1170
  268POPC   C1B 3646   3.416   1.457   4.560  0.0362 -0.0141 -0.3547
  268POPC   C2B 3647   3.330   1.345   4.994  0.0591 -0.3551  0.1474
  268POPC   C3B 3648   3.439   1.423   5.420  0.4249 -0.0442  0.0966
  268POPC   C4B 3649   3.129   1.306   5.862  0.0086  0.0156  0.0110
  269POPC   NC3 3650   7.363   4.340   4.992 -0.1731 -0.3284 -0.1307
  269POPC   PO4 3651   7.516   4.842   4.907 -0.0814  0.1531 -0.1333
  269POPC   GL1 3652   7.600   5.164   5.299 -0.1159  0.0203 -0.0676
  269POPC   GL2 3653   7.509   5.525   5.292  0.1402 -0.3279 -0.0011
  269POPC   C1A 3654   7.742   5.381   5.670 -0.0936 -0.1960 -0.3796
  269POPC   D2A 3655   7.473   5.488   5.906  0.0288 -0.3961 -0.1289
  269POPC   C3A 3656   7.050   5.702   6.026  0.0794  0.3413 -0.2640
  269POPC   C4A 3657   6.590   5.843   6.138  0.3165 -0.3734  0.0256
  269POPC   C1B 3658   7.381   5.797   5.581 -0.2160 -0.0609 -0.0932
  269POPC   C2B 3659   7.404   6.038   5.976 -0.2969  0.1395  0.0884
  269POPC   C3B 3660   7.724   6.063   6.339 -0.1996 -0.1466  0.2073
  269POPC   C4B 3661   8.097   5.946   6.395 -0.2446 -0.2325 -0.4984
  270POPC   NC3 3662   1.082   5.310   3.846  0.0618 -0.2072  0.2020
  270POPC   PO4 3663   0.996   4.946   4.111  0.0119  0.1026 -0.2598
  270POPC   GL1 3664   0.863   4.677   4.450  0.1638 -0.0434  0.1455
  270POPC   GL2 3665   0.835   4.821   4.698  0.0466  0.2732 -0.2041
  270POPC   C1A 3666   0.681   4.260   4.525 -0.2122 -0.0712  0.0570
  270POPC   D2A 3667   0.671   3.957   4.835  0.1855 -0.1044  0.3129
  270POPC   C3A 3668   0.322   3.825   5.137 -0.0089  0.0004 -0.0272
  270POPC   C4A 3669   0.046   3.537   5.072 -0.1483  0.0349 -0.0678
  270POPC   C1B 3670   1.002   4.875   5.045  0.1454 -0.1368  0.2038
  270POPC   C2B 3671   1.029   5.116   5.427 -0.0625  0.4630  0.2123
  270POPC   C3B 3672   0.970   4.930   5.877 -0.3435  0.2837  0.2848
  270POPC   C4B 3673   1.035   5.191   6.165  0.0552  0.4590 -0.0768
  271POPC   NC3 3674   7.138   5.229   5.080  0.3031 -0.1858 -0.1240
  271POPC   PO4 3675   6.978   4.728   5.102  0.0747 -0.1800 -0.1158
  271POPC   GL1 3676   7.097   4.979   5.518 -0.2923  0.1537 -0.3050
  271POPC   GL2 3677   7.058   5.380   5.632  0.1684 -0.1775  0.2966
  271POPC   C1A 3678   7.392   4.953   5.825  0.1217 -0.1501  0.0262
  271POPC   D2A 3679   7.528   4.637   5.995 -0.1082  0.0424 -0.1018
  271POPC   C3A 3680   7.812   4.629   6.332  0.1496 -0.0325  0.0418
  271POPC   C4A 3681   8.151   4.782   6.583 -0.1591  0.2943  0.1539
  271POPC   C1B 3682   7.030   5.228   6.141 -0.2908  0.1785 -0.2256
  271POPC   C2B 3683   7.103   4.860   6.289 -0.2863 -0.3229  0.3530
  271POPC   C3B 3684   6.924   4.542   6.423  0.1684 -0.0540 -0.1529
  271POPC   C4B 3685   6.674   4.072   6.514  0.0250  0.2912  0.1402
  272POPC   NC3 3686   2.554   5.259   4.277 -0.1933  0.2250 -0.1868
  272POPC   PO4 3687   2.718   5.006   4.564 -0.1270 -0.1912 -0.1252
  272POPC   GL1 3688   2.527   4.929   5.013 -0.0340  0.2103 -0.0034
  272POPC   GL2 3689   2.248   4.835   5.225 -0.3223  0.0583  0.1581
  272POPC   C1A 3690   2.675   4.824   5.417 -0.1689  0.0036  0.2226
  272POPC   D2A 3691   2.771   4.701   5.830 -0.0607  0.0363 -0.0147
  272POPC   C3A 3692   2.778   4.370   6.046 -0.2089 -0.0045 -0.4350
  272POPC   C4A 3693   2.513   4.203   5.746 -0.0865  0.2031  0.4170
  272POPC   C1B 3694   2.224   4.635   5.738 -0.0254 -0.0891  0.2133
  272POPC   C2B 3695   2.299   4.438   6.197  0.1114  0.1543  0.3532
  272POPC   C3B 3696   2.093   4.143   6.576 -0.3898  0.1633 -0.1939
  272POPC   C4B 3697   1.999   3.845   6.919 -0.2341  0.2957 -0.0978
  273POPC   NC3 3698   0.668   5.190   4.493 -0.0570 -0.0960 -0.0937
  273POPC   PO4 3699   0.308   4.815   4.589 -0.3156 -0.2067  0.2453
  273POPC   GL1 3700   0.437   4.600   4.938  0.3959  0.3291 -0.1464
  273POPC   GL2 3701   0.126   4.643   5.216  0.2352 -0.2740  0.1679
  273POPC   C1A 3702   0.675   4.308   5.136 -0.1734 -0.3089  0.1270
  273POPC   D2A 3703   1.056   4.244   4.927 -0.0516 -0.2074  0.0565
  273POPC   C3A 3704   1.221   3.954   5.216  0.0905  0.3295 -0.1464
  273POPC   C4A 3705   1.597   3.931   5.362 -0.0572 -0.1642  0.1146
  273POPC   C1B 3706   0.185   4.692   5.686  0.3321 -0.0098 -0.1329
  273POPC   C2B 3707   0.498   4.484   6.066  0.1287 -0.1479  0.1273
  273POPC   C3B 3708   0.328   4.093   6.323 -0.2077  0.1437  0.1115
  273POPC   C4B 3709  -0.001   4.034   6.742  0.0504  0.0217 -0.0411
  274POPC   NC3 3710   7.343   6.449   4.230 -0.1160  0.0109 -0.0250
  274POPC   PO4 3711   7.239   6.774   4.578 -0.2038  0.1484 -0.1556
  274POPC   GL1 3712   7.148   6.746   5.040 -0.3782 -0.1637 -0.0668
  274POPC   GL2 3713   7.002   6.921   5.187 -0.3131 -0.0274 -0.2819
  274POPC   C1A 3714   7.107   6.431   5.369  0.0831  0.1031 -0.4763
  274POPC   D2A 3715   6.949   6.084   5.642  0.5162  0.4740 -0.0562
  274POPC   C3A 3716   7.013   6.178   6.165  0.3235  0.1498 -0.0623
  274POPC   C4A 3717   6.963   6.479   6.483  0.0310 -0.2219 -0.0048
  274POPC   C1B 3718   6.686   6.646   5.481  0.1218  0.0720 -0.1240
  274POPC   C2B 3719   6.617   6.339   5.838  0.3584  0.2139  0.2625
  274POPC   C3B 3720   6.445   6.282   6.292 -0.0246  0.1608 -0.2161
  274POPC   C4B 3721   6.209   6.220   6.834  0.0645 -0.0644 -0.2986
  275POPC   NC3 3722   9.341   0.458   3.698 -0.0447 -0.2014  0.1019
  275POPC   PO4 3723   9.036   0.423   3.941  0.0293 -0.3055  0.0492
  275POPC   GL1 3724   9.264   0.590   4.317  0.0555  0.1638 -0.0489
  275POPC   GL2 3725   9.144   0.860   4.385  0.2501 -0.1009  0.0354
  275POPC   C1A 3726   9.480   0.478   4.693  0.1008  0.1910 -0.1247
  275POPC   D2A 3727   9.452   0.213   4.987  0.3189  0.1360  0.0468
  275POPC   C3A 3728   9.579  -0.198   5.265  0.5333 -0.2755 -0.1405
  275POPC   C4A 3729   9.644  -0.507   5.138 -0.0441 -0.2305 -0.3145
  275POPC   C1B 3730   9.553   0.948   4.559 -0.1268  0.1059  0.2818
  275POPC   C2B 3731   9.844   0.784   4.916  0.1070 -0.0238 -0.1399
  275POPC   C3B 3732   9.782   0.706   5.458  0.0842 -0.0019 -0.0157
  275POPC   C4B 3733   9.656   0.607   5.930 -0.4228  0.0540 -0.2659
  276POPC   NC3 3734   3.654   1.529   3.590  0.0819 -0.1232 -0.1363
  276POPC   PO4 3735   4.049   1.660   3.799 -0.2164 -0.3474 -0.1150
  276POPC   GL1 3736   4.110   1.726   4.229  0.0748 -0.0788  0.2100
  276POPC   GL2 3737   3.925   2.073   4.458 -0.0937 -0.0661 -0.0167
  276POPC   C1A 3738   3.909   1.500   4.636  0.2477 -0.0525  0.1264
  276POPC   D2A 3739   3.743   1.591   5.001 -0.1254 -0.2766  0.2660
  276POPC   C3A 3740   3.543   1.895   5.278 -0.1427 -0.0214  0.2487
  276POPC   C4A 3741   3.196   1.938   5.573  0.2425 -0.1874  0.5688
  276POPC   C1B 3742   3.558   1.982   4.755 -0.0374 -0.0849 -0.0976
  276POPC   C2B 3743   3.189   2.109   5.021  0.1437 -0.0141  0.4340
  276POPC   C3B 3744   2.828   2.178   4.868 -0.0106 -0.0639  0.1251
  276POPC   C4B 3745   2.590   2.420   4.889  0.3209 -0.2050  0.0268
  277POPC   NC3 3746   9.281   2.117   3.571 -0.3387  0.0140 -0.1438
  277POPC   PO4 3747   9.552   2.552   3.585 -0.1763 -0.2114 -0.0095
  277POPC   GL1 3748   9.666   2.297   3.938 -0.0592  0.2314 -0.2122
  277POPC   GL2 3749   9.794   1.978   4.061  0.1740 -0.1771  0.2863
  277POPC   C1A 3750   9.800   2.421   4.264  0.0228  0.1615  0.0548
  277POPC   D2A 3751   9.936   2.355   4.638 -0.2054  0.0492 -0.0938
  277POPC   C3A 3752  10.282   2.542   4.876 -0.3106 -0.3453  0.0410
  277POPC   C4A 3753  10.361   3.008   4.826 -0.0723  0.1897  0.0791
  277POPC   C1B 3754   9.687   1.976   4.483 -0.4138 -0.2554 -0.0103
  277POPC   C2B 3755   9.873   1.883   4.878 -0.2255 -0.0310  0.0160
  277POPC   C3B 3756   9.923   1.694   5.367 -0.3298  0.2927  0.2950
  277POPC   C4B 3757   9.746   1.378   5.546  0.1047 -0.0287 -0.0049
  278POPC   NC3 3758   5.181   9.436   4.356  0.0713  0.1710 -0.1332
  278POPC   PO4 3759   5.526   9.522   4.637  0.2761 -0.1098  0.1423
  278POPC   GL1 3760   5.535   9.510   5.123 -0.1033  0.0681 -0.0462
  278POPC   GL2 3761   5.280   9.671   5.369  0.4155  0.0643 -0.2190
  278POPC   C1A 3762   5.873   9.507   5.410  0.1297 -0.0090  0.0817
  278POPC   D2A 3763   6.139   9.637   5.702 -0.2495 -0.1828  0.0472
  278POPC   C3A 3764   5.857   9.782   6.078 -0.2631  0.0256  0.0033
  278POPC   C4A 3765   5.924   9.685   6.496  0.1644  0.1304 -0.1167
  278POPC   C1B 3766   5.320   9.555   5.767  0.0750 -0.0537 -0.1562
  278POPC   C2B 3767   5.441   9.282   6.151 -0.2005 -0.1754 -0.0862
  278POPC   C3B 3768   5.797   9.215   6.418 -0.0482  0.1211  0.0124
  278POPC   C4B 3769   6.138   8.934   6.374 -0.0752  0.0677 -0.1542
  279POPC   NC3 3770   2.027   9.836   3.694 -0.1261 -0.2004 -0.0200
  279POPC   PO4 3771   2.297   9.543   3.960  0.0935 -0.1500  0.1963
  279POPC   GL1 3772   2.482   9.744   4.349  0.2236 -0.0814 -0.0051
  279POPC   GL2 3773   2.815   9.891   4.444  0.3200 -0.2768 -0.0722
  279POPC   C1A 3774   2.300   9.673   4.754  0.0099 -0.1751 -0.0143
  279POPC   D2A 3775   1.857   9.742   5.020  0.2448 -0.1551 -0.1723
  279POPC   C3A 3776   1.778   9.708   5.524 -0.1235 -0.1640  0.3132
  279POPC   C4A 3777   2.004   9.606   5.896  0.3235  0.0622 -0.3236
  279POPC   C1B 3778   2.994  10.309   4.432  0.1273 -0.3718  0.0546
  279POPC   C2B 3779   2.826  10.668   4.703  0.0301  0.3789 -0.1725
  279POPC   C3B 3780   2.718  10.468   5.028 -0.1584 -0.0909  0.0009
  279POPC   C4B 3781   2.906  10.432   5.418 -0.1869 -0.4522 -0.2742
  280POPC   NC3 3782   8.959   7.325   4.947  0.4456 -0.2822  0.0841
  280POPC   PO4 3783   8.513   7.233   4.907  0.3302  0.1686  0.0945
  280POPC   GL1 3784   8.576   7.088   5.285 -0.2800 -0.0667 -0.3088
  280POPC   GL2 3785   8.823   6.885   5.304 -0.2149 -0.2454 -0.2017
  280POPC   C1A 3786   8.556   7.115   5.741 -0.2147  0.0937  0.1741
  280POPC   D2A 3787   8.729   6.962   6.210  0.0511 -0.0503  0.0116
  280POPC   C3A 3788   9.075   6.745   6.289 -0.0871  0.0503  0.1134
  280POPC   C4A 3789   9.460   6.417   6.351  0.3210 -0.3504 -0.3453
  280POPC   C1B 3790   8.980   6.739   5.667  0.1279 -0.0031 -0.1270
  280POPC   C2B 3791   9.316   6.466   5.928  0.0597 -0.1535 -0.0317
  280POPC   C3B 3792   9.347   6.077   6.023 -0.4120 -0.1424  0.1607
  280POPC   C4B 3793   9.611   5.618   6.076  0.0380  0.4285 -0.2009
  281POPC   NC3 3794   1.658   0.995   2.636  0.0295  0.1124 -0.0971
  281POPC   PO4 3795   1.652   0.959   3.069 -0.0607  0.1594 -0.0061
  281POPC   GL1 3796   1.575   0.928   3.442 -0.0226 -0.2978  0.3475
  281POPC   GL2 3797   1.914   0.856   3.532  0.1718  0.3307 -0.2178
  281POPC   C1A 3798   1.400   0.928   3.838  0.3767 -0.0061  0.1047
  281POPC   D2A 3799   1.183   1.224   4.111  0.0123 -0.1692  0.4470
  281POPC   C3A 3800   0.970   1.026   4.449  0.1500  0.4414  0.1151
  281POPC   C4A 3801   1.016   0.924   4.919 -0.1251  0.5490 -0.0441
  281POPC   C1B 3802   2.000   0.965   4.004  0.2006 -0.3142 -0.1710
  281POPC   C2B 3803   1.824   1.299   4.107  0.0978  0.2811  0.0962
  281POPC   C3B 3804   1.524   1.527   4.312  0.4794  0.3125 -0.1291
  281POPC   C4B 3805   1.469   1.817   4.679 -0.2112  0.0622  0.1563
  282POPC   NC3 3806   5.586   6.281   4.792  0.3146 -0.2578 -0.0528
  282POPC   PO4 3807   5.629   6.613   5.096 -0.1890 -0.3646 -0.2943
  282POPC   GL1 3808   5.521   6.760   5.546  0.0350  0.3898  0.2567
  282POPC   GL2 3809   5.760   6.885   5.690  0.0605  0.0848  0.0573
  282POPC   C1A 3810   5.350   6.807   5.965  0.3442  0.0045  0.1253
  282POPC   D2A 3811   5.292   6.885   6.418 -0.1641  0.1569  0.0558
  282POPC   C3A 3812   5.260   7.245   6.533 -0.0602  0.0977  0.0262
  282POPC   C4A 3813   5.477   7.562   6.426  0.1274  0.2042 -0.1293
  282POPC   C1B 3814   6.033   7.110   6.004  0.0629  0.0009 -0.2113
  282POPC   C2B 3815   5.970   7.477   6.321 -0.0707  0.0008  0.1467
  282POPC   C3B 3816   6.009   7.914   6.456  0.0893 -0.2629  0.1912
  282POPC   C4B 3817   5.780   8.274   6.759 -0.0666 -0.0094  0.1995
  283POPC   NC3 3818   3.262   6.024   4.220 -0.0137 -0.1618 -0.0167
  283POPC   PO4 3819   3.473   6.159   4.527  0.0831 -0.2303 -0.1369
  283POPC   GL1 3820   3.472   6.286   4.999 -0.1925  0.1695  0.1052
  283POPC   GL2 3821   3.430   6.608   4.838  0.0643  0.0252  0.2241
  283POPC   C1A 3822   3.300   6.289   5.354  0.0833  0.0013  0.1822
  283POPC   D2A 3823   2.949   6.049   5.460  0.0773 -0.2793 -0.2837
  283POPC   C3A 3824   2.865   6.064   5.844 -0.2511 -0.1808  0.3093
  283POPC   C4A 3825   2.732   6.145   6.238  0.1291 -0.0877 -0.0036
  283POPC   C1B 3826   3.645   6.636   5.261  0.3403 -0.0925 -0.0510
  283POPC   C2B 3827   3.591   6.589   5.666 -0.0033  0.2328  0.1903
  283POPC   C3B 3828   3.645   6.161   5.837  0.1420 -0.0977 -0.0045
  283POPC   C4B 3829   3.937   5.959   6.162  0.3469  0.0332  0.0165
  284POPC   NC3 3830   9.549   8.106   4.520  0.0639 -0.0686 -0.2734
  284POPC   PO4 3831   9.336   8.169   5.002  0.0273  0.0513  0.3681
  284POPC   GL1 3832   9.553   8.349   5.336 -0.1336 -0.2375 -0.1017
  284POPC   GL2 3833   9.948   8.449   5.311  0.0867  0.0418 -0.0330
  284POPC   C1A 3834   9.444   8.547   5.721 -0.2270  0.2011  0.0177
  284POPC   D2A 3835   9.608   8.620   6.151 -0.0601  0.3287  0.0729
  284POPC   C3A 3836   9.937   8.484   6.252 -0.0468 -0.1272 -0.1985
  284POPC   C4A 3837  10.344   8.334   6.112  0.0369 -0.0484  0.2832
  284POPC   C1B 3838  10.017   8.524   5.757  0.0857  0.0651  0.0535
  284POPC   C2B 3839  10.269   8.834   6.136 -0.2974  0.0674  0.0273
  284POPC   C3B 3840  10.227   8.959   6.609  0.1125  0.1825 -0.3620
  284POPC   C4B 3841  10.371   8.903   6.977 -0.0865  0.2524 -0.0396
  285POPC   NC3 3842   2.270   4.775   4.626 -0.5402  0.1673  0.3208
  285POPC   PO4 3843   2.600   4.529   4.540 -0.1532 -0.0288  0.1526
  285POPC   GL1 3844   2.535   4.294   4.913 -0.1739  0.0389  0.2660
  285POPC   GL2 3845   2.653   4.034   5.049 -0.1968 -0.1623 -0.1712
  285POPC   C1A 3846   2.277   4.350   5.279  0.1043 -0.1099 -0.2864
  285POPC   D2A 3847   2.045   4.091   5.641 -0.2588  0.0816  0.2562
  285POPC   C3A 3848   2.177   3.924   6.008 -0.1180  0.2006  0.1017
  285POPC   C4A 3849   1.881   3.637   6.363  0.0893 -0.0395  0.1141
  285POPC   C1B 3850   2.484   3.689   5.362  0.1464 -0.3861 -0.1764
  285POPC   C2B 3851   2.167   3.531   5.609 -0.0058 -0.1074  0.3546
  285POPC   C3B 3852   1.734   3.572   5.721 -0.2499 -0.1419  0.1129
  285POPC   C4B 3853   1.639   3.903   6.014  0.1023 -0.0924 -0.0697
  286POPC   NC3 3854   1.159   7.474   4.420 -0.2930  0.0317 -0.5054
  286POPC   PO4 3855   1.433   7.906   4.373 -0.0654  0.1771 -0.1703
  286POPC   GL1 3856   1.431   7.981   4.852  0.0254 -0.0719 -0.2570
  286POPC   GL2 3857   1.363   7.663   4.903  0.0835 -0.0797 -0.1386
  286POPC   C1A 3858   1.393   8.036   5.348  0.0262  0.1097  0.2485
  286POPC   D2A 3859   1.735   8.371   5.531 -0.0308 -0.1082  0.0054
  286POPC   C3A 3860   1.733   8.508   5.970  0.2285 -0.0168  0.1615
  286POPC   C4A 3861   1.506   8.545   6.383 -0.1612  0.1632 -0.2358
  286POPC   C1B 3862   1.689   7.483   5.192  0.0647  0.0445  0.0690
  286POPC   C2B 3863   1.685   7.278   5.615 -0.3013  0.3840  0.4327
  286POPC   C3B 3864   1.733   7.035   6.024  0.0652 -0.1097 -0.1570
  286POPC   C4B 3865   1.487   6.948   6.420 -0.2257 -0.1452  0.2913
  287POPC   NC3 3866   4.344   6.360   4.620  0.3548  0.4575  0.0102
  287POPC   PO4 3867   3.911   6.473   4.701 -0.2451 -0.0072  0.0295
  287POPC   GL1 3868   4.029   6.768   4.854  0.2871 -0.2037 -0.0708
  287POPC   GL2 3869   4.131   7.012   4.729 -0.0329  0.1052 -0.0459
  287POPC   C1A 3870   4.133   6.902   5.309 -0.2664 -0.0357  0.3376
  287POPC   D2A 3871   4.388   6.913   5.605 -0.0524 -0.3374 -0.1594
  287POPC   C3A 3872   4.305   7.045   5.946 -0.1069  0.2317  0.0645
  287POPC   C4A 3873   4.276   7.300   6.297  0.1165  0.0307  0.0540
  287POPC   C1B 3874   3.981   7.310   5.020  0.1049  0.1053  0.1825
  287POPC   C2B 3875   4.112   7.342   5.473 -0.4600 -0.1440  0.0314
  287POPC   C3B 3876   4.023   7.585   5.868  0.0635  0.3461  0.0124
  287POPC   C4B 3877   3.824   7.741   6.195 -0.1314 -0.2893  0.1579
  288POPC   NC3 3878   0.834   0.162   3.542 -0.0645  0.0396 -0.1722
  288POPC   PO4 3879   1.330   0.348   3.598 -0.1104 -0.0222  0.0826
  288POPC   GL1 3880   1.647   0.453   3.918 -0.1539  0.0322  0.1664
  288POPC   GL2 3881   1.952   0.438   3.894  0.1994  0.0911  0.1099
  288POPC   C1A 3882   1.678   0.338   4.296  0.0697  0.1966 -0.3449
  288POPC   D2A 3883   1.515   0.143   4.594 -0.1174 -0.1527 -0.2193
  288POPC   C3A 3884   1.487   0.166   5.022  0.0208  0.1163  0.1216
  288POPC   C4A 3885   1.474   0.255   5.509  0.1184 -0.2824 -0.0499
  288POPC   C1B 3886   2.159   0.411   4.260 -0.1773  0.0177 -0.1048
  288POPC   C2B 3887   2.455   0.357   4.646  0.0943 -0.1594  0.3239
  288POPC   C3B 3888   2.276   0.228   5.047  0.0500 -0.0585 -0.2260
  288POPC   C4B 3889   1.905   0.208   5.315  0.0686 -0.0643 -0.3283
  289POPC   NC3 3890   5.046   4.863   4.772  0.1017  0.0721  0.2374
  289POPC   PO4 3891   5.173   5.345   4.822 -0.2023  0.2419 -0.0009
  289POPC   GL1 3892   5.450   5.408   5.216  0.0908 -0.1620  0.2847
  289POPC   GL2 3893   5.778   5.146   5.242  0.0244 -0.0708 -0.1570
  289POPC   C1A 3894   5.580   5.534   5.636  0.0096 -0.1520  0.1308
  289POPC   D2A 3895   5.807   5.639   6.060  0.3047  0.1197  0.1754
  289POPC   C3A 3896   6.034   5.287   6.271  0.0206 -0.0984  0.1107
  289POPC   C4A 3897   6.348   4.958   6.377  0.1694  0.4118  0.4475
  289POPC   C1B 3898   5.773   4.987   5.738 -0.0882 -0.0152  0.1347
  289POPC   C2B 3899   5.529   5.138   6.057  0.0798 -0.1101  0.1436
  289POPC   C3B 3900   5.389   5.408   6.429 -0.1960  0.1452  0.1408
  289POPC   C4B 3901   5.454   5.734   6.772 -0.1588 -0.0322 -0.0506
  290POPC   NC3 3902   7.322   0.837   4.820  0.0393  0.0763  0.1947
  290POPC   PO4 3903   7.124   1.270   4.867 -0.0652 -0.1384  0.1111
  290POPC   GL1 3904   6.926   1.134   5.207 -0.0049  0.2753  0.3724
  290POPC   GL2 3905   7.287   0.917   5.322  0.0057 -0.1180 -0.3576
  290POPC   C1A 3906   6.498   0.916   5.341  0.0770 -0.2034  0.1029
  290POPC   D2A 3907   6.261   0.716   5.709 -0.4152  0.1707  0.3164
  290POPC   C3A 3908   6.574   0.624   6.081 -0.1624 -0.0251  0.2697
  290POPC   C4A 3909   6.731   0.162   6.207 -0.2290 -0.1667 -0.2557
  290POPC   C1B 3910   7.580   1.093   5.564 -0.0328  0.4957 -0.0704
  290POPC   C2B 3911   7.594   1.257   5.930  0.0636 -0.3392 -0.0669
  290POPC   C3B 3912   7.498   1.359   6.358  0.1085  0.3827  0.2602
  290POPC   C4B 3913   7.519   1.434   6.798 -0.0165  0.3063  0.1380
  291POPC   NC3 3914   4.661   5.212   4.724 -0.1441 -0.1102 -0.0911
  291POPC   PO4 3915   4.397   5.391   4.369 -0.1830  0.3579 -0.1026
  291POPC   GL1 3916   4.247   5.535   4.818 -0.3904  0.0788 -0.0432
  291POPC   GL2 3917   4.314   5.928   4.887 -0.3622  0.1619  0.2422
  291POPC   C1A 3918   4.426   5.657   5.261 -0.1309  0.0714 -0.1778
  291POPC   D2A 3919   4.605   5.716   5.677 -0.2361  0.1214  0.2787
  291POPC   C3A 3920   4.464   5.636   6.130 -0.1577 -0.2939 -0.1114
  291POPC   C4A 3921   4.670   5.593   6.464  0.4732  0.0546  0.1709
  291POPC   C1B 3922   3.998   6.011   5.254 -0.4196  0.1097 -0.0867
  291POPC   C2B 3923   4.007   6.201   5.538 -0.0468  0.1401 -0.2039
  291POPC   C3B 3924   4.083   6.556   5.815 -0.0752 -0.1570  0.4424
  291POPC   C4B 3925   3.892   6.720   6.100  0.2085  0.1380 -0.1640
  292POPC   NC3 3926   8.181   8.832   4.559  0.0734 -0.0666 -0.1628
  292POPC   PO4 3927   8.631   8.981   4.865  0.1755 -0.0733  0.0579
  292POPC   GL1 3928   8.753   8.913   5.296  0.1824  0.0001 -0.1091
  292POPC   GL2 3929   9.145   8.864   5.557  0.0567 -0.2098 -0.0536
  292POPC   C1A 3930   8.528   8.944   5.741 -0.0965 -0.0377 -0.0292
  292POPC   D2A 3931   8.479   8.660   6.073  0.1658 -0.1870 -0.0771
  292POPC   C3A 3932   8.630   8.248   6.322 -0.3392  0.1876  0.0201
  292POPC   C4A 3933   8.491   8.037   6.664  0.1370  0.0006 -0.4327
  292POPC   C1B 3934   9.222   9.040   5.967 -0.1154 -0.1058  0.1697
  292POPC   C2B 3935   9.330   8.993   6.344 -0.0732  0.1491 -0.0559
  292POPC   C3B 3936   9.347   9.231   6.762  0.2401  0.3208  0.1324
  292POPC   C4B 3937   9.350   9.059   7.144  0.0283  0.0502  0.1138
  293POPC   NC3 3938   4.804   8.014   4.178  0.3513 -0.2059 -0.1668
  293POPC   PO4 3939   5.098   8.159   4.467 -0.3308 -0.2531  0.2931
  293POPC   GL1 3940   5.002   8.239   4.941 -0.3832 -0.0076  0.2965
  293POPC   GL2 3941   4.889   8.559   4.958  0.0788 -0.0147 -0.0617
  293POPC   C1A 3942   4.824   8.237   5.417 -0.3922 -0.0121 -0.0498
  293POPC   D2A 3943   4.451   8.130   5.584 -0.1932 -0.3003  0.4522
  293POPC   C3A 3944   4.330   7.778   5.531 -0.0532 -0.0383  0.0466
  293POPC   C4A 3945   4.238   7.754   5.035 -0.0008 -0.2241 -0.0365
  293POPC   C1B 3946   5.157   8.603   5.327 -0.1980 -0.1967 -0.0413
  293POPC   C2B 3947   5.378   8.549   5.656 -0.0308 -0.1020  0.0424
  293POPC   C3B 3948   5.602   8.202   5.782 -0.1936 -0.1955  0.1548
  293POPC   C4B 3949   5.852   7.838   5.516  0.0492  0.2164 -0.0269
  294POPC   NC3 3950   0.494   3.006   3.194 -0.1286 -0.0574 -0.2767
  294POPC   PO4 3951   0.626   2.565   3.445 -0.1143  0.0150  0.3049
  294POPC   GL1 3952   0.707   2.562   3.838 -0.2413 -0.0438  0.2467
  294POPC   GL2 3953   0.790   2.866   4.023  0.1639  0.1272  0.1037
  294POPC   C1A 3954   0.937   2.495   4.298 -0.1124  0.0136  0.0077
  294POPC   D2A 3955   0.941   2.666   4.694 -0.0776 -0.1539 -0.0372
  294POPC   C3A 3956   0.995   2.370   4.930  0.1123  0.0142 -0.0705
  294POPC   C4A 3957   1.008   1.979   4.796 -0.3229  0.2301  0.2069
  294POPC   C1B 3958   0.868   3.089   4.420 -0.0375 -0.0087 -0.0767
  294POPC   C2B 3959   0.859   3.144   4.817  0.0037 -0.3490 -0.0530
  294POPC   C3B 3960   0.972   3.330   5.241 -0.2690  0.1545 -0.3643
  294POPC   C4B 3961   1.175   3.520   5.637  0.1311  0.2042  0.2266
  295POPC   NC3 3962   8.134   9.251   4.897  0.1862  0.2733 -0.1417
  295POPC   PO4 3963   8.462   9.437   4.712  0.2899  0.2559 -0.0076
  295POPC   GL1 3964   8.485   9.735   5.033  0.0848 -0.2553 -0.1781
  295POPC   GL2 3965   8.353  10.027   4.974 -0.1729  0.1227 -0.1991
  295POPC   C1A 3966   8.198   9.664   5.369 -0.1944  0.0461  0.0965
  295POPC   D2A 3967   8.022   9.737   5.802 -0.0490  0.0107  0.0423
  295POPC   C3A 3968   8.019  10.106   6.163  0.1567  0.2295 -0.0962
  295POPC   C4A 3969   7.962  10.448   6.421  0.2872 -0.0286 -0.0299
  295POPC   C1B 3970   8.552  10.037   5.392  0.2139 -0.1670  0.5876
  295POPC   C2B 3971   8.552   9.998   5.751  0.0921  0.2388 -0.0605
  295POPC   C3B 3972   8.433   9.903   6.130 -0.0533  0.5638  0.1200
  295POPC   C4B 3973   8.482  10.252   6.414  0.0242 -0.0228  0.3186
  296POPC   NC3 3974   8.552   8.122   4.679 -0.1651 -0.0585  0.0218
  296POPC   PO4 3975   8.787   7.842   4.838 -0.0223  0.0220 -0.0064
  296POPC   GL1 3976   8.821   8.021   5.297 -0.0419  0.2737 -0.1770
  296POPC   GL2 3977   8.815   7.970   5.640 -0.0438  0.0080  0.2853
  296POPC   C1A 3978   9.025   8.385   5.483 -0.3091  0.0918 -0.1812
  296POPC   D2A 3979   8.899   8.563   5.851 -0.1787  0.0135 -0.1805
  296POPC   C3A 3980   8.930   8.757   6.301  0.2274 -0.4545  0.0689
  296POPC   C4A 3981   9.126   8.665   6.677  0.0675 -0.2900 -0.3400
  296POPC   C1B 3982   8.912   7.823   6.040  0.0837  0.3280  0.2906
  296POPC   C2B 3983   9.252   7.696   6.354 -0.5199  0.3771  0.1261
  296POPC   C3B 3984   9.624   7.355   6.523  0.1469  0.0677  0.1164
  296POPC   C4B 3985   9.537   7.000   6.715 -0.0337 -0.0486 -0.0638
  297POPC   NC3 3986   1.783   4.625   4.465 -0.0240 -0.0966 -0.3015
  297POPC   PO4 3987   1.708   5.118   4.671 -0.0915 -0.3483  0.1038
  297POPC   GL1 3988   1.885   5.009   4.980  0.3633 -0.2061  0.1441
  297POPC   GL2 3989   1.852   4.754   4.953  0.2438 -0.1434 -0.1671
  297POPC   C1A 3990   1.886   5.173   5.488 -0.1095 -0.2643 -0.0927
  297POPC   D2A 3991   1.837   5.108   5.933 -0.1556 -0.0728 -0.1079
  297POPC   C3A 3992   1.877   4.737   6.029 -0.0435  0.2158  0.3170
  297POPC   C4A 3993   1.796   4.356   6.224  0.0895  0.1830 -0.2116
  297POPC   C1B 3994   1.795   4.553   5.412 -0.1558  0.0369  0.2151
  297POPC   C2B 3995   1.628   4.393   5.660 -0.0586  0.1002 -0.1642
  297POPC   C3B 3996   1.383   4.668   5.969 -0.0583 -0.0502 -0.2265
  297POPC   C4B 3997   1.437   4.954   6.331  0.4992  0.1477 -0.0535
  298POPC   NC3 3998   4.126   7.740   4.087 -0.0674  0.1475  0.1696
  298POPC   PO4 3999   4.300   7.988   4.393  0.1229  0.3816  0.3547
  298POPC   GL1 4000   4.109   8.181   4.827  0.0788 -0.0903 -0.0427
  298POPC   GL2 4001   3.784   8.372   4.970 -0.2068 -0.0281  0.0364
  298POPC   C1A 4002   4.052   8.184   5.317 -0.2888 -0.0253  0.3275
  298POPC   D2A 4003   4.038   8.081   5.816  0.0994  0.1078  0.0488
  298POPC   C3A 4004   3.955   8.257   6.179 -0.0226  0.0179  0.0214
  298POPC   C4A 4005   3.790   8.320   6.610  0.0540 -0.0559  0.2829
  298POPC   C1B 4006   3.794   8.720   5.332  0.2940  0.1309 -0.0952
  298POPC   C2B 4007   3.799   9.019   5.600 -0.3701  0.1841 -0.0044
  298POPC   C3B 4008   3.850   9.365   5.916  0.3812  0.0242 -0.0752
  298POPC   C4B 4009   3.514   9.557   6.025 -0.1136 -0.2736 -0.1109
  299POPC   NC3 4010   8.044   7.308   5.313  0.1511 -0.0420 -0.3979
  299POPC   PO4 4011   7.672   7.028   5.345 -0.1513  0.0096 -0.1930
  299POPC   GL1 4012   7.793   6.986   5.721 -0.2569 -0.1217 -0.2215
  299POPC   GL2 4013   8.069   7.197   5.765  0.0804 -0.2680  0.2110
  299POPC   C1A 4014   7.760   7.046   6.156  0.2922 -0.2926 -0.0914
  299POPC   D2A 4015   7.468   7.319   6.435  0.3232  0.5117 -0.1283
  299POPC   C3A 4016   7.306   7.468   6.877 -0.0566 -0.0890 -0.4147
  299POPC   C4A 4017   7.002   7.589   7.085  0.0217 -0.1966  0.1600
  299POPC   C1B 4018   8.323   7.253   6.184  0.0993 -0.0543 -0.1538
  299POPC   C2B 4019   8.692   7.476   6.288  0.0265  0.0784  0.1884
  299POPC   C3B 4020   8.870   7.702   6.605  0.1596 -0.0443  0.1361
  299POPC   C4B 4021   9.029   7.859   7.024  0.2559 -0.1696 -0.0127
  300POPC   NC3 4022   9.086   8.972   4.548  0.1404  0.0011 -0.2438
  300POPC   PO4 4023   9.371   8.615   4.575 -0.0644 -0.1590  0.5310
  300POPC   GL1 4024   9.541   8.958   4.809  0.1062 -0.2742 -0.2897
  300POPC   GL2 4025   9.811   8.928   4.805 -0.0042 -0.0788 -0.0093
  300POPC   C1A 4026   9.598   8.918   5.264  0.1483  0.1546  0.0579
  300POPC   D2A 4027   9.586   9.163   5.593  0.0386 -0.0564 -0.1328
  300POPC   C3A 4028   9.454   9.610   5.712 -0.2996 -0.1351 -0.1163
  300POPC   C4A 4029   9.587  10.000   5.948 -0.2185  0.3831 -0.0245
  300POPC   C1B 4030  10.029   9.092   5.271  0.1223 -0.0261 -0.1167
  300POPC   C2B 4031  10.040   9.011   5.760  0.2019 -0.2688 -0.0311
  300POPC   C3B 4032   9.808   9.109   6.145 -0.1810 -0.1738 -0.0547
  300POPC   C4B 4033   9.825   9.281   6.588  0.3981  0.1137  0.1105
  301POPC   NC3 4034   9.241   5.708   4.870  0.0697 -0.1095 -0.3459
  301POPC   PO4 4035   9.728   5.673   4.919 -0.1374 -0.0821  0.1553
  301POPC   GL1 4036  10.005   5.414   5.172  0.4088 -0.0415  0.4024
  301POPC   GL2 4037  10.090   5.647   5.241 -0.0994 -0.0015  0.0131
  301POPC   C1A 4038  10.113   5.293   5.649 -0.3374  0.0125 -0.1414
  301POPC   D2A 4039  10.532   5.254   5.833  0.0965  0.3398 -0.0315
  301POPC   C3A 4040  10.880   5.518   5.805 -0.3224 -0.2314 -0.1704
  301POPC   C4A 4041  10.953   5.961   5.770  0.2466 -0.1936 -0.0146
  301POPC   C1B 4042  10.035   6.114   5.310  0.0245  0.1564  0.1961
  301POPC   C2B 4043   9.972   6.519   5.495 -0.0876 -0.0658  0.0707
  301POPC   C3B 4044  10.001   6.895   5.345  0.0136 -0.0340  0.0785
  301POPC   C4B 4045   9.942   7.270   5.180 -0.0388  0.2060  0.0044
  302W        W 4046   7.442   6.625  11.703  0.0280 -0.0859 -0.2017
  303W        W 4047   2.059   9.874   0.809  0.0154  0.0989 -0.1253
  304W        W 4048   1.266   4.483  10.606 -0.1411 -0.1454 -0.2529
  305W        W 4049   9.047   9.247   0.803  0.1137  0.2596  0.0516
  306W        W 4050   2.040   8.727   2.588 -0.0195  0.2255 -0.0687
  307W        W 4051   3.053   3.246  11.791 -0.0027 -0.0010 -0.1528
  308W        W 4052   7.505   1.639  10.839  0.4344 -0.0262  0.1302
  309W        W 4053   8.483   9.305  11.890 -0.1011  0.0287  0.0379
  310W        W 4054   6.441   6.272   4.250 -0.0017  0.2160 -0.1018
  311W        W 4055   3.399   2.075   0.801 -0.1769  0.0264 -0.2321
  312W        W 4056   5.682   1.742   9.949  0.0026 -0.0086  0.1309
  313W        W 4057   1.090   7.579   9.929 -0.1069 -0.0151 -0.1387
  314W        W 4058   3.302   0.101   0.237 -0.1356 -0.0823  0.1258
  315W        W 4059   0.546   0.297   0.940 -0.2565  0.4637 -0.2697
  316W        W 4060   0.699   4.399   1.534 -0.0255  0.0381 -0.2218
  317W        W 4061   9.195   2.570  12.029  0.1569 -0.0475 -0.5554
  318W        W 4062   6.022   4.077  10.435  0.0353 -0.2501  0.2071
  319W        W 4063   1.441   9.130  10.979 -0.1154  0.0150  0.3154
  320W        W 4064   6.370   7.503   9.450 -0.0301  0.2211 -0.2181
  321W        W 4065   0.385   7.931  11.657  0.0066 -0.2545 -0.2595
  322W        W 4066   8.215   1.386   1.110 -0.0810 -0.2951 -0.2970
  323W        W 4067   9.429   7.143   3.962 -0.1998 -0.0446  0.0125
  324W        W 4068   5.838   7.919   0.250  0.1007 -0.0802  0.0057
  325W        W 4069   0.053   1.915   0.137  0.2792 -0.1140 -0.0782
  326W        W 4070   1.575   0.980   0.563  0.1002 -0.1237 -0.0634
  327W        W 4071   1.200   5.640   3.410 -0.3357  0.1135  0.2317
  328W        W 4072   5.533   5.386   1.524  0.3474 -0.0967  0.2120
  329W        W 4073   8.444   8.194   0.586 -0.0729 -0.2304 -0.1787
  330W        W 4074   2.538   0.008   3.871 -0.1443 -0.0420  0.0652
  331W        W 4075   6.485   4.862   3.610  0.1135  0.0310  0.1382
  332W        W 4076   9.473   0.805   2.845 -0.0570 -0.1642  0.3486
  333W        W 4077   8.697   2.574   2.895 -0.2852  0.0980  0.1968
  334W        W 4078   8.033   4.877   3.786  0.0402  0.3634 -0.1890
  335W        W 4079   7.212   9.058   1.441  0.0656  0.2031 -0.2904
  336W        W 4080   9.853   7.969   1.796  0.1067  0.0859  0.0010
  337W        W 4081   8.028   9.607   0.666 -0.0780  0.1953  0.2663
  338W        W 4082   7.803   7.255   3.623  0.1053 -0.0678  0.0588
  339W        W 4083   4.772   4.154   2.552 -0.2548 -0.1222  0.0669
  340W        W 4084   5.967   6.674   1.054 -0.0306  0.0325 -0.0177
  341W        W 4085   4.557   4.019  10.857  0.1360 -0.0325 -0.0153
  342W        W 4086   9.720   2.461  11.680 -0.0890 -0.4157 -0.0342
  343W        W 4087   9.347   4.697   9.167  0.0195  0.1982  0.1224
  344W        W 4088   1.982   9.640   9.981  0.1234 -0.0330  0.0669
  345W        W 4089   7.144   0.539  12.014 -0.1665 -0.0994  0.2104
  346W        W 4090   5.569   8.553   2.682 -0.2101 -0.1630  0.2284
  347W        W 4091   4.990   5.311   4.327  0.4131 -0.3126 -0.4614
  348W        W 4092   5.871   0.686   9.708  0.0693 -0.0052  0.1687
  349W        W 4093   5.525   6.316   2.033  0.2192  0.2270 -0.0347
  350W        W 4094   6.830   9.704   9.980  0.0743  0.1703 -0.0435
  351W        W 4095   6.740   5.763   1.390 -0.3456 -0.0021  0.0677
  352W        W 4096   9.716   5.835  12.433  0.4491  0.1697  0.0735
  353W        W 4097   6.638   4.760   2.547 -0.0376 -0.0886 -0.0349
  354W        W 4098   6.892   6.659   1.351  0.1613  0.1763 -0.0253
  355W        W 4099   6.366   4.925  11.852 -0.0995 -0.1240 -0.1079
  356W        W 4100   3.739   4.956   0.165  0.1690 -0.0941  0.4284
  357W        W 4101   8.405   2.708   1.568 -0.0312  0.2227  0.0022
  358W        W 4102   6.969   9.875   2.983  0.5455  0.2128  0.1680
  359W        W 4103   2.883   6.707   9.679 -0.0615 -0.2253 -0.1202
  360W        W 4104   7.040   5.512   4.529  0.0534 -0.1478 -0.0732
  361W        W 4105   0.943   8.841   3.184 -0.1843 -0.0741 -0.0567
  362W        W 4106   6.660   8.674   4.559 -0.0660 -0.1146 -0.3465
  363W        W 4107   4.610   2.102   1.602  0.0317  0.0690 -0.2409
  364W        W 4108   7.054   6.374  12.489 -0.4457 -0.4042 -0.1532
  365W        W 4109   1.621   6.035  12.347 -0.2720  0.1751 -0.1750
  366W        W 4110   6.179   2.424  11.781 -0.2711  0.0285  0.0261
  367W        W 4111   1.401   1.583   0.612  0.1086 -0.1043  0.2469
  368W        W 4112   1.710   6.297  10.865 -0.2379 -0.0365 -0.4978
  369W        W 4113   7.600   9.117   2.753 -0.2199  0.0523  0.0958
  370W        W 4114   5.823   0.590   1.625  0.1214 -0.1104  0.2293
  371W        W 4115   0.355   5.624   9.075 -0.0419  0.2954 -0.0430
  372W        W 4116   3.243   2.557  11.114 -0.1999  0.1622  0.2164
  373W        W 4117   9.529   9.606  10.315  0.2743 -0.1069  0.0888
  374W        W 4118   4.574   0.290  12.059  0.0218 -0.1216 -0.1226
  375W        W 4119   8.196   8.390  10.398 -0.0578  0.1994 -0.0472
  376W        W 4120   0.007   8.928  10.085 -0.0632  0.1842  0.1305
  377W        W 4121   3.644   8.432   4.544  0.1321  0.1508  0.0800
  378W        W 4122   6.264   3.853   9.489  0.0102 -0.0282 -0.0217
  379W        W 4123   3.524   1.572  11.365  0.0558 -0.1127  0.1865
  380W        W 4124   6.457   9.622   0.400  0.1202 -0.1948  0.2178
  381W        W 4125   1.446   6.313   1.300  0.4836  0.0989  0.1513
  382W        W 4126   2.392   9.662   0.477 -0.2291 -0.2513  0.1097
  383W        W 4127   1.930   1.480   1.398  0.0778 -0.0670  0.0221
  384W        W 4128   7.906   2.636  11.399 -0.0797  0.0670 -0.1279
  385W        W 4129   2.819   1.836   9.884  0.2815 -0.2270  0.1053
  386W        W 4130   0.911   8.176  12.388 -0.1497 -0.1826  0.1344
  387W        W 4131   0.002   1.265   9.305  0.1477 -0.0554 -0.0018
  388W        W 4132   4.101   9.317   4.561 -0.0956  0.1033 -0.3039
  389W        W 4133   3.553   3.211   9.588 -0.1470 -0.0182  0.2416
  390W        W 4134   3.391   7.155   0.811 -0.2713 -0.0047 -0.1135
  391W        W 4135   7.801   0.093   4.326  0.0124 -0.3764 -0.0033
  392W        W 4136   8.304   6.240   4.345 -0.1188 -0.0250  0.2694
  393W        W 4137   6.890   8.076   4.004 -0.2471 -0.1053  0.4249
  394W        W 4138   4.435   0.494   1.786  0.2081  0.0701  0.0085
  395W        W 4139   8.792   8.512  10.590 -0.2337  0.2703 -0.0417
  396W        W 4140   5.154   4.676  10.743  0.0418 -0.3800 -0.1283
  397W        W 4141   7.074   7.369   4.441  0.2125 -0.1006 -0.3284
  398W        W 4142   1.344   1.633  12.206  0.1029  0.3036 -0.0667
  399W        W 4143   7.145   0.886  10.367 -0.3164  0.1039  0.0296
  400W        W 4144   7.580   1.644   2.317 -0.1626  0.0114  0.0622
  401W        W 4145   0.506   3.850   1.633  0.0063  0.0385 -0.1647
  402W        W 4146   7.376   6.509   9.380 -0.2479  0.2091 -0.0121
  403W        W 4147   4.830   4.633   2.797 -0.2754 -0.2236  0.0573
  404W        W 4148   2.826   8.982   8.938  0.0751 -0.0606  0.2477
  405W        W 4149   6.303   6.060   2.839  0.2408  0.1082 -0.3177
  406W        W 4150   2.593   3.430  10.342 -0.2136  0.1914  0.0507
  407W        W 4151   6.165   2.461   1.286 -0.3150  0.3348 -0.0772
  408W        W 4152   6.298   5.642   1.775 -0.1424 -0.0199 -0.0619
  409W        W 4153   1.062   9.218  11.372  0.2089 -0.1080 -0.5121
  410W        W 4154   1.199   4.976  12.579 -0.0409 -0.1974  0.1291
  411W        W 4155   8.367   6.233   3.315 -0.2521  0.3070 -0.1787
  412W        W 4156   5.586   0.735  10.936  0.0270  0.0423 -0.6234
  413W        W 4157   7.610   1.333  12.866  0.3541  0.2381 -0.1406
  414W        W 4158   1.879   4.921   2.288 -0.1757  0.0837 -0.2695
  415W        W 4159   8.041   0.237  11.903 -0.0979 -0.0657  0.1823
  416W        W 4160   3.435   0.611   3.210 -0.2320 -0.1478 -0.0089
  417W        W 4161   0.577   9.459   9.409  0.1313 -0.2313 -0.0808
  418W        W 4162   6.345   3.467   4.266 -0.2039  0.1875 -0.1704
  419W        W 4163   0.930   0.636   1.838  0.0275 -0.2116  0.0535
  420W        W 4164   4.651   4.549   1.107  0.0941 -0.0454 -0.0016
  421W        W 4165   1.595   5.555   9.735  0.1052 -0.3299  0.1172
  422W        W 4166   3.721   9.700  12.194 -0.2239  0.0926  0.1170
  423W        W 4167   3.877   7.483   0.069 -0.2354 -0.1566  0.1678
  424W        W 4168   9.934   1.048  10.617  0.2842 -0.0927  0.1952
  425W        W 4169   8.873   7.653   1.612  0.0154 -0.0294  0.0026
  426W        W 4170   6.811   2.143   4.137 -0.0221 -0.0097 -0.0641
  427W        W 4171   7.484   5.360   0.753 -0.0279  0.0809  0.0532
  428W        W 4172   3.762   6.072   1.945 -0.4564  0.3724  0.0604
  429W        W 4173   3.861   2.123   2.535  0.3269  0.1735  0.1831
  430W        W 4174   7.843   0.447   3.120 -0.1904 -0.1995 -0.1301
  431W        W 4175   4.233   1.715  12.119 -0.1001  0.0570  0.0964
  432W        W 4176   6.818   4.160   2.853  0.0813  0.1879  0.1918
  433W        W 4177   8.578   8.954   0.912 -0.0178 -0.1520 -0.3751
  434W        W 4178   2.602   5.465   2.410 -0.0270  0.0021  0.0988
  435W        W 4179   0.596   7.198   2.516  0.1920 -0.0740 -0.0957
  436W        W 4180   9.923   7.331   0.056 -0.2075  0.0889 -0.1113
  437W        W 4181   8.996   4.646   0.320  0.0440 -0.2045 -0.0996
  438W        W 4182   1.424   8.486   1.563  0.4041 -0.4631  0.1272
  439W        W 4183   2.052   3.295  11.698  0.1894  0.0643  0.0162
  440W        W 4184   6.167   6.694   9.702 -0.1571 -0.0523  0.0910
  441W        W 4185   3.058   2.382   0.592  0.1598  0.1559 -0.1212
  442W        W 4186   7.285   1.559  10.390  0.3230 -0.0975 -0.1045
  443W        W 4187   7.897   8.837   4.087 -0.0127 -0.2420  0.3794
  444W        W 4188   9.572   7.427  12.040 -0.6249  0.0177 -0.0303
  445W        W 4189   6.827   5.223  11.380  0.0631  0.2667  0.2677
  446W        W 4190   7.049   9.787   0.820 -0.2302 -0.1336  0.4500
  447W        W 4191   4.556   9.109   1.242  0.0740 -0.0142 -0.0646
  448W        W 4192   6.131   6.245  11.740 -0.2451  0.2096  0.2307
  449W        W 4193   6.833   5.241   1.265 -0.0216  0.0395 -0.1404
  450W        W 4194   4.195   4.741   0.967 -0.1649 -0.0318 -0.0956
  451W        W 4195   4.119   1.751  10.390 -0.1359 -0.0604  0.0001
  452W        W 4196   3.805   9.866  10.182  0.1277 -0.3481  0.2548
  453W        W 4197   7.255   9.545  10.742 -0.3940 -0.1630  0.1072
  454W        W 4198   7.836   2.993   9.746  0.0498 -0.1880 -0.1847
  455W        W 4199   2.045   6.248  12.128  0.0202  0.1712 -0.0626
  456W        W 4200   1.312   7.324   2.126  0.2511  0.0316  0.2536
  457W        W 4201   9.827   6.430   4.993 -0.0849 -0.1591 -0.1011
  458W        W 4202   5.839   2.455   1.642  0.2179 -0.1050 -0.1728
  459W        W 4203   0.119   1.261   2.370  0.0159 -0.1709  0.0328
  460W        W 4204   9.239   0.442  10.655 -0.0206 -0.0889 -0.5277
  461W        W 4205   3.207   3.377  10.789  0.0954  0.0292 -0.3264
  462W        W 4206   4.021   0.559   1.504 -0.2399  0.0412 -0.1529
  463W        W 4207   5.260   6.772  10.395  0.1490  0.2804 -0.1706
  464W        W 4208   4.311   9.892   0.979 -0.2285  0.0031 -0.2382
  465W        W 4209   2.404   9.064   9.828 -0.0061 -0.0883  0.0697
  466W        W 4210   7.608   2.963  11.934 -0.4292  0.1749 -0.0326
  467W        W 4211   2.937   5.037  10.030 -0.2831 -0.1231  0.1426
  468W        W 4212   8.249   6.929   9.702  0.0109 -0.2591 -0.2916
  469W        W 4213   0.848   8.968   3.722 -0.2723  0.2702 -0.1179
  470W        W 4214   5.020   1.508  11.234  0.0820  0.0455  0.1927
  471W        W 4215   9.652   3.098  11.496 -0.2525 -0.0041  0.0271
  472W        W 4216   5.295   6.813   4.691  0.0259 -0.0639 -0.3192
  473W        W 4217   8.433   9.100   1.359  0.1660  0.1154  0.1336
  474W        W 4218   2.125   8.262  12.736 -0.2274 -0.0878 -0.0065
  475W        W 4219   9.726   4.519   1.477 -0.0747 -0.1916  0.0146
  476W        W 4220   3.043   8.070   8.836  0.0367  0.2790 -0.3732
  477W        W 4221   1.254   3.809   3.084  0.0935 -0.1814 -0.3237
  478W        W 4222   1.653   4.870   0.062  0.1809 -0.2570 -0.0631
  479W        W 4223   4.280   3.396  12.686 -0.3062 -0.0074 -0.1598
  480W        W 4224   5.720   4.373  10.050  0.2471  0.2026 -0.1746
  481W        W 4225   5.139   3.525  11.433 -0.0443 -0.0224 -0.3228
  482W        W 4226   3.331   3.336   8.651  0.2443 -0.2522 -0.2150
  483W        W 4227   0.886   4.239   0.265 -0.0303  0.1557 -0.0443
  484W        W 4228   9.877   4.080   1.271 -0.1815 -0.1657 -0.3339
  485W        W 4229   1.405   9.779   9.991 -0.0077 -0.2646 -0.1473
  486W        W 4230   1.122   0.116  12.382 -0.3705  0.1811 -0.0333
  487W        W 4231   1.410   5.755   4.007  0.2888  0.2362  0.0443
  488W        W 4232   2.513   1.153   2.222  0.1914  0.0994 -0.1857
  489W        W 4233   5.804   2.502  10.744 -0.0446 -0.2311 -0.0046
  490W        W 4234   9.431   4.202  10.730  0.2548  0.2574 -0.0825
  491W        W 4235   0.278   1.763   1.601  0.0850 -0.1547 -0.1914
  492W        W 4236   8.239   4.354   9.177  0.0421  0.3705  0.0593
  493W        W 4237   0.554   7.082  11.399 -0.1802 -0.0810  0.2911
  494W        W 4238   1.008   7.731  10.921 -0.0161  0.4114  0.3153
  495W        W 4239   9.913   0.373   2.863  0.0939 -0.3664 -0.0705
  496W        W 4240   8.282   3.302   0.266 -0.0304  0.3155  0.0241
  497W        W 4241   5.356   6.865   0.328  0.5319 -0.0797  0.0429
  498W        W 4242   2.570   4.737   2.809  0.0372  0.2225 -0.1081
  499W        W 4243   4.257   4.278  11.197  0.2882 -0.0254  0.0727
  500W        W 4244   1.853   8.307   3.174  0.0721 -0.0253 -0.0212
  501W        W 4245   2.878   8.245   8.430  0.0425 -0.2325 -0.0403
  502W        W 4246   5.794   2.660   0.281  0.2011  0.1083 -0.0692
  503W        W 4247   3.406   9.570   0.508  0.0767 -0.0761 -0.1782
  504W        W 4248   5.084   2.114   3.254 -0.1899  0.5267 -0.0042
  505W        W 4249   8.848   9.302   2.233 -0.1550  0.0701 -0.6023
  506W        W 4250   4.545   6.032   3.111 -0.1042  0.1154  0.2683
  507W        W 4251   3.525   3.765   9.432 -0.0765  0.1427  0.0064
  508W        W 4252   3.312   4.122   1.000  0.0517 -0.1948 -0.1381
  509W        W 4253   1.711   8.171  11.313  0.1903 -0.0568 -0.0019
  510W        W 4254   1.417   2.426   0.009  0.0733 -0.0469  0.0085
  511W        W 4255   4.614   5.684   3.468  0.1486 -0.1468  0.2889
  512W        W 4256   2.828   1.998  11.663 -0.1602 -0.2156  0.0211
  513W        W 4257   5.124   9.920   2.043  0.1070  0.0738 -0.0925
  514W        W 4258   4.102   3.577  11.640  0.1748  0.0559 -0.3032
  515W        W 4259   4.482   7.884   3.748 -0.1999 -0.0845  0.5887
  516W        W 4260   1.951   1.479  11.541 -0.1127 -0.0862 -0.1233
  517W        W 4261   2.422   7.176   1.859 -0.3261  0.0730  0.1912
  518W        W 4262   8.381   4.051   2.432 -0.0329 -0.2098  0.3153
  519W        W 4263   4.370   1.255   9.636 -0.0009  0.0108 -0.4042
  520W        W 4264   7.567   8.088   4.592 -0.0395  0.2463 -0.0206
  521W        W 4265   2.270   8.270   7.446  0.1196 -0.1471 -0.0430
  522W        W 4266   8.199   6.851   0.521 -0.2668  0.1324  0.4206
  523W        W 4267   6.107   6.132   0.293 -0.2631  0.0637  0.0750
  524W        W 4268   4.747   4.712   3.770  0.0972  0.0783  0.0511
  525W        W 4269   2.321   7.840   1.343 -0.0418 -0.1202  0.2275
  526W        W 4270   4.737   4.176   3.686 -0.0288  0.3117  0.1138
  527W        W 4271   0.185   3.172  10.089 -0.2548 -0.1948  0.1263
  528W        W 4272   6.885   0.422   1.622  0.1651 -0.0849  0.0089
  529W        W 4273   5.626   5.860   8.714 -0.2168  0.0844 -0.1422
  530W        W 4274   8.296   9.598   0.218 -0.3395  0.2120 -0.2004
  531W        W 4275   5.975   8.243   9.350 -0.0152 -0.0489  0.0455
  532W        W 4276   9.119   8.728   1.611 -0.1641 -0.1989  0.1603
  533W        W 4277   7.080   9.920  11.817 -0.1662 -0.0848  0.0489
  534W        W 4278   5.110   9.908   2.597  0.0930  0.0231 -0.1619
  535W        W 4279   9.500   1.344   0.287 -0.1454 -0.1666  0.2021
  536W        W 4280   8.004   3.363   4.460 -0.1303 -0.2374  0.1627
  537W        W 4281   7.038   0.051   3.825  0.0225  0.1233 -0.3084
  538W        W 4282   3.436   1.577   9.197  0.2047 -0.0711 -0.2862
  539W        W 4283   0.909   1.807  12.580 -0.0557 -0.0522  0.0174
  540W        W 4284   9.871   9.051   3.296  0.0935 -0.0146  0.0781
  541W        W 4285   4.721   0.586   3.234  0.0040 -0.1867 -0.1541
  542W        W 4286   3.379   5.322   0.329 -0.1016 -0.0324  0.2145
  543W        W 4287   5.062   3.832  10.478  0.0950  0.1078 -0.4821
  544W        W 4288   7.934   6.360  11.498  0.1957 -0.2736  0.0909
  545W        W 4289   2.577   4.807  11.329 -0.0503  0.0989  0.3199
  546W        W 4290   2.297   2.060   0.731 -0.0752  0.0781 -0.3510
  547W        W 4291   1.590   7.722   1.231 -0.1907 -0.0955 -0.1332
  548W        W 4292   0.828   6.634   1.213 -0.1425 -0.3404  0.0705
  549W        W 4293   1.056   6.166   0.923  0.1054  0.2781 -0.0343
  550W        W 4294   5.129   3.687   1.794  0.2494 -0.1081  0.2522
  551W        W 4295   5.054   6.104   1.918  0.0537 -0.0183 -0.2164
  552W        W 4296   3.424   3.507   1.023 -0.0020 -0.2106 -0.2398
  553W        W 4297   0.536   1.645   0.838  0.1770  0.1489  0.2331
  554W        W 4298   7.917   9.400  12.797  0.1103 -0.0155  0.0624
  555W        W 4299   1.806   6.024   3.071  0.2727  0.1927  0.1352
  556W        W 4300   0.527   4.356  12.819 -0.1699  0.3854 -0.0875
  557W        W 4301   0.340   3.238   9.158 -0.1531 -0.3618 -0.3193
  558W        W 4302   7.497   5.833   9.677 -0.0513  0.0703 -0.0142
  559W        W 4303   6.998   5.617   3.992 -0.0380 -0.2801 -0.1376
  560W        W 4304   5.399   5.284   2.113 -0.1991 -0.1222 -0.4300
  561W        W 4305   6.328   1.442   7.983 -0.4593  0.0621  0.3546
  562W        W 4306   3.112   7.519   3.444  0.2548 -0.2257  0.0796
  563W        W 4307   8.222   7.707  11.673 -0.0208 -0.0348  0.2629
  564W        W 4308   2.620   7.942  11.048  0.5142 -0.2518  0.2610
  565W        W 4309   9.535   8.106  12.721  0.2359  0.1565 -0.0759
  566W        W 4310   2.029   5.232   3.292 -0.0082 -0.2085 -0.1648
  567W        W 4311   9.123   2.533   3.200  0.1190 -0.0711 -0.3405
  568W        W 4312   6.331   7.061   0.227  0.0354 -0.1142  0.1177
  569W        W 4313   1.687   4.909  10.352  0.0701 -0.1233  0.0375
  570W        W 4314   8.344   4.888  11.860  0.0529 -0.0615 -0.0186
  571W        W 4315   7.022   6.166  10.542 -0.2983 -0.1098 -0.4316
  572W        W 4316   3.215   4.647   8.725  0.2334  0.0324 -0.3702
  573W        W 4317   4.026   8.037  12.821 -0.2131  0.0230 -0.0379
  574W        W 4318   8.746   5.724  11.580 -0.0183  0.0585 -0.1466
  575W        W 4319   1.464   8.125  10.835 -0.0642 -0.1197 -0.3908
  576W        W 4320   7.195   3.682  12.404 -0.0442  0.0349 -0.0066
  577W        W 4321   6.553   6.865  10.072 -0.0025 -0.3703  0.1868
  578W        W 4322   0.795   7.303   1.995 -0.0512 -0.1366 -0.2595
  579W        W 4323   5.214   3.623  10.916 -0.1934  0.0291  0.2095
  580W        W 4324   5.698   0.989   2.175 -0.4111  0.2434 -0.2307
  581W        W 4325   8.555   0.459  11.814 -0.1367  0.3261 -0.1340
  582W        W 4326   1.654   8.318   0.026 -0.0235 -0.1017 -0.0733
  583W        W 4327   5.663   2.169   3.511  0.1233 -0.0236  0.0420
  584W        W 4328   4.139   4.411  12.143  0.1770  0.1302 -0.1559
  585W        W 4329   1.753   0.480   2.713  0.1480  0.0276  0.3186
  586W        W 4330   4.224   8.499   8.508 -0.1069 -0.0361  0.1736
  587W        W 4331   5.249   7.842   9.134 -0.4304 -0.1870 -0.1005
  588W        W 4332   1.016   3.331  12.769  0.0034 -0.2467 -0.2470
  589W        W 4333   7.890   5.838   0.693  0.2352 -0.2216  0.1991
  590W        W 4334   4.553   0.843   0.769  0.2602  0.0345 -0.1226
  591W        W 4335   4.381   3.242   8.666 -0.4679  0.3477 -0.0398
  592W        W 4336   5.340   5.889   9.088  0.1527 -0.1335  0.1777
  593W        W 4337   6.392   6.284   8.731  0.0098  0.0829  0.2069
  594W        W 4338   3.060   8.692  11.735 -0.3949  0.0461 -0.0954
  595W        W 4339   3.349   1.988   0.306 -0.0603 -0.2120  0.2977
  596W        W 4340   8.605   0.149   3.972 -0.0811  0.2431  0.2253
  597W        W 4341   0.624   2.056   9.983  0.1057  0.1792 -0.2392
  598W        W 4342   2.746   8.675   0.209  0.4477  0.0663  0.3561
  599W        W 4343   1.763   8.901  10.530  0.0359  0.2018  0.4392
  600W        W 4344   8.752   5.705  12.526 -0.0242 -0.1750  0.2316
  601W        W 4345   3.525   3.920   3.842 -0.1459  0.2963 -0.1355
  602W        W 4346   8.691   4.566   9.474  0.5727 -0.2288  0.1589
  603W        W 4347   4.704   6.210   0.949  0.0354 -0.3797  0.0368
  604W        W 4348   0.562   3.651  11.552  0.2354 -0.3316 -0.1088
  605W        W 4349   1.633   5.961  11.845  0.0219  0.1111 -0.0619
  606W        W 4350   1.524   8.739   0.229  0.1683 -0.1521 -0.2752
  607W        W 4351   0.753   5.406   8.226  0.1068 -0.2058  0.1153
  608W        W 4352   9.491   6.173  10.668 -0.3130  0.0736 -0.1344
  609W        W 4353   5.860   4.845   2.742  0.3775  0.0183 -0.1312
  610W        W 4354   5.831   8.243   3.799  0.0874 -0.2281  0.2749
  611W        W 4355   1.363   6.098   9.903 -0.5609 -0.1398 -0.2120
  612W        W 4356   4.185   0.059  11.156  0.2193  0.0532 -0.0263
  613W        W 4357   6.543   5.908   0.961  0.2619  0.0428  0.1768
  614W        W 4358   4.979   2.982  10.163 -0.3113 -0.3584 -0.0483
  615W        W 4359   5.306   7.491  11.439 -0.2141 -0.1190 -0.0441
  616W        W 4360   2.174   8.506   3.573  0.2984  0.5667  0.2753
  617W        W 4361   3.725   8.297  12.527 -0.0294  0.0475  0.2796
  618W        W 4362   6.350   5.341   3.600 -0.0467  0.3237  0.0152
  619W        W 4363   1.423   5.872   2.690  0.0232 -0.1818  0.1192
  620W        W 4364   9.818   1.372  12.376 -0.1068  0.1727  0.2468
  621W        W 4365   0.048   2.265   9.917  0.0623  0.0521  0.0845
  622W        W 4366   7.920   4.213   2.601 -0.0569  0.0640 -0.1188
  623W        W 4367   1.121   8.769   9.797 -0.0092  0.1570 -0.2423
  624W        W 4368   9.869   6.097   1.789  0.0790 -0.0780  0.1162
  625W        W 4369   7.466   6.284  11.296 -0.0214  0.1461  0.1001
  626W        W 4370   4.291   2.648  11.064  0.3158  0.0883  0.0805
  627W        W 4371   7.460   9.687  12.088  0.0060 -0.0850  0.0441
  628W        W 4372   8.547   4.028   8.575 -0.2360 -0.2136 -0.0118
  629W        W 4373   5.236   3.381  10.256 -0.3557 -0.1486 -0.0776
  630W        W 4374   7.342   2.725   4.353 -0.1619 -0.1010 -0.0337
  631W        W 4375   1.801   8.118   1.406  0.0501 -0.0255 -0.1425
  632W        W 4376   7.173   6.090   9.457 -0.0917 -0.1053 -0.0473
  633W        W 4377   9.859   0.738  11.797 -0.3499  0.0895  0.1438
  634W        W 4378   6.189   5.736  10.674  0.2428 -0.0897  0.1203
  635W        W 4379   2.013   9.283  10.331  0.1958  0.0672  0.0224
  636W        W 4380   7.555   3.137  10.540  0.2490  0.2251 -0.2506
  637W        W 4381   4.263   1.271   2.023  0.1743 -0.0971  0.0443
  638W        W 4382   8.781   8.511   0.790  0.0295  0.2073  0.2350
  639W        W 4383   1.825   0.981  10.668 -0.4682 -0.1420 -0.2590
  640W        W 4384   8.524   4.612   4.467 -0.1611 -0.2328 -0.2071
  641W        W 4385   0.765   0.638   9.866  0.2412  0.3225  0.0921
  642W        W 4386   7.655   3.736   0.824 -0.0655 -0.1478  0.0867
  643W        W 4387   4.330   9.604   3.738  0.4739 -0.1599  0.2287
  644W        W 4388   3.445   4.632   9.152 -0.1471  0.0049 -0.0936
  645W        W 4389   3.332   7.041  12.797 -0.1706  0.0456  0.3387
  646W        W 4390   6.958   8.279  12.736 -0.1332 -0.0257 -0.2663
  647W        W 4391   0.813   5.602  10.444  0.0228  0.0028  0.0594
  648W        W 4392   0.217   8.933   2.026 -0.0711  0.0173  0.3169
  649W        W 4393   0.912   6.307  12.698 -0.0032  0.2126  0.1488
  650W        W 4394   2.044   3.787  11.563  0.3452 -0.2753  0.2292
  651W        W 4395   2.157   8.008   3.406 -0.0678  0.1271  0.1538
  652W        W 4396   3.467   4.632   9.829 -0.3533  0.1319 -0.1706
  653W        W 4397   1.961   8.123  11.831  0.1201 -0.0462  0.1003
  654W        W 4398   3.148   1.404   0.246  0.0565 -0.0124 -0.2437
  655W        W 4399   6.526   6.430   8.276 -0.1667  0.3099  0.0166
  656W        W 4400   6.784   0.603   0.666  0.3167  0.0782  0.0494
  657W        W 4401   2.011   3.130   3.987  0.3158  0.3120 -0.5808
  658W        W 4402   7.931   5.253  11.678 -0.1077  0.0315  0.0470
  659W        W 4403   2.984   4.432   9.196  0.0055  0.2411 -0.1095
  660W        W 4404   0.181   8.596   0.162  0.1040  0.1344 -0.0879
  661W        W 4405   2.265   8.043  12.298  0.1860 -0.2207 -0.2435
  662W        W 4406   6.005   6.519  10.838  0.2877  0.0641 -0.0357
  663W        W 4407   6.999   6.779   4.135  0.0329  0.0362 -0.3195
  664W        W 4408   1.929   4.485   0.957  0.0269 -0.0744 -0.0442
  665W        W 4409   2.629   1.290   1.433  0.1678  0.0543  0.2804
  666W        W 4410   7.539   4.002   4.062 -0.0583  0.1781  0.1680
  667W        W 4411   8.878   1.855  10.239  0.1472 -0.1984  0.2284
  668W        W 4412   4.263   3.758   3.049 -0.1426  0.3071 -0.2696
  669W        W 4413   9.230   8.334  12.236 -0.1522 -0.2779  0.4821
  670W        W 4414   0.969   6.766  12.611  0.1163  0.1474  0.0390
  671W        W 4415   7.471   5.573   0.284  0.2296 -0.0803 -0.0868
  672W        W 4416   3.515   7.983   9.186 -0.1761 -0.1839 -0.1000
  673W        W 4417   9.835   0.540   4.041  0.0264 -0.0384 -0.0596
  674W        W 4418   8.531   0.119   1.229  0.0583 -0.0503  0.2545
  675W        W 4419   4.975   1.205   0.331 -0.2999  0.1134 -0.1245
  676W        W 4420   9.895   7.023   1.809  0.0277  0.1558  0.1091
  677W        W 4421   5.050   6.987  11.938 -0.1161  0.1568  0.1031
  678W        W 4422   2.422   5.678   4.075  0.0573 -0.0159  0.0191
  679W        W 4423   4.848   0.904   3.588  0.0525 -0.0106  0.2106
  680W        W 4424   1.915   8.584   4.067  0.0799 -0.0673  0.2660
  681W        W 4425   5.863   8.766  12.493  0.0128 -0.1015 -0.0841
  682W        W 4426   3.884   1.877  11.217  0.1790 -0.2517 -0.0039
  683W        W 4427   6.628   8.868   3.034 -0.1128  0.1155 -0.2659
  684W        W 4428   7.863   3.958  10.862  0.1681 -0.2136  0.1946
  685W        W 4429   5.337   2.918  12.768 -0.1346  0.0047 -0.1345
  686W        W 4430   2.558   5.116  10.884 -0.0385 -0.0675  0.1586
  687W        W 4431   4.530   8.933   4.458  0.1879  0.0235 -0.2629
  688W        W 4432   4.724   1.619   0.233  0.0277 -0.0275  0.0935
  689W        W 4433   1.032   1.411   2.422  0.1251 -0.0403  0.0571
  690W        W 4434   6.228   7.202   1.232  0.1441  0.0866 -0.0636
  691W        W 4435   6.987   4.328  10.706  0.3258 -0.3697 -0.0731
  692W        W 4436   8.850   3.127   8.797  0.6185  0.3388 -0.2767
  693W        W 4437   9.806   7.916   3.954  0.0654 -0.4071 -0.2295
  694W        W 4438   9.324   5.337   4.145  0.0598  0.3026 -0.0151
  695W        W 4439   1.160   5.502  12.281 -0.0494  0.2729  0.0391
  696W        W 4440   1.222   6.944   0.483 -0.1353 -0.3418  0.1555
  697W        W 4441   7.905   3.568   1.689  0.1816 -0.0270 -0.1003
  698W        W 4442   3.264   8.473   9.190  0.1096  0.1538 -0.1565
  699W        W 4443   0.810   0.301  12.742  0.4870 -0.0441  0.1451
  700W        W 4444   1.693   8.164   1.874  0.0905 -0.1816  0.0455
  701W        W 4445   9.782   2.636   1.197  0.0923 -0.0362  0.2465
  702W        W 4446   0.255   5.517   3.137 -0.0442 -0.0278 -0.1470
  703W        W 4447   8.440   9.926   9.191  0.2558  0.1621 -0.0483
  704W        W 4448   7.049   1.089  12.796  0.0930 -0.1940  0.1034
  705W        W 4449   5.600   9.705   2.464  0.0727  0.0451  0.2286
  706W        W 4450   3.537   1.239   9.715 -0.0545  0.1631 -0.2900
  707W        W 4451   4.442   5.400   2.420 -0.0235  0.0163 -0.3457
  708W        W 4452   9.757   4.008   1.736  0.0718  0.1407 -0.2750
  709W        W 4453   4.481   8.477   4.089 -0.0780  0.3717 -0.1020
  710W        W 4454   4.301   8.372   3.197  0.0351 -0.2513  0.2233
  711W        W 4455   3.796   3.948   2.033 -0.3036  0.0521  0.1819
  712W        W 4456   4.460   6.254   0.097 -0.1230 -0.2791 -0.1676
  713W        W 4457   9.030   1.132   9.735 -0.1213  0.0857 -0.4061
  714W        W 4458   3.660   4.336   2.455 -0.2025  0.1890  0.0141
  715W        W 4459   6.469   3.306   2.802 -0.0020  0.0111  0.0798
  716W        W 4460   0.732   6.687   9.636 -0.1265 -0.3237  0.2828
  717W        W 4461   0.855   9.875  10.846  0.5346  0.3119  0.0583
  718W        W 4462   4.376   7.070   3.839 -0.2302 -0.0156  0.2738
  719W        W 4463   5.239   3.168  11.022  0.1542  0.1926  0.0763
  720W        W 4464   8.869   0.072   3.505  0.0752 -0.0986  0.2567
  721W        W 4465   1.029   8.732   4.160 -0.0253 -0.0193  0.0168
  722W        W 4466   9.941   5.286  12.187 -0.1889  0.0610 -0.3477
  723W        W 4467   6.689   7.478   1.338 -0.3520  0.2262 -0.2098
  724W        W 4468   0.571   9.422   2.014  0.0180  0.3651  0.0286
  725W        W 4469   2.514   7.369   2.690 -0.0915  0.2521  0.0899
  726W        W 4470   6.458   4.409   3.313 -0.1787 -0.0935 -0.1846
  727W        W 4471   2.809   6.422   9.111  0.0773 -0.0715 -0.0668
  728W        W 4472   4.828   6.625  11.606  0.1003 -0.0736 -0.0087
  729W        W 4473   8.201   6.828   2.670  0.1045 -0.0636 -0.1795
  730W        W 4474   0.525   8.006   0.795 -0.0081 -0.1949 -0.2434
  731W        W 4475   7.321   7.437   2.901 -0.3759  0.1450 -0.5141
  732W        W 4476   8.620   7.806   0.165  0.1404 -0.0012  0.2403
  733W        W 4477   7.093   7.768   2.594 -0.1951 -0.0052  0.2447
  734W        W 4478   9.166   3.229   0.346 -0.0553  0.1921  0.0969
  735W        W 4479   1.064   1.212   1.916  0.0071 -0.0261 -0.1874
  736W        W 4480   4.094   4.641   0.408  0.0951 -0.1967 -0.0267
  737W        W 4481   6.369   9.571  12.242 -0.1340 -0.1739  0.0887
  738W        W 4482   7.723   8.339   1.073 -0.2310 -0.1523  0.0271
  739W        W 4483   8.616   3.302   4.114 -0.0300  0.0829  0.1875
  740W        W 4484   0.925   2.795   2.825 -0.2312  0.0406  0.0191
  741W        W 4485   2.897   9.126  10.564 -0.1678  0.3164 -0.0568
  742W        W 4486   3.535   3.118   0.662  0.1069 -0.0374 -0.2633
  743W        W 4487   3.740   2.882   2.799  0.0610 -0.1764 -0.0776
  744W        W 4488   9.611   7.490   4.414  0.0947 -0.3281 -0.3398
  745W        W 4489   8.138   4.272   0.419 -0.2430 -0.0796 -0.1399
  746W        W 4490   8.304   2.405   0.806 -0.1760 -0.3939 -0.0685
  747W        W 4491   5.088   6.031   4.157  0.1931  0.2185 -0.2139
  748W        W 4492   9.251   5.092  10.120 -0.4544 -0.3836 -0.1342
  749W        W 4493   2.557   2.445  12.326 -0.2294  0.1436 -0.1335
  750W        W 4494   0.273   9.492   3.252 -0.1393  0.0470 -0.0455
  751W        W 4495   5.445   8.490   9.942  0.0366  0.0374  0.0103
  752W        W 4496   4.159   7.211   8.055  0.2771 -0.3241 -0.0958
  753W        W 4497   3.448   2.688   0.874 -0.3979 -0.0115  0.2673
  754W        W 4498   7.730   2.420  10.590  0.1460  0.0570 -0.0542
  755W        W 4499   5.116   0.947  11.052 -0.1474 -0.0238 -0.2758
  756W        W 4500   1.978   5.100  12.416  0.0075  0.0957  0.1648
  757W        W 4501   1.517   7.140   1.174 -0.0896  0.0404 -0.2360
  758W        W 4502   4.327   0.859  12.628  0.1763 -0.0564 -0.1489
  759W        W 4503   2.437   9.612   3.159 -0.0207 -0.0327 -0.2293
  760W        W 4504   7.361   9.330   9.659  0.1002 -0.2141 -0.2795
  761W        W 4505   5.591   6.705   9.580 -0.1624 -0.0605  0.0471
  762W        W 4506   5.657   0.576   9.156 -0.0650 -0.0210 -0.1625
  763W        W 4507   8.178   0.909  10.586  0.4292 -0.1826  0.0415
  764W        W 4508   6.636   9.594   3.733  0.0043 -0.0762  0.1765
  765W        W 4509   4.441   1.527   8.250  0.3807 -0.1349  0.6181
  766W        W 4510   3.781   4.511   4.024  0.0719  0.0992  0.0839
  767W        W 4511   4.290   4.603  10.300  0.0002  0.0854 -0.1013
  768W        W 4512   1.189   6.417   2.784  0.0170 -0.0062  0.0430
  769W        W 4513   3.742   7.217   1.987  0.3096 -0.0442 -0.1592
  770W        W 4514   1.587   0.384  11.794 -0.0481 -0.0689  0.1299
  771W        W 4515   3.790   6.761  11.421  0.0931 -0.1956 -0.1149
  772W        W 4516   3.450   6.676   0.639  0.2839  0.0700 -0.1209
  773W        W 4517   3.576   5.790   0.131  0.1728 -0.2989 -0.0759
  774W        W 4518   6.543   7.012   1.563  0.2251 -0.2971 -0.2588
  775W        W 4519   1.859   9.048   3.230  0.0811 -0.2992  0.4720
  776W        W 4520   8.355   7.263  11.307 -0.1726  0.1220 -0.1447
  777W        W 4521   5.065   7.587   4.254 -0.1259  0.0334 -0.0514
  778W        W 4522   0.098   6.909  12.743 -0.0606  0.2189  0.0638
  779W        W 4523   2.029   5.039  10.733 -0.1967  0.2883  0.2723
  780W        W 4524   1.036   9.083  10.212 -0.1038  0.0162 -0.0065
  781W        W 4525   5.304   6.594   8.701  0.3378  0.0708  0.1666
  782W        W 4526   3.205   7.216  10.586 -0.0827 -0.1302  0.1324
  783W        W 4527   2.213   5.148   1.387  0.0721  0.0183 -0.1981
  784W        W 4528   3.279   8.965   3.096  0.1179 -0.2387 -0.0503
  785W        W 4529   2.307   4.574   3.615 -0.0345 -0.0756  0.0125
  786W        W 4530   7.341   3.656   2.543 -0.0204  0.1149 -0.1735
  787W        W 4531   8.692   7.792  11.334 -0.0605  0.2327  0.1697
  788W        W 4532   7.643   7.410   9.617 -0.1449 -0.1456 -0.0453
  789W        W 4533   2.291   8.491   0.684  0.0751 -0.1206 -0.0922
  790W        W 4534   2.455   8.234   3.008  0.0391  0.0164 -0.1015
  791W        W 4535   9.893   9.595   1.177 -0.4188 -0.1787  0.0168
  792W        W 4536   2.632   9.273   8.536 -0.1286  0.2231 -0.0752
  793W        W 4537   9.217   2.214  10.462  0.0047  0.3135 -0.1336
  794W        W 4538   7.212   7.783   9.259  0.2020 -0.0943 -0.1867
  795W        W 4539   1.050   1.067   0.524 -0.3214 -0.3638  0.2464
  796W        W 4540   6.976   1.850   3.212 -0.0193  0.1777 -0.0871
  797W        W 4541   7.258   8.092   9.644 -0.0985  0.0110 -0.0087
  798W        W 4542   5.570   5.796  11.195  0.1844  0.0086  0.0336
  799W        W 4543   9.394   0.811   0.790 -0.0216 -0.0641 -0.0778
  800W        W 4544   8.680   4.262   1.771 -0.1829 -0.1421  0.2146
  801W        W 4545   0.071   8.085   2.328 -0.1228 -0.1719 -0.2771
  802W        W 4546   1.948   7.686   0.547 -0.3349 -0.2886 -0.0764
  803W        W 4547   8.905   7.916  12.163  0.3282 -0.1633 -0.4434
  804W        W 4548   5.105   1.708   4.650 -0.1433 -0.1635  0.0073
  805W        W 4549   7.496   2.212   2.207 -0.1291 -0.2261 -0.0031
  806W        W 4550   8.451   7.752   1.412 -0.2145  0.0216  0.1494
  807W        W 4551   0.864   3.806  12.748 -0.1178 -0.0789 -0.1260
  808W        W 4552   8.184   5.392   1.540 -0.1202 -0.4401  0.0616
  809W        W 4553   9.108   0.354   3.204 -0.1023  0.3165  0.3474
  810W        W 4554   9.041   6.237   3.061  0.2698  0.2284  0.1070
  811W        W 4555   9.181   5.984  11.773  0.0044 -0.0716  0.0161
  812W        W 4556   2.627   9.097   1.689  0.2049 -0.1406 -0.2062
  813W        W 4557   2.190   3.920  12.541  0.2673  0.0491  0.1766
  814W        W 4558   7.912   9.327   3.867 -0.0526 -0.3514  0.2465
  815W        W 4559   9.650   6.844   9.727  0.0208 -0.1626 -0.0426
  816W        W 4560   2.012   1.968   1.443 -0.1591 -0.3875 -0.1709
  817W        W 4561   8.680   6.603   2.920 -0.0364 -0.0655  0.1165
  818W        W 4562   3.824   8.264   9.428  0.2694 -0.0416  0.2005
  819W        W 4563   0.630   4.773  12.595  0.2588  0.0921  0.0591
  820W        W 4564   3.657   6.220   0.355  0.2804 -0.1283  0.2931
  821W        W 4565   0.877   4.310   4.045  0.0521 -0.1791  0.0699
  822W        W 4566   4.557   0.926   0.288  0.1668 -0.2863 -0.2408
  823W        W 4567   7.984   0.402   1.987 -0.1071  0.0416 -0.2795
  824W        W 4568   9.427   9.905   9.201 -0.3140  0.1488  0.0247
  825W        W 4569   5.131   7.623   1.809 -0.1513  0.0550  0.0259
  826W        W 4570   1.281   6.289   4.664 -0.1240  0.0186  0.0515
  827W        W 4571   0.272   1.899  10.262  0.2632  0.1601 -0.1126
  828W        W 4572   4.322   6.136  12.539 -0.2682  0.0954 -0.0978
  829W        W 4573   9.861   0.967  11.092  0.0138  0.3344  0.0170
  830W        W 4574   8.673   4.610   0.982  0.1197 -0.1673 -0.0047
  831W        W 4575   2.318   8.890   2.133 -0.2114 -0.0313  0.1286
  832W        W 4576   6.733   1.050   0.316 -0.1648  0.2397 -0.4405
  833W        W 4577   6.982   4.780  10.547  0.0016 -0.1988  0.0597
  834W        W 4578   3.158   6.825  11.509 -0.0651 -0.0937  0.0935
  835W        W 4579   5.541   3.770   0.777  0.0525 -0.2277  0.2404
  836W        W 4580   9.788   8.911   3.819  0.0846  0.1510 -0.2985
  837W        W 4581   1.953   9.233   0.203  0.0122  0.0328 -0.1219
  838W        W 4582   6.692   2.070   9.374 -0.0355  0.0073 -0.0803
  839W        W 4583   0.676   3.423   0.289  0.2844 -0.2189 -0.2137
  840W        W 4584   4.744   3.162   9.119  0.1454 -0.0598 -0.0085
  841W        W 4585   4.500   4.235  12.478 -0.0644 -0.1132  0.2092
  842W        W 4586   6.989   2.868   1.795 -0.2514  0.0980  0.4618
  843W        W 4587   8.028   4.479   4.258  0.1034 -0.1673  0.0107
  844W        W 4588   2.520   6.270   0.812  0.1327 -0.2573 -0.0785
  845W        W 4589   9.717   7.414   1.069 -0.4305 -0.1884  0.2253
  846W        W 4590   6.458   4.587   5.104  0.0107  0.1868 -0.2372
  847W        W 4591   6.883   9.090   2.301  0.1113  0.2763  0.2900
  848W        W 4592   2.875   6.672   4.700 -0.0938 -0.3712  0.1543
  849W        W 4593   6.846   3.476   4.048  0.0108  0.0069 -0.0375
  850W        W 4594   6.173   4.522  11.389 -0.1033 -0.0097  0.1123
  851W        W 4595   1.855   5.492   1.745 -0.1771  0.0978  0.2160
  852W        W 4596   9.447   0.807   9.867  0.1852  0.0433  0.0185
  853W        W 4597   0.612   8.869   0.217  0.3000  0.0761  0.0210
  854W        W 4598   9.528   5.551   2.057  0.1685 -0.0766 -0.0411
  855W        W 4599   5.712   3.505   0.369  0.0463 -0.0639  0.1151
  856W        W 4600   9.780   2.979   1.569  0.3343 -0.0443  0.2565
  857W        W 4601   2.868   2.530   9.737  0.0520 -0.0635  0.0318
  858W        W 4602   6.266   0.959   2.480  0.1235 -0.1840 -0.0499
  859W        W 4603   0.829   0.799   9.111 -0.1559 -0.2190 -0.1830
  860W        W 4604   4.327   7.749   8.126  0.0947 -0.0612 -0.0847
  861W        W 4605   6.053   7.986   3.179 -0.1051  0.1819  0.2011
  862W        W 4606   4.346   0.735   9.286  0.1903 -0.2066 -0.1025
  863W        W 4607   5.956   2.404  12.264  0.1739  0.2277 -0.1587
  864W        W 4608   5.377   4.379   3.145 -0.0620  0.1084  0.0234
  865W        W 4609   8.770   0.440   4.379 -0.2898  0.3692  0.1107
  866W        W 4610   4.805   4.047   0.766  0.0372  0.1723  0.1459
  867W        W 4611   8.538   9.277  10.314 -0.2958 -0.1090  0.1918
  868W        W 4612   0.559   9.313   1.503  0.0747  0.0498 -0.1277
  869W        W 4613   4.095   0.717   1.053  0.1506  0.0872 -0.1277
  870W        W 4614   2.240   5.493  10.690 -0.1121  0.0237  0.2430
  871W        W 4615   6.351   8.649  10.494 -0.0014  0.1131 -0.1189
  872W        W 4616   5.465   3.438   4.219  0.1280  0.2355  0.0683
  873W        W 4617   2.292   3.041   0.085 -0.0487 -0.0085  0.0188
  874W        W 4618   1.222   7.855   0.179 -0.0597 -0.0032  0.0108
  875W        W 4619   3.269   4.199   9.560  0.0664  0.2237  0.0165
  876W        W 4620   7.801   6.363   4.425  0.1446 -0.2474  0.1941
  877W        W 4621   2.070   0.047   9.557 -0.0878  0.0990 -0.2921
  878W        W 4622   3.602   1.812   1.696 -0.2862  0.0005 -0.1989
  879W        W 4623   1.821   3.273   0.252 -0.0403 -0.4723  0.0850
  880W        W 4624   8.345   2.164   2.254 -0.2629  0.2485  0.1158
  881W        W 4625   2.750   1.186  10.760 -0.2242  0.1634 -0.2982
  882W        W 4626   8.781   3.110   0.696 -0.0611 -0.1883  0.0728
  883W        W 4627   4.484   5.434   9.794 -0.0335 -0.1427  0.1209
  884W        W 4628   5.350   6.414  12.492  0.0694 -0.0280  0.0604
  885W        W 4629   6.282   4.001   1.180 -0.0720  0.2859  0.0928
  886W        W 4630   2.701   1.592   0.093 -0.2188  0.4352  0.1766
  887W        W 4631   5.922   0.767   3.393 -0.1859 -0.0377 -0.1114
  888W        W 4632   5.173   2.082   1.508 -0.1264  0.0218  0.0298
  889W        W 4633   7.471   3.405   4.462  0.1793 -0.0874  0.3637
  890W        W 4634   6.169   4.016   3.471 -0.2362  0.1539  0.2288
  891W        W 4635   5.381   5.728   9.585 -0.0379  0.1400 -0.1393
  892W        W 4636   4.227   2.710   1.338  0.0619  0.0551 -0.2340
  893W        W 4637   1.892   9.524   3.097 -0.0240  0.1188 -0.0001
  894W        W 4638   1.086   4.308  10.036 -0.3343 -0.0196 -0.3437
  895W        W 4639   1.005   5.370   4.892  0.2959 -0.0865 -0.1224
  896W        W 4640   4.258   4.077   3.456 -0.4724 -0.0086 -0.0599
  897W        W 4641   3.389   6.945  11.060 -0.1353  0.1473  0.2032
  898W        W 4642   3.508   4.202   4.714  0.1159  0.0250 -0.2329
  899W        W 4643   5.357   0.413   3.939  0.2541 -0.3761 -0.1371
  900W        W 4644   6.039   6.150  10.423  0.0972 -0.1115  0.1639
  901W        W 4645   5.919   0.266   1.262 -0.1931 -0.0427 -0.1607
  902W        W 4646   3.842   5.989   4.155  0.3484  0.0046 -0.0479
  903W        W 4647   8.087   6.424   3.767  0.0744  0.0926 -0.0136
  904W        W 4648   7.478   7.759  10.669 -0.2172 -0.2680  0.2720
  905W        W 4649   2.013   1.012   2.259  0.0165  0.0769 -0.0749
  906W        W 4650   8.616   3.183  11.217 -0.1402  0.1315  0.2031
  907W        W 4651   3.499   8.637   9.617  0.0851  0.2064 -0.3168
  908W        W 4652   4.877   0.507   4.999  0.0364  0.1174  0.0347
  909W        W 4653   4.796   7.924   8.940 -0.0578  0.0152 -0.0407
  910W        W 4654   6.684   5.312  10.831  0.0012 -0.2062  0.0279
  911W        W 4655   8.004   8.125  12.597 -0.2223  0.3308 -0.0657
  912W        W 4656   2.025   4.678  12.686 -0.2049  0.1417 -0.0187
  913W        W 4657   0.113   9.851  10.273  0.1975 -0.0290  0.0051
  914W        W 4658   6.707   9.528   4.626  0.0479 -0.0186  0.1249
  915W        W 4659   3.085   1.131   9.893  0.1005 -0.0950  0.3018
  916W        W 4660   3.710   2.609  11.932  0.0919  0.1562  0.2715
  917W        W 4661   1.408   0.107   0.395 -0.1656  0.4106  0.1134
  918W        W 4662   1.656   7.093   9.425  0.0910  0.0970  0.0374
  919W        W 4663   8.584   4.625  11.495  0.0545  0.0790 -0.3979
  920W        W 4664   5.125   3.778  12.715  0.0635  0.0581 -0.1501
  921W        W 4665   8.634   4.101   0.688 -0.0294  0.1572  0.1044
  922W        W 4666   2.858   4.975   9.093 -0.1878 -0.1948  0.0718
  923W        W 4667   8.095   5.461   1.031 -0.0366 -0.0895 -0.1593
  924W        W 4668   5.734   6.201  12.256 -0.2117  0.1775  0.3774
  925W        W 4669   2.234   8.348   1.202  0.0517 -0.1475 -0.3185
  926W        W 4670   5.348   7.950   2.099 -0.0711 -0.0841 -0.1091
  927W        W 4671   6.521   9.567  10.882  0.1329  0.3923 -0.1913
  928W        W 4672   2.304   5.768   3.095  0.2028  0.0727 -0.2232
  929W        W 4673   1.708   5.753   9.265  0.1351 -0.0358 -0.3387
  930W        W 4674   4.803   8.064  10.549 -0.1472  0.0497 -0.1766
  931W        W 4675   4.768   9.001   0.792 -0.0779  0.2237 -0.0946
  932W        W 4676   5.135   3.613   3.575 -0.2205  0.0457  0.2034
  933W        W 4677   5.845   9.200  12.711 -0.3089 -0.0072  0.0762
  934W        W 4678   8.200   6.910   3.904 -0.3459  0.2825 -0.3632
  935W        W 4679   5.753   1.588   9.414 -0.4998 -0.2696 -0.0090
  936W        W 4680   1.889   4.429   3.049 -0.1963  0.0103  0.0327
  937W        W 4681   5.581   3.268   8.021 -0.0797  0.1276  0.1239
  938W        W 4682   1.723   3.470  10.078  0.0422 -0.2069  0.2537
  939W        W 4683   4.645   4.374  11.998 -0.2374  0.2112 -0.0512
  940W        W 4684   8.869   7.848   9.031 -0.0549 -0.3548  0.3661
  941W        W 4685   0.578   9.003  12.571  0.1439  0.3109  0.1364
  942W        W 4686   6.825   4.240   5.089 -0.2477 -0.1605 -0.0024
  943W        W 4687   7.269   9.803  11.333 -0.0676 -0.0458 -0.0934
  944W        W 4688   6.949   8.894  12.019 -0.1390  0.4753  0.1645
  945W        W 4689   0.689   8.531  11.960 -0.1912  0.0603 -0.0858
  946W        W 4690   9.361   2.617   1.536 -0.3063 -0.0561  0.2333
  947W        W 4691   0.479   2.182  12.630  0.0256 -0.1081 -0.3181
  948W        W 4692   9.051   7.049   3.642  0.1867 -0.2133  0.3849
  949W        W 4693   7.234   1.163   3.551  0.0462 -0.0972  0.1883
  950W        W 4694   2.313   5.258   1.966  0.1608  0.3988 -0.2014
  951W        W 4695   3.307   6.191   0.712 -0.1344  0.0901 -0.1992
  952W        W 4696   5.223   9.529  10.506  0.0810 -0.0538  0.0666
  953W        W 4697   7.704   4.874   4.462 -0.1537 -0.0129  0.1366
  954W        W 4698   6.954   3.530   3.501 -0.3037  0.0646  0.0501
  955W        W 4699   1.872   4.144   0.532 -0.2702  0.0386 -0.0040
  956W        W 4700   9.633   9.866  11.241 -0.2172  0.3020  0.2734
  957W        W 4701   3.248   4.207   2.854 -0.1890 -0.0702 -0.1491
  958W        W 4702   0.228   4.187   0.493 -0.0359  0.2637 -0.0592
  959W        W 4703   7.780   9.248  11.503 -0.2194  0.3381 -0.0877
  960W        W 4704   3.289   6.689   3.828  0.0189 -0.0214  0.3879
  961W        W 4705   1.330   8.718  10.624  0.0331 -0.1568 -0.4764
  962W        W 4706   7.750   1.706  10.352  0.0411 -0.0778 -0.1173
  963W        W 4707   4.265   5.123   0.595 -0.3923 -0.0176  0.1046
  964W        W 4708   4.030   1.413   9.942 -0.0395  0.0505 -0.0605
  965W        W 4709   8.587   3.096  12.059 -0.1027  0.1858  0.2829
  966W        W 4710   9.644   8.487   8.819 -0.3853  0.0332  0.0055
  967W        W 4711   9.535   8.071   2.176 -0.0673  0.1084  0.1966
  968W        W 4712   0.304   7.204   2.089 -0.0985  0.1157 -0.1069
  969W        W 4713   2.476   3.600   2.177 -0.1395  0.0052  0.5203
  970W        W 4714   8.535   6.685   4.735  0.3520  0.0806 -0.4261
  971W        W 4715   3.434   1.052   0.007 -0.1544  0.1195 -0.0884
  972W        W 4716   7.300   2.376   2.749 -0.2354  0.2726  0.1111
  973W        W 4717   2.167   4.106   3.855 -0.1433 -0.1949  0.0796
  974W        W 4718   7.924   3.143  11.605 -0.0494  0.4476  0.0819
  975W        W 4719   5.479   2.982  10.037  0.3639  0.3599 -0.0730
  976W        W 4720   8.610   1.089  11.797 -0.0383 -0.0431 -0.2770
  977W        W 4721   3.533   2.766  11.494 -0.1171  0.0187  0.1705
  978W        W 4722   9.179   9.562   3.485  0.1123  0.2525  0.0637
  979W        W 4723   9.040   4.794   2.022  0.1970 -0.0430  0.0126
  980W        W 4724   6.505   0.505   3.112 -0.0305  0.0050 -0.0930
  981W        W 4725   0.527   2.535  12.262 -0.1817 -0.0821  0.1322
  982W        W 4726   5.156   7.187  10.703  0.3897  0.0393 -0.0675
  983W        W 4727   8.915   9.182   3.181  0.0445  0.1395  0.2216
  984W        W 4728   7.276   5.288   3.749 -0.2412 -0.0204 -0.0054
  985W        W 4729   4.390   4.377   1.935 -0.1060 -0.0039 -0.1163
  986W        W 4730   0.968   7.547   2.467 -0.1064  0.1959 -0.0618
  987W        W 4731   9.387   6.087   3.467  0.0580 -0.0947  0.1821
  988W        W 4732   3.049   7.103   9.913  0.2637 -0.1164  0.0228
  989W        W 4733   8.123   3.134  11.124  0.1939 -0.0089 -0.4016
  990W        W 4734   1.741   2.904   1.671 -0.4410  0.1652  0.2758
  991W        W 4735   3.185   3.084   9.128 -0.1115  0.1198  0.0866
  992W        W 4736   6.859   9.058  11.556 -0.1881 -0.0026 -0.0782
  993W        W 4737   4.147   4.946   2.578  0.2720  0.3892  0.0705
  994W        W 4738   4.525   0.710  11.727  0.3278  0.0980  0.1560
  995W        W 4739   1.714   1.980  12.126  0.1318  0.2921 -0.0949
  996W        W 4740   8.272   4.498   2.839  0.1522 -0.1039  0.0639
  997W        W 4741   3.464   8.350  10.661  0.0151  0.2922  0.5446
  998W        W 4742   4.348   3.743   0.356  0.0152  0.0919  0.0074
  999W        W 4743   0.114   8.996   8.682  0.1848 -0.2867  0.1218
 1000W        W 4744   9.549   8.086   0.400  0.0317  0.1137 -0.0683
 1001W        W 4745   0.626   8.829   0.701  0.1523 -0.0967 -0.3294
 1002W        W 4746   5.628   3.035   9.466  0.1398  0.0376 -0.0365
 1003W        W 4747   4.395   9.392   0.759  0.2290 -0.1967  0.0755
 1004W        W 4748   7.109   6.436  12.019  0.0383  0.3151 -0.4352
 1005W        W 4749   9.937   0.285  11.717  0.1438 -0.1797  0.0942
 1006W        W 4750   5.537   4.542   3.600 -0.2361  0.1860 -0.0472
 1007W        W 4751   1.856   1.417   0.558  0.0893  0.0525 -0.1260
 1008W        W 4752   6.964   4.938   2.198 -0.0902  0.2643  0.1578
 1009W        W 4753   2.619   0.618   1.960 -0.0794  0.0214  0.0337
 1010W        W 4754   6.600   3.110   8.110 -0.2242 -0.1849  0.2232
 1011W        W 4755   6.762   7.773   9.540  0.2017  0.0625 -0.2141
 1012W        W 4756   5.583   4.414   2.565 -0.0231  0.0597 -0.1554
 1013W        W 4757   5.399   8.334   1.297 -0.0148  0.4289  0.3026
 1014W        W 4758   7.244   4.684   4.512  0.0421  0.1173  0.1935
 1015W        W 4759   9.477   7.062  10.191 -0.0213  0.1551  0.0194
 1016W        W 4760   8.042   7.500   1.243  0.1076  0.1019  0.2516
 1017W        W 4761   2.448   1.525  12.457  0.0406 -0.0591 -0.3037
 1018W        W 4762   4.632   7.544   0.125 -0.1694  0.0242 -0.3147
 1019W        W 4763   3.015   4.616   9.681  0.1239  0.1168 -0.3107
 1020W        W 4764   7.200   0.670  12.611  0.2484  0.0657 -0.0099
 1021W        W 4765   2.519   5.973  11.281  0.4344  0.0428  0.3263
 1022W        W 4766   1.038   4.082  10.587  0.2998  0.0280 -0.2261
 1023W        W 4767   8.504   5.637  11.151 -0.0121  0.0243 -0.0413
 1024W        W 4768   7.278   9.481  10.200 -0.3670 -0.1477 -0.3291
 1025W        W 4769   6.809   8.742   1.561 -0.1648 -0.3123 -0.1590
 1026W        W 4770   2.106   6.020   0.738  0.2950 -0.2318 -0.0569
 1027W        W 4771   7.611   3.537  10.933 -0.0185  0.3765  0.5041
 1028W        W 4772   8.523   5.504   2.817  0.0488  0.0074  0.1764
 1029W        W 4773   4.677   5.786   4.566 -0.2260  0.2282  0.1525
 1030W        W 4774   6.331   2.822   3.542 -0.2093  0.1287  0.0832
 1031W        W 4775   9.604   3.759   3.799  0.0063  0.3885 -0.2067
 1032W        W 4776   2.749   6.963   0.002 -0.0278  0.3757 -0.0838
 1033W        W 4777   7.421   0.156   2.975  0.0830  0.1249 -0.2125
 1034W        W 4778   4.458   2.086   4.314  0.0820  0.0760  0.0599
 1035W        W 4779   0.143   2.454   3.310  0.1416 -0.0277 -0.0666
 1036W        W 4780   6.646   9.934  10.353 -0.0466  0.0184 -0.3998
 1037W        W 4781   2.756   2.850  12.145 -0.0858  0.1602  0.2692
 1038W        W 4782   6.994   6.446  10.994 -0.0443 -0.0829  0.2658
 1039W        W 4783   5.339   4.780   2.818  0.0454  0.2949  0.0141
 1040W        W 4784   8.108   9.256   1.026  0.0302 -0.0096  0.1429
 1041W        W 4785   1.038   4.188   1.041 -0.2011  0.2818 -0.0873
 1042W        W 4786   7.455   1.394   1.888 -0.1313  0.2046  0.0885
 1043W        W 4787   1.509   0.846  12.213 -0.2842 -0.0008 -0.1760
 1044W        W 4788   9.763   1.525  11.504  0.1288  0.3448  0.0080
 1045W        W 4789   3.773   9.536   3.021  0.2861 -0.1988 -0.1997
 1046W        W 4790   1.754   9.920   1.598  0.0444  0.2392  0.5691
 1047W        W 4791   0.134   7.595   8.346 -0.2220  0.1865  0.0313
 1048W        W 4792   1.085   2.652   1.130 -0.1676  0.3465 -0.0159
 1049W        W 4793   4.843   4.940   9.581 -0.2012  0.0873 -0.2813
 1050W        W 4794   6.892   0.138   2.057  0.2396  0.2105  0.2118
 1051W        W 4795   5.523   9.690   9.850 -0.1150 -0.3038  0.0823
 1052W        W 4796   7.235   0.379  11.504  0.0677  0.2643  0.1882
 1053W        W 4797   4.622   4.016   1.652 -0.1038 -0.0236 -0.0629
 1054W        W 4798   4.623   9.261   3.598  0.1404  0.2378 -0.1028
 1055W        W 4799   8.370   7.429   3.942 -0.0374 -0.2185  0.0621
 1056W        W 4800   3.472   6.834   9.571 -0.0942 -0.2804 -0.3265
 1057W        W 4801   4.783   5.748  10.110 -0.3352  0.2448 -0.3065
 1058W        W 4802   7.456   9.239   4.143  0.2846 -0.1471 -0.1238
 1059W        W 4803   4.847   4.530   1.566 -0.2169 -0.0331  0.1493
 1060W        W 4804   1.059   8.109   2.556  0.1278  0.2219  0.0667
 1061W        W 4805   7.545   5.063   9.083 -0.0779  0.1326  0.0190
 1062W        W 4806   8.523   2.270  10.235  0.3360 -0.0066  0.0849
 1063W        W 4807   5.702   7.346   4.315 -0.3447 -0.1620  0.0341
 1064W        W 4808   1.413   3.946   1.259  0.2053  0.2098 -0.3612
 1065W        W 4809   0.742   0.796  12.601 -0.0861  0.1697  0.0353
 1066W        W 4810   4.543   2.532   9.233  0.0764 -0.0879  0.0734
 1067W        W 4811   9.468   4.856   0.787 -0.1333  0.2083  0.3822
 1068W        W 4812   5.997   9.202   4.299 -0.0926  0.0081  0.2077
 1069W        W 4813   8.828   3.764  10.873  0.1105 -0.0636 -0.0835
 1070W        W 4814   4.008   0.889   8.735  0.0686  0.0942 -0.2527
 1071W        W 4815   2.573   4.959   9.615 -0.3040  0.3095  0.0593
 1072W        W 4816   0.210   1.114  11.467 -0.1697  0.0686  0.0221
 1073W        W 4817   5.560   9.680   1.971 -0.0847  0.1523 -0.0462
 1074W        W 4818   0.624   5.319   2.543  0.0063 -0.1298 -0.1935
 1075W        W 4819   1.461   6.366  12.033  0.1071  0.1019  0.0629
 1076W        W 4820   2.735   6.901   1.523  0.0827 -0.0270 -0.2905
 1077W        W 4821   2.382   3.664   9.482 -0.2556 -0.0291  0.1030
 1078W        W 4822   6.102   1.291  11.282 -0.0429  0.1560 -0.2390
 1079W        W 4823   0.739   0.148  10.293  0.2257  0.0355 -0.1844
 1080W        W 4824   6.671   8.102   2.417  0.1644 -0.2641  0.1817
 1081W        W 4825   5.081   6.169  12.853  0.0864 -0.1676 -0.1601
 1082W        W 4826   6.207   9.590  10.540 -0.0574  0.1562 -0.2698
 1083W        W 4827   4.608   9.855   2.487  0.0316 -0.0130  0.0430
 1084W        W 4828   6.273   7.942   9.675 -0.0540 -0.2105 -0.1009
 1085W        W 4829   6.952   7.084  12.423 -0.1360  0.0497 -0.1438
 1086W        W 4830   2.834   7.436  12.746 -0.0226 -0.1619  0.3734
 1087W        W 4831   2.165   0.633   3.062 -0.1308 -0.0821  0.4917
 1088W        W 4832   8.436   1.994   0.564  0.4110 -0.1275 -0.0687
 1089W        W 4833   7.297   7.506   3.457  0.1361 -0.2843 -0.0097
 1090W        W 4834   0.638   3.164  11.487 -0.1716 -0.1661 -0.1210
 1091W        W 4835   0.617   0.977   3.186  0.0203 -0.1470  0.1487
 1092W        W 4836   8.048   3.447  10.686  0.1551 -0.0963  0.0886
 1093W        W 4837   0.720   8.266   0.429  0.1652 -0.1822 -0.0426
 1094W        W 4838   6.410   0.610  10.517  0.2499 -0.0788  0.1680
 1095W        W 4839   2.579   4.570   0.198  0.3581  0.1938  0.2698
 1096W        W 4840   1.005   2.443  10.182  0.0542  0.0344  0.0098
 1097W        W 4841   6.393   4.350   8.199  0.2571 -0.2871  0.4463
 1098W        W 4842   9.349   6.888   9.305  0.1801 -0.0625  0.0440
 1099W        W 4843   8.698   3.256   1.194  0.0308  0.2154  0.0761
 1100W        W 4844   5.238   4.232   1.659 -0.5197  0.2066  0.1620
 1101W        W 4845   0.644   1.889   2.785  0.0455  0.0602  0.2127
 1102W        W 4846   0.926   4.738  10.872  0.1134  0.0168 -0.0324
 1103W        W 4847   9.518   1.482  11.956 -0.1525 -0.1002 -0.2735
 1104W        W 4848   6.281   3.469   9.897  0.0951  0.2223  0.1030
 1105W        W 4849   1.101   0.382  10.956 -0.1344 -0.0329  0.3465
 1106W        W 4850   0.555   5.540   4.057 -0.0368  0.0165 -0.0368
 1107W        W 4851   1.498   2.978  11.769  0.1937 -0.0043  0.0915
 1108W        W 4852   7.665   3.994   1.796  0.2514  0.0340 -0.3883
 1109W        W 4853   2.375   5.348  12.265 -0.0731  0.0108 -0.4950
 1110W        W 4854   3.500   1.178   1.347 -0.2067 -0.2868  0.0881
 1111W        W 4855   4.821   2.661  10.522 -0.2241  0.0137 -0.1992
 1112W        W 4856   2.441   8.054   2.149 -0.0647  0.1477  0.1324
 1113W        W 4857   7.258   9.447   3.698 -0.0554 -0.2082  0.0983
 1114W        W 4858   5.585   7.636   0.734  0.2040 -0.0824 -0.0846
 1115W        W 4859   0.784   5.493   9.541 -0.2065 -0.1019  0.2024
 1116W        W 4860   2.641   1.357   3.162  0.1911  0.2692  0.0431
 1117W        W 4861   8.964   5.525   9.969  0.0527  0.0042  0.0184
 1118W        W 4862   4.784   1.667   8.642  0.0465  0.4401 -0.1424
 1119W        W 4863   8.374   3.776  10.447 -0.2461  0.0795  0.0579
 1120W        W 4864   4.285   5.891   4.276  0.1066  0.0914 -0.0218
 1121W        W 4865   2.023   3.888   1.469  0.1204 -0.0581  0.0578
 1122W        W 4866   2.859   4.707  12.602  0.0601 -0.0990  0.1704
 1123W        W 4867   6.793   9.309   9.540 -0.4411 -0.4041  0.1196
 1124W        W 4868   1.404   8.818  11.366  0.0611  0.3152 -0.2333
 1125W        W 4869   0.229   8.134   0.350  0.0767  0.0600 -0.1283
 1126W        W 4870   6.625   0.134   3.499 -0.1188  0.2818  0.0168
 1127W        W 4871   0.149   1.365   0.926 -0.1107 -0.0718 -0.2095
 1128W        W 4872   6.609   5.746  11.532  0.2223 -0.2782 -0.1055
 1129W        W 4873   8.362   0.808   3.160 -0.0831 -0.1882  0.0553
 1130W        W 4874   1.303   0.856  11.040 -0.3677  0.2714  0.0347
 1131W        W 4875   0.395   1.545   0.365 -0.1029 -0.0713 -0.0033
 1132W        W 4876   1.711   2.377   0.444  0.4237 -0.1439 -0.0364
 1133W        W 4877   4.631   8.076   9.978 -0.0310  0.2689 -0.1433
 1134W        W 4878   1.078   8.878  11.838 -0.2698  0.1888  0.0101
 1135W        W 4879   3.035   9.822   8.126 -0.0359  0.2518 -0.3073
 1136W        W 4880   2.329   3.648  11.003 -0.1176  0.1126  0.2116
 1137W        W 4881   7.448   0.647  11.186 -0.2793  0.1747  0.0259
 1138W        W 4882   5.669   9.913   3.792  0.4214  0.0763 -0.0965
 1139W        W 4883   2.537   5.961   9.250  0.1318  0.0262  0.2471
 1140W        W 4884   8.895   7.403  12.178 -0.0807 -0.0230 -0.5066
 1141W        W 4885   0.977   8.035   1.184 -0.1336  0.0447 -0.2878
 1142W        W 4886   5.688   9.830   1.128 -0.1712  0.1943 -0.0678
 1143W        W 4887   6.963   9.528   0.387  0.1930 -0.0461 -0.0492
 1144W        W 4888   5.876   4.536  10.536  0.0944  0.2831  0.0871
 1145W        W 4889   8.462   6.460   9.641 -0.2142 -0.1188 -0.0492
 1146W        W 4890   8.200   2.586   3.984  0.1071 -0.1942 -0.1734
 1147W        W 4891   5.727   3.409   9.110 -0.0046 -0.2084  0.1103
 1148W        W 4892   9.077   4.292   2.701  0.1074 -0.3327 -0.0567
 1149W        W 4893   4.047   5.899   0.133 -0.1127 -0.0784 -0.1357
 1150W        W 4894   7.847   7.515  11.450  0.1906 -0.3310 -0.1711
 1151W        W 4895   1.901   6.428   0.933 -0.1742  0.1136  0.0455
 1152W        W 4896   3.596   0.561  10.028  0.0975 -0.4276 -0.1099
 1153W        W 4897   6.521   2.034   0.533  0.2784 -0.2138  0.0146
 1154W        W 4898   5.559   5.970   0.236 -0.2258  0.3139  0.1792
 1155W        W 4899   1.538   5.336   4.233 -0.1642 -0.1744  0.2064
 1156W        W 4900   7.480   8.734  11.473  0.1978  0.0191  0.0041
 1157W        W 4901   9.361   8.169   9.672 -0.1956 -0.1058  0.2479
 1158W        W 4902   8.761   9.437   0.357  0.0181 -0.0100  0.1794
 1159W        W 4903   5.170   1.604   9.955 -0.0644 -0.3208  0.0565
 1160W        W 4904   2.559   2.282   3.137  0.2721  0.0003  0.2010
 1161W        W 4905   6.201   0.048   3.850  0.0741 -0.4490 -0.1871
 1162W        W 4906   8.338   5.104   3.392  0.2548 -0.1658 -0.0691
 1163W        W 4907   5.227   4.891   8.002  0.1471 -0.1999 -0.1612
 1164W        W 4908   1.815   2.234  12.718 -0.1931  0.2126 -0.1405
 1165W        W 4909   9.233   6.415   1.114 -0.4136  0.2033  0.2315
 1166W        W 4910   3.070   6.280  12.002  0.2378 -0.1786  0.0313
 1167W        W 4911   1.578   2.680  10.098 -0.1491  0.1544  0.0329
 1168W        W 4912   8.895   5.458  10.925  0.1776 -0.0174  0.0261
 1169W        W 4913   6.212   9.776   1.251  0.0801 -0.2631  0.1026
 1170W        W 4914   1.134   4.009   3.630  0.2332  0.2100 -0.1929
 1171W        W 4915   1.667   6.121  11.346  0.2032 -0.1163  0.2685
 1172W        W 4916   3.681   9.654   5.103 -0.2223 -0.0716 -0.2883
 1173W        W 4917   4.984   0.791   4.487  0.1710  0.1307  0.0611
 1174W        W 4918   8.964   7.452  12.706 -0.2354 -0.3576  0.3135
 1175W        W 4919   9.797   0.485   1.464 -0.0716  0.1812 -0.1660
 1176W        W 4920   9.794   3.530  10.324 -0.0962 -0.1269 -0.2180
 1177W        W 4921   7.923   9.935   9.021 -0.0751  0.4025  0.1028
 1178W        W 4922   9.249   1.271   3.570 -0.2150 -0.0573  0.0727
 1179W        W 4923   8.167   9.442  11.301  0.1034  0.1089  0.0450
 1180W        W 4924   7.451   2.687   1.885  0.1143  0.0748  0.1686
 1181W        W 4925   0.376   6.599   2.985  0.1462 -0.2989 -0.1061
 1182W        W 4926   2.533   3.501  11.809  0.1231 -0.3505  0.0032
 1183W        W 4927   1.823   2.364  11.264 -0.1211 -0.2720  0.0011
 1184W        W 4928   0.508   1.537   2.470  0.0772  0.3715 -0.1321
 1185W        W 4929   3.809   7.688   8.830 -0.4277 -0.1075 -0.1703
 1186W        W 4930   5.478   7.044   3.478  0.1101 -0.1161  0.0216
 1187W        W 4931   8.009   6.451   0.108 -0.0301  0.3197  0.1496
 1188W        W 4932   0.854   4.535  11.338  0.5087 -0.0543 -0.1928
 1189W        W 4933   7.469   5.526   4.185 -0.0637  0.0303  0.3984
 1190W        W 4934   8.561   3.576   3.170  0.1122  0.1674 -0.0527
 1191W        W 4935   4.888   9.826   4.517 -0.0562 -0.0840 -0.1691
 1192W        W 4936   2.283   2.415  10.499 -0.1415  0.1453  0.3157
 1193W        W 4937   0.283   8.676   4.871 -0.1868 -0.0400  0.1022
 1194W        W 4938   1.993   8.816  12.455 -0.0692  0.0925 -0.1938
 1195W        W 4939   4.853   4.729   2.002  0.1306 -0.2267 -0.3289
 1196W        W 4940   4.314   7.111   2.118 -0.4270  0.3899  0.0265
 1197W        W 4941   8.009   7.338  12.633  0.1701 -0.2052 -0.2562
 1198W        W 4942   9.763   0.531  11.362 -0.1463 -0.1536  0.1965
 1199W        W 4943   8.131   7.745  12.266  0.1736  0.0085  0.1045
 1200W        W 4944   6.026   6.793   0.581 -0.0246 -0.3867 -0.0838
 1201W        W 4945   9.545   8.310  11.646  0.1384  0.0542 -0.1595
 1202W        W 4946   3.756   9.406  10.460  0.3387  0.2743 -0.1315
 1203W        W 4947   5.084   9.562   1.737 -0.1579  0.2590  0.2900
 1204W        W 4948   9.101   6.515  12.046  0.2638  0.2665 -0.1863
 1205W        W 4949   6.945   5.265   2.924 -0.2071 -0.1922 -0.0196
 1206W        W 4950   7.361   5.191  11.840 -0.0110 -0.2484 -0.0494
 1207W        W 4951   8.543   8.940  12.265 -0.3344 -0.1880  0.0909
 1208W        W 4952   7.556   5.679   3.650 -0.2502  0.1299  0.0470
 1209W        W 4953   1.366   8.120   3.344  0.0833 -0.2792 -0.1611
 1210W        W 4954   3.943   9.794  11.645  0.1986  0.1020  0.0147
 1211W        W 4955   8.328   0.238   1.696 -0.3321  0.0074 -0.1332
 1212W        W 4956   2.333   5.167  10.324  0.0658  0.0159  0.0528
 1213W        W 4957   5.797   3.728  12.338  0.0752 -0.0026  0.3051
 1214W        W 4958   2.673   3.646   4.139  0.2529 -0.2903 -0.2859
 1215W        W 4959   8.287   6.766  11.424 -0.0701 -0.1298  0.1743
 1216W        W 4960   4.354   4.179   1.193  0.1590  0.1194 -0.2931
 1217W        W 4961   8.138   0.010  10.997  0.0979  0.1763  0.2380
 1218W        W 4962   6.767   4.762  10.996 -0.3017  0.2470 -0.0834
 1219W        W 4963   2.849   9.689   2.216  0.0957  0.0303 -0.2170
 1220W        W 4964   0.687   1.860  11.006 -0.0393  0.0941 -0.1403
 1221W        W 4965   4.908   4.176   2.054 -0.3706 -0.0478  0.1359
 1222W        W 4966   1.433   7.510  12.691 -0.2052 -0.0185 -0.1806
 1223W        W 4967   3.237   8.293  10.184 -0.2280 -0.1140  0.0367
 1224W        W 4968   8.200   9.742   1.426 -0.1723 -0.1256  0.3882
 1225W        W 4969   4.132   8.557  11.557  0.0846 -0.1023 -0.4750
 1226W        W 4970   1.718   5.088   9.801  0.1716  0.0144 -0.0240
 1227W        W 4971   6.220   2.417  12.764 -0.0613 -0.0770 -0.2780
 1228W        W 4972   5.454   6.131   2.469  0.1754  0.2227 -0.0072
 1229W        W 4973   9.321   8.603   3.743  0.1923  0.0555 -0.0110
 1230W        W 4974   4.718   3.410   3.846  0.0736 -0.0308  0.3055
 1231W        W 4975   6.516   8.589   2.229  0.3327  0.0648 -0.0315
 1232W        W 4976   5.486   3.157   8.449 -0.0624  0.0161 -0.0694
 1233W        W 4977   2.376   4.461   0.764 -0.2426  0.2064 -0.0843
 1234W        W 4978   9.003   7.990  12.692  0.0918  0.3549  0.0121
 1235W        W 4979   1.430   8.242   1.061  0.2137 -0.3894 -0.1532
 1236W        W 4980   9.546   5.748   0.110 -0.0428  0.3241  0.0982
 1237W        W 4981   5.606   3.567  11.224 -0.0116 -0.0482  0.0773
 1238W        W 4982   8.911   5.740  12.089  0.2278  0.3351  0.2970
 1239W        W 4983   1.402   9.662   1.815  0.0416  0.0785 -0.0857
 1240W        W 4984   5.888   8.363  10.402  0.0248 -0.0311 -0.0709
 1241W        W 4985   0.789   6.090   3.478 -0.0197  0.1326  0.0697
 1242W        W 4986   2.945   9.822  12.591 -0.1985 -0.0983  0.0003
 1243W        W 4987   4.378   3.588   9.040  0.0322  0.1960  0.0218
 1244W        W 4988   7.007   1.181   9.966 -0.2066 -0.0278  0.2840
 1245W        W 4989   0.018   6.226   9.662 -0.1440  0.0411 -0.0612
 1246W        W 4990   1.841   3.965   1.015 -0.1754 -0.1806 -0.2750
 1247W        W 4991   4.952   7.964   0.026  0.3301 -0.0722  0.1444
 1248W        W 4992   6.689   4.757   8.160  0.1763 -0.0556  0.0426
 1249W        W 4993   0.789   3.175   2.442  0.0678  0.1866 -0.0898
 1250W        W 4994   5.624   5.720  12.150  0.0178 -0.0244 -0.1425
 1251W        W 4995   6.681   4.600   4.686 -0.0192 -0.1220  0.1487
 1252W        W 4996   0.282   8.080   9.673  0.1493 -0.0073  0.2558
 1253W        W 4997   4.801   2.029  11.285 -0.2638  0.0053 -0.3053
 1254W        W 4998   6.679   3.989   0.276 -0.1917 -0.0842  0.1967
 1255W        W 4999   2.445   4.802   4.024 -0.2439 -0.0539  0.0679
 1256W        W 5000   5.926   9.476   0.867 -0.0196 -0.3807  0.1783
 1257W        W 5001   7.741   4.635  12.739 -0.5031  0.1217 -0.2207
 1258W        W 5002   7.009   5.011   0.796 -0.2601 -0.4273  0.0418
 1259W        W 5003   7.372   7.016   9.597  0.0381 -0.1800 -0.0434
 1260W        W 5004   1.789   4.856   3.898 -0.0715  0.1640  0.2479
 1261W        W 5005   2.295   2.204  11.011 -0.0019 -0.0224 -0.1994
 1262W        W 5006   2.551   5.830  12.212 -0.0559 -0.1548  0.1201
 1263W        W 5007   1.825   0.554  11.050  0.0943  0.1235 -0.1679
 1264W        W 5008   4.129   7.907   9.220 -0.0115 -0.2407  0.2105
 1265W        W 5009   6.058   0.373   8.844 -0.0068  0.0193 -0.2938
 1266W        W 5010   5.391   1.689  10.823  0.0485 -0.4187 -0.0443
 1267W        W 5011   9.217   4.654   1.175  0.3098 -0.0638  0.1132
 1268W        W 5012   7.784   8.023   9.839  0.2489 -0.0358  0.1770
 1269W        W 5013   6.411   3.698   2.538  0.0032 -0.4243 -0.2338
 1270W        W 5014   7.337   6.316   4.689 -0.0623  0.0803 -0.0549
 1271W        W 5015   8.551   8.022   1.810  0.0271  0.1253 -0.2014
 1272W        W 5016   1.618   7.243   3.635  0.0181  0.0588 -0.0825
 1273W        W 5017   3.443   5.963   1.555  0.1164 -0.3707  0.0240
 1274W        W 5018   0.022   4.274   9.071 -0.0962 -0.1096  0.2620
 1275W        W 5019   9.014   2.498  12.822 -0.1797 -0.1843  0.1580
 1276W        W 5020   4.877   8.925   8.589 -0.1311  0.1330 -0.2333
 1277W        W 5021   9.149   2.830  10.676  0.0111 -0.1366 -0.2984
 1278W        W 5022   8.557   0.998   9.641 -0.0633  0.0869  0.2665
 1279W        W 5023   2.285   7.893   7.734 -0.1226  0.1653  0.3139
 1280W        W 5024   5.679   3.932   2.927  0.2394 -0.1797  0.1052
 1281W        W 5025   4.630   8.250   2.826 -0.0655 -0.4211  0.1426
 1282W        W 5026   6.817   7.985  12.027  0.1570 -0.0604 -0.1115
 1283W        W 5027   8.800   0.600   0.136  0.0710 -0.0068 -0.2037
 1284W        W 5028   1.622   8.472  11.672 -0.0877 -0.2585  0.0980
 1285W        W 5029   9.631   7.917  10.463  0.1364  0.1721 -0.0903
 1286W        W 5030   2.371   9.885  10.473  0.2061  0.0244 -0.0256
 1287W        W 5031   7.245   9.865   9.810 -0.1934 -0.0334  0.4681
 1288W        W 5032   8.544   4.717   2.013 -0.0674 -0.0412 -0.2612
 1289W        W 5033   0.250   4.772   9.843  0.1461 -0.1160  0.0467
 1290W        W 5034   5.337   2.890   1.954 -0.1152 -0.3636  0.0842
 1291W        W 5035   3.278   6.152   3.662 -0.1068  0.2556  0.0627
 1292W        W 5036   7.786   9.501   9.426 -0.1235 -0.1319 -0.1924
 1293W        W 5037   5.280   0.289   1.187  0.0667 -0.2440 -0.3216
 1294W        W 5038   0.779   5.964   1.877  0.0720  0.0205  0.0258
 1295W        W 5039   0.204   4.858   9.363  0.0329 -0.2282  0.4231
 1296W        W 5040   8.808   8.676   3.174  0.1435  0.4449 -0.0694
 1297W        W 5041   2.802   1.683  10.713 -0.0422  0.0969  0.0792
 1298W        W 5042   7.561   6.503   2.450 -0.1322  0.0094 -0.0952
 1299W        W 5043   7.794   6.467   9.069  0.0185  0.1077 -0.1534
 1300W        W 5044   9.206   2.487   2.152 -0.0921 -0.0830 -0.2949
 1301W        W 5045   4.012   9.844   0.543  0.1989 -0.0907  0.1440
 1302W        W 5046   4.134   5.333   3.393 -0.1465  0.1273  0.0656
 1303W        W 5047   8.644   4.790   0.021 -0.0678 -0.1919  0.2048
 1304W        W 5048   7.552   0.236  11.860 -0.0880 -0.1154  0.0518
 1305W        W 5049   4.225   3.198   4.000 -0.1564 -0.1235  0.1683
 1306W        W 5050   4.733   9.482   4.162 -0.0018  0.0432 -0.0247
 1307W        W 5051   0.136   2.520   3.797  0.2408  0.3320 -0.0310
 1308W        W 5052   1.867   7.712   4.071  0.1713 -0.2698 -0.0006
 1309W        W 5053   4.834   2.981   3.555 -0.1337  0.0262 -0.1077
 1310W        W 5054   3.850   3.334  10.741 -0.0064  0.1839  0.0834
 1311W        W 5055   5.221   4.346   9.993  0.0606  0.0764 -0.3442
 1312W        W 5056   0.342   7.162   9.655 -0.0121 -0.4357 -0.0062
 1313W        W 5057   6.248   1.548   4.678 -0.3785 -0.3087  0.1558
 1314W        W 5058   1.394   4.068  12.653 -0.2022 -0.1370 -0.3207
 1315W        W 5059   6.111   7.449   0.009  0.2779  0.1686 -0.2695
 1316W        W 5060   7.053   6.848   3.219 -0.0293 -0.1072 -0.1225
 1317W        W 5061   5.108   2.823  11.776  0.0060 -0.1350 -0.2324
 1318W        W 5062   6.110   5.785   0.728  0.2544 -0.0825 -0.3346
 1319W        W 5063   0.905   4.051  11.528  0.0492 -0.0120 -0.0205
 1320W        W 5064   9.591   2.861   2.000 -0.0080  0.0599  0.0764
 1321W        W 5065   9.272   8.142   4.078  0.1902 -0.3695  0.2500
 1322W        W 5066   4.882   2.223   2.479 -0.1234  0.0802  0.3007
 1323W        W 5067   0.381   8.459  10.618  0.0287  0.1518 -0.1070
 1324W        W 5068   7.050   1.761   4.337  0.2446 -0.1748  0.3738
 1325W        W 5069   0.248   2.060   3.038 -0.0782 -0.0268  0.2959
 1326W        W 5070   7.329   4.220   1.406 -0.0202 -0.1926  0.2105
 1327W        W 5071   7.192   5.411  11.051  0.1949  0.0071  0.1456
 1328W        W 5072   3.377   4.189   3.428 -0.0066  0.0762 -0.2740
 1329W        W 5073   0.720   8.820  10.577  0.0756  0.2103  0.1255
 1330W        W 5074   0.620   9.899   3.094 -0.1462 -0.0443 -0.2301
 1331W        W 5075   7.077   3.172   3.029 -0.0600  0.1242  0.0510
 1332W        W 5076   8.959   2.439  10.041  0.1706  0.0329 -0.0841
 1333W        W 5077   6.036   9.286   3.148 -0.0438 -0.2037 -0.1726
 1334W        W 5078   5.446   6.239   2.978 -0.2289 -0.0934 -0.1506
 1335W        W 5079   5.378   0.952  11.845  0.0985  0.0395  0.1588
 1336W        W 5080   9.391   5.148   0.254  0.1283 -0.1437 -0.0567
 1337W        W 5081   6.090   7.341   2.396  0.0970 -0.1073  0.3510
 1338W        W 5082   3.250   2.534   0.163 -0.0089  0.0040 -0.1842
 1339W        W 5083   5.724   0.943   3.989 -0.1725 -0.1618 -0.1684
 1340W        W 5084   7.412   6.388   0.698  0.0087 -0.2395  0.1503
 1341W        W 5085   4.015   2.454   2.834 -0.1056 -0.2737 -0.2236
 1342W        W 5086   6.183   4.852   0.266 -0.1549 -0.1805 -0.2220
 1343W        W 5087   0.504   5.206   8.690 -0.1098 -0.3007  0.1254
 1344W        W 5088   2.019   0.693  12.276  0.4548  0.2029 -0.1980
 1345W        W 5089   1.439   3.291   2.972  0.0854 -0.1640  0.0856
 1346W        W 5090   2.991   6.736   8.169  0.0876 -0.3367 -0.0128
 1347W        W 5091   0.051   8.608  11.020 -0.1783  0.0020  0.0679
 1348W        W 5092   7.173   5.436  12.742 -0.0529 -0.1138 -0.1328
 1349W        W 5093   6.943   8.262   3.035 -0.0598 -0.2147  0.3612
 1350W        W 5094   7.733   2.505   9.662  0.1861  0.1933 -0.1735
 1351W        W 5095   2.705   9.459  12.341  0.1147  0.2429 -0.0816
 1352W        W 5096   1.525   0.174   9.505  0.1780 -0.0698 -0.1197
 1353W        W 5097   5.615   2.415  12.738 -0.0152  0.0202  0.2952
 1354W        W 5098   8.790   4.676   1.537 -0.0275 -0.0584  0.0512
 1355W        W 5099   0.670   0.191   2.159 -0.2810  0.1745  0.1761
 1356W        W 5100   5.430   6.388   9.117 -0.1939 -0.1269  0.1700
 1357W        W 5101   2.552   9.809   2.701  0.0609  0.3027  0.0712
 1358W        W 5102   1.792   3.428   9.038 -0.0412  0.0110 -0.0390
 1359W        W 5103   0.059   7.809   0.896 -0.0173  0.1922 -0.3354
 1360W        W 5104   3.797   5.946  12.558 -0.0142 -0.0156  0.1643
 1361W        W 5105   6.487   2.061   1.043 -0.0146  0.0308 -0.0521
 1362W        W 5106   5.399   6.958  12.733 -0.0559 -0.1347 -0.2844
 1363W        W 5107   8.443   8.770   3.867 -0.1769  0.2899 -0.0797
 1364W        W 5108   9.901   5.125   4.339 -0.0340  0.0473  0.1649
 1365W        W 5109   6.564   2.110   3.398  0.0622  0.0049  0.1984
 1366W        W 5110   5.249   8.795   8.291 -0.2594 -0.0253  0.1181
 1367W        W 5111   5.583   5.453   0.280  0.0435  0.0825  0.1192
 1368W        W 5112   5.736   7.756   3.986  0.0197  0.3126  0.0233
 1369W        W 5113   0.759   4.944   3.691  0.0805 -0.1581 -0.3225
 1370W        W 5114   8.589   3.774   1.514 -0.2351 -0.3203  0.3410
 1371W        W 5115   1.440   2.947   0.257  0.3766  0.2446 -0.2214
 1372W        W 5116   9.113   1.089   1.990 -0.1718 -0.2330  0.3349
 1373W        W 5117   2.759   5.949   3.741 -0.0571  0.0813 -0.0102
 1374W        W 5118   6.069   7.744   2.681  0.0739 -0.0716  0.0992
 1375W        W 5119   5.346   8.587   3.139  0.0295 -0.4107  0.1638
 1376W        W 5120   0.618   8.012  10.676  0.1328 -0.1139  0.1954
 1377W        W 5121   3.234   9.035   1.963 -0.1378  0.2041  0.2295
 1378W        W 5122   5.646   9.565   8.900  0.0464 -0.1364 -0.3209
 1379W        W 5123   8.638   1.445  10.448 -0.2074 -0.0753 -0.1251
 1380W        W 5124   0.177   2.196  12.045 -0.1557 -0.1648  0.2452
 1381W        W 5125   1.629   9.406   3.622  0.1060  0.1801 -0.1154
 1382W        W 5126   2.315   4.635  10.898  0.3797 -0.0180 -0.1440
 1383W        W 5127   4.872   0.669   0.029  0.0284 -0.0218  0.1316
 1384W        W 5128   0.423   7.823   3.873 -0.0769 -0.4701 -0.0635
 1385W        W 5129   0.910   5.272  11.920  0.2091  0.1681 -0.3907
 1386W        W 5130   5.335   5.075   8.849  0.4782 -0.1265  0.0537
 1387W        W 5131   0.378   7.953   3.185  0.1074 -0.2438  0.0393
 1388W        W 5132   3.796   2.190   0.400  0.3300  0.3681 -0.0485
 1389W        W 5133   3.890   1.556   1.358 -0.0235  0.0359  0.0747
 1390W        W 5134   1.728   4.371   0.104  0.2193 -0.1549  0.0034
 1391W        W 5135   6.944   7.155   2.596 -0.3028  0.1860  0.3531
 1392W        W 5136   7.372   8.568   4.702  0.2629 -0.4611 -0.0751
 1393W        W 5137   5.059   0.438  10.896 -0.2196  0.1232  0.2020
 1394W        W 5138   2.345   3.093  12.135  0.1914  0.2384 -0.1507
 1395W        W 5139   9.713   5.616   1.022 -0.1714  0.2727  0.0097
 1396W        W 5140   8.331   2.795  11.514  0.0456 -0.0326  0.3224
 1397W        W 5141   9.118   6.383  10.099  0.2957  0.3884 -0.2307
 1398W        W 5142   5.623   3.647  12.781 -0.1903 -0.4075 -0.1926
 1399W        W 5143   3.117   2.454   1.150 -0.2195 -0.1194 -0.1540
 1400W        W 5144   3.131   1.136  10.433 -0.2508 -0.0076 -0.3245
 1401W        W 5145   4.611   9.197   9.216  0.1613  0.1396  0.0384
 1402W        W 5146   2.620   3.805  11.375  0.4629  0.3579  0.0407
 1403W        W 5147   8.078   9.116   2.582 -0.1345  0.2489 -0.4798
 1404W        W 5148   8.880   3.462  10.352 -0.0103  0.1529  0.0083
 1405W        W 5149   5.552   3.501  11.756 -0.0573 -0.1098  0.0770
 1406W        W 5150   4.190   5.137  10.572  0.3137  0.0256  0.4806
 1407W        W 5151   2.596   5.352   0.325  0.0735 -0.0582  0.3115
 1408W        W 5152   5.216   3.364   4.711  0.1458 -0.3395 -0.0702
 1409W        W 5153   2.480   7.277   3.931  0.1207 -0.1518  0.3124
 1410W        W 5154   3.436   1.330   2.562 -0.1627 -0.1768  0.1437
 1411W        W 5155   6.698   1.553   2.674 -0.1187  0.0327  0.0055
 1412W        W 5156   3.171   6.632   2.533 -0.0588 -0.1026 -0.0247
 1413W        W 5157   6.000   0.448  10.916  0.0043 -0.0715 -0.1044
 1414W        W 5158   5.922   9.328   9.285  0.0483 -0.3107 -0.1537
 1415W        W 5159   7.198   4.233  11.653 -0.0658 -0.0171  0.2904
 1416W        W 5160   4.677   5.941   1.478 -0.0798  0.2291 -0.0170
 1417W        W 5161   3.557   1.112   0.495  0.3130  0.2462 -0.1337
 1418W        W 5162   8.493   7.026  11.813  0.2243  0.2444 -0.3759
 1419W        W 5163   6.977   2.536  11.580  0.0867 -0.1321 -0.0311
 1420W        W 5164   3.004   8.028  10.532 -0.2480 -0.0732  0.1807
 1421W        W 5165   6.644   0.517   2.324  0.1427  0.0819  0.1864
 1422W        W 5166   1.319   8.276  12.056 -0.3712 -0.2459 -0.0322
 1423W        W 5167   2.458   1.310  11.914 -0.2866  0.2273  0.1783
 1424W        W 5168   0.235   6.028   0.386 -0.0385  0.4172 -0.1088
 1425W        W 5169   8.043   5.895  11.949 -0.1666 -0.0479 -0.1911
 1426W        W 5170   3.511   4.649   2.025  0.0024  0.0595  0.2407
 1427W        W 5171   3.602   5.223  10.531  0.1340  0.2572  0.1577
 1428W        W 5172   6.226   0.526   0.923  0.0081  0.1397  0.1265
 1429W        W 5173   7.032   7.075   1.592  0.1527 -0.1148  0.2157
 1430W        W 5174   0.681   6.345   2.165 -0.1415 -0.0513  0.0684
 1431W        W 5175   7.484   8.098   1.644  0.1914  0.2801  0.0406
 1432W        W 5176   1.659   7.814   7.965  0.3130 -0.1289  0.2509
 1433W        W 5177   0.853   9.457  12.307 -0.2148  0.1942  0.1563
 1434W        W 5178   6.150   3.437  12.767  0.0672 -0.0894 -0.2581
 1435W        W 5179   2.755   6.936   2.513 -0.0878 -0.1198  0.2204
 1436W        W 5180   7.130   4.314   4.130 -0.3089  0.1608 -0.0074
 1437W        W 5181   1.634   4.234  11.117 -0.3514  0.0022 -0.3441
 1438W        W 5182   7.936   8.850   0.726  0.1324 -0.1274 -0.4434
 1439W        W 5183   8.470   7.487   2.129 -0.1932  0.4237 -0.4994
 1440W        W 5184   8.673   5.187   2.302  0.3100 -0.0792 -0.2721
 1441W        W 5185   0.446   4.942  12.167 -0.0180  0.1207  0.0027
 1442W        W 5186   5.668   9.041  11.193  0.1387 -0.0655 -0.0373
 1443W        W 5187   6.238   4.630   4.314 -0.0365  0.2801  0.1135
 1444W        W 5188   7.079   3.824  11.416  0.0979  0.2063  0.3662
 1445W        W 5189   2.082   7.018   8.637 -0.1351  0.1323  0.3252
 1446W        W 5190   4.589   9.444   8.202 -0.1310 -0.3872 -0.1946
 1447W        W 5191   0.917   4.306   2.903  0.1960  0.1090 -0.2871
 1448W        W 5192   2.816   7.698   3.972  0.1185  0.0039  0.1145
 1449W        W 5193   6.853   3.641   3.041  0.1699  0.0473  0.1025
 1450W        W 5194   6.503   8.928   1.865 -0.1980 -0.1063  0.1671
 1451W        W 5195   2.303   1.896  12.822 -0.1448 -0.2309 -0.0828
 1452W        W 5196   0.968   1.391   0.947 -0.0965  0.1575  0.0816
 1453W        W 5197   8.433   7.269   9.345 -0.1660 -0.2026 -0.0002
 1454W        W 5198   2.584   1.866  11.207  0.0113  0.4334 -0.1449
 1455W        W 5199   4.799   8.428  12.778  0.2368 -0.1789  0.2799
 1456W        W 5200   8.880   3.868   2.575  0.2719 -0.0678 -0.1047
 1457W        W 5201   0.110   4.921  11.773  0.3523 -0.0842  0.2050
 1458W        W 5202   2.016   8.140   4.904  0.0989 -0.2586 -0.0720
 1459W        W 5203   7.576   7.811   2.443 -0.0371  0.2357  0.1526
 1460W        W 5204   4.045   1.359   8.627 -0.0032 -0.1332  0.0162
 1461W        W 5205   0.631   3.288  10.526 -0.1472 -0.0895  0.0592
 1462W        W 5206   5.503   0.251  10.658  0.1068 -0.0202  0.0647
 1463W        W 5207   1.984   5.995   3.747  0.3664 -0.3026  0.2609
 1464W        W 5208   2.210   4.210  12.120 -0.0501  0.4179 -0.2972
 1465W        W 5209   6.464   4.917   2.082 -0.0286 -0.0604 -0.1681
 1466W        W 5210   9.137   0.521   0.526  0.1729  0.0881 -0.0014
 1467W        W 5211   4.872   2.529   9.624  0.2562 -0.1613 -0.1338
 1468W        W 5212   6.936   3.834   2.356  0.0293 -0.0990  0.0606
 1469W        W 5213   0.643   1.506   1.821  0.2660  0.0232  0.2465
 1470W        W 5214   4.264   1.215   1.024 -0.0657 -0.3067 -0.2826
 1471W        W 5215   1.824   5.506  11.474 -0.1289 -0.2689 -0.2686
 1472W        W 5216   4.083   6.216   9.591  0.0786 -0.1493 -0.0585
 1473W        W 5217   0.832   7.432   3.896 -0.0489 -0.2150  0.4259
 1474W        W 5218   1.512   8.634   2.776  0.1063 -0.3246  0.1624
 1475W        W 5219   7.061   0.102   4.936  0.1092  0.0092  0.0331
 1476W        W 5220   4.384   1.414   2.946 -0.3606 -0.1521  0.1552
 1477W        W 5221   4.716   9.768   3.363  0.4027  0.0632  0.1441
 1478W        W 5222   0.318   5.095   4.000  0.3469 -0.0704  0.0024
 1479W        W 5223   5.034   1.596   0.709  0.0396 -0.1822  0.4463
 1480W        W 5224   4.099   5.792   3.220 -0.1331  0.1133  0.1735
 1481W        W 5225   1.492   6.449   3.173  0.1730  0.1110  0.0887
 1482W        W 5226   8.665   1.118  10.077  0.3767  0.2922  0.0472
 1483W        W 5227   1.085   0.187   1.656 -0.1784  0.2712  0.4193
 1484W        W 5228   3.167   0.329  10.711  0.0285 -0.0211 -0.0853
 1485W        W 5229   9.483   0.768   2.123 -0.4212  0.0429  0.1926
 1486W        W 5230   4.355   3.539  10.611 -0.1803 -0.0849  0.0716
 1487W        W 5231   8.459   6.514  12.607  0.1935 -0.1501 -0.1815
 1488W        W 5232   1.766   1.164   0.138 -0.2121 -0.0709 -0.2442
 1489W        W 5233   3.063   2.206  10.185  0.0160  0.2884 -0.2048
 1490W        W 5234   2.055   6.317   0.336  0.3546  0.1072  0.0247
 1491W        W 5235   6.777   2.275   2.995  0.3066 -0.0613  0.2642
 1492W        W 5236   8.097   9.248   4.375  0.1005  0.4345  0.4345
 1493W        W 5237   7.236   1.850   1.227  0.5139 -0.1151 -0.3822
 1494W        W 5238   9.013   4.258   3.195  0.0204 -0.3158 -0.2001
 1495W        W 5239   1.247   5.549   8.374 -0.2102 -0.0984 -0.3392
 1496W        W 5240   3.388   5.069   8.565  0.0090 -0.0013  0.1185
 1497W        W 5241   7.568   3.609  12.814  0.0042 -0.1831  0.2102
 1498W        W 5242   0.759   6.361  11.338  0.2845  0.1788  0.5007
 1499W        W 5243   4.474   6.108  10.375  0.2531  0.3807 -0.1401
 1500W        W 5244   9.372   7.310   9.628  0.0424  0.0441 -0.2543
 1501W        W 5245   9.855   3.413   0.736  0.3610  0.1529  0.2281
 1502W        W 5246   7.080   5.958  11.328  0.2042 -0.0451 -0.0662
 1503W        W 5247   3.953   2.078  10.665  0.3501 -0.0211  0.1042
 1504W        W 5248   7.010   2.209  11.194 -0.0239 -0.0452 -0.0364
 1505W        W 5249   2.924   5.982   2.445 -0.1786  0.2506  0.0685
 1506W        W 5250   6.667   3.124   4.372 -0.0828  0.0658  0.2557
 1507W        W 5251   4.504   8.139   0.192 -0.2154 -0.1903 -0.1867
 1508W        W 5252   2.785   7.161   3.105  0.1299  0.0932  0.2909
 1509W        W 5253   6.415   7.702  10.771  0.3751 -0.1887 -0.1387
 1510W        W 5254   0.406   5.534   0.545  0.1839 -0.1289 -0.3632
 1511W        W 5255   9.903   2.958   3.432  0.1416  0.0128  0.0184
 1512W        W 5256   8.425   6.171  10.881  0.0015  0.0086  0.2846
 1513W        W 5257   8.987   7.863   3.785 -0.1002  0.5182  0.1621
 1514W        W 5258   7.341   5.172  10.604 -0.0808  0.1102  0.2991
 1515W        W 5259   7.349   2.349   1.547 -0.3988  0.1850  0.0114
 1516W        W 5260   6.316   3.255  11.280 -0.2573 -0.3116 -0.2536
 1517W        W 5261   1.593   1.569  11.227 -0.0307  0.0206 -0.0766
 1518W        W 5262   5.816   6.559  12.617 -0.1283 -0.0682  0.1250
 1519W        W 5263   0.890   7.998   3.011 -0.0010 -0.1900  0.2845
 1520W        W 5264   2.801   0.219  10.357 -0.0327 -0.1461 -0.2825
 1521W        W 5265   6.457   6.297  11.344  0.1990  0.4849  0.0320
 1522W        W 5266   1.761   7.716  10.716 -0.1030 -0.1928  0.1096
 1523W        W 5267   9.865   5.510   3.878  0.2014  0.1505  0.0219
 1524W        W 5268   2.076   1.484   2.130  0.2446 -0.0267 -0.0609
 1525W        W 5269   5.983   6.831   3.458 -0.0028 -0.0757 -0.0702
 1526W        W 5270   0.483   4.107  11.854  0.1532 -0.0111  0.2068
 1527W        W 5271   2.330   4.817   3.232 -0.2223  0.0252  0.3892
 1528W        W 5272   5.282   6.218  11.361 -0.1444 -0.3984  0.0749
 1529W        W 5273   8.783   5.011  11.733 -0.4798 -0.0845 -0.1643
 1530W        W 5274   3.415   8.081   9.787  0.0574 -0.0834  0.0899
 1531W        W 5275   8.191   6.580  10.047  0.1980  0.0297  0.1733
 1532W        W 5276   8.414   6.032   2.356 -0.1386 -0.2128  0.0638
 1533W        W 5277   6.452   6.043   3.283  0.1531  0.0043  0.0651
 1534W        W 5278   6.785   6.261   2.984 -0.1580 -0.1665  0.0593
 1535W        W 5279   4.691   2.863   1.335  0.0109  0.0138  0.2831
 1536W        W 5280   2.256   8.122  11.378 -0.2436 -0.1036  0.0913
 1537W        W 5281   5.506   5.304   3.503  0.0448 -0.0355 -0.0427
 1538W        W 5282   6.454   9.447   0.883 -0.0359 -0.2932 -0.2708
 1539W        W 5283   4.330   4.836   9.358  0.0012 -0.1784 -0.1614
 1540W        W 5284   3.155   7.833  11.011  0.2771  0.2838 -0.0546
 1541W        W 5285   4.186   7.164   8.955 -0.2539 -0.0903  0.0619
 1542W        W 5286   2.118   5.069  11.234  0.1046 -0.0039  0.1711
 1543W        W 5287   4.361   9.536  11.385  0.1907 -0.2353  0.2732
 1544W        W 5288   8.151   6.066   1.069 -0.0650  0.1979  0.1792
 1545W        W 5289   7.035   5.378   0.465  0.0431  0.0114  0.1901
 1546W        W 5290   7.013   0.364  10.966  0.2069 -0.2208  0.1542
 1547W        W 5291   1.075   4.846  11.647  0.2398  0.0485  0.4102
 1548W        W 5292   4.987   8.209  12.325  0.1677  0.0806  0.0340
 1549W        W 5293   5.432   0.246   9.642 -0.0314 -0.0103  0.1320
 1550W        W 5294   2.144   3.581   3.879 -0.1747 -0.1003 -0.0984
 1551W        W 5295   9.327   3.760  10.502 -0.0320 -0.0786 -0.0198
 1552W        W 5296   9.321   1.323  11.159  0.1140  0.1246 -0.2832
 1553W        W 5297   9.341   6.554  11.513 -0.6457 -0.1049  0.0870
 1554W        W 5298   3.921   6.826  10.253 -0.0910 -0.0593  0.1065
 1555W        W 5299   2.096   8.818  11.813 -0.2022 -0.0622 -0.2236
 1556W        W 5300   7.106   4.727   8.599  0.0025 -0.1834  0.1968
 1557W        W 5301   6.257   7.069  10.721 -0.0308  0.0292  0.2836
 1558W        W 5302   2.964   9.610  11.938  0.1187  0.4021  0.1603
 1559W        W 5303   6.216   5.221  10.821  0.1507  0.0928  0.0449
 1560W        W 5304   1.451   4.762   8.965  0.4368  0.3538  0.1439
 1561W        W 5305   2.374   6.623  11.505  0.0569  0.1369  0.0086
 1562W        W 5306   7.545   1.336   9.103  0.0545  0.1530  0.0470
 1563W        W 5307   7.708   7.162  12.283  0.0771  0.0191  0.0062
 1564W        W 5308   7.157   1.045  10.949 -0.1894  0.0973 -0.2110
 1565W        W 5309   8.725   2.392   9.274 -0.1463  0.0052  0.0457
 1566W        W 5310   0.407   4.941   0.882  0.0269 -0.1435 -0.1282
 1567W        W 5311   9.860   8.720  10.522 -0.0041 -0.0339  0.2260
 1568W        W 5312   8.319   6.789   9.254  0.0170 -0.0218 -0.2425
 1569W        W 5313   4.051   8.032   3.508 -0.3967 -0.0146  0.0834
 1570W        W 5314   6.699   9.088   0.676  0.1951  0.1529  0.1062
 1571W        W 5315   5.169   3.440   0.695 -0.1754  0.0230  0.1627
 1572W        W 5316   7.378   2.747  12.447  0.0351  0.0471 -0.4471
 1573W        W 5317   2.804   2.332  11.185 -0.0548 -0.1693  0.0257
 1574W        W 5318   4.457   3.245  11.880  0.0757 -0.0660 -0.0059
 1575W        W 5319   7.619   4.512   2.311 -0.0334  0.2483  0.1213
 1576W        W 5320   6.354   0.158  10.753 -0.0824 -0.1028  0.0037
 1577W        W 5321   3.258   5.810  11.847  0.0467 -0.2029  0.1193
 1578W        W 5322   5.407   6.595   1.612  0.0208 -0.0292  0.1996
 1579W        W 5323   8.365   2.868   0.580  0.1507 -0.1084 -0.0342
 1580W        W 5324   7.054   4.437   3.219 -0.2129  0.1403  0.0114
 1581W        W 5325   1.200   9.732   3.525  0.0959 -0.0863  0.0513
 1582W        W 5326   0.663   0.691   0.306  0.3821 -0.1237 -0.3992
 1583W        W 5327   4.451   4.886  11.901 -0.1455  0.0550  0.0748
 1584W        W 5328   5.481   6.066   1.554 -0.2645  0.1006  0.4663
 1585W        W 5329   9.937   5.196   0.791  0.1786 -0.0240  0.0389
 1586W        W 5330   0.170   8.659   3.392 -0.0851  0.0509 -0.0776
 1587W        W 5331   4.416   7.352   2.975  0.0842  0.1456 -0.1205
 1588W        W 5332   4.069   2.906   3.195  0.3210 -0.0440  0.1562
 1589W        W 5333   7.064   5.514  10.044 -0.2236  0.0887 -0.0197
 1590W        W 5334   7.835   8.635  11.782 -0.0260  0.1603 -0.1215
 1591W        W 5335   1.524   2.458  11.791 -0.1375 -0.1836  0.0456
 1592W        W 5336   4.709   2.034  12.737  0.0866 -0.3418 -0.0564
 1593W        W 5337   0.109   9.006  12.830  0.1132  0.1550  0.0434
 1594W        W 5338   0.304   0.604  11.503  0.4083 -0.3782 -0.0628
 1595W        W 5339   8.374   7.331  12.171 -0.0172 -0.0692 -0.1409
 1596W        W 5340   9.825   1.790   9.975  0.0871 -0.1331 -0.0386
 1597W        W 5341   6.191   2.263  10.943 -0.2723 -0.0634 -0.3448
 1598W        W 5342   9.573   0.473   3.241 -0.1279 -0.1311  0.0527
 1599W        W 5343   4.532   9.461   9.762  0.0354  0.2229  0.1876
 1600W        W 5344   6.149   4.865   9.460  0.2354  0.2098 -0.1790
 1601W        W 5345   2.961   4.205  12.260 -0.2306  0.3036  0.0335
 1602W        W 5346   5.027   4.506  12.334 -0.1110 -0.2514  0.1572
 1603W        W 5347   0.589   2.991   2.023 -0.1172 -0.0434 -0.0592
 1604W        W 5348   0.872   5.096  10.500  0.0538  0.0958  0.0851
 1605W        W 5349   8.244   5.060   9.860  0.0392  0.2502 -0.0922
 1606W        W 5350   0.273   5.607   0.061 -0.0007 -0.0051  0.2018
 1607W        W 5351   4.799   7.980   2.163  0.1760  0.2447  0.0801
 1608W        W 5352   5.954   5.284   4.829  0.0146  0.0210  0.1065
 1609W        W 5353   6.245   6.609   0.100  0.2046  0.0635  0.2641
 1610W        W 5354   7.803   0.016   0.238  0.3254  0.1180 -0.3778
 1611W        W 5355   5.135   5.507  12.085  0.3360 -0.2075 -0.0818
 1612W        W 5356   2.240   4.189   0.102  0.4065 -0.0132  0.0011
 1613W        W 5357   6.432   9.031   8.272 -0.3188  0.1528  0.1958
 1614W        W 5358   8.806   6.935   1.909 -0.2142 -0.1424  0.1272
 1615W        W 5359   5.799   6.614  11.806  0.0788  0.1386 -0.1016
 1616W        W 5360   0.718   7.081   9.265 -0.3251  0.2450 -0.1441
 1617W        W 5361   5.794   1.087   9.401  0.2439 -0.0127  0.1584
 1618W        W 5362   2.034   8.148   2.629  0.1420  0.1559  0.0357
 1619W        W 5363   3.592   5.501   1.487  0.4301  0.0502  0.0829
 1620W        W 5364   1.124   1.786  10.659  0.1209 -0.0060  0.0466
 1621W        W 5365   2.323   5.483   0.922 -0.1560  0.0220  0.0102
 1622W        W 5366   4.078   5.562   1.921  0.2659 -0.2796 -0.0221
 1623W        W 5367   5.453   2.576   9.183 -0.1814 -0.0858  0.2031
 1624W        W 5368   2.917   7.882   0.199 -0.2799 -0.1313 -0.0032
 1625W        W 5369   7.197   1.011   2.779 -0.0192  0.1537 -0.1699
 1626W        W 5370   9.171   8.191   1.031  0.3045 -0.0845 -0.0392
 1627W        W 5371   0.715   3.471  10.045  0.0620  0.0039 -0.0989
 1628W        W 5372   7.311   1.534   8.286  0.1050  0.1108  0.2690
 1629W        W 5373   9.635   3.367   2.124 -0.0006 -0.0517 -0.2796
 1630W        W 5374   9.638   5.445  11.657  0.0448  0.0329 -0.0974
 1631W        W 5375   7.012   8.926  10.468 -0.0065 -0.1938  0.1865
 1632W        W 5376   5.676   8.222  10.863 -0.1248 -0.1015 -0.0379
 1633W        W 5377   2.867   9.685  10.103  0.0055  0.0629 -0.1099
 1634W        W 5378   6.115   9.598  11.815  0.0382  0.0832  0.1173
 1635W        W 5379   5.159   7.471   8.880  0.0906  0.1075  0.1947
 1636W        W 5380   6.679   3.138   9.973  0.0031  0.0277 -0.1223
 1637W        W 5381   1.720   0.789  12.693  0.1846 -0.0214 -0.0508
 1638W        W 5382   2.786   4.528   2.261 -0.0413 -0.0354  0.0880
 1639W        W 5383   5.592   0.218  11.167 -0.1336 -0.1166 -0.0376
 1640W        W 5384   0.531   6.881   0.784  0.2809  0.1686  0.0913
 1641W        W 5385   4.854   8.512   0.815 -0.1075  0.0508 -0.0868
 1642W        W 5386   8.668   9.499   3.489 -0.0341  0.0416 -0.2729
 1643W        W 5387   1.223   3.339   9.946 -0.0581 -0.1653 -0.2153
 1644W        W 5388   5.525   1.159  11.194  0.0585 -0.0847 -0.0340
 1645W        W 5389   8.659   2.971   0.204 -0.1941  0.0757 -0.1601
 1646W        W 5390   4.858   7.028   3.012 -0.0515 -0.0928  0.0096
 1647W        W 5391   8.492   5.460  12.115  0.2956  0.5479 -0.0072
 1648W        W 5392   5.255   4.403   4.061 -0.1003 -0.1232 -0.3920
 1649W        W 5393   3.634   8.557   4.056 -0.1640  0.1741  0.1572
 1650W        W 5394   6.153   1.047   2.000  0.1947  0.0434 -0.2547
 1651W        W 5395   2.492   0.321   2.865  0.2132  0.0282 -0.2478
 1652W        W 5396   2.154   3.767   3.373  0.1075 -0.0886  0.0202
 1653W        W 5397   8.836   8.352   4.094  0.1275 -0.1426  0.1740
 1654W        W 5398   9.510   5.359   9.686 -0.2221  0.2358  0.0050
 1655W        W 5399   9.724   6.351   0.296 -0.3469  0.1058 -0.2955
 1656W        W 5400   0.458   5.070   0.318  0.0728 -0.1215 -0.3007
 1657W        W 5401   0.760   5.639   1.435  0.0171 -0.1613  0.1352
 1658W        W 5402   5.744   6.898   1.473  0.3372  0.2198  0.2301
 1659W        W 5403   3.090   5.470   2.211  0.0025 -0.1199  0.2457
 1660W        W 5404   4.782   6.620   9.991  0.1527  0.0620 -0.1256
 1661W        W 5405   7.919   0.418   9.994 -0.1655  0.3865 -0.4241
 1662W        W 5406   7.267   7.852  12.831  0.0018 -0.2177 -0.0896
 1663W        W 5407   2.215   7.243   0.565 -0.0318  0.0844  0.0880
 1664W        W 5408   9.634   7.416  12.528 -0.1588  0.1596 -0.0152
 1665W        W 5409   6.385   8.798  11.469 -0.2088 -0.1994 -0.4614
 1666W        W 5410   0.839   9.809   9.142  0.1573  0.1286  0.2356
 1667W        W 5411   8.348   9.759   3.754  0.1430  0.4781 -0.1179
 1668W        W 5412   6.377   9.908   9.283  0.0204  0.3676 -0.4227
 1669W        W 5413   5.666   5.359   0.765  0.0039  0.2971 -0.0063
 1670W        W 5414   7.175   0.052   0.356  0.1599  0.2147 -0.0638
 1671W        W 5415   0.486   6.614  12.650 -0.0138 -0.1046  0.1773
 1672W        W 5416   6.218   6.606   2.893 -0.5626 -0.2528  0.1257
 1673W        W 5417   1.874   8.760   1.901  0.1457  0.1643 -0.2494
 1674W        W 5418   5.836   8.708  10.888 -0.0752  0.0779 -0.0895
 1675W        W 5419   3.462   5.044   1.780  0.0072  0.0585 -0.1505
 1676W        W 5420   8.679   7.717  10.015 -0.0085 -0.1837  0.2162
 1677W        W 5421   0.005   8.442   2.010  0.1700  0.0429 -0.1469
 1678W        W 5422   9.452   2.768   0.766 -0.2691 -0.1199  0.1101
 1679W        W 5423   6.381   2.976  10.365  0.0510  0.1788 -0.0414
 1680W        W 5424   7.787   3.457   9.638 -0.3785 -0.0819  0.0033
 1681W        W 5425   5.691   2.643  11.680  0.4966  0.1284  0.1657
 1682W        W 5426   0.102   3.882   3.059 -0.1152 -0.2513 -0.1098
 1683W        W 5427   3.019   5.477   8.658 -0.0856 -0.1344 -0.3611
 1684W        W 5428   1.804   0.740  10.213  0.1156 -0.0573 -0.0694
 1685W        W 5429   5.499   0.483  10.091 -0.0813 -0.2169  0.2127
 1686W        W 5430   0.418   7.801   1.264  0.0075 -0.1139 -0.2815
 1687W        W 5431   4.859   9.644  11.418  0.0791  0.2591 -0.1078
 1688W        W 5432   8.806   5.966   9.915 -0.1081 -0.1094 -0.1750
 1689W        W 5433   4.513   4.533   0.078  0.1921 -0.1244 -0.2450
 1690W        W 5434   0.886   7.024   1.574  0.0397 -0.5681  0.2024
 1691W        W 5435   4.726   3.504  10.305 -0.1428  0.0518 -0.0392
 1692W        W 5436   1.902   9.135  11.297  0.0757  0.1942  0.2131
 1693W        W 5437   1.163   0.401   0.143  0.1202  0.0283 -0.0740
 1694W        W 5438   7.015   4.035  12.695  0.2073 -0.1132  0.1013
 1695W        W 5439   5.988   1.353   9.868 -0.2292  0.0087 -0.0819
 1696W        W 5440   0.973   6.255   9.535 -0.0263  0.2692 -0.1129
 1697W        W 5441   7.754   2.395  12.310  0.1564  0.0875 -0.1804
 1698W        W 5442   4.721   5.400   1.299  0.2893  0.2971  0.1529
 1699W        W 5443   2.818   7.469   9.163 -0.0177  0.1309 -0.2141
 1700W        W 5444   7.496   7.157  11.719  0.3213  0.1149  0.2314
 1701W        W 5445   4.865   3.085   8.627 -0.3375  0.0084 -0.4596
 1702W        W 5446   6.359   1.681   8.753  0.0340 -0.1466  0.1502
 1703W        W 5447   5.866   5.440   1.939  0.0790  0.0384 -0.1833
 1704W        W 5448   4.757   0.330   2.229  0.1185  0.1720  0.1013
 1705W        W 5449   6.006   1.545   2.300 -0.0986  0.1346  0.2851
 1706W        W 5450   3.069   6.908   3.418  0.1781  0.1195  0.1014
 1707W        W 5451   2.293   6.228  10.262 -0.2236  0.1750 -0.0444
 1708W        W 5452   3.466   6.635   0.119  0.3593 -0.1904 -0.0268
 1709W        W 5453   1.449   8.736   0.727  0.0564  0.0066  0.3546
 1710W        W 5454   6.503   1.358   9.903  0.1427  0.0503 -0.2196
 1711W        W 5455   6.508   2.155  12.411  0.0188 -0.0536 -0.2482
 1712W        W 5456   9.084   4.803  12.509 -0.2498  0.3804  0.0378
 1713W        W 5457   5.985   7.326   4.725 -0.3108 -0.2455 -0.0371
 1714W        W 5458   9.315   1.295  12.390  0.1056  0.1110 -0.4514
 1715W        W 5459   0.661   1.794   1.299  0.0428 -0.5340 -0.0859
 1716W        W 5460   6.537   8.777  12.242  0.2496  0.0461  0.0713
 1717W        W 5461   7.195   3.055  11.707  0.0143 -0.1384 -0.1233
 1718W        W 5462   0.999   1.791  11.451 -0.0447 -0.1150  0.2818
 1719W        W 5463   1.804   7.343   0.222  0.1651 -0.0146  0.2346
 1720W        W 5464   1.463   4.279   0.802 -0.3350  0.2401 -0.2246
 1721W        W 5465   3.896   2.471   9.776 -0.0184  0.0146  0.4553
 1722W        W 5466   0.132   3.362   0.276 -0.0255  0.1069  0.0066
 1723W        W 5467   1.843   5.087   8.977 -0.2251  0.1634  0.0371
 1724W        W 5468   8.600   4.624  10.948 -0.1189 -0.2988 -0.0859
 1725W        W 5469   3.324   9.047   0.610  0.3271  0.1490 -0.1202
 1726W        W 5470   4.055   7.085   3.430  0.1148  0.1062  0.1464
 1727W        W 5471   2.688   8.517   1.992  0.1511  0.0930  0.2751
 1728W        W 5472   2.082   6.066  11.591 -0.0624  0.1651  0.1769
 1729W        W 5473   1.355   0.686   9.211  0.1560  0.2476 -0.0966
 1730W        W 5474   0.941   9.261   9.163  0.2356  0.0090 -0.0098
 1731W        W 5475   1.303   2.940   0.772 -0.0890  0.0721  0.1690
 1732W        W 5476   1.073   2.109   1.171 -0.0932  0.2658  0.2577
 1733W        W 5477   0.282   8.761  11.849 -0.1704  0.0942 -0.1319
 1734W        W 5478   3.246   9.423   2.308  0.0052 -0.0141 -0.2408
 1735W        W 5479   4.557   2.567   3.986 -0.2132 -0.2420 -0.2154
 1736W        W 5480   1.050   7.993   0.675  0.1973  0.0314 -0.0399
 1737W        W 5481   3.439   3.042   1.227  0.0364  0.4304  0.3395
 1738W        W 5482   1.349   4.280   3.282 -0.1899  0.1870 -0.2114
 1739W        W 5483   0.887   4.927   8.897 -0.1147  0.3775 -0.0317
 1740W        W 5484   0.053   7.371   3.203  0.1319  0.1248 -0.1050
 1741W        W 5485   2.907   7.277   1.782 -0.0645  0.0330 -0.0153
 1742W        W 5486   3.300   7.993   0.584  0.1161 -0.1010 -0.0608
 1743W        W 5487   8.207   7.506  10.463 -0.1399  0.0464 -0.0080
 1744W        W 5488   6.191   3.131   8.944 -0.3481  0.2045 -0.0923
 1745W        W 5489   0.167   7.526  11.307 -0.2204  0.0365 -0.0269
 1746W        W 5490   6.345   7.536   1.723  0.2824 -0.2471  0.2622
 1747W        W 5491   3.800   7.435   3.856 -0.0643 -0.4451 -0.0908
 1748W        W 5492   1.462   0.205   8.495 -0.1763 -0.0629 -0.0358
 1749W        W 5493   8.538   9.023   3.454  0.0373  0.1992  0.2855
 1750W        W 5494   8.990   5.454   2.058 -0.0674 -0.0986 -0.1163
 1751W        W 5495   7.776   9.348  12.332  0.1505 -0.0427 -0.0498
 1752W        W 5496   1.417   6.846   2.866 -0.1964 -0.2288  0.0405
 1753W        W 5497   0.715   2.685  11.335 -0.1121  0.2778  0.1609
 1754W        W 5498   1.740   9.756   8.695  0.0311 -0.0965  0.3487
 1755W        W 5499   1.536   5.296   2.640 -0.0523 -0.0042 -0.0130
 1756W        W 5500   9.196   7.248   2.387 -0.1851 -0.0700 -0.0717
 1757W        W 5501   5.238   6.395   0.460 -0.2117 -0.0091 -0.0262
 1758W        W 5502   5.551   3.268  10.675  0.2105  0.0967  0.0519
 1759W        W 5503   3.127   2.896   0.503 -0.3630  0.0818 -0.0596
 1760W        W 5504   6.404   5.502   1.247  0.1913 -0.0067 -0.1152
 1761W        W 5505   7.626   0.952   0.459  0.1811 -0.0367  0.0018
 1762W        W 5506   7.954   3.712   2.632  0.5662  0.0944 -0.2410
 1763W        W 5507   8.001   9.650  12.017 -0.4279 -0.3252 -0.0735
 1764W        W 5508   7.709   1.374   9.791 -0.1924  0.0078 -0.0401
 1765W        W 5509   8.213   7.329   3.313  0.2069  0.2054  0.0104
 1766W        W 5510   8.859   6.264   2.636 -0.3489 -0.0850  0.1514
 1767W        W 5511   4.402   0.034   0.020  0.1701  0.2790 -0.3067
 1768W        W 5512   5.643   7.208   2.534 -0.2773 -0.3534  0.0622
 1769W        W 5513   4.442   8.734   2.732 -0.0707  0.0567 -0.1545
 1770W        W 5514   8.360   9.136   0.018  0.1670 -0.0758  0.0291
 1771W        W 5515   7.374   5.794   4.802  0.0322  0.2084 -0.0207
 1772W        W 5516   2.000   6.721  10.217 -0.0138 -0.0796  0.0941
 1773W        W 5517   8.817   3.676  11.433  0.2765  0.0528  0.2387
 1774W        W 5518   2.848   6.564   1.144  0.0968 -0.2159  0.1961
 1775W        W 5519   7.696   6.700   3.527 -0.1407  0.2374  0.2044
 1776W        W 5520   6.209   7.883   1.353 -0.1001 -0.3485 -0.0843
 1777W        W 5521   7.809   3.549   4.023 -0.3745  0.0793 -0.2237
 1778W        W 5522   8.026   3.708  11.854  0.2755 -0.0491  0.0561
 1779W        W 5523   7.496   4.179  12.818  0.2784  0.0252 -0.2656
 1780W        W 5524   4.763   0.908   9.079  0.2161 -0.0080  0.0324
 1781W        W 5525   6.642   4.045  11.079 -0.1926  0.3175  0.0033
 1782W        W 5526   4.815   0.583  11.321 -0.1855 -0.2785 -0.1557
 1783W        W 5527   8.326   5.473  12.589  0.0819  0.0147 -0.0151
 1784W        W 5528   3.042   3.714  10.341  0.0758  0.0508 -0.0207
 1785W        W 5529   9.553   6.775  12.643  0.1753 -0.0281  0.2184
 1786W        W 5530   8.964   9.761   9.293 -0.0346  0.2350  0.0573
 1787W        W 5531   0.355   8.180   1.773 -0.2337 -0.3787 -0.0483
 1788W        W 5532   9.671   8.486   4.092  0.2727  0.3512 -0.3193
 1789W        W 5533   4.882   3.850   4.017 -0.1918 -0.1700  0.0885
 1790W        W 5534   4.363   8.304  10.753  0.1831 -0.0572 -0.1243
 1791W        W 5535   7.835   5.226   2.238 -0.2280 -0.0652 -0.0464
 1792W        W 5536   9.916   6.413  12.692  0.0692 -0.2457 -0.4005
 1793W        W 5537   1.940   2.336   0.899  0.0114 -0.1387  0.0368
 1794W        W 5538   5.671   4.056   3.427  0.1221  0.1812  0.1868
 1795W        W 5539   7.135   0.500   3.681 -0.0361 -0.1413  0.2494
 1796W        W 5540   2.620   4.351   4.088 -0.1870  0.3424  0.4515
 1797W        W 5541   8.232   8.490  12.248  0.2145 -0.1535 -0.0675
 1798W        W 5542   2.178   6.489  10.711  0.2809  0.1170  0.0620
 1799W        W 5543   0.755   5.848   0.736  0.0969 -0.2255 -0.2542
 1800W        W 5544   0.067   5.983   4.671  0.0087 -0.2262 -0.5491
 1801W        W 5545   6.235   3.771   0.271  0.1317  0.2786 -0.2132
 1802W        W 5546   6.898   0.547   2.725  0.1065  0.1214  0.2275
 1803W        W 5547   9.627   7.080  10.866 -0.0646 -0.1809 -0.2327
 1804W        W 5548   8.356   4.503   1.509  0.0449  0.1298 -0.0081
 1805W        W 5549   7.720   0.610   0.876 -0.1278  0.1614 -0.1003
 1806W        W 5550   4.602   6.298   9.418 -0.2001  0.0775 -0.5505
 1807W        W 5551   0.576   7.917   9.288 -0.1312  0.3902 -0.2929
 1808W        W 5552   6.705   4.837   3.053 -0.0506 -0.0905 -0.3228
 1809W        W 5553   3.288   5.652  10.729  0.2705  0.0645 -0.0317
 1810W        W 5554   4.876   8.778   9.180  0.0989 -0.1715 -0.0327
 1811W        W 5555   6.000   2.746   9.339  0.1022 -0.1399  0.3213
 1812W        W 5556   8.849   9.112   3.796 -0.0046 -0.0118 -0.2938
 1813W        W 5557   0.713   6.301   0.408  0.2016 -0.1830 -0.0451
 1814W        W 5558   4.750   4.396  10.518  0.0568 -0.0339  0.0056
 1815W        W 5559   7.254   0.870   9.262 -0.6165  0.3043 -0.3238
 1816W        W 5560   4.133   6.397   9.088  0.0837 -0.1227 -0.0817
 1817W        W 5561   4.921   1.181   1.401  0.1115 -0.0697  0.1331
 1818W        W 5562   2.077   6.729   0.076  0.1306  0.0851 -0.0308
 1819W        W 5563   3.414   5.107  11.323 -0.1512  0.1296  0.1880
 1820W        W 5564   6.267   8.684   5.089  0.0288  0.0945  0.1634
 1821W        W 5565   0.883   4.953   0.697 -0.0103  0.1926  0.3010
 1822W        W 5566   5.175   1.631   9.410  0.2444  0.2553 -0.0984
 1823W        W 5567   2.755   4.239   2.807 -0.0790  0.0332 -0.3318
 1824W        W 5568   2.274   5.630   3.571  0.1335 -0.3646  0.2253
 1825W        W 5569   3.655   9.071   8.391 -0.0227  0.1537  0.1870
 1826W        W 5570   9.453   6.516   0.653 -0.1985 -0.2792 -0.3674
 1827W        W 5571   9.034   3.575   2.130  0.0913  0.1467 -0.1794
 1828W        W 5572   8.216   7.184   0.926  0.0403 -0.0317  0.1177
 1829W        W 5573   5.864   0.949   0.908 -0.0137  0.0949  0.0896
 1830W        W 5574   0.185   9.526  11.469 -0.0450  0.1399 -0.1113
 1831W        W 5575   4.159   8.319  10.276 -0.0545 -0.1206 -0.0831
 1832W        W 5576   1.950   1.888  11.268 -0.3322  0.0296  0.1002
 1833W        W 5577   0.348   7.425   3.623 -0.1368  0.2685  0.0613
 1834W        W 5578   8.375   1.112   1.529 -0.2293 -0.0304 -0.2050
 1835W        W 5579   7.314   9.008   4.925 -0.1626  0.1461  0.2652
 1836W        W 5580   5.943   2.778  12.662 -0.0993 -0.0887  0.3234
 1837W        W 5581   6.000   2.603   3.884  0.1531 -0.2201 -0.0570
 1838W        W 5582   3.831   0.908  12.380 -0.0526  0.1844  0.1473
 1839W        W 5583   4.556   3.110  12.343  0.0112 -0.1155 -0.0383
 1840W        W 5584   3.762   7.965   2.531 -0.0386 -0.0708 -0.0826
 1841W        W 5585   5.193   6.676   2.979  0.0372  0.0091  0.4030
 1842W        W 5586   5.099   7.454   9.859 -0.1442 -0.2344 -0.0640
 1843W        W 5587   4.871   7.057  10.166 -0.1654 -0.3104 -0.0600
 1844W        W 5588   1.680   6.381  10.411  0.0136 -0.0089 -0.0999
 1845W        W 5589   3.186   3.825   9.878 -0.1638  0.1963 -0.1098
 1846W        W 5590   2.795   4.205  12.777 -0.2246 -0.0744  0.0153
 1847W        W 5591   5.599   4.860   3.209  0.2986 -0.0857  0.0184
 1848W        W 5592   9.496   3.968   3.375 -0.2117 -0.1262 -0.1906
 1849W        W 5593   4.561   7.531   4.162  0.2949 -0.2656 -0.0928
 1850W        W 5594   5.799   3.190  12.415  0.1365  0.1553  0.2952
 1851W        W 5595   1.844   1.631  10.813  0.3426 -0.0356  0.2217
 1852W        W 5596   9.354   6.243   2.650 -0.1622 -0.1832  0.0758
 1853W        W 5597   3.885   6.902   9.324 -0.1840 -0.0889 -0.2024
 1854W        W 5598   4.729   7.203   2.528  0.2355 -0.1936 -0.0494
 1855W        W 5599   5.092   5.291   2.558  0.0751 -0.0102  0.2352
 1856W        W 5600   6.991   8.872   9.683 -0.3934 -0.0927 -0.2666
 1857W        W 5601   5.607   6.855   4.272 -0.0861  0.1522  0.0063
 1858W        W 5602   7.541   2.180  12.747 -0.0346 -0.0603 -0.1639
 1859W        W 5603   3.889   4.402   1.759 -0.0449 -0.3483 -0.2104
 1860W        W 5604   7.178   2.702   2.353  0.2476  0.0431 -0.2508
 1861W        W 5605   2.242   3.575   0.224 -0.2494 -0.0341 -0.0828
 1862W        W 5606   8.801   4.628   8.996  0.2762  0.1465 -0.1475
 1863W        W 5607   7.903   0.939  12.099  0.1587 -0.1789  0.0227
 1864W        W 5608   4.830   5.822   9.500 -0.2013  0.1976  0.3048
 1865W        W 5609   3.216   9.011   1.237 -0.0621  0.0923 -0.1698
 1866W        W 5610   4.297   6.810  10.819 -0.1887 -0.4318  0.0350
 1867W        W 5611   3.447   9.430  11.856  0.0034  0.0585  0.0628
 1868W        W 5612   2.393   6.204   3.888 -0.1672 -0.0259  0.0011
 1869W        W 5613   1.111   4.787   9.348  0.1478 -0.4863  0.1347
 1870W        W 5614   9.782   8.965   2.388  0.1188  0.0891 -0.4825
 1871W        W 5615   8.885   4.200   1.243  0.0622  0.1316 -0.0051
 1872W        W 5616   5.358   4.633   0.349  0.2752  0.1694 -0.3188
 1873W        W 5617   4.316   3.101  11.403  0.0319 -0.0316 -0.1503
 1874W        W 5618   0.407   8.192  12.156 -0.4219  0.0088  0.0992
 1875W        W 5619   9.528   6.872   1.443  0.3070  0.0722 -0.0328
 1876W        W 5620   3.287   7.473   2.033 -0.2023 -0.2665  0.1361
 1877W        W 5621   1.206   9.616  11.096  0.3642  0.1960 -0.0684
 1878W        W 5622   8.693   9.718   1.645 -0.1949 -0.2661 -0.1264
 1879W        W 5623   7.026   5.638   8.660  0.0799  0.0911 -0.0856
 1880W        W 5624   3.323   0.550  12.027  0.1542  0.1816 -0.2100
 1881W        W 5625   6.605   4.537   0.102 -0.4903  0.0606 -0.0208
 1882W        W 5626   0.946   9.501   0.369  0.3812  0.1499  0.1377
 1883W        W 5627   5.855   1.455   1.296  0.0118 -0.0993 -0.2334
 1884W        W 5628   1.511   8.935   2.384 -0.1626  0.0877  0.0834
 1885W        W 5629   2.320   5.104   3.670  0.1458 -0.1127 -0.0018
 1886W        W 5630   7.410   3.621  10.409  0.1694  0.1420  0.1517
 1887W        W 5631   4.820   3.307   1.163 -0.1713 -0.1892 -0.3506
 1888W        W 5632   4.750   2.055   4.799 -0.2124 -0.0523  0.0927
 1889W        W 5633   2.971   3.486   2.287 -0.2139  0.0795  0.0720
 1890W        W 5634   2.831   0.342   9.861 -0.0597  0.0331 -0.0057
 1891W        W 5635   8.953   1.217  11.464 -0.2247  0.2662  0.0029
 1892W        W 5636   2.853   9.527   4.003  0.1570  0.0718 -0.1159
 1893W        W 5637   7.950   1.094   2.288 -0.0821 -0.1356  0.0352
 1894W        W 5638   5.026   8.862   3.506  0.2806 -0.0183 -0.0479
 1895W        W 5639   7.887   8.795   1.278  0.0156  0.1817 -0.0696
 1896W        W 5640   2.221   1.375   0.098  0.1198  0.1007  0.2082
 1897W        W 5641   7.419   0.241  12.819  0.1815  0.1356  0.1010
 1898W        W 5642   7.843   4.350   3.747  0.1204 -0.0284  0.3262
 1899W        W 5643   0.834   2.505   1.874  0.0346 -0.1841  0.0973
 1900W        W 5644   8.016   5.861   9.602 -0.1188  0.0537 -0.2969
 1901W        W 5645   7.942   1.975   3.140 -0.2315 -0.0831  0.0300
 1902W        W 5646   8.197   3.807   0.645  0.3004  0.0316  0.0965
 1903W        W 5647   8.214   9.825   8.174  0.0162  0.1365  0.0427
 1904W        W 5648   2.828   3.624   1.761 -0.0485 -0.0589  0.0940
 1905W        W 5649   8.337   0.097  10.048  0.2374  0.0519 -0.1392
 1906W        W 5650   5.515   8.174   9.496 -0.0794  0.0952 -0.2040
 1907W        W 5651   5.297   4.238   0.697  0.1367  0.0596  0.1656
 1908W        W 5652   8.633   1.093  12.844  0.0172  0.3639  0.0154
 1909W        W 5653   7.634   1.850   9.089 -0.2004 -0.0268  0.1621
 1910W        W 5654   6.670   7.670   9.028 -0.2837  0.5852  0.0580
 1911W        W 5655   7.234   7.514  10.333  0.1580  0.1559  0.1134
 1912W        W 5656   7.101   9.279   0.921  0.0769 -0.2660  0.1679
 1913W        W 5657   8.076   7.686   4.312  0.1887 -0.2236  0.1038
 1914W        W 5658   8.241   1.391   9.766 -0.2067  0.2351 -0.2091
 1915W        W 5659   6.303   9.461   9.624 -0.1517 -0.1251  0.2701
 1916W        W 5660   2.377   5.720  10.195 -0.1636  0.0212 -0.2926
 1917W        W 5661   0.147   1.307   1.765 -0.0155 -0.0162 -0.1902
 1918W        W 5662   0.334   8.063  11.183 -0.0974 -0.3173 -0.0386
 1919W        W 5663   6.214   8.643   9.091  0.0690  0.0952  0.2408
 1920W        W 5664   3.235   8.982   8.675 -0.0662  0.1862  0.1344
 1921W        W 5665   9.284   4.061   2.161 -0.3138 -0.1945 -0.0749
 1922W        W 5666   6.622   4.710   9.566 -0.0715  0.2649  0.0242
 1923W        W 5667   4.432   3.156   0.302  0.0980  0.0487  0.0657
 1924W        W 5668   2.831   4.700   0.685  0.0153 -0.1207 -0.1080
 1925W        W 5669   7.260   9.827   5.344 -0.1210  0.1222 -0.4807
 1926W        W 5670   0.277   9.031   9.188  0.3502  0.3721 -0.2673
 1927W        W 5671   2.379   4.259   2.380 -0.2540 -0.0118  0.0417
 1928W        W 5672   0.587   2.214   0.960 -0.0485  0.3472 -0.0679
 1929W        W 5673   4.429   4.214   0.497 -0.3191 -0.4115  0.5438
 1930W        W 5674   4.789   1.004   2.933 -0.0476  0.2657 -0.0216
 1931W        W 5675   8.365   2.248   1.775 -0.0787 -0.4788 -0.0347
 1932W        W 5676   2.834   9.043  12.649 -0.0702 -0.1119 -0.0541
 1933W        W 5677   8.416   9.917  12.103  0.0178  0.0814 -0.4333
 1934W        W 5678   8.167   3.860   0.109  0.1547  0.2631  0.0223
 1935W        W 5679   5.283   8.977   9.927  0.0355 -0.0638  0.3699
 1936W        W 5680   4.954   9.762   8.258 -0.2198  0.0127  0.2883
 1937W        W 5681   0.473   7.114  10.458  0.0521  0.0298 -0.3110
 1938W        W 5682   5.343   8.081  11.295 -0.0954  0.2303  0.2976
 1939W        W 5683   3.281   9.112   9.642 -0.1672  0.0320  0.0408
 1940W        W 5684   2.586   1.128   0.395 -0.0713  0.0221  0.0707
 1941W        W 5685   2.608   2.539   8.795 -0.0641  0.0362  0.1300
 1942W        W 5686   4.295   3.170   4.986  0.1005  0.2135  0.2217
 1943W        W 5687   2.085   9.352  11.751  0.2228 -0.0675 -0.1113
 1944W        W 5688   2.039   4.692   0.383 -0.1606  0.0777  0.0661
 1945W        W 5689   0.575   6.861  10.049  0.1620  0.0569 -0.1881
 1946W        W 5690   8.726   5.122   1.786 -0.0515  0.3359 -0.1536
 1947W        W 5691   1.642   7.574   9.904 -0.0746 -0.0573 -0.0461
 1948W        W 5692   4.348   7.526  11.657 -0.0187  0.1648  0.2781
 1949W        W 5693   1.166   9.729   2.634  0.1632 -0.2290  0.1898
 1950W        W 5694   1.205   6.284  10.568 -0.0348 -0.1303 -0.1587
 1951W        W 5695   5.956   6.050   4.497 -0.1714 -0.4262 -0.0796
 1952W        W 5696   1.061   5.125   9.755  0.0146 -0.2208  0.0542
 1953W        W 5697   2.221   0.881  12.863 -0.1316 -0.0665 -0.1791
 1954W        W 5698   6.808   5.845  10.952  0.1247  0.1070  0.1437
 1955W        W 5699   6.071   3.628   2.891  0.2295 -0.1322  0.0111
 1956W        W 5700   2.313   6.536   1.212  0.0595 -0.1130  0.1817
 1957W        W 5701   1.143   4.025   2.542  0.2290  0.2803  0.1716
 1958W        W 5702   3.345   6.949   1.794  0.1877 -0.3224  0.1808
 1959W        W 5703   9.026   5.146  11.353 -0.0656 -0.0569  0.2747
 1960W        W 5704   9.019   9.401  10.158  0.1914 -0.5013 -0.1264
 1961W        W 5705   6.399   8.060   3.903  0.2291 -0.1539  0.1148
 1962W        W 5706   8.444   4.447  12.507 -0.0190  0.0510 -0.2712
 1963W        W 5707   7.140   8.903   1.910  0.0103  0.0929  0.0139
 1964W        W 5708   9.007   4.643  10.215  0.1082  0.2291 -0.1958
 1965W        W 5709   8.164   1.370  12.737  0.0802 -0.1886 -0.1339
 1966W        W 5710   6.647   4.329   4.205 -0.2172  0.0757 -0.1111
 1967W        W 5711   7.943   9.366   2.991 -0.2971  0.1843 -0.2110
 1968W        W 5712   2.747   6.019  10.243  0.1269  0.0005  0.2137
 1969W        W 5713   3.790   6.850   3.889 -0.4427  0.0589 -0.1619
 1970W        W 5714   3.618   1.594  10.337  0.2551  0.0832 -0.2964
 1971W        W 5715   9.778   6.545  11.011  0.4299 -0.1718 -0.2219
 1972W        W 5716   6.521   4.696   1.562  0.0523  0.3127 -0.1560
 1973W        W 5717   6.071   1.514   1.745 -0.3494 -0.0328  0.0657
 1974W        W 5718   5.851   2.927  10.421 -0.1736  0.2434 -0.2912
 1975W        W 5719   4.901   4.263   3.200  0.0618 -0.0422 -0.1869
 1976W        W 5720   4.337   7.879  10.339  0.2325  0.1438 -0.1696
 1977W        W 5721   7.888   5.015   0.901 -0.3200  0.1661 -0.1788
 1978W        W 5722   2.113   0.361   0.585 -0.2438 -0.0189 -0.2334
 1979W        W 5723   0.395   9.803   1.251 -0.1215  0.2321 -0.1503
 1980W        W 5724   4.987   0.696  11.952  0.0247  0.2724  0.2753
 1981W        W 5725   3.613   1.038   4.217  0.0842  0.0209  0.3037
 1982W        W 5726   3.971   3.374   9.276  0.0246  0.0987 -0.1780
 1983W        W 5727   6.153   0.296   3.475 -0.3361 -0.0197 -0.2351
 1984W        W 5728   3.823   0.376  12.330  0.4217  0.3432  0.0758
 1985W        W 5729   1.221   5.109   4.565  0.0649  0.2812  0.0565
 1986W        W 5730   4.428   6.798   0.220 -0.1701  0.0288  0.0785
 1987W        W 5731   0.024   4.326   2.726  0.2632  0.1819  0.2208
 1988W        W 5732   7.298   5.498  12.227  0.0860 -0.2069 -0.0260
 1989W        W 5733   7.597   0.719  11.689 -0.0979 -0.1772 -0.0595
 1990W        W 5734   8.949   6.562   1.535  0.1615 -0.2358  0.0668
 1991W        W 5735   6.171   5.923   2.369 -0.0733  0.5396 -0.3736
 1992W        W 5736   7.037   0.692   9.736 -0.1691  0.1251 -0.2625
 1993W        W 5737   8.592   3.695   0.278 -0.2417  0.1005 -0.4498
 1994W        W 5738   8.820   3.288   3.611 -0.0411  0.0215 -0.2870
 1995W        W 5739   4.443   7.582   2.250  0.0253 -0.1279  0.0851
 1996W        W 5740   2.107   8.120  10.027  0.0691 -0.3389  0.2263
 1997W        W 5741   3.471   3.411  10.350 -0.1096 -0.2217 -0.0221
 1998W        W 5742   6.230   2.909   1.010  0.2583 -0.5123  0.2088
 1999W        W 5743   9.434   3.635   1.727 -0.0729  0.1955 -0.3642
 2000W        W 5744   7.716   4.248  11.827 -0.1245 -0.1484 -0.0837
 2001W        W 5745   0.143   8.302   2.898 -0.2260 -0.1818 -0.0143
 2002W        W 5746   5.060   3.915   9.728  0.0294  0.2206 -0.0700
 2003W        W 5747   3.804   0.751   0.062 -0.2239  0.0564  0.2162
 2004W        W 5748   5.611   4.526   1.438 -0.0490 -0.0233  0.0978
 2005W        W 5749   2.340   6.722   0.593 -0.2304  0.3713 -0.1756
 2006W        W 5750   7.950   1.404   1.911 -0.2338  0.3409 -0.0597
 2007W        W 5751   1.797   8.334   9.275  0.0566  0.0941  0.0269
 2008W        W 5752   4.005   8.417  11.100 -0.0805 -0.3427  0.1844
 2009W        W 5753   7.877   9.264  10.922 -0.1491  0.1916 -0.0190
 2010W        W 5754   6.843   4.338   3.690  0.2541  0.2371  0.1128
 2011W        W 5755   4.430   5.514   3.018  0.0154  0.0471 -0.1703
 2012W        W 5756   4.024   5.570   1.295 -0.3782 -0.0177  0.0622
 2013W        W 5757   0.265   6.547  10.334 -0.0385  0.1480  0.4150
 2014W        W 5758   4.402   8.775   7.902 -0.1649  0.2597 -0.1745
 2015W        W 5759   3.792   1.338   1.813  0.1508  0.3119 -0.3110
 2016W        W 5760   4.725   0.148   2.913  0.0195 -0.3204 -0.3128
 2017W        W 5761   7.975   2.412   0.376 -0.0339 -0.0264 -0.0996
 2018W        W 5762   3.035   1.030   1.814  0.0286 -0.1821 -0.0350
 2019W        W 5763   4.734   5.162  11.602  0.2380  0.0321  0.1689
 2020W        W 5764   6.421   0.416   8.330 -0.2258 -0.1877  0.0620
 2021W        W 5765   5.963   6.464   9.310 -0.4255 -0.1904 -0.3026
 2022W        W 5766   5.779   4.431   9.024 -0.0036 -0.1784 -0.1009
 2023W        W 5767   0.197   3.858   2.526 -0.1529  0.2002  0.0483
 2024W        W 5768   1.082   2.405  11.465 -0.0913  0.1354  0.2952
 2025W        W 5769   7.035   8.589  11.668 -0.4202  0.1512 -0.0953
 2026W        W 5770   8.651   4.122   4.372 -0.1646 -0.0358  0.2813
 2027W        W 5771   7.907   0.174   1.022  0.2972  0.2708  0.1416
 2028W        W 5772   5.725   4.053   4.708 -0.2996 -0.0218 -0.1784
 2029W        W 5773   7.677   1.257   0.906 -0.1430  0.2959 -0.0738
 2030W        W 5774   8.430   0.615  10.911  0.0048 -0.1307  0.1633
 2031W        W 5775   7.396   1.586   2.910  0.0642  0.1641 -0.0634
 2032W        W 5776   5.834   7.776   9.319  0.1287  0.1672  0.1089
 2033W        W 5777   5.980   8.878   3.486  0.1494  0.0423 -0.0006
 2034W        W 5778   3.111   0.979   3.261  0.1932  0.0369  0.0468
 2035W        W 5779   8.772   2.246   2.530 -0.1392 -0.2641  0.2310
 2036W        W 5780   0.320   6.790   9.324  0.1539 -0.1292  0.0318
 2037W        W 5781   5.847   6.047  12.731  0.1233 -0.1752  0.0289
 2038W        W 5782   2.883   7.684   4.844 -0.3458  0.2568  0.0839
 2039W        W 5783   9.683   6.560  10.153 -0.2021 -0.1401  0.0639
 2040W        W 5784   3.404   4.173   8.947  0.2588 -0.0750 -0.0954
 2041W        W 5785   9.139   3.332  10.936  0.2885  0.0190 -0.2003
 2042W        W 5786   3.130   2.776   1.533 -0.3083  0.2559 -0.0451
 2043W        W 5787   8.773   8.432   5.024  0.0237  0.1314 -0.1149
 2044W        W 5788   6.937   1.355   3.016 -0.0013  0.2250 -0.0276
 2045W        W 5789   7.508   1.158  11.894  0.1426 -0.3040 -0.1497
 2046W        W 5790   3.818   0.705  10.489 -0.2923  0.0132  0.0078
 2047W        W 5791   5.506   5.318  11.383 -0.0807 -0.0998  0.1266
 2048W        W 5792   2.662   7.972   3.356 -0.4052 -0.1465  0.0055
 2049W        W 5793   8.025   1.041   9.991  0.0236 -0.1072  0.3238
 2050W        W 5794   4.822   5.729   9.002 -0.0084 -0.2800 -0.0620
 2051W        W 5795   1.218   7.064   9.089  0.0257  0.5080 -0.2112
 2052W        W 5796   0.701   7.228   0.392  0.2831 -0.0836 -0.1946
 2053W        W 5797   8.918   0.148   0.270  0.0485 -0.2619  0.0655
 2054W        W 5798   5.499   9.216   1.723  0.2649  0.1004 -0.1275
 2055W        W 5799   2.809   6.443   3.421 -0.2289 -0.1700  0.2309
 2056W        W 5800   6.483   1.922   0.046 -0.1177  0.1050  0.1805
 2057W        W 5801   4.102   1.435  11.324 -0.1144  0.0227  0.0563
 2058W        W 5802   5.384   0.247   8.792 -0.0068  0.1043  0.1043
 2059W        W 5803   4.812   5.133   2.966 -0.2703  0.0163 -0.0563
 2060W        W 5804   2.465   3.855   2.619  0.1400 -0.1156  0.0540
 2061W        W 5805   0.419   3.276   1.517  0.1917 -0.0663  0.1845
 2062W        W 5806   2.844   6.416   3.935 -0.3083  0.0295  0.1518
 2063W        W 5807   7.978   7.276   1.720  0.4967  0.2072  0.1490
 2064W        W 5808   8.214   3.994   3.621 -0.1675 -0.2205  0.5682
 2065W        W 5809   0.288   6.506   0.228 -0.1317  0.0039  0.1496
 2066W        W 5810   4.889   6.751  10.698  0.1218  0.3238  0.2222
 2067W        W 5811   3.609   6.278   8.776 -0.0047 -0.1544  0.1524
 2068W        W 5812   2.633   6.869   3.654  0.0653 -0.0313  0.0800
 2069W        W 5813   3.824   3.896  10.673  0.2630  0.4518  0.2173
 2070W        W 5814   1.353   6.051  12.768  0.0667 -0.0963  0.2325
 2071W        W 5815   4.130   9.672   9.467 -0.3651  0.3733  0.2499
 2072W        W 5816   0.979   7.317   2.943  0.1085 -0.0761  0.0161
 2073W        W 5817   1.546   1.230   2.208  0.0846 -0.1447 -0.0253
 2074W        W 5818   7.752   7.680   0.050  0.3743  0.0395  0.1090
 2075W        W 5819   2.057   5.835  11.075  0.2532  0.3332  0.1501
 2076W        W 5820   3.695   6.769  12.591 -0.4550  0.1556  0.3103
 2077W        W 5821   3.011   6.467   2.045 -0.0511  0.2285 -0.2236
 2078W        W 5822   0.754   5.817   0.224  0.1841  0.2743  0.2030
 2079W        W 5823   0.397   7.309   1.596  0.0399 -0.0209  0.3446
 2080W        W 5824   2.418   5.456  11.318 -0.1602  0.1592  0.1675
 2081W        W 5825   9.639   6.534  12.129  0.1793  0.0576  0.0017
 2082W        W 5826   1.052   5.092   2.649 -0.1607  0.0146  0.3907
 2083W        W 5827   0.582   6.824   2.150 -0.3223  0.0726  0.0710
 2084W        W 5828   0.058   5.201  11.350  0.0408  0.0598 -0.1284
 2085W        W 5829   9.367   9.502   1.090 -0.0881 -0.3277 -0.5019
 2086W        W 5830   3.434   8.462   7.985 -0.0735 -0.2272 -0.0117
 2087W        W 5831   3.554   6.007   8.353  0.1691  0.0747 -0.0292
 2088W        W 5832   6.416   6.663   9.215  0.0760 -0.1612  0.0465
 2089W        W 5833   8.390   9.471   2.370 -0.4354  0.0416 -0.2617
 2090W        W 5834   6.358   5.062  11.313  0.0184 -0.4141  0.0983
 2091W        W 5835   9.835   7.240   9.530 -0.0667  0.0002  0.4444
 2092W        W 5836   0.350   4.244   3.837 -0.1652  0.3531  0.0006
 2093W        W 5837   5.535   8.808  10.379  0.2154  0.1054 -0.2789
 2094W        W 5838   7.543   0.435   0.376 -0.1742 -0.1056 -0.0494
 2095W        W 5839   6.116   7.168   9.868 -0.0830 -0.1448  0.1929
 2096W        W 5840   1.429   7.611   9.363 -0.0052  0.2762 -0.1527
 2097W        W 5841   3.898   7.426  11.384  0.2785  0.0726  0.1784
 2098W        W 5842   4.270   2.075   3.758 -0.2130  0.1793  0.2484
 2099W        W 5843   0.951   3.572   3.430  0.3284 -0.0027 -0.1492
 2100W        W 5844   8.437   4.968   8.798  0.0508 -0.2662 -0.0582
 2101W        W 5845   0.937   8.520   1.404 -0.0961 -0.0580 -0.0096
 2102W        W 5846   8.083   8.572   9.787 -0.1646  0.4853 -0.1662
 2103W        W 5847   6.849   6.356   9.133  0.0048 -0.2345  0.3219
 2104W        W 5848   9.206   0.691   9.384  0.0422 -0.2855 -0.0471
 2105W        W 5849   8.041   2.759  11.916  0.0841 -0.1795 -0.2767
 2106W        W 5850   5.719   7.296  12.539 -0.0065  0.0647  0.1111
 2107W        W 5851   2.772   7.566  10.700 -0.2277  0.0212 -0.2667
 2108W        W 5852   6.788   6.699  10.585  0.2415 -0.1891  0.1282
 2109W        W 5853   7.892   0.521  10.877 -0.2595  0.1022  0.1109
 2110W        W 5854   7.572   3.898   2.898 -0.0789  0.2504 -0.1185
 2111W        W 5855   9.641   6.011   3.007  0.2307 -0.2694 -0.2463
 2112W        W 5856   9.707   1.743   1.813 -0.0899 -0.0668 -0.1144
 2113W        W 5857   6.363   1.657  12.415 -0.0139 -0.4283 -0.0951
 2114W        W 5858   5.334   7.017   5.147  0.0164 -0.2321 -0.1838
 2115W        W 5859   6.380   6.203   4.696  0.0667  0.2143 -0.0612
 2116W        W 5860   8.288   2.734  12.317 -0.2857 -0.2791 -0.2553
 2117W        W 5861   5.135   4.469   2.419  0.2676  0.0419  0.0386
 2118W        W 5862   9.758   2.661  10.641  0.1927 -0.1679 -0.2018
 2119W        W 5863   6.149   3.768  11.074  0.1917 -0.3347  0.0492
 2120W        W 5864   5.000   5.001  12.449  0.3043  0.0864  0.0980
 2121W        W 5865   0.521   6.879   8.844  0.0470  0.0547 -0.0073
 2122W        W 5866   0.980   4.037  12.338 -0.0816 -0.1045  0.2370
 2123W        W 5867   1.982   6.922   3.505 -0.0408  0.0566 -0.2129
 2124W        W 5868   5.395   9.720   8.448 -0.0586  0.0044 -0.1228
 2125W        W 5869   3.200   3.565   3.757 -0.1244 -0.0576 -0.1488
 2126W        W 5870   7.060   4.911  12.330 -0.1284 -0.2269  0.1922
 2127W        W 5871   9.475   4.455   2.498  0.0618  0.0043  0.0922
 2128W        W 5872   6.688   6.519   9.698 -0.2546  0.1854  0.1451
 2129W        W 5873   6.090   8.792   0.099 -0.0710 -0.1001 -0.0820
 2130W        W 5874   7.154   0.763   8.239  0.1526 -0.0367 -0.0879
 2131W        W 5875   5.512   3.149   3.308  0.1481 -0.0433 -0.1010
 2132W        W 5876   9.897   3.502   1.597  0.1166  0.1414  0.4358
 2133W        W 5877   7.382   8.562   1.510 -0.0881  0.1270  0.0784
 2134W        W 5878   6.599   3.357   1.023  0.1252 -0.1067  0.0934
 2135W        W 5879   7.317   6.549   3.751 -0.1352  0.1738 -0.0153
 2136W        W 5880   8.988   3.365   2.603  0.0699 -0.0228  0.0543
 2137W        W 5881   8.352   6.024   3.832 -0.1943  0.2091 -0.0045
 2138W        W 5882   8.997   8.802   1.099  0.0197 -0.0412  0.0286
 2139W        W 5883   1.398   6.396   1.823 -0.1384 -0.3318 -0.3961
 2140W        W 5884   4.866   0.850   1.847  0.0629  0.2878 -0.0987
 2141W        W 5885   0.403   3.880   0.141  0.1718  0.2026 -0.1628
 2142W        W 5886   3.000   2.945   1.014 -0.0444 -0.1711  0.1131
 2143W        W 5887   3.603   3.578   9.912 -0.0823 -0.2915  0.0794
 2144W        W 5888   1.963   4.174   4.672  0.1150  0.1174  0.0654
 2145W        W 5889   8.392   1.777   1.975  0.1125 -0.1257  0.3074
 2146W        W 5890   4.096   5.491   9.112  0.2494  0.2447  0.3610
 2147W        W 5891   5.344   3.664   9.339  0.2600  0.1143 -0.1889
 2148W        W 5892   0.277   4.752   1.413 -0.0814 -0.0152 -0.0105
 2149W        W 5893   7.249   8.802  12.407 -0.0479  0.1426 -0.0366
 2150W        W 5894   4.164   3.635  11.079  0.0839 -0.1295 -0.3402
 2151W        W 5895   8.270   7.337   2.729  0.1451 -0.2105  0.1413
 2152W        W 5896   0.159   4.022   9.886  0.2697 -0.0409  0.0347
 2153W        W 5897   3.962   0.178   9.288  0.1948  0.2259  0.1802
 2154W        W 5898   6.838   3.009   9.502  0.0744 -0.1312  0.3741
 2155W        W 5899   4.128   0.526  11.989 -0.0105  0.0848 -0.1628
 2156W        W 5900   2.592   0.797   1.416  0.2377  0.1868  0.0034
 2157W        W 5901   4.924   6.719   0.108 -0.1865 -0.0133  0.0750
 2158W        W 5902   8.951   5.283  12.216 -0.1792 -0.0544  0.0721
 2159W        W 5903   9.313   6.288   3.906 -0.1079 -0.0274 -0.1572
 2160W        W 5904   9.108   3.049   1.971  0.0978  0.0517 -0.1223
 2161W        W 5905   0.032   7.022   1.259 -0.0659  0.0085  0.0477
 2162W        W 5906   5.462   6.744  10.963  0.0333  0.2023  0.1377
 2163W        W 5907   7.731   0.906   9.329  0.1188  0.1669 -0.1329
 2164W        W 5908   1.218   7.588   0.987  0.1474 -0.1133  0.1494
 2165W        W 5909   8.977   4.853   4.708  0.2376 -0.1265  0.0869
 2166W        W 5910   3.449   8.747   3.655  0.0895 -0.2373  0.2670
 2167W        W 5911   8.437   3.219  12.597  0.0470 -0.5526 -0.0678
 2168W        W 5912   5.167   3.032   2.931 -0.0978  0.1752  0.0135
 2169W        W 5913   9.086   6.891   3.099  0.0180 -0.1293  0.1090
 2170W        W 5914   6.825   6.274   3.867 -0.1752  0.4079 -0.1571
 2171W        W 5915   5.324   5.741  11.675 -0.1195  0.1732 -0.0976
 2172W        W 5916   1.486   0.357  10.094 -0.1591  0.6266  0.1270
 2173W        W 5917   3.504   0.912   2.282  0.0114  0.2356  0.2212
 2174W        W 5918   5.488   0.760   4.410  0.3626  0.0984  0.0832
 2175W        W 5919   0.146   6.102   9.155  0.1715  0.1841 -0.3662
 2176W        W 5920   3.577   6.071   3.259 -0.0893 -0.3585 -0.1449
 2177W        W 5921   8.933   6.030   1.408  0.0995 -0.0519  0.0591
 2178W        W 5922   1.634   5.539  12.113 -0.1215 -0.0284  0.0805
 2179W        W 5923   2.722   5.622   1.956 -0.2407 -0.3370  0.2419
 2180W        W 5924   0.501   4.244   2.499 -0.0635  0.0935  0.0175
 2181W        W 5925   1.174   2.207   2.054 -0.1733  0.0441  0.0103
 2182W        W 5926   5.941   1.315  12.669  0.0945  0.0284 -0.1594
 2183W        W 5927   1.657   1.981   2.747 -0.1224 -0.1335 -0.0482
 2184W        W 5928   4.463   1.853  10.035 -0.1002 -0.3202 -0.1928
 2185W        W 5929   4.572   2.060   3.279  0.0246 -0.1174  0.0564
 2186W        W 5930   8.009   7.215  11.863  0.1689 -0.3517 -0.0779
 2187W        W 5931   7.122   0.351   9.324  0.0415 -0.0350  0.0835
 2188W        W 5932   6.618   2.900   0.553  0.2967 -0.0763 -0.1830
 2189W        W 5933   8.352   2.496   3.251  0.0081 -0.1221 -0.1442
 2190W        W 5934   3.086   3.814   0.417  0.2644  0.0469  0.3288
 2191W        W 5935   0.970   6.925   3.764 -0.2547 -0.1704 -0.2097
 2192W        W 5936   4.897   3.929  11.286 -0.3711  0.3267 -0.0692
 2193W        W 5937   0.279   3.693  10.220  0.1479 -0.1304 -0.1874
 2194W        W 5938   0.202   5.523   4.647 -0.1364 -0.1017  0.1402
 2195W        W 5939   8.608   9.468   1.018  0.0754  0.0176  0.1766
 2196W        W 5940   2.654   7.821  11.522 -0.1303  0.2770 -0.0395
 2197W        W 5941   6.799   2.684   2.732 -0.1307 -0.2694  0.0643
 2198W        W 5942   0.917   4.540   8.169 -0.1609  0.1207 -0.1328
 2199W        W 5943   8.706   2.900   3.276  0.1138  0.0352 -0.2949
 2200W        W 5944   9.701   0.848   3.573 -0.0725  0.2187  0.2068
 2201W        W 5945   8.359   1.330   3.279  0.0099  0.2636 -0.0567
 2202W        W 5946   5.360   5.219   8.358  0.2592  0.0837 -0.0987
 2203W        W 5947   6.797   1.633   1.008  0.1072  0.1685 -0.1042
 2204W        W 5948   4.546   3.607  11.518  0.1419  0.0032  0.1993
 2205W        W 5949   4.243   8.472  12.601  0.2305  0.0806 -0.2311
 2206W        W 5950   1.778   6.072   4.909  0.2321 -0.3988  0.1317
 2207W        W 5951   3.693   9.174   3.333 -0.0520 -0.1596 -0.1039
 2208W        W 5952   7.814   3.349  10.198 -0.0602  0.2018  0.0583
 2209W        W 5953   4.900   3.192   2.025 -0.2548  0.1674 -0.0242
 2210W        W 5954   9.049   9.741   0.640  0.0673  0.1240 -0.1858
 2211W        W 5955   9.396   2.628  12.518 -0.2468 -0.0034 -0.1683
 2212W        W 5956   1.102   3.485   3.918  0.1667 -0.2869  0.2435
 2213W        W 5957   6.795   5.438   1.901  0.0293  0.3123  0.1546
 2214W        W 5958   6.185   5.049   4.017  0.1601  0.0984  0.0899
 2215W        W 5959   2.363   1.085   3.633  0.0678 -0.1571  0.1641
 2216W        W 5960   5.054   8.915  11.120  0.1186  0.0391 -0.2621
 2217W        W 5961   7.809   8.416   3.783 -0.1161 -0.1367  0.0789
 2218W        W 5962   9.340   9.933   3.899 -0.1114  0.1092 -0.2046
 2219W        W 5963   4.422   7.974   1.086 -0.2908  0.0423  0.0013
 2220W        W 5964   1.211   7.443   1.650  0.2226 -0.0324  0.1818
 2221W        W 5965   9.379   7.517   1.411 -0.0598 -0.1435  0.0964
 2222W        W 5966   2.553   4.033  11.771  0.2117  0.1194 -0.0720
 2223W        W 5967   7.119   6.544   2.672 -0.1175  0.0409  0.2481
 2224W        W 5968   1.020   3.386  11.815 -0.0413 -0.2133 -0.1101
 2225W        W 5969   9.527   7.593   2.902 -0.0582 -0.0490 -0.0250
 2226W        W 5970   8.757   7.282   9.727  0.0831  0.0385  0.0533
 2227W        W 5971   4.628   2.763  11.976  0.2363 -0.1487  0.2774
 2228W        W 5972   2.839   7.680   2.964 -0.1640  0.4789 -0.0801
 2229W        W 5973   3.236   5.816   9.752 -0.2890  0.2085 -0.2721
 2230W        W 5974   7.507   0.372   4.006  0.4523 -0.1281 -0.0490
 2231W        W 5975   9.418   0.048   2.944  0.1075  0.3003 -0.0098
 2232W        W 5976   9.168   5.658  11.301 -0.2263  0.0208 -0.0696
 2233W        W 5977   6.398   2.142  11.390 -0.3282  0.1645 -0.0238
 2234W        W 5978   5.096   6.465   9.495  0.2232  0.3933  0.1094
 2235W        W 5979   5.107   7.326   0.087 -0.1423  0.0896  0.0073
 2236W        W 5980   2.348   2.973  10.402 -0.1532  0.0556  0.4338
 2237W        W 5981   3.829   4.746  10.559 -0.1773 -0.0276  0.1315
 2238W        W 5982   3.275   8.175   1.399 -0.0002 -0.1882  0.2897
 2239W        W 5983   8.296   0.021   2.226 -0.0488  0.1867 -0.1497
 2240W        W 5984   5.315   4.822   4.340 -0.0728  0.0694 -0.0915
 2241W        W 5985   2.281   1.156   1.790 -0.1453 -0.0340 -0.0240
 2242W        W 5986   6.601   8.559   4.033  0.3086  0.0758 -0.3029
 2243W        W 5987   3.459   6.647   2.156 -0.0602  0.1498 -0.2666
 2244W        W 5988   0.653   0.970  11.641 -0.3669  0.0595  0.0335
 2245W        W 5989   1.368   1.625  11.709  0.3630  0.0913  0.1013
 2246W        W 5990   4.414   5.603  10.409  0.2303 -0.1380 -0.2933
 2247W        W 5991   2.325   1.701   1.757  0.0290 -0.1016 -0.0315
 2248W        W 5992   7.569   0.509   9.608 -0.1615  0.0216  0.1470
 2249W        W 5993   6.143   9.563  12.690  0.1930 -0.2909 -0.0874
 2250W        W 5994   2.228   6.364   2.925  0.0514 -0.0197 -0.1428
 2251W        W 5995   3.250   9.918   1.694 -0.1004 -0.1046  0.0386
 2252W        W 5996   2.877   7.557   9.732  0.0068  0.3541 -0.1239
 2253W        W 5997   4.245   6.649   3.557  0.0040 -0.1017 -0.1436
 2254W        W 5998   7.973   1.407  10.824 -0.2051  0.0710  0.0829
 2255W        W 5999   1.143   1.243  11.438  0.0159 -0.0348  0.1951
 2256W        W 6000   5.652   5.123   3.973  0.0597  0.0493  0.0629
 2257W        W 6001   8.941   8.259  11.021 -0.0656  0.2955  0.0401
 2258W        W 6002   5.095   8.627  11.522  0.0550 -0.0403 -0.0288
 2259W        W 6003   7.314   3.622   2.067 -0.0999 -0.2852 -0.1799
 2260W        W 6004   9.150   7.315   0.986  0.0044 -0.0794 -0.0468
 2261W        W 6005   2.896   7.013   0.786 -0.1054 -0.1895 -0.1109
 2262W        W 6006   7.020   1.984  12.612 -0.1113  0.2361 -0.0455
 2263W        W 6007   3.337   1.307   2.054 -0.3499 -0.0090 -0.0302
 2264W        W 6008   3.578   3.572  11.128  0.0537  0.0210  0.1532
 2265W        W 6009   1.880   4.303  11.632 -0.0049  0.1682  0.2026
 2266W        W 6010   3.366   9.658   3.286 -0.1049 -0.0245  0.0997
 2267W        W 6011   3.519   4.602   1.538 -0.0108 -0.0698 -0.0346
 2268W        W 6012   1.422   6.561   8.637  0.0992 -0.0777 -0.1901
 2269W        W 6013   8.567   7.754  12.469 -0.1512  0.2486  0.0134
 2270W        W 6014   3.996   1.214  10.403  0.2601 -0.2901  0.0190
 2271W        W 6015   6.706   3.909   8.642  0.0429  0.1723  0.1102
 2272W        W 6016   1.032   5.444  10.860  0.1889  0.1411 -0.0993
 2273W        W 6017   8.983   7.379   9.259  0.1507  0.3843 -0.0482
 2274W        W 6018   6.483   2.704   9.210  0.0025  0.1495 -0.1561
 2275W        W 6019   2.987   6.448  12.786  0.1339  0.1906  0.0817
 2276W        W 6020   4.435   4.532   2.516  0.0384  0.5255  0.0766
 2277W        W 6021   2.654   2.577   0.815 -0.2153  0.2729  0.1413
 2278W        W 6022   2.929   6.042   1.500 -0.4743  0.3369  0.3242
 2279W        W 6023   7.479   5.278   4.659  0.3497 -0.0406 -0.1217
 2280W        W 6024   0.940   7.317  10.520 -0.0261  0.0455 -0.0845
 2281W        W 6025   8.403   7.612  10.907  0.1829  0.1467  0.2091
 2282W        W 6026   4.343   5.085   2.035  0.0863 -0.0800  0.0373
 2283W        W 6027   3.808   2.370   1.010  0.2267  0.1701  0.1924
 2284W        W 6028   2.007   4.505   2.589 -0.3754  0.1621 -0.0269
 2285W        W 6029   2.829   5.610  11.042  0.1776 -0.0116  0.1098
 2286W        W 6030   4.027   0.375  10.158 -0.0852 -0.2214 -0.2959
 2287W        W 6031   9.658   6.674   3.825  0.0793 -0.0700  0.1713
 2288W        W 6032   5.726   4.975   1.793  0.1752 -0.0226 -0.0922
 2289W        W 6033   0.062   4.727   3.131 -0.3509  0.1345  0.0132
 2290W        W 6034   6.057   1.056  10.731 -0.1609 -0.1062 -0.2934
 2291W        W 6035   7.737   2.084   4.004 -0.2084 -0.0255  0.2031
 2292W        W 6036   5.205   8.594  12.050 -0.0907  0.1687  0.1178
 2293W        W 6037   4.081   8.030   9.874  0.1072  0.1938  0.0024
 2294W        W 6038   4.333   9.702   8.960 -0.0663  0.0291 -0.2435
 2295W        W 6039   5.767   5.889  11.663  0.1660 -0.1841  0.0858
 2296W        W 6040   7.891   2.498   3.090  0.1246  0.0666 -0.1657
 2297W        W 6041   4.806   5.266   0.118 -0.2224  0.0573 -0.0488
 2298W        W 6042   1.961   5.565   4.421 -0.1754 -0.1445 -0.2104
 2299W        W 6043   4.204   4.284   9.397 -0.0713  0.1259  0.0878
 2300W        W 6044   5.151   8.901   0.500  0.0044 -0.0683  0.2898
 2301W        W 6045   6.972   6.457  11.500 -0.0343  0.2435 -0.5121
 2302W        W 6046   5.102   7.915   8.548  0.0561 -0.2620  0.2132
 2303W        W 6047   1.103   8.465  11.470 -0.1837  0.4547 -0.3979
 2304W        W 6048   6.047   1.685  11.671 -0.3671 -0.0305 -0.2011
 2305W        W 6049   1.097   6.516   2.277 -0.1220 -0.2171  0.0676
 2306W        W 6050   6.007   0.331   3.001 -0.1930 -0.3444  0.0119
 2307W        W 6051   8.882   1.037   1.542 -0.2286 -0.1736 -0.0964
 2308W        W 6052   7.027   1.354  11.844 -0.0867  0.2672  0.1921
 2309W        W 6053   0.040   0.401   3.568 -0.1541 -0.0916 -0.4215
 2310W        W 6054   5.438   3.639   8.788  0.1997 -0.0367  0.0082
 2311W        W 6055   3.951   5.127  11.050  0.1173 -0.1864 -0.0406
 2312W        W 6056   8.820   8.508   2.744  0.1201 -0.3233 -0.3119
 2313W        W 6057   5.245   8.762   8.839 -0.1570 -0.1884  0.0910
 2314W        W 6058   2.589   6.529  11.013  0.0237 -0.1673 -0.2111
 2315W        W 6059   8.658   6.162  10.360 -0.1134  0.0190  0.2298
 2316W        W 6060   6.415   0.802   9.692  0.0742  0.0738  0.0803
 2317W        W 6061   5.959   1.877  12.177 -0.1374  0.3057  0.0941
 2318W        W 6062   1.591   6.237   4.032  0.0303 -0.1870 -0.1929
 2319W        W 6063   2.958   8.675   1.566  0.0310  0.0138 -0.1071
 2320W        W 6064   5.307   4.229   7.719 -0.3103 -0.1518  0.1805
 2321W        W 6065   4.011   7.796  11.041  0.3009  0.1840  0.0055
 2322W        W 6066   1.379   7.599   3.932 -0.1066  0.1183 -0.1168
 2323W        W 6067   1.633   7.946   8.937  0.1955  0.1649 -0.1457
 2324W        W 6068   9.830   7.444   3.752  0.0259  0.3478  0.0865
 2325W        W 6069   0.349   8.658  12.321 -0.0032  0.0786 -0.1481
 2326W        W 6070   2.737   2.882   9.152  0.0579  0.0305  0.0458
 2327W        W 6071   5.959   7.027  12.061  0.1115 -0.0277 -0.3258
 2328W        W 6072   5.550   7.557  10.633  0.2727 -0.0764 -0.0433
 2329W        W 6073   1.751   3.148   0.986  0.3958 -0.0145  0.0108
 2330W        W 6074   6.559   6.320   1.182  0.2829  0.2167  0.1993
 2331W        W 6075   8.630   8.160  10.304  0.1784  0.0587  0.1761
 2332W        W 6076   3.105   4.328  10.051 -0.0269  0.1484 -0.2117
 2333W        W 6077   0.809   0.688   0.833 -0.2473 -0.2907  0.0700
 2334W        W 6078   6.267   6.296   0.722 -0.0135 -0.3606  0.1271
 2335W        W 6079   8.926   3.072   4.417  0.2473  0.0502 -0.1157
 2336W        W 6080   6.704   8.787   1.027  0.2585 -0.1174 -0.0442
 2337W        W 6081   9.280   4.016  12.479  0.3219  0.1993  0.1013
 2338W        W 6082   2.550   5.442   9.508  0.0667  0.1346 -0.3072
 2339W        W 6083   4.460   2.090  10.823  0.2268  0.0668 -0.0035
 2340W        W 6084   2.401   6.852   9.945 -0.4137 -0.1650 -0.1047
 2341W        W 6085   1.380   4.692   4.822  0.2149  0.0466  0.0620
 2342W        W 6086   1.724   2.649  10.571  0.0039  0.1320 -0.3197
 2343W        W 6087   4.697   8.682   0.312  0.2277  0.1010  0.1301
 2344W        W 6088   6.967   6.518  10.168  0.1146 -0.1566 -0.3238
 2345W        W 6089   5.549   2.735   2.942 -0.0959  0.1123 -0.0424
 2346W        W 6090   5.085   6.930   9.753  0.2790  0.0533 -0.2440
 2347W        W 6091   7.315   5.378   2.070 -0.0033 -0.1864 -0.1143
 2348W        W 6092   2.779   7.420   2.286 -0.1608  0.1009  0.1407
 2349W        W 6093   9.268   8.801   3.250 -0.0846 -0.0191  0.0188
 2350W        W 6094   3.653   4.450   0.072 -0.0539  0.1113 -0.0000
 2351W        W 6095   2.008   9.686   9.143 -0.0781 -0.1878  0.1192
 2352W        W 6096   7.595   2.132  10.056 -0.0046 -0.4592 -0.1215
 2353W        W 6097   3.898   3.609   2.404 -0.4265 -0.2516 -0.1145
 2354W        W 6098   6.178   4.372   9.353 -0.0232  0.2908 -0.2040
 2355W        W 6099   0.505   0.100   9.676  0.1593  0.0770  0.0680
 2356W        W 6100   4.080   0.181   3.829 -0.3830  0.4320  0.1189
 2357W        W 6101   9.834   4.667   0.529 -0.0430  0.1262 -0.0777
 2358W        W 6102   7.617   0.777  12.842 -0.0060 -0.2749 -0.1760
 2359W        W 6103   8.611   8.914  11.473  0.1812  0.0659  0.0967
 2360W        W 6104   4.825   8.453   8.741  0.3240 -0.1317  0.2768
 2361W        W 6105   6.712   1.144   9.414 -0.0838 -0.0194 -0.2048
 2362W        W 6106   3.046   2.269   1.643  0.2357  0.3806  0.0533
 2363W        W 6107   4.276   9.887   9.965  0.3482  0.3228  0.3411
 2364W        W 6108   4.406   2.857   3.614  0.0564 -0.0024  0.0664
 2365W        W 6109   1.451   7.193  11.359  0.0832 -0.0271  0.1553
 2366W        W 6110   1.246   6.459  11.064  0.1989  0.1727  0.3750
 2367W        W 6111   0.387   0.775   3.614  0.2716 -0.1228 -0.2932
 2368W        W 6112   0.634   2.032   3.350 -0.4466 -0.2961  0.2426
 2369W        W 6113   7.310   7.938   3.060 -0.1911  0.3252  0.3404
 2370W        W 6114   8.958   3.615   0.654  0.3183 -0.2025  0.0376
 2371W        W 6115   7.186   5.657  10.549  0.4149  0.3198  0.2402
 2372W        W 6116   7.947   2.738  10.919 -0.0389 -0.1188  0.1532
 2373W        W 6117   4.038   8.961  11.202 -0.0633 -0.0187 -0.1290
 2374W        W 6118   5.354   9.350   0.808  0.0540 -0.1803 -0.0876
 2375W        W 6119   8.328   3.485   3.728 -0.1001  0.2000  0.3311
 2376W        W 6120   3.467   7.756  11.482  0.3812 -0.0231  0.2888
 2377W        W 6121   5.882   1.423  10.339  0.2235 -0.2186  0.0438
 2378W        W 6122   3.838   0.583   2.865 -0.0043  0.0473 -0.3700
 2379W        W 6123   8.009   5.263   9.001 -0.1158 -0.0294  0.0585
 2380W        W 6124   6.316   0.569   1.741  0.4260  0.1209 -0.2592
 2381W        W 6125   8.209   2.270  12.267 -0.2688  0.0688 -0.0305
 2382W        W 6126   9.743   5.676   3.363  0.0416  0.0432 -0.0867
 2383W        W 6127   6.221   1.013   3.796  0.0743 -0.0300 -0.0660
 2384W        W 6128   7.935   5.429  12.236  0.0208 -0.3845 -0.0716
 2385W        W 6129   6.859   7.742   3.034  0.3341 -0.0634 -0.1736
 2386W        W 6130   0.912   3.285   0.688 -0.0808  0.1208 -0.0094
 2387W        W 6131   5.954   9.199   9.850 -0.0438 -0.2982  0.4464
 2388W        W 6132   9.673   4.888   9.818 -0.1111 -0.2235 -0.1702
 2389W        W 6133   6.232   8.312  10.888  0.1530  0.0137 -0.1417
 2390W        W 6134   5.818   8.346  12.760  0.2768  0.4811  0.2013
 2391W        W 6135   2.800   5.385   1.247  0.1706 -0.1383 -0.1605
 2392W        W 6136   6.177   7.622   0.925 -0.0630  0.0934 -0.1739
 2393W        W 6137   6.375   2.991   9.630  0.1024  0.0504  0.1488
 2394W        W 6138   1.557   0.165  12.750 -0.1034 -0.0394 -0.0685
 2395W        W 6139   0.001   9.886  12.345 -0.3190  0.1526 -0.1027
 2396W        W 6140   7.052   0.933   1.272 -0.2302 -0.0037  0.0767
 2397W        W 6141   9.613   2.692   3.109  0.0083 -0.2166 -0.0322
 2398W        W 6142   5.177   2.042   0.873 -0.2452 -0.1486 -0.0771
 2399W        W 6143   0.632   8.807   9.991  0.0796 -0.0428  0.0246
 2400W        W 6144   8.488   5.916   1.501 -0.0985  0.1272  0.1919
 2401W        W 6145   8.414   8.806  10.517  0.1084 -0.1989 -0.2763
 2402W        W 6146   7.600   7.912  11.197  0.2905 -0.1380  0.1235
 2403W        W 6147   2.445   8.876  11.314 -0.3339  0.0290  0.0591
 2404W        W 6148   9.728   2.486  11.190 -0.1030  0.2130 -0.0462
 2405W        W 6149   3.361   6.770   8.632  0.1986 -0.4059  0.1178
 2406W        W 6150   3.326   6.058   9.245  0.1382 -0.0122 -0.2447
 2407W        W 6151   8.980   7.495   0.347 -0.2501 -0.0768 -0.2377
 2408W        W 6152   3.290   6.528   9.051  0.2515  0.0248 -0.1499
 2409W        W 6153   3.022   9.891   2.682 -0.2096  0.2449  0.1880
 2410W        W 6154   5.999   7.828  12.570 -0.1900 -0.1370 -0.2475
 2411W        W 6155   2.232   8.118   0.303 -0.0830  0.0932  0.1422
 2412W        W 6156   4.864   5.677   4.984  0.3093  0.2848  0.0848
 2413W        W 6157   9.144   3.293  11.430  0.0628  0.2217 -0.0024
 2414W        W 6158   2.446   0.347   1.134  0.1966 -0.1811 -0.1180
 2415W        W 6159   0.711   7.783   0.350 -0.0452 -0.1040 -0.1432
 2416W        W 6160   6.729   0.105   0.485  0.1179  0.0269  0.0980
 2417W        W 6161   8.153   0.699  11.724  0.0291  0.1193 -0.2209
 2418W        W 6162   1.668   2.430   1.892  0.2392 -0.0074  0.1526
 2419W        W 6163   5.160   8.538  10.692  0.1168 -0.0241 -0.1644
 2420W        W 6164   8.882   0.544  11.047  0.1799 -0.4043  0.0045
 2421W        W 6165   0.659   0.424   1.481 -0.0895 -0.0696 -0.1331
 2422W        W 6166   9.175   3.343   4.000 -0.1024  0.0970  0.0652
 2423W        W 6167   2.074   5.791   1.208  0.1714 -0.1183 -0.2799
 2424W        W 6168   8.875   2.028   2.088 -0.2368  0.0642  0.2751
 2425W        W 6169   3.521   0.437   1.302 -0.2312  0.2194 -0.1940
 2426W        W 6170   5.548   1.865   0.030  0.0551 -0.0595  0.1560
 2427W        W 6171   3.476   3.427   2.085 -0.0214  0.1037  0.1582
 2428W        W 6172   5.560   4.978   1.279 -0.1462  0.2164 -0.2928
 2429W        W 6173   1.421   5.064   1.540  0.1512  0.2240 -0.0365
 2430W        W 6174   1.287   5.796   8.944  0.0738 -0.1365  0.0091
 2431W        W 6175   1.387   4.708   3.000 -0.2767  0.1551 -0.1089
 2432W        W 6176   3.323   4.837   0.525  0.3148  0.3379 -0.2610
 2433W        W 6177   3.880   4.892  10.058 -0.1475 -0.3195  0.0207
 2434W        W 6178   2.376   9.396   2.366 -0.1694  0.0474  0.0037
 2435W        W 6179   0.887   9.335  10.766  0.2981  0.2323 -0.0820
 2436W        W 6180   7.374   9.637   2.647 -0.0299 -0.1672 -0.0518
 2437W        W 6181   8.392   4.927   8.279 -0.3101  0.0220 -0.0432
 2438W        W 6182   4.062   4.302   0.766  0.0372  0.0741 -0.2017
 2439W        W 6183   3.342   8.441   1.901 -0.4091 -0.1038 -0.2132
 2440W        W 6184   0.537   4.803   2.608  0.0829 -0.0231  0.2094
 2441W        W 6185   6.569   8.409  11.863 -0.1391  0.1093 -0.0002
 2442W        W 6186   5.972   5.839   3.424  0.0646 -0.0977 -0.0709
 2443W        W 6187   5.308   5.662   0.655 -0.0401 -0.2176 -0.5065
 2444W        W 6188   1.551   8.815  10.088  0.3555  0.0304  0.1014
 2445W        W 6189   0.401   6.125  12.798  0.2295 -0.2742 -0.1028
 2446W        W 6190   3.221   4.313   2.179 -0.2361  0.1155  0.3695
 2447W        W 6191   1.650   5.100  11.180 -0.0788  0.1581 -0.0929
 2448W        W 6192   5.144   1.409  12.125  0.0350 -0.0656  0.2836
 2449W        W 6193   4.285   5.418   3.871  0.1086 -0.0899 -0.0643
 2450W        W 6194   7.628   8.375  10.791 -0.2728  0.0434  0.0485
 2451W        W 6195   7.850   8.003   2.040  0.4503  0.2557 -0.2947
 2452W        W 6196   5.441   7.223   1.637 -0.1146 -0.2287 -0.0333
 2453W        W 6197   6.343   2.523   0.449 -0.3262  0.3075  0.0049
 2454W        W 6198   6.303   3.170  12.324 -0.2501  0.0112 -0.2260
 2455W        W 6199   2.473   0.148   0.203  0.0556 -0.1459  0.2008
 2456W        W 6200   4.712   2.054   9.417  0.0470  0.1059  0.1146
 2457W        W 6201   0.450   5.409  11.934  0.0484  0.0277  0.2705
 2458W        W 6202   9.260   7.852   1.860  0.2292 -0.0687  0.3522
 2459W        W 6203   7.659   3.919  12.337  0.0989  0.1111  0.2072
 2460W        W 6204   3.201   6.994  11.982 -0.2214 -0.2740  0.0583
 2461W        W 6205   9.440   5.960   1.281  0.2446  0.2253  0.1661
 2462W        W 6206   8.929   5.141   1.307  0.0494  0.0801 -0.2013
 2463W        W 6207   4.107   8.688   2.295  0.0458  0.6165  0.1889
 2464W        W 6208   6.867   2.932   8.901  0.1746  0.0287 -0.1427
 2465W        W 6209   8.471   8.606  11.800  0.2532 -0.3709 -0.0072
 2466W        W 6210   1.230   3.491  12.339  0.4170 -0.2428  0.2189
 2467W        W 6211   9.423   2.125   1.948 -0.2372  0.0768 -0.1695
 2468W        W 6212   3.302   2.282  11.510  0.2324  0.1723 -0.2332
 2469W        W 6213   4.735   4.246  10.011  0.1310  0.3889  0.0154
 2470W        W 6214   7.549   3.800   9.902 -0.0238  0.2332 -0.1208
 2471W        W 6215   1.500   0.483  10.562  0.1141 -0.1512 -0.2703
 2472W        W 6216   7.231   2.668   3.822  0.2877 -0.2669 -0.0492
 2473W        W 6217   7.016   1.145   4.005 -0.1342 -0.0268 -0.1270
 2474W        W 6218   8.375   9.611   4.275 -0.1464 -0.0044 -0.0463
 2475W        W 6219   4.263   1.895  12.671  0.3270 -0.1882 -0.4467
 2476W        W 6220   3.590   1.106  10.791 -0.0914 -0.2924  0.0435
 2477W        W 6221   9.226   4.358  12.077  0.1830  0.5608 -0.1275
 2478W        W 6222   2.989   4.028   3.821  0.4552 -0.1521  0.3393
 2479W        W 6223   2.538   4.521   9.373 -0.0637 -0.1765  0.0548
 2480W        W 6224   3.246   8.834  10.719 -0.1997 -0.0497 -0.0291
 2481W        W 6225   5.627   9.811  11.668  0.0846  0.1417  0.4545
 2482W        W 6226   3.814   3.855   3.336  0.1805 -0.2071 -0.0916
 2483W        W 6227   8.469   9.331   1.798 -0.0068  0.1716 -0.1313
 2484W        W 6228   4.534   2.326   2.838  0.0404 -0.0853  0.2074
 2485W        W 6229   8.089   2.596   2.065 -0.3731  0.0304  0.0611
 2486W        W 6230   1.406   9.518   3.065 -0.0122 -0.1424  0.1489
 2487W        W 6231   6.549   0.081   0.024 -0.3431  0.2487  0.3164
 2488W        W 6232   8.691   6.625  10.079  0.0828  0.2636 -0.1780
 2489W        W 6233   9.213   1.618  11.529 -0.4851 -0.2443 -0.0142
 2490W        W 6234   6.415   3.914  10.632  0.0310  0.1128  0.0270
 2491W        W 6235   6.539   5.286   0.735  0.1144  0.0751 -0.1352
 2492W        W 6236   5.837   9.698  12.174  0.1739 -0.1534  0.0386
 2493W        W 6237   3.122   6.966   0.369 -0.1329  0.1526 -0.1532
 2494W        W 6238   0.456   1.256   1.309  0.0146  0.1040  0.1127
 2495W        W 6239   9.034   1.792   4.243 -0.1498  0.0844 -0.1425
 2496W        W 6240   8.922   4.120  11.634 -0.1776 -0.1107  0.2214
 2497W        W 6241   4.503   5.573  11.803  0.2085  0.0304  0.0194
 2498W        W 6242   6.795   2.332  11.993  0.1209 -0.0926  0.1161
 2499W        W 6243   8.763   5.754   4.739 -0.2090 -0.0339 -0.0273
 2500W        W 6244   8.059   1.767   2.489 -0.1054 -0.0597  0.0358
 2501W        W 6245   6.796   9.665   1.220  0.0018 -0.0666  0.2650
 2502W        W 6246   4.173   3.826  12.413 -0.0081  0.0451  0.2682
 2503W        W 6247   1.810   8.848   3.659 -0.2994  0.4121 -0.3718
 2504W        W 6248   8.770   5.595   4.206  0.0195  0.1726 -0.0169
 2505W        W 6249   3.393   1.668  10.785 -0.0391  0.2342 -0.1926
 2506W        W 6250   3.941   6.349   1.344 -0.0597 -0.0299  0.0468
 2507W        W 6251   2.921   5.236  11.285  0.2459  0.2631  0.2084
 2508W        W 6252   8.390   0.659  10.011  0.3294 -0.0533 -0.1048
 2509W        W 6253   5.238   5.611  10.217 -0.3907  0.1751  0.2656
 2510W        W 6254   0.746   3.571  12.178 -0.0737  0.0928  0.0208
 2511W        W 6255   9.577   0.148  10.420  0.0411  0.1416 -0.0783
 2512W        W 6256   7.314   1.534  11.486 -0.0041 -0.2670 -0.3365
 2513W        W 6257   8.697   2.803  12.612  0.0117 -0.1073  0.1757
 2514W        W 6258   7.839   7.598   0.569 -0.1276 -0.1345  0.0011
 2515W        W 6259   9.761   8.968   9.585 -0.0746 -0.2580 -0.1002
 2516W        W 6260   7.919   5.358   0.526 -0.2209  0.0574  0.1204
 2517W        W 6261   5.323   4.665   9.110 -0.1959  0.1486 -0.1775
 2518W        W 6262   7.467   4.169  10.481 -0.0760 -0.1422  0.1431
 2519W        W 6263   4.337   4.838  11.324 -0.3207  0.4719 -0.1213
 2520W        W 6264   8.466   3.572  12.175  0.5288  0.0435 -0.0554
 2521W        W 6265   8.661   7.641  11.816  0.0560  0.2803  0.2028
 2522W        W 6266   8.388   9.833   3.174 -0.4922 -0.0812  0.0036
 2523W        W 6267   2.432   7.852   2.578  0.2698 -0.0257  0.0385
 2524W        W 6268   4.308   5.395  12.596 -0.1491 -0.0005  0.1061
 2525W        W 6269   7.824   6.768  11.931 -0.0434  0.3879 -0.0095
 2526W        W 6270   7.905   4.802   8.846  0.0371 -0.0782 -0.3111
 2527W        W 6271   9.728   4.505   9.495 -0.0472 -0.0434 -0.2049
 2528W        W 6272   7.822   6.424   1.550 -0.0656 -0.2979 -0.1235
 2529W        W 6273   7.694   5.118   4.011  0.1618 -0.1598  0.1469
 2530W        W 6274   7.296   2.156  11.624 -0.0448  0.0614 -0.0854
 2531W        W 6275   5.428   0.593  12.181  0.0385 -0.0642 -0.2119
 2532W        W 6276   7.497   5.087   3.026  0.0427  0.0211  0.1748
 2533W        W 6277   6.559   7.044   9.586  0.2972  0.2923  0.1465
 2534W        W 6278   2.548   3.180  10.804  0.0158  0.1422  0.4849
 2535W        W 6279   7.269   9.342  11.634  0.1322 -0.0003 -0.0303
 2536W        W 6280   3.886   1.265   2.322  0.0241  0.0738  0.1475
 2537W        W 6281   7.566   4.769   3.619  0.1023 -0.0712 -0.1852
 2538W        W 6282   2.988   8.572   9.622  0.0679 -0.1967 -0.2280
 2539W        W 6283   1.688   4.797   3.394  0.1432 -0.4495  0.0592
 2540W        W 6284   5.150   9.443   3.406  0.1740  0.0680  0.0843
 2541W        W 6285   8.676   1.290   2.887 -0.1078 -0.0761 -0.1528
 2542W        W 6286   0.145   2.748  11.607  0.0604  0.0828  0.3813
 2543W        W 6287   5.553   6.554   3.359  0.3116  0.0974 -0.1706
 2544W        W 6288   9.202   5.035   9.506  0.0800  0.1689  0.0133
 2545W        W 6289   9.145   9.733  11.338  0.2710 -0.0305  0.1879
 2546W        W 6290   7.439   0.803   4.348 -0.0868 -0.2689 -0.0506
 2547W        W 6291   0.010   2.422   0.258  0.0585  0.1875  0.1160
 2548W        W 6292   2.584   7.259  10.249 -0.2768 -0.1540 -0.2528
 2549W        W 6293   5.987   0.071   1.765 -0.1828  0.0457  0.0914
 2550W        W 6294   6.267   3.665   9.016  0.1219  0.0348 -0.0442
 2551W        W 6295   6.128   1.889   3.357  0.1769 -0.6027 -0.1260
 2552W        W 6296   2.359   3.776   8.718 -0.2783  0.1034 -0.0272
 2553W        W 6297   8.739   7.568   2.542 -0.1847 -0.0820  0.0741
 2554W        W 6298   9.364   3.289   0.805  0.0340  0.1637  0.0737
 2555W        W 6299   4.142   2.780  10.069 -0.0610 -0.1118 -0.0174
 2556W        W 6300   3.357   6.438  12.442  0.0267 -0.0868  0.2343
 2557W        W 6301   7.904   6.665  10.531 -0.0397  0.0455 -0.0489
 2558W        W 6302   4.934   9.392  10.047 -0.1260 -0.2097 -0.0241
 2559W        W 6303   6.428   0.035   0.844  0.3169  0.3866  0.0909
 2560W        W 6304   7.143   7.743  11.106 -0.2307 -0.1838  0.0418
 2561W        W 6305   3.308   2.970   2.986  0.0269  0.0136 -0.0879
 2562W        W 6306   9.270   3.149   1.511 -0.2897  0.1978  0.0262
 2563W        W 6307   5.455   4.112   9.560  0.3996  0.1043 -0.1425
 2564W        W 6308   2.846   1.799   3.909 -0.2953 -0.2246  0.2151
 2565W        W 6309   1.852   9.168   9.296  0.1460 -0.3536 -0.2035
 2566W        W 6310   8.811   9.793   2.264 -0.0700  0.2379  0.1540
 2567W        W 6311   8.455   0.634   4.065 -0.1085 -0.1599 -0.1152
 2568W        W 6312   3.679   6.888   2.517 -0.1189 -0.0149  0.0687
 2569W        W 6313   4.207   9.446  10.195 -0.0983  0.1641  0.0522
 2570W        W 6314   1.343   9.609   4.284  0.0264  0.2355  0.0606
 2571W        W 6315   5.679   4.342   1.968  0.0163 -0.0580 -0.0846
 2572W        W 6316   7.914   9.229   0.367  0.1815  0.4226  0.2359
 2573W        W 6317   4.433   9.672   2.903  0.0096  0.2344 -0.2912
 2574W        W 6318   5.280   1.398  11.621  0.0761 -0.2816  0.1424
 2575W        W 6319   5.510   6.258   8.391  0.1103  0.1707  0.1053
 2576W        W 6320   8.068   5.265   8.051  0.1731 -0.0062 -0.1005
 2577W        W 6321   3.916   8.060  10.624  0.4727  0.2385 -0.0847
 2578W        W 6322   0.680   5.041   1.309  0.1775 -0.0728  0.1336
 2579W        W 6323   4.127   6.496  11.208  0.0230  0.2296 -0.0176
 2580W        W 6324   3.023   1.586  10.256  0.0240 -0.1439  0.2795
 2581W        W 6325   1.462   2.550   3.116 -0.3736 -0.1759  0.5579
 2582W        W 6326   1.940   6.398   3.487  0.1594 -0.1808 -0.2950
 2583W        W 6327   8.466   2.882   8.509 -0.1180 -0.0767 -0.2487
 2584W        W 6328   9.928   7.150   0.723  0.0078  0.1845  0.2636
 2585W        W 6329   8.549   0.884   2.529 -0.0366 -0.1423 -0.1102
 2586W        W 6330   9.884   9.188  11.745  0.0894  0.0196 -0.1315
 2587W        W 6331   8.753   1.583   9.742 -0.1519 -0.1473 -0.2640
 2588W        W 6332   4.748   5.735   2.634  0.0884 -0.3809 -0.0101
 2589W        W 6333   7.218   3.946   3.197  0.0216  0.0933 -0.2651
 2590W        W 6334   0.315   6.221  11.081 -0.1158 -0.3507  0.2090
 2591W        W 6335   9.415   8.542   1.249 -0.1457  0.0751  0.1173
 2592W        W 6336   9.120   8.845  12.380 -0.1413 -0.5790 -0.0358
 2593W        W 6337   2.362   4.720   1.166  0.1524  0.0166 -0.0134
 2594W        W 6338   0.629   9.129   2.961  0.0993 -0.1704  0.1083
 2595W        W 6339   2.632   4.265   3.455 -0.4537  0.1449 -0.1871
 2596W        W 6340   8.031   5.860  11.408 -0.1821  0.1614 -0.1591
 2597W        W 6341   6.402   0.086   4.330 -0.1765  0.0692 -0.0823
 2598W        W 6342   3.975   5.956   8.672 -0.1704 -0.1040  0.3030
 2599W        W 6343   4.907   1.415   2.660  0.0358 -0.0832 -0.0992
 2600W        W 6344   5.160   9.694   1.251  0.3793 -0.2568  0.1079
 2601W        W 6345   5.135   9.768   8.846 -0.0592 -0.2438 -0.2304
 2602W        W 6346   4.674   0.812  10.884  0.4930 -0.1824  0.0616
 2603W        W 6347   7.762   2.946   2.186  0.1018  0.1114  0.3881
 2604W        W 6348   4.810   2.940   0.789 -0.1978  0.1272 -0.0502
 2605W        W 6349   7.322   6.886   1.089 -0.0386  0.0731  0.1986
 2606W        W 6350   8.650   7.744   0.703  0.2261 -0.2314  0.1475
 2607W        W 6351   7.275   8.296  11.163  0.1874  0.2706 -0.1891
 2608W        W 6352   4.279   1.352  11.799 -0.0965  0.0355  0.1764
 2609W        W 6353   1.267   9.887  11.899 -0.0598 -0.0497  0.0188
 2610W        W 6354   1.381   5.381  11.624  0.3969  0.4714 -0.3768
 2611W        W 6355   7.693   5.504   9.284  0.2552  0.0326  0.0647
 2612W        W 6356   3.773   9.157   1.377  0.0561  0.0357 -0.1264
 2613W        W 6357   0.412   2.221   2.494  0.1448 -0.0710 -0.2473
 2614W        W 6358   6.247   2.379   2.547  0.2760 -0.0944 -0.0894
 2615W        W 6359   7.394   8.527  11.994 -0.3513 -0.2378  0.0546
 2616W        W 6360   5.531   2.004   2.369  0.1390  0.3077  0.0645
 2617W        W 6361   0.198   4.409   0.940 -0.4491 -0.0936 -0.0716
 2618W        W 6362   8.796   2.063   8.735 -0.3017  0.2413 -0.0073
 2619W        W 6363   3.585   7.463  11.043  0.2047  0.0774  0.0346
 2620W        W 6364   1.447   3.333   0.573 -0.0963 -0.1154  0.1227
 2621W        W 6365   0.954   9.456   1.089 -0.1104  0.1899 -0.0036
 2622W        W 6366   8.575   9.413   8.403  0.0764  0.2677  0.1564
 2623W        W 6367   8.329   2.474   8.896  0.3261 -0.2409  0.0900
 2624W        W 6368   4.757   2.099   3.842 -0.3081 -0.2157 -0.0462
 2625W        W 6369   1.034   6.034   2.378  0.4810 -0.2230 -0.1081
 2626W        W 6370   6.893   8.635   2.602 -0.4173 -0.0779 -0.2712
 2627W        W 6371   6.102   8.766   2.970 -0.1529 -0.0939  0.4015
 2628W        W 6372   1.947   0.698   1.781  0.1676  0.2000  0.0954
 2629W        W 6373   8.186   6.618   0.977 -0.2411 -0.0803  0.0404
 2630W        W 6374   8.639   0.395   2.475 -0.2367 -0.1126  0.1966
 2631W        W 6375   9.121   5.393  10.484 -0.2650 -0.0257 -0.0111
 2632W        W 6376   3.052   3.774   2.758 -0.0214  0.0216  0.1394
 2633W        W 6377   5.364   8.806   1.042  0.2360  0.2269  0.0889
 2634W        W 6378   3.251   3.604  12.132  0.0366 -0.0146 -0.3744
 2635W        W 6379   0.523   5.801   2.655  0.0152 -0.1757  0.0224
 2636W        W 6380   8.698   9.370  11.288  0.2010  0.0009  0.0553
 2637W        W 6381   8.804   5.733   2.457  0.0269  0.2299  0.0693
 2638W        W 6382   3.596   7.647   3.472 -0.1156 -0.0298 -0.0358
 2639W        W 6383   6.161   2.632   8.811  0.0879  0.0258 -0.1092
 2640W        W 6384   7.570   5.486  10.218 -0.1379  0.0082  0.1444
 2641W        W 6385   7.167   1.511  12.531  0.0856  0.1275  0.0351
 2642W        W 6386   1.459   1.304  10.805 -0.1614 -0.1064  0.0969
 2643W        W 6387   9.790   4.030  10.269 -0.2188 -0.0390 -0.1219
 2644W        W 6388   8.135   8.826  11.448  0.0185 -0.1801 -0.1901
 2645W        W 6389   6.454   1.517   0.536  0.1567  0.0069  0.0354
 2646W        W 6390   1.017   6.502   9.974 -0.1992 -0.0693  0.0082
 2647W        W 6391   2.549   1.722   2.229  0.1757 -0.0461  0.1791
 2648W        W 6392   4.171   9.618   1.809 -0.2031  0.0838  0.0956
 2649W        W 6393   7.559   1.417   3.882 -0.0865  0.1773  0.1975
 2650W        W 6394   1.622   5.935   1.514 -0.2715  0.0959 -0.0729
 2651W        W 6395   3.980   6.948   0.648 -0.2652 -0.0388  0.2284
 2652W        W 6396   7.934   7.801   1.584 -0.3322 -0.0701 -0.0013
 2653W        W 6397   0.911   1.053   9.619  0.1933 -0.1143  0.1954
 2654W        W 6398   6.685   0.785  12.695 -0.1986  0.1100 -0.1614
 2655W        W 6399   3.535   3.410   9.080  0.0962 -0.0148  0.0416
 2656W        W 6400   6.130   1.948   9.228  0.1698 -0.2018  0.2497
 2657W        W 6401   4.526   5.902   7.844  0.0486 -0.3397  0.0636
 2658W        W 6402   1.296   7.136   4.033  0.0140 -0.1444 -0.1813
 2659W        W 6403   0.804   0.235   0.457  0.4156  0.0085 -0.4346
 2660W        W 6404   7.512   9.872   0.701 -0.1665 -0.0920 -0.0191
 2661W        W 6405   3.607   8.866   0.998 -0.1155 -0.0147  0.0055
 2662W        W 6406   1.268   9.135  12.302 -0.1324  0.0352  0.1173
 2663W        W 6407   6.041   2.639  11.307 -0.0109  0.1295  0.3210
 2664W        W 6408   7.486   6.893   1.522  0.1790 -0.2926 -0.0230
 2665W        W 6409   9.679   1.221   3.237  0.2172  0.1056  0.3157
 2666W        W 6410   8.358   0.905  12.208 -0.5001 -0.0201 -0.0061
 2667W        W 6411   9.129   1.218  11.927  0.6258 -0.0692 -0.0156
 2668W        W 6412   6.963   3.956   1.779  0.0706  0.0566  0.0966
 2669W        W 6413   5.890   2.640   9.805  0.1138 -0.2730  0.2011
 2670W        W 6414   4.547   6.231  12.029 -0.1437  0.2014  0.1003
 2671W        W 6415   9.547   2.877  12.024  0.0873  0.3431 -0.4556
 2672W        W 6416   5.847   4.388  12.448  0.3126  0.0375 -0.0965
 2673W        W 6417   3.811   8.306   0.436  0.1070  0.1953 -0.2317
 2674W        W 6418   9.886   9.518   9.021 -0.0833 -0.0600 -0.2341
 2675W        W 6419   3.717   0.449   8.921  0.0536 -0.0672  0.1554
 2676W        W 6420   6.605   9.592   2.147  0.3797 -0.3431 -0.1437
 2677W        W 6421   3.069   3.372   4.581  0.2573 -0.1308 -0.0119
 2678W        W 6422   3.340   5.141   9.030 -0.4679  0.0056  0.3306
 2679W        W 6423   3.158   2.891  12.449 -0.0570  0.1557  0.1115
 2680W        W 6424   6.452   6.709  11.052  0.0637  0.5113 -0.0226
 2681W        W 6425   7.763   8.586  12.441  0.1580 -0.0047 -0.0313
 2682W        W 6426   3.419   2.631   3.443 -0.3286  0.0202  0.0651
 2683W        W 6427   7.152   5.956   4.380  0.2034 -0.1604 -0.1574
 2684W        W 6428   8.298   1.905   1.091 -0.1589  0.0709  0.0903
 2685W        W 6429   3.715   7.173   8.719  0.1902 -0.7707  0.1157
 2686W        W 6430   4.613   5.025   1.642 -0.0165  0.3134  0.0891
 2687W        W 6431   8.652   1.940   1.584 -0.2396  0.2411  0.1907
 2688W        W 6432   5.844   4.864  11.507 -0.0331 -0.0059  0.1364
 2689W        W 6433   1.619   9.131   1.038 -0.0993  0.0375  0.2339
 2690W        W 6434   7.078   7.529   3.946  0.3095 -0.0100  0.2937
 2691W        W 6435   5.993   9.002  10.452  0.0416  0.0146 -0.0010
 2692W        W 6436   6.240   5.666   0.087 -0.2170 -0.2839  0.0481
 2693W        W 6437   1.233   5.639   0.823  0.2425  0.0181 -0.1294
 2694W        W 6438   9.903   6.456   2.732  0.2901 -0.0937 -0.1835
 2695W        W 6439   2.036   6.839   8.169 -0.1297  0.2590 -0.0570
 2696W        W 6440   3.880   1.634   2.707 -0.2934 -0.0126 -0.1493
 2697W        W 6441   3.079   5.673   0.165  0.0164  0.0863 -0.2678
 2698W        W 6442   5.070   7.306   9.366  0.1314 -0.0806 -0.1636
 2699W        W 6443   8.980   6.930  11.844 -0.0842  0.0453 -0.1439
 2700W        W 6444   4.662   3.505   1.631 -0.2357 -0.2207 -0.0536
 2701W        W 6445   9.187   3.699   2.984 -0.3726 -0.0256 -0.1408
 2702W        W 6446   5.097   3.955   8.584 -0.1183 -0.0515 -0.0566
 2703W        W 6447   8.294   8.542   0.923  0.1447  0.2172 -0.0535
 2704W        W 6448   0.535   5.780  10.021  0.0698  0.2633 -0.3399
 2705W        W 6449   2.583   0.633   0.359  0.0213  0.0416  0.0713
 2706W        W 6450   2.649   2.175   0.355 -0.0842 -0.0993  0.0005
 2707W        W 6451   3.414   2.973  10.510  0.0812  0.0273 -0.0557
 2708W        W 6452   1.689   2.961   3.254  0.2052 -0.3185 -0.1726
 2709W        W 6453   5.417   4.081  12.408  0.1529 -0.0653 -0.0896
 2710W        W 6454   8.463   5.024   1.379  0.4005 -0.0129  0.0864
 2711W        W 6455   2.341   6.674  12.090  0.2014  0.2129  0.2813
 2712W        W 6456   5.374   3.543   1.382  0.1741 -0.1837 -0.1006
 2713W        W 6457   4.601   5.211  10.179  0.3181  0.0660 -0.1737
 2714W        W 6458   7.320   7.996  12.137  0.1532 -0.0964 -0.0249
 2715W        W 6459   3.077   3.620  11.319 -0.5505 -0.1536 -0.2382
 2716W        W 6460   4.045   5.389   2.703  0.1859  0.1510  0.0827
 2717W        W 6461   7.293   3.097   3.508  0.0174  0.2109 -0.0472
 2718W        W 6462   7.133   3.216  12.157  0.1295 -0.2847  0.1215
 2719W        W 6463   7.920   2.900   1.712 -0.1467 -0.1934 -0.2970
 2720W        W 6464   8.494   7.901   4.105 -0.1948  0.1236 -0.0944
 2721W        W 6465   4.951   2.195   1.983 -0.0310  0.0450 -0.1213
 2722W        W 6466   4.665   4.973   2.490 -0.0835 -0.2212  0.1416
 2723W        W 6467   6.609   1.024   2.807  0.3620  0.3178 -0.2231
 2724W        W 6468   4.935   4.023  12.226 -0.1642  0.0302  0.2510
 2725W        W 6469   7.796   9.589   2.371 -0.1500 -0.0966 -0.0052
 2726W        W 6470   5.400   1.416  10.337 -0.0123  0.0255 -0.1295
 2727W        W 6471   9.338   8.325  10.579 -0.0856  0.0905  0.2812
 2728W        W 6472   5.658   9.647  12.843  0.1457 -0.3003 -0.2347
 2729W        W 6473   9.152   7.947  10.105 -0.0343 -0.1858  0.0917
 2730W        W 6474   9.614   6.087  10.143  0.3584  0.1339 -0.1199
 2731W        W 6475   4.471   6.771   8.961 -0.0049 -0.1609 -0.2503
 2732W        W 6476   0.533   5.186   9.249 -0.0325 -0.1235  0.0518
 2733W        W 6477   0.884   1.618   0.479 -0.0775  0.0186 -0.1350
 2734W        W 6478   8.633   0.784   2.024  0.0474  0.0972 -0.0659
 2735W        W 6479   9.645   9.019   0.304 -0.1985  0.1325 -0.0172
 2736W        W 6480   7.966   4.870   1.359  0.0642  0.4579 -0.2738
 2737W        W 6481   1.099   7.171   0.017 -0.1351 -0.0468 -0.0083
 2738W        W 6482   2.876   3.426   1.212 -0.0764 -0.1758 -0.0817
 2739W        W 6483   0.327   7.367   1.071  0.0283 -0.1117  0.0560
 2740W        W 6484   0.186   9.411   3.769 -0.1466 -0.1705 -0.0826
 2741W        W 6485   7.553   7.597   1.985  0.0171 -0.0357 -0.0179
 2742W        W 6486   2.039   5.398   2.432 -0.1641 -0.3094  0.2056
 2743W        W 6487   5.020   6.260  10.400 -0.1204 -0.2222 -0.0156
 2744W        W 6488   0.486   7.053   3.957  0.2140  0.1220  0.1322
 2745W        W 6489   0.243   3.787   2.063 -0.0254 -0.1718  0.2027
 2746W        W 6490   0.318   2.741   1.160  0.0621  0.3011 -0.0023
 2747W        W 6491   1.888   1.887   1.932  0.0254 -0.2965 -0.1034
 2748W        W 6492   6.429   1.008   3.291 -0.1387 -0.2437  0.3416
 2749W        W 6493   4.745   5.683   4.047  0.3860  0.0685 -0.0217
 2750W        W 6494   9.460   1.945   0.974 -0.1489 -0.0215  0.1827
 2751W        W 6495   6.658   5.755  10.466  0.1007 -0.1759  0.2266
 2752W        W 6496   8.077   7.079  10.742  0.0540 -0.0788  0.2449
 2753W        W 6497   9.640   8.610  12.448  0.1235 -0.2320  0.0841
 2754W        W 6498   7.047   2.156   9.698  0.0703 -0.0876  0.0503
 2755W        W 6499   2.178   9.869   1.320 -0.1145 -0.0140 -0.0702
 2756W        W 6500   4.518   9.767  12.372 -0.1813  0.0247  0.4602
 2757W        W 6501   4.506   4.708   4.851 -0.0164 -0.3184  0.0369
 2758W        W 6502   7.849   8.507   4.590  0.0655 -0.0713 -0.1148
 2759W        W 6503   2.619   4.452   1.484 -0.1709 -0.2159 -0.0487
 2760W        W 6504   9.849   9.900  10.744  0.0811 -0.1231  0.1945
 2761W        W 6505   6.311   6.127   9.155 -0.0221 -0.1920 -0.3303
 2762W        W 6506   5.248   1.248   3.477 -0.0699 -0.2322  0.3761
 2763W        W 6507   9.115   2.890   2.859  0.0085  0.4975  0.1177
 2764W        W 6508   6.855   0.990   2.378  0.0028  0.0482 -0.1373
 2765W        W 6509   6.496   5.253   4.546  0.1179  0.1007 -0.0488
 2766W        W 6510   6.725   4.635  10.111 -0.3425  0.0775  0.0215
 2767W        W 6511   7.122   7.628   1.716 -0.0499  0.2001 -0.2473
 2768W        W 6512   8.674   3.261   2.227 -0.1125 -0.2269 -0.2600
 2769W        W 6513   2.268   4.235  11.247  0.1431  0.2709 -0.2226
 2770W        W 6514   0.558   3.909   9.604 -0.0252 -0.0652 -0.1171
 2771W        W 6515   7.845   4.386   1.418 -0.1626 -0.0808 -0.1428
 2772W        W 6516   3.980   8.900  12.543  0.1741  0.0467  0.1928
 2773W        W 6517   9.733   8.020  11.206  0.5116 -0.5170 -0.2117
 2774W        W 6518   8.649   0.817  10.480 -0.1298  0.4176 -0.0884
 2775W        W 6519   6.266   6.640   1.457  0.1149 -0.1769 -0.0624
 2776W        W 6520   6.674   7.479   3.479  0.0288 -0.1067 -0.0069
 2777W        W 6521   8.759   8.495  12.178  0.1578 -0.3171 -0.0962
 2778W        W 6522   8.706   6.639  11.024 -0.1639 -0.1227 -0.0488
 2779W        W 6523   7.139   8.125  10.680  0.2148 -0.0155  0.1065
 2780W        W 6524   7.412   0.094   1.168  0.1002  0.1617  0.2496
 2781W        W 6525   5.211   0.505   2.461  0.1065  0.0343  0.1367
 2782W        W 6526   3.890   0.251   1.049 -0.1271 -0.1258 -0.1317
 2783W        W 6527   7.422   2.705  11.532 -0.0243 -0.2575 -0.0166
 2784W        W 6528   2.433   0.062   2.073 -0.0008  0.2415  0.1597
 2785W        W 6529   5.981   3.341  11.955  0.0974  0.2169 -0.2374
 2786W        W 6530   2.915   8.112   9.812  0.0280 -0.1879 -0.1018
 2787W        W 6531   6.679   0.964  11.829 -0.0619  0.0827 -0.1451
 2788W        W 6532   7.735   3.348   3.567 -0.4536 -0.0308  0.1863
 2789W        W 6533   8.645   5.902   0.921  0.4594 -0.0143  0.0240
 2790W        W 6534   9.031   8.551  11.392  0.2168  0.0728 -0.2284
 2791W        W 6535   7.210   9.553   8.638  0.2086  0.0337 -0.2399
 2792W        W 6536   1.206   0.321   2.150  0.1965 -0.0919  0.0239
 2793W        W 6537   5.481   1.553   2.145 -0.1723  0.0932 -0.2780
 2794W        W 6538   2.736   1.755  12.066 -0.1249 -0.3891  0.1374
 2795W        W 6539   2.112   2.762   1.047  0.0448 -0.0928  0.1064
 2796W        W 6540   1.225   5.835   9.446 -0.0836  0.1371  0.0300
 2797W        W 6541   9.031   6.930   0.530  0.2112  0.1316  0.0487
 2798W        W 6542   1.942   9.937   0.283  0.0651  0.0006 -0.4456
 2799W        W 6543   8.316   1.749  10.650  0.1932  0.1283  0.1306
 2800W        W 6544   6.722   4.603   5.512 -0.1003  0.1304 -0.0492
 2801W        W 6545   4.976   0.425  10.433  0.2740  0.0443  0.1375
 2802W        W 6546   1.512   5.087   9.363  0.0288  0.3507  0.0816
 2803W        W 6547   6.964   9.012   0.266 -0.1956  0.1795 -0.1461
 2804W        W 6548   9.855   1.263   9.787 -0.1793 -0.0399 -0.2344
 2805W        W 6549   8.966   2.934  11.768  0.0399 -0.0169 -0.2368
 2806W        W 6550   1.526   6.098   3.547 -0.0025 -0.0540 -0.0273
 2807W        W 6551   9.880   4.330   0.102 -0.1114  0.0747 -0.0931
 2808W        W 6552   2.165   0.995   1.313 -0.0820  0.0112 -0.2369
 2809W        W 6553   6.013   4.222   1.536 -0.2005 -0.2200 -0.1748
 2810W        W 6554   4.898   1.683   1.733 -0.0307 -0.0170  0.5004
 2811W        W 6555   7.630   4.453  12.315  0.0320 -0.0299 -0.0780
 2812W        W 6556   9.875   9.854   9.719  0.1889 -0.3484 -0.2867
 2813W        W 6557   2.715   8.138   3.858  0.1987 -0.1025 -0.0372
 2814W        W 6558   3.677   6.446   9.335 -0.0694 -0.0253 -0.0072
 2815W        W 6559   7.244   8.076  10.209 -0.0639  0.0475 -0.2124
 2816W        W 6560   3.752   9.650   1.025 -0.0886  0.0183  0.2923
 2817W        W 6561   6.548   9.934  11.804  0.0799 -0.0492  0.1326
 2818W        W 6562   5.250   7.744   3.230  0.1164 -0.0186  0.0967
 2819W        W 6563   5.094   0.455   3.485  0.2473 -0.1106 -0.0862
 2820W        W 6564   6.199   8.866   4.671  0.1138  0.2415  0.3162
 2821W        W 6565   3.985   1.760   0.913 -0.0798 -0.4052  0.0238
 2822W        W 6566   9.228   2.076   3.041  0.0284  0.1254 -0.1450
 2823W        W 6567   2.424   3.858  10.532 -0.0556 -0.1164  0.0881
 2824W        W 6568   5.423   1.719   3.543  0.0743  0.0101  0.0616
 2825W        W 6569   3.945   7.970   0.907 -0.0365 -0.3198  0.0851
 2826W        W 6570   4.485   8.228   9.512  0.0336  0.2975 -0.4101
 2827W        W 6571   2.570   6.204   2.064  0.1653 -0.0145  0.3056
 2828W        W 6572   7.578   3.043  11.218  0.0248  0.4334  0.1441
 2829W        W 6573   4.382   6.870   1.678  0.0272 -0.1777 -0.2559
 2830W        W 6574   7.579   7.547   4.487  0.2350  0.2461  0.1305
 2831W        W 6575   4.407   3.039   1.743 -0.2743  0.4372 -0.1338
 2832W        W 6576   5.106   5.374   9.292  0.2232 -0.0804 -0.0170
 2833W        W 6577   6.217   4.751  10.941  0.1382  0.2154  0.2362
 2834W        W 6578   6.458   4.412  10.615 -0.2565 -0.0412  0.0086
 2835W        W 6579   7.163   9.579   9.166  0.1089  0.1553 -0.3585
 2836W        W 6580   6.208   5.020   5.332 -0.2737 -0.2068 -0.1569
 2837W        W 6581   2.484   6.976   0.997 -0.0330  0.0272 -0.2317
 2838W        W 6582   2.986   2.986  10.910  0.0276 -0.3520 -0.2426
 2839W        W 6583   1.114   1.949   9.663 -0.2126 -0.3052  0.1660
 2840W        W 6584   4.479   6.432   1.373  0.3066 -0.2366 -0.0125
 2841W        W 6585   0.322   5.933   2.112  0.0315 -0.1808  0.3991
 2842W        W 6586   8.605   4.266   0.138  0.0268  0.0560  0.0160
 2843W        W 6587   1.466   8.043  12.519  0.2218 -0.0385  0.1785
 2844W        W 6588   7.266   4.884  10.990 -0.1871 -0.0941 -0.0937
 2845W        W 6589   6.899   6.122   0.540  0.0919  0.1353  0.0112
 2846W        W 6590   6.889   3.307   2.509  0.0288  0.0376 -0.3999
 2847W        W 6591   0.235   4.709   0.094 -0.0862 -0.1306 -0.1089
 2848W        W 6592   1.524   4.706   0.548  0.1605  0.1948 -0.0374
 2849W        W 6593   7.690   2.379  11.831  0.0323  0.1114 -0.1970
 2850W        W 6594   0.938   8.755  12.375  0.0314  0.2882  0.0645
 2851W        W 6595   0.908   6.482   1.759  0.1752  0.1011  0.0605
 2852W        W 6596   4.291   3.193   1.216 -0.1339  0.0818 -0.0207
 2853W        W 6597   9.745   6.532   1.154  0.0795  0.1859  0.0063
 2854W        W 6598   3.044   5.572   9.170 -0.0327 -0.1194  0.1859
 2855W        W 6599   6.191   6.630  12.127  0.1980  0.1683  0.2043
 2856W        W 6600   5.272   5.133   0.529 -0.1401 -0.2501 -0.2726
 2857W        W 6601   4.954   1.906  10.821 -0.0216 -0.2092  0.2465
 2858W        W 6602   0.949   6.626   0.701 -0.2009 -0.1327 -0.5510
 2859W        W 6603   8.125   3.656   9.976 -0.0433 -0.0945 -0.1455
 2860W        W 6604   8.222   0.973   9.186  0.2941 -0.2532 -0.0371
 2861W        W 6605   1.038   0.203   9.925 -0.2358 -0.2368 -0.0212
 2862W        W 6606   2.426   2.421  12.810 -0.2401  0.0671 -0.1243
 2863W        W 6607   1.082   0.717  11.615 -0.0782 -0.0785  0.0312
 2864W        W 6608   6.615   4.464   2.064 -0.1094  0.2638 -0.1404
 2865W        W 6609   2.087   3.962   2.069  0.3140  0.0528 -0.1496
 2866W        W 6610   4.796   1.228   4.277  0.0854 -0.0022 -0.0042
 2867W        W 6611   0.025   7.761  10.866  0.0108  0.0568  0.0312
 2868W        W 6612   6.298   0.471  10.053 -0.2012  0.4534 -0.1916
 2869W        W 6613   5.167   8.324   9.049  0.0294 -0.3042 -0.2320
 2870W        W 6614   0.644   2.127  11.383  0.3338 -0.0536  0.1339
 2871W        W 6615   4.954   6.018   0.551  0.0158 -0.0779 -0.4046
 2872W        W 6616   8.036   4.027   4.101 -0.0342 -0.1710 -0.1213
 2873W        W 6617   9.383   7.506   3.516  0.3206 -0.0789 -0.0347
 2874W        W 6618   0.767   8.405   9.698  0.0360 -0.1520 -0.2764
 2875W        W 6619   1.996   7.213   3.975 -0.2458 -0.3072  0.3428
 2876W        W 6620   7.834   5.056   0.095 -0.2281 -0.0356 -0.1801
 2877W        W 6621   5.516   8.132   2.988  0.0060  0.3385  0.0337
 2878W        W 6622   0.552   4.398   9.946  0.0163 -0.0196  0.0347
 2879W        W 6623   9.066   7.481  11.124 -0.3178 -0.3222  0.3660
 2880W        W 6624   4.167   8.590   0.229  0.1071 -0.1309  0.2568
 2881W        W 6625   1.104   8.412   2.949  0.0488  0.0091 -0.0297
 2882W        W 6626   6.453   0.473  11.093  0.0323 -0.0582 -0.1147
 2883W        W 6627   6.599   0.916   4.064  0.0911  0.0623  0.1991
 2884W        W 6628   9.584   5.051   1.991 -0.2508 -0.1054 -0.0662
 2885W        W 6629   6.356   7.173   0.710 -0.0392  0.2268 -0.0361
 2886W        W 6630   4.343   8.371   0.676  0.2005 -0.0696 -0.0757
 2887W        W 6631   9.185   7.972  11.390 -0.3012 -0.2307 -0.2706
 2888W        W 6632   2.165   8.154   1.737  0.0503 -0.0225  0.0098
 2889W        W 6633   8.125   9.224   9.579 -0.0670  0.2767  0.2451
 2890W        W 6634   2.651   2.000  12.494 -0.0403 -0.1182  0.1893
 2891W        W 6635   8.970   3.857  12.807  0.0486 -0.3402 -0.0995
 2892W        W 6636   8.959   9.730   1.236  0.2408  0.0764 -0.0857
 2893W        W 6637   9.767   7.659   0.430  0.1817  0.1116 -0.2071
 2894W        W 6638   0.384   0.745   1.201  0.0405 -0.1951  0.3806
 2895W        W 6639   7.885   1.799   9.863 -0.3835 -0.0712  0.1333
 2896W        W 6640   5.952   2.452   0.770 -0.3079  0.1229 -0.2190
 2897W        W 6641   8.077   3.263   2.890 -0.1692 -0.1985 -0.1835
 2898W        W 6642   1.252   7.642   3.394  0.0131 -0.2285 -0.0953
 2899W        W 6643   5.594   0.164   2.778 -0.1698 -0.0208  0.0020
 2900W        W 6644   9.121   7.826   3.230  0.0094 -0.1898  0.1637
 2901W        W 6645   0.022   9.435  10.019 -0.1440 -0.2220  0.1262
 2902W        W 6646   5.902   0.469  12.322  0.3780 -0.0309 -0.1433
 2903W        W 6647   7.743   2.813   3.560  0.2864 -0.0941 -0.1762
 2904W        W 6648   6.407   4.997   9.944 -0.2518 -0.0451 -0.0063
 2905W        W 6649   7.005   3.167   0.906  0.0630  0.1665 -0.0234
 2906W        W 6650   7.789   8.745  10.114  0.2147 -0.3068  0.1254
 2907W        W 6651   4.098   2.803  12.159  0.1267 -0.0626  0.0265
 2908W        W 6652   2.027   8.543  11.355 -0.0491  0.0330  0.2843
 2909W        W 6653   0.638   9.627   2.670 -0.3674 -0.2602  0.3783
 2910W        W 6654   9.026   3.543  12.382  0.1996 -0.0522 -0.0676
 2911W        W 6655   3.694   5.576   2.981 -0.1630 -0.1588 -0.2603
 2912W        W 6656   6.952   7.329   9.422 -0.0138 -0.0526 -0.1153
 2913W        W 6657   8.563   7.883   3.533  0.4840 -0.0641 -0.2648
 2914W        W 6658   8.936   5.157   8.678 -0.1641 -0.1829 -0.1008
 2915W        W 6659   2.262   0.592   2.437 -0.1282 -0.0822  0.0235
 2916W        W 6660   9.802   6.109   3.758  0.2792  0.0868  0.1759
 2917W        W 6661   5.856   0.219   0.784  0.1329  0.0614 -0.1815
 2918W        W 6662   8.137   4.498   9.659 -0.0914 -0.0179 -0.1352
 2919W        W 6663   8.863   9.794   3.058 -0.0886 -0.1177 -0.1041
 2920W        W 6664   3.562   4.768   3.502 -0.0170  0.0865 -0.1496
 2921W        W 6665   5.477   3.884   2.157 -0.2632  0.2298  0.1858
 2922W        W 6666   5.284   0.037  10.239 -0.2764  0.0279 -0.1662
 2923W        W 6667   9.062   4.148   0.355 -0.3277 -0.3609  0.0771
 2924W        W 6668   0.476   9.331   0.448  0.0395 -0.1613  0.0630
 2925W        W 6669   6.951   4.069   0.665  0.2933 -0.3224 -0.0699
 2926W        W 6670   4.741   9.201   0.214  0.4870  0.1230  0.0732
 2927W        W 6671   9.227   5.700  12.577  0.1008  0.1429 -0.0280
 2928W        W 6672   6.897   6.195   1.647  0.0993  0.0299  0.3983
 2929W        W 6673   1.848   6.649  12.321 -0.0755 -0.2025  0.3124
 2930W        W 6674   3.305   4.998   3.087 -0.2722  0.2650  0.0923
 2931W        W 6675   8.642   1.598  12.623 -0.1270 -0.2451  0.0718
 2932W        W 6676   4.120   4.561   8.943 -0.0220  0.2456 -0.0028
 2933W        W 6677   5.612   8.831   2.072  0.0773  0.0522  0.3363
 2934W        W 6678   7.915   1.440  12.272  0.2347  0.1514  0.0980
 2935W        W 6679   6.963   1.419   2.073  0.0630 -0.0714  0.1336
 2936W        W 6680   4.511   0.830   9.877 -0.0284  0.0810  0.1622
 2937W        W 6681   5.084   5.447  12.581  0.0637  0.0509  0.1869
 2938W        W 6682   9.628   1.254   1.974  0.0216 -0.4154  0.1868
 2939W        W 6683   4.827   6.788   1.209  0.0514 -0.2159  0.1247
 2940W        W 6684   4.437   8.794   9.437 -0.0597 -0.0541  0.1999
 2941W        W 6685   6.868   7.578  11.748  0.1000  0.0623 -0.3242
 2942W        W 6686   6.099   4.649   1.829 -0.0452  0.2626 -0.0708
 2943W        W 6687   6.035   8.328   1.443  0.0198 -0.0701  0.5248
 2944W        W 6688   3.015   3.911   3.307  0.0081  0.2441 -0.1678
 2945W        W 6689   5.661   5.697   2.371  0.1670 -0.1900 -0.1000
 2946W        W 6690   7.286   9.554   1.240  0.0102 -0.1107 -0.0686
 2947W        W 6691   7.326   8.764   2.468 -0.3564  0.1989  0.3184
 2948W        W 6692   6.639   3.826   4.894 -0.1689  0.2991  0.0433
 2949W        W 6693   0.215   6.071   3.085 -0.0915  0.3678  0.0422
 2950W        W 6694   3.781   9.919   1.551 -0.1500  0.0568  0.1951
 2951W        W 6695   8.875   4.226   9.886  0.0760 -0.0636 -0.2239
 2952W        W 6696   3.526   5.346   3.451 -0.1808 -0.1028  0.0817
 2953W        W 6697   3.560   0.750   0.949 -0.1403 -0.3213  0.3632
 2954W        W 6698   0.713   2.472   1.384  0.0661 -0.0353  0.4486
 2955W        W 6699   1.171   5.799  11.876  0.1193  0.2696 -0.2180
 2956W        W 6700   7.461   9.662  12.597  0.1889 -0.2786 -0.3308
 2957W        W 6701   8.766   8.980   1.834 -0.4343 -0.0443 -0.0735
 2958W        W 6702   8.612   8.721   9.042  0.2736 -0.3411  0.1587
 2959W        W 6703   5.239   1.241   1.813 -0.2834 -0.1152  0.2459
 2960W        W 6704   8.641   9.070   4.310 -0.1957  0.4413  0.2156
 2961W        W 6705   8.280   7.017   2.173  0.0078 -0.0220 -0.0816
 2962W        W 6706   6.007   8.770   2.478 -0.1770 -0.1000  0.1251
 2963W        W 6707   1.613   7.835  12.019 -0.2053  0.0297  0.0937
 2964W        W 6708   9.490   8.732   2.088 -0.0624  0.0070  0.2412
 2965W        W 6709   4.823   9.236  12.553  0.0765  0.1119 -0.3935
 2966W        W 6710   0.702   8.928   2.202 -0.2967  0.0014  0.0907
 2967W        W 6711   4.522   6.608  10.393  0.0503 -0.0661 -0.0092
 2968W        W 6712   6.153   8.239   2.379  0.1070  0.1330  0.2325
 2969W        W 6713   9.830   2.128   2.336 -0.0201  0.4265  0.1028
 2970W        W 6714   5.485   1.288   9.728  0.0477  0.1022 -0.0106
 2971W        W 6715   6.061   0.108   2.480 -0.1458  0.1518  0.3409
 2972W        W 6716   4.595   5.115   3.415 -0.0798  0.2074 -0.0809
 2973W        W 6717   5.316   6.883   1.991  0.6545  0.2923 -0.3740
 2974W        W 6718   8.342   8.133   9.818 -0.1926  0.1410  0.0655
 2975W        W 6719   0.204   5.347   1.225 -0.2841  0.1484  0.1242
 2976W        W 6720   9.481   0.118  12.096 -0.2195 -0.3600  0.3433
 2977W        W 6721   5.135   9.062   3.060  0.1580 -0.0698 -0.2196
 2978W        W 6722   5.390   4.684  11.677  0.5007  0.1811 -0.0524
 2979W        W 6723   5.489   4.818   2.255 -0.0179  0.1292  0.0424
 2980W        W 6724   3.588   7.140   0.340  0.3504  0.2458  0.0088
 2981W        W 6725   7.616   1.759   0.945 -0.0627  0.3674 -0.1725
 2982W        W 6726   5.384   4.123   9.032  0.2112  0.1595 -0.0719
 2983W        W 6727   6.000   4.541   3.479  0.2015  0.0286  0.0703
 2984W        W 6728   0.158   3.650  12.209  0.3192 -0.1155 -0.2536
 2985W        W 6729   3.390   9.922   1.131  0.2467  0.0049  0.1797
 2986W        W 6730   1.273   6.785   1.423  0.2547 -0.0400 -0.1978
 2987W        W 6731   5.883   6.386   9.983 -0.1351  0.0819 -0.0276
 2988W        W 6732   7.632   5.476   1.237  0.1174 -0.3194 -0.0712
 2989W        W 6733   5.599   7.177   9.761 -0.1466 -0.1137 -0.0806
 2990W        W 6734   9.052   7.983   0.492  0.0762  0.2310  0.0851
 2991W        W 6735   4.962   3.541   8.846  0.3063  0.0676  0.3040
 2992W        W 6736   8.779   2.131   3.159  0.0527 -0.0998 -0.0458
 2993W        W 6737   1.635   0.141   2.347 -0.1934 -0.0809  0.1000
 2994W        W 6738   5.557   8.205   4.724  0.1040  0.0286 -0.0701
 2995W        W 6739   4.548   1.792   2.080  0.1208 -0.0494 -0.3896
 2996W        W 6740   3.757   3.544   1.537  0.2502  0.0708 -0.1226
 2997W        W 6741   3.137   2.110   3.101 -0.1608 -0.1715 -0.0797
 2998W        W 6742   7.725   0.847   1.637  0.0636  0.0630 -0.0887
 2999W        W 6743   0.100   1.815   2.645 -0.0800  0.0067  0.2247
 3000W        W 6744   3.479   1.665   1.150 -0.1887 -0.0118  0.0047
 3001W        W 6745   2.672   6.163   2.929 -0.1193 -0.2265  0.3241
 3002W        W 6746   9.194   3.768   9.969  0.0197  0.3171  0.1893
 3003W        W 6747   8.154   6.806   3.229  0.2143  0.2279 -0.0528
 3004W        W 6748   3.629   0.330   1.861  0.2019  0.0984  0.2007
 3005W        W 6749   7.923   3.249  12.782 -0.0556  0.1637  0.1779
 3006W        W 6750   8.685   1.709   8.285  0.0198  0.0442 -0.1008
 3007W        W 6751   7.536   2.085   0.414  0.2219 -0.2739 -0.2337
 3008W        W 6752   8.976   6.453   0.641 -0.1185 -0.0990  0.2506
 3009W        W 6753   9.396   1.494   9.808 -0.2806 -0.2617 -0.3005
 3010W        W 6754   6.912   2.667   3.290  0.0470 -0.1303  0.0323
 3011W        W 6755   5.124   6.501   2.246  0.0850 -0.0094  0.0514
 3012W        W 6756   6.687   2.580   9.662 -0.1304  0.2606 -0.2978
 3013W        W 6757   8.310   6.105   9.974 -0.1279 -0.0738  0.2672
 3014W        W 6758   7.094   1.914   2.710 -0.0766  0.0165  0.2541
 3015W        W 6759   3.306   2.849   4.338  0.1010  0.0772  0.0598
 3016W        W 6760   4.917   7.266   0.914 -0.0470  0.1539 -0.0055
 3017W        W 6761   6.575   8.788   9.945  0.0169  0.0662 -0.1030
 3018W        W 6762   6.467   6.779   3.989 -0.0875  0.0794 -0.0634
 3019W        W 6763   5.132   7.968   9.971 -0.0502  0.1219 -0.0468
 3020W        W 6764   1.067   0.541  10.320 -0.1952  0.1541  0.0112
 3021W        W 6765   6.836   2.452   0.473 -0.0420 -0.2289  0.3398
 3022W        W 6766   6.235   6.157   9.713 -0.1141 -0.3337  0.2272
 3023W        W 6767   8.164   8.372   2.039 -0.1796 -0.1445 -0.1192
 3024W        W 6768   9.436   6.971  11.838  0.2147  0.1719 -0.1255
 3025W        W 6769   2.810   9.029   9.431  0.2615  0.1595 -0.0903
 3026W        W 6770   4.064   9.789   2.437 -0.3131  0.1777 -0.2258
 3027W        W 6771   1.007   3.924   1.491  0.0298  0.0213  0.0588
 3028W        W 6772   5.119   9.295   9.083  0.0001 -0.2320  0.1173
 3029W        W 6773   6.425   3.374   0.538 -0.0857 -0.3296  0.0604
 3030W        W 6774   8.124   5.584  10.422 -0.1416  0.1767  0.2012
 3031W        W 6775   7.369   4.976  12.783 -0.0804  0.1696 -0.0332
 3032W        W 6776   1.977   5.331   9.473  0.0761  0.2171  0.2356
 3033W        W 6777   1.643   4.598   1.795 -0.4127 -0.1534 -0.0119
 3034W        W 6778   3.164   0.107   9.586  0.0607  0.1973  0.2270
 3035W        W 6779   1.391   0.293   1.235  0.0140 -0.3905 -0.1002
 3036W        W 6780   5.627   1.107  12.258 -0.2817  0.0673  0.0971
 3037W        W 6781   2.529   9.580  12.830 -0.1808 -0.1658 -0.1544
 3038W        W 6782   3.898   1.191   3.871 -0.2862  0.1068 -0.1292
 3039W        W 6783   7.694   1.663   4.547 -0.2969  0.0827  0.2660
 3040W        W 6784   9.197   2.833   9.740 -0.1829  0.0438 -0.2408
 3041W        W 6785   7.352   9.474   3.084  0.0642 -0.2125 -0.1781
 3042W        W 6786   0.089   8.352  11.608  0.0240 -0.1767  0.2030
 3043W        W 6787   3.247   3.885   1.950  0.1162  0.2651 -0.0367
 3044W        W 6788   7.171   7.412   1.179  0.4556  0.1084  0.1409
 3045W        W 6789   2.452   3.452  12.565 -0.0894  0.1125 -0.2413
 3046W        W 6790   7.721   9.762  11.621  0.1595 -0.2843 -0.0794
 3047W        W 6791   0.769   8.330  10.243 -0.1915  0.1549 -0.2567
 3048W        W 6792   9.274   3.792  11.101  0.0611  0.1260  0.1524
 3049W        W 6793   2.237   7.660   9.852  0.0793 -0.1142  0.1598
 3050W        W 6794   7.700   8.154  10.361 -0.3199  0.3636 -0.0788
 3051W        W 6795   1.199   2.062  11.882  0.0525 -0.0006 -0.2658
 3052W        W 6796   8.758   8.726  11.057  0.3712  0.3398 -0.1658
 3053W        W 6797   5.769   3.568   3.240  0.0745  0.0879  0.1452
 3054W        W 6798   6.341   4.059   2.986  0.0930  0.1266  0.3958
 3055W        W 6799   5.275   1.200   8.512 -0.0014 -0.3539  0.1354
 3056W        W 6800   6.639   3.181   3.323 -0.1502 -0.1631 -0.3350
 3057W        W 6801   6.289   7.228   3.783 -0.1196 -0.2429 -0.0220
 3058W        W 6802   5.478   9.481  12.395  0.1735  0.0671  0.0854
 3059W        W 6803   6.372   1.649   1.323 -0.1646  0.0000  0.0882
 3060W        W 6804   6.743   7.762   2.082  0.2330 -0.1109 -0.1521
 3061W        W 6805   8.226   4.492   3.462 -0.1586 -0.1005 -0.0788
 3062W        W 6806   0.028   2.909   0.008 -0.2984  0.3427 -0.0558
 3063W        W 6807   1.737   7.207  10.407 -0.1321 -0.1359  0.0512
 3064W        W 6808   7.227   6.848   2.242  0.4191  0.0482  0.1857
 3065W        W 6809   3.019   9.864   0.785 -0.0988  0.1125  0.1834
 3066W        W 6810   8.836   3.501  11.896 -0.1424 -0.2831 -0.0069
 3067W        W 6811   7.268   2.235   4.086 -0.1705  0.0086  0.0319
 3068W        W 6812   9.211   3.832  11.952  0.3245 -0.0545  0.0422
 3069W        W 6813   0.556   4.623   0.473  0.1861  0.1869 -0.2181
 3070W        W 6814   9.482   3.671   0.505 -0.2199  0.3152  0.0692
 3071W        W 6815   8.578   8.574  10.061 -0.2105  0.0222 -0.0839
 3072W        W 6816   7.362   5.868   0.669  0.0591 -0.0596  0.0164
 3073W        W 6817   1.967   3.996   2.650 -0.1801 -0.1883 -0.0268
 3074W        W 6818   9.727   0.404  10.848  0.1310  0.0485 -0.0466
 3075W        W 6819   2.252   7.509   2.234  0.1318 -0.0918 -0.0108
 3076W        W 6820   0.302   6.264   3.564 -0.3058 -0.0792  0.2189
 3077W        W 6821   1.562   0.062   2.850  0.2541 -0.0452 -0.3798
 3078W        W 6822   3.140   7.814   9.447  0.0728 -0.2145  0.3203
 3079W        W 6823   3.145   9.565   9.341 -0.1128 -0.1137 -0.0347
 3080W        W 6824   3.141   5.330  12.712  0.0664 -0.0526 -0.1516
 3081W        W 6825   5.318   0.438  12.663  0.2609 -0.0086 -0.0027
 3082W        W 6826   8.727   9.032   2.620  0.1931 -0.0788  0.1917
 3083W        W 6827   1.846   2.965  12.112  0.1412 -0.1217  0.2461
 3084W        W 6828   9.593   0.040   3.473  0.2301  0.2845  0.0779
 3085W        W 6829   7.523   1.121  11.336  0.5392 -0.0368  0.1583
 3086W        W 6830   1.580   3.088   9.754 -0.1373 -0.0631 -0.1526
 3087W        W 6831   7.716   5.260   3.500  0.3694  0.2766 -0.0947
 3088W        W 6832   1.556   9.188   1.896 -0.1929 -0.3707  0.0110
 3089W        W 6833   0.394   1.221  10.966 -0.1514 -0.0406 -0.2239
 3090W        W 6834   8.210   1.197   2.758  0.1453  0.0720  0.1634
 3091W        W 6835   7.030   3.279  10.567 -0.0739 -0.2283 -0.2683
 3092W        W 6836   3.408   3.056   3.877  0.5737  0.0865  0.0892
 3093W        W 6837   5.351   5.725   8.279 -0.1072 -0.1258  0.1553
 3094W        W 6838   7.989   1.373   9.357 -0.2590  0.1494  0.1229
 3095W        W 6839   5.881   2.469   2.175 -0.0291  0.0419 -0.0660
 3096W        W 6840   8.654   6.684  12.130 -0.0914  0.3025  0.3803
 3097W        W 6841   1.123   8.845  12.828  0.1084  0.1428  0.0879
 3098W        W 6842   5.642   2.177   1.118 -0.1080  0.0640  0.1131
 3099W        W 6843   5.261   3.372   0.168  0.1808 -0.0190  0.2143
 3100W        W 6844   9.499   9.518   2.655 -0.2717  0.0872  0.0576
 3101W        W 6845   7.039   5.886   2.459  0.0229  0.0191  0.1351
 3102W        W 6846   5.577   3.890  10.069 -0.3786  0.0849  0.0856
 3103W        W 6847   9.257   2.370   1.114  0.2793 -0.0733 -0.0219
 3104W        W 6848   4.801   9.659   0.018  0.2102  0.1554  0.3671
 3105W        W 6849   0.971   7.972   3.683 -0.1452  0.0837 -0.1629
 3106W        W 6850   0.373   6.248   0.850  0.1594  0.2539  0.0391
 3107W        W 6851   8.643   7.738   9.532  0.0692  0.1224 -0.0955
 3108W        W 6852   9.019   5.048   0.786  0.1082 -0.0362 -0.0079
 3109W        W 6853   8.025   0.419   5.137 -0.1178  0.2086  0.0255
 3110W        W 6854   3.096   6.154   0.283  0.0154 -0.0856 -0.2206
 3111W        W 6855   5.417   7.665   9.589  0.2348 -0.0610 -0.0813
 3112W        W 6856   4.238   6.379   4.054  0.0049 -0.2166  0.1814
 3113W        W 6857   5.667   4.601   9.597 -0.0324 -0.2059 -0.0099
 3114W        W 6858   3.614   0.493   9.495 -0.1379  0.0319 -0.2364
 3115W        W 6859   4.354   2.826   2.738 -0.0913 -0.1383  0.1166
 3116W        W 6860   9.632   9.455   3.980 -0.0851 -0.0932  0.0632
 3117W        W 6861   8.503   7.129  10.130  0.1224 -0.1099 -0.1443
 3118W        W 6862   0.764   9.877  12.014 -0.2140 -0.0581 -0.2943
 3119W        W 6863   3.090   3.087   3.492  0.0416 -0.3099 -0.3627
 3120W        W 6864   9.782   5.011   3.793  0.0415  0.1895  0.1793
 3121W        W 6865   6.406   0.265   1.341  0.2469  0.2334  0.1125
 3122W        W 6866   5.879   1.521  10.871 -0.2963 -0.1101  0.1456
 3123W        W 6867   0.094   7.858   2.793  0.2181  0.2394  0.0427
 3124W        W 6868   4.010   0.774   2.439 -0.0427  0.2399  0.1621
 3125W        W 6869   4.447   0.617   8.772 -0.1319 -0.0500 -0.0738
 3126W        W 6870   7.294   1.715   8.765  0.0400  0.5548  0.0442
 3127W        W 6871   6.793   0.100  11.360 -0.0847  0.1166 -0.3356
 3128W        W 6872   2.291   7.036   2.302 -0.1572 -0.0813 -0.0644
 3129W        W 6873   4.811   8.202   1.302  0.2578 -0.2026 -0.2928
 3130W        W 6874   5.023   3.734   1.095  0.1450 -0.0493  0.1426
 3131W        W 6875   4.955   0.469   8.844 -0.0651  0.0017 -0.0995
 3132W        W 6876   9.468   8.986  10.251 -0.0710 -0.5132 -0.0118
 3133W        W 6877   9.199   9.037   9.374  0.2088  0.0614  0.3436
 3134W        W 6878   7.463   7.154   0.286  0.1234 -0.0904 -0.0004
 3135W        W 6879   8.140   5.753   9.102  0.0053  0.0380 -0.3164
 3136W        W 6880   2.246   5.337   9.881 -0.0626 -0.0199 -0.3554
 3137W        W 6881   7.149   9.500   5.032 -0.1914  0.1319 -0.1184
 3138W        W 6882   7.171   5.147   8.809  0.0712 -0.0058  0.0235
 3139W        W 6883   5.165   8.136  11.816  0.0811  0.3073  0.3578
 3140W        W 6884   8.946   7.030  10.359  0.1510 -0.0203 -0.1862
 3141W        W 6885   4.264   6.027   1.100 -0.0017 -0.0792  0.0509
 3142W        W 6886   9.745   0.349   9.926 -0.1835 -0.3057 -0.4136
 3143W        W 6887   7.510   1.612   3.392  0.0527  0.0126 -0.1016
 3144W        W 6888   6.449   1.363  10.935 -0.0873 -0.1262  0.2463
 3145W        W 6889   0.607   3.459   1.941 -0.1505  0.2132  0.0920
 3146W        W 6890   7.172   2.603   0.042  0.2532  0.2006 -0.1320
 3147W        W 6891   5.588   6.394   1.204  0.1108 -0.1128  0.0558
 3148W        W 6892   1.721   8.940   1.475 -0.3618 -0.2109 -0.1367
 3149W        W 6893   8.597   6.016   2.950 -0.0435  0.2998 -0.0993
 3150W        W 6894   7.862   2.230   8.866  0.0426  0.1272  0.1513
 3151W        W 6895   0.500   6.053   1.299  0.1285  0.2661 -0.0493
 3152W        W 6896   5.841   2.975   0.669 -0.2603 -0.0587 -0.0916
 3153W        W 6897   8.158   6.198  10.460 -0.0881 -0.1922 -0.1025
 3154W        W 6898   5.701   7.757  11.114  0.2962  0.1940 -0.0855
 3155W        W 6899   4.628   6.591   3.222 -0.2720 -0.0718 -0.0514
 3156W        W 6900   2.485   9.643   8.196 -0.0382  0.2744  0.0886
 3157W        W 6901   5.898   9.732   4.317  0.0291  0.3641 -0.0068
 3158W        W 6902   0.535   3.444  11.092 -0.1483 -0.3190  0.2425
 3159W        W 6903   9.308   5.165   2.353 -0.0590  0.1695  0.2702
 3160W        W 6904   4.439   2.600   0.479 -0.1371 -0.0693  0.0848
 3161W        W 6905   5.998   5.417  11.881  0.5157  0.1964 -0.0157
 3162W        W 6906   4.797   4.619  11.601  0.0861  0.0157  0.0908
 3163W        W 6907   6.638   9.198   1.402  0.1501  0.0055 -0.1366
 3164W        W 6908   4.048   4.898   3.591  0.0395  0.0916  0.2106
 3165W        W 6909   5.745   9.693   0.478  0.1371 -0.1339 -0.7265
 3166W        W 6910   1.886   3.935  10.276  0.0039  0.0606  0.0632
 3167W        W 6911   9.315   3.477   3.445 -0.1213  0.0413 -0.4553
 3168W        W 6912   7.676   7.770  12.434  0.3148  0.2343 -0.0278
 3169W        W 6913   1.416   4.277   8.784  0.3228 -0.1108 -0.0461
 3170W        W 6914   4.120   8.530  12.050 -0.1197  0.3421 -0.1859
 3171W        W 6915   2.569   8.606   9.336  0.0715  0.1692 -0.0459
 3172W        W 6916   6.190   1.027  11.786  0.0343 -0.2289  0.3295
 3173W        W 6917   3.007   5.959   3.232  0.3111  0.1140  0.3673
 3174W        W 6918   0.338   1.670   9.804 -0.0292 -0.0772 -0.1558
 3175W        W 6919   5.554   3.417   3.685  0.0160 -0.2053 -0.1636
 3176W        W 6920   1.098   6.127  12.279  0.4303 -0.2401 -0.1593
 3177W        W 6921   5.791   0.699  11.861 -0.1752  0.1962 -0.0034
 3178W        W 6922   0.306   0.338   0.168  0.2525 -0.1706 -0.1709
 3179W        W 6923   7.969   0.190   9.513  0.1259 -0.0291  0.2398
 3180W        W 6924   5.765   8.883   3.974 -0.1246  0.0780 -0.2040
 3181W        W 6925   2.799   0.671  11.840 -0.1608 -0.3396 -0.1313
 3182W        W 6926   5.566   0.624   2.997 -0.1007 -0.2587 -0.0637
 3183W        W 6927   7.211   2.871   1.335  0.0988 -0.2921  0.0224
 3184W        W 6928   2.133   9.343   0.801 -0.0558 -0.0673  0.3398
 3185W        W 6929   5.467   0.080   1.610 -0.0080  0.1574  0.0057
 3186W        W 6930   6.334   2.853  11.633 -0.2266  0.0143 -0.3035
 3187W        W 6931   9.034   2.706   0.489 -0.1224  0.0256 -0.1177
 3188W        W 6932   0.778   0.612  10.760 -0.0791  0.0832  0.0698
 3189W        W 6933   7.398   7.117   4.199 -0.0230  0.0011 -0.0912
 3190W        W 6934   9.447   3.269   2.963 -0.0316  0.3307 -0.2550
 3191W        W 6935   9.318   7.445  10.660 -0.0385  0.0955 -0.2336
 3192W        W 6936   6.257   8.172   0.042 -0.0326  0.2076 -0.0331
 3193W        W 6937   5.050   2.490   2.929 -0.0066 -0.0235 -0.1652
 3194W        W 6938   6.309   8.333  10.052 -0.0820 -0.0695  0.2866
 3195W        W 6939   2.663   1.206  10.291  0.0593 -0.2446  0.1141
 3196W        W 6940   9.405   6.091  11.191 -0.0440 -0.0786 -0.2838
 3197W        W 6941   5.934   9.245   2.671  0.1764  0.0372  0.0033
 3198W        W 6942   4.268   5.137   1.260 -0.0973  0.1442  0.0924
 3199W        W 6943   7.366   8.557   5.185  0.1202  0.3113  0.0211
 3200W        W 6944   9.225   6.596   3.499  0.2528  0.3549  0.2471
 3201W        W 6945   4.377   6.755   4.303  0.0849 -0.1168  0.1775
 3202W        W 6946   3.576   9.812   2.594 -0.2734 -0.2239 -0.0624
 3203W        W 6947   5.960   2.168   9.948 -0.0268  0.0066 -0.1115
 3204W        W 6948   8.168   6.644  10.930 -0.0373  0.0021  0.1391
 3205W        W 6949   3.962   8.557   3.538  0.2158  0.1091 -0.3810
 3206W        W 6950   6.032   0.525   2.188 -0.2079 -0.1408  0.2533
 3207W        W 6951   6.840   4.956  12.735  0.0251  0.2375  0.1401
 3208W        W 6952   2.388   3.543   1.630  0.1250  0.0413 -0.1381
 3209W        W 6953   2.160   1.707  12.090  0.3184  0.0939  0.0583
 3210W        W 6954   6.958   1.917   2.139 -0.2942 -0.1098  0.0849
 3211W        W 6955   3.202   9.780  11.011 -0.4963  0.0428  0.0803
 3212W        W 6956   2.255   4.626  11.712  0.0697  0.5998  0.0678
 3213W        W 6957   2.269   9.260   2.834  0.4814 -0.2490 -0.0798
 3214W        W 6958   2.009   7.142   9.937  0.2573  0.0746  0.1910
 3215W        W 6959   4.182   4.283   9.908  0.0774  0.0377  0.0143
 3216W        W 6960   6.903   5.787   3.060 -0.0897  0.2113 -0.1725
 3217W        W 6961   3.848   3.105  12.565  0.2132  0.2029 -0.0945
 3218W        W 6962   5.918   6.346   2.607  0.2549  0.3305 -0.2862
 3219W        W 6963   0.947   2.914   0.287  0.1590 -0.1876 -0.1773
 3220W        W 6964   1.157   2.840   9.850 -0.4017  0.0654  0.0525
 3221W        W 6965   9.191   5.675   3.301  0.0517  0.6503 -0.3541
 3222W        W 6966   2.616   0.855   3.247 -0.1168  0.4759 -0.1744
 3223W        W 6967   0.208   3.825  11.219 -0.1817  0.2253 -0.3246
 3224W        W 6968   2.644   3.703   3.080 -0.1636 -0.0208 -0.1584
 3225W        W 6969   6.071   5.352   9.946  0.0996 -0.0120  0.0921
 3226W        W 6970   3.639   4.123   9.875  0.1695  0.1379 -0.1475
 3227W        W 6971   8.244   4.157   4.617  0.0757 -0.0604 -0.1673
 3228W        W 6972   2.161   2.570   1.989 -0.2650 -0.2864 -0.0502
 3229W        W 6973   4.070   7.471  10.082  0.1533 -0.4894 -0.0290
 3230W        W 6974   9.834   2.386   1.829  0.1804 -0.4109 -0.2299
 3231W        W 6975   3.271   8.851  10.038 -0.4091  0.1365  0.1918
 3232W        W 6976   5.526   9.044   4.423 -0.1936  0.3603  0.1408
 3233W        W 6977   9.507   8.071   2.707  0.0298  0.1213 -0.0914
 3234W        W 6978   1.149   2.549   0.485 -0.0766  0.0435  0.0090
 3235W        W 6979   8.142   7.916  10.208  0.0881 -0.3019  0.3258
 3236W        W 6980   3.937   2.590   2.397 -0.0940 -0.1460  0.1835
 3237W        W 6981   9.441   4.981   2.773 -0.1686  0.5980 -0.0974
 3238W        W 6982   6.326   9.565   2.565  0.1421 -0.0559 -0.0023
 3239W        W 6983   5.233   1.941  10.348  0.1395  0.0116  0.2196
 3240W        W 6984   5.647   6.116   0.758 -0.0135 -0.1419  0.1088
 3241W        W 6985   1.079   8.344   0.041 -0.1525 -0.0785  0.0673
 3242W        W 6986   3.352   1.720   9.731  0.2362 -0.4534  0.1582
 3243W        W 6987   8.663   7.314   1.142  0.3290 -0.1109  0.0506
 3244W        W 6988   2.995   3.771  12.652 -0.0334  0.1868  0.1028
 3245W        W 6989   6.270   0.104  12.272 -0.0384  0.0843 -0.0109
 3246W        W 6990   7.670   6.196   3.598 -0.1313 -0.1511  0.2512
 3247W        W 6991   7.709   4.058   0.371 -0.1958 -0.1988  0.0102
 3248W        W 6992   6.813   7.292   3.034 -0.0624  0.2541  0.1082
 3249W        W 6993   6.872   1.222  10.586  0.2652 -0.4129 -0.0169
 3250W        W 6994   8.798   8.182   3.243  0.2729 -0.2148 -0.3744
 3251W        W 6995   3.420   1.974   2.709 -0.2292 -0.1251 -0.3271
 3252W        W 6996   2.723   5.390   3.821  0.0405  0.1142 -0.1014
 3253W        W 6997   2.364   9.831  11.008  0.1272 -0.2262  0.3209
 3254W        W 6998   2.384   5.154   9.173 -0.1592 -0.1522 -0.3101
 3255W        W 6999   7.025   0.401   3.173 -0.1617  0.1724  0.4016
 3256W        W 7000   3.967   2.143   1.478  0.1532 -0.1521 -0.2510
 3257W        W 7001   4.055   4.677  12.747 -0.2125  0.3100  0.0138
 3258W        W 7002   0.376   0.688   2.190  0.0407  0.0508  0.2467
 3259W        W 7003   4.317   6.602  11.687  0.2207 -0.0547 -0.1536
 3260W        W 7004   6.936   7.106  10.315 -0.0978  0.1866  0.0142
 3261W        W 7005   8.408   5.357  11.536  0.0050  0.3587  0.0732
 3262W        W 7006   6.287   0.966  12.427  0.0854 -0.1443 -0.0627
 3263W        W 7007   5.626   5.748   1.063  0.1450  0.1724  0.2769
 3264W        W 7008   1.883   3.054  10.266 -0.2787  0.1152 -0.5125
 3265W        W 7009   4.171   3.311   3.490  0.2534  0.0983 -0.1693
 3266W        W 7010   0.007   7.317   2.714  0.3740 -0.0294  0.0795
 3267W        W 7011   8.847   7.345   4.040  0.0418 -0.2611 -0.0662
 3268W        W 7012   5.396   2.523   1.426 -0.0257  0.0436  0.2984
 3269W        W 7013   1.273   8.273   9.474 -0.0405  0.1809 -0.4518
 3270W        W 7014   6.601   7.939   1.082 -0.0557 -0.0968 -0.1916
 3271W        W 7015   2.916   2.981   8.701 -0.2141 -0.0671 -0.3841
 3272W        W 7016   8.704   9.166   9.292 -0.1104 -0.2154 -0.1671
 3273W        W 7017   0.868   2.384  11.010 -0.2650  0.1330 -0.1639
 3274W        W 7018   8.488   9.359   3.001 -0.4040  0.1745 -0.0774
 3275W        W 7019   4.284   2.069   9.192  0.1368 -0.2036  0.2512
 3276W        W 7020   2.202   6.975   9.167 -0.0980  0.0953 -0.0928
 3277W        W 7021   4.191   3.807   0.835 -0.6324  0.1037  0.0773
 3278W        W 7022   1.185   6.045   3.141 -0.0961  0.1835 -0.0188
 3279W        W 7023   3.995   7.564  10.582  0.3428 -0.2029  0.2265
 3280W        W 7024   8.409   4.496   3.952  0.1871 -0.1803  0.1064
 3281W        W 7025   4.024   3.140   2.530 -0.1672 -0.0933  0.0798
 3282W        W 7026   5.963   4.924  12.309 -0.3217 -0.1905  0.0633
 3283W        W 7027   8.381   1.989   9.115 -0.2777 -0.1629 -0.2538
 3284W        W 7028   5.204   2.921   1.139 -0.0339  0.1756  0.1466
 3285W        W 7029   3.715   7.424   9.240 -0.1626  0.1351  0.0041
 3286W        W 7030   6.731   6.701  12.769 -0.0472 -0.1382  0.1598
 3287W        W 7031   2.157   7.640   1.800  0.0441 -0.0583  0.2811
 3288W        W 7032   5.336   8.478  12.560 -0.2638  0.0234  0.2266
 3289W        W 7033   4.550   1.628  11.101  0.2919  0.2923 -0.1976
 3290W        W 7034   8.606   9.831  11.165 -0.1472 -0.3448  0.0092
 3291W        W 7035   2.601   7.109   8.834  0.3507 -0.0006 -0.0542
 3292W        W 7036   0.451   3.284  11.952 -0.0280  0.0907 -0.0864
 3293W        W 7037   1.322   7.502   8.775  0.0949  0.0800 -0.1167
 3294W        W 7038   1.771   7.798   3.091 -0.0478 -0.0724 -0.0319
 3295W        W 7039   7.356   4.359   3.641 -0.1437 -0.0950 -0.1483
 3296W        W 7040   1.424   6.084   8.529 -0.1797  0.1592 -0.0896
 3297W        W 7041   5.039   9.539   0.430 -0.0247 -0.1789 -0.0116
 3298W        W 7042   0.675   2.676   2.382  0.2398 -0.0268  0.0983
 3299W        W 7043   7.263   6.813  11.295  0.3170 -0.0000  0.0085
 3300W        W 7044   0.847   3.275   2.980 -0.1529 -0.3079  0.0559
 3301W        W 7045   9.534   7.971   1.352 -0.2123  0.1232 -0.1782
 3302W        W 7046   5.425   9.711   9.352 -0.0924  0.2933  0.1452
 3303W        W 7047   9.284   6.075   0.357  0.2253 -0.1336  0.1421
 3304W        W 7048   6.121   5.825  12.073  0.3928 -0.1235 -0.4023
 3305W        W 7049   3.386   0.502  11.496 -0.0540 -0.1432 -0.0143
 3306W        W 7050   1.931   9.446  10.904  0.0862 -0.1571  0.1045
 3307W        W 7051   1.830   8.328   8.656  0.0854 -0.2409 -0.0426
 3308W        W 7052   0.997   4.754   1.654  0.4058  0.1715 -0.3191
 3309W        W 7053   3.234   3.362  12.575  0.1296  0.3616  0.4224
 3310W        W 7054   3.751   5.752   3.695 -0.2952  0.1784  0.0885
 3311W        W 7055   7.943   6.356   0.608  0.1093  0.2038 -0.0738
 3312W        W 7056   2.072   4.357  10.057  0.2266  0.2410 -0.1791
 3313W        W 7057   8.518   6.822   1.304 -0.0366 -0.0839 -0.0108
 3314W        W 7058   1.267   0.625   9.720 -0.0616 -0.2151  0.1412
 3315W        W 7059   0.162   7.227  10.833 -0.0580  0.2614 -0.1077
 3316W        W 7060   1.687   9.499   0.630 -0.2464  0.5784  0.0246
 3317W        W 7061   8.591   2.665   4.719 -0.2278 -0.1312 -0.1996
 3318W        W 7062   4.563   6.283  11.336  0.0364 -0.0067  0.1117
 3319W        W 7063   9.652   4.058  12.147 -0.1605  0.2139 -0.2720
 3320W        W 7064   9.169   2.366   9.559  0.3054 -0.1821  0.0527
 3321W        W 7065   4.621   0.182   9.143 -0.3689 -0.0629  0.1232
 3322W        W 7066   0.492   9.878  12.568 -0.0153  0.2792 -0.1827
 3323W        W 7067   0.306   8.459   0.732 -0.1958  0.0031 -0.0608
 3324W        W 7068   4.162   7.684   2.694 -0.1565 -0.0188  0.5519
 3325W        W 7069   2.982   1.773   0.583 -0.3437  0.1820  0.1327
 3326W        W 7070   7.723   8.177   2.961 -0.1058 -0.1853 -0.1605
 3327W        W 7071   1.044   6.729  12.116 -0.0048 -0.3357 -0.1967
 3328W        W 7072   8.956   9.250   1.332 -0.3087  0.1759 -0.1528
 3329W        W 7073   7.516   7.730   8.852 -0.2968  0.0421  0.0330
 3330W        W 7074   1.678   0.528   0.241  0.0117  0.1585  0.3220
 3331W        W 7075   0.688   4.177   0.732 -0.3502 -0.1447  0.4863
 3332W        W 7076   0.519   1.282   9.364 -0.0588  0.3702  0.4064
 3333W        W 7077   4.173   6.150   2.250 -0.2072 -0.1016 -0.2097
 3334W        W 7078   6.118   3.541  10.514 -0.3658  0.0321 -0.2757
 3335W        W 7079   6.511   4.275   9.756 -0.0797  0.0148 -0.0101
 3336W        W 7080   2.382   9.773  11.715 -0.0305 -0.0415  0.0576
 3337W        W 7081   3.838   7.616  11.828  0.1613 -0.0233 -0.0238
 3338W        W 7082   0.676   9.453  12.814 -0.1238  0.1840  0.2054
 3339W        W 7083   2.726   2.401   9.261  0.1391  0.0028 -0.3707
 3340W        W 7084   9.146   6.872   9.849 -0.4645  0.2167  0.1713
 3341W        W 7085   2.411   3.305   3.123  0.2525  0.2886  0.0037
 3342W        W 7086   3.732   9.616   0.163  0.2544  0.0753  0.0565
 3343W        W 7087   7.216   7.887   1.316  0.1407  0.2581 -0.2249
 3344W        W 7088   4.261   7.223   9.520  0.5689 -0.0885  0.0021
 3345W        W 7089   7.243   1.812   3.780  0.0857  0.1914  0.0753
 3346W        W 7090   4.079   7.828   0.417 -0.0342  0.2300 -0.2795
 3347W        W 7091   5.150   0.385   2.989 -0.2117 -0.0962 -0.0995
 3348W        W 7092   5.890   2.081   4.179 -0.2002  0.1258 -0.3204
 3349W        W 7093   6.011   6.073   4.998  0.0560  0.0604  0.1337
 3350W        W 7094   4.188   6.952  12.147 -0.1551 -0.0675  0.3234
 3351W        W 7095   9.809   0.824   1.023 -0.0625  0.2463 -0.0459
 3352W        W 7096   7.194   3.879   8.482  0.1119 -0.2928  0.2792
 3353W        W 7097   2.327   9.042   9.215 -0.1972  0.1741  0.0106
 3354W        W 7098   9.789   4.808  12.161 -0.0298 -0.0337  0.0080
 3355W        W 7099   0.635   5.878  12.003 -0.1227 -0.3666 -0.2790
 3356W        W 7100   4.315   2.942   0.766  0.1930 -0.0823 -0.0924
 3357W        W 7101   9.895   6.864  10.542 -0.1615 -0.0926  0.1675
 3358W        W 7102   2.156   8.930   1.115  0.4462 -0.0599  0.0340
 3359W        W 7103   8.697   0.657  12.491  0.1999  0.1472 -0.2352
 3360W        W 7104   5.834   8.554   1.019 -0.1424 -0.1681 -0.1259
 3361W        W 7105   8.364   3.725   4.337 -0.3726  0.0882  0.3184
 3362W        W 7106   4.126   7.186  12.560 -0.0363  0.2732  0.1260
 3363W        W 7107   1.753   3.977  11.982  0.3724 -0.1525 -0.2267
 3364W        W 7108   2.883   9.736  11.419  0.2822 -0.0808 -0.1363
 3365W        W 7109   2.081   5.832   9.654 -0.1325 -0.0380 -0.3620
 3366W        W 7110   5.129   1.002   9.990 -0.0246  0.3680  0.3107
 3367W        W 7111   8.234   3.491   2.037 -0.2217 -0.1528  0.2845
 3368W        W 7112   2.624   1.095  12.709  0.2250 -0.0805  0.0453
 3369W        W 7113   3.945   4.891  11.964  0.1769 -0.0271  0.2872
 3370W        W 7114   5.134   6.512   5.061 -0.3552 -0.0453  0.1587
 3371W        W 7115   4.425   1.136   3.768 -0.3399  0.0606 -0.0092
 3372W        W 7116   6.605   3.540  10.281 -0.1609 -0.3401  0.1579
 3373W        W 7117   7.372   9.846   4.199 -0.0099 -0.2523  0.2433
 3374W        W 7118   3.826   5.744   2.361  0.1691 -0.1723  0.1635
 3375W        W 7119   6.802   5.164  10.314 -0.1893  0.2055  0.2856
 3376W        W 7120   5.796   6.029  10.805  0.0176 -0.0786 -0.1140
 3377W        W 7121   4.925   1.679   1.209 -0.0052  0.0666 -0.1904
 3378W        W 7122   6.560   9.109   4.336 -0.1360 -0.0693 -0.2881
 3379W        W 7123   5.221   3.175   2.425 -0.3359  0.1245 -0.1754
 3380W        W 7124   2.779   8.667  12.192  0.0125 -0.1034  0.3144
 3381W        W 7125   6.438   8.479   2.724  0.3390  0.1035  0.1904
 3382W        W 7126   7.115   7.566   8.675  0.4004  0.3423  0.3286
 3383W        W 7127   6.352   8.990   9.546 -0.0609  0.1779  0.0365
 3384W        W 7128   8.304   2.816  10.494 -0.0622 -0.2855 -0.0090
 3385W        W 7129   2.878   1.477  11.608 -0.2402 -0.1175 -0.1570
 3386W        W 7130   6.651   0.663   3.621  0.0794 -0.4443 -0.0087
 3387W        W 7131   9.594   9.107  12.670  0.0929  0.1984  0.2103
 3388W        W 7132   8.598   7.103   3.098 -0.1785 -0.0877 -0.0027
 3389W        W 7133   4.862   4.233  12.787 -0.2081  0.1804  0.0284
 3390W        W 7134   4.488   8.878  12.699 -0.0198 -0.4333 -0.1528
 3391W        W 7135   7.073   9.093   2.875  0.0827  0.1638  0.1349
 3392W        W 7136   5.683   3.765  10.619 -0.0787 -0.4091 -0.0776
 3393W        W 7137   0.966   6.145   4.340  0.0356 -0.3015  0.1002
 3394W        W 7138   7.884   8.790  10.621  0.1451  0.0708 -0.0587
 3395W        W 7139   3.392   3.763   8.066 -0.1038 -0.0503  0.1397
 3396W        W 7140   3.294   9.400   0.963  0.0267 -0.2442  0.2054
 3397W        W 7141   9.627   9.559  12.859  0.3749 -0.0559  0.2333
 3398W        W 7142   9.689   8.079   3.168  0.1943 -0.2490  0.0985
 3399W        W 7143   8.654   0.419   0.653 -0.0493  0.0067 -0.1441
 3400W        W 7144   1.924   5.910   2.527  0.4110 -0.2182  0.0952
 3401W        W 7145   4.704   0.743  12.310  0.0044 -0.2278 -0.2667
 3402W        W 7146   7.751   4.736   9.887  0.0619 -0.0238 -0.3061
 3403W        W 7147   5.370   2.673   9.712  0.1459 -0.4276 -0.0659
 3404W        W 7148   2.030   1.021  11.846  0.2675 -0.0932 -0.1045
 3405W        W 7149   4.085   6.471   0.404 -0.2700 -0.0245 -0.1782
 3406W        W 7150   0.094   1.679  11.978  0.0065  0.1484  0.0809
 3407W        W 7151   9.597   2.806   9.491  0.1688 -0.1411  0.0210
 3408W        W 7152   7.697   8.372   0.101  0.0137  0.1851  0.1472
 3409W        W 7153   1.642   2.904  11.208 -0.0394  0.2729  0.0316
 3410W        W 7154   6.872   7.148   0.396  0.3745 -0.1036 -0.1020
 3411W        W 7155   3.499   8.973  11.479  0.2213  0.2245  0.2706
 3412W        W 7156   9.389   5.156   3.486 -0.0715 -0.4664 -0.1288
 3413W        W 7157   5.174   0.868   3.179  0.2252 -0.1641 -0.0403
 3414W        W 7158   8.874   3.964  10.362 -0.2587  0.1831  0.0015
 3415W        W 7159   5.740   2.277   9.451  0.1115 -0.0758  0.0254
 3416W        W 7160   4.166   5.610  11.271 -0.0160  0.1947  0.1681
 3417W        W 7161   4.623   7.108   3.398 -0.1097  0.2405 -0.1439
 3418W        W 7162   1.653   9.567   9.604  0.2899  0.2134  0.1433
 3419W        W 7163   4.194   0.189   8.756  0.3174 -0.0892  0.0272
 3420W        W 7164   4.622   7.796  12.081  0.1343 -0.2301  0.1479
 3421W        W 7165   7.817   2.894  12.396  0.2397  0.1795 -0.3284
 3422W        W 7166   7.729   3.040   3.116  0.0311 -0.2303 -0.2711
 3423W        W 7167   9.639   5.336  10.516  0.1912 -0.1509  0.0533
 3424W        W 7168   9.737   7.712   2.447  0.2687 -0.2499  0.2767
 3425W        W 7169   0.981   8.615   9.251  0.0685 -0.0477 -0.1558
 3426W        W 7170   9.584   4.503   3.000 -0.0175 -0.1138 -0.1521
 3427W        W 7171   3.760   6.344   3.640 -0.0322  0.1690 -0.1824
 3428W        W 7172   9.818   8.728   1.040  0.0544 -0.2071  0.1038
 3429W        W 7173   9.386   7.726   0.078  0.1257  0.0611  0.2465
 3430W        W 7174   1.447   9.203   0.300  0.0682  0.3228  0.1805
 3431W        W 7175   4.127   4.020   1.574  0.6231  0.3622 -0.0802
 3432W        W 7176   2.438   6.039   1.632 -0.1921  0.3217  0.0705
 3433W        W 7177   1.049   8.326   1.981 -0.2302 -0.0868 -0.3016
 3434W        W 7178   4.767   8.826  11.845  0.1394 -0.1799  0.1603
 3435W        W 7179   6.928   2.475   9.173 -0.0772 -0.0403  0.2243
 3436W        W 7180   7.534   2.016  11.155  0.0193  0.0716  0.0060
 3437W        W 7181   2.860   8.185   9.281 -0.0720  0.1359  0.3518
 3438W        W 7182   6.581   0.719   1.194  0.1432 -0.3649 -0.2671
 3439W        W 7183   3.247   5.233   4.329  0.2550  0.0223 -0.0327
 3440W        W 7184   9.794   8.427   9.712  0.0647  0.0116  0.0392
 3441W        W 7185   5.337   4.275  11.970  0.3296  0.1575 -0.2098
 3442W        W 7186   2.752   2.208   2.093 -0.2224 -0.1469 -0.0157
 3443W        W 7187   3.577   6.518   2.895 -0.1117 -0.0550 -0.0349
 3444W        W 7188   2.350   6.829   2.726  0.2646 -0.1470 -0.1036
 3445W        W 7189   7.656   1.184  10.386 -0.4151 -0.0260 -0.2871
 3446W        W 7190   6.577   2.088  10.360  0.1681 -0.2081  0.3384
 3447W        W 7191   9.713   1.575   2.334 -0.4132  0.1005 -0.1060
 3448W        W 7192   3.699   8.057   3.027  0.0409  0.1433 -0.0239
 3449W        W 7193   3.454   4.828  10.919 -0.1004 -0.0739 -0.1619
 3450W        W 7194   4.211   9.395   3.268  0.0414  0.1128 -0.1135
 3451W        W 7195   6.423   8.563  12.703 -0.0018 -0.1659 -0.0956
 3452W        W 7196   4.256   1.800   1.690  0.0938  0.3543  0.2537
 3453W        W 7197   0.437   5.169   4.912  0.0841  0.1803 -0.2214
 3454W        W 7198   8.065   4.547  12.175 -0.0220 -0.2683  0.2084
 3455W        W 7199   9.322   6.424   4.402 -0.1659  0.0843  0.4918
 3456W        W 7200   0.062   7.190   8.065 -0.3040  0.0682 -0.2958
 3457W        W 7201   8.121   5.820   3.385  0.2714  0.1870  0.1609
 3458W        W 7202   2.667   3.137   1.546 -0.1022  0.3490 -0.0585
 3459W        W 7203   6.872   8.824  12.678 -0.0388 -0.3264  0.0741
 3460W        W 7204   2.487   9.452  10.252  0.0884 -0.4083  0.2098
 3461W        W 7205   7.573   5.018  12.269  0.1031 -0.2113  0.1039
 3462W        W 7206   2.482   2.737  11.247 -0.1133 -0.0057 -0.2609
 3463W        W 7207   5.747   9.255   2.212 -0.0992  0.2051 -0.0052
 3464W        W 7208   0.642   1.988   0.184  0.2490  0.2912  0.0397
 3465W        W 7209   2.763   8.704   0.694  0.2293  0.0833 -0.3877
 3466W        W 7210   2.970   1.521  12.549 -0.0666 -0.3367  0.1180
 3467W        W 7211   5.060   8.570   2.751 -0.0198  0.0491  0.3059
 3468W        W 7212   8.883   0.662   9.807  0.1373  0.1650 -0.4556
 3469W        W 7213   6.879   0.451  10.499 -0.1975 -0.0667  0.1012
 3470W        W 7214   2.262   8.682   1.591 -0.2584  0.1757 -0.0179
 3471W        W 7215   7.907   7.524  10.908  0.0092 -0.1793 -0.1579
 3472W        W 7216   5.968   7.366   0.509 -0.4209  0.1572  0.1755
 3473W        W 7217   4.572   5.806   2.184  0.0727 -0.0451 -0.0234
 3474W        W 7218   7.274   3.944  10.893  0.1012 -0.0835  0.0420
 3475W        W 7219   3.424   0.566   0.319  0.3735  0.0409 -0.0438
 3476W        W 7220   5.149   6.385   0.992 -0.0305 -0.1494  0.3051
 3477W        W 7221   2.484   0.901  12.231 -0.2278 -0.2469  0.2214
 3478W        W 7222   7.507   4.513   8.790 -0.2843  0.0406  0.0855
 3479W        W 7223   4.554   8.723  11.357 -0.1466  0.2997  0.1320
 3480W        W 7224   3.084   5.307  11.771 -0.0346  0.0188 -0.1676
 3481W        W 7225   6.470   6.338  10.101  0.0854 -0.1906  0.2696
 3482W        W 7226   6.565   0.357   8.977  0.0690  0.0340 -0.0779
 3483W        W 7227   3.091   4.716  11.329  0.1755 -0.2788 -0.0834
 3484W        W 7228   9.810   0.436  12.308  0.0629 -0.4678  0.1414
 3485W        W 7229   9.412   9.178  12.080 -0.0617  0.2208  0.0518
 3486W        W 7230   0.115   0.385  10.425  0.1377 -0.1515 -0.1268
 3487W        W 7231   2.535   1.655  10.292 -0.1163 -0.0682 -0.4233
 3488W        W 7232   1.245   7.058   3.339  0.3110 -0.1261 -0.0372
 3489W        W 7233   5.911   4.676   3.981  0.1499 -0.0808 -0.3084
 3490W        W 7234   7.344   1.344   4.363 -0.0965  0.1768 -0.3006
 3491W        W 7235   7.773   0.407   3.630 -0.0003 -0.1309 -0.0170
 3492W        W 7236   8.080   3.610   3.286 -0.1855 -0.1371 -0.2125
 3493W        W 7237   5.032   8.301   9.565 -0.2751  0.1334  0.1568
 3494W        W 7238   4.248   0.341  12.557 -0.0945  0.2532 -0.2043
 3495W        W 7239   0.887   7.989  11.925  0.1423  0.2675  0.0926
 3496W        W 7240   4.677   8.748  10.884 -0.2457 -0.3353 -0.0118
 3497W        W 7241   7.696   1.001  10.845 -0.2820  0.0558  0.2815
 3498W        W 7242   7.564   5.656  11.781 -0.0920 -0.0887 -0.2766
 3499W        W 7243   9.514   5.740   2.559  0.3663 -0.1330  0.1629
 3500W        W 7244   9.102   6.465   2.075 -0.1424 -0.1274 -0.1913
 3501W        W 7245   7.488   5.803   2.229  0.0384 -0.2134 -0.0890
 3502W        W 7246   7.492   8.535   4.214  0.0067  0.1516 -0.1948
 3503W        W 7247   2.006   2.773  11.524 -0.0063 -0.0311 -0.1139
 3504W        W 7248   0.007   2.885   0.545 -0.0375 -0.0406  0.0547
 3505W        W 7249   7.454   9.001   0.468  0.1032 -0.1207 -0.2097
 3506W        W 7250   7.951   7.823   5.119 -0.0002 -0.1662 -0.1603
 3507W        W 7251   4.799   2.421  10.984  0.2734  0.1531 -0.0015
 3508W        W 7252   6.852   3.240  11.340 -0.1674 -0.3307 -0.3677
 3509W        W 7253   4.738   1.645  10.398 -0.0417  0.0490 -0.3551
 3510W        W 7254   8.827   1.667  11.235  0.1330 -0.2308  0.2100
 3511W        W 7255   7.101   3.404  12.864  0.0261  0.1757  0.1244
 3512W        W 7256   6.198   4.662   8.916  0.0900 -0.0073  0.1367
 3513W        W 7257   6.077   2.940   2.074  0.1502 -0.1916 -0.2362
 3514W        W 7258   5.077   7.459   2.829  0.3465  0.0245  0.0496
 3515W        W 7259   3.338   9.764  10.496  0.0778  0.0272  0.1503
 3516W        W 7260   6.642   3.651  12.780  0.0573  0.1500  0.1109
 3517W        W 7261   3.655   8.942   2.766  0.1715  0.1867  0.0869
 3518W        W 7262   9.011   0.304   2.714 -0.5598  0.0462  0.2252
 3519W        W 7263   4.211   2.647  11.673  0.5623 -0.3114  0.0296
 3520W        W 7264   9.463   5.630  10.143  0.0688  0.1926  0.1160
 3521W        W 7265   7.818   8.085   4.107  0.0745  0.0307  0.0397
 3522W        W 7266   5.005   9.290   9.553  0.1245  0.2526  0.0947
 3523W        W 7267   2.897   7.392  11.636 -0.1307  0.0743  0.1702
 3524W        W 7268   4.935   6.823  12.467 -0.1909 -0.2525  0.2774
 3525W        W 7269   4.005   5.741   9.613 -0.0592  0.0196 -0.1212
 3526W        W 7270   9.084   0.777   8.911  0.0269 -0.2917  0.3028
 3527W        W 7271   2.263   5.981   4.833 -0.3170 -0.0373  0.1666
 3528W        W 7272   0.603   2.975  10.966 -0.0704  0.1606 -0.1242
 3529W        W 7273   2.766   3.533   0.141  0.0995 -0.0050  0.0116
 3530W        W 7274   9.137   9.701   1.921  0.0349 -0.1862 -0.0335
 3531W        W 7275   4.172   7.478   8.556 -0.2316 -0.0679  0.0879
 3532W        W 7276   2.230   0.877  10.413 -0.2309  0.1711 -0.2119
 3533W        W 7277   7.357   5.896  12.693 -0.0345 -0.0159  0.3558
 3534W        W 7278   8.300   2.354  10.716 -0.0267 -0.1273 -0.0991
 3535W        W 7279   7.663   5.930  10.550 -0.0474 -0.0098  0.1767
 3536W        W 7280   3.736   4.246   9.290 -0.0751  0.2091 -0.0642
 3537W        W 7281   8.038   8.174  11.702 -0.2014  0.0178 -0.2604
 3538W        W 7282   9.215   3.109  10.212  0.0320  0.0251  0.0077
 3539W        W 7283   7.809   7.663   3.144  0.0504  0.2066  0.0456
 3540W        W 7284   0.870   0.145   2.644 -0.1198 -0.1344  0.0475
 3541W        W 7285   8.389   2.655   2.424 -0.0454 -0.1862 -0.1136
 3542W        W 7286   0.905   1.054  10.104  0.1055 -0.0412 -0.2504
 3543W        W 7287   7.990   9.317   1.524 -0.5029 -0.0052 -0.2205
 3544W        W 7288   5.203   7.820  12.179  0.0631  0.0731 -0.0088
 3545W        W 7289   6.905   3.461   4.636  0.1159 -0.0286 -0.1331
 3546W        W 7290   4.411   3.862  11.959  0.2137 -0.1495 -0.1176
 3547W        W 7291   9.235   5.848   4.379 -0.0645 -0.4145 -0.2239
 3548W        W 7292   0.150   6.851   2.503  0.0184  0.0290 -0.1317
 3549W        W 7293   6.484   7.727  12.707  0.1895  0.2167 -0.1916
 3550W        W 7294   2.947   5.639   4.214 -0.0594  0.2397  0.1121
 3551W        W 7295   5.298   5.300   3.055  0.2783  0.0502 -0.0694
 3552W        W 7296   6.603   1.695   3.801  0.2341 -0.0978  0.0149
 3553W        W 7297   9.715   9.207   1.929  0.0678 -0.0707 -0.0885
 3554W        W 7298   1.389   4.111   0.347  0.1076 -0.2413 -0.1528
 3555W        W 7299   2.641   5.869   1.123 -0.0378 -0.2539 -0.3617
 3556W        W 7300   9.586   9.837   0.757 -0.2504 -0.1132 -0.1181
 3557W        W 7301   2.481   5.007  12.675  0.1490  0.1366 -0.0022
 3558W        W 7302   1.414   4.227   4.523  0.0434  0.2150  0.1157
 3559W        W 7303   5.385   9.857   4.186 -0.0791  0.2124  0.0939
 3560W        W 7304   0.224   8.575   2.440  0.1268 -0.1511  0.0584
 3561W        W 7305   0.346   7.839   7.906  0.0489  0.2377  0.2090
 3562W        W 7306   1.030   7.863   9.517  0.1211 -0.2867  0.1652
 3563W        W 7307   7.948   4.083   3.148 -0.1414 -0.1568  0.0340
 3564W        W 7308   7.447   8.269  12.508 -0.0962 -0.0659  0.4530
 3565W        W 7309   8.724   2.916  10.161  0.1902  0.3535 -0.3136
 3566W        W 7310   1.413   6.687   0.878  0.3122  0.0305  0.2536
 3567W        W 7311   0.403   2.627  10.131  0.1284  0.1477  0.0752
 3568W        W 7312   8.598   4.102  11.281 -0.1114  0.3953  0.0256
 3569W        W 7313   4.854   8.305  11.073 -0.3077  0.2281  0.2520
 3570W        W 7314   8.239   8.183   3.773  0.1155 -0.1526 -0.3962
 3571W        W 7315   5.842   5.091  10.507 -0.0350  0.1203  0.0039
 3572W        W 7316   2.137   4.449   4.210  0.1354 -0.0698  0.0123
 3573W        W 7317   4.415   5.692   8.738 -0.0693 -0.1583  0.0579
 3574W        W 7318   9.919   3.966  11.686  0.1770 -0.2476 -0.1357
 3575W        W 7319   6.380   7.057   3.254 -0.2162 -0.2462  0.0640
 3576W        W 7320   7.614   9.001   3.234 -0.1198  0.1205  0.2144
 3577W        W 7321   0.738   9.527   3.523  0.0603 -0.1345 -0.0821
 3578W        W 7322   3.889   3.090   1.454 -0.0086  0.2944 -0.0516
 3579W        W 7323   0.952   8.864  11.015 -0.2835 -0.6344 -0.2267
 3580W        W 7324   5.424   7.299   4.704 -0.1228 -0.1393 -0.1888
 3581W        W 7325   2.830   9.940   1.285  0.0428  0.1073 -0.3564
 3582W        W 7326   5.977   1.953   2.550 -0.1393  0.2664  0.0168
 3583W        W 7327   7.025   2.185   3.551  0.3317 -0.0410 -0.1499
 3584W        W 7328   8.368   3.455  11.616 -0.2157 -0.1996  0.1913
 3585W        W 7329   6.135   5.266   9.144  0.1041  0.1435  0.1181
 3586W        W 7330   6.363   8.261  11.345  0.2242 -0.0548  0.1669
 3587W        W 7331   4.877   7.758   1.000  0.0238  0.0089 -0.1165
 3588W        W 7332   0.477   4.219  11.365 -0.0376 -0.4325 -0.0443
 3589W        W 7333   6.090   8.530   4.243 -0.0158 -0.0046 -0.5189
 3590W        W 7334   1.818   8.361   0.584  0.3220 -0.1476 -0.0081
 3591W        W 7335   0.523   0.665  10.284 -0.0447 -0.0249 -0.3315
 3592W        W 7336   1.578   9.887   3.872  0.0409 -0.3015 -0.3303
 3593W        W 7337   4.195   4.106  12.854  0.1015  0.0685 -0.0086
 3594W        W 7338   7.516   4.259   4.485  0.2458 -0.0098 -0.0568
 3595W        W 7339   9.408   0.055  11.633 -0.1459  0.0033  0.2102
 3596W        W 7340   6.728   7.840   4.710  0.1997 -0.0161  0.0381
 3597W        W 7341   3.114   7.289  12.366  0.2010 -0.0680  0.1786
 3598W        W 7342   4.756   7.122   0.397  0.2050  0.2570 -0.0595
 3599W        W 7343   8.480   1.200  10.868 -0.0683 -0.1245  0.3388
 3600W        W 7344   7.116   4.814   2.797 -0.2748 -0.0391  0.3302
 3601W        W 7345   0.236   7.091  11.800  0.2297  0.1414 -0.1630
 3602W        W 7346   4.177   2.233  10.151  0.1730 -0.1705  0.1227
 3603W        W 7347   3.261   0.078  12.258  0.1032  0.2985  0.0580
 3604W        W 7348   2.972   9.349   8.219 -0.1031  0.0934  0.0689
 3605W        W 7349   1.993   5.160  11.907 -0.0477  0.2149  0.1712
 3606W        W 7350   6.764   1.920   1.479  0.2537 -0.1816 -0.1484
 3607W        W 7351   3.788   0.316   2.386  0.0480  0.0046  0.0606
 3608W        W 7352   2.692   3.001   9.949 -0.0081 -0.2732 -0.1708
 3609W        W 7353   5.175   3.004   4.350  0.0124  0.0689  0.1658
 3610W        W 7354   8.231   6.885  12.829 -0.1149 -0.2176 -0.3005
 3611W        W 7355   9.273   5.402   1.617  0.1250  0.2883  0.0530
 3612W        W 7356   0.675   7.938   9.908 -0.1173  0.2398 -0.1214
 3613W        W 7357   2.281   2.867   1.624 -0.0005  0.2488  0.2723
 3614W        W 7358   5.904   4.843   9.966 -0.0722 -0.0240 -0.2431
 3615W        W 7359   9.186   8.931   0.091  0.2373  0.1701  0.1435
 3616W        W 7360   4.689   0.004   1.779 -0.0822 -0.0894  0.1869
 3617W        W 7361   3.236   7.505  11.945 -0.0338  0.2558 -0.3159
 3618W        W 7362   6.949   9.399  11.213 -0.1018  0.2590  0.0396
 3619W        W 7363   3.589   4.080   1.611 -0.1941  0.0550 -0.0222
 3620W        W 7364   8.833   6.452   4.478 -0.0458 -0.1884 -0.0112
 3621W        W 7365   0.760   7.531   0.766 -0.2557 -0.1193 -0.1391
 3622W        W 7366   8.919   7.988   2.760  0.5585 -0.2997 -0.0709
 3623W        W 7367   4.513   3.141  10.003  0.1012 -0.1350 -0.0424
 3624W        W 7368   2.598   0.025   9.517 -0.0463  0.0118 -0.0518
 3625W        W 7369   1.990   3.185  12.572 -0.5314 -0.1076 -0.5835
 3626W        W 7370   1.335   3.618   0.161 -0.0758 -0.0646  0.2550
 3627W        W 7371   7.382   1.617  12.064  0.1060 -0.2566  0.1804
 3628W        W 7372   8.775   1.469   1.794  0.0819  0.1289  0.0465
 3629W        W 7373   7.247   7.604   9.841 -0.0629 -0.2469  0.2581
 3630W        W 7374   0.385   8.778   1.135 -0.0215 -0.2521 -0.2250
 3631W        W 7375   4.705   4.894  10.602  0.2135 -0.2772  0.0389
 3632W        W 7376   0.751   3.092   1.157  0.0626  0.2259 -0.0613
 3633W        W 7377   8.117   6.108   1.865  0.0324 -0.2630 -0.0871
 3634W        W 7378   1.415   3.699   0.852  0.0466  0.1205  0.2459
 3635W        W 7379   6.256   0.476  12.652 -0.4642 -0.0468  0.0792
 3636W        W 7380   7.723   0.669  10.374 -0.3118 -0.0132 -0.0458
 3637W        W 7381   1.623   7.325   4.288 -0.2235 -0.1531  0.2507
 3638W        W 7382   3.929   6.385  12.779  0.4128  0.2451 -0.4852
 3639W        W 7383   7.021   4.387   9.647 -0.4521  0.3034 -0.1530
 3640W        W 7384   7.331   8.619   2.966  0.2265 -0.1145 -0.0219
 3641W        W 7385   3.955   6.044  11.007 -0.1964  0.1349  0.1575
 3642W        W 7386   0.628   8.430   2.198 -0.2455 -0.3702  0.3358
 3643W        W 7387   1.262   0.629   0.599  0.1571  0.0095  0.2322
 3644W        W 7388   6.606   5.099   5.054 -0.0568 -0.0381  0.1144
 3645W        W 7389   3.354   6.780  10.072 -0.2751 -0.0587 -0.0129
 3646W        W 7390   0.348   8.747   3.888 -0.2538  0.1874  0.0324
 3647W        W 7391   2.092   7.895   9.221  0.1725  0.1089  0.3933
 3648W        W 7392   9.309   4.863   1.614  0.2464 -0.0777  0.1832
 3649W        W 7393   0.293   0.268  12.119 -0.3890 -0.2189  0.0025
 3650W        W 7394   5.895   5.935   1.988  0.0677 -0.1063  0.1938
 3651W        W 7395   6.787   1.654  10.198  0.0104  0.3219 -0.1839
 3652W        W 7396   1.135   4.290  11.070 -0.3628  0.1735  0.1203
 3653W        W 7397   5.433   1.194  12.742  0.1232  0.1223 -0.2328
 3654W        W 7398   7.013   8.713   0.607 -0.2735  0.3029  0.2019
 3655W        W 7399   3.224   1.260  11.091  0.2043  0.1793 -0.0123
 3656W        W 7400   4.664   2.664  11.470 -0.2543  0.0372 -0.0867
 3657W        W 7401   0.835   8.584   4.895  0.0917  0.0834  0.0070
 3658W        W 7402   4.128   2.001   2.989  0.6093  0.0883  0.0413
 3659W        W 7403   3.584   2.198  12.778  0.0938 -0.0528 -0.3048
 3660W        W 7404   5.831   1.740   3.770 -0.1860 -0.0515 -0.1078
 3661W        W 7405   7.942   5.698   8.455 -0.0534  0.0657 -0.1688
 3662W        W 7406   5.008   7.289   1.440 -0.5801 -0.1658  0.2502
 3663W        W 7407   9.766   6.120   0.761 -0.1456 -0.2331  0.1884
 3664W        W 7408   5.123   9.730  11.863 -0.0818 -0.0878  0.1191
 3665W        W 7409   3.798   3.504   8.115  0.1168  0.3590  0.1889
 3666W        W 7410   9.680   3.376   4.221  0.3746 -0.3398 -0.3317
 3667W        W 7411   0.563   6.923  12.137 -0.1768  0.0495 -0.0311
 3668W        W 7412   2.758   5.172   1.705 -0.1679 -0.1812  0.1323
 3669W        W 7413   1.489   6.810   2.327  0.4025 -0.1312  0.0159
 3670W        W 7414   0.465   6.811   1.680  0.2275 -0.0827  0.0635
 3671W        W 7415   9.785   8.630  11.996 -0.1661 -0.0493  0.3146
 3672W        W 7416   7.039   3.739   1.031  0.0568  0.0249  0.0571
 3673W        W 7417   6.696   0.886   1.838 -0.1771 -0.1567  0.0442
 3674W        W 7418   2.893   9.770   0.265 -0.0385 -0.1002 -0.4271
 3675W        W 7419   9.233   2.451   2.660 -0.0262  0.1431 -0.2550
 3676W        W 7420   8.355   3.610   9.530 -0.2135 -0.1935 -0.0851
 3677W        W 7421   7.818   0.792   2.740  0.3211 -0.1775  0.3203
 3678W        W 7422   6.851   9.461  10.435  0.0741  0.1675  0.0841
 3679W        W 7423   3.552   9.882  12.644  0.4593  0.0212  0.0090
 3680W        W 7424   9.223   3.975   0.854  0.4261  0.1287 -0.0350
 3681W        W 7425   4.927   5.079  11.042 -0.1756  0.0544 -0.0309
 3682W        W 7426   8.968   6.058  12.835  0.2168  0.0044 -0.1039
 3683W        W 7427   8.918   7.931   8.537  0.0748  0.2712  0.1511
 3684W        W 7428   1.200   3.846  11.933 -0.1830 -0.3208  0.0388
 3685W        W 7429   4.850   5.552   0.769  0.2556  0.4276 -0.1629
 3686W        W 7430   0.034   4.603   4.021 -0.3238 -0.1882 -0.1101
 3687W        W 7431   5.326   3.140   8.989  0.0572 -0.1726 -0.1907
 3688W        W 7432   7.063   5.527   0.926  0.2291 -0.1082 -0.2122
 3689W        W 7433   4.954   1.386  10.763 -0.1625 -0.0552  0.1737
 3690W        W 7434   7.120   4.706   9.123  0.1419 -0.0866 -0.0245
 3691W        W 7435   9.541   7.524  11.199  0.0615  0.0771  0.1884
 3692W        W 7436   1.809   2.457  12.176  0.3212 -0.0385 -0.0226
 3693W        W 7437   6.665   2.912   1.339 -0.4152  0.2898  0.2103
 3694W        W 7438   8.236   8.566   8.681  0.1736 -0.1833 -0.3082
 3695W        W 7439   7.769   2.654  12.823  0.0628  0.0443 -0.0090
 3696W        W 7440   4.239   0.973  12.103  0.1730 -0.0781  0.1841
 3697W        W 7441   8.053   0.508   0.462 -0.0776 -0.2119  0.3583
 3698W        W 7442   0.246   5.773   0.923  0.4559 -0.0233  0.0838
 3699W        W 7443   2.904   0.600   1.013  0.2165  0.2777 -0.2253
 3700W        W 7444   9.559   3.559  11.469  0.3322 -0.1317 -0.3246
 3701W        W 7445   7.876   1.058   4.146  0.1393 -0.2192 -0.4832
 3702W        W 7446   5.061   1.773   2.249  0.0171  0.2859 -0.0728
 3703W        W 7447   7.702   0.016   1.591  0.0502 -0.2403  0.1041
 3704W        W 7448   8.463   1.958   0.037 -0.1469 -0.4429 -0.0403
 3705W        W 7449   8.693   9.763   9.885 -0.2368 -0.0054 -0.1061
 3706W        W 7450   0.300   9.052  10.811  0.1743  0.1721  0.0753
 3707W        W 7451   5.583   5.238   2.587  0.0865  0.3159 -0.3716
 3708W        W 7452   5.325   4.895  11.251 -0.0049 -0.0916 -0.0759
 3709W        W 7453   1.779   5.663   3.388  0.0581  0.0872  0.0877
 3710W        W 7454   0.997   1.025  10.609 -0.3980 -0.2509 -0.2018
 3711W        W 7455   9.861   6.705  11.731 -0.2671 -0.1493 -0.0781
 3712W        W 7456   5.959   4.545   0.610 -0.0231 -0.0675  0.2913
 3713W        W 7457   9.148   1.383   1.200 -0.0111  0.1401  0.5094
 3714W        W 7458   9.006   6.861   1.124 -0.0204 -0.4267 -0.1732
 3715W        W 7459   7.599   6.059   1.079 -0.2090  0.3872  0.0653
 3716W        W 7460   4.111   7.326   1.611  0.1782  0.0597  0.0171
 3717W        W 7461   9.753   4.893  10.696  0.2431 -0.0976 -0.0682
 3718W        W 7462   3.541   0.228   0.719 -0.0587  0.1699 -0.1976
 3719W        W 7463   1.834   7.244  10.998  0.2032 -0.1466 -0.2165
 3720W        W 7464   6.518   7.404   4.618 -0.0121  0.3107  0.0312
 3721W        W 7465   5.423   9.095  10.785 -0.2470 -0.3000 -0.0653
 3722W        W 7466   8.037   5.381  11.194  0.1880  0.3656  0.5761
 3723W        W 7467   2.717   3.319  11.274  0.0155 -0.2728 -0.0993
 3724W        W 7468   1.643   4.220   2.317 -0.1111 -0.1952  0.1768
 3725W        W 7469   8.526   8.099  10.798  0.1695  0.0724  0.3789
 3726W        W 7470   2.393   8.936   3.565  0.2154 -0.3095 -0.2050
 3727W        W 7471   5.777   3.137   0.064  0.0492 -0.2608  0.1307
 3728W        W 7472   9.673   5.983  11.718  0.1035 -0.0294  0.1507
 3729W        W 7473   4.974   0.185   0.313  0.1965  0.0865  0.2527
 3730W        W 7474   3.426   9.612   9.829 -0.1147  0.1092  0.0421
 3731W        W 7475   0.076   7.026  10.060 -0.0862 -0.0152 -0.1240
 3732W        W 7476   8.187   9.852  12.639  0.1186  0.1286  0.0562
 3733W        W 7477   7.511   7.317  11.160 -0.0981 -0.0465  0.1105
 3734W        W 7478   8.711   2.581  10.576 -0.2782  0.0558  0.1342
 3735W        W 7479   9.395   1.004  10.650  0.1324  0.0742 -0.1066
 3736W        W 7480   8.959   7.799   1.156 -0.0496  0.2281  0.0116
 3737W        W 7481   6.172   1.401   3.416 -0.0049  0.1889  0.0711
 3738W        W 7482   9.720   1.674  10.519  0.0353 -0.2899 -0.2359
 3739W        W 7483   0.223   2.702   1.680 -0.0170 -0.3175 -0.0857
 3740W        W 7484   5.892   0.757  11.359 -0.0331 -0.2148  0.1446
 3741W        W 7485   8.638   1.967  12.262  0.0301  0.0892 -0.2847
 3742W        W 7486   4.322   5.554   0.268 -0.0395  0.1383 -0.1557
 3743W        W 7487   6.358   8.480   9.530 -0.0061  0.2318 -0.1051
 3744W        W 7488   4.594   6.284  10.807  0.1580  0.1254 -0.1089
 3745W        W 7489   6.444   2.039   1.887 -0.0383  0.1629 -0.2441
 3746W        W 7490   5.969   8.115  11.856  0.1503 -0.0792 -0.0345
 3747W        W 7491   8.620   8.203   9.316  0.0683 -0.0858 -0.0009
 3748W        W 7492   6.784   8.529  10.706  0.0334  0.0614 -0.3934
 3749W        W 7493   0.039   3.176   1.158  0.3375  0.0263 -0.0431
 3750W        W 7494   3.398   5.560   3.991 -0.1319 -0.1644  0.2663
 3751W        W 7495   2.768   4.839  10.476 -0.1271  0.1256  0.0012
 3752W        W 7496   5.434   9.007   2.609  0.1333  0.0596  0.2220
 3753W        W 7497   6.804   7.025  11.049  0.0062  0.0221 -0.1061
 3754W        W 7498   9.664   7.685   8.694 -0.1223 -0.2396  0.2954
 3755W        W 7499   2.539   7.430   1.426  0.0497 -0.0220 -0.0030
 3756W        W 7500   8.832   7.069   0.118  0.2862  0.1837  0.3334
 3757W        W 7501   8.624   0.366   8.814  0.1202  0.0281  0.0838
 3758W        W 7502   6.469   4.829  12.296 -0.1165  0.1832 -0.3377
 3759W        W 7503   0.682   7.495   9.598 -0.2600 -0.0427  0.0357
 3760W        W 7504   9.568   9.476   9.440 -0.0515 -0.0356  0.0565
 3761W        W 7505   7.378   8.430   3.461  0.1793 -0.2327 -0.0681
 3762W        W 7506   6.028   0.912   2.919  0.1533  0.3402 -0.2223
 3763W        W 7507   9.114   0.413   2.190 -0.2608  0.1325 -0.0826
 3764W        W 7508   2.701   6.400   2.486 -0.0381 -0.1579  0.3959
 3765W        W 7509   6.522   1.414  12.006  0.1003 -0.3818  0.0959
 3766W        W 7510   0.616   4.363  10.898 -0.1260  0.2388  0.0410
 3767W        W 7511   0.969   6.533   3.423 -0.1715  0.0929  0.0273
 3768W        W 7512   6.346   9.552   4.155 -0.2682 -0.2244  0.3553
 3769W        W 7513   0.922   6.089   8.592 -0.0100 -0.0393 -0.3349
 3770W        W 7514   6.278   7.109   5.010 -0.1686 -0.1714  0.1109
 3771W        W 7515   5.485   4.761  10.358 -0.0475  0.2576 -0.1178
 3772W        W 7516   1.775   8.215   3.699  0.0737  0.0202 -0.2720
 3773W        W 7517   1.639   2.810   3.707 -0.4428  0.1540 -0.0043
 3774W        W 7518   1.595   3.688  10.596 -0.0039  0.3050  0.0446
 3775W        W 7519   5.974   5.557  12.486  0.1565  0.0763  0.0562
 3776W        W 7520   5.790   5.356   3.107  0.1182 -0.0377 -0.4172
 3777W        W 7521   6.008   1.386   8.954 -0.1846  0.0206 -0.0961
 3778W        W 7522   6.624   5.683   2.643  0.1661  0.4033 -0.3501
 3779W        W 7523   8.263   2.065   3.915  0.0255 -0.1597 -0.4256
 3780W        W 7524   4.278   1.780   9.597  0.1990  0.1477  0.0588
 3781W        W 7525   2.843   4.791   3.622 -0.1592  0.0477  0.0572
 3782W        W 7526   2.714   3.545   9.803  0.0411  0.0234  0.0419
 3783W        W 7527   7.392   6.750  10.342 -0.0744  0.2118  0.0206
 3784W        W 7528   3.862   1.723  11.733  0.1394  0.1825  0.3231
 3785W        W 7529   8.994   0.701  12.065 -0.2422  0.0718 -0.2945
 3786W        W 7530   7.767   4.527   9.300  0.2983  0.0431  0.0518
 3787W        W 7531   3.752   5.773  11.688 -0.0702  0.0598  0.0148
 3788W        W 7532   8.837   5.562   1.538  0.1950 -0.0066  0.0364
 3789W        W 7533   4.644   2.088   0.439  0.2703 -0.3884  0.1582
 3790W        W 7534   7.409   2.491   3.214  0.3412  0.0111 -0.1439
 3791W        W 7535   5.721   6.531   3.856  0.0224 -0.0036  0.1396
 3792W        W 7536   4.266   7.800   1.765  0.3516 -0.1421 -0.2502
 3793W        W 7537   6.866   9.169   3.831  0.1545 -0.1863  0.0390
 3794W        W 7538   9.549   3.158   9.895  0.1258 -0.1654  0.0324
 3795W        W 7539   6.904   9.591   4.153 -0.3776 -0.1113  0.0494
 3796W        W 7540   5.964   7.425  10.930 -0.4603 -0.1165  0.1055
 3797W        W 7541   3.427   5.086  10.065  0.0129  0.1547 -0.1188
 3798W        W 7542   4.672   3.407  11.042  0.0790 -0.1051  0.1919
 3799W        W 7543   2.802   5.132  12.157 -0.2521 -0.1046  0.2581
 3800W        W 7544   8.574   5.207  10.227  0.3387  0.1372 -0.0674
 3801W        W 7545   1.494   3.237  12.675 -0.2554  0.0291  0.2316
 3802W        W 7546   6.469   5.929   3.745 -0.0200 -0.2040 -0.2447
 3803W        W 7547   9.837   9.757  11.867  0.2269  0.1669  0.2369
 3804W        W 7548   9.196   4.415   1.728  0.0900  0.1365 -0.2594
 3805W        W 7549   9.526   9.492  11.538 -0.1588 -0.3054 -0.0047
 3806W        W 7550   8.870   5.498   0.711 -0.2620 -0.2930 -0.5341
 3807W        W 7551   9.528   1.717   2.818 -0.1138 -0.1986 -0.0963
 3808W        W 7552   8.430   4.089  10.805  0.2868  0.1378  0.0806
 3809W        W 7553   6.833   0.301   1.051 -0.0429  0.2535  0.2905
 3810W        W 7554   8.903   9.230  12.599 -0.2649 -0.1680 -0.2296
 3811W        W 7555   7.753   4.273  10.074  0.0368 -0.0076 -0.3036
 3812W        W 7556   5.778   4.924   9.127 -0.1613  0.0539  0.2851
 3813W        W 7557   4.377   1.797   2.570 -0.1229 -0.0211  0.1760
 3814W        W 7558   1.182   9.317  12.729  0.1203 -0.0378 -0.1561
 3815W        W 7559   9.204   9.648  11.933 -0.0675 -0.1255 -0.2264
 3816W        W 7560   5.231   2.285   8.827 -0.1206  0.2563  0.1231
 3817W        W 7561   7.925   1.940  10.882 -0.2553 -0.0416  0.0575
 3818W        W 7562   0.465   0.352   3.868 -0.1236 -0.2407 -0.0289
 3819W        W 7563   8.439   8.095  12.065  0.2582 -0.1698 -0.1427
 3820W        W 7564   3.433   2.214   2.260  0.0202 -0.1159 -0.1074
 3821W        W 7565   5.726   4.971   0.437 -0.2502  0.0251  0.0549
 3822W        W 7566   5.751   0.235   4.252 -0.0601 -0.0267  0.1464
 3823W        W 7567   2.163   6.007   4.328 -0.4394  0.0076 -0.2694
 3824W        W 7568   1.628   6.877  12.854  0.4115  0.1952  0.2267
 3825W        W 7569   9.063   6.800   4.117  0.2374 -0.1614 -0.1796
 3826W        W 7570   3.833   7.097   2.966 -0.0487  0.3963 -0.1992
 3827W        W 7571   4.418   1.362  10.663 -0.0918  0.2894  0.2704
 3828W        W 7572   4.623   5.272  12.217 -0.2386  0.0391  0.0923
 3829W        W 7573   8.623   6.810   0.805 -0.0245  0.1455 -0.1563
 3830W        W 7574   2.644   7.701   1.856 -0.1237  0.1325 -0.0461
 3831W        W 7575   0.131   8.305  12.624  0.1529  0.0657  0.0206
 3832W        W 7576   9.003   6.136   9.410  0.0375  0.3095 -0.2458
 3833W        W 7577   1.011   3.577  11.316 -0.0830  0.1785  0.0796
 3834W        W 7578   1.346   8.372   8.951  0.2037 -0.5635 -0.3098
 3835W        W 7579   1.590   3.717   2.697 -0.0806  0.2555  0.0710
 3836W        W 7580   9.251   4.936  11.967 -0.0260 -0.1391  0.0726
 3837W        W 7581   6.075   5.994  11.279 -0.1687  0.0012 -0.3135
 3838W        W 7582   8.488   6.052  12.727 -0.0111 -0.0168  0.1802
 3839W        W 7583   5.989   6.083   4.016  0.1496 -0.3214 -0.0497
 3840W        W 7584   6.993   2.045   0.248 -0.0451 -0.3988  0.2296
 3841W        W 7585   4.105   7.190   4.227 -0.0061  0.0500  0.2024
 3842W        W 7586   0.788   3.106  12.378  0.4200 -0.0710  0.1330
 3843W        W 7587   8.244   7.246   4.460 -0.0465  0.1314  0.1702
 3844W        W 7588   5.673   0.979  10.066  0.1741  0.0545  0.2636
 3845W        W 7589   3.321   8.428   2.793  0.0832  0.0435 -0.1621
 3846W        W 7590   0.884   9.258   9.784 -0.3115  0.1340  0.1031
 3847W        W 7591   1.571   2.700   1.229 -0.0909 -0.4921 -0.0354
 3848W        W 7592   1.314   8.310   0.490 -0.0050 -0.2957  0.0885
 3849W        W 7593   4.716   4.825   4.338 -0.0210  0.1174 -0.3013
 3850W        W 7594   3.263   4.318  12.618  0.2270  0.2888 -0.1294
 3851W        W 7595   4.718   0.601   2.706  0.0059  0.0081  0.0355
 3852W        W 7596   6.941   4.249   8.261  0.1113  0.2948 -0.0060
 3853W        W 7597   8.128   1.841  12.479  0.1889 -0.0688  0.0973
 3854W        W 7598   8.601   2.380   8.415  0.1337  0.0998  0.0010
 3855W        W 7599   3.922   8.193   1.941  0.1560  0.0047  0.0262
 3856W        W 7600   7.449   1.165   1.341 -0.0561  0.2620 -0.1584
 3857W        W 7601   0.913   5.469   8.790  0.0523 -0.0445 -0.0898
 3858W        W 7602   0.167   2.287   1.392 -0.3160 -0.0855  0.1302
 3859W        W 7603   4.250   7.179  10.466  0.1111 -0.1299  0.0420
 3860W        W 7604   5.724   3.403  10.246 -0.1038 -0.1288  0.3461
 3861W        W 7605   5.459   1.898   9.092  0.1205  0.0873 -0.1881
 3862W        W 7606   8.946   4.825   2.560 -0.1372 -0.3382 -0.2288
 3863W        W 7607   2.850   1.130   3.744  0.0964  0.1928 -0.1310
 3864W        W 7608   0.059   6.623   0.673 -0.1767 -0.5338 -0.1516
 3865W        W 7609   4.937   3.321   3.222 -0.0172  0.0688 -0.1880
 3866W        W 7610   6.485   8.165   1.963  0.3834 -0.2435  0.1349
 3867W        W 7611   4.646   3.014   4.188  0.1943  0.2258  0.1764
 3868W        W 7612   2.558   3.337   2.613  0.1940  0.2707  0.0342
 3869W        W 7613   9.606   1.184  10.229 -0.0266  0.1376 -0.2252
 3870W        W 7614   0.062   0.858  10.070 -0.4526 -0.5427 -0.0489
 3871W        W 7615   4.791   1.157  12.691 -0.0149  0.3422  0.1223
 3872W        W 7616   8.751   7.368   8.697  0.0281 -0.1803 -0.2450
 3873W        W 7617   8.515   1.402   9.290  0.0320  0.1937  0.0448
 3874W        W 7618   2.797   9.639  10.668  0.0437 -0.2099  0.1430
 3875W        W 7619   2.926   9.938   9.047  0.0462  0.0427  0.0743
 3876W        W 7620   7.117   4.040  10.086 -0.0694  0.0415  0.1851
 3877W        W 7621   4.644   8.938   2.144  0.2360 -0.2511 -0.0700
 3878W        W 7622   6.627   3.041  10.893 -0.0737  0.1903 -0.1165
 3879W        W 7623   8.795   0.572   1.205 -0.2283  0.1871 -0.1695
 3880W        W 7624   0.845   0.669   2.388 -0.1096 -0.2726 -0.0275
 3881W        W 7625   7.169   8.284   0.384  0.2344  0.0491  0.3407
 3882W        W 7626   9.805   0.514  12.806 -0.1398  0.2182 -0.1551
 3883W        W 7627   5.893   3.534   8.666 -0.1251 -0.1129  0.0461
 3884W        W 7628   6.513   2.915   8.583 -0.1352 -0.2687  0.0277
 3885W        W 7629   2.120   8.560  10.533 -0.2525  0.0926 -0.3438
 3886W        W 7630   3.257   0.013   2.182 -0.1834  0.2895  0.0689
 3887W        W 7631   7.524   8.416   2.043 -0.0609 -0.2188 -0.1128
 3888W        W 7632   9.081   8.293   1.974  0.0477  0.2262 -0.0766
 3889W        W 7633   7.606   1.731  12.547  0.2034  0.1416  0.0106
 3890W        W 7634   6.024   3.678  11.558 -0.0879  0.5064  0.2100
 3891W        W 7635   1.989   1.900  10.105 -0.0165  0.0966  0.0262
 3892W        W 7636   8.480   7.328  12.778  0.1490  0.0101 -0.1676
 3893W        W 7637   4.533   3.825   2.070  0.1645  0.0266 -0.0444
 3894W        W 7638   6.086   0.162  11.365  0.3504  0.2355  0.2121
 3895W        W 7639   1.065   5.324   1.766  0.3277  0.1906  0.2606
 3896W        W 7640   8.426   1.269   2.113 -0.1610 -0.2875  0.0132
 3897W        W 7641   6.708   3.871   9.246 -0.3164 -0.1240  0.1537
 3898W        W 7642   7.973   9.198   2.063 -0.1061  0.5540 -0.0198
 3899W        W 7643   5.013   4.677   0.782 -0.1828  0.3016  0.0220
 3900W        W 7644   3.193   1.606   2.936  0.2383  0.2659  0.2125
 3901W        W 7645   1.222   2.949   1.555 -0.1378 -0.1275  0.0578
 3902W        W 7646   8.726   9.136  10.781 -0.0891 -0.0378  0.1344
 3903W        W 7647   8.382   1.291   0.362  0.1071  0.2327 -0.3179
 3904W        W 7648   6.286   8.783   1.411  0.4964  0.0877  0.1025
 3905W        W 7649   8.508   7.313   1.645 -0.3493  0.2435 -0.0230
 3906W        W 7650   6.341   8.368   3.228 -0.0149  0.3095  0.1264
 3907W        W 7651   6.678   9.707   5.195  0.0506 -0.0826 -0.1984
 3908W        W 7652   8.354   9.448  10.784 -0.1622  0.1740 -0.1615
 3909W        W 7653   5.443   5.797   3.289  0.0621  0.1945 -0.0120
 3910W        W 7654   7.932   9.810   2.765  0.0695 -0.0512 -0.1121
 3911W        W 7655   1.382   9.397  10.479  0.3373 -0.1328  0.0640
 3912W        W 7656   4.476   5.505   1.703  0.1188 -0.0750 -0.1324
 3913W        W 7657   4.505   0.854   1.356 -0.2297  0.6125 -0.2943
 3914W        W 7658   6.474   2.268   8.948  0.3560  0.0176  0.2330
 3915W        W 7659   4.875   7.056   8.850  0.1223 -0.2036  0.0521
 3916W        W 7660   7.809   6.648   2.919  0.2818 -0.1301  0.0623
 3917W        W 7661   0.669   2.446   0.414 -0.0160 -0.0898  0.0831
 3918W        W 7662   8.709   4.733   3.427 -0.1983 -0.0127 -0.1404
 3919W        W 7663   4.986   6.236   3.235 -0.4705 -0.1345  0.0326
 3920W        W 7664   9.848   6.552   4.508 -0.1644 -0.2033 -0.1290
 3921W        W 7665   6.385   0.115   2.110  0.0570  0.0112 -0.0257
 3922W        W 7666   5.843   0.917   8.832 -0.0131 -0.0476  0.3909
 3923W        W 7667   9.239   1.236   2.855  0.0656 -0.0086 -0.3677
 3924W        W 7668   6.019   5.139   2.374  0.0505 -0.1773  0.0891
 3925W        W 7669   5.549   3.370   2.028 -0.0365 -0.0289 -0.0887
 3926W        W 7670   1.840   3.861   0.070  0.3739  0.0003  0.1067
 3927W        W 7671   6.456   9.297  10.108  0.1035  0.0751  0.0536
 3928W        W 7672   0.168   8.973   0.542  0.3335  0.4482 -0.1420
 3929W        W 7673   6.590   0.931   4.854 -0.3220 -0.1880 -0.0964
 3930W        W 7674   3.475   7.786  10.601  0.2387 -0.1141  0.0030
 3931W        W 7675   6.722   4.427  12.502  0.2878 -0.0806  0.2850
 3932W        W 7676   7.005   6.075   1.081  0.0460 -0.2147  0.0269
 3933W        W 7677   0.063   4.863  10.277  0.3241 -0.0806 -0.3437
 3934W        W 7678   0.402   4.714  11.223  0.2833 -0.2369  0.2392
 3935W        W 7679   6.158   4.099  12.210 -0.0704 -0.0636 -0.1841
 3936W        W 7680   8.463   5.615   9.974 -0.1876 -0.1116 -0.3027
 3937W        W 7681   8.369   3.048   1.928  0.0664  0.3520  0.3912
 3938W        W 7682   3.206   8.838   0.174  0.1866  0.1816  0.2270
 3939W        W 7683   1.115   0.068   3.104  0.3053 -0.3631  0.3308
 3940W        W 7684   9.872   6.904   4.860 -0.0955  0.2652 -0.2483
 3941W        W 7685   0.965   3.063  10.273  0.0569  0.2956 -0.0226
 3942W        W 7686   6.482   9.114  10.648 -0.0576 -0.0468 -0.3322
 3943W        W 7687   0.948   7.873   4.681 -0.3690 -0.0330  0.1201
 3944W        W 7688   2.443   7.700   0.388  0.2238 -0.1173  0.2446
 3945W        W 7689   0.953   6.041  10.217  0.2477 -0.0883  0.3090
 3946W        W 7690   0.777   5.261  12.847  0.2690  0.2263 -0.2179
 3947W        W 7691   6.496   1.512  11.472 -0.2541 -0.0575  0.0680
 3948W        W 7692   3.074   7.318  11.133  0.3997  0.0426  0.1596
 3949W        W 7693   1.094   5.549   4.337  0.1983 -0.0964  0.1152
 3950W        W 7694   2.268   6.385  12.561 -0.0066 -0.4426  0.0362
 3951W        W 7695   7.294   4.283   1.974 -0.0786 -0.2834  0.0163
 3952W        W 7696   0.015   1.396   0.055 -0.1120 -0.4301  0.1250
 3953W        W 7697   1.340   8.051  11.626  0.0819  0.0628 -0.2940
 3954W        W 7698   6.310   9.504   1.782  0.2509  0.1418 -0.1356
 3955W        W 7699   5.125   2.287  12.601 -0.0134 -0.0411 -0.0153
 3956W        W 7700   7.261   0.828   0.828  0.2505 -0.2207 -0.4180
 3957W        W 7701   5.036   0.219  12.172 -0.0740  0.1483  0.0908
 3958W        W 7702   2.386   6.592   8.882 -0.2079 -0.0328 -0.2042
 3959W        W 7703   1.537   0.380   1.777 -0.1028 -0.2764  0.0108
 3960W        W 7704   8.879   3.789   9.538 -0.2090 -0.1217 -0.3114
 3961W        W 7705   1.310   9.181   9.474 -0.0122  0.1092  0.0894
 3962W        W 7706   7.625   5.933  12.257 -0.4587 -0.1508  0.0956
 3963W        W 7707   2.450   6.589   9.438  0.0893  0.3482  0.2137
 3964W        W 7708   6.800   7.957  10.038 -0.1612  0.0024 -0.0342
 3965W        W 7709   0.134   0.183   0.576 -0.0083  0.1213 -0.0844
 3966W        W 7710   9.048   9.421   8.503  0.1628 -0.2672 -0.0128
 3967W        W 7711   4.985   7.487  11.844  0.0843  0.1225  0.3049
 3968W        W 7712   9.571   2.158   1.429  0.3029  0.0111  0.0315
 3969W        W 7713   4.619   4.508   9.137  0.1692 -0.2145  0.1312
 3970W        W 7714   9.165   3.972   3.996  0.1532  0.1185  0.2745
 3971W        W 7715   4.112   5.942  12.157  0.1105 -0.0781  0.1070
 3972W        W 7716   7.169   0.029  10.413  0.0038  0.2029  0.2133
 3973W        W 7717   7.432   1.084   2.303  0.4480  0.1787 -0.2765
 3974W        W 7718   7.843   5.908  10.057  0.1962 -0.0670 -0.1210
 3975W        W 7719   1.513   3.762   2.128 -0.0059 -0.3149 -0.0582
 3976W        W 7720   7.708   5.479  12.653 -0.2056 -0.3422 -0.2226
 3977W        W 7721   5.873   5.023  12.769  0.6129  0.3811  0.2358
 3978W        W 7722   3.262   5.579  11.374  0.2492  0.0906 -0.0888
 3979W        W 7723   2.110   7.687   8.132  0.0213  0.1830 -0.1693
 3980W        W 7724   2.468   6.699  10.413 -0.2522 -0.0846  0.0236
 3981W        W 7725   3.219   2.017  12.415 -0.1248 -0.3715  0.1147
 3982W        W 7726   6.077   4.594   2.365 -0.3106  0.1793  0.0494
 3983W        W 7727   8.845   3.392  12.864  0.2695 -0.0534 -0.2046
 3984W        W 7728   4.684   6.268   4.202  0.0358 -0.2725 -0.3076
 3985W        W 7729   6.700   6.984  11.558 -0.2034 -0.1707 -0.0601
 3986W        W 7730   5.044   8.154   3.077  0.1931 -0.2190 -0.2135
 3987W        W 7731   1.393   3.307   3.535  0.0727 -0.2316  0.2063
 3988W        W 7732   2.618   7.853  10.198  0.1764 -0.3435  0.1110
 3989W        W 7733   1.027   9.926   4.008 -0.2754  0.1493 -0.0929
 3990W        W 7734   4.716   5.808  12.744 -0.0717 -0.0522 -0.1332
 3991W        W 7735   3.070   0.275  11.234  0.0571  0.0839  0.0008
 3992W        W 7736   3.075   4.379   0.294 -0.3115  0.2169  0.2320
 3993W        W 7737   2.179   2.103  12.406 -0.1578  0.3758  0.1871
 3994W        W 7738   9.316   5.375   9.096  0.1232 -0.2132 -0.0109
 3995W        W 7739   3.708   5.142   3.920  0.0626  0.2705  0.0765
 3996W        W 7740   2.152   0.797  11.372  0.0771 -0.0492  0.1205
 3997W        W 7741   7.612   3.434  11.864  0.2002  0.2039  0.0823
 3998W        W 7742   5.398   7.104   2.984 -0.0001  0.0560  0.1903
 3999W        W 7743   3.910   1.544  10.870  0.0204  0.1641  0.1838
 4000W        W 7744   3.631   1.343  12.515 -0.1008  0.0052  0.1679
 4001W        W 7745   2.976   5.877   8.329 -0.1209 -0.0193  0.2194
 4002W        W 7746   0.454   3.495   3.471  0.1425  0.3965  0.0309
 4003W        W 7747   2.160   1.428   9.965 -0.1044 -0.0392  0.2063
 4004W        W 7748   1.515   5.013  12.179  0.1127 -0.0667  0.4977
 4005W        W 7749   5.585   3.049   1.450  0.0076  0.0093 -0.1428
 4006W        W 7750   2.927   5.231   0.784  0.0486  0.2218 -0.2837
 4007W        W 7751   0.139   4.558  12.477 -0.1018  0.0126 -0.0565
 4008W        W 7752   6.909   2.520  12.466  0.1950  0.0009  0.3152
 4009W        W 7753   0.073   2.718  12.117 -0.2324 -0.1030  0.1395
 4010W        W 7754   0.902   0.291   9.435 -0.3499 -0.0380 -0.1970
 4011W        W 7755   5.482   5.747  12.684  0.2096  0.1151  0.2547
 4012W        W 7756   4.508   3.962   9.594 -0.0877  0.0829  0.0759
 4013W        W 7757   8.447   5.916  12.219  0.0698 -0.0583 -0.0807
 4014W        W 7758   0.320   6.565   1.215  0.1873  0.3438 -0.1936
 4015W        W 7759   6.172   3.982   9.971  0.1065  0.0805  0.1760
 4016W        W 7760   6.655   4.639  11.522  0.0136  0.0151 -0.2813
 4017W        W 7761   4.900   1.324   3.783  0.0264 -0.1642 -0.1296
 4018W        W 7762   0.006   6.971  11.273 -0.0613  0.0773  0.2289
 4019W        W 7763   5.261   6.784   3.854 -0.0444 -0.0438  0.0898
 4020W        W 7764   1.614   0.340   0.810 -0.1734 -0.0256  0.3321
 4021W        W 7765   7.127   8.906   4.413  0.4667  0.3097  0.3456
 4022W        W 7766   7.412   5.147   2.502 -0.1628 -0.0562 -0.0048
 4023W        W 7767   3.949   3.051   0.175 -0.3398  0.0049 -0.0834
 4024W        W 7768   6.316   8.109   0.637  0.1899  0.3309 -0.0369
 4025W        W 7769   9.550   6.982   3.376 -0.0114  0.0458 -0.3728
 4026W        W 7770   2.158   1.005   2.736  0.0219  0.0663 -0.1061
 4027W        W 7771   7.002   8.446   1.213  0.0854 -0.0407 -0.3799
 4028W        W 7772   5.290   2.581   2.433 -0.0686  0.1186 -0.0455
 4029W        W 7773   2.740   2.107   0.877 -0.5839 -0.2745  0.3505
 4030W        W 7774   5.778   7.128   3.852  0.2804 -0.0438 -0.1397
 4031W        W 7775   6.807   5.327  12.404  0.0561 -0.1145  0.0291
 4032W        W 7776   7.177   0.977   1.791 -0.1859 -0.0613  0.7429
 4033W        W 7777   2.348   2.297   2.577 -0.0929  0.0233 -0.0018
 4034W        W 7778   6.889   0.734  11.263 -0.5435 -0.0010 -0.0037
 4035W        W 7779   2.744   5.999   9.719  0.1454 -0.1443  0.4050
 4036W        W 7780   8.389   8.502   3.438 -0.1676  0.0645  0.3147
 4037W        W 7781   7.660   8.986   4.503 -0.4850  0.1468 -0.0035
 4038W        W 7782   0.021   1.933  12.520 -0.2208 -0.0807 -0.1143
 4039W        W 7783   6.635   6.126  12.162  0.0068  0.0090  0.2308
 4040W        W 7784   2.316   3.349   9.052  0.1097 -0.0570 -0.0031
 4041W        W 7785   4.590   6.179   8.924 -0.0229 -0.1621 -0.0893
 4042W        W 7786   6.656   0.397   9.509 -0.4114  0.0467  0.4376
 4043W        W 7787   4.559   3.452   0.778 -0.2287 -0.0830  0.0752
 4044W        W 7788   0.847   7.268   8.731  0.0798 -0.0454 -0.0614
 4045W        W 7789   7.837   0.320  11.400 -0.2894 -0.1642  0.1056
 4046W        W 7790   4.970   0.727   0.516  0.0888 -0.0290  0.2508
 4047W        W 7791   5.771   5.484  10.776  0.1247 -0.2827 -0.0198
 4048W        W 7792   7.601   9.032  12.756  0.0878  0.0472 -0.4376
 4049W        W 7793   8.616   5.620   3.284  0.0951  0.0530 -0.1031
 4050W        W 7794   7.370   8.107   3.852 -0.2596  0.0818  0.2042
 4051W        W 7795   5.982   4.028  12.779 -0.0625  0.3371 -0.0325
 4052W        W 7796   7.356   0.318   1.792  0.0839 -0.1076  0.0852
 4053W        W 7797   6.867   0.420   0.126  0.1718 -0.0483 -0.4060
 4054W        W 7798   6.133   4.172   2.100 -0.0070 -0.0983  0.1101
 4055W        W 7799   2.834   5.699   0.690  0.2063 -0.1714  0.1648
 4056W        W 7800   1.619   7.238   0.700  0.0921 -0.3115 -0.1880
 4057W        W 7801   1.914   1.205  11.096  0.0715  0.1934  0.0907
 4058W        W 7802   6.633   3.980  12.187  0.2651 -0.1861  0.3995
 4059W        W 7803   5.605   7.194   8.209 -0.1317 -0.1154 -0.0814
 4060W        W 7804   5.418   0.706   8.560  0.0818 -0.0631 -0.3751
 4061W        W 7805   0.245   5.789   3.635  0.0105 -0.2050  0.1303
 4062W        W 7806   6.351   8.998   3.932  0.1454  0.2078  0.3039
 4063W        W 7807   2.253   3.283   9.970  0.2150 -0.1871  0.1675
 4064W        W 7808   7.459   1.173   3.131 -0.1788 -0.1019  0.0524
 4065W        W 7809   7.874   2.659   0.809  0.0069  0.4454  0.1195
 4066W        W 7810   4.072   8.256   3.938 -0.1074  0.0509  0.1511
 4067W        W 7811   6.847   8.230   0.747  0.1114 -0.1850  0.0603
 4068W        W 7812   8.353   4.981   2.840 -0.0847 -0.3386  0.1691
 4069W        W 7813   1.843   3.227   2.656  0.0462  0.2379  0.1314
 4070W        W 7814   6.560   8.346   1.368  0.3481 -0.2554  0.0088
 4071W        W 7815   1.266   0.991   0.967 -0.0876 -0.1833  0.2590
 4072W        W 7816   8.977   2.193   0.360 -0.0829  0.1991  0.7048
 4073W        W 7817   1.783   6.807  10.709  0.3670  0.0755 -0.2184
 4074W        W 7818   3.336   9.330  10.759 -0.0756 -0.1478 -0.2684
 4075W        W 7819   7.697   9.495   3.493 -0.2557 -0.3090 -0.0714
 4076W        W 7820   6.999   2.316  10.633  0.0009 -0.0969 -0.2213
 4077W        W 7821   4.489   8.726   3.584 -0.1747  0.1025 -0.3540
 4078W        W 7822   0.055   0.208   1.092  0.1426 -0.2819 -0.0785
 4079W        W 7823   7.969   0.017   3.420  0.1851  0.0553 -0.0515
 4080W        W 7824   4.754   0.077   1.293 -0.1880 -0.4092  0.0583
 4081W        W 7825   1.797   7.392   8.472  0.2271  0.0806  0.1544
 4082W        W 7826   4.986   6.780   0.718 -0.1505 -0.0212  0.3069
 4083W        W 7827   6.457   4.081  12.662  0.0219 -0.2780  0.0747
 4084W        W 7828   8.874   4.323   2.232  0.0613  0.1280  0.0257
 4085W        W 7829   2.925   4.990   0.189  0.0967  0.2290 -0.1662
 4086W        W 7830   4.328   7.028  10.012 -0.0566  0.2121 -0.1731
 4087W        W 7831   0.517   9.628  10.586  0.0408 -0.3278 -0.1302
 4088W        W 7832   3.645   8.911  10.365 -0.0992  0.1063 -0.1939
 4089W        W 7833   6.233   1.359   2.816 -0.1786 -0.0703 -0.0835
 4090W        W 7834   5.941   0.193  11.872  0.0298 -0.1716 -0.1560
 4091W        W 7835   3.854   7.643   2.153  0.1291 -0.3037  0.1320
 4092W        W 7836   5.545   8.460   4.279 -0.1751 -0.0878 -0.0923
 4093W        W 7837   4.856   3.417   9.796  0.3619 -0.3133 -0.1236
 4094W        W 7838   3.291   8.524   0.580 -0.1453  0.1899  0.1375
 4095W        W 7839   4.668   5.508  11.269  0.1167  0.2512  0.0040
 4096W        W 7840   8.123   5.823  10.864 -0.0906  0.1672  0.0181
 4097W        W 7841   9.526   4.651   0.172 -0.0136 -0.0845  0.3252
 4098W        W 7842   8.110   7.934   0.888 -0.0005  0.0053  0.4348
 4099W        W 7843   7.268   7.256   0.720  0.0046 -0.3347  0.2996
 4100W        W 7844   1.800   6.325  12.748 -0.2610 -0.2753 -0.0824
 4101W        W 7845   7.065   7.979   3.464 -0.2103 -0.1630  0.0234
 4102W        W 7846   3.737   8.418  10.015  0.0207 -0.6342  0.1561
 4103W        W 7847   7.164   1.430   2.507  0.0249 -0.0431  0.0134
 4104W        W 7848   2.964   0.169   3.989  0.0972  0.0848  0.0076
 4105W        W 7849   5.681   6.992  10.616  0.1197 -0.2080  0.3993
 4106W        W 7850   3.328   8.922  12.517  0.0084  0.0418 -0.2819
 4107W        W 7851   6.299   4.495   0.990  0.0095  0.1440  0.0157
 4108W        W 7852   0.385   8.242   3.573  0.0083  0.0974  0.2670
 4109W        W 7853   6.582   6.658   0.458  0.0260  0.0865  0.2003
 4110W        W 7854   5.448   0.006  12.292 -0.1527 -0.0834 -0.0647
 4111W        W 7855   0.063   5.730  11.943 -0.1691 -0.0137  0.1390
 4112W        W 7856   6.564   2.577  10.654  0.2979 -0.2782  0.0862
 4113W        W 7857   2.640   2.112  10.446  0.0881 -0.3511  0.0571
 4114W        W 7858   8.615   9.744  10.408 -0.1399 -0.0371 -0.1766
 4115W        W 7859   0.574   2.418   2.930 -0.1002 -0.1226 -0.0033
 4116W        W 7860   4.856   6.871   1.694 -0.1355  0.3455 -0.0927
 4117W        W 7861   4.697   5.765  12.225  0.0003  0.0841  0.2102
 4118W        W 7862   7.125   3.054   8.273 -0.1833 -0.0709  0.1129
 4119W        W 7863   5.938   7.861  10.534  0.4202  0.0340 -0.2479
 4120W        W 7864   7.624   9.375   0.768  0.0826  0.1370 -0.0268
 4121W        W 7865   4.844   3.656   0.322 -0.1909  0.0304  0.1292
 4122W        W 7866   6.696   4.849   4.247 -0.2339 -0.1182 -0.1258
 4123W        W 7867   8.594   0.215  12.527 -0.1376  0.0077 -0.0508
 4124W        W 7868   3.310   9.309  10.239  0.3598  0.1076 -0.2163
 4125W        W 7869   6.811   7.125   0.997  0.2708 -0.0978 -0.0427
 4126W        W 7870   7.300   2.145  12.112 -0.1260  0.1076 -0.1944
 4127W        W 7871   6.672   3.851   4.375 -0.0706  0.2585 -0.1525
 4128W        W 7872   9.149   8.816  10.766  0.1864 -0.0502 -0.1744
 4129W        W 7873   5.319   2.928   0.589 -0.0988 -0.0988 -0.1103
 4130W        W 7874   6.209   9.258  11.112  0.2555 -0.0157  0.1977
 4131W        W 7875   7.199   2.756  10.687 -0.0779 -0.0910 -0.3847
 4132W        W 7876   5.478   3.080  11.989 -0.6094 -0.2216  0.1018
 4133W        W 7877   6.377   5.355  10.346  0.4309  0.1663  0.2680
 4134W        W 7878   0.641   5.423   0.993 -0.1452 -0.1932 -0.2333
 4135W        W 7879   5.942   9.789   9.585 -0.0214  0.0522 -0.0044
 4136W        W 7880   5.115   1.860  11.728  0.3732 -0.0804  0.1621
 4137W        W 7881   8.553   6.608   2.384 -0.1675  0.0653  0.0366
 4138W        W 7882   9.004   7.821   4.301  0.2761 -0.2852 -0.0508
 4139W        W 7883   9.682   8.180  12.161  0.0834  0.0994  0.1776
 4140W        W 7884   8.176   4.587   0.074 -0.4045  0.2879 -0.1487
 4141W        W 7885   8.042   9.054  11.961 -0.3126  0.1517 -0.3354
 4142W        W 7886   4.686   7.598  10.126  0.1503 -0.1438  0.2438
 4143W        W 7887   2.128   8.919  10.919  0.2423  0.1645 -0.1238
 4144W        W 7888   0.620   7.946   2.244 -0.2020  0.2596 -0.0168
 4145W        W 7889   8.286   9.841  11.644 -0.3620 -0.2072 -0.2085
 4146W        W 7890   6.476   6.743   0.962  0.1538 -0.0116 -0.2094
 4147W        W 7891   3.064   6.708  10.793 -0.0320  0.0180  0.1408
 4148W        W 7892   0.199   9.619   0.737 -0.1807  0.4073 -0.1535
 4149W        W 7893   5.840   3.831   1.230  0.4538 -0.0760  0.1134
 4150W        W 7894   7.513   8.521   0.605  0.1888 -0.3028  0.1743
 4151W        W 7895   1.387   7.746  11.271 -0.2092  0.1475  0.1718
 4152W        W 7896   7.246   8.834  10.915  0.0142 -0.1732 -0.0404
 4153W        W 7897   4.526   0.242   9.689 -0.1248  0.2660  0.1432
 4154W        W 7898   8.688   1.476   1.289  0.1851  0.1092 -0.0420
 4155W        W 7899   2.907   9.122  10.032  0.2768  0.1154 -0.1309
 4156W        W 7900   7.151   6.629   1.790  0.0806  0.2378  0.0522
 4157W        W 7901   1.101   5.076  11.183  0.2740  0.2558  0.2085
 4158W        W 7902   8.565   5.449   1.136  0.1201 -0.0318  0.2350
 4159W        W 7903   8.755   6.591  11.589 -0.0153 -0.0326 -0.0951
 4160W        W 7904   1.436   5.197   3.131 -0.0875 -0.2163  0.2814
 4161W        W 7905   0.626   5.795   4.461  0.0593 -0.0353 -0.0965
 4162W        W 7906   3.895   3.399   2.997 -0.0256 -0.0593  0.1359
 4163W        W 7907   1.185   1.698   2.033 -0.1060 -0.1902  0.2171
 4164W        W 7908   3.093   8.411   2.348  0.0907 -0.0252  0.0798
 4165W        W 7909   9.620   0.218   0.329  0.2309  0.1981 -0.1443
 4166W        W 7910   6.702   8.059   0.263  0.1111 -0.1474  0.2132
 4167W        W 7911   5.025   6.591  11.137 -0.3400 -0.1322 -0.0596
 4168W        W 7912   0.005   9.413   4.501 -0.2180  0.0789  0.2300
 4169W        W 7913   4.079   8.715   1.373  0.0511 -0.2107 -0.1392
 4170W        W 7914   1.045   1.794   7.920  0.2234 -0.2330 -0.0979
 4171W        W 7915   8.048   5.870  12.565  0.0615 -0.2570 -0.0601
 4172W        W 7916   1.136   5.358   9.220 -0.0241 -0.2308  0.3032
 4173W        W 7917   4.969   8.394  10.211  0.1319 -0.2080 -0.2872
 4174W        W 7918   7.577   3.909   3.516  0.0385  0.1285 -0.2524
 4175W        W 7919   7.311   8.130   0.906 -0.1376  0.3296  0.0298
 4176W        W 7920   0.014   6.171  12.154  0.0861 -0.0909 -0.1849
 4177W        W 7921   6.364   7.200  11.228  0.0362 -0.1749 -0.0559
 4178W        W 7922   9.613   4.591  11.113 -0.2896  0.2829  0.0390
 4179W        W 7923   2.991   0.804   0.057  0.2848 -0.1177 -0.0876
 4180W        W 7924   3.061   0.888   0.556  0.1963 -0.2521  0.1661
 4181W        W 7925   1.034   5.593   2.803  0.0700  0.0951  0.2117
 4182W        W 7926   9.569   6.305   2.115 -0.0640  0.1779  0.0111
 4183W        W 7927   1.287   8.032   1.607  0.1396 -0.2512  0.1527
 4184W        W 7928   7.343   6.355   9.857  0.1075 -0.0501 -0.3161
 4185W        W 7929   3.706   0.847  11.886 -0.1618 -0.2186  0.0444
 4186W        W 7930   4.462   5.189  10.995  0.3156 -0.2210 -0.1666
 4187W        W 7931   1.908   8.046   0.929 -0.3201  0.2803 -0.2282
 4188W        W 7932   5.965   8.648  11.374  0.0053 -0.3504  0.2366
 4189W        W 7933   8.917   6.039  10.854 -0.1471  0.0196  0.2588
 4190W        W 7934   3.008   7.573   0.806 -0.0501 -0.2692  0.2350
 4191W        W 7935   6.004   2.844   2.727  0.2669 -0.1605  0.2363
 4192W        W 7936   6.385   1.355  10.403 -0.1140 -0.1888 -0.2705
 4193W        W 7937   8.234   2.791  12.820 -0.2145 -0.1592 -0.0265
 4194W        W 7938   3.715   9.804   2.097 -0.2741  0.1636  0.2105
 4195W        W 7939   5.282   8.887   3.966  0.1141 -0.0525 -0.1194
 4196W        W 7940   9.309   7.068  11.303 -0.1959  0.1738  0.0743
 4197W        W 7941   3.818   2.979   3.706  0.1168  0.3295 -0.0306
 4198W        W 7942   9.742   1.245   2.743 -0.1771  0.1192 -0.0285
 4199W        W 7943   8.298   3.294   1.475 -0.0940 -0.0419 -0.1960
 4200W        W 7944   0.843   1.385  12.341 -0.2321  0.1767  0.1519
 4201W        W 7945   6.185   8.354   4.733  0.2953 -0.2221  0.0266
 4202W        W 7946   1.786   2.268  10.314  0.0558 -0.1208  0.1255
 4203W        W 7947   9.303   9.316  11.109 -0.0401  0.0298 -0.3793
 4204W        W 7948   8.674   2.577  12.048  0.0423 -0.1065 -0.0024
 4205W        W 7949   9.019   1.692  12.231 -0.0418  0.2348  0.2404
 4206W        W 7950   9.199   9.171   1.807 -0.1662  0.1020 -0.0925
 4207W        W 7951   5.439   4.738  12.678 -0.0258  0.0864 -0.1617
 4208W        W 7952   3.091   8.923   2.455 -0.2410  0.0387  0.1579
 4209W        W 7953   5.229   9.895  12.795  0.1388 -0.0358  0.2069
 4210W        W 7954   2.774   1.116   0.915 -0.3448 -0.0880 -0.0179
 4211W        W 7955   4.901   4.169   1.258  0.0774  0.0750  0.0616
 4212W        W 7956   7.356   7.671  11.584  0.0606  0.0123  0.2194
 4213W        W 7957   2.823   5.527   9.925 -0.0355 -0.0307  0.1789
 4214W        W 7958   0.577   8.039  12.752 -0.1589  0.3989  0.2680
 4215W        W 7959   1.680   7.717   3.577  0.0746  0.1537 -0.0533
 4216W        W 7960   2.208   9.357   8.818 -0.3947 -0.0556  0.0852
 4217W        W 7961   9.148   4.230  11.227  0.1054 -0.2482  0.0316
 4218W        W 7962   9.008   6.416  10.585  0.1306 -0.0864 -0.0208
 4219W        W 7963   5.487   1.347   9.008 -0.2384 -0.0373  0.5110
 4220W        W 7964   6.331   3.649  12.405 -0.0646  0.1219 -0.0091
 4221W        W 7965   0.802   5.791   9.165 -0.1706  0.0566  0.0492
 4222W        W 7966   2.402   8.997  12.185 -0.2600 -0.3228  0.1880
 4223W        W 7967   1.236   5.101   0.244 -0.0401 -0.0059  0.1682
 4224W        W 7968   0.345   0.515  12.570  0.2156 -0.4121 -0.0461
 4225W        W 7969   5.286   4.758   1.753 -0.0161  0.0284  0.0900
 4226W        W 7970   9.317   1.648   3.272  0.2388 -0.0974  0.1300
 4227W        W 7971   8.319   5.143   0.215  0.4049  0.3285 -0.2472
 4228W        W 7972   5.218   4.162   3.616  0.0151 -0.0946  0.1973
 4229W        W 7973   6.756   5.178   3.891  0.1322  0.0192  0.0691
 4230W        W 7974   0.913   9.508   3.039 -0.1523 -0.1687 -0.0474
 4231W        W 7975   7.001   4.240   8.794  0.0159  0.1522 -0.0399
 4232W        W 7976   6.815   5.418   3.466  0.0002 -0.1094  0.0868
 4233W        W 7977   5.689   2.885  11.041  0.0335 -0.2044 -0.0734
 4234W        W 7978   7.516   8.261  11.605  0.4041  0.0436 -0.0938
 4235W        W 7979   3.748   9.010   9.358 -0.3933 -0.2845  0.1506
 4236W        W 7980   6.180   0.387   9.404 -0.0002  0.0194  0.0644
 4237W        W 7981   5.795   5.038  11.040 -0.1160  0.0341  0.2742
 4238W        W 7982   7.269   3.850   0.306 -0.1138  0.0937  0.1699
 4239W        W 7983   2.490   5.916  10.765 -0.2857  0.0918  0.1868
 4240W        W 7984   1.934   4.595  11.236 -0.1427  0.2389  0.2202
 4241W        W 7985   9.341   9.170   2.284  0.4553  0.0362 -0.0274
 4242W        W 7986   4.330   7.610  12.585 -0.0372  0.0689 -0.2123
 4243W        W 7987   1.853   4.995   2.889  0.2125 -0.0484 -0.0614
 4244W        W 7988   8.936   6.162  11.374  0.1079 -0.0354 -0.4195
 4245W        W 7989   0.696   8.932   9.473  0.0522 -0.2108 -0.2439
 4246W        W 7990   5.063   5.007  11.934  0.2975 -0.3568  0.2200
 4247W        W 7991   5.832   3.455   1.608 -0.5985  0.0945 -0.1133
 4248W        W 7992   5.814   4.563   0.110 -0.0698 -0.1439  0.0652
 4249W        W 7993   3.913   8.470   2.748  0.0226 -0.0300 -0.1997
 4250W        W 7994   5.275   8.699   9.509 -0.0431  0.2355  0.2588
 4251W        W 7995   5.525   4.719   0.847 -0.0363  0.0781 -0.0510
 4252W        W 7996   3.240   7.980   3.161 -0.0269  0.1215 -0.2878
 4253W        W 7997   0.149   4.268  10.938  0.1352 -0.0304  0.1400
 4254W        W 7998   8.153   3.110   9.401 -0.1136 -0.3160  0.1754
 4255W        W 7999   8.053   6.499   2.228 -0.0732 -0.1354 -0.1099
 4256W        W 8000   7.821   4.776   2.762 -0.0635  0.0743  0.3819
 4257W        W 8001   0.339   4.737  10.730  0.1151 -0.1820 -0.2137
 4258W        W 8002   6.201   6.457   3.754  0.2302  0.0332  0.1372
 4259W        W 8003   5.020   4.929   1.266  0.0670 -0.0637  0.1653
 4260W        W 8004   4.966   1.102   9.505  0.0058 -0.0638  0.2043
 4261W        W 8005   6.097   8.541   1.956  0.2393 -0.0730  0.0471
 4262W        W 8006   4.132   8.789   4.023  0.1066 -0.2619 -0.2298
 4263W        W 8007   1.834   0.338   3.421  0.0202 -0.0400 -0.1706
 4264W        W 8008   5.717   3.983  11.899  0.0035 -0.1642 -0.1234
 4265W        W 8009   0.538   9.625   9.941 -0.1335  0.1083  0.0661
 4266W        W 8010   8.964   0.237  11.481  0.2613 -0.0590 -0.0409
 4267W        W 8011   2.891   1.568   1.066 -0.0083  0.1230  0.1516
 4268W        W 8012   6.757   4.158   1.115 -0.3361  0.0324 -0.1075
 4269W        W 8013   1.939   7.917   2.174 -0.0343  0.3868 -0.2390
 4270W        W 8014   3.693   1.052  11.285 -0.4355 -0.2054  0.2137
 4271W        W 8015   6.437   9.128   0.170  0.0262  0.0405  0.1724
 4272W        W 8016   8.614   8.346   2.313 -0.1200  0.1095  0.1336
 4273W        W 8017   2.208   5.613   9.111  0.3552 -0.1081  0.1470
 4274W        W 8018   3.849   4.586  11.041 -0.0427 -0.0328  0.0746
 4275W        W 8019   2.862   8.827   4.603 -0.0549  0.2929  0.1293
 4276W        W 8020   7.914   8.327  11.186 -0.2597 -0.2202 -0.3407
 4277W        W 8021   7.420   4.689   1.578  0.3553  0.0206 -0.1258
 4278W        W 8022   1.263   6.571  11.599 -0.2716 -0.0334  0.3323
 4279W        W 8023   1.037   7.081  11.711 -0.1890  0.4562  0.0728
 4280W        W 8024   0.770   4.422   3.525  0.2523  0.3009 -0.3034
 4281W        W 8025   9.117   7.457  10.177  0.0373  0.2246  0.0736
 4282W        W 8026   7.183   0.747   0.295  0.1935 -0.0768  0.0909
 4283W        W 8027   9.195   8.503   8.392  0.0911 -0.0900  0.2285
 4284W        W 8028   3.030   6.036  11.443  0.1449 -0.2464  0.1766
 4285W        W 8029   6.293   5.119   1.616 -0.1124 -0.2494 -0.0555
 4286W        W 8030   5.774   1.534   0.682 -0.1372 -0.0285  0.3589
 4287W        W 8031   2.758   5.987  12.639  0.0830 -0.1059 -0.0445
 4288W        W 8032   5.186   2.669  11.060 -0.4984 -0.0476 -0.0843
 4289W        W 8033   8.195   0.424  12.363  0.1380 -0.1714 -0.0789
 4290W        W 8034   3.499   5.311   2.635 -0.0047  0.1872 -0.0168
 4291W        W 8035   2.544   4.368  10.479 -0.0771  0.0083 -0.1173
 4292W        W 8036   0.635   9.096  12.022  0.0245 -0.2318 -0.2147
 4293W        W 8037   3.613   1.766   3.083  0.1165 -0.2631 -0.3014
 4294W        W 8038   5.130   0.021  11.161  0.2261 -0.0915 -0.2812
 4295W        W 8039   9.270   9.903   2.387  0.1022 -0.1252 -0.3373
 4296W        W 8040   7.053   5.733   5.211  0.1060  0.1755 -0.0828
 4297W        W 8041   7.974   5.814   1.457 -0.2144  0.1971  0.0049
 4298W        W 8042   2.874   8.257   0.528 -0.0219 -0.0993 -0.0073
 4299W        W 8043   3.575   2.999   1.804  0.0877 -0.0448 -0.1525
 4300W        W 8044   7.330   3.811  11.909  0.0781 -0.1018  0.0032
 4301W        W 8045   1.432   1.778  12.777  0.0657  0.0957  0.2465
 4302W        W 8046   6.176   6.708   8.769 -0.1627  0.3020  0.2139
 4303W        W 8047   5.914   5.787   1.515 -0.0234 -0.2774  0.1294
 4304W        W 8048   0.980   8.462   3.526 -0.0049  0.1531 -0.0871
 4305W        W 8049   9.614   1.759   9.485  0.0528  0.1592 -0.2297
 4306W        W 8050   3.993   0.012   2.881 -0.2379  0.0079 -0.3303
 4307W        W 8051   8.737   4.600   2.986 -0.1628  0.0115 -0.1212
 4308W        W 8052   3.762   7.294   1.105 -0.0007  0.0961  0.2621
 4309W        W 8053   8.840   8.228   9.831  0.2150  0.1521  0.0321
 4310W        W 8054   3.125   6.545   1.609  0.0282  0.3456  0.2316
 4311W        W 8055   3.557   3.118  12.065  0.1200 -0.2632 -0.0708
 4312W        W 8056   9.824   5.736   9.761  0.0132 -0.0421 -0.0510
 4313W        W 8057   2.967   2.817  11.410 -0.1268  0.4410 -0.2151
 4314W        W 8058   6.002   1.395  12.111 -0.2070  0.2389 -0.1675
 4315W        W 8059   9.124   1.397  12.843  0.0725  0.1101  0.0900
 4316W        W 8060   4.043   1.082   1.494 -0.0182  0.0181 -0.0506
 4317W        W 8061   1.349   5.061  10.715 -0.4380 -0.0138 -0.1852
 4318W        W 8062   9.719   9.053   9.098  0.1252 -0.0785 -0.1840
 4319W        W 8063   3.121   7.295   2.655  0.2853 -0.1204  0.1652
 4320W        W 8064   7.817   5.455   9.793 -0.0775  0.1389  0.0649
 4321W        W 8065   3.176   2.557   2.047 -0.1343 -0.0680  0.0115
 4322W        W 8066   3.545   8.704   2.329 -0.0142  0.2406  0.0951
 4323W        W 8067   8.591   7.641   8.279  0.2183 -0.2262  0.2059
 4324W        W 8068   2.735   7.599   8.723 -0.1649 -0.0040  0.2645
 4325W        W 8069   8.133   4.612   0.938  0.0118 -0.1665 -0.2216
 4326W        W 8070   1.361   4.661   1.059  0.1681  0.1482  0.3004
 4327W        W 8071   1.941   5.912  10.567 -0.2483 -0.0929 -0.2849
 4328W        W 8072   7.227   5.089   4.241 -0.0899 -0.2729 -0.0810
 4329W        W 8073   8.305   8.387   4.329  0.0116 -0.1957 -0.1403
 4330W        W 8074   1.086   9.684   9.585 -0.1755  0.0765  0.0249
 4331W        W 8075   3.595   7.412   2.472 -0.2110  0.2396  0.0312
 4332W        W 8076   5.489   2.146  12.215  0.0397 -0.0099  0.0195
 4333W        W 8077   3.941   2.868  10.545 -0.0601 -0.0536 -0.2884
 4334W        W 8078   3.703   2.712   0.456  0.0016 -0.2418  0.1880
 4335W        W 8079   3.968   2.934   9.554  0.0522 -0.1414  0.0219
 4336W        W 8080   2.740   1.868   2.869  0.2719 -0.0758  0.2136
 4337W        W 8081   3.698   3.909   1.091 -0.2021  0.3091  0.0942
 4338W        W 8082   1.640   1.723   2.344 -0.1388  0.1622  0.4582
 4339W        W 8083   1.269   3.838  11.011 -0.0652 -0.4964  0.0025
 4340W        W 8084   3.800   2.458  11.194  0.0430  0.1341 -0.2052
 4341W        W 8085   6.952   8.448  12.287 -0.0124  0.0075 -0.3368
 4342W        W 8086   6.849   9.864   9.475  0.0394  0.0100 -0.2461
 4343W        W 8087   5.377   2.206  10.783 -0.3527  0.4035  0.1319
 4344W        W 8088   2.975   4.632  10.849 -0.2479 -0.3533 -0.4939
 4345W        W 8089   0.684   8.717   2.679  0.0678 -0.2000 -0.2997
 4346W        W 8090   7.812   4.029   9.062  0.0178  0.1778  0.2495
 4347W        W 8091   9.056   8.204   4.555 -0.1584 -0.2967 -0.6197
 4348W        W 8092   3.131   5.669   3.593 -0.1382 -0.0536 -0.0337
 4349W        W 8093   3.621   3.270   3.380  0.0337  0.4490 -0.0190
 4350W        W 8094   2.120   9.355   3.504 -0.2729 -0.0335  0.3021
 4351W        W 8095   3.029   7.352   1.277 -0.1348 -0.1588 -0.0294
 4352W        W 8096   2.209   9.303  12.548 -0.0025 -0.2818 -0.2566
 4353W        W 8097   9.623   3.182   0.178 -0.1609 -0.0329  0.1064
 4354W        W 8098   8.813   6.849   9.326 -0.3558  0.4056  0.1838
 4355W        W 8099   1.206   1.397   0.126 -0.3632 -0.2960 -0.1482
 4356W        W 8100   3.232   1.396   0.777 -0.0583 -0.1387  0.0164
 4357W        W 8101   2.401   4.116   1.746 -0.4047  0.1113  0.2665
 4358W        W 8102   0.188   0.715   0.598  0.1786  0.0456  0.1012
 4359W        W 8103   9.701   6.151   4.243  0.1723 -0.2994  0.1446
 4360W        W 8104   7.892   3.852  10.348  0.2564 -0.2175 -0.1989
 4361W        W 8105   9.154   5.972   0.822 -0.2212 -0.2446  0.3038
 4362W        W 8106   0.301   6.224  11.711  0.0996  0.0752  0.0166
 4363W        W 8107   6.609   1.579   1.808 -0.0698  0.0846  0.1134
 4364W        W 8108   7.714   1.328   2.700 -0.3395  0.2053 -0.0083
 4365W        W 8109   5.340   1.615   1.501 -0.0979 -0.3297 -0.0621
 4366W        W 8110   2.046   4.465  10.516  0.1161 -0.1748 -0.0563
 4367W        W 8111   4.534   6.124   9.904 -0.2640 -0.0046  0.1802
 4368W        W 8112   3.986   3.397   0.571 -0.0930 -0.0347 -0.2120
 4369W        W 8113   4.942   9.532   2.920  0.3127 -0.0935 -0.1911
 4370W        W 8114   5.059   0.426   9.937 -0.1917  0.1647 -0.1587
 4371W        W 8115   7.843   0.914   3.321 -0.0184 -0.0904 -0.0094
 4372W        W 8116   5.267   1.587   3.060 -0.0538  0.3880 -0.1702
 4373W        W 8117   4.319   4.094   8.903  0.0055  0.1549 -0.4946
 4374W        W 8118   6.676   7.880   1.589 -0.2844  0.1557 -0.1033
 4375W        W 8119   6.059   9.700  10.085  0.1032  0.1506 -0.0566
 4376W        W 8120   6.720   1.089   0.863 -0.4425 -0.1302 -0.1896
 4377W        W 8121   5.843   6.982   0.208 -0.0026 -0.1592  0.1307
 4378W        W 8122   7.947   9.679   1.899 -0.2984  0.1343  0.0279
 4379W        W 8123   4.663   9.444   2.067 -0.1194  0.3866 -0.0467
 4380W        W 8124   4.594   2.552  10.064 -0.4129 -0.0318  0.0758
 4381W        W 8125   9.099   3.556   1.153  0.0525 -0.3445  0.0649
 4382W        W 8126   3.437   2.921   2.296 -0.2681 -0.0028 -0.1898
 4383W        W 8127   8.199   6.807   1.730  0.1573 -0.0142  0.2756
 4384W        W 8128   5.809   2.038  10.895  0.2208 -0.0928  0.0972
 4385W        W 8129   5.596   7.076  11.625  0.3033 -0.1314  0.2973
 4386W        W 8130   8.068   8.996  12.501  0.1320 -0.1674  0.2499
 4387W        W 8131   7.453   2.595   0.489 -0.0045  0.0182 -0.0446
 4388W        W 8132   7.527   9.887   2.052 -0.1398 -0.2342 -0.3973
 4389W        W 8133   6.948   5.874   3.570  0.0707 -0.1096  0.2596
 4390W        W 8134   1.250   4.402   1.471  0.1280 -0.1198  0.0355
 4391W        W 8135   1.883   8.208   4.345 -0.0860  0.1915  0.1848
 4392W        W 8136   7.831   0.271   2.443  0.1921  0.3403 -0.1369
 4393W        W 8137   2.418   9.347  10.788 -0.3316 -0.0031 -0.1626
 4394W        W 8138   9.842   0.841   9.523 -0.0067  0.1178 -0.2475
 4395W        W 8139   2.783   9.205   2.185 -0.0989  0.0490 -0.1428
 4396W        W 8140   5.351   7.627  12.629 -0.0721  0.1693 -0.1616
 4397W        W 8141   4.656   7.706   2.691 -0.1085  0.1842  0.2024
 4398W        W 8142   8.514   5.527   1.929  0.2820 -0.0129 -0.1668
 4399W        W 8143   7.728   6.565   1.034 -0.3873  0.0665 -0.0755
 4400W        W 8144   6.432   0.898  11.346  0.1982  0.0836 -0.2572
 4401W        W 8145   3.997   4.628   2.176 -0.1859 -0.1268  0.0744
 4402W        W 8146   2.796   3.632  10.827 -0.0691  0.2600 -0.0089
 4403W        W 8147   4.566   7.538   0.577 -0.0294  0.0534 -0.1958
 4404W        W 8148   0.287   7.035   0.320  0.2896 -0.2721  0.4622
 4405W        W 8149   7.905   1.440   3.158  0.0518  0.0756 -0.0205
 4406W        W 8150   6.862   4.636   1.169  0.3629 -0.1904  0.1199
 4407W        W 8151   8.572   4.971   3.842  0.0228 -0.0681  0.1598
 4408W        W 8152   6.919   9.826  10.923 -0.1085 -0.3355 -0.1267
 4409W        W 8153   8.048   8.064   4.630  0.2218  0.1231  0.1134
 4410W        W 8154   8.044   5.656   1.971  0.4146 -0.0972 -0.0773
 4411W        W 8155   6.235   1.758  10.130  0.0289 -0.1631  0.0703
 4412W        W 8156   3.138   2.490   8.683  0.0445  0.2586 -0.2463
 4413W        W 8157   2.976   3.117   0.061 -0.0294  0.1336 -0.0452
 4414W        W 8158   3.900   8.044  11.437  0.0905 -0.2433  0.1171
 4415W        W 8159   8.671   1.611   8.874  0.1900 -0.2050  0.1182
 4416W        W 8160   8.866   8.918  10.350 -0.3535  0.2051  0.1468
 4417W        W 8161   6.428   2.644   3.087 -0.2266 -0.1717 -0.1881
 4418W        W 8162   7.701   4.702  10.435 -0.1299  0.0227 -0.0133
 4419W        W 8163   0.169   7.800  12.393 -0.0031  0.1316  0.1236
 4420W        W 8164   2.786   5.713   2.868 -0.0768 -0.0910  0.2125
 4421W        W 8165   4.395   6.781  12.586 -0.1677 -0.0413  0.2964
 4422W        W 8166   2.765   0.341   2.416  0.0469 -0.3381 -0.1459
 4423W        W 8167   3.248   7.291   9.480 -0.1942 -0.0864 -0.1618
 4424W        W 8168   5.891   3.179  11.497 -0.0243  0.1150  0.2318
 4425W        W 8169   5.432   8.969  12.568 -0.1010 -0.0244 -0.1938
 4426W        W 8170   1.487   7.322  12.071  0.0853 -0.1161  0.1963
 4427W        W 8171   6.956   5.371   2.444 -0.0601  0.6214 -0.1143
 4428W        W 8172   4.127   0.573   4.131  0.2848  0.4046  0.2441
 4429W        W 8173   1.279   3.330   1.191  0.2191  0.1556  0.0953
 4430W        W 8174   8.772   9.748  11.785 -0.0212 -0.1465  0.2786
 4431W        W 8175   2.172   3.165   2.021  0.3215  0.5217  0.0232
 4432W        W 8176   1.986   6.948   0.966 -0.0167 -0.0839  0.0255
 4433W        W 8177   4.906   6.004  11.728 -0.0873 -0.1897  0.0219
 4434W        W 8178   7.040   3.505  10.071  0.0046 -0.0126 -0.1768
 4435W        W 8179   3.791   1.782  12.435 -0.1206 -0.4302 -0.2372
 4436W        W 8180   3.512   3.782   2.946 -0.0602  0.3900  0.1617
 4437W        W 8181   0.399   7.091   3.006 -0.0824  0.1347 -0.3791
 4438W        W 8182   5.800   2.154   3.031 -0.1973 -0.3187  0.0461
 4439W        W 8183   7.519   0.957   9.915  0.0121  0.0543 -0.0036
 4440W        W 8184   6.404   5.582  11.148  0.1418  0.0977  0.3052
 4441W        W 8185   4.837   7.824   9.415  0.0559  0.0105 -0.0687
 4442W        W 8186   6.520   1.335   2.232 -0.2622  0.1417 -0.4115
 4443W        W 8187   9.265   9.607  12.506  0.4322  0.1530 -0.1745
 4444W        W 8188   6.607   5.451   9.905  0.1628  0.0045  0.1544
 4445W        W 8189   1.576   4.141  10.670 -0.0519  0.0470  0.2103
 4446W        W 8190   0.871   4.795   0.159  0.0272  0.0320  0.3270
 4447W        W 8191   1.677   9.101   8.297 -0.1457  0.1649 -0.2173
 4448W        W 8192   3.165   0.653  10.270  0.3659  0.1177 -0.0635
 4449W        W 8193   9.356   5.532   0.639  0.1005 -0.1167 -0.0412
 4450W        W 8194   8.588   5.553   0.117 -0.1068 -0.1571 -0.1266
 4451W        W 8195   9.636   2.553   2.429  0.1453  0.0338  0.1018
 4452W        W 8196   1.946   0.404   1.216 -0.4052  0.1105  0.0711
 4453W        W 8197   8.146   4.802   2.333 -0.0949  0.3098 -0.1138
 4454W        W 8198   2.713   8.320   1.004  0.2123 -0.1212  0.2440
 4455W        W 8199   4.403   6.370   2.764 -0.0703  0.3894  0.0105
 4456W        W 8200   3.881   5.381   0.294  0.2046 -0.1115 -0.1783
 4457W        W 8201   3.085   2.109   9.554 -0.3532  0.0626  0.4867
 4458W        W 8202   9.923   5.152   0.295 -0.0487  0.0127  0.1471
 4459W        W 8203   4.779   7.493  11.283  0.1614  0.0363  0.3366
 4460W        W 8204   8.211   0.469   9.173  0.1500 -0.1548 -0.3730
 4461W        W 8205   0.217   7.584   9.822  0.2248 -0.4092 -0.3132
 4462W        W 8206   4.064   0.335  10.685  0.1871  0.1273 -0.0379
 4463W        W 8207   1.524   2.046  11.489 -0.1607 -0.1482  0.3282
 4464W        W 8208   8.822   1.658   0.259  0.2381  0.0354 -0.1503
 4465W        W 8209   1.855   5.429  10.380 -0.3847  0.0985 -0.1634
 4466W        W 8210   1.908   3.557   1.802 -0.0199 -0.1725  0.0373
 4467W        W 8211   1.893   9.179   9.838 -0.0649  0.3628 -0.3878
 4468W        W 8212   2.481   8.398   2.511 -0.1086  0.2327 -0.3427
 4469W        W 8213   9.617   4.478   2.052 -0.0307  0.1953  0.2145
 4470W        W 8214   8.159   8.035   3.265 -0.1431  0.3697  0.1527
 4471W        W 8215   7.333   7.067   3.732  0.3318  0.1958 -0.2509
 4472W        W 8216   2.737   5.024   2.217 -0.0104 -0.1393 -0.0514
 4473W        W 8217   2.690   5.516  12.663  0.0676  0.1841 -0.0069
 4474W        W 8218   9.660   0.714   0.383 -0.0649 -0.2252 -0.1665
 4475W        W 8219   6.585   8.378   8.849 -0.2310 -0.1302 -0.2015
 4476W        W 8220   6.353   7.382  11.746  0.3182  0.0274 -0.3125
 4477W        W 8221   5.802   7.080   5.186  0.1484  0.0410  0.0258
 4478W        W 8222   9.636   0.388   0.830 -0.0589 -0.1903 -0.1561
 4479W        W 8223   7.400   2.043   3.121 -0.2380  0.0977 -0.1084
 4480W        W 8224   4.585   8.018  12.567  0.1297 -0.2338  0.2602
 4481W        W 8225   9.808   6.567   9.346 -0.2105 -0.1808 -0.1463
 4482W        W 8226   4.885   0.884   8.604 -0.0450 -0.1013  0.1986
 4483W        W 8227   5.661   3.585   2.511 -0.1421 -0.3243 -0.0634
 4484W        W 8228   6.201   7.352  12.346  0.0587  0.0525 -0.3073
 4485W        W 8229   0.677   5.335  12.377 -0.3759 -0.0743  0.2046
 4486W        W 8230   7.776   2.035   1.323 -0.2757  0.0232  0.1568
 4487W        W 8231   4.110   4.080   2.404 -0.0793 -0.0106 -0.0244
 4488W        W 8232   7.679   6.735   1.926  0.1430  0.0218 -0.1986
 4489W        W 8233   0.260   4.337   9.525  0.0454 -0.1822 -0.2287
 4490W        W 8234   7.381   6.915   2.785 -0.0827  0.0365  0.1246
 4491W        W 8235   4.301   6.829   3.022  0.1544 -0.0204  0.0676
 4492W        W 8236   9.390   0.980   1.573 -0.0185  0.0673 -0.2408
 4493W        W 8237   5.207   6.295   3.684  0.3153  0.2528  0.0655
 4494W        W 8238   7.596   5.792   1.753 -0.0223 -0.0220  0.2869
 4495W        W 8239   5.913   6.948  11.114  0.2114 -0.2155 -0.2057
 4496W        W 8240   3.767   2.583   4.431 -0.0599  0.2627  0.3324
 4497W        W 8241   6.949   9.430   3.366 -0.1214 -0.1456  0.1481
 4498W        W 8242   7.007   4.450   2.331 -0.0474 -0.0013 -0.2235
 4499W        W 8243   7.158   1.644   0.573 -0.1122 -0.5023  0.0584
 4500W        W 8244   6.548   2.418   1.596  0.1948 -0.0581  0.0897
 4501W        W 8245   7.557   4.437  10.907 -0.3851 -0.3101 -0.1353
 4502W        W 8246   9.673   5.077   9.328  0.2424 -0.0002 -0.0748
 4503W        W 8247   5.995   3.684   2.097 -0.0499  0.0888 -0.0974
 4504W        W 8248   2.942   1.220  12.001 -0.1492  0.2755 -0.1858
 4505W        W 8249   8.976   0.764  11.615 -0.0077 -0.2411  0.2119
 4506W        W 8250   5.500   9.178   9.550  0.1210  0.1019  0.0935
 4507W        W 8251   6.233   1.331   9.438 -0.0621  0.4164 -0.0801
 4508W        W 8252   2.314   7.309  11.388 -0.1547 -0.0039  0.2656
 4509W        W 8253   6.741   9.220  12.318  0.5290 -0.1314  0.0372
 4510W        W 8254   8.195   4.049   1.626 -0.0356  0.2643  0.2028
 4511W        W 8255   3.022   6.835  12.465  0.1254  0.2649 -0.1344
 4512W        W 8256   2.534   8.612  11.736  0.0423  0.0856  0.0615
 4513W        W 8257   0.202   8.111   8.934  0.0326 -0.0501 -0.3988
 4514W        W 8258   1.114   9.232   2.124 -0.2073  0.1619  0.1265
 4515W        W 8259   8.120   1.048   0.716  0.3593  0.0474  0.1490
 4516W        W 8260   5.829   5.917   2.960  0.0732 -0.3872  0.0382
 4517W        W 8261   3.146   3.847   8.452 -0.2188 -0.1706  0.1437
 4518W        W 8262   0.566   8.711   1.678 -0.1633 -0.3481  0.1833
 4519W        W 8263   4.120   9.240   2.763  0.0186 -0.1864  0.0631
 4520W        W 8264   9.896   1.177   0.532 -0.1112 -0.0021 -0.0378
 4521W        W 8265   7.090   2.859  11.200  0.3438 -0.1137 -0.1577
 4522W        W 8266   9.261   4.883   3.947  0.1941  0.1772 -0.0516
 4523W        W 8267   1.066   1.931  10.135 -0.4823  0.2296 -0.3330
 4524W        W 8268   4.077   3.562   4.405  0.0050  0.0742 -0.0275
 4525W        W 8269   6.717   4.123  11.714 -0.0160 -0.1039 -0.1919
 4526W        W 8270   0.546   7.636   2.850  0.4118  0.0099  0.1792
 4527W        W 8271   7.214   9.279  12.182  0.0921  0.2020  0.0302
 4528W        W 8272   4.279   5.843   2.621 -0.0526 -0.0679 -0.1192
 4529W        W 8273   7.874   5.565   4.988 -0.2533 -0.5043 -0.3248
 4530W        W 8274   5.676   6.503  10.504  0.0410  0.2647 -0.0869
 4531W        W 8275   3.444   7.229  11.478 -0.1413 -0.1735 -0.1621
 4532W        W 8276   6.158   7.527   4.205  0.0180 -0.2592  0.3616
 4533W        W 8277   0.222   6.639   9.803  0.4995 -0.0187 -0.1759
 4534W        W 8278   6.191   2.824   1.578  0.1599 -0.0501  0.0382
 4535W        W 8279   9.320   6.483   9.592 -0.0590 -0.2506  0.0904
 4536W        W 8280   6.547   3.396   9.461 -0.4003 -0.0272 -0.1211
 4537W        W 8281   8.238   8.988  10.034 -0.3012 -0.1067  0.2995
 4538W        W 8282   5.400   7.233  10.224  0.2109  0.0875 -0.0766
 4539W        W 8283   6.391   2.654  10.019 -0.4895  0.1019 -0.0791
 4540W        W 8284   0.834   8.988   1.156 -0.0747  0.2243  0.0334
 4541W        W 8285   9.365   3.576   9.510  0.0960 -0.0869  0.2033
 4542W        W 8286   8.166   3.074   3.417  0.0300  0.2630  0.0552
 4543W        W 8287   8.666   2.095  11.783  0.1664 -0.0934 -0.2038
 4544W        W 8288   1.568   8.430   2.256  0.1771 -0.2602 -0.3811
 4545W        W 8289   8.520   2.873   3.773  0.3225  0.0065  0.0546
 4546W        W 8290   4.250   0.531   0.168  0.1865  0.2940  0.2943
 4547W        W 8291   5.086   5.940   1.085  0.0228 -0.3541 -0.4137
 4548W        W 8292   0.937   5.927  10.987  0.0833 -0.3582 -0.0609
 4549W        W 8293   6.712   6.662  12.279 -0.1561 -0.2331  0.0217
 4550W        W 8294   0.088   7.829   4.467  0.1666 -0.3448 -0.2269
 4551W        W 8295   5.451   9.655  10.946  0.0508 -0.1672  0.2558
 4552W        W 8296   4.105   6.427   1.808  0.0279  0.1581  0.2175
 4553W        W 8297   9.661   3.084  12.475  0.0395  0.4209 -0.0802
 4554W        W 8298   0.754   6.672  11.748 -0.2301 -0.2085  0.2453
 4555W        W 8299   9.572   0.637  10.338  0.1142 -0.2198 -0.0551
 4556W        W 8300   9.867   3.873  10.754 -0.0652  0.0679 -0.0680
 4557W        W 8301   5.270   5.467   3.963 -0.2360  0.0012 -0.1645
 4558W        W 8302   2.443   0.729   0.843  0.1411  0.2046  0.1350
 4559W        W 8303   2.622   9.205  11.678 -0.0996 -0.1266  0.1753
 4560W        W 8304   6.405   5.185  12.607  0.0850 -0.0356  0.1478
 4561W        W 8305   1.386   7.406  10.860  0.0794 -0.0967  0.0507
 4562W        W 8306   3.869   9.298   0.586  0.1611 -0.0422 -0.1574
 4563W        W 8307   8.907   9.623  10.874 -0.2131  0.1280 -0.0620
 4564W        W 8308   0.158   5.534   8.490  0.0702  0.1671 -0.1332
 4565W        W 8309   1.064   0.226   0.867 -0.0972 -0.3391 -0.0780
 4566W        W 8310   9.922   7.895   0.032  0.0922 -0.0113 -0.1384
 4567W        W 8311   1.719   1.192   1.001  0.0589 -0.0638  0.0219
 4568W        W 8312   5.488   7.247  11.076 -0.0082 -0.3061  0.0313
 4569W        W 8313   0.093   4.876   8.452 -0.1132 -0.0302  0.1449
 4570W        W 8314   4.513   8.180   5.070 -0.1745 -0.0773 -0.0825
 4571W        W 8315   9.541   4.457  12.523 -0.0036  0.0543  0.1603
 4572W        W 8316   8.249   5.495   2.378 -0.0136 -0.0735 -0.1054
 4573W        W 8317   3.571   8.063  11.072 -0.0389  0.1093  0.1968
 4574W        W 8318   5.187   4.406  11.295  0.2597 -0.0580  0.2023
 4575W        W 8319   7.331   3.271   9.658 -0.1994  0.2508 -0.1995
 4576W        W 8320   0.661   3.036   9.893 -0.1056 -0.1023 -0.1837
 4577W        W 8321   4.830   9.875  10.132 -0.0054 -0.0169  0.0710
 4578W        W 8322   8.567   2.330  12.608  0.0047 -0.3070 -0.1386
 4579W        W 8323   3.106   4.325   1.382  0.0267 -0.0280  0.0476
 4580W        W 8324   1.393   9.298   9.916 -0.1014  0.0196  0.1932
 4581W        W 8325   3.156   5.726   1.155 -0.1159 -0.0974  0.3862
 4582W        W 8326   8.395   0.136   0.196 -0.2005 -0.1316  0.3361
 4583W        W 8327   2.745   0.629  11.166  0.0232 -0.0645 -0.0102
 4584W        W 8328   4.702   6.182   3.601  0.1942 -0.2093  0.0512
 4585W        W 8329   8.387   2.943   4.309  0.0087 -0.2204  0.0308
 4586W        W 8330   9.350   0.796  11.176 -0.0943  0.2063  0.1780
 4587W        W 8331   4.429   4.762  12.481 -0.1527  0.1204  0.4105
 4588W        W 8332   0.481   1.772  12.264  0.4460 -0.2001  0.0940
 4589W        W 8333   4.653   2.197   8.829  0.0584 -0.0131 -0.0232
 4590W        W 8334   7.511   4.505   0.312  0.1565  0.0875 -0.0720
 4591W        W 8335   7.832   3.464   0.345  0.0189  0.1462 -0.0471
 4592W        W 8336   8.060   3.103   3.914 -0.0416 -0.0219 -0.1818
 4593W        W 8337   5.423   2.410   1.973  0.0049  0.1754  0.1320
 4594W        W 8338   8.960   1.168   0.780  0.0548 -0.1169 -0.0714
 4595W        W 8339   5.764   1.247  11.686 -0.0974  0.0838 -0.1465
 4596W        W 8340   2.521   1.398   2.685 -0.1454 -0.0517 -0.0033
 4597W        W 8341   5.982   7.191   2.883 -0.0852 -0.0238  0.3685
 4598W        W 8342   0.975   8.993   1.681  0.0210  0.1775 -0.2979
 4599W        W 8343   0.269   5.160  12.647 -0.0811 -0.0074 -0.0681
 4600W        W 8344   9.866   6.273  11.398  0.1796  0.2144  0.0440
 4601W        W 8345   7.855   4.678   1.902 -0.0227  0.2525  0.2929
 4602W        W 8346   8.481   6.420   1.896 -0.1740 -0.2303  0.2037
 4603W        W 8347   4.258   9.868   8.337 -0.0076  0.1435 -0.0543
 4604W        W 8348   0.141   7.332   4.651  0.1946 -0.1901 -0.2660
 4605W        W 8349   6.921   2.384   1.252  0.1046 -0.0309 -0.1583
 4606W        W 8350   1.565   5.973   0.935 -0.3135 -0.0970 -0.1154
 4607W        W 8351   2.703   5.705  11.721  0.2283 -0.2274 -0.2674
 4608W        W 8352   4.399   1.583   3.461  0.0205  0.1659 -0.2078
 4609W        W 8353   7.806   6.212  10.970  0.0059 -0.0435  0.3358
 4610W        W 8354   7.239   1.663   9.876 -0.4433 -0.0249  0.3646
 4611W        W 8355   4.934   2.469   0.588 -0.0331 -0.1199 -0.0763
 4612W        W 8356   5.831   2.261   8.884 -0.3088 -0.0208 -0.6046
 4613W        W 8357   7.091   3.749   8.988  0.0949  0.0242  0.2381
 4614W        W 8358   7.695   8.906   9.513  0.0895  0.0310 -0.1251
 4615W        W 8359   3.718   9.343   2.465  0.0095 -0.0834 -0.0649
 4616W        W 8360   7.630   3.245   2.699 -0.0893 -0.4110 -0.1479
 4617W        W 8361   2.697   8.767  10.822  0.0384  0.0375 -0.1919
 4618W        W 8362   5.243   8.036  10.817 -0.0408  0.0336  0.2397
 4619W        W 8363   5.665   4.533  11.038  0.2697 -0.1597 -0.0756
 4620W        W 8364   9.186   9.690   0.194  0.2595  0.0232 -0.0594
 4621W        W 8365   7.136   8.596   3.867  0.0425 -0.2108 -0.1134
 4622W        W 8366   0.480   1.280  12.002 -0.0999  0.3615  0.0445
 4623W        W 8367   0.279   2.538   0.681 -0.1424 -0.1097 -0.0081
 4624W        W 8368   9.212   1.604   2.035  0.0488  0.1376  0.2047
 4625W        W 8369   5.488   1.166   1.144 -0.1186  0.1512 -0.0945
 4626W        W 8370   4.474   0.411   1.090 -0.0778 -0.2021  0.0910
 4627W        W 8371   6.736   8.409   3.515  0.0790  0.1083  0.0866
 4628W        W 8372   8.793   1.160  12.359 -0.1874  0.0273 -0.2092
 4629W        W 8373   8.603   6.559   3.921  0.0078 -0.0091  0.0779
 4630W        W 8374   6.118   8.308  12.301  0.5241 -0.1516  0.0177
 4631W        W 8375   8.554   8.219  12.559  0.2477  0.1652 -0.3663
 4632W        W 8376   6.538   8.198  10.450 -0.2299  0.0649 -0.0687
 4633W        W 8377   0.698   6.676   2.576 -0.0744 -0.0118 -0.2099
 4634W        W 8378   2.250   2.747   0.580 -0.1505  0.0248 -0.0914
 4635W        W 8379   0.016   8.553   9.262 -0.0626  0.2190 -0.2740
 4636W        W 8380   8.430   1.422  11.430  0.2672 -0.0490 -0.0507
 4637W        W 8381   0.510   1.147  10.471  0.1396 -0.1800 -0.2579
 4638W        W 8382   6.000   5.553   4.363  0.3050  0.0301 -0.3627
 4639W        W 8383   3.007   1.740   2.473  0.0085  0.0671 -0.1815
 4640W        W 8384   3.651   5.352  12.690  0.1154 -0.2470 -0.2709
 4641W        W 8385   5.871   7.642  12.079  0.0404  0.3128 -0.0871
 4642W        W 8386   7.912   4.157   0.853 -0.2102 -0.3832  0.1084
 4643W        W 8387   2.858   4.849  11.732 -0.2555 -0.1515 -0.0210
 4644W        W 8388   1.126   7.778   2.038  0.1646  0.0671  0.3714
 4645W        W 8389   8.414   8.879   2.171 -0.4085 -0.1631  0.0402
 4646W        W 8390   8.969   6.889   4.736 -0.2688  0.3732 -0.1610
 4647W        W 8391   5.056   4.398   8.740 -0.0025  0.2284 -0.0056
 4648W        W 8392   7.880   7.002  11.396 -0.1246 -0.1576 -0.0152
 4649W        W 8393   6.401   5.405   2.243  0.0698 -0.0936 -0.1158
 4650W        W 8394   8.586   1.532   0.826 -0.0804 -0.2010 -0.2156
 4651W        W 8395   9.061   0.175   0.952 -0.2022 -0.0310 -0.5017
 4652W        W 8396   8.238   6.319   2.758 -0.2477  0.1803 -0.2917
 4653W        W 8397   5.396   1.872   4.277 -0.0608 -0.1827  0.1064
 4654W        W 8398   0.100   0.036   3.214  0.3085  0.4309  0.3064
 4655W        W 8399   7.099   9.638   2.140 -0.0090 -0.3211  0.0399
 4656W        W 8400   5.254   6.864   9.250 -0.2234 -0.0290  0.0466
 4657W        W 8401   6.386   4.407  11.915  0.1802  0.1170  0.1898
 4658W        W 8402   0.304   7.538   0.506  0.2903  0.4689 -0.0565
 4659W        W 8403   7.487   0.011   9.370 -0.1765  0.0824  0.1629
 4660W        W 8404   6.799   2.935   2.213 -0.1557  0.0538  0.1901
 4661W        W 8405   4.752   7.775   1.520  0.0928  0.2041  0.1677
 4662W        W 8406   8.407   5.060   0.769 -0.1588  0.1193  0.0163
 4663W        W 8407   4.179   5.220  11.615 -0.1765 -0.0008 -0.3830
 4664W        W 8408   3.990   0.889   9.990 -0.3814  0.3066  0.2473
 4665W        W 8409   6.451   5.197   2.686  0.1852 -0.0488 -0.3975
 4666W        W 8410   1.295   2.021   0.331 -0.0588 -0.1109  0.0539
 4667W        W 8411   5.612   7.459   0.175  0.1729 -0.3752 -0.3869
 4668W        W 8412   9.324   0.543   1.257  0.0071 -0.4237  0.0258
 4669W        W 8413   1.453   8.662   3.312  0.2178  0.3462 -0.1779
 4670W        W 8414   7.555   2.041   9.557  0.1411  0.0303 -0.2329
 4671W        W 8415   0.264   7.285  12.377 -0.0755 -0.1611  0.1941
 4672W        W 8416   4.694   6.271   4.996 -0.1331 -0.0939  0.2914
 4673W        W 8417   7.690   7.285   0.964  0.0097  0.0487  0.0019
 4674W        W 8418   6.779   9.469  11.824 -0.1904 -0.1610  0.3228
 4675W        W 8419   6.683   3.817   9.795  0.2129  0.1966 -0.2446
 4676W        W 8420   2.861   9.281  11.087  0.1356 -0.0391 -0.1027
 4677W        W 8421   9.904   1.010   1.445 -0.1545  0.0055  0.0029
 4678W        W 8422   0.505   6.396   8.436  0.1106 -0.2282 -0.0090
 4679W        W 8423   7.558   8.985  11.940  0.2720 -0.3624  0.1007
 4680W        W 8424   5.715   9.729  10.449 -0.3623  0.1886  0.0788
 4681W        W 8425   7.214   6.793  12.774  0.2131 -0.0636  0.0599
 4682W        W 8426   1.983   7.656  11.225 -0.2650  0.1462  0.0165
 4683W        W 8427   3.155   5.946   2.016  0.0415  0.0049 -0.1747
 4684W        W 8428   5.064   9.326   3.879 -0.5802  0.0963  0.0729
 4685W        W 8429   8.181   6.230   9.276 -0.2153  0.0102  0.1105
 4686W        W 8430   8.075   1.296  11.759 -0.0978 -0.0665  0.0427
 4687W        W 8431   2.872   7.891   2.315 -0.0942  0.0065  0.0262
 4688W        W 8432   5.979   1.953   2.008  0.1951 -0.1903  0.1583
 4689W        W 8433   2.171   6.322   9.815  0.1440  0.0976  0.1145
 4690W        W 8434   9.468   6.620   2.895  0.1230 -0.2491 -0.2338
 4691W        W 8435   4.725   7.653   3.293  0.2633  0.2687  0.2089
 4692W        W 8436   0.020   9.405   0.304 -0.2141  0.2858 -0.1164
 4693W        W 8437   3.072   6.405  10.217  0.2445  0.1045  0.2725
 4694W        W 8438   4.762   9.320  11.947 -0.0501 -0.0380  0.0731
 4695W        W 8439   1.787   4.430   9.556  0.0594  0.0074  0.1020
 4696W        W 8440   1.098   3.195   2.045  0.0476 -0.3439  0.2937
 4697W        W 8441   1.469   4.780   2.526 -0.0998  0.1535 -0.1679
 4698W        W 8442   2.260   2.003   3.490 -0.1390 -0.0120 -0.0311
 4699W        W 8443   3.224   5.951  12.515 -0.1468 -0.1860 -0.1404
 4700W        W 8444   0.382   9.900   3.584  0.2320  0.1028 -0.1551
 4701W        W 8445   2.641   5.011   8.645  0.1010 -0.2149  0.2338
 4702W        W 8446   1.134   6.856   1.911  0.0694  0.4726  0.2962
 4703W        W 8447   1.622   9.056  12.709 -0.0843 -0.0309  0.0159
 4704W        W 8448   8.360   3.273   0.859  0.0830 -0.0268  0.0072
 4705W        W 8449   8.025   7.265   0.266  0.0523  0.1268 -0.0806
 4706W        W 8450   6.660   0.888  10.856 -0.1224  0.0144  0.1122
 4707W        W 8451   2.670   5.528   3.349 -0.0282  0.1444  0.2151
 4708W        W 8452   8.626   7.519   4.475  0.1953  0.3672 -0.1959
 4709W        W 8453   2.819   4.265   1.010 -0.0423 -0.0786 -0.0529
 4710W        W 8454   0.953   7.855   4.173 -0.3061 -0.3105  0.2307
 4711W        W 8455   7.367   2.846   2.830  0.0794 -0.0559 -0.1387
 4712W        W 8456   2.947   0.172   3.116  0.1036 -0.0574  0.0351
 4713W        W 8457   6.577   7.608   2.644 -0.1276  0.0132 -0.1842
 4714W        W 8458   1.944   0.261   8.902 -0.3131 -0.1484 -0.2783
 4715W        W 8459   5.043   2.665   3.947  0.3197  0.1493  0.1465
 4716W        W 8460   2.547   9.702   0.951 -0.0117  0.0147 -0.3029
 4717W        W 8461   6.973   5.055   9.807  0.0023  0.2359 -0.0926
 4718W        W 8462   3.657   2.959   9.167 -0.1590  0.0473 -0.1820
 4719W        W 8463   0.862   5.016   2.206  0.2242 -0.1066  0.1095
 4720W        W 8464   7.481   1.065  12.427  0.1275 -0.0482 -0.1557
 4721W        W 8465   8.073   7.858   2.800 -0.0157  0.1333  0.1069
 4722W        W 8466   3.433   6.987   9.094 -0.3230 -0.2240  0.2011
 4723W        W 8467   1.768   9.441   1.419  0.2022 -0.2721 -0.0824
 4724W        W 8468   9.752   7.825  11.700  0.1605 -0.1192  0.0631
 4725W        W 8469   4.053   1.750   2.156  0.3557  0.1669 -0.0094
 4726W        W 8470   1.654   8.010  10.121 -0.1196 -0.1445  0.1813
 4727W        W 8471   6.692   5.397   8.956 -0.0474  0.0609  0.1975
 4728W        W 8472   5.780   1.838   8.700  0.0121 -0.1436 -0.1767
 4729W        W 8473   3.862   6.892   1.602 -0.2596  0.2559 -0.0508
 4730W        W 8474   1.271   8.737   1.984  0.2398 -0.3835 -0.3118
 4731W        W 8475   2.799   9.324   2.689 -0.0823  0.2827 -0.0811
 4732W        W 8476   2.522   9.700   1.696  0.1742  0.1665  0.1787
 4733W        W 8477   9.912   3.807   0.337  0.0494  0.1350  0.1378
 4734W        W 8478   7.030   7.391  10.795  0.2259 -0.0760 -0.1061
 4735W        W 8479   5.411   8.166  10.339  0.1134  0.2501 -0.2501
 4736W        W 8480   9.485   2.685   0.173 -0.0925 -0.0172 -0.2065
 4737W        W 8481   9.675   9.465   3.433  0.0858  0.0213  0.0922
 4738W        W 8482   0.121   3.090   1.973  0.0414  0.2119 -0.1044
 4739W        W 8483   8.138   8.871   1.742 -0.0804  0.2793  0.0258
 4740W        W 8484   8.608   3.860   3.933  0.2116  0.0946  0.0638
 4741W        W 8485   2.504   8.536   9.932  0.1021 -0.2860  0.0637
 4742W        W 8486   4.576   9.794  11.778  0.1366 -0.0910  0.1554
 4743W        W 8487   8.938   4.304  10.702  0.3534 -0.1347 -0.0857
 4744W        W 8488   2.053   7.856   8.716 -0.0411  0.0107 -0.0326
 4745W        W 8489   9.153   0.327   8.553  0.2438 -0.0310 -0.0251
 4746W        W 8490   8.697   6.193  11.863  0.1255 -0.4082 -0.0638
 4747W        W 8491   9.035   0.283   9.068  0.2506  0.1201  0.2317
 4748W        W 8492   6.048   4.212  10.897 -0.0245 -0.2713 -0.2226
 4749W        W 8493   0.552   5.035   1.778  0.0161  0.0423  0.0441
 4750W        W 8494   7.047   8.735   8.960 -0.0292  0.1708  0.1322
 4751W        W 8495   6.731   0.848  10.169 -0.0819  0.2874  0.0750
 4752W        W 8496   7.134   7.886   4.346 -0.2059 -0.0669  0.0272
 4753W        W 8497   1.671   6.662  11.258 -0.2992 -0.1575 -0.3826
 4754W        W 8498   4.202   3.584   1.807 -0.2268  0.4296 -0.2340
 4755W        W 8499   7.337   3.691   1.582  0.1280 -0.1959  0.0591
 4756W        W 8500   7.529   7.062   3.228  0.2476 -0.3092 -0.0557
 4757W        W 8501   3.532   8.674   1.430 -0.2958  0.3933  0.5852
 4758W        W 8502   6.976   4.929   1.690  0.0618 -0.1446 -0.1382
 4759W        W 8503   3.556   4.354   0.578 -0.0881 -0.1952  0.2243
 4760W        W 8504   3.320   5.204  12.229  0.0596 -0.1442  0.0918
 4761W        W 8505   0.927   2.080   0.669  0.3401  0.0312 -0.0248
 4762W        W 8506   4.584   8.104   8.378 -0.0623 -0.1324 -0.0635
 4763W        W 8507   2.509   1.636   0.525  0.3144  0.2429 -0.2968
 4764W        W 8508   6.646   9.511  12.784 -0.0001  0.3004 -0.3110
 4765W        W 8509   0.391   3.117   0.798 -0.1705 -0.2214  0.4457
 4766W        W 8510   8.817   5.736   3.745  0.0674  0.1171 -0.0269
 4767W        W 8511   3.857   4.209   8.760 -0.1197  0.1232 -0.2423
 4768W        W 8512   2.223   9.496   9.552  0.0811  0.1337 -0.1742
 4769W        W 8513   8.889   2.839   1.515  0.4329 -0.2798 -0.1718
 4770W        W 8514   0.666   8.870  11.506  0.0718 -0.0012  0.3221
 4771W        W 8515   1.934   9.188   2.288 -0.1990  0.1330 -0.0126
 4772W        W 8516   4.904   2.052   9.825 -0.0502  0.0701 -0.3026
 4773W        W 8517   4.572   9.542   1.463  0.3588  0.0493 -0.1402
 4774W        W 8518   6.022   7.050   9.325 -0.0431  0.2096 -0.0844
 4775W        W 8519   0.401   3.451   2.846 -0.1982 -0.2030 -0.1944
 4776W        W 8520   6.006   9.061   1.796  0.1575  0.1190  0.0178
 4777W        W 8521   4.611   1.607  12.419 -0.3783 -0.0159  0.2485
 4778W        W 8522   0.254   4.275   4.320  0.1157 -0.2043  0.0360
 4779W        W 8523   5.899   9.722   2.891  0.2395 -0.0588  0.0751
 4780W        W 8524   9.790   8.574   0.541  0.2403 -0.0716 -0.3419
 4781W        W 8525   6.214   7.779  11.244 -0.1143 -0.4523 -0.0407
 4782W        W 8526   4.523   1.569   9.141 -0.1238  0.1814 -0.0996
 4783W        W 8527   1.358   5.100   0.743  0.0292 -0.1652  0.0684
 4784W        W 8528   4.703   2.107   1.037 -0.0562 -0.1213 -0.1666
 4785W        W 8529   6.034   1.962   1.455 -0.3704  0.0145 -0.2185
 4786W        W 8530   7.780   9.897   9.914  0.0642  0.1070 -0.0494
 4787W        W 8531   3.517   4.458  11.405 -0.0486  0.1397 -0.0625
 4788W        W 8532   6.183   9.788   5.179 -0.0845 -0.2373  0.1255
 4789W        W 8533   8.785   4.025  12.117  0.3356  0.1712  0.2653
 4790W        W 8534   3.838   6.760   1.040 -0.3381 -0.0139  0.0522
 4791W        W 8535   3.355   6.317   1.244 -0.0858 -0.1130  0.2459
 4792W        W 8536   1.375   5.251   8.821 -0.1373  0.0211 -0.3112
 4793W        W 8537   4.870   3.981   9.058  0.1753 -0.1954  0.2027
 4794W        W 8538   3.860   9.727   3.554 -0.3442 -0.2878  0.0083
 4795W        W 8539   1.693   5.424   1.243  0.1225  0.1126 -0.3296
 4796W        W 8540   1.901   0.748   0.896  0.1844 -0.0686  0.3091
 4797W        W 8541   3.410   3.974   0.073  0.0396 -0.1118 -0.1964
 4798W        W 8542   4.384   2.284   9.670  0.1606  0.0125 -0.0555
 4799W        W 8543   9.308   3.315  11.913 -0.0906 -0.2670 -0.2987
 4800W        W 8544   4.219   7.517   3.552 -0.0238  0.1311  0.0614
 4801W        W 8545   7.560   3.955  11.417 -0.1049  0.2363  0.0025
 4802W        W 8546   0.399   2.261   1.892 -0.1533 -0.1556 -0.0406
 4803W        W 8547   8.822   0.780   8.445 -0.3626  0.0540  0.1883
 4804W        W 8548   9.615   2.320  12.129 -0.0392  0.0631 -0.1235
 4805W        W 8549   7.480   2.522  11.011 -0.0028 -0.0275  0.4746
 4806W        W 8550   9.707   6.893   0.255  0.1380  0.1732 -0.3385
 4807W        W 8551   9.840   8.209  10.763  0.0097 -0.0354  0.0592
 4808W        W 8552   7.645   8.650   9.025  0.3069  0.3682 -0.1642
 4809W        W 8553   2.674   8.831   1.176  0.0182  0.4647 -0.0365
 4810W        W 8554   3.116   5.548   1.655  0.2372 -0.2362 -0.1017
 4811W        W 8555   6.017   8.461   0.474  0.0540 -0.0887 -0.0573
 4812W        W 8556   3.325   3.469   0.174  0.0358  0.0693 -0.0646
 4813W        W 8557   4.673   9.939   8.662 -0.0917 -0.1505  0.1541
 4814W        W 8558   4.922   0.034   3.984  0.0912  0.0873 -0.1127
 4815W        W 8559   7.636   1.963   2.700  0.1873 -0.0586 -0.2203
 4816W        W 8560   2.327   9.348   1.343  0.4119 -0.1872  0.0945
 4817W        W 8561   6.852   6.476   4.500  0.0292 -0.0428  0.0520
 4818W        W 8562   1.724   1.451  12.025 -0.1159 -0.1948  0.4332
 4819W        W 8563   4.948   1.161   0.913  0.0880  0.0965 -0.1543
 4820W        W 8564   9.364   7.647   4.007 -0.2289 -0.0444 -0.1667
 4821W        W 8565   4.031   2.491   9.276 -0.0741  0.0166  0.0363
 4822W        W 8566   4.745   1.526   9.710 -0.2680 -0.3642 -0.0130
 4823W        W 8567   7.227   5.723   9.117 -0.1871  0.1655  0.0593
 4824W        W 8568   4.385   7.712   9.686 -0.1063 -0.2038 -0.1613
 4825W        W 8569   4.557   1.290   0.615 -0.3101 -0.1686 -0.4418
 4826W        W 8570   3.823   1.786   0.063  0.0584 -0.1651  0.1158
 4827W        W 8571   5.246   0.746   1.539 -0.1317  0.1366  0.0914
 4828W        W 8572   8.743   8.312   0.162 -0.2410  0.2273  0.0356
 4829W        W 8573   0.101   3.756   9.447  0.0519 -0.0691 -0.1025
 4830W        W 8574   9.545   1.666  12.779  0.1832  0.1604  0.0255
 4831W        W 8575   2.712   2.684   2.369  0.1848 -0.0007 -0.1501
 4832W        W 8576   0.708   2.074  10.493  0.2416  0.2518  0.2183
 4833W        W 8577   2.278   1.242   0.869  0.0964 -0.1329  0.1218
 4834W        W 8578   6.517   9.131   3.453 -0.1105 -0.3126 -0.0410
 4835W        W 8579   3.925   8.489   0.912  0.0952 -0.0004 -0.1949
 4836W        W 8580   3.121   8.470   3.883  0.1278 -0.0603 -0.0544
 4837W        W 8581   3.510   2.748   9.667  0.4195 -0.2608  0.2874
 4838W        W 8582   2.493   0.048  12.553  0.0012  0.2166  0.0281
 4839W        W 8583   0.457   5.700  10.934 -0.1493 -0.3307 -0.3694
 4840W        W 8584   9.318   0.541   0.036  0.1043  0.4435  0.1516
 4841W        W 8585   3.270   0.432   2.646 -0.0195  0.1122  0.1784
 4842W        W 8586   2.920   6.105  10.949 -0.2967  0.2759  0.2283
 4843W        W 8587   7.228   9.887   3.414  0.1798  0.2730 -0.1660
 4844W        W 8588   4.507   0.806   2.231  0.0637 -0.0513 -0.1023
 4845W        W 8589   2.388   1.694   1.151 -0.1468 -0.2084 -0.0960
 4846W        W 8590   3.793   1.906   9.999  0.1739  0.0779  0.4176
 4847W        W 8591   6.032   9.295   3.757 -0.1334 -0.2224  0.1887
 4848W        W 8592   9.337   7.929  10.919  0.2634 -0.3622  0.3285
 4849W        W 8593   0.366   9.586  12.065  0.1677 -0.1673 -0.0429
 4850W        W 8594   6.717   8.863   9.230  0.1972 -0.0466 -0.1389
 4851W        W 8595   9.739   4.886  12.660 -0.0650  0.0281 -0.1420
 4852W        W 8596   1.844   2.547   2.721  0.3251  0.3271  0.0124
 4853W        W 8597   7.136   3.509  11.019 -0.0201  0.1132  0.2434
 4854W        W 8598   6.219   1.769  11.146  0.0049  0.0130 -0.1326
 4855W        W 8599   6.668   3.761   1.449  0.2639  0.2561  0.4403
 4856W        W 8600   3.280   9.042   9.172 -0.1367 -0.0146  0.2841
 4857W        W 8601   9.109   4.738  11.133 -0.2562  0.4269  0.1525
 4858W        W 8602   7.930   0.457   1.486  0.1011 -0.0692 -0.0229
 4859W        W 8603   9.110   6.998  10.868  0.0153  0.1612  0.2701
 4860W        W 8604   4.154   7.500   0.835 -0.4487 -0.0366 -0.4244
 4861W        W 8605   3.774   9.825  10.796 -0.3452 -0.1338  0.0770
 4862W        W 8606   1.471   8.710   9.361  0.2487 -0.1739  0.0800
 4863W        W 8607   2.119   0.373  12.818  0.0478 -0.2016 -0.1754
 4864W        W 8608   1.594   2.229   1.321 -0.2679  0.5008 -0.1739
 4865W        W 8609   5.864   7.470   1.455  0.2009 -0.1396  0.1709
 4866W        W 8610   3.303   2.113   9.038  0.1187 -0.0416  0.0484
 4867W        W 8611   7.851   1.931  11.545 -0.1585 -0.2817 -0.1096
 4868W        W 8612   6.273   0.522  11.637  0.1359 -0.1832  0.0146
 4869W        W 8613   5.555   9.155   3.593  0.0130 -0.2352 -0.4220
 4870W        W 8614   3.658   4.839   2.634 -0.0184 -0.3713 -0.0299
 4871W        W 8615   8.300   3.895   8.978  0.0670 -0.2175 -0.2714
 4872W        W 8616   6.357   7.014   2.012  0.0957  0.0118  0.0452
 4873W        W 8617   1.247   0.461   2.610  0.0276 -0.0439 -0.3587
 4874W        W 8618   9.725   9.464  12.328  0.0403  0.3330  0.1821
 4875W        W 8619   8.607   3.820   2.004 -0.4866  0.2059 -0.1032
 4876W        W 8620   8.387   3.163   9.793  0.1607  0.0436  0.1299
 4877W        W 8621   6.262   1.038   0.535  0.0449 -0.1111  0.0031
 4878W        W 8622   7.637   7.790   1.063  0.2626  0.0442 -0.2901
 4879W        W 8623   3.499   1.260   3.233  0.2503 -0.1311  0.2342
 4880W        W 8624   6.028   3.527   0.798 -0.1906 -0.2151  0.0571
 4881W        W 8625   2.071   8.393   2.188  0.0072 -0.0611 -0.0742
 4882W        W 8626   6.883   2.653   4.190 -0.0058 -0.3284  0.2754
 4883W        W 8627   4.301   2.474   3.267  0.0177 -0.0852  0.0016
 4884W        W 8628   7.261   8.283   2.597  0.3160  0.1440  0.1094
 4885W        W 8629   2.403   8.972  10.398  0.2396  0.0783 -0.0846
 4886W        W 8630   1.374   6.774  10.357  0.2486 -0.4136 -0.0480
 4887W        W 8631   5.346   0.476   0.713  0.2614 -0.1052 -0.0051
 4888W        W 8632   0.919   0.295   8.858 -0.1270 -0.3531 -0.0797
 4889W        W 8633   9.595   7.543  10.041  0.1270 -0.0990  0.1243
 4890W        W 8634   6.651   3.535  10.899  0.2059 -0.0530 -0.0380
 4891W        W 8635   6.523   2.696   4.623  0.2400  0.2533  0.4792
 4892W        W 8636   4.897   0.287   0.829 -0.0096 -0.3426  0.1037
 4893W        W 8637   4.108   9.084   3.618  0.0513 -0.0308  0.1226
 4894W        W 8638   7.580   2.377   8.495  0.2336 -0.0143  0.3025
 4895W        W 8639   0.465   1.646  12.726  0.2006 -0.0154 -0.3216
 4896W        W 8640   6.968   1.818  10.683  0.0688 -0.0252 -0.3416
 4897W        W 8641   4.824   0.976  10.448 -0.0509 -0.2915  0.2013
 4898W        W 8642   3.633   8.674   3.183 -0.0087 -0.0556  0.2341
 4899W        W 8643   2.826   3.969   2.307  0.0185 -0.1717 -0.0339
 4900W        W 8644   6.882   3.594   0.450 -0.1625 -0.2267 -0.1208
 4901W        W 8645   5.019   6.448  12.055 -0.0164  0.2224 -0.1614
 4902W        W 8646   0.939   3.394   1.577 -0.0012 -0.0844  0.1538
 4903W        W 8647   7.943   2.282   2.528  0.0162  0.1122 -0.0021
 4904W        W 8648   3.673   6.043   9.786 -0.1109  0.1834  0.1019
 4905W        W 8649   0.200   9.119  12.279  0.4435  0.0393  0.0537
 4906W        W 8650   2.012   9.904   4.218  0.1600 -0.0871  0.1180
 4907W        W 8651   6.556   4.759   0.679  0.1434 -0.0756  0.2360
 4908W        W 8652   7.656   6.665   4.868 -0.0765  0.0603  0.4144
 4909W        W 8653   7.767   9.568   4.381  0.0010 -0.4565  0.2673
 4910W        W 8654   3.006   3.064   2.545  0.0454 -0.1042  0.1687
 4911W        W 8655   3.698   4.061  11.131  0.2417  0.1044  0.1518
 4912W        W 8656   3.851   3.777   9.077 -0.1018  0.0200  0.2506
 4913W        W 8657   3.872   8.193   8.902 -0.1399  0.0053  0.0526
 4914W        W 8658   0.722   1.268   0.064  0.0160 -0.0187 -0.0803
 4915W        W 8659   7.331   5.953  10.916 -0.2325  0.1523  0.1210
 4916W        W 8660   6.126   1.429   4.022 -0.0770  0.0740  0.2320
 4917W        W 8661   6.661   8.073  10.982 -0.2514 -0.0687  0.0478
 4918W        W 8662   1.691   8.420  10.389 -0.0056 -0.2300 -0.2632
 4919W        W 8663   4.246   8.197   1.491 -0.2526  0.0080 -0.0384
 4920W        W 8664   0.593   8.227   2.670  0.2734 -0.1906  0.1702
 4921W        W 8665   6.870   1.701  11.141  0.0010  0.0680 -0.2420
 4922W        W 8666   4.106   5.428  12.100  0.2151  0.1431 -0.2830
 4923W        W 8667   7.909   6.076   2.379 -0.0062  0.1838 -0.0139
 4924W        W 8668   8.052   0.729   3.831  0.2729 -0.5025 -0.0750
 4925W        W 8669   0.307   1.855   2.122 -0.1300 -0.0671  0.1316
 4926W        W 8670   3.316   7.591   3.911 -0.1204 -0.0037 -0.0008
 4927W        W 8671   1.702   6.807   4.073 -0.3093  0.1138 -0.1834
 4928W        W 8672   6.390   7.685   0.361  0.0256 -0.2328 -0.0253
 4929W        W 8673   5.192   9.399   2.419  0.1593 -0.0086  0.1668
 4930W        W 8674   9.462   5.209  12.418 -0.0993  0.2243  0.0280
 4931W        W 8675   5.643   8.379   1.728 -0.2792 -0.2481 -0.2603
 4932W        W 8676   4.809   3.777   2.848 -0.0683 -0.0531 -0.3706
 4933W        W 8677   3.881   2.013   3.427  0.0961  0.1909 -0.1036
 4934W        W 8678   6.647   1.553   9.173  0.0577 -0.0567  0.2144
 4935W        W 8679   4.292   9.544   0.256 -0.2630  0.0498 -0.0621
 4936W        W 8680   5.566   7.899   1.673  0.0814  0.0884  0.0690
 4937W        W 8681   3.238   4.921   2.316  0.2353  0.1463 -0.1045
 4938W        W 8682   7.150   1.296   0.903 -0.1483 -0.0582  0.2535
 4939W        W 8683   6.571   6.534  11.769  0.0330  0.0019  0.0928
 4940W        W 8684   0.559   8.291   1.206  0.1671 -0.0369  0.2312
 4941W        W 8685   2.587   3.548   0.619  0.2949  0.0556 -0.1575
 4942W        W 8686   1.897   9.830  11.887  0.1449 -0.0861  0.0877
 4943W        W 8687   0.267   3.619   1.138  0.0562  0.0887 -0.0980
 4944W        W 8688   5.783   8.145   0.759  0.0582  0.1129  0.0765
 4945W        W 8689   8.663   9.501   8.929  0.3484  0.2744 -0.0275
 4946W        W 8690   7.212   0.333   0.765  0.2083  0.0831 -0.1756
 4947W        W 8691   4.496   1.396   1.541 -0.0744  0.2295  0.1480
 4948W        W 8692   3.868   0.425   8.419 -0.5156  0.1219 -0.1471
 4949W        W 8693   7.611   3.086   4.014  0.0507  0.1947 -0.1822
 4950W        W 8694   4.117   2.264  12.061  0.1881  0.1636 -0.1071
 4951W        W 8695   3.629   2.261   3.045 -0.0867 -0.3374 -0.0737
 4952W        W 8696   5.950   0.629   0.489 -0.0510 -0.2513 -0.0368
 4953W        W 8697   7.502   7.432   1.510 -0.1974 -0.0556 -0.0656
 4954W        W 8698   1.444   4.155   9.765  0.0369  0.3217 -0.0305
 4955W        W 8699   6.549   4.191   1.632  0.2610 -0.2657  0.2793
 4956W        W 8700   5.192   5.933  12.303 -0.1277  0.0782  0.2036
 4957W        W 8701   1.650   9.846   3.343  0.1938 -0.0729 -0.0652
 4958W        W 8702   0.540   8.623  11.092 -0.0474  0.1081 -0.0482
 4959W        W 8703   0.553   2.726  12.743 -0.2567 -0.1614  0.1895
 4960W        W 8704   6.479   9.284   9.081  0.1583 -0.0303  0.1236
 4961W        W 8705   3.313   3.149  11.236 -0.2006 -0.0816  0.0027
 4962W        W 8706   6.324   9.084  12.572  0.1245 -0.1071 -0.1045
 4963W        W 8707   7.132   9.269  12.683  0.1707 -0.2926  0.2236
 4964W        W 8708   2.724   0.050  12.141 -0.1602  0.1172  0.0350
 4965W        W 8709   2.068   1.174  12.464 -0.1217  0.1923  0.1150
 4966W        W 8710   9.628   3.534  10.950 -0.1112  0.0527  0.1865
 4967W        W 8711   8.193   4.016  12.196  0.1340 -0.0133 -0.0312
 4968W        W 8712   8.579   7.132  10.885  0.0306 -0.0848 -0.1725
 4969W        W 8713   1.113   7.961   9.053 -0.0954 -0.0229 -0.2668
 4970W        W 8714   7.802   9.641   1.149 -0.2655 -0.1361 -0.2336
 4971W        W 8715   3.116   8.530   1.068 -0.3624  0.0159  0.1162
 4972W        W 8716   0.421   3.635   0.691  0.0620 -0.2228  0.3428
 4973W        W 8717   7.974   1.290   3.620 -0.0527 -0.1543 -0.0660
 4974W        W 8718   6.276   6.865  12.529 -0.0361 -0.1758 -0.1702
 4975W        W 8719   7.182   5.488  11.540  0.0627  0.1671  0.2918
 4976W        W 8720   3.902   0.542  11.508 -0.3058  0.0775 -0.0449
 4977W        W 8721   8.273   8.310   0.132  0.1170 -0.2625 -0.2837
 4978W        W 8722   0.442   1.110   9.849  0.1296  0.3431  0.1842
 4979W        W 8723   9.197   6.494   9.094  0.0547 -0.0253 -0.0202
 4980W        W 8724   0.718   7.088  10.933 -0.1815 -0.3463 -0.0277
 4981W        W 8725   5.070   9.850   9.701  0.1524 -0.0372 -0.1958
 4982W        W 8726   2.709   6.938  11.287 -0.2512 -0.2759  0.1824
 4983W        W 8727   2.598   2.594   1.337  0.0292  0.0329  0.0963
 4984W        W 8728   7.713   6.346  10.207 -0.0520  0.0913  0.0983
 4985W        W 8729   8.095   6.259  12.268  0.0789  0.0307  0.1350
 4986W        W 8730   1.746   6.690   1.438  0.0829 -0.1625 -0.1211
 4987W        W 8731   6.043   0.165  10.364  0.0631  0.2340 -0.0222
 4988W        W 8732   9.450   1.149   9.464 -0.1645 -0.0029  0.0742
 4989W        W 8733   5.383   0.772   0.203  0.2605 -0.0895  0.0369
 4990W        W 8734   9.162   3.020  12.767  0.1122  0.1257 -0.2224
 4991W        W 8735   4.764   8.086   0.606 -0.5361 -0.4082 -0.0798
 4992W        W 8736   6.131   5.718   8.906 -0.0943 -0.1090 -0.0818
 4993W        W 8737   2.864   3.153   3.020  0.0267 -0.1871  0.2222
 4994W        W 8738   6.441   2.730  12.467  0.0289 -0.0356  0.2315
 4995W        W 8739   1.488   5.815  10.309  0.1283  0.0299 -0.1524
 4996W        W 8740   2.303   7.503  10.869 -0.0261  0.0385 -0.3036
 4997W        W 8741   7.690   6.272  11.919  0.6318  0.3091 -0.0598
 4998W        W 8742   4.722   9.664   9.333 -0.2093  0.3801  0.1262
 4999W        W 8743   8.614   0.302   2.996 -0.3245 -0.0950  0.0234
 5000W        W 8744   2.274   6.542   1.751 -0.1210 -0.1213 -0.0834
 5001W        W 8745   8.070   3.244  12.098 -0.0115  0.1094  0.3588
 5002W        W 8746   2.390   8.488  11.012  0.0993 -0.1499  0.0402
 5003W        W 8747   8.727   0.660   9.298  0.0837  0.1770 -0.0316
 5004W        W 8748   7.021   2.392   1.951  0.1483  0.0962  0.1885
 5005W        W 8749   2.637   0.277   8.520  0.2332  0.1855  0.0417
 5006W        W 8750   8.526   0.899  11.355  0.2160 -0.2179 -0.2679
 5007W        W 8751   6.290   4.555   2.866 -0.0426  0.1675 -0.0023
 5008W        W 8752   0.724   4.087   2.011  0.2740  0.2992 -0.2262
 5009W        W 8753   2.868   3.321  12.223  0.0262  0.0643 -0.0182
 5010W        W 8754   3.048   5.157  10.792 -0.3114 -0.0084 -0.0655
 5011W        W 8755   0.946   7.203  12.401  0.0828 -0.3034  0.1351
 5012W        W 8756   7.179   3.781   4.357  0.0460  0.0708  0.2358
 5013W        W 8757   4.411   5.984   0.599  0.0106  0.0218 -0.1963
 5014W        W 8758   4.973   0.248  11.668 -0.2941  0.1533 -0.5402
 5015W        W 8759   3.604   6.474   1.738 -0.0784  0.0496 -0.1792
 5016W        W 8760   6.127   1.872   0.780  0.1015  0.1183  0.2861
 5017W        W 8761   9.825   3.987   8.690 -0.0264 -0.0918 -0.4034
 5018W        W 8762   2.320   9.400  11.309  0.1353  0.0706 -0.2319
 5019W        W 8763   1.750   3.517   1.311  0.1426  0.1294 -0.0828
 5020W        W 8764   4.377   9.853  10.456  0.5041  0.1568  0.2088
 5021W        W 8765   4.100   9.112   0.162  0.1453 -0.0910 -0.2780
 5022W        W 8766   9.035   5.323   2.731  0.4228  0.2958 -0.0284
 5023W        W 8767   3.616   8.700   8.876  0.3042  0.0837  0.1034
 5024W        W 8768   4.331   1.314   0.029  0.0187  0.0798 -0.5625
 5025W        W 8769   4.474   1.728   0.771  0.1715  0.0813  0.0025
 5026W        W 8770   8.920   3.814   3.502  0.0651 -0.1340  0.0333
 5027W        W 8771   5.847   9.517  11.368 -0.2487 -0.0031  0.1289
 5028W        W 8772   0.372   7.593  12.813 -0.0554  0.3734  0.0616
 5029W        W 8773   4.346   3.691   1.306  0.0397  0.0277 -0.0789
 5030W        W 8774   8.915   3.335   9.874 -0.1742  0.0069 -0.1908
 5031W        W 8775   4.732   1.111  11.982  0.0414 -0.1876  0.3887
 5032W        W 8776   5.627   9.068   8.992  0.0304 -0.0059 -0.1846
 5033W        W 8777   7.084   4.986   3.326 -0.0489 -0.1319 -0.1550
 5034W        W 8778   3.920   4.619   9.603 -0.3035  0.0320  0.2769
 5035W        W 8779   3.432   0.039   9.179  0.1144  0.3871 -0.0306
 5036W        W 8780   0.790   2.055   1.700 -0.2254  0.0296  0.3028
 5037W        W 8781   6.237   8.494   3.697  0.2541 -0.1426  0.4084
 5038W        W 8782   3.452   5.203   0.893  0.1491 -0.0617  0.0257
 5039W        W 8783   2.431   1.703  11.659 -0.2004  0.1363 -0.0533
 5040W        W 8784   5.286   8.019   0.826 -0.1707  0.3210  0.1953
 5041W        W 8785   5.638   9.607   3.381 -0.0120  0.2146  0.0292
 5042W        W 8786   6.717   7.541   0.762 -0.3041  0.0050 -0.1756
 5043W        W 8787   4.377   2.825   2.227  0.0707  0.1400  0.1455
 5044W        W 8788   4.888   3.842  11.756 -0.2284 -0.0847  0.2648
 5045W        W 8789   4.435   8.308   9.030 -0.0860 -0.1886  0.2130
 5046W        W 8790   7.979   3.533   9.086 -0.1113 -0.1114  0.0839
 5047W        W 8791   9.817   9.228   0.826  0.0717  0.0577 -0.1365
 5048W        W 8792   1.970   0.272   2.015  0.2118  0.0310 -0.0768
 5049W        W 8793   7.991   4.772   0.474  0.0766  0.0680 -0.2165
 5050W        W 8794   0.580   6.218   8.910  0.0291 -0.1989  0.2352
 5051W        W 8795   7.918   2.124   0.777 -0.5045 -0.0267 -0.2621
 5052W        W 8796   7.795   4.975  10.945  0.0476 -0.1475  0.1587
 5053W        W 8797   4.089   8.690  10.644  0.1183  0.2908 -0.1402
 5054W        W 8798   3.148   3.458   9.486 -0.1614 -0.0271 -0.0487
 5055W        W 8799   8.992   7.951  10.587 -0.0356  0.2865  0.0101
 5056W        W 8800   8.512   7.085   3.574 -0.0252 -0.2720 -0.2093
 5057W        W 8801   7.440   3.503   3.169  0.2657 -0.1076 -0.0335
 5058W        W 8802   8.579   4.961  12.381 -0.1015 -0.3256  0.1142
 5059W        W 8803   2.640   7.028  10.815  0.0665 -0.0497 -0.0644
 5060W        W 8804   2.627   3.109   2.157  0.1622  0.1059 -0.0881
 5061W        W 8805   5.466   3.883   3.939 -0.0424 -0.1714  0.0523
 5062W        W 8806   7.459   2.973   0.874 -0.0906 -0.2232 -0.0059
 5063W        W 8807   0.893   6.653   9.126 -0.1983 -0.0100 -0.2459
 5064W        W 8808   3.197   4.497   3.758 -0.2653  0.0883 -0.0221
 5065W        W 8809   7.930   1.787   3.618  0.2151 -0.0535 -0.0776
 5066W        W 8810   1.228   4.793  10.220  0.0251  0.1642 -0.0769
 5067W        W 8811   2.432   4.411  12.530  0.1919 -0.1659  0.4119
 5068W        W 8812   9.858   9.249   2.802  0.0920 -0.2899  0.0956
 5069W        W 8813   5.245   4.936   3.754 -0.0580  0.2905 -0.1038
 5070W        W 8814   5.402   8.002   0.377  0.0942 -0.0497  0.1867
 5071W        W 8815   8.293   8.502  10.887 -0.1870 -0.0290 -0.0724
 5072W        W 8816   8.333   5.601   0.609  0.2730  0.2840 -0.1339
 5073W        W 8817   2.234   2.658  11.951  0.2298 -0.2508  0.1514
 5074W        W 8818   3.860   6.049   2.828 -0.1796 -0.1683  0.1617
 5075W        W 8819   2.098   2.687  10.897  0.1072  0.2203 -0.0127
 5076W        W 8820   3.306   7.828   2.635 -0.1093  0.3587 -0.1982
 5077W        W 8821   1.763   3.782   3.666  0.1130 -0.3712 -0.1772
 5078W        W 8822   5.441   8.088  12.762 -0.0077 -0.0692  0.0502
 5079W        W 8823   8.762   0.348  10.216  0.1547 -0.3221 -0.3379
 5080W        W 8824   1.369   6.498  12.482 -0.1073 -0.1118 -0.0304
 5081W        W 8825   3.548   2.513   8.354 -0.1103 -0.1620 -0.0675
 5082W        W 8826   6.188   5.055   3.060  0.1524  0.3674 -0.2218
 5083W        W 8827   9.077   8.442  10.215  0.1707  0.0329  0.4397
 5084W        W 8828   7.403   0.577   1.292 -0.0393  0.2590  0.2409
 5085W        W 8829   2.155   4.847   9.955 -0.0586 -0.0737 -0.2738
 5086W        W 8830   0.907   5.401   0.498 -0.2421  0.0037 -0.1322
 5087W        W 8831   6.710   5.474   0.000  0.1710 -0.0538 -0.1780
 5088W        W 8832   5.843   8.430   3.310 -0.1921  0.0361 -0.0495
 5089W        W 8833   4.675   7.288   9.697 -0.0344 -0.2632  0.1189
 5090W        W 8834   2.531   4.946   8.165 -0.0613  0.1045  0.0270
 5091W        W 8835   9.491   1.810  12.329  0.1625 -0.0985  0.0939
 5092W        W 8836   5.233   9.358  12.795 -0.0685 -0.0671 -0.0345
 5093W        W 8837   3.050   4.679   1.717  0.1496  0.0124  0.0931
 5094W        W 8838   7.947   7.437   2.265  0.1708  0.1655  0.0537
 5095W        W 8839   2.461   5.935   2.536  0.2318  0.1224 -0.0409
 5096W        W 8840   2.071   7.479   3.485 -0.1693 -0.2325  0.1783
 5097W        W 8841   4.566   0.394   0.504 -0.0044  0.0396 -0.0021
 5098W        W 8842   7.690   9.603  10.487 -0.1063 -0.1299 -0.5059
 5099W        W 8843   7.682   6.811  10.962  0.0715 -0.1601  0.0713
 5100W        W 8844   4.269   0.089   1.510 -0.0928  0.3367  0.0001
 5101W        W 8845   7.756   3.488   2.192 -0.0164 -0.3348  0.0463
 5102W        W 8846   9.100   6.742   2.616 -0.2791 -0.1130 -0.1203
 5103W        W 8847   2.706   4.047  10.076  0.1319 -0.0431 -0.1724
 5104W        W 8848   6.282   9.190   2.202 -0.0930 -0.2651  0.1252
 5105W        W 8849   6.022   1.931  12.690  0.1488 -0.1276 -0.0106
 5106W        W 8850   8.090   5.606   0.170  0.5035 -0.4110  0.4589
 5107W        W 8851   5.526   1.652  12.429  0.0264 -0.1897 -0.1021
 5108W        W 8852   3.125   0.463   8.761 -0.2471 -0.0282 -0.2619
 5109W        W 8853   5.156   7.252  12.430 -0.2688 -0.1947  0.2258
 5110W        W 8854   2.173   6.950   1.458  0.0926  0.3698  0.3510
 5111W        W 8855   6.915   6.070   4.810 -0.0142  0.1020  0.1124
 5112W        W 8856   0.088   8.203   1.224  0.2993  0.3348  0.0823
 5113W        W 8857   4.479   3.986  10.371  0.2934  0.0434  0.0500
 5114W        W 8858   1.791   6.831   0.512  0.1995 -0.1483 -0.0510
 5115W        W 8859   4.042   5.916  10.124  0.1321 -0.2848  0.0988
 5116W        W 8860   1.768   7.976   9.619  0.1127 -0.0567 -0.2959
 5117W        W 8861   6.735   7.451   9.938 -0.0219  0.0353 -0.1162
 5118W        W 8862   7.899   2.949   0.352 -0.1789 -0.0934  0.4482
 5119W        W 8863   5.748   7.619   3.054  0.1096  0.3619  0.0890
 5120W        W 8864   8.310   0.524   0.974 -0.1626 -0.0275  0.1203
 5121W        W 8865   8.725   8.587   4.522  0.1729 -0.0498 -0.2720
 5122W        W 8866   0.453   3.986  12.394 -0.2596 -0.0690  0.3578
 5123W        W 8867   7.959   1.440  11.294 -0.0093  0.0263  0.1849
 5124W        W 8868   4.751   6.886   9.393  0.1276  0.1372  0.1796
 5125W        W 8869   1.417   3.402   1.747  0.2023 -0.2719 -0.2942
 5126W        W 8870   8.771   5.110   0.395  0.2560 -0.0479  0.0312
 5127W        W 8871   8.975   1.959  12.792 -0.1816  0.3419 -0.1355
 5128W        W 8872   7.678   2.566   4.006 -0.5131 -0.2493  0.1758
 5129W        W 8873   9.111   2.904   1.092  0.0573 -0.0721 -0.1055
 5130W        W 8874   5.458   0.305  11.744 -0.0314  0.3378 -0.4805
 5131W        W 8875   9.620   5.535  11.187 -0.0138 -0.0341  0.0187
 5132W        W 8876   3.404   1.694  12.760  0.2207 -0.0615 -0.3469
 5133W        W 8877   8.057   0.650   9.607 -0.2875 -0.1740  0.0794
 5134W        W 8878   7.644   0.539  12.295 -0.1124 -0.1045  0.3589
 5135W        W 8879   1.202   0.965   2.350  0.0079 -0.1871 -0.1382
 5136W        W 8880   1.994   6.230   1.474 -0.2176 -0.1974 -0.3489
 5137W        W 8881   8.343   2.562   9.506 -0.2591  0.0888  0.0027
 5138W        W 8882   6.118   7.722   3.675 -0.0117 -0.0615 -0.2314
 5139W        W 8883   6.554   3.884   2.053 -0.1028  0.0915 -0.3031
 5140W        W 8884   6.457   7.179   9.058 -0.2257  0.1724 -0.2614
 5141W        W 8885   3.963   6.881   0.097 -0.0628  0.0460 -0.2063
 5142W        W 8886   3.230   6.443  11.187  0.0892 -0.0052 -0.1187
 5143W        W 8887   8.723   5.653  10.495  0.2323 -0.1761  0.3054
 5144W        W 8888   1.734   8.600  10.928 -0.0229 -0.2875 -0.0288
 5145W        W 8889   3.715   7.933   3.888  0.0318 -0.1324 -0.0480
 5146W        W 8890   8.595   8.527   1.796  0.0192 -0.3295  0.0393
 5147W        W 8891   3.036   9.479   1.812 -0.1045 -0.1222  0.0392
 5148W        W 8892   5.438   2.184   9.876 -0.0053  0.0302 -0.1073
 5149W        W 8893   2.285   4.105   3.055 -0.0817  0.1123 -0.0036
 5150W        W 8894   1.005   8.568   8.678  0.1269 -0.0744 -0.0159
 5151W        W 8895   4.426   3.371   9.496  0.1052  0.1895 -0.2134
 5152W        W 8896   3.071   4.670   2.762 -0.2318 -0.2323  0.2852
 5153W        W 8897   8.116   9.869  10.493  0.2268  0.1989  0.0820
 5154W        W 8898   3.146   1.834  11.281  0.0846 -0.0773  0.1118
 5155W        W 8899   0.940   5.473  11.495  0.0453  0.0249  0.0554
 5156W        W 8900   0.381   2.971   3.750  0.1755  0.3004  0.0526
 5157W        W 8901   4.975   7.778   3.743  0.0308 -0.1596 -0.0136
 5158W        W 8902   8.112   7.908   0.334  0.1226 -0.0878  0.2405
 5159W        W 8903   8.251   5.740   4.251 -0.2959  0.0082 -0.1720
 5160W        W 8904   8.271   4.153  10.078  0.1288  0.1607  0.1462
 5161W        W 8905   7.792   1.908  12.087  0.4176  0.3323 -0.0248
 5162W        W 8906   5.933   6.522   4.315 -0.2468  0.1141  0.2028
 5163W        W 8907   1.670   9.046  11.719 -0.0771 -0.0800  0.2025
 5164W        W 8908   1.168   3.502   2.458  0.1302  0.3256 -0.2671
 5165W        W 8909   1.746   1.189   1.741  0.0040  0.1965  0.1326
 5166W        W 8910   3.417   7.570  12.673 -0.2009  0.1262 -0.0377
 5167W        W 8911   8.310   3.307  10.282  0.0724 -0.0665 -0.1008
 5168W        W 8912   0.625   6.377  12.157  0.0818  0.0065 -0.2257
 5169W        W 8913   7.780   6.977   4.524  0.0910  0.0014 -0.0448
 5170W        W 8914   5.467   0.759   3.573  0.2218 -0.1524 -0.1268
 5171W        W 8915   1.563   5.427   0.330  0.2945 -0.0214 -0.0335
 5172W        W 8916   9.309   9.303   8.946  0.2516  0.1172  0.0857
 5173W        W 8917   5.841   6.834   1.982  0.1323  0.0400 -0.0827
 5174W        W 8918   6.852   1.911  11.643 -0.3524  0.2384 -0.0233
 5175W        W 8919   1.673   3.463  11.983 -0.0422  0.0242 -0.0108
 5176W        W 8920   1.494   9.509   9.082  0.3143 -0.0415 -0.2618
 5177W        W 8921   7.130   2.033   8.354  0.0167 -0.0462 -0.1407
 5178W        W 8922   4.764   4.754  10.094  0.0422  0.0035 -0.0905
 5179W        W 8923   5.372   1.107   0.669 -0.1023  0.1617  0.0142
 5180W        W 8924   6.239   1.770   9.655 -0.0717  0.1101  0.1676
 5181W        W 8925   0.193   1.389  10.169  0.3178  0.3351  0.3068
 5182W        W 8926   4.070   2.745   4.017  0.0882  0.4313  0.0702
 5183W        W 8927   9.093   1.895   9.735  0.3275  0.1584 -0.1205
 5184W        W 8928   0.976   3.279  10.847  0.0024 -0.1612  0.0472
 5185W        W 8929   9.662   8.681   2.962 -0.0721 -0.0525  0.0711
 5186W        W 8930   4.981   5.937  10.933  0.0668  0.0995 -0.1182
 5187W        W 8931   7.510   0.376   5.014  0.1470 -0.0536 -0.1903
 5188W        W 8932   3.373   4.839  12.677 -0.0822  0.1396 -0.0611
 5189W        W 8933   1.435   5.891  10.786  0.0589  0.2005  0.2037
 5190W        W 8934   0.962   4.570   2.473 -0.0262 -0.0513 -0.1632
 5191W        W 8935   7.102   8.188   4.833 -0.0292 -0.2105 -0.0026
 5192W        W 8936   9.061   0.112  12.670  0.4025 -0.0674 -0.0788
 5193W        W 8937   9.095   9.923  10.370  0.3134 -0.3232  0.0447
 5194W        W 8938   8.355   0.650   0.004 -0.0582  0.3205  0.1168
 5195W        W 8939   2.184   5.705   0.335  0.4232 -0.0102 -0.0775
 5196W        W 8940   4.758   2.470   3.517 -0.0253 -0.1447 -0.2715
 5197W        W 8941   6.742   0.458  11.715 -0.0625 -0.0951  0.1899
 5198W        W 8942   8.616   6.358   9.139  0.0472  0.2529 -0.1059
 5199W        W 8943   2.057   8.674   9.525 -0.3793  0.0584 -0.2541
 5200W        W 8944   2.748   6.382  10.596  0.0120  0.2682  0.0028
 5201W        W 8945   9.327   5.202  10.949  0.1960  0.3881  0.0590
 5202W        W 8946   4.440   8.630   1.061  0.0805 -0.0627 -0.2319
 5203W        W 8947   8.372   0.651   8.550  0.2100 -0.0388 -0.0186
 5204W        W 8948   1.264   3.833   8.859 -0.2027 -0.0793  0.0240
 5205W        W 8949   1.501   1.661   9.928  0.2663 -0.1245 -0.0581
 5206W        W 8950   5.072   8.828  12.807 -0.0642 -0.0100 -0.3820
 5207W        W 8951   2.696   2.519  11.794  0.1397  0.1313 -0.1361
 5208W        W 8952   1.833   4.308   3.487 -0.1326  0.2612 -0.1436
 5209W        W 8953   6.066   4.982   0.836 -0.2484  0.1088 -0.1799
 5210W        W 8954   2.261   8.731   3.078  0.0077 -0.1186  0.2701
 5211W        W 8955   8.203   9.568  10.077  0.1773  0.0627 -0.0410
 5212W        W 8956   7.552   0.892   3.803 -0.1200 -0.0786 -0.1859
 5213W        W 8957   2.119   3.226   1.304  0.0067  0.1464 -0.1812
 5214W        W 8958   5.317   5.155   0.040 -0.0120 -0.1263 -0.2013
 5215W        W 8959   1.480   3.695   9.623  0.0590 -0.1405  0.2916
 5216W        W 8960   7.503   0.111  10.897  0.0134 -0.2255 -0.1920
 5217W        W 8961   4.726   2.488   0.098 -0.3110 -0.0268  0.0927
 5218W        W 8962   9.782   4.721   8.899  0.2017 -0.3197  0.0098
 5219W        W 8963   8.281   2.820   2.929 -0.0257  0.1477 -0.0451
 5220W        W 8964   0.184   1.862   1.108 -0.0622  0.0426 -0.2129
 5221W        W 8965   4.566   2.282  11.770 -0.2684 -0.0669 -0.2667
 5222W        W 8966   4.901   2.713   2.051 -0.0146  0.3529 -0.1226
 5223W        W 8967   5.794   7.720   2.172  0.2713 -0.2807 -0.2944
 5224W        W 8968   3.580   4.556   3.010 -0.1494 -0.0977  0.2562
 5225W        W 8969   5.022   8.455   3.879 -0.0196  0.0318 -0.1625
 5226W        W 8970   3.015   5.584  12.248  0.1389 -0.1374 -0.1507
 5227W        W 8971   9.420   9.219   3.028  0.0859 -0.1420 -0.1607
 5228W        W 8972   0.614   8.529  12.713 -0.0239  0.1788 -0.2590
 5229W        W 8973   3.554   1.066  10.189  0.1429 -0.1235 -0.2823
 5230W        W 8974   4.226   9.112   1.641 -0.1919  0.0222 -0.2955
 5231W        W 8975   1.050   3.596  10.432 -0.0924  0.4414 -0.0508
 5232W        W 8976   3.521   2.505  12.371 -0.3420 -0.1240  0.1144
 5233W        W 8977   3.721   7.187   9.828  0.0294  0.2516 -0.1091
 5234W        W 8978   8.790   5.981   1.897  0.0775 -0.4200 -0.0966
 5235W        W 8979   1.994   8.177  10.905  0.1592 -0.2960  0.1525
 5236W        W 8980   7.727   6.904  12.718 -0.0025 -0.0694 -0.0605
 5237W        W 8981   6.689   3.939   3.408 -0.1327  0.0370 -0.4720
 5238W        W 8982   5.727   8.593   9.050 -0.0972 -0.2292  0.2037
 5239W        W 8983   9.793   3.446   3.286  0.2603  0.0244  0.2552
 5240W        W 8984   7.009   0.616   4.129 -0.1849  0.0549 -0.1455
 5241W        W 8985   5.452   9.457   2.866 -0.1694  0.0985  0.1809
 5242W        W 8986   5.814   0.645   2.581 -0.2115 -0.1312 -0.0652
 5243W        W 8987   9.163   8.315   2.440  0.0050 -0.0358 -0.2717
 5244W        W 8988   3.643   2.579  10.237 -0.1066 -0.1196  0.1436
 5245W        W 8989   1.324   8.800   1.209  0.0505 -0.3076  0.1738
 5246W        W 8990   5.153   9.005   2.126 -0.3738 -0.0283  0.0611
 5247W        W 8991   5.957   7.360   3.422 -0.0092  0.0785  0.0140
 5248W        W 8992   7.429   6.411  10.719 -0.2432 -0.5310 -0.1315
 5249W        W 8993   6.168   3.672   7.769 -0.2117  0.0493  0.1834
 5250W        W 8994   3.243   3.856  10.846 -0.0121  0.0055  0.0165
 5251W        W 8995   6.448   5.001   1.177  0.1009  0.1137 -0.0880
 5252W        W 8996   3.488   2.090  10.982  0.1795  0.0460 -0.2706
 5253W        W 8997   9.592   9.798   2.030  0.0141 -0.1872  0.0638
 5254W        W 8998   5.229   8.824   1.672 -0.1101  0.1004  0.1386
 5255W        W 8999   9.455   6.700  10.555 -0.3962 -0.2482 -0.1025
 5256W        W 9000   2.280   0.415  11.079 -0.0269 -0.0233  0.2061
 5257W        W 9001   2.203   7.181   3.090  0.0714  0.0208  0.2576
 5258W        W 9002   9.773   5.279   2.472  0.2369  0.1112  0.2165
 5259W        W 9003   3.595   5.462   1.988  0.1602  0.0631  0.1654
 5260W        W 9004   4.017   8.955   8.715 -0.0949 -0.0028 -0.2576
 5261W        W 9005   5.030   3.347  11.927  0.2535 -0.2439  0.2162
 5262W        W 9006   1.183   1.094  12.519 -0.1271 -0.1488  0.1168
 5263W        W 9007   4.316   4.614   1.488  0.3102  0.3097  0.2209
 5264W        W 9008   8.176   0.278   2.738  0.2022 -0.2120 -0.1378
 5265W        W 9009   1.985   1.656  12.583 -0.1173  0.0357 -0.1646
 5266W        W 9010   0.088   9.389   9.481  0.2839  0.2812 -0.3026
 5267W        W 9011   8.441   8.833   9.572 -0.1450 -0.1366  0.2003
 5268W        W 9012   2.299   3.748  10.011  0.0378 -0.0199 -0.0761
 5269W        W 9013   5.953   5.051   3.547  0.3907 -0.3191  0.1182
 5270W        W 9014   3.801   4.455   1.161 -0.3471  0.1368  0.0724
 5271W        W 9015   8.316   1.757   2.935  0.2467  0.1765 -0.2743
 5272W        W 9016   5.456   7.387   2.119 -0.1036  0.2339  0.0485
 5273W        W 9017   6.901   6.035   9.921 -0.3285 -0.0277  0.1522
 5274W        W 9018   8.584   5.084  11.130  0.1628 -0.1646 -0.0970
 5275W        W 9019   5.534   2.151  11.699  0.0030  0.1565 -0.1986
 5276W        W 9020   6.834   3.055   3.762 -0.0002  0.0000  0.3947
 5277W        W 9021   4.733   4.535  11.050  0.0078  0.1831 -0.1457
 5278W        W 9022   1.627   5.631   2.176 -0.3620  0.2772  0.0577
 5279W        W 9023   4.076   9.839  12.595 -0.0240  0.2379 -0.0947
 5280W        W 9024   9.163   4.746   3.226  0.0036  0.0656 -0.0193
 5281W        W 9025   4.304   6.026  11.664  0.2147 -0.1099 -0.1562
 5282W        W 9026   4.738   0.274  12.564 -0.5296 -0.0335  0.3334
 5283W        W 9027   7.232   7.273   5.457 -0.0424  0.1541  0.2388
 5284W        W 9028   9.130   2.173  11.441 -0.0630 -0.1502 -0.2574
 5285W        W 9029   9.877   1.189  11.909  0.1426  0.1242  0.1056
 5286W        W 9030   9.344   3.031   2.399 -0.1647 -0.0972  0.1739
 5287W        W 9031   2.645   9.403   3.560  0.3381 -0.1780  0.0884
 5288W        W 9032   4.190   4.721   8.494  0.4396 -0.2066  0.0812
 5289W        W 9033   9.588   4.613  11.735  0.0171  0.1801 -0.3171
 5290W        W 9034   6.098   4.024   0.719 -0.0146  0.0664  0.0383
 5291W        W 9035   3.678   7.551   0.610  0.2418  0.1286 -0.0049
 5292W        W 9036   6.685   2.459   3.728  0.2158 -0.0463 -0.3192
 5293W        W 9037   7.846   8.669   2.832  0.1846 -0.0958  0.1133
 5294W        W 9038   1.871   9.676   2.603 -0.2844 -0.2393 -0.2783
 5295W        W 9039   5.814   7.155   0.960  0.0604  0.2925 -0.0316
 5296W        W 9040   1.854   7.877   0.031  0.0548  0.4298 -0.1185
 5297W        W 9041   6.718   2.280   2.459 -0.1120  0.2241  0.2660
 5298W        W 9042   3.316   0.108  10.102  0.1100 -0.4414 -0.1919
 5299W        W 9043   0.001   7.595   1.440 -0.1852  0.0492 -0.4329
 5300W        W 9044   2.040   7.481   1.019 -0.0563 -0.2366 -0.1863
 5301W        W 9045   2.273   9.634  12.174 -0.0141 -0.0154 -0.1801
 5302W        W 9046   1.105   6.228   9.022  0.0977 -0.2459 -0.3807
 5303W        W 9047   5.952   7.606   9.782 -0.1672  0.0537  0.2195
 5304W        W 9048   1.623   6.008   4.447  0.0900  0.0960  0.0447
 5305W        W 9049   9.910   0.817   1.880 -0.1306 -0.4144  0.1323
 5306W        W 9050   5.428   6.241  11.867 -0.2109  0.1862  0.1745
 5307W        W 9051   7.477   8.478   9.886 -0.1446 -0.1302 -0.1357
 5308W        W 9052   3.714   0.023   9.666 -0.1514  0.3470  0.2581
 5309W        W 9053   3.638   4.640  12.307  0.1178  0.3324 -0.1176
 5310W        W 9054   8.851   5.144   3.140 -0.0188 -0.2041 -0.0129
 5311W        W 9055   1.558   6.403   0.483  0.1361  0.4287 -0.0880
 5312W        W 9056   7.949   7.325   9.253  0.1276  0.0785  0.0979
 5313W        W 9057   5.440   7.387  12.031 -0.1015  0.0059  0.0392
 5314W        W 9058   4.716   2.150  10.338 -0.1132 -0.2072 -0.0257
 5315W        W 9059   1.401   2.262   9.923  0.1290  0.0834  0.0782
 5316W        W 9060   7.791   0.060  12.420 -0.0900  0.0280 -0.0455
 5317W        W 9061   2.881   0.301   0.028  0.0207 -0.2474  0.1945
 5318W        W 9062   8.994   3.936   1.743 -0.5512 -0.2012  0.0598
 5319W        W 9063   0.531   1.052   0.593 -0.1144  0.0572  0.0537
 5320W        W 9064   5.829   8.669   9.562 -0.2311  0.2947 -0.3034
 5321W        W 9065   6.523   6.049   0.018 -0.1230 -0.1374 -0.0528
 5322W        W 9066   6.955   0.981   4.470 -0.0436 -0.0004  0.0721
 5323W        W 9067   4.164   9.243   2.168 -0.2121  0.1409  0.1876
 5324W        W 9068   5.813   1.247   2.596  0.2984  0.2579  0.0695
 5325W        W 9069   4.113   7.565   4.557  0.2168 -0.1185  0.0057
 5326W        W 9070   3.313   5.830   8.804 -0.1840 -0.0216  0.0545
 5327W        W 9071   9.053   9.464   9.636  0.1977  0.1936  0.0093
 5328W        W 9072   5.477   9.281   0.313 -0.2660  0.0658 -0.0408
 5329W        W 9073   5.123   7.648  10.363 -0.1325  0.0535  0.0272
 5330W        W 9074   2.338   4.142   9.663  0.1065  0.1003 -0.4647
 5331W        W 9075   6.426   9.047   2.654 -0.3649  0.0261 -0.2246
 5332W        W 9076   0.637   4.876   9.600  0.0978 -0.1719 -0.0229
 5333W        W 9077   7.611   6.585   8.578  0.1293  0.1617 -0.4610
 5334W        W 9078   8.103   2.000   4.436  0.0359  0.0768 -0.2316
 5335W        W 9079   5.172   6.991   2.550  0.2656  0.1260  0.1904
 5336W        W 9080   6.938   5.835  12.450  0.1327 -0.0908  0.1590
 5337W        W 9081   4.486   2.522   1.808  0.0427  0.3388 -0.3140
 5338W        W 9082   6.183   2.835  10.793  0.0352  0.1027 -0.1793
 5339W        W 9083   1.476   7.757   2.376 -0.3524  0.1337  0.0993
 5340W        W 9084   5.246   2.628   3.422  0.5275  0.2406 -0.2059
 5341W        W 9085   0.134   3.400  11.463  0.0075 -0.0193  0.2104
 5342W        W 9086   0.103   6.941   3.575  0.2643 -0.1450  0.0247
 5343W        W 9087   2.667   8.188   1.538 -0.0729 -0.3900 -0.1639
 5344W        W 9088   0.043   9.103   1.369 -0.0591  0.1487 -0.2203
 5345W        W 9089   1.416   3.381  11.442 -0.1405  0.1889 -0.0631
 5346W        W 9090   5.538   1.945   1.867  0.3695 -0.2562 -0.1929
 5347W        W 9091   3.327   1.574  12.197  0.0307  0.1099  0.0022
 5348W        W 9092   8.853   4.537   4.088 -0.0648  0.1635 -0.0995
 5349W        W 9093   7.789   5.045   9.507 -0.1125 -0.3302  0.0817
 5350W        W 9094   3.239   6.472   3.222  0.0695 -0.2838  0.0077
 5351W        W 9095   3.623   7.917   0.217  0.1941  0.1092  0.1043
 5352W        W 9096   1.453   5.293   5.148 -0.3688  0.2705 -0.1092
 5353W        W 9097   3.851   1.289   0.143  0.0819 -0.1933 -0.0941
 5354W        W 9098   1.610   8.767  12.106 -0.0111 -0.0327 -0.1079
 5355W        W 9099   3.806   4.855  11.484 -0.1095  0.2028  0.1506
 5356W        W 9100   0.461   4.973   3.231 -0.0211 -0.2729  0.2065
 5357W        W 9101   5.702   5.705   4.772  0.3946 -0.0973  0.0209
 5358W        W 9102   7.312   5.962   3.237 -0.0003  0.1068  0.0870
 5359W        W 9103   9.855   7.490   1.970 -0.1552 -0.0125 -0.0006
 5360W        W 9104   2.829   7.798   1.187 -0.1031 -0.1370 -0.2032
 5361W        W 9105   7.424   2.022  10.532 -0.1197 -0.2674 -0.3924
 5362W        W 9106   2.732   2.651   1.836 -0.0492 -0.0555  0.1032
 5363W        W 9107   1.896   5.986  10.086  0.1237 -0.0936  0.0738
 5364W        W 9108   5.271   8.451   2.264 -0.1554 -0.3899  0.3243
 5365W        W 9109   2.735   7.312   0.409  0.2616  0.0940 -0.3958
 5366W        W 9110   3.808   5.085   2.213  0.0626 -0.0623  0.3016
 5367W        W 9111   1.147   7.439   0.430  0.1235 -0.3748 -0.0576
 5368W        W 9112   8.634   6.953   4.285 -0.1918  0.2136 -0.1561
 5369W        W 9113   7.819   7.000   2.425  0.0965  0.0852  0.1871
 5370W        W 9114   2.311   7.742   3.812  0.1761 -0.2178 -0.0431
 5371W        W 9115   3.197   3.454   3.199  0.0663 -0.1746  0.2006
 5372W        W 9116   3.940   2.481   3.581  0.0855 -0.0335  0.0512
 5373W        W 9117   2.280   8.188   9.581 -0.5705 -0.3029  0.3522
 5374W        W 9118   0.369   9.178   4.134  0.0902 -0.1931 -0.0981
 5375W        W 9119   8.043   8.015  10.728 -0.0977 -0.1738  0.0670
 5376W        W 9120   0.848   4.734   3.111 -0.1535 -0.1358  0.3648
 5377W        W 9121   8.822   0.622   3.503  0.2086 -0.1806 -0.0588
 5378W        W 9122   1.122   0.965   2.826 -0.1697 -0.0980 -0.0656
 5379W        W 9123   5.768   6.842  10.096 -0.4333 -0.2959  0.1113
 5380W        W 9124   6.145   2.205   8.515 -0.0510 -0.0368 -0.2215
 5381W        W 9125   0.036   5.655   2.733 -0.1209  0.0067 -0.2238
 5382W        W 9126   6.040   2.137   0.319  0.1163  0.0559 -0.1667
 5383W        W 9127   7.742   3.911   1.287 -0.0890  0.0366  0.0094
 5384W        W 9128   8.420   6.233  11.397  0.1340 -0.0577 -0.0938
 5385W        W 9129   7.692   6.783   9.893  0.2964 -0.0909 -0.3646
 5386W        W 9130   0.584   4.421  12.261  0.1757  0.0535  0.2517
 5387W        W 9131   1.601   4.400  10.175 -0.1120  0.3267 -0.0321
 5388W        W 9132   9.176   5.966   2.249 -0.2177  0.0599 -0.0930
 5389W        W 9133   1.182   4.767   3.544  0.1141 -0.0653  0.0250
 5390W        W 9134   7.962   8.380   0.550 -0.5399  0.1296  0.0027
 5391W        W 9135   2.700   0.789  10.079  0.2744  0.0031  0.1725
 5392W        W 9136   0.239   3.370   2.338  0.1298  0.2684  0.0590
 5393W        W 9137   5.323   9.451  11.399 -0.0491 -0.1327 -0.1893
 5394W        W 9138   0.829   5.833  12.549  0.1195  0.0915 -0.2603
 5395W        W 9139   1.985   1.227   9.486  0.0518 -0.0382  0.1009
 5396W        W 9140   2.931   0.666   2.938  0.0683 -0.0612  0.2054
 5397W        W 9141   5.504   6.108  10.224 -0.0111 -0.1316 -0.0764
 5398W        W 9142   6.197   6.846  11.588  0.1397 -0.1878  0.1054
 5399W        W 9143   7.782   5.612   2.555 -0.2726  0.1627 -0.0487
 5400W        W 9144   1.492   4.229   2.829  0.0511 -0.1774 -0.1078
 5401W        W 9145   8.118   5.845   2.821 -0.0096 -0.1133 -0.3065
 5402W        W 9146   9.198   5.799   8.886  0.0527 -0.0337  0.1779
 5403W        W 9147   2.163   5.364  12.777 -0.2494 -0.2215 -0.1893
 5404W        W 9148   4.740   2.621  12.414 -0.1370 -0.1557 -0.0791
 5405W        W 9149   3.886   3.041  11.700  0.1136 -0.2438  0.2372
 5406W        W 9150   5.087   7.070  11.454  0.2101 -0.0361 -0.0772
 5407W        W 9151   2.639   0.862   2.614  0.1663 -0.0143  0.0445
 5408W        W 9152   4.175   4.261   8.345 -0.0100 -0.5818 -0.2630
 5409W        W 9153   8.330   1.801   9.550  0.1291  0.0631 -0.1644
 5410W        W 9154   4.389   8.414   1.957 -0.1584  0.3035  0.1096
 5411W        W 9155   1.859   5.565   2.879  0.0925 -0.0756 -0.0165
 5412W        W 9156   6.453   5.504   3.103 -0.0328  0.2529  0.1574
 5413W        W 9157   9.124   5.433  11.751  0.0880 -0.2220  0.2676
 5414W        W 9158   3.329   7.452   3.054  0.2240 -0.2180 -0.0200
 5415W        W 9159   8.767   1.596  11.759 -0.2444  0.1069 -0.2796
 5416W        W 9160   1.912   3.925   9.689 -0.3085 -0.5198 -0.2636
 5417W        W 9161   0.727   7.637   3.334  0.0319  0.1272  0.0929
 5418W        W 9162   1.078   4.514   0.617  0.0705  0.1228  0.1885
 5419W        W 9163   1.579   6.515   9.133  0.2291  0.1420  0.1758
 5420W        W 9164   1.229   0.613  12.507  0.2159  0.0517 -0.1176
 5421W        W 9165   0.077   7.823   9.298  0.0723 -0.0628 -0.2460
 5422W        W 9166   8.796   4.324   4.753  0.1408  0.0002 -0.2023
 5423W        W 9167   2.744   4.364  11.381 -0.3436  0.1074 -0.1249
 5424W        W 9168   3.826   6.722   8.865  0.1508  0.2137 -0.1406
 5425W        W 9169   1.254   4.526   0.104 -0.2399 -0.1932  0.1264
 5426W        W 9170   8.263   6.027   0.310 -0.1570 -0.2754 -0.2979
 5427W        W 9171   0.850   0.019   1.222  0.0951 -0.2544 -0.0601
 5428W        W 9172   2.788   1.845   1.510  0.2587 -0.0068  0.0296
 5429W        W 9173   6.569   3.795   0.775  0.0009  0.1310 -0.0767
 5430W        W 9174   1.138   7.715  12.274 -0.2974  0.3110 -0.0994
 5431W        W 9175   4.673   4.236   8.448  0.2360 -0.0162  0.0263
 5432W        W 9176   4.172   5.968   1.626  0.1033 -0.2622  0.3045
 5433W        W 9177   0.211   0.863   0.111 -0.0287 -0.0990  0.1563
 5434W        W 9178   0.141   6.530   8.943 -0.0483  0.1536  0.1036
 5435W        W 9179   4.158   0.033  12.102 -0.0583  0.0448  0.0354
 5436W        W 9180   8.316   8.680   2.662  0.1162  0.0706  0.1143
 5437W        W 9181   6.994   3.882   3.865 -0.1330  0.3938  0.0242
 5438W        W 9182   7.033   0.974  12.210 -0.3335  0.0334 -0.0494
 5439W        W 9183   2.603   3.653   3.621  0.0618 -0.0543 -0.0752
 5440W        W 9184   4.428   4.604   3.313  0.0984 -0.0035  0.0773
 5441W        W 9185   5.110   2.400  11.532 -0.0566 -0.1241  0.3895
 5442W        W 9186   7.339   4.345   2.693  0.0923  0.0601  0.0062
 5443W        W 9187   6.792   7.009   4.733 -0.0260 -0.0503 -0.1852
 5444W        W 9188   6.700   4.870   8.963 -0.2736  0.0295 -0.0425
 5445W        W 9189   9.853   3.938   0.785  0.0406 -0.0090 -0.1162
 5446W        W 9190   2.256   5.351   8.692  0.3177  0.0133 -0.1316
 5447W        W 9191   4.970   2.537   1.629  0.2240 -0.3747 -0.0065
 5448W        W 9192   4.283   4.707  10.833  0.0371 -0.1515 -0.0063
 5449W        W 9193   0.886   7.622  12.790 -0.0465  0.0479  0.0689
 5450W        W 9194   8.322   9.004  11.000 -0.4554 -0.2339  0.0640
 5451W        W 9195   9.458   2.158  12.729 -0.2978  0.2959 -0.0145
 5452W        W 9196   5.334   5.799   2.824  0.1957  0.2557  0.1764
 5453W        W 9197   9.852   9.211  10.487 -0.1240 -0.1107  0.0946
 5454W        W 9198   0.596   6.107   3.971 -0.1429 -0.0305  0.2390
 5455W        W 9199   6.680   1.938   4.656  0.1164 -0.4328  0.2270
 5456W        W 9200   3.882   2.873   0.994  0.2126  0.2573  0.2092
 5457W        W 9201   6.669   3.181   0.132 -0.0591 -0.0649  0.1334
 5458W        W 9202   1.443   6.633   3.669  0.0005  0.1635  0.3577
 5459W        W 9203   3.691   6.746   3.341 -0.0745 -0.3852  0.0311
 5460W        W 9204   3.042   7.573  10.281 -0.2098 -0.1814  0.0614
 5461W        W 9205   2.947   8.178  11.875 -0.2706  0.0610  0.1339
 5462W        W 9206   4.125   4.982   4.094  0.0302  0.2102  0.1520
 5463W        W 9207   1.306   9.768   1.354  0.3592 -0.0052 -0.0757
 5464W        W 9208   7.985   2.100  10.381  0.2329  0.2902  0.0509
 5465W        W 9209   7.335   6.455   1.337 -0.0802  0.2689  0.1123
 5466W        W 9210   5.799   5.888   9.792 -0.2800 -0.1336 -0.0449
 5467W        W 9211   0.492   6.323   9.421 -0.0995  0.0008 -0.0692
 5468W        W 9212   9.539   4.655   3.536 -0.1762 -0.0822  0.1380
 5469W        W 9213   6.628   0.305   3.980 -0.3024  0.0887  0.2634
 5470W        W 9214   2.979   8.139   1.883 -0.0175 -0.0851 -0.0242
 5471W        W 9215   4.353   6.678   9.608  0.1358 -0.0455 -0.0331
 5472W        W 9216   0.141   8.582   1.550  0.1314  0.4491  0.0166
 5473W        W 9217   8.640   3.752   1.034  0.4005 -0.1446  0.0454
 5474W        W 9218   9.085   4.612  11.650  0.0715 -0.1502 -0.0480
 5475W        W 9219   5.384   6.483   9.975 -0.2472  0.0729 -0.2043
 5476W        W 9220   4.770   8.697   3.135  0.1893  0.1311  0.2424
 5477W        W 9221   9.871   2.159   0.823 -0.0818 -0.1991  0.1142
 5478W        W 9222   7.265   5.447   3.285 -0.1546  0.2638  0.1214
 5479W        W 9223   5.596   7.332   9.148  0.1504  0.0612 -0.2234
 5480W        W 9224   0.756   3.808   2.900  0.0960 -0.1143  0.0209
 5481W        W 9225   2.760   8.326  11.400  0.3293 -0.0868  0.3779
 5482W        W 9226   3.664   5.965  10.622 -0.0395 -0.2250 -0.0266
 5483W        W 9227   5.950   3.694   3.774  0.0784 -0.2031 -0.0486
 5484W        W 9228   6.388   4.901  10.487  0.0144 -0.0942  0.0179
 5485W        W 9229   9.578   8.500  10.158 -0.2014  0.5251 -0.0390
 5486W        W 9230   7.914   8.511   3.303  0.0385  0.4327  0.2382
 5487W        W 9231   0.396   0.669   2.834  0.0560  0.1926  0.2347
 5488W        W 9232   7.535   8.950   3.734  0.0892  0.1086 -0.0109
 5489W        W 9233   4.677   6.545   8.534 -0.0501 -0.0496  0.0366
 5490W        W 9234   1.757   3.927   3.135  0.1903 -0.0535  0.0167
 5491W        W 9235   3.461   4.313  10.759  0.0877 -0.0835 -0.0130
 5492W        W 9236   1.586   4.888  11.632 -0.2724  0.0855  0.2319
 5493W        W 9237   6.477   7.918   8.664  0.2951  0.2400  0.1486
 5494W        W 9238   5.989   6.336   3.282  0.0859  0.2501  0.3087
 5495W        W 9239   4.027   2.265  12.558  0.1610  0.1898  0.2422
 5496W        W 9240   3.395   7.990   2.130  0.0574 -0.0732 -0.2056
 5497W        W 9241   5.134   5.205   1.624  0.2576  0.1542  0.1606
 5498W        W 9242   4.227   7.015  11.358  0.0173  0.1032  0.0192
 5499W        W 9243   9.724   2.271  10.349 -0.1397  0.4324 -0.2025
 5500W        W 9244   2.629   3.954   9.116  0.1150 -0.0203  0.1137
 5501W        W 9245   9.631   3.094  10.486  0.2632  0.3519  0.0030
 5502W        W 9246   6.045   1.570   0.254 -0.2487 -0.0168 -0.1930
 5503W        W 9247   8.243   1.806  11.821  0.0411 -0.1102  0.1425
 5504W        W 9248   5.985   3.273  10.951 -0.1348 -0.1313 -0.0045
 5505W        W 9249   5.112   7.589  10.926 -0.0296 -0.1329 -0.0717
 5506W        W 9250   4.244   3.000   9.139  0.1268 -0.1102  0.1523
 5507W        W 9251   3.619   8.612  11.796  0.3394  0.1956 -0.0991
 5508W        W 9252   3.990   1.412   3.288  0.2520  0.1553  0.1481
 5509W        W 9253   7.902   4.856   3.253 -0.2933  0.2161  0.0805
 5510W        W 9254   3.506   8.233   0.967  0.0427 -0.3644  0.1898
 5511W        W 9255   3.793   5.331   4.849  0.3713  0.3215 -0.1834
 5512W        W 9256   9.519   9.532   1.572  0.1211  0.1996  0.2062
 5513W        W 9257   0.407   5.286  10.473  0.0767  0.0127 -0.3026
 5514W        W 9258   9.215   0.361  10.032 -0.1024 -0.2916 -0.1735
 5515W        W 9259   9.223   1.969   2.481  0.0301 -0.1496  0.0046
 5516W        W 9260   7.010   6.973  11.932  0.1132 -0.3117 -0.1155
 5517W        W 9261   9.376   6.540   4.930 -0.1745 -0.1521 -0.0811
 5518W        W 9262   5.531   6.292   4.274 -0.2085  0.1889  0.2927
 5519W        W 9263   4.708   6.708   3.832  0.2607  0.0638  0.2438
 5520W        W 9264   1.191   1.429  10.301  0.1281 -0.1614 -0.0897
 5521W        W 9265   5.718   8.992   0.646 -0.2824 -0.1376  0.0984
 5522W        W 9266   7.217   9.461   4.514  0.0886 -0.0450 -0.1168
 5523W        W 9267   8.365   0.349   3.486  0.1364  0.1515  0.0310
 5524W        W 9268   8.989   8.951   9.836  0.2295  0.1477 -0.1847
 5525W        W 9269   3.680   9.316   1.932 -0.0130  0.0654 -0.1536
 5526W        W 9270   8.424   9.889   0.736 -0.0603 -0.1805 -0.1904
 5527W        W 9271   4.024   0.825   0.579  0.4094  0.0473 -0.1486
 5528W        W 9272   5.024   8.060   2.607 -0.1875  0.0547  0.0062
 5529W        W 9273   1.040   1.661   1.518 -0.4202 -0.3415 -0.1359
 5530W        W 9274   8.751   9.614   4.000 -0.0425  0.1496 -0.4645
 5531W        W 9275   1.270   2.300  10.553  0.1234  0.1907  0.2472
 5532W        W 9276   2.395   9.071   0.047 -0.0424  0.0721  0.0773
 5533W        W 9277   4.984   4.794   0.013 -0.2211  0.0403 -0.1390
 5534W        W 9278   0.476   9.862   0.269 -0.0750  0.1392 -0.1047
 5535W        W 9279   1.880   3.629   0.614 -0.3976  0.0830  0.2666
 5536W        W 9280   2.155   3.162  11.133 -0.1264 -0.1785 -0.3365
 5537W        W 9281   2.658   8.490   3.396 -0.3439  0.1818  0.0736
 5538W        W 9282   3.202   5.505   3.055 -0.0540 -0.0598  0.2011
 5539W        W 9283   8.665   2.376   1.296  0.0167  0.0123  0.1667
 5540W        W 9284   5.824   5.447   9.469  0.0433  0.2100 -0.2246
 5541W        W 9285   4.690   2.768   3.128  0.2494 -0.1529  0.0863
 5542W        W 9286   5.318   6.908   1.180  0.0478  0.0952 -0.1798
 5543W        W 9287   8.193   0.932   4.941  0.1402  0.0336 -0.1149
 5544W        W 9288   8.194   8.206   1.388 -0.0992  0.3710  0.0536
 5545W        W 9289   3.137   4.372  11.747 -0.2001  0.1350  0.1339
 5546W        W 9290   2.701   2.611  10.277 -0.1685 -0.0154  0.4260
 5547W        W 9291   8.148   0.860   1.870  0.0667 -0.0384 -0.1638
 5548W        W 9292   4.703   8.517   2.383  0.1242  0.2250  0.0764
 5549W        W 9293   4.548   8.338  12.152 -0.2285  0.0776 -0.1476
 5550W        W 9294   6.323   7.515   3.105 -0.0350  0.1240 -0.0011
 5551W        W 9295   5.233   9.897   3.599 -0.1622  0.1280  0.1283
 5552W        W 9296   8.984   6.680  12.547  0.1501 -0.1463 -0.1147
 5553W        W 9297   6.623   7.673   4.192  0.1762  0.0904  0.2706
 5554W        W 9298   1.831   4.449   8.576  0.2247  0.0094 -0.0568
 5555W        W 9299   8.925   9.119  11.971  0.0348 -0.0136 -0.2469
 5556W        W 9300   3.780   4.849   0.715 -0.0775 -0.1935 -0.0602
 5557W        W 9301   7.843   8.466   1.643 -0.3100  0.1204 -0.0274
 5558W        W 9302   6.432   5.720  12.495  0.0301 -0.0437 -0.2094
 5559W        W 9303   8.799   9.618  12.298 -0.2390 -0.0551 -0.1860
 5560W        W 9304   4.277   2.272   0.119 -0.0425  0.2875  0.1530
 5561W        W 9305   6.447   7.157   2.675 -0.0912 -0.0140 -0.0321
 5562W        W 9306   3.880   6.616   9.795 -0.0860 -0.0512  0.0117
 5563W        W 9307   1.205   1.914   2.456  0.2143  0.2353  0.1083
 5564W        W 9308   6.020   9.360   0.283  0.0938  0.1562  0.3034
 5565W        W 9309   8.293   9.415  12.333  0.1226 -0.2340  0.0255
 5566W        W 9310   4.808   2.830   2.507 -0.3782 -0.1012 -0.2448
 5567W        W 9311   6.792   0.777   9.120  0.1077 -0.0277  0.0415
 5568W        W 9312   0.510   4.661   4.120 -0.0361 -0.1283 -0.0085
 5569W        W 9313   0.200   6.609  12.228 -0.0672 -0.1712 -0.0400
 5570W        W 9314   1.952   7.486   9.477 -0.2758  0.3891  0.1572
 5571W        W 9315   8.033   8.969   3.587 -0.2289  0.0983  0.0072
 5572W        W 9316   3.117   1.519   1.556 -0.2399 -0.0478  0.0645
 5573W        W 9317   9.352   0.916   3.939  0.0299  0.0425 -0.2186
 5574W        W 9318   5.118   0.178   9.214 -0.2372 -0.0089  0.0229
 5575W        W 9319   0.154   2.225  11.425  0.1448  0.3019  0.0719
 5576W        W 9320   3.876   1.149   2.833  0.0797  0.0410 -0.1782
 5577W        W 9321   2.367   4.837  12.166  0.2377 -0.3246 -0.1902
 5578W        W 9322   2.547   6.432   0.167  0.4138 -0.2409  0.1358
 5579W        W 9323   7.843   8.781   5.032 -0.0449 -0.1412 -0.0404
 5580W        W 9324   0.831   0.924  11.161 -0.1219  0.1152 -0.1952
 5581W        W 9325   5.560   1.654  11.931 -0.1289 -0.1695 -0.0546
 5582W        W 9326   3.623   2.627   1.404  0.0158 -0.1197 -0.3702
 5583W        W 9327   5.556   8.487  11.730  0.0072 -0.0297  0.3020
 5584W        W 9328   7.969   3.980   9.582  0.1152  0.0402  0.1879
 5585W        W 9329   8.396   3.649  11.084  0.3145  0.2367 -0.2733
 5586W        W 9330   6.763   7.003   3.580 -0.1930  0.0962 -0.2681
 5587W        W 9331   5.831   4.317   1.037 -0.1662 -0.0175 -0.1828
 5588W        W 9332   7.261   3.052  10.137  0.2313  0.4091 -0.0678
 5589W        W 9333   9.422   5.185   1.177  0.0719 -0.0514  0.0164
 5590W        W 9334   9.615   8.799   1.607  0.0614  0.1208  0.2973
 5591W        W 9335   1.001   8.549   0.909 -0.0944 -0.1447  0.2047
 5592W        W 9336   3.641   7.804   1.738  0.0342  0.4649 -0.3462
 5593W        W 9337   9.410   9.028   1.241  0.0567  0.2459  0.1862
 5594W        W 9338   9.814   4.437  10.542  0.0082  0.0861  0.0019
 5595W        W 9339   7.310   3.481   3.862  0.0231 -0.0376 -0.1084
 5596W        W 9340   8.091   8.932   9.223  0.0860  0.2683  0.6490
 5597W        W 9341   2.530   1.198  11.378  0.2884  0.1206 -0.1450
 5598W        W 9342   8.450   3.924  11.750 -0.0836  0.1194 -0.1108
 5599W        W 9343   9.466   0.429   2.534  0.0186  0.3204 -0.0433
 5600W        W 9344   1.942   6.667   9.582  0.2121  0.1581 -0.0313
 5601W        W 9345   3.726   2.126   3.891 -0.2929  0.1278  0.0080
 5602W        W 9346   6.147   5.324   0.446 -0.0679 -0.0166 -0.1152
 5603W        W 9347   7.165   0.899  11.630 -0.1240 -0.0337  0.0134
 5604W        W 9348   3.924   5.543  10.669  0.0016  0.0027 -0.0768
 5605W        W 9349   6.750   1.245   3.590  0.2921 -0.0759  0.2701
 5606W        W 9350   4.133   9.454  10.928  0.0157 -0.0337  0.1526
 5607W        W 9351   9.873   0.751   2.517  0.1096  0.0189 -0.0940
 5608W        W 9352   5.553   6.199   9.541  0.2056  0.3456  0.1178
 5609W        W 9353   6.160   6.622  10.388 -0.0037  0.2322 -0.0125
 5610W        W 9354   7.168   4.541   0.748  0.2188 -0.0519 -0.0586
 5611W        W 9355   7.011   6.327   0.120 -0.1041  0.2476  0.0479
 5612W        W 9356   9.526   1.325   0.854  0.3719  0.1374  0.0119
 5613W        W 9357   8.362   4.475   4.982  0.0204  0.0016 -0.2527
 5614W        W 9358   0.379   0.758  11.994 -0.0131  0.1654 -0.2095
 5615W        W 9359   0.978   3.814   0.507  0.0330  0.0870  0.0297
 5616W        W 9360   8.445   1.489  12.117 -0.3831 -0.1055 -0.5542
 5617W        W 9361   1.248   4.697   2.068  0.0783  0.0169 -0.0212
 5618W        W 9362   1.858   0.016  10.870 -0.1137 -0.2481 -0.2735
 5619W        W 9363   3.422   2.105   3.503  0.1144  0.0815 -0.1514
 5620W        W 9364   0.659   3.677   2.380  0.1324 -0.0044  0.0952
 5621W        W 9365   6.464   6.991  12.017  0.0659 -0.3229  0.1006
 5622W        W 9366   6.839   2.911  10.359 -0.2164  0.1548 -0.3860
 5623W        W 9367   7.526   9.090  10.581 -0.1507 -0.3479  0.4692
 5624W        W 9368   8.204   8.432   9.197  0.0324  0.0193 -0.2342
 5625W        W 9369   2.646   5.935   0.278 -0.3775 -0.0488 -0.2465
 5626W        W 9370   6.639   4.054  10.215  0.1742 -0.0636  0.0017
 5627W        W 9371   5.425   8.580  11.157  0.0690 -0.0651 -0.1033
 5628W        W 9372   4.474   7.479   1.286 -0.1074 -0.0320  0.2460
 5629W        W 9373   3.970   5.078  12.466 -0.1828 -0.0073  0.0938
 5630W        W 9374   6.904   0.078   4.429 -0.0421 -0.1221  0.1507
 5631W        W 9375   2.614   8.180   0.017 -0.0682 -0.1274  0.1612
 5632W        W 9376   2.387   8.009   0.786 -0.5321  0.2051  0.1300
 5633W        W 9377   8.179   5.077   1.877  0.4960 -0.2927  0.2148
 5634W        W 9378   2.402   8.565   8.072  0.1406  0.2449 -0.0150
 5635W        W 9379   8.392   8.721   0.487  0.0325  0.2556  0.1278
 5636W        W 9380   0.579   5.159  10.940  0.0047 -0.0964 -0.0670
 5637W        W 9381   0.097   4.380   2.243  0.1063  0.0515  0.0138
 5638W        W 9382   4.292   0.852  10.481  0.1992 -0.1919 -0.1027
 5639W        W 9383   6.693   4.350   9.209 -0.0257 -0.0526  0.0820
 5640W        W 9384   9.277   5.899   1.766 -0.2560 -0.0721 -0.0174
 5641W        W 9385   6.433   7.998   2.850 -0.2486 -0.1410  0.0585
 5642W        W 9386   7.222   7.992   2.110  0.1517 -0.0781  0.3223
 5643W        W 9387   2.442   4.040   4.478 -0.1090 -0.2096  0.1049
 5644W        W 9388   0.502   7.584  10.969 -0.1072 -0.0022 -0.3423
 5645W        W 9389   8.657   4.268   3.547  0.1882  0.2309  0.1284
 5646W        W 9390   9.233   7.735   2.377  0.1181  0.0609 -0.1324
 5647W        W 9391   6.563   5.272   9.445  0.0994 -0.0659  0.2892
 5648W        W 9392   0.521   1.847  11.773  0.0462  0.3818 -0.1594
 5649W        W 9393   4.268   5.944   3.757  0.2296 -0.3010  0.2241
 5650W        W 9394   5.057   7.612   2.354  0.0630  0.1364 -0.0630
 5651W        W 9395   5.823   8.141   9.956  0.1757 -0.0655  0.3165
 5652W        W 9396   5.273   0.901   8.990 -0.1687  0.0550 -0.3668
 5653W        W 9397   9.433   7.788   0.870  0.3844 -0.2298  0.1088
 5654W        W 9398   8.710   4.612  12.059 -0.2113  0.0541 -0.1144
 5655W        W 9399   7.138   3.823   9.611 -0.1739 -0.2706 -0.1080
 5656W        W 9400   5.429   7.435   1.178 -0.1363  0.1140  0.0561
 5657W        W 9401   3.708   4.424  11.893  0.2691  0.0572 -0.1228
 5658W        W 9402   2.730   7.673  12.302  0.3502  0.0035 -0.0732
 5659W        W 9403   2.323   6.055   8.752 -0.2117  0.0144  0.1176
 5660W        W 9404   6.220   6.224  12.455  0.1872  0.3240 -0.1336
 5661W        W 9405   0.564   6.290   9.978 -0.0508 -0.0280 -0.1701
 5662W        W 9406   0.130   5.103   2.852 -0.0606  0.1134 -0.1223
 5663W        W 9407   2.985   0.617  12.381  0.1044 -0.1055  0.1362
 5664W        W 9408   5.478   2.682  12.288 -0.1806 -0.0429  0.1240
 5665W        W 9409   7.007   9.875  12.753 -0.2152  0.3060  0.1439
 5666W        W 9410   8.516   3.541   2.665 -0.3646 -0.1418 -0.0915
 5667W        W 9411   6.335   8.482   0.958 -0.0005  0.1551 -0.0143
 5668W        W 9412   1.608   7.655   1.890 -0.0518  0.1754  0.0588
 5669W        W 9413   0.721   2.759   0.796  0.0793  0.4466  0.0132
 5670W        W 9414   7.090   4.794   3.808  0.2122  0.3404  0.0418
 5671W        W 9415   1.484   7.115   9.922  0.0222  0.0237  0.0910
 5672W        W 9416   0.906   4.431  11.833  0.2080 -0.1746  0.3547
 5673W        W 9417   3.579   6.143  12.145  0.2162 -0.1479  0.1696
 5674W        W 9418   6.500   3.802   3.869  0.0202 -0.0267 -0.1313
 5675W        W 9419   3.867   7.104  11.735 -0.3574  0.0369 -0.1928
 5676W        W 9420   3.028   0.407   0.581  0.1457  0.0413  0.2396
 5677W        W 9421   4.453   9.071  10.563  0.2586 -0.0420 -0.1883
 5678W        W 9422   2.506   2.251   1.667  0.4415 -0.0769  0.1764
 5679W        W 9423   6.821   7.759  10.510  0.0354  0.0622 -0.2194
 5680W        W 9424   3.521   2.103  10.409  0.0334  0.0678  0.1366
 5681W        W 9425   5.144   0.953   4.010  0.0630 -0.0017  0.2972
 5682W        W 9426   5.586   1.153  10.688  0.0944 -0.1763 -0.0825
 5683W        W 9427   0.688   8.168   8.831  0.2565 -0.1587  0.2306
 5684W        W 9428   9.486   1.906   0.366 -0.0744 -0.0321 -0.0239
 5685W        W 9429   1.848   4.412   9.079 -0.1256 -0.0155 -0.0888
 5686W        W 9430   5.328   3.741  12.077  0.0260 -0.0116 -0.2785
 5687W        W 9431   8.629   6.744   8.853  0.2183  0.0387 -0.1634
 5688W        W 9432   5.999   4.123   2.607 -0.3518  0.0950 -0.1795
 5689W        W 9433   0.893   1.095   1.470 -0.1395 -0.0234  0.2281
 5690W        W 9434   5.587   5.898   3.738 -0.0366 -0.0697  0.0850
 5691W        W 9435   3.787   1.278   0.913  0.3234 -0.0739 -0.2979
 5692W        W 9436   5.735   1.258   3.618 -0.2268 -0.1914 -0.0506
 5693W        W 9437   6.354   4.436   3.860 -0.0798 -0.0174 -0.1070
 5694W        W 9438   7.838   6.163   3.129  0.1132  0.1575 -0.5470
 5695W        W 9439   9.002   7.164   1.523  0.3870  0.1145  0.1735
 5696W        W 9440   5.130   7.593   0.502  0.1680  0.1668 -0.4387
 5697W        W 9441   8.490   3.932  12.613 -0.1079  0.0616  0.0518
 5698W        W 9442   4.601   7.098  11.672  0.0693  0.0112  0.0272
 5699W        W 9443   4.553   4.183   4.696 -0.1310 -0.1238 -0.0438
 5700W        W 9444   5.073   5.676   1.484 -0.0646  0.0829  0.1582
 5701W        W 9445   6.388   9.651  11.404  0.2993 -0.1360  0.2508
 5702W        W 9446   2.984   2.429  12.619  0.0674 -0.3722 -0.1273
 5703W        W 9447   8.058   1.122   8.723 -0.2407 -0.2237  0.0613
 5704W        W 9448   9.433   8.455  11.049 -0.4067 -0.0735 -0.5800
 5705W        W 9449   7.945   6.947   1.270 -0.1522 -0.0170  0.0934
 5706W        W 9450   3.601   3.616  12.542 -0.3479 -0.3470 -0.2506
 5707W        W 9451   1.417   7.074   8.535 -0.2538 -0.2290  0.3732
 5708W        W 9452   0.293   2.539  11.042 -0.1967  0.6138 -0.1051
 5709W        W 9453   6.510   4.279   0.620 -0.3812 -0.0451 -0.0788
 5710W        W 9454   0.575   8.470   3.142 -0.0400  0.0364  0.3800
 5711W        W 9455   9.115   0.803  10.274  0.3063 -0.1539  0.2510
 5712W        W 9456   3.288   8.395  11.406 -0.1422  0.1109 -0.2149
 5713W        W 9457   1.322   5.289  10.264  0.1279  0.1385 -0.0014
 5714W        W 9458   5.804   4.862   8.641  0.0254 -0.1021  0.1606
 5715W        W 9459   5.734   6.687   2.935  0.0313  0.3646  0.0916
 5716W        W 9460   0.721   0.370  11.758 -0.1391 -0.1795 -0.2489
 5717W        W 9461   4.996   2.694   8.986 -0.3086 -0.2252  0.0848
 5718W        W 9462   6.970   8.560   8.471 -0.2798 -0.1276 -0.0528
 5719W        W 9463   7.884   0.552   4.256  0.2577  0.0596 -0.1575
 5720W        W 9464   4.187   0.598   3.557 -0.0860  0.0483 -0.1090
 5721W        W 9465   8.020   2.205   9.357 -0.0935  0.1353  0.2131
 5722W        W 9466   5.099   3.138   1.598 -0.1725 -0.0657  0.0609
 5723W        W 9467   0.094   4.719   1.873  0.0713  0.0652 -0.0603
 5724W        W 9468   9.450   8.008   3.626 -0.2403  0.0867 -0.1391
 5725W        W 9469   0.435   9.096   3.436  0.1524 -0.2341 -0.0725
 5726W        W 9470   5.320   8.182   3.535  0.0107  0.0320 -0.1171
 5727W        W 9471   3.655   5.960   1.073 -0.0763  0.2226 -0.0374
 5728W        W 9472   3.191   2.235   3.990 -0.0039  0.1073 -0.0284
 5729W        W 9473   2.092   9.221   1.808  0.0179  0.0665 -0.0910
 5730W        W 9474   7.281   7.469  12.045 -0.2270 -0.0264  0.1307
 5731W        W 9475   7.244   4.570  10.046 -0.1195  0.0810  0.1178
 5732W        W 9476   3.461   7.667   1.099  0.2065  0.0606  0.3761
 5733W        W 9477   9.379   9.763  10.835  0.1499 -0.0520  0.2071
 5734W        W 9478   7.638   3.149   9.267  0.0605 -0.2721  0.1231
 5735W        W 9479   9.491   6.193   8.834 -0.0786 -0.1653 -0.2309
 5736W        W 9480   3.455   2.274   9.877  0.0861 -0.0356 -0.0414
 5737W        W 9481   0.365   6.734  10.852  0.0234 -0.0752 -0.2816
 5738W        W 9482   3.184   2.737  10.058  0.2375  0.0836 -0.0349
 5739W        W 9483   9.279   0.248  11.128 -0.0561  0.2308 -0.1586
 5740W        W 9484   1.949   9.702   2.088 -0.0513  0.2970  0.2637
 5741W        W 9485   3.056   0.519   1.505  0.0522 -0.1160  0.2021
 5742W        W 9486   6.048   4.755   1.299  0.0400  0.3740  0.0180
 5743W        W 9487   9.075   0.645   1.775 -0.4288 -0.1399 -0.1618
 5744W        W 9488   7.363   3.446  11.446 -0.0647  0.0952  0.0533
 5745W        W 9489   0.617   5.483   2.011 -0.0890 -0.3568 -0.0022
 5746W        W 9490   5.609   3.276   1.017  0.0728  0.1403 -0.1228
 5747W        W 9491   8.018   7.678   3.665 -0.3525 -0.2542 -0.2996
 5748W        W 9492   1.772   9.730  10.430 -0.2608  0.1516 -0.0905
 5749W        W 9493   3.809   7.627  12.396  0.0232 -0.0524 -0.2660
 5750W        W 9494   8.843   8.530   3.627  0.0705  0.0330 -0.1281
 5751W        W 9495   9.236   8.304   3.036 -0.0531 -0.0439  0.1714
 5752W        W 9496   7.881   2.323   1.701  0.3844  0.1006  0.1110
 5753W        W 9497   9.031   6.665   8.547 -0.0422 -0.1347  0.0129
 5754W        W 9498   5.263   3.520   2.810  0.0378 -0.0957 -0.2226
 5755W        W 9499   5.621   2.049   0.586  0.0872 -0.1250  0.1908
 5756W        W 9500   3.197   6.628   4.325  0.3613 -0.1468 -0.0152
 5757W        W 9501   1.938   2.109  11.750  0.0718  0.1595  0.1971
 5758W        W 9502   0.057   5.395  10.910 -0.1050 -0.1486  0.3033
 5759W        W 9503   9.455   0.447   8.955 -0.1000 -0.2050 -0.3409
 5760W        W 9504   9.612   4.110   9.787  0.2838 -0.1517 -0.0434
 5761W        W 9505   5.349   2.708   8.651  0.2877  0.2754  0.2551
 5762W        W 9506   9.059   4.465   0.752 -0.1326  0.4086  0.2033
 5763W        W 9507   1.403   0.151  11.337  0.0464 -0.2592 -0.2614
 5764W        W 9508   7.681   9.926   8.597 -0.1034  0.1365 -0.1031
 5765W        W 9509   5.927   7.432  11.506 -0.4054  0.1866  0.2188
 5766W        W 9510   6.822   5.111  11.897  0.3491 -0.1868  0.0924
 5767W        W 9511   9.629   3.555   1.186 -0.3400  0.2278 -0.2283
 5768W        W 9512   8.185   9.400   3.410  0.3476 -0.0006 -0.0543
 5769W        W 9513   7.368   8.578  10.452 -0.0932  0.1506  0.2304
 5770W        W 9514   5.345   9.069   5.016  0.1017  0.1869  0.5089
 5771W        W 9515   7.767   4.778  11.837 -0.1627 -0.1025  0.0522
 5772W        W 9516   9.535   1.492   9.095 -0.0405  0.2422  0.0605
 5773W        W 9517   4.791   1.459  11.621  0.0384  0.0246  0.0307
 5774W        W 9518   6.555   4.469   8.629  0.3716  0.0471 -0.1061
 5775W        W 9519   4.835   5.180   3.886 -0.4057 -0.1378 -0.2783
 5776W        W 9520   9.013   0.224   1.513 -0.0728 -0.2168 -0.1844
 5777W        W 9521   4.436   2.862   9.603  0.0140  0.1521 -0.4065
 5778W        W 9522   8.841   7.857   2.141  0.1590 -0.1948 -0.1693
 5779W        W 9523   6.000   9.182  12.152  0.0866 -0.0851  0.2368
 5780W        W 9524   4.597   0.299   3.624  0.0012  0.1474 -0.2443
 5781W        W 9525   2.970   2.616   3.082 -0.1710 -0.0005 -0.0361
 5782W        W 9526   4.583   9.709  10.900 -0.4988 -0.2400 -0.0949
 5783W        W 9527   6.737   5.909   9.008  0.0979 -0.0422  0.1506
 5784W        W 9528   4.448   0.467   8.326  0.0059  0.2305 -0.2575
 5785W        W 9529   6.237   4.661  12.677  0.3376 -0.1379 -0.0254
 5786W        W 9530   1.829   7.705   4.675 -0.1512 -0.0635 -0.2714
 5787W        W 9531   3.435   9.497   1.464 -0.0800 -0.2650 -0.2658
 5788W        W 9532   1.966   2.701   0.124  0.1953  0.0330  0.0048
 5789W        W 9533   9.315   2.709  11.494 -0.1647 -0.1362 -0.0329
 5790W        W 9534   8.071   5.004  12.534 -0.1617 -0.1452 -0.1689
 5791W        W 9535   2.231   0.889   9.903 -0.0754 -0.0062 -0.2406
 5792W        W 9536   8.433   1.588   3.704  0.1427  0.0693 -0.1009
 5793W        W 9537   3.243   5.142   1.346  0.1069  0.1882 -0.2134
 5794W        W 9538   9.066   2.261   1.612  0.2306  0.0875 -0.0995
 5795W        W 9539   4.450   3.304   2.161 -0.0036  0.1930  0.3306
 5796W        W 9540   6.879   9.500   2.586  0.3634  0.0657 -0.2857
 5797W        W 9541   9.268   2.439  10.955  0.1999  0.1519  0.2187
 5798W        W 9542   4.902   8.986   2.584 -0.1250 -0.0764 -0.0669
 5799W        W 9543   9.837   1.681   0.600 -0.0584  0.2168  0.0532
 5800W        W 9544   3.019   0.990   2.317 -0.1490 -0.0359 -0.2589
 5801W        W 9545   1.833   4.610  12.030 -0.0659 -0.1143 -0.0277
 5802W        W 9546   0.481   4.101   1.188  0.3117 -0.2226 -0.3436
 5803W        W 9547   0.802   2.530   9.741  0.3125  0.1540 -0.1324
 5804W        W 9548   1.244   9.330  11.854  0.2295 -0.0217  0.2188
 5805W        W 9549   8.926   5.227  12.726 -0.1951 -0.0435  0.0591
 5806W        W 9550   5.328   3.351  12.506  0.3268  0.2636 -0.5148
 5807W        W 9551   9.121   0.875  12.593  0.2121 -0.2560  0.1591
 5808W        W 9552   4.646   7.147  12.722 -0.0377  0.1746 -0.0345
 5809W        W 9553   0.274   1.588  10.628 -0.0903 -0.2878  0.3072
 5810W        W 9554   2.921   6.884   9.220  0.0527  0.0352  0.0161
 5811W        W 9555   5.184   8.418   0.208  0.0441  0.1377  0.1189
 5812W        W 9556   9.004   7.321   2.893 -0.0612 -0.0721  0.1119
 5813W        W 9557   5.635   8.838  12.090 -0.0321 -0.1655  0.0082
 5814W        W 9558   2.796   6.860   4.218  0.1168 -0.0727  0.1543
 5815W        W 9559   5.611   1.125   3.102  0.1310 -0.0207 -0.0507
 5816W        W 9560   5.966   3.117   9.927 -0.0261  0.0009 -0.1247
 5817W        W 9561   0.770   4.862  10.081 -0.1012  0.2931 -0.0309
 5818W        W 9562   8.086   0.929  11.153  0.0077  0.2145  0.1387
 5819W        W 9563   9.424   6.313  12.669  0.0206  0.0433  0.1285
 5820W        W 9564   5.693   4.380   4.320 -0.3180 -0.0461 -0.2017
 5821W        W 9565   0.083   5.408   1.869  0.1705 -0.2479 -0.0338
 5822W        W 9566   3.639   5.295  11.828  0.2072 -0.4598 -0.0306
 5823W        W 9567   9.792   0.040   2.535  0.4726 -0.2528 -0.0887
 5824W        W 9568   3.238   8.665   4.347 -0.2313  0.2906  0.1541
 5825W        W 9569   7.124   9.801   1.656  0.0084  0.1748 -0.1214
 5826W        W 9570   2.636   2.648  10.820 -0.0989  0.1290 -0.0941
 5827W        W 9571   1.305   3.019  12.235  0.2753  0.2051  0.1587
 5828W        W 9572   5.082   1.600  12.709  0.1006 -0.0588 -0.0250
 5829W        W 9573   0.061   5.213   8.904  0.1441  0.2002 -0.1579
 5830W        W 9574   2.850   6.673   2.938  0.2809 -0.1248  0.0914
 5831W        W 9575   7.387   3.208   1.816  0.2765 -0.0517 -0.0888
 5832W        W 9576   8.635   6.623   3.449  0.3627 -0.0769  0.0435
 5833W        W 9577   7.793   9.242   9.944 -0.4929 -0.3178 -0.0821
 5834W        W 9578   7.804   2.619   4.903 -0.0526 -0.0440  0.1006
 5835W        W 9579   5.274   9.855   3.080 -0.0481 -0.2447 -0.0882
 5836W        W 9580   7.056   6.360   2.175  0.1272 -0.5573 -0.0034
 5837W        W 9581   1.847   2.177   2.315  0.3380  0.3759 -0.0779
 5838W        W 9582   3.851   3.534   0.109 -0.0800 -0.1889 -0.2840
 5839W        W 9583   4.435   8.779   8.869 -0.2357  0.0053  0.1256
 5840W        W 9584   7.039   4.424  11.230 -0.0365 -0.0200  0.1711
 5841W        W 9585   4.667   5.111   0.899 -0.0677  0.4869  0.0021
 5842W        W 9586   6.928   5.644   9.585  0.2650  0.1473  0.0400
 5843W        W 9587   8.100   2.399   1.294 -0.1109  0.0127  0.1793
 5844W        W 9588   2.241   2.865   2.399  0.1579  0.0905  0.0809
 5845W        W 9589   3.263   1.749  11.759 -0.0755 -0.0174  0.0624
 5846W        W 9590   9.384   7.222   0.042 -0.0980  0.0409  0.2714
 5847W        W 9591   9.846   8.064  10.038 -0.0716  0.1618 -0.1997
 5848W        W 9592   0.938   6.257  11.831 -0.4339 -0.1820  0.2262
 5849W        W 9593   3.101   6.299   8.676  0.3082  0.0569  0.1018
 5850W        W 9594   1.405   4.661  11.212 -0.1656  0.2443 -0.2667
 5851W        W 9595   7.145   6.742   0.427  0.0832 -0.2520 -0.1081
 5852W        W 9596   2.134   3.087   3.501  0.0276 -0.1388 -0.3615
 5853W        W 9597   3.974   2.672   1.758  0.5513 -0.1579  0.2348
 5854W        W 9598   5.248   0.287   4.499 -0.0732 -0.1281  0.1450
 5855W        W 9599   8.440   1.983   3.437  0.1241  0.0263 -0.0248
 5856W        W 9600   1.709   6.463   2.639  0.0608 -0.0828 -0.0023
 5857W        W 9601   2.737   8.188  12.371 -0.1479  0.1659 -0.0379
 5858W        W 9602   2.864   4.789   1.169 -0.3216  0.1835  0.2218
 5859W        W 9603   2.471   5.188  11.724  0.2237 -0.1041 -0.1884
 5860W        W 9604   7.576   5.117  11.349  0.0396 -0.2931 -0.1699
 5861W        W 9605   7.868   7.243   4.095 -0.3117 -0.2150 -0.1734
 5862W        W 9606   7.795   7.601  10.257  0.2527  0.1259  0.1667
 5863W        W 9607   8.613   3.755  10.034  0.4067  0.0194 -0.0605
 5864W        W 9608   2.037   2.189   3.005  0.0168 -0.3931 -0.0403
 5865W        W 9609   1.934   5.016   1.791  0.1086  0.2145  0.1480
 5866W        W 9610   3.364   4.878  11.777 -0.1108  0.0924  0.3676
 5867W        W 9611   9.163   0.989   0.312  0.3681  0.0176 -0.0655
 5868W        W 9612   7.390   8.803   0.982  0.2274 -0.0373 -0.1671
 5869W        W 9613   3.691   5.538  11.131  0.1512  0.0734 -0.3379
 5870W        W 9614   5.552   7.736  10.132 -0.3464 -0.0371  0.1181
 5871W        W 9615   7.123   2.962   0.385 -0.0365 -0.1719  0.4382
 5872W        W 9616   7.028   5.807   0.166 -0.1705 -0.0906 -0.0918
 5873W        W 9617   0.959   9.894  11.375  0.2796 -0.1446  0.0480
 5874W        W 9618   6.618   2.041  10.928 -0.0251  0.2348  0.2478
 5875W        W 9619   4.090   6.393   3.135  0.0309 -0.1149  0.0790
 5876W        W 9620   1.139   2.849  12.686 -0.1471  0.1011 -0.3386
 5877W        W 9621   7.588   3.240   1.369  0.2628 -0.2753  0.0198
 5878W        W 9622   0.439   2.957   0.290 -0.0488  0.0694 -0.0526
 5879W        W 9623   4.292   2.200  11.301  0.2091 -0.2590 -0.1345
 5880W        W 9624   6.445   6.724   4.510  0.5968 -0.1836  0.3736
 5881W        W 9625   6.538   0.083   2.620 -0.4266  0.4127  0.0752
 5882W        W 9626   5.166   0.937  12.357  0.2182  0.0148  0.0782
 5883W        W 9627   6.564   8.139  12.444  0.0801 -0.2944 -0.0544
 5884W        W 9628   7.484   3.639   9.234 -0.1597  0.0240  0.0491
 5885W        W 9629   6.086   7.022   4.228  0.1384  0.2694 -0.1600
 5886W        W 9630   5.257   4.014   2.621  0.0216  0.0963 -0.1518
 5887W        W 9631   4.063   6.444  10.591  0.0254  0.2011  0.2602
 5888W        W 9632   5.846   6.451  11.300  0.1471  0.0448  0.0867
 5889W        W 9633   0.502   8.568   9.143 -0.2145  0.0104 -0.0721
 5890W        W 9634   3.595   5.629  10.242 -0.3383  0.3187 -0.3261
 5891W        W 9635   6.408   1.316   0.045 -0.1266  0.2241 -0.0514
 5892W        W 9636   0.904   9.612   1.674  0.0328  0.1197  0.0499
 5893W        W 9637   1.410   1.722   1.134 -0.0527  0.0857  0.1258
 5894W        W 9638   7.213   4.476  12.581 -0.1430  0.0938  0.1891
 5895W        W 9639   2.532   3.075   1.029 -0.0373 -0.1109 -0.0570
 5896W        W 9640   8.001   4.907  11.358 -0.2190 -0.0824  0.2139
 5897W        W 9641   4.212   7.264   0.375  0.2126  0.1478  0.0752
 5898W        W 9642   6.665   6.047   9.473  0.0682 -0.5349 -0.0501
 5899W        W 9643   2.592   7.132   9.545  0.3169  0.0345  0.2996
 5900W        W 9644   9.019   9.441   2.677 -0.3109 -0.1354 -0.0300
 5901W        W 9645   3.580   1.711   2.257 -0.1590  0.3721  0.2978
 5902W        W 9646   2.728   1.444   1.908 -0.0335  0.0041 -0.1307
 5903W        W 9647   4.761   3.583  12.326  0.1116 -0.1211  0.2470
 5904W        W 9648   1.386   1.254   1.391 -0.3089  0.0065  0.0494
 5905W        W 9649   7.097   5.855   1.934 -0.2111 -0.1658 -0.1183
 5906W        W 9650   9.606   0.073   4.281  0.0479  0.0616 -0.1623
 5907W        W 9651   7.383   0.624  10.726  0.1269  0.1634 -0.1680
 5908W        W 9652   5.340   1.015   2.728 -0.0228 -0.0459  0.0687
 5909W        W 9653   6.444   5.424  12.103 -0.0410  0.0366 -0.3044
 5910W        W 9654   3.625   7.222  10.352  0.1037  0.0880  0.1657
 5911W        W 9655   9.498   4.706  10.257 -0.0813 -0.6694  0.1282
 5912W        W 9656   2.239   1.549  11.098 -0.1969 -0.0927  0.1228
 5913W        W 9657   9.105   9.026  11.495  0.0708 -0.0500 -0.0792
 5914W        W 9658   7.051   4.321   0.264  0.1731 -0.1513  0.1624
 5915W        W 9659   1.837   1.764   0.205  0.2195  0.3257  0.0489
 5916W        W 9660   7.482   6.882   9.088 -0.2851 -0.1069 -0.0286
 5917W        W 9661   5.092   8.233   1.679 -0.1351  0.3663  0.0767
 5918W        W 9662   6.752   1.674   9.619 -0.3221 -0.1937 -0.0968
 5919W        W 9663   6.032   8.008   1.809 -0.1430 -0.2549  0.3634
 5920W        W 9664   1.685   5.632   8.677  0.1210 -0.2169 -0.1093
 5921W        W 9665   8.943   1.027  10.971  0.0330  0.1438  0.1370
 5922W        W 9666   5.307   2.750  10.554 -0.0909  0.0616  0.0344
 5923W        W 9667   4.677   7.461  10.624  0.0303  0.1592 -0.1315
 5924W        W 9668   3.780   2.970  11.041  0.0644 -0.0334 -0.0739
 5925W        W 9669   8.399   9.260   3.864 -0.1812  0.0699 -0.1801
 5926W        W 9670   1.403   7.306   2.646  0.1833  0.1919  0.1827
 5927W        W 9671   4.286   0.484   3.048 -0.0953 -0.2289  0.1907
 5928W        W 9672   3.081   5.201   9.530  0.0294 -0.0469 -0.0869
 5929W        W 9673   5.415   5.735   1.901  0.2329 -0.0956  0.3875
 5930W        W 9674   1.608   0.977  11.602  0.2302 -0.2200  0.0910
 5931W        W 9675   7.427   9.220  11.143 -0.0362  0.0856 -0.2454
 5932W        W 9676   6.647   5.709   0.514  0.1544 -0.2310  0.1156
 5933W        W 9677   8.020   9.232  10.436 -0.0428  0.0879 -0.3089
 5934W        W 9678   0.415   2.984   2.692  0.2413  0.0731 -0.0566
 5935W        W 9679   2.594   0.189   0.698 -0.0968  0.1651 -0.1525
 5936W        W 9680   0.817   2.155  12.241  0.0885  0.1048 -0.1118
 5937W        W 9681   0.159   9.476   1.734  0.3695 -0.1270 -0.0946
 5938W        W 9682   3.804   8.095  11.964 -0.2860 -0.2467  0.0246
 5939W        W 9683   6.685   2.663   0.074  0.0326 -0.2622  0.0109
 5940W        W 9684   6.420   5.551   4.086  0.3044  0.2619 -0.3566
 5941W        W 9685   9.887   6.054   2.397  0.0746  0.1746 -0.4707
 5942W        W 9686   2.541   7.836   9.441  0.0207  0.0796  0.1721
 5943W        W 9687   8.267   9.701   9.606  0.0331 -0.0845 -0.3433
 5944W        W 9688   1.655   3.289   2.170 -0.1802 -0.3312  0.2014
 5945W        W 9689   8.983   7.404   1.972 -0.0892 -0.4188 -0.4864
 5946W        W 9690   7.308   5.598   2.748 -0.1219  0.2259 -0.1833
 5947W        W 9691   5.940   5.533   3.793 -0.1083 -0.1850 -0.1192
 5948W        W 9692   3.640   3.051  10.056  0.1045 -0.3175  0.0320
 5949W        W 9693   9.232   0.851   3.314  0.1125 -0.0608  0.0223
 5950W        W 9694   5.407   7.194   0.674  0.1769  0.0623 -0.0616
 5951W        W 9695   1.009   4.855  12.121 -0.1768  0.0374 -0.0552
 5952W        W 9696   6.070   2.378  10.339 -0.1162 -0.2085 -0.2739
 5953W        W 9697   9.232   6.519  11.023  0.0837 -0.0369 -0.0960
 5954W        W 9698   5.045   4.830   3.291  0.1028  0.1565  0.2014
 5955W        W 9699   7.891   5.119  10.251  0.2010 -0.0198  0.0112
 5956W        W 9700   6.050   1.001   1.426  0.1114 -0.0543 -0.0126
 5957W        W 9701   5.574   4.049  11.039 -0.0478 -0.0481  0.0066
 5958W        W 9702   5.459   2.694   8.149  0.0523  0.3602  0.1833
 5959W        W 9703   9.727   4.051  11.223 -0.0324  0.3202 -0.3459
 5960W        W 9704   5.043   4.171  10.861  0.2489  0.0370 -0.2143
 5961W        W 9705   9.339   5.726  10.838 -0.3659 -0.0356  0.1712
 5962W        W 9706   1.135   5.306   1.187  0.0736 -0.1074 -0.3247
 5963W        W 9707   6.934   2.942   4.701 -0.2145 -0.0823  0.0613
 5964W        W 9708   7.789   8.276   2.461 -0.1917 -0.0630 -0.2456
 5965W        W 9709   8.774   7.037  11.288 -0.3895 -0.0095 -0.1012
 5966W        W 9710   4.346   7.378  10.985  0.3207  0.3569  0.1143
 5967W        W 9711   3.344   6.854   1.145 -0.2915  0.6023  0.0537
 5968W        W 9712   0.128   9.050  11.300  0.2395  0.0194 -0.3131
 5969W        W 9713   1.010   3.711   1.997 -0.2174 -0.0658  0.2169
 5970W        W 9714   6.942   5.042   4.674 -0.1091 -0.3074  0.1844
 5971W        W 9715   2.381   5.566   1.506  0.4058  0.1268  0.1659
 5972W        W 9716   5.975   5.433  11.400 -0.0328  0.1009  0.3812
 5973W        W 9717   5.047   0.316   1.626 -0.1886 -0.3077 -0.2849
 5974W        W 9718   1.382   2.409   2.423  0.0024 -0.0270 -0.0345
 5975W        W 9719   9.083   2.298   3.980 -0.2963  0.1399  0.0237
 5976W        W 9720   1.264   1.236   3.195 -0.3658 -0.1501 -0.2175
 5977W        W 9721   7.189   1.385   9.468 -0.0848  0.1840 -0.1885
 5978W        W 9722   9.594   0.104  12.650 -0.1232 -0.1078 -0.0327
 5979W        W 9723   1.008   7.052   2.397  0.0401  0.0435  0.1771
 5980W        W 9724   2.997   8.806  11.279  0.2960  0.0597  0.0262
 5981W        W 9725   5.494   5.248  10.011  0.0249  0.2125 -0.0542
 5982W        W 9726   0.757   4.461  10.426 -0.2593  0.1018 -0.0266
 5983W        W 9727   4.793   1.354   3.272 -0.4510 -0.1067  0.2195
 5984W        W 9728   5.104   6.520   4.255 -0.0157  0.1387 -0.0602
 5985W        W 9729   3.726   8.783   0.549 -0.1394  0.3101 -0.0035
 5986W        W 9730   1.495   9.498   2.267  0.0517  0.0224 -0.1568
 5987W        W 9731   2.440   8.656  12.585  0.0525 -0.1953 -0.2027
 5988W        W 9732   0.701   9.458  11.707 -0.0184 -0.0893  0.3311
 5989W        W 9733   8.139   1.611   8.968  0.3298  0.0083  0.0488
 5990W        W 9734   9.524   6.046   9.321 -0.0360  0.4068 -0.4218
 5991W        W 9735   0.206   3.431  10.667 -0.2053 -0.0733 -0.2549
 5992W        W 9736   2.241   1.736   3.037  0.0308  0.2128  0.2819
 5993W        W 9737   8.245   8.887   3.080  0.3722 -0.3113  0.0127
 5994W        W 9738   1.192   6.026   0.458  0.2043  0.2871 -0.2833
 5995W        W 9739   5.211   4.527   1.154  0.1127 -0.0033 -0.0997
 5996W        W 9740   1.073   5.650   9.948  0.1841 -0.1203  0.1038
 5997W        W 9741   5.450   8.985  11.619 -0.2884 -0.0229 -0.0322
 5998W        W 9742   6.496   9.938   4.821  0.1564 -0.1920  0.0655
 5999W        W 9743   7.858   3.232   0.802  0.0614  0.2697  0.1032
 6000W        W 9744   1.346   3.880  10.163  0.2489  0.2531  0.3304
 6001W        W 9745   5.322   8.039   4.029 -0.1081  0.1880 -0.0592
 6002W        W 9746   8.568   2.801   1.046 -0.0962 -0.0992 -0.2055
 6003W        W 9747   5.520   8.630   3.627 -0.2377 -0.1961  0.2543
 6004W        W 9748   9.557   6.096   4.801  0.2465  0.0448 -0.2132
 6005W        W 9749   4.592   8.633  10.380  0.0187 -0.0611 -0.4590
 6006W        W 9750   9.517   5.005  11.405  0.1508 -0.1401  0.1173
 6007W        W 9751   2.904   9.602   3.128  0.1460 -0.3001  0.0654
 6008W        W 9752   7.929   0.402  12.849  0.0440  0.1735  0.2324
 6009W        W 9753   9.906   6.580   1.655 -0.2425  0.4014  0.2029
 6010W        W 9754   1.743   9.226   8.786 -0.1951 -0.0564 -0.2371
 6011W        W 9755   2.223   6.493   2.306 -0.0723 -0.0782  0.0301
 6012W        W 9756   7.392   6.430   3.148 -0.2745  0.0560 -0.0484
 6013W        W 9757   5.407   4.073   1.194  0.1034  0.0904  0.0280
 6014W        W 9758   1.891   6.253   1.958  0.0156  0.0239 -0.0558
 6015W        W 9759   8.566   4.609   9.977 -0.1926 -0.0058  0.3108
 6016W        W 9760   7.705   6.027   0.184 -0.4683 -0.1791  0.0381
 6017W        W 9761   6.640   1.211   1.383  0.0177 -0.0571  0.0003
 6018W        W 9762   6.738   8.500  11.192 -0.2139 -0.1347 -0.3908
 6019W        W 9763   3.910   6.289  11.781  0.3313  0.2418 -0.0691
 6020W        W 9764   3.545   2.572   3.954  0.3512 -0.1586  0.1556
 6021W        W 9765   1.828   2.137  10.802  0.2460 -0.1255  0.1889
 6022W        W 9766   0.677   2.624  10.619 -0.1100 -0.0472  0.1671
 6023W        W 9767   7.691   9.628  11.148 -0.1004 -0.1349 -0.3116
 6024W        W 9768   7.748   1.111   4.647 -0.5158 -0.2150 -0.0709
 6025W        W 9769   8.696   7.032  12.475 -0.0040  0.1733 -0.2238
 6026W        W 9770   1.511   9.644  11.530  0.0423  0.2297  0.1915
 6027W        W 9771   3.201   7.510   0.283  0.0223  0.0487  0.2999
 6028W        W 9772   4.165   7.182   2.572 -0.0575 -0.2693 -0.0350
 6029W        W 9773   7.708   0.185  10.417  0.1149  0.2049  0.1065
 6030W        W 9774   0.942   9.623  10.247 -0.3005 -0.0428  0.1133
 6031W        W 9775   5.767   2.895   8.893  0.2260  0.1686 -0.2017
 6032W        W 9776   3.276   8.238   0.093  0.0704 -0.0100 -0.0540
 6033W        W 9777   7.887   1.932   2.035 -0.1647  0.1692  0.3104
 6034W        W 9778   6.703   7.643  11.227 -0.1206  0.0496  0.0012
 6035W        W 9779   5.676   1.652  11.324  0.0005  0.2280 -0.0703
 6036W        W 9780   1.528   7.112   1.753  0.0105 -0.1102 -0.0213
 6037W        W 9781   2.071   3.479  10.450 -0.0066 -0.2704  0.0033
 6038W        W 9782   2.006   9.787  11.316  0.4462  0.0389 -0.1442
 6039W        W 9783   8.102   0.210   3.958  0.1576  0.2609 -0.1233
 6040W        W 9784   9.198   2.044  11.940  0.0567  0.2090 -0.0040
 6041W        W 9785   2.126   5.663  11.830 -0.2863 -0.3655 -0.4274
 6042W        W 9786   2.918   8.702   2.884  0.2997  0.2982  0.0991
 6043W        W 9787   4.260   6.558   0.906  0.0181  0.3883  0.0010
 6044W        W 9788   4.323   3.772   8.219 -0.1117 -0.1357 -0.2153
 6045W        W 9789   9.759   7.323  11.593  0.1458  0.0252 -0.0314
 6046W        W 9790   8.491   8.221   8.393 -0.2606 -0.1855 -0.1030
 6047W        W 9791   8.532   9.306   9.812 -0.1332  0.3186 -0.0280
 6048W        W 9792   2.732   0.212  10.897  0.0588  0.1641  0.0463
 6049W        W 9793   2.848   6.726   8.685 -0.0175 -0.0267  0.1364
 6050W        W 9794   7.268   0.167  12.350 -0.1285  0.1043 -0.1640
 6051W        W 9795   1.226   4.151   1.966  0.0759  0.0287 -0.0558
 6052W        W 9796   1.542   9.632   0.086  0.1923 -0.1414  0.3232
 6053W        W 9797   2.699   0.669  10.633  0.0784 -0.0125 -0.1010
 6054W        W 9798   3.482   6.222   2.392 -0.1729  0.1370  0.2207
 6055W        W 9799   3.384   4.817   4.089  0.1520  0.0040  0.1307
 6056W        W 9800   3.773   8.823   1.843 -0.0422 -0.0136 -0.0611
 6057W        W 9801   7.072   4.155  12.197 -0.3285  0.3367  0.0648
 6058W        W 9802   5.837   9.323  10.825  0.0663 -0.0870 -0.2094
 6059W        W 9803   5.805   5.892   9.188 -0.0877  0.0206  0.1163
 6060W        W 9804   9.345   9.841   9.846  0.1401  0.0905  0.1044
 6061W        W 9805   6.552   3.261  11.786  0.0801  0.0503 -0.2590
 6062W        W 9806   7.476   3.107   0.007  0.3231  0.1353 -0.0409
 6063W        W 9807   2.635   6.427   9.963  0.1734 -0.0302 -0.3692
 6064W        W 9808   1.784   7.511   8.975  0.2479  0.3477 -0.2049
 6065W        W 9809   7.505   4.233   9.652 -0.1570  0.1259  0.0665
 6066W        W 9810   4.025   3.456  10.284 -0.0047 -0.0044  0.2276
 6067W        W 9811   6.472   8.468   8.371 -0.3782  0.1545  0.4541
 6068W        W 9812   6.989   7.622  12.459  0.3100  0.0516  0.2840
 6069W        W 9813   4.773   9.664   0.867  0.0724 -0.0660 -0.1230
 6070W        W 9814   4.302   0.036   3.303  0.1179 -0.0604 -0.3400
 6071W        W 9815   6.561   9.427   8.613  0.2085  0.0726  0.0389
 6072W        W 9816   3.654   1.643   0.525  0.1490 -0.0506 -0.0594
 6073W        W 9817   3.098   9.292  11.524  0.2869  0.0949 -0.0590
 6074W        W 9818   8.534   9.852   2.656 -0.2241 -0.0305 -0.0146
 6075W        W 9819   0.378   6.284   2.561 -0.0933  0.2233 -0.0949
 6076W        W 9820   1.701   6.140   9.563  0.2321  0.3059 -0.0858
 6077W        W 9821   7.366   0.441  10.095  0.1384  0.1325 -0.4519
 6078W        W 9822   5.921   2.117  11.407  0.0462 -0.2240  0.2402
 6079W        W 9823   0.992   8.705   0.437 -0.2444 -0.1532  0.0935
 6080W        W 9824   9.191   1.896  10.985 -0.2419  0.0566 -0.0121
 6081W        W 9825   0.296   1.288   2.831 -0.0599 -0.0475  0.1572
 6082W        W 9826   3.045   3.028   1.981  0.0937 -0.2550  0.2285
 6083W        W 9827   3.535   5.544   9.296  0.0842 -0.0863  0.0962
 6084W        W 9828   3.347   4.725  10.420 -0.0195 -0.1093 -0.0576
 6085W        W 9829   7.653   3.378  12.353  0.0331  0.1675  0.3737
 6086W        W 9830   0.279   0.407   1.771  0.0300 -0.0641  0.1236
 6087W        W 9831   9.933   6.059   1.287  0.2941  0.2352 -0.0003
 6088W        W 9832   6.904   5.663  11.907  0.1676 -0.0097 -0.2493
 6089W        W 9833   6.326   6.165   1.700 -0.2227  0.1373 -0.1645
 6090W        W 9834   7.813   6.347   9.662 -0.2196  0.1683 -0.1350
 6091W        W 9835   3.232   8.469   8.600 -0.0770 -0.3934 -0.0531
 6092W        W 9836   1.175   1.846   3.013  0.1194  0.2006  0.1896
 6093W        W 9837   7.133   1.888   9.251  0.1432  0.2769  0.1298
 6094W        W 9838   0.199   3.865   4.681  0.0139  0.3585 -0.1740
 6095W        W 9839   1.662   9.796   1.059  0.4105 -0.1388  0.5680
 6096W        W 9840   4.229   7.040   1.244  0.1529  0.0766 -0.1822
 6097W        W 9841   3.817   0.660  11.000  0.0604 -0.3812  0.1043
 6098W        W 9842   8.834   2.325   0.831  0.1783 -0.0388  0.0255
 6099W        W 9843   8.765   2.417   3.630  0.0110  0.1592  0.2334
 6100W        W 9844   1.236   5.757   1.303 -0.2208 -0.0496  0.1181
 6101W        W 9845   2.749   5.074   3.136  0.1393 -0.0987 -0.1429
 6102W        W 9846   6.199   9.000   0.842 -0.0378 -0.2131 -0.0725
 6103W        W 9847   2.852   7.356   4.330  0.2805 -0.1789  0.1429
 6104W        W 9848   2.637   7.115  12.300 -0.2679 -0.0973 -0.1286
 6105W        W 9849   9.461   9.409   0.520  0.0575 -0.0904  0.1158
 6106W        W 9850   5.329   2.000  11.258  0.1100 -0.0872  0.1817
 6107W        W 9851   5.800   4.016   8.751 -0.0923 -0.0780  0.0806
 6108W        W 9852   8.148   4.689  10.198 -0.1467 -0.0500 -0.6139
 6109W        W 9853   1.008   7.405  11.272 -0.0946  0.1376  0.4083
 6110W        W 9854   4.075   5.195   9.630 -0.0339  0.0125  0.1511
 6111W        W 9855   0.218   8.265   4.040 -0.2312 -0.0988  0.1037
 6112W        W 9856   4.093   8.863  10.083 -0.2943 -0.0838  0.0999
 6113W        W 9857   9.413   3.635   2.489 -0.0497  0.0096 -0.0377
 6114W        W 9858   8.917   2.765   2.432  0.2007  0.1970 -0.1092
 6115W        W 9859   9.518   4.279   0.547  0.0164 -0.1498  0.1585
 6116W        W 9860   9.497   3.583  12.312 -0.1723 -0.2229  0.1267
 6117W        W 9861   0.983   4.486  12.478 -0.3530  0.1576  0.0795
 6118W        W 9862   2.111   3.622   2.879 -0.1197  0.1060  0.2103
 6119W        W 9863   6.848   7.577   0.159  0.1330  0.2530 -0.3211
 6120W        W 9864   1.210   5.543  12.824  0.3029  0.0624  0.0113
 6121W        W 9865   3.423   3.884   2.426  0.1386  0.1854  0.2189
 6122W        W 9866   9.324   7.962  11.920  0.1247  0.2940  0.0131
 6123W        W 9867   8.093   4.401  11.040  0.1689  0.2305  0.1807
 6124W        W 9868   5.530   5.785   4.243  0.5174 -0.2755  0.0361
 6125W        W 9869   7.007   8.025  11.547 -0.3300 -0.3848 -0.1739
 6126W        W 9870   0.521   0.903   1.704  0.0271 -0.0442  0.2323
 6127W        W 9871   2.004   3.964  10.756  0.0579  0.1639 -0.1503
 6128W        W 9872   9.903   0.040   1.650 -0.0910  0.1988 -0.4078
 6129W        W 9873   9.883   4.436  10.026  0.0228 -0.1057 -0.2081
 6130W        W 9874   5.624   3.898   1.702  0.0641  0.0596  0.3469
 6131W        W 9875   6.584   2.579   0.953 -0.2089 -0.2114 -0.2127
 6132W        W 9876   0.866   0.867  12.133  0.2627 -0.2026 -0.4221
 6133W        W 9877   0.953   5.780   3.805  0.2435  0.2784  0.0858
 6134W        W 9878   4.365   5.877   9.268  0.0833  0.2220 -0.0123
 6135W        W 9879   1.333   5.594  11.205 -0.2418 -0.2050 -0.0426
 6136W        W 9880   6.273   7.807   2.256  0.1811 -0.0133  0.1087
 6137W        W 9881   2.824   8.712  10.306  0.2381  0.2419  0.0818
 6138W        W 9882   4.923   1.739   3.545  0.1060 -0.0342 -0.1012
 6139W        W 9883   1.735   7.513  11.619  0.1575  0.1787 -0.1089
 6140W        W 9884   0.304   4.679   3.603 -0.0533 -0.2519 -0.0306
 6141W        W 9885   0.857   6.674  10.400 -0.1258  0.2395  0.3302
 6142W        W 9886   9.938   6.257  10.621 -0.1343 -0.0678  0.2311
 6143W        W 9887   6.237   4.578  10.185  0.0071  0.1437 -0.1854
 6144W        W 9888   6.960   4.433   1.629  0.3047 -0.3235  0.1191
 6145W        W 9889   6.218   5.724   9.496 -0.1369 -0.1781  0.3591
 6146W        W 9890   7.359   3.371   0.504 -0.2215  0.1185 -0.1059
 6147W        W 9891   6.444   0.576  12.111 -0.3811 -0.0739 -0.0493
 6148W        W 9892   4.815   0.593   9.510 -0.1369  0.0389 -0.2193
 6149W        W 9893   4.155   9.158   9.718 -0.0389  0.3629  0.2763
 6150W        W 9894   9.123   4.386   3.713  0.0798  0.2217 -0.0622
 6151W        W 9895   1.032   0.650   1.299 -0.3822 -0.1443 -0.0206
 6152W        W 9896   4.757   2.928  11.016  0.2886  0.2675 -0.1028
 6153W        W 9897   9.813   3.510   2.747  0.2029  0.1676  0.0579
 6154W        W 9898   1.513   5.121   2.045 -0.1215  0.0644 -0.0590
 6155W        W 9899   3.927   5.781   0.611 -0.1724 -0.1772 -0.0892
 6156W        W 9900   9.753   5.651   4.333 -0.2407 -0.2852 -0.0684
 6157W        W 9901   3.091   0.158  11.792  0.1819 -0.0844  0.2348
 6158W        W 9902   0.172   6.088  10.099 -0.0344  0.0766 -0.0692
 6159W        W 9903   0.942   8.347  10.885 -0.2465  0.2093 -0.1351
 6160W        W 9904   3.966   8.657   9.641  0.3823 -0.0627  0.1447
 6161W        W 9905   1.803   3.104  10.763  0.0996  0.1318  0.1006
 6162W        W 9906   3.007   8.387  10.963 -0.2672  0.4533  0.0495
 6163W        W 9907   4.321   1.819   1.215 -0.0488  0.2246 -0.0842
 6164W        W 9908   4.927   2.949   0.254 -0.2093 -0.1803  0.2493
 6165W        W 9909   5.032   4.343   9.398 -0.1441 -0.1096 -0.0466
 6166W        W 9910   2.589   8.382  10.561 -0.3230  0.1573  0.1496
 6167W        W 9911   0.662   9.781   0.782 -0.2088 -0.2174  0.2241
 6168W        W 9912   9.668   8.092   9.076  0.2917  0.1263 -0.1216
 6169W        W 9913   6.593   2.633  11.195  0.3856  0.1044 -0.0239
 6170W        W 9914   9.194   7.742   9.525 -0.1461 -0.1688  0.1934
 6171W        W 9915   1.845   6.064   8.873  0.3289 -0.0809  0.0484
 6172W        W 9916   2.905   2.328   2.625  0.0329  0.2498  0.0811
 6173W        W 9917   8.825   1.105   3.378  0.0134 -0.2096 -0.1155
 6174W        W 9918   6.073   6.175   1.219 -0.0548  0.1814 -0.2905
 6175W        W 9919   7.755   7.678  11.951  0.1879  0.1309 -0.2636
 6176W        W 9920   8.035   3.902   2.123  0.0127 -0.2255  0.2535
 6177W        W 9921   3.968   4.428   3.347 -0.2529 -0.2664  0.1012
 6178W        W 9922   0.557   5.066  11.581 -0.0481  0.3576  0.1779
 6179W        W 9923   1.982   6.889   1.978 -0.0165 -0.3086  0.3391
 6180W        W 9924   0.214   8.852   2.879 -0.1168  0.1262  0.2883
 6181W        W 9925   0.244   4.229   1.740 -0.0058 -0.0418  0.0093
 6182W        W 9926   2.566   2.916  12.570 -0.2520 -0.0087 -0.3712
 6183W        W 9927   3.760   9.315  12.541  0.0633  0.0289  0.0842
 6184W        W 9928   5.696   6.786   8.973 -0.0458 -0.1618 -0.3055
 6185W        W 9929   8.384   1.794  10.150  0.1108 -0.0497  0.0399
 6186W        W 9930   5.481   7.671   2.587 -0.1166  0.0963 -0.0320
 6187W        W 9931   8.570   7.614   3.027 -0.3860 -0.3445  0.1702
 6188W        W 9932   3.914   7.570   3.098 -0.1822  0.2135  0.0198
 6189W        W 9933   0.378   6.323   1.758  0.2494  0.0619 -0.1276
 6190W        W 9934   9.374   4.121   1.382 -0.3166 -0.4443 -0.2193
 6191W        W 9935   0.629   8.372  11.521 -0.1254  0.1272 -0.0810
 6192W        W 9936   3.134   8.461   3.255  0.0376 -0.2657 -0.0345
 6193W        W 9937   5.818   5.660  10.274 -0.4134  0.1608 -0.0613
 6194W        W 9938   5.042   6.782   3.442  0.0009  0.0906  0.0686
 6195W        W 9939   9.531   3.974   0.066  0.2754 -0.0332 -0.2914
 6196W        W 9940   8.713   2.851   9.637 -0.0519  0.0091 -0.3593
 6197W        W 9941   7.435   9.207   2.240 -0.0086  0.0855 -0.0610
 6198W        W 9942   6.113   9.889   0.215  0.3659  0.0362 -0.0427
 6199W        W 9943   8.383   5.459   9.425  0.2930 -0.0116  0.1786
 6200W        W 9944   8.977   0.202   9.587 -0.1215 -0.2244  0.0722
 6201W        W 9945   0.191   5.875   4.136  0.1570  0.0238 -0.0524
 6202W        W 9946   9.272   8.704  11.875  0.0118 -0.1372 -0.0812
 6203W        W 9947   5.567   0.668   1.187 -0.1401 -0.2111  0.1067
 6204W        W 9948   0.870   7.915  11.395  0.1484  0.2008 -0.1982
 6205W        W 9949   6.622   6.609   1.839  0.0797 -0.1748 -0.0010
 6206W        W 9950   3.964   0.844   1.957  0.2469  0.4615 -0.2756
 6207W        W 9951   0.040   0.323   9.481 -0.0099 -0.4782  0.1175
 6208W        W 9952   1.864   6.996   2.658  0.0237 -0.2634  0.2691
 6209W        W 9953   5.271   7.195   4.101 -0.4954  0.2458  0.0747
 6210W        W 9954   0.320   0.273   2.509  0.0518  0.5523 -0.2296
 6211W        W 9955   4.014   3.782   9.586 -0.0857  0.2040  0.2574
 6212W        W 9956   6.837   2.457  10.142 -0.0980 -0.0273 -0.3268
 6213W        W 9957   8.727   2.069  10.666  0.1587 -0.1056  0.3844
 6214W        W 9958   1.594   0.176  12.237  0.1518 -0.1334  0.0041
 6215W        W 9959   8.313   4.175   1.153 -0.0797 -0.0206 -0.0617
 6216W        W 9960   4.587   3.738   8.638  0.1775  0.0786 -0.1373
 6217W        W 9961   2.396   0.439  10.254  0.1305  0.0084 -0.0765
 6218W        W 9962   3.074   2.976   9.585  0.0382  0.0154  0.0102
 6219W        W 9963   4.240   9.509  12.045 -0.0846 -0.2326  0.0480
 6220W        W 9964   2.650   4.074   0.414  0.0083  0.0240 -0.1835
 6221W        W 9965   2.087   5.484   8.207  0.0238 -0.2949 -0.0318
 6222W        W 9966   7.206   6.911  10.781  0.0880  0.0362  0.0051
 6223W        W 9967   9.459   0.282   9.573  0.2374  0.1816  0.2728
 6224W        W 9968   0.904   7.829  10.360  0.0039 -0.0403 -0.0254
 6225W        W 9969   0.466   3.474  12.716  0.0076 -0.0480 -0.1026
 6226W        W 9970   8.459   0.963   3.628  0.3145 -0.1975 -0.0772
 6227W        W 9971   7.337   5.353   9.663 -0.2977  0.0991 -0.1682
 6228W        W 9972   1.183   9.167   0.793 -0.1881  0.0908  0.1479
 6229W        W 9973   5.134   3.115   9.450 -0.2583  0.0947  0.0389
 6230W        W 9974   1.638   2.756  12.563  0.0483 -0.0212  0.0796
 6231W        W 9975   3.070   1.002   1.329  0.4006 -0.0847 -0.0898
 6232W        W 9976   3.671   6.442   4.152  0.2685 -0.1031 -0.0690
 6233W        W 9977   0.713   4.608   1.055 -0.1490  0.3370 -0.3962
 6234W        W 9978   4.785   6.291  12.547  0.0155 -0.0566 -0.2340
 6235W        W 9979   9.302   4.219  10.213 -0.1701 -0.0975 -0.0186
 6236W        W 9980   4.908   8.740   1.244 -0.0594  0.1924  0.1342
 6237W        W 9981   0.765   6.418  10.815 -0.1649  0.0694  0.0198
 6238W        W 9982   7.806   8.183  12.151 -0.2472 -0.0678 -0.0436
 6239W        W 9983   1.341   8.192   3.946 -0.1197  0.3129  0.1541
 6240W        W 9984   7.870   8.711   2.300  0.4131 -0.2371 -0.0716
 6241W        W 9985   1.862   1.796   1.023 -0.5111  0.4106  0.1703
 6242W        W 9986   1.391   2.483  11.021  0.0927  0.0303  0.0442
 6243W        W 9987   5.717   2.773   1.128 -0.3675  0.2771 -0.0011
 6244W        W 9988   6.792   0.351  12.446  0.2081 -0.4015  0.0750
 6245W        W 9989   5.269   3.865   0.361 -0.0023  0.0393  0.1681
 6246W        W 9990   1.293   9.248   1.440 -0.1119  0.0757  0.0669
 6247W        W 9991   1.829   5.613   0.721  0.0941  0.2618 -0.4100
 6248W        W 9992   3.749   4.094  12.560  0.1322 -0.0864 -0.2557
 6249W        W 9993   3.299   6.295  10.648 -0.0189 -0.0340  0.1869
 6250W        W 9994   3.775   4.953   1.239  0.0765  0.2179  0.0247
 6251W        W 9995   4.299   4.469   3.843  0.0509 -0.1580  0.2507
 6252W        W 9996   6.412   9.125  11.922 -0.0205 -0.0161 -0.3853
 6253W        W 9997   4.951   5.718   3.111  0.1343 -0.3610 -0.2358
 6254W        W 9998   9.257   7.706  12.405  0.0259  0.3847  0.5288
 6255W        W 9999   3.855   0.977   9.462  0.2880  0.0617 -0.3290
 6256W        W10000   9.268   8.802   2.680  0.0778  0.0502  0.0364
 6257W        W10001   6.345   3.705  11.888 -0.2376 -0.0735  0.3492
 6258W        W10002   2.291   7.273   0.042 -0.0719 -0.1578 -0.2140
 6259W        W10003   2.916   0.442   9.296  0.1940 -0.0672  0.1500
 6260W        W10004   2.864   4.213   1.841 -0.2389  0.2458 -0.3277
 6261W        W10005   4.614   7.227  12.242  0.0523  0.0063  0.1946
 6262W        W10006   9.632   2.159  10.795 -0.5518 -0.0666 -0.1300
 6263W        W10007   2.350   5.241   2.860 -0.1134 -0.0948 -0.1089
 6264W        W10008   9.473   7.290   0.533 -0.1000 -0.0837 -0.1423
 6265W        W10009   0.964   9.748   2.209  0.1224 -0.1159  0.0212
 6266W        W10010   0.245   2.906  10.552 -0.0147 -0.1463 -0.0665
 6267W        W10011   3.172   3.283   9.950 -0.1387 -0.0723 -0.0390
 6268W        W10012   0.781   8.336   3.985  0.1432  0.1092  0.0162
 6269W        W10013   1.794   8.570   1.048 -0.0999 -0.2428  0.1607
 6270W        W10014   3.132   9.284   3.512 -0.0582  0.2299 -0.2955
 6271W        W10015   3.500   0.132   3.065 -0.2416  0.1215  0.3573
 6272W        W10016   2.970   2.025   0.004  0.0563 -0.1136 -0.1840
 6273W        W10017   1.337   4.644   4.286  0.1180  0.1064  0.3062
 6274W        W10018   9.888   5.750  10.522  0.0210  0.1313 -0.1790
 6275W        W10019   6.324   8.770  10.987  0.1445  0.0167 -0.1108
 6276W        W10020   5.389   1.505   0.327  0.2683  0.2417  0.1346
 6277W        W10021   0.732   0.367  12.287 -0.0116  0.0735  0.1117
 6278W        W10022   7.686   2.711   1.340  0.0478  0.0034 -0.3045
 6279W        W10023   9.835   5.112   1.519 -0.2229  0.0657 -0.0275
 6280W        W10024   8.188   7.592   9.804 -0.0240  0.0230 -0.0322
 6281W        W10025   7.423   0.702   3.274 -0.0845 -0.4721  0.1230
 6282W        W10026   4.592   7.349   1.755 -0.1243  0.2054  0.1981
 6283W        W10027   4.571   0.292  10.737 -0.1828  0.1139  0.0666
 6284W        W10028   7.439   3.063   4.773  0.1137  0.2254 -0.0453
 6285W        W10029   7.220   5.349   1.537 -0.2276  0.0555 -0.1010
 6286W        W10030   3.138   7.742   1.626 -0.0085 -0.1298  0.0609
 6287W        W10031   6.852   1.221  11.349 -0.2726 -0.1884 -0.1148
 6288W        W10032   8.666   0.256  10.709  0.3541 -0.1185  0.0366
 6289W        W10033   1.630   0.757   1.301  0.0215  0.0384  0.0638
 6290W        W10034   5.182   2.161   9.403 -0.1024  0.0615 -0.1404
 6291W        W10035   7.551   4.912   0.580  0.0703 -0.1579  0.1958
 6292W        W10036   3.436   0.443  12.675  0.2441  0.2040  0.1004
 6293W        W10037   1.435   8.665   8.480 -0.3253 -0.2365 -0.0929
 6294W        W10038   5.374   5.178  10.798 -0.0322 -0.0629  0.2667
 6295W        W10039   1.842   7.386   1.479  0.2486 -0.1187  0.0581
 6296W        W10040   3.600   3.514  11.716 -0.2528  0.4174  0.0938
 6297W        W10041   4.142   6.398  10.092 -0.3693  0.3562  0.0845
 6298W        W10042   8.763   2.531   1.946 -0.1131  0.0476 -0.1619
 6299W        W10043   8.193   1.652   1.537 -0.2085 -0.1149  0.0004
 6300W        W10044   3.947   7.730   1.356 -0.0806 -0.0879  0.0194
 6301W        W10045   8.180   6.699   4.365 -0.0295 -0.1989 -0.2086
 6302W        W10046   0.641   7.375  11.850  0.1880  0.1572  0.1778
 6303W        W10047   2.315   0.569  11.889  0.2800  0.1924  0.2035
 6304W        W10048   9.871   4.811   1.070  0.1436 -0.0288  0.0187
 6305W        W10049   3.604   9.018  12.146 -0.1332 -0.0679 -0.0722
 6306W        W10050   9.162   3.031  12.291 -0.2954  0.0418 -0.1360
 6307W        W10051   9.352   6.109  12.222 -0.1395  0.2893 -0.1293
 6308W        W10052   5.735   6.463   0.269 -0.1956  0.0921  0.0966
 6309W        W10053   5.085   2.480  10.073  0.0176  0.1818 -0.1907
 6310W        W10054   1.371   7.563  10.374 -0.2204  0.0360 -0.0586
 6311W        W10055   1.794   2.848   0.569 -0.3253 -0.2225 -0.0481
 6312W        W10056   0.294   4.170  10.455 -0.0936  0.1736 -0.0911
 6313W        W10057   6.683   6.264   2.505 -0.0705 -0.0099  0.1227
 6314W        W10058   8.517   2.474   0.291 -0.0709 -0.1738  0.3455
 6315W        W10059   7.523   7.216  10.039  0.0732  0.2309  0.0823
 6316W        W10060   9.417   9.321   9.879 -0.2089 -0.0542  0.0947
 6317W        W10061   6.285   0.852   9.165 -0.0807  0.0365 -0.0361
 6318W        W10062   8.986   8.560   9.385 -0.1676  0.1567  0.2688
 6319W        W10063   1.776   3.642  11.105 -0.0504 -0.1102 -0.3753
 6320W        W10064   4.931   6.544   9.018  0.1077  0.1545 -0.0201
 6321W        W10065   5.144   7.398   8.410 -0.1507  0.3386  0.4166
 6322W        W10066   1.447   3.233  10.427 -0.0435 -0.0715  0.0282
 6323W        W10067   8.958   4.359  12.656  0.1034  0.0276 -0.1393
 6324W        W10068   0.917   1.444  11.851 -0.1466 -0.0644 -0.1615
 6325W        W10069   2.446   1.575   3.589 -0.2496  0.3632 -0.2036
 6326W        W10070   3.106   0.928  11.484  0.0563  0.0431 -0.1245
 6327W        W10071   6.272   1.269   1.043  0.1075  0.0429  0.0459
 6328W        W10072   7.531   6.514   0.194  0.0577 -0.2295 -0.2639
 6329W        W10073   8.171   0.617   2.385 -0.1234 -0.0526 -0.0545
 6330W        W10074   9.386   1.239   2.400 -0.0655 -0.2226 -0.1066
 6331W        W10075   7.306   4.687  11.996 -0.0896 -0.0784 -0.1416
 6332W        W10076   5.941   5.367   1.192 -0.0056  0.0807 -0.1813
 6333W        W10077   8.285   6.408   1.442  0.2813  0.0843  0.4687
 6334W        W10078   0.674   1.604  10.300 -0.0220 -0.0728  0.1632
 6335W        W10079   3.868   7.037  10.819 -0.1357 -0.3469  0.1836
 6336W        W10080   8.858   2.585   8.841  0.0351 -0.2048  0.2500
 6337W        W10081   3.456   3.358   2.591 -0.1029 -0.1092  0.1134
 6338W        W10082   6.783   8.944  11.022  0.0622 -0.2259  0.1965
 6339W        W10083   0.317   4.287   8.661  0.0081  0.2301  0.4196
 6340W        W10084   3.332   0.932  12.318 -0.0872 -0.1337 -0.1553
 6341W        W10085   5.777   1.106   0.321 -0.2042 -0.3049 -0.1689
 6342W        W10086   4.900   4.943   9.061 -0.1020  0.0656 -0.0510
 6343W        W10087   1.500   6.132   2.261  0.3055 -0.0064 -0.2063
 6344W        W10088   7.108   0.154   2.495  0.0042 -0.1424 -0.2383
 6345W        W10089   5.530   9.347  11.927 -0.0053  0.1003 -0.0155
 6346W        W10090   2.520   0.113   3.367  0.1017  0.0115  0.1284
 6347W        W10091   7.408   6.778  12.231 -0.0868 -0.2592  0.2460
 6348W        W10092   9.594   6.723   2.453  0.0745 -0.1351 -0.2009
 6349W        W10093   0.255   3.090  12.399 -0.1071 -0.2835  0.0551
 6350W        W10094   4.765   6.724   2.663 -0.1681  0.0773 -0.1808
 6351W        W10095   1.136   7.243   9.572  0.2720 -0.1772 -0.4330
 6352W        W10096   3.469   2.975   0.035 -0.3209 -0.1669 -0.1040
 6353W        W10097   9.816   8.346   3.607 -0.1234  0.1011  0.1473
 6354W        W10098   2.299   0.948  10.906 -0.0486  0.0964  0.0953
 6355W        W10099   2.968   9.788   3.554  0.4460 -0.1594  0.3265
 6356W        W10100   2.198   7.679  11.728 -0.1593  0.0241 -0.3549
 6357W        W10101   9.545   2.146   9.789  0.1782  0.0014 -0.1261
 6358W        W10102   1.144   2.991  11.225  0.0161 -0.2111  0.2703
 6359W        W10103   3.441   5.979  11.123 -0.2598 -0.2497 -0.0718
 6360W        W10104   3.324   5.760   2.612 -0.3233 -0.2533 -0.0605
 6361W        W10105   8.252   4.859   9.307 -0.0340  0.1074  0.0044
 6362W        W10106   9.750   5.598   1.514 -0.2145  0.2333  0.1309
 6363W        W10107   2.974   1.166   2.822 -0.2197  0.0861 -0.0566
 6364W        W10108   7.679   5.269   1.695 -0.0088 -0.0688 -0.0401
 6365W        W10109   8.514   4.632   0.492  0.0156 -0.0440  0.3206
 6366W        W10110   6.896   2.003   8.809 -0.2822  0.0333 -0.0810
 6367W        W10111   4.534   2.559   0.971 -0.2703  0.0349 -0.2080
 6368W        W10112   3.773   3.449   3.847 -0.2317  0.1912  0.0008
 6369W        W10113   4.850   5.435  10.651 -0.0186  0.1121 -0.1644
 6370W        W10114   5.104   5.654   0.210 -0.1184  0.0090  0.2182
 6371W        W10115   7.375   8.991  10.056  0.2097 -0.0686 -0.2575
 6372W        W10116   0.860   6.826   3.069 -0.2258 -0.0402 -0.0188
 6373W        W10117   1.547   1.880  10.469  0.3621  0.1368 -0.3243
 6374W        W10118   4.583   4.749   0.527  0.0294 -0.1449  0.0493
 6375W        W10119   4.612   4.511   9.634 -0.1868 -0.0449  0.0849
 6376W        W10120   7.370   4.730   9.549  0.0893  0.1299 -0.4354
 6377W        W10121   6.431   1.965  11.951  0.0842  0.1591  0.1732
 6378W        W10122   6.424   0.516   0.333  0.0488 -0.0256  0.1415
 6379W        W10123   1.052   5.486   2.256 -0.0567 -0.2667 -0.0883
 6380W        W10124   4.328   0.375   2.517 -0.0141  0.3527 -0.0343
 6381W        W10125   6.454   1.853   2.403  0.1322 -0.0037 -0.2655
 6382W        W10126   5.606   0.289   3.364  0.0625  0.1887  0.2887
 6383W        W10127   6.023   9.114  11.631  0.1260  0.1881  0.0207
 6384W        W10128   8.648   7.076   2.587 -0.3018 -0.0377 -0.1226
 6385W        W10129   1.952   5.475   3.906  0.0394 -0.0471 -0.1197
 6386W        W10130   1.779   8.348  12.269  0.0297 -0.2671  0.0214
 6387W        W10131   4.247   8.272   8.021 -0.1885  0.1515 -0.0229
 6388W        W10132   2.917   3.798   0.936 -0.2142  0.2509  0.6184
 6389W        W10133   9.039   0.250   4.763 -0.3263 -0.2628  0.1223
 6390W        W10134   1.730   7.263   3.074 -0.0432  0.0280  0.1477
 6391W        W10135   8.631   3.042   2.718  0.1392 -0.1128  0.0396
 6392W        W10136   3.662   9.463  11.137  0.0212 -0.1783  0.2438
 6393W        W10137   7.601   4.434   3.117 -0.0301  0.0454 -0.2128
 6394W        W10138   4.331   0.910   2.808  0.0922 -0.0077  0.2106
 6395W        W10139   4.906   4.357   0.383 -0.3027  0.2702  0.2667
 6396W        W10140   9.111   1.750   0.653  0.2033  0.2609 -0.1005
 6397W        W10141   4.135   1.374  12.457  0.0209  0.1718 -0.0728
 6398W        W10142   5.037   1.895  12.265 -0.2060 -0.1170  0.1174
 6399W        W10143   6.657   7.169   4.238 -0.0435  0.2635  0.0345
 6400W        W10144   2.185   7.046  10.573  0.2341  0.0265 -0.1642
 6401W        W10145   4.293   2.553  10.574  0.1885  0.1010  0.5752
 6402W        W10146   4.308   6.728   2.460 -0.2474  0.3043 -0.2556
 6403W        W10147   6.208   4.317   0.266  0.1397  0.0186  0.1780
 6404W        W10148   7.570   4.543  11.413  0.2577  0.0933  0.3061
 6405W        W10149   0.231   2.350  10.560 -0.3532  0.0790 -0.0735
 6406W        W10150   2.221   1.338  10.610  0.0259  0.0480  0.0744
 6407W        W10151   4.413   3.655   2.522  0.1676  0.0286 -0.0113
 6408W        W10152   4.870   8.818   9.720 -0.2054  0.0825  0.0469
 6409W        W10153   5.547   5.245  12.400  0.1538  0.5614  0.0350
 6410W        W10154   5.717   1.173   1.743 -0.0797  0.0431 -0.0250
 6411W        W10155   9.078   2.211  12.366  0.2056 -0.0553 -0.0723
 6412W        W10156   4.297   7.890   8.776 -0.0865 -0.1012  0.3378
 6413W        W10157   8.132   7.872  11.216  0.0165 -0.1045  0.1002
 6414W        W10158   7.047   1.446   1.574  0.0274  0.3754  0.1037
 6415W        W10159   4.318   9.369  12.596 -0.0600  0.0068 -0.2836
 6416W        W10160   0.405   1.167  12.570  0.0843  0.3895 -0.0035
 6417W        W10161   2.102   6.345  11.206 -0.1514 -0.0729  0.0478
 6418W        W10162   5.652   8.970   3.133 -0.2298  0.2098 -0.0124
 6419W        W10163   6.075   9.745  10.949  0.1651  0.0941  0.2594
 6420W        W10164   1.997   3.406   9.592 -0.1129 -0.0189 -0.0402
 6421W        W10165   7.197   1.184   0.404 -0.1019 -0.2738 -0.1187
 6422W        W10166   9.482   0.039   1.307  0.0357 -0.1355  0.0118
 6423W        W10167   7.463   9.424   1.690  0.0574 -0.1638  0.0393
 6424W        W10168   1.082   9.820  12.847  0.2139 -0.1195  0.0617
 6425W        W10169   7.995   2.347   3.598 -0.3229  0.2080  0.3459
 6426W        W10170   8.867   6.191  12.363 -0.0535 -0.1217  0.0902
 6427W        W10171   8.870   5.595   9.425  0.0837 -0.0743 -0.2173
 6428W        W10172   9.191   8.478   0.395 -0.5114 -0.0191 -0.0301
 6429W        W10173   0.933   2.299  12.712 -0.5498 -0.0972 -0.0134
 6430W        W10174   3.693   9.053  10.840 -0.2546  0.3263 -0.0557
 6431W        W10175   2.225   4.757   8.930 -0.0142  0.1063  0.4657
 6432W        W10176   5.222   7.801   1.367 -0.1312 -0.1310  0.3778
 6433W        W10177   0.391   7.692   1.901  0.2196 -0.0620  0.0510
 6434W        W10178   2.121   5.170   0.383 -0.1630  0.0207  0.1710
 6435W        W10179   5.908   4.200   3.869 -0.2248  0.2707 -0.1752
 6436W        W10180   2.872   0.189   1.873  0.1061 -0.1569 -0.1147
 6437W        W10181   1.414   3.339  10.935 -0.2609 -0.0316 -0.0271
 6438W        W10182   8.983   5.255   3.698  0.0711 -0.1456 -0.0416
 6439W        W10183   1.814   4.244  12.438 -0.1187 -0.0057  0.3991
 6440W        W10184   3.169   2.713  11.864 -0.1329  0.1697  0.1250
 6441W        W10185   4.465   3.273   3.102 -0.0221  0.2154  0.0166
 6442W        W10186   7.441   7.342   2.431 -0.0118 -0.1806  0.5495
 6443W        W10187   4.065   2.190   1.974  0.0839 -0.0353  0.1636
 6444W        W10188   1.643   8.424   9.788  0.2158  0.0491  0.0427
 6445W        W10189   4.603   9.217   3.045 -0.0944  0.3382  0.1534
 6446W        W10190   5.572   9.301   1.242 -0.1251  0.0368  0.1724
 6447W        W10191   3.120   2.559  10.592 -0.1554  0.0296  0.1534
 6448W        W10192   9.148   0.765   2.517  0.5767 -0.2262 -0.0049
 6449W        W10193   4.920   0.720   1.128  0.2203  0.0145 -0.0240
 6450W        W10194   4.352   9.063  11.675  0.0821 -0.0289 -0.0401
 6451W        W10195   1.243   8.224  10.426  0.3851  0.0255  0.0859
 6452W        W10196   2.822   6.468  11.523 -0.0574  0.2995 -0.3492
 6453W        W10197   9.276   5.971   9.795 -0.2425 -0.1342  0.2903
 6454W        W10198   4.720   6.766   2.169  0.2174  0.0934 -0.0208
 6455W        W10199   2.746   3.969   1.397  0.1491  0.1575  0.2985
 6456W        W10200   9.889   5.191   3.322  0.0740  0.1276  0.1981
 6457W        W10201   3.422   0.894   2.835 -0.0208 -0.1360 -0.0507
 6458W        W10202   6.608   6.549   4.979 -0.0112  0.0725 -0.3748
 6459W        W10203   5.258   3.876   3.160  0.1531 -0.4224 -0.3712
 6460W        W10204   5.786   3.897   9.232  0.0999 -0.0487  0.0149
 6461W        W10205   0.521   9.718  11.192  0.0952  0.0606  0.1937
 6462W        W10206   6.385   3.321   3.757 -0.1984  0.1221  0.1578
 6463W        W10207   7.618   4.620   0.980  0.3482  0.1788 -0.1129
 6464W        W10208   1.575   6.886  11.874  0.2303 -0.2222  0.0162
 6465W        W10209   6.580   2.123   9.854 -0.2107 -0.2321  0.0848
 6466W        W10210   1.017   7.065   0.976  0.1163  0.0930  0.0836
 6467W        W10211   7.959   5.305   3.019 -0.0372 -0.0023 -0.0269
 6468W        W10212   7.608   0.699   2.082  0.2396  0.1703 -0.1260
 6469W        W10213   0.489   6.040  10.550  0.2571  0.0259  0.2692
 6470W        W10214   6.535   1.195   8.850 -0.0432 -0.1148  0.0696
 6471W        W10215   0.202   1.951   3.549  0.2688  0.0747  0.1591
 6472W        W10216   0.406   0.783   9.503  0.2110  0.3177 -0.1166
 6473W        W10217   3.819   5.043   3.063  0.0598 -0.2044 -0.1383
 6474W        W10218   4.598   3.807  12.695 -0.0216  0.0016  0.2575
 6475W        W10219   4.765   1.360   2.099  0.0310  0.2943 -0.1798
 6476W        W10220   0.279   7.369   9.173 -0.1034  0.2000 -0.0431
 6477W        W10221   0.415   9.214   0.946 -0.2625 -0.0960 -0.0363
 6478W        W10222   8.762   1.666   3.289  0.1859  0.1877  0.2566
 6479W        W10223   3.892   3.871  12.022  0.2639  0.0760 -0.1961
 6480W        W10224   0.582   5.418   3.583 -0.1143 -0.1838 -0.1106
 6481W        W10225   9.027   0.036   4.331  0.4442  0.3380  0.2034
 6482W        W10226   3.896   5.329   0.849 -0.2191 -0.1163 -0.1333
 6483W        W10227   8.106   2.924   1.200 -0.2064  0.0306  0.1435
 6484W        W10228   6.566   7.937   3.462 -0.3782  0.0659 -0.0116
 6485W        W10229   3.132   0.542   2.019  0.1930 -0.1771 -0.1612
 6486W        W10230   0.276   5.069   2.202  0.0836 -0.0719 -0.3003
 6487W        W10231   2.607   7.464   3.407  0.5171  0.2934 -0.2502
 6488W        W10232   2.214   8.394   9.045 -0.0870 -0.1545  0.3624
 6489W        W10233   3.289   0.224   3.486  0.1625  0.1338  0.0885
 6490W        W10234   6.713   1.320  12.484  0.2413 -0.1057  0.1146
 6491W        W10235   2.214   8.212   4.003  0.0988  0.3540  0.0452
 6492W        W10236   6.581   3.670  11.427 -0.1632  0.0659  0.2646
 6493W        W10237   0.184   0.164  11.172 -0.0377  0.3812 -0.3765
 6494W        W10238   7.852   2.781   2.696 -0.2200 -0.3093  0.3205
 6495W        W10239   7.275   4.180   9.224  0.1925  0.2353  0.3303
 6496W        W10240   0.544   4.023   3.319  0.2413 -0.0369 -0.0158
 6497W        W10241   5.576   2.527  10.213  0.0994 -0.1957  0.0295
 6498W        W10242   8.828   6.203   3.640  0.0934 -0.1297 -0.1049
 6499W        W10243   3.164   5.131   3.766 -0.1708 -0.5064 -0.0290
 6500W        W10244   8.885   8.218  11.745  0.3832 -0.5113  0.2012
 6501W        W10245   4.794   3.328  12.802 -0.1587  0.0537  0.1003
 6502W        W10246   5.871   6.330   1.624 -0.2386 -0.2843  0.0039
 6503W        W10247   8.344   9.262   0.584 -0.0503 -0.1393 -0.2183
 6504W        W10248   4.659   3.402   8.266 -0.0822 -0.2545 -0.0111
 6505W        W10249   5.024   5.340   3.468 -0.0243 -0.1857 -0.0628
 6506W        W10250   4.306   9.254   4.084 -0.1223  0.1612 -0.3614
 6507W        W10251   6.258   2.391   9.576  0.0982  0.0008 -0.0238
 6508W        W10252   5.300   6.655  11.653  0.1684 -0.0030 -0.0427
 6509W        W10253   3.807   2.642  12.811 -0.0124 -0.1955 -0.2905
 6510W        W10254   7.598   7.179  10.567  0.2015  0.2730  0.1016
 6511W        W10255   3.540   8.264   3.518 -0.2024 -0.2953 -0.2208
 6512W        W10256   8.366   7.939   2.380  0.0757 -0.0479  0.1568
 6513W        W10257   7.600   8.005   0.477 -0.0901 -0.0160 -0.0494
 6514W        W10258   4.488   7.079   0.791  0.2297 -0.0621 -0.1318
 6515W        W10259   7.118   4.863  11.561  0.0602 -0.1906 -0.0886
 6516W        W10260   2.721   4.156  10.955  0.0486 -0.2621 -0.3043
 6517W        W10261   0.576   7.116  12.742 -0.2053 -0.1864  0.2217
 6518W        W10262   3.695   7.135  12.239 -0.1035 -0.0294 -0.0803
 6519W        W10263   5.859   0.233   9.864  0.1084 -0.0915 -0.1973
 6520W        W10264   0.025   4.455  11.453  0.2838 -0.2567  0.0445
 6521W        W10265   6.279   3.546   3.333  0.1272 -0.0716  0.0981
 6522W        W10266   5.696   7.947   1.214 -0.1123 -0.1025  0.0640
 6523W        W10267   0.688   5.757   3.117  0.0439 -0.1380  0.2751
 6524W        W10268   9.273   4.659  10.670 -0.1787  0.2483  0.0046
 6525W        W10269   6.112   8.659  11.869 -0.2061 -0.0264  0.0897
 6526W        W10270   1.257   9.878  10.515  0.0714  0.0931  0.3024
 6527W        W10271   9.527   1.064  11.603  0.0277 -0.2744 -0.0033
 6528W        W10272   2.461   4.764   1.805 -0.0714 -0.2257 -0.0142
 6529W        W10273   9.668   7.719   9.612  0.1798  0.1122 -0.1902
 6530W        W10274   8.184   4.355   2.055  0.1176  0.0948 -0.4684
 6531W        W10275   0.520   9.875   1.734  0.0261  0.0073  0.0470
 6532W        W10276   6.307   4.064  11.511 -0.1324 -0.1589  0.4485
 6533W        W10277   1.871   9.256  12.213  0.2761 -0.0413  0.0679
 6534W        W10278   4.322   5.020   3.012 -0.1058  0.0299 -0.0045
 6535W        W10279   5.058   7.281   3.342 -0.2774 -0.1399  0.1756
 6536W        W10280   9.515   7.107   2.767  0.2247  0.2775 -0.0944
 6537W        W10281   4.842   8.557   1.927 -0.1816 -0.2648 -0.1133
 6538W        W10282   2.550   3.055  11.663 -0.0331  0.2156  0.1413
 6539W        W10283   0.974   7.090  10.062  0.0947 -0.1043 -0.0660
 6540W        W10284   7.293   8.680   0.044  0.0291  0.2375 -0.1408
 6541W        W10285   2.207   8.820   8.812 -0.0151 -0.2403  0.0386
 6542W        W10286   0.999   2.382   3.154  0.0603 -0.1278  0.4829
 6543W        W10287   5.842   0.829  12.655  0.3259  0.0625  0.2683
 6544W        W10288   5.144   9.096  12.100  0.0891  0.2107 -0.1527
 6545W        W10289   5.013   6.339   1.490 -0.1769 -0.2077  0.0140
 6546W        W10290   5.985   8.321   2.855  0.4500 -0.0418 -0.0628
 6547W        W10291   1.744   5.496  10.880  0.4646 -0.2540  0.3048
 6548W        W10292   1.232   2.323   1.595 -0.0619 -0.1013  0.0862
 6549W        W10293   9.765   3.652   9.855 -0.2542 -0.2595  0.5584
 6550W        W10294   1.295   3.923   4.115 -0.3026 -0.1148 -0.1948
 6551W        W10295   2.398   2.137  11.958 -0.2066  0.0189  0.0749
 6552W        W10296   5.445   0.549   1.962 -0.0281  0.0026  0.0797
 6553W        W10297   4.688   8.357  11.675  0.0292 -0.4117  0.0787
 6554W        W10298   8.591   1.799   2.488  0.3132  0.0677 -0.0700
 6555W        W10299   6.793   0.315  10.028  0.0784  0.1639  0.2015
 6556W        W10300   4.952   7.238   2.079 -0.0680 -0.3136 -0.0677
 6557W        W10301   5.782   1.664   3.013 -0.1626 -0.2364 -0.2243
 6558W        W10302   0.923   5.271   3.189  0.2174  0.0288  0.0622
 6559W        W10303   7.163   7.793   0.533 -0.1766  0.0409  0.0536
 6560W        W10304   2.473   6.212  11.861 -0.0503  0.2063  0.1993
 6561W        W10305   3.848   0.902   3.393  0.2572 -0.0563  0.0520
 6562W        W10306   0.227   7.791  10.414  0.2799  0.4688 -0.1415
 6563W        W10307   2.277   3.961   0.777 -0.0560 -0.0481  0.3129
 6564W        W10308   3.236   0.744  11.024 -0.2956  0.0330 -0.2660
 6565W        W10309   5.691   1.961  10.401 -0.2405 -0.0599 -0.1071
 6566W        W10310   8.166   1.411  10.276  0.3210  0.1991 -0.0015
 6567W        W10311   6.895   9.336   1.823  0.1297  0.3842 -0.2583
 6568W        W10312   4.442   1.298   2.491 -0.0676 -0.3418  0.2514
 6569W        W10313   2.625   2.830   3.342  0.1578  0.1977 -0.0450
 6570W        W10314   1.515   9.631  12.309  0.1435  0.0820  0.0539
 6571W        W10315   5.550   5.165  11.899 -0.0944  0.2320 -0.0970
 6572W        W10316   0.325   5.801   9.541 -0.0362  0.0096  0.0724
 6573W        W10317   3.287   6.377   9.744 -0.0691 -0.2286 -0.0486
 6574W        W10318   2.459   8.132  11.866 -0.0900  0.1644  0.0668
 6575W        W10319   9.835   5.945  11.003 -0.3124 -0.1006 -0.0554
 6576W        W10320   4.608   6.272   1.830  0.1077 -0.2401  0.2444
 6577W        W10321   3.935   5.466   4.235 -0.2922 -0.1101  0.1961
 6578W        W10322   7.346   0.334   4.521 -0.1104 -0.0837  0.5896
 6579W        W10323   5.757   3.998   0.355 -0.0636 -0.2098 -0.0708
 6580W        W10324   5.729   0.167  12.758  0.5523 -0.1120 -0.2192
 6581W        W10325   9.188   8.626   5.098 -0.1019 -0.0481 -0.0034
 6582W        W10326   1.685   5.959   0.396 -0.0510 -0.1393 -0.0468
 6583W        W10327   3.362   6.989   2.983 -0.1141  0.0853 -0.0892
 6584W        W10328   4.135   8.906   3.116 -0.2297 -0.0843  0.4761
 6585W        W10329   9.567   3.982   2.851 -0.1198 -0.0906 -0.2117
 6586W        W10330   6.236   9.634   3.461  0.2535  0.0905 -0.0625
 6587W        W10331   3.003   5.233   2.675  0.2080  0.3028 -0.1629
 6588W        W10332   2.010   2.922   9.602  0.2964 -0.2461  0.0125
 6589W        W10333   9.915   4.763   2.494  0.0245  0.0674  0.0697
 6590W        W10334   9.843   4.133   3.929 -0.1252 -0.0395 -0.3461
 6591W        W10335   7.513   6.119   2.739 -0.1469  0.0144  0.1792
 6592W        W10336   9.382   8.688   9.732 -0.2962  0.0819 -0.0679
 6593W        W10337   8.324   2.210   2.792 -0.4038  0.1102  0.0492
 6594W        W10338   2.404   3.670   1.114  0.1654  0.1712 -0.4781
 6595W        W10339   1.367   4.343  12.078  0.1555  0.0605  0.1280
 6596W        W10340   1.926   6.750   3.036 -0.1245 -0.3567 -0.2161
 6597W        W10341   3.880   9.275  11.572 -0.0939  0.1285  0.1495
 6598W        W10342   1.661   3.658  12.502  0.1660 -0.1212  0.2094
 6599W        W10343   8.135   4.017  11.369 -0.2203 -0.0350 -0.3563
 6600W        W10344   0.878   7.527   9.134  0.1320 -0.0246 -0.1109
 6601W        W10345   9.518   6.969   0.937  0.1011  0.2218 -0.4221
 6602W        W10346   3.673   9.525   9.342 -0.1430  0.0290  0.1340
 6603W        W10347   4.558   7.845  10.942  0.2320  0.3054  0.1685
 6604W        W10348   8.162   4.816  10.686  0.1529  0.0779 -0.3112
 6605W        W10349   8.414   7.640   8.957  0.1694  0.4010  0.0651
 6606W        W10350   2.407   8.994   0.535  0.4811 -0.1735  0.0843
 6607W        W10351   3.552   6.742  10.539  0.2240  0.0726  0.0213
 6608W        W10352   5.402   1.448   3.948 -0.1434 -0.0641  0.2482
 6609W        W10353   8.035   4.188  12.611  0.2963 -0.2094 -0.0680
 6610W        W10354   0.288   5.778   1.631 -0.0468 -0.1564  0.3631
 6611W        W10355   8.688   5.110   9.755 -0.0765 -0.1396  0.0269
 6612W        W10356   4.725   5.296   8.748 -0.0466  0.0741 -0.3583
 6613W        W10357   9.718   2.088   3.334  0.3133 -0.0055 -0.0524
 6614W        W10358   9.199   8.225   9.170 -0.2682  0.1542  0.4148
 6615W        W10359   9.112   5.827   2.853 -0.2873  0.3184 -0.3839
 6616W        W10360   2.256   5.940  12.777 -0.3216 -0.1430  0.2311
 6617W        W10361   5.969   7.326  10.387 -0.2822  0.0491 -0.0022
 6618W        W10362   1.805   1.320  10.356  0.1475 -0.2096  0.0607
 6619W        W10363   4.386   2.240   2.332 -0.4194 -0.3635 -0.2199
 6620W        W10364   5.540   7.850  11.696 -0.3647  0.2274  0.0916
 6621W        W10365   6.561   7.264  12.711 -0.1600 -0.2155  0.1134
 6622W        W10366   0.126   2.646   2.228 -0.0876 -0.0605 -0.1821
 6623W        W10367   0.088   3.842   3.563 -0.0133 -0.1828 -0.3743
 6624W        W10368   8.510   5.981   9.502 -0.1248  0.2040  0.0243
 6625W        W10369   7.737   2.808  10.190 -0.1078 -0.1756  0.0551
 6626W        W10370   8.872   7.442   3.430 -0.2671  0.1806  0.4659
 6627W        W10371   3.113   1.852   1.954  0.0523  0.2675 -0.3509
 6628W        W10372   6.398   2.926   2.467 -0.1836 -0.0309 -0.0012
 6629W        W10373   2.528   7.055   4.605 -0.1795  0.4066 -0.1136
 6630W        W10374   0.774   7.480   1.291 -0.0936  0.0101 -0.0246
 6631W        W10375   9.889   2.912   4.048  0.1709 -0.0098 -0.0645
 6632W        W10376   0.019   2.471  12.572  0.2159  0.1056  0.5609
 6633W        W10377   1.240   2.027  11.092  0.0400 -0.1210 -0.0079
 6634W        W10378   4.188   0.102   2.045  0.1095  0.0265 -0.0173
 6635W        W10379   7.473   9.526   0.212  0.2623 -0.0461  0.2262
 6636W        W10380   2.909   1.830   9.000  0.2468 -0.0524  0.1758
 6637W        W10381   0.333   9.197   2.458 -0.1195 -0.2143  0.0381
 6638W        W10382   8.602   8.756  12.672 -0.2459  0.2005  0.1124
 6639W        W10383   6.204   3.773   4.652  0.0234 -0.2214  0.0911
 6640W        W10384   2.198   1.876  10.563 -0.0952 -0.0855  0.1004
 6641W        W10385   2.905   6.529   0.573 -0.0939 -0.1598  0.0181
 6642W        W10386   2.381   7.345   8.396  0.1390  0.0061  0.2220
 6643W        W10387   6.046   9.650   2.181 -0.0329  0.3011 -0.0520
 6644W        W10388   5.526   6.890  12.238 -0.5328 -0.2118 -0.0606
 6645W        W10389   6.227   6.370   2.176  0.0022  0.1133 -0.0010
 6646W        W10390   6.822   2.839  12.048  0.2876 -0.0367 -0.0093
 6647W        W10391   9.434   4.080  11.605  0.0080 -0.0451 -0.5143
 6648W        W10392   9.729   3.879   2.190 -0.3976 -0.0961  0.0302
 6649W        W10393   8.889   1.291   2.383  0.1607 -0.0322  0.5130
 6650W        W10394   8.905   1.929   1.179  0.0037 -0.1804  0.1280
 6651W        W10395   9.506   8.278   1.687 -0.0294 -0.1872 -0.2030
 6652W        W10396   6.368   1.867   4.266  0.0710 -0.1082  0.3780
 6653W        W10397   1.876   7.226  12.553  0.1009  0.2384  0.1556
 6654W        W10398   6.248   2.218   8.035  0.2442 -0.2708 -0.1459
 6655W        W10399   3.758   7.730   9.640 -0.3495  0.0191  0.0731
 6656W        W10400   7.714   9.870   3.874  0.0076 -0.3743  0.3579
 6657W        W10401   2.425   4.987   0.731 -0.0573  0.0003  0.0426
 6658W        W10402   9.099   1.282  10.230 -0.3965 -0.0288  0.0656
 6659W        W10403   9.932   9.524   2.277  0.1369  0.1515 -0.1515
 6660W        W10404   1.067   8.584   2.417 -0.0649  0.1248 -0.1663
 6661W        W10405   4.554   2.134  12.279  0.0643 -0.0424 -0.1040
 6662W        W10406   6.140   5.562   2.748 -0.0396  0.0324 -0.5173
 6663W        W10407   0.880   0.578   3.039 -0.1026  0.3132  0.0881
 6664W        W10408   2.846   8.134   2.777  0.0452 -0.2999 -0.1832
 6665W        W10409   4.024   3.408  12.126 -0.1809  0.1187 -0.0998
 6666W        W10410   6.924   3.560  11.780  0.0163  0.2243 -0.0186
 6667W        W10411   7.092   4.830   0.319  0.1033 -0.3057 -0.1753
 6668W        W10412   4.682   1.836  11.926  0.0551  0.0908 -0.0006
 6669W        W10413   8.177   3.728   1.208  0.0008 -0.3223 -0.0039
 6670W        W10414   4.133   1.078  10.956  0.0671 -0.0063 -0.0032
 6671W        W10415   9.418   5.638  12.084 -0.1055 -0.0657  0.1340
 6672W        W10416   7.813   6.768   9.446 -0.0275 -0.1403  0.0250
 6673W        W10417   3.317   7.571   9.006 -0.2464  0.0184  0.0374
 6674W        W10418   0.749   7.143   3.391 -0.1860  0.0803 -0.1360
 6675W        W10419   3.067   2.082  10.700 -0.0169  0.0417 -0.3042
 6676W        W10420   4.842   7.603  12.545  0.0091  0.1115 -0.0446
 6677W        W10421   4.267   3.115  10.906 -0.0916  0.0933  0.0923
 6678W        W10422   8.306   6.482  11.862  0.0455  0.1286 -0.0445
 6679W        W10423   6.536   5.980   5.179  0.1834 -0.2249 -0.0058
 6680W        W10424   1.201   7.553  11.720  0.4779 -0.2385  0.3528
 6681W        W10425   7.649   8.006   3.464 -0.0639 -0.0435  0.2386
 6682W        W10426   1.902   2.952   9.145  0.1611 -0.4074  0.2254
 6683W        W10427   6.914   9.201  10.000  0.0127  0.1356 -0.0594
 6684W        W10428   1.563   5.276   3.681 -0.0452  0.0371 -0.1155
 6685W        W10429   0.547   1.144   2.159 -0.0828 -0.2586 -0.2445
 6686W        W10430   5.637   8.155   2.417 -0.1623 -0.3081 -0.4024
 6687W        W10431   0.962   6.782  11.279 -0.2006 -0.1092  0.2088
 6688W        W10432   5.415   1.556   2.614 -0.1823 -0.1259 -0.2653
 6689W        W10433   4.932   3.196  10.613  0.3641  0.0787  0.0355
 6690W        W10434   4.341   8.169   2.495  0.0972 -0.2256  0.0255
 6691W        W10435   8.507   3.360   4.624 -0.1090  0.0019 -0.1644
 6692W        W10436   6.080   3.348   9.424 -0.3254 -0.1020 -0.1220
 6693W        W10437   1.458   1.462   2.742 -0.0062 -0.0220 -0.0651
 6694W        W10438   5.429   1.661   1.029 -0.0297 -0.1926 -0.1537
 6695W        W10439   5.598   2.398  11.166 -0.1818  0.2523  0.2571
 6696W        W10440   7.594   4.613   4.092  0.1793  0.0412 -0.0302
 6697W        W10441   0.355   2.045   0.573 -0.0095 -0.1862 -0.3842
 6698W        W10442   9.214   4.561   9.720 -0.1527 -0.0571 -0.1803
 6699W        W10443   1.719   4.661  10.822 -0.2013  0.0415 -0.0174
 6700W        W10444   5.560   2.458   4.102  0.0717 -0.0390  0.2388
 6701W        W10445   7.268   5.884   1.429  0.0081 -0.3855 -0.0296
 6702W        W10446   0.300   0.402   9.944 -0.2674 -0.2486 -0.0254
 6703W        W10447   8.427   2.772  10.994  0.1125 -0.0112  0.2418
 6704W        W10448   3.789   0.209   0.133  0.1669  0.2397  0.2453
 6705W        W10449   8.618   3.206  10.671  0.2217 -0.0121  0.0834
 6706W        W10450   1.193   6.522   0.213 -0.0821 -0.0853 -0.1375
 6707W        W10451   2.772   2.671   0.192  0.0901  0.3270 -0.2562
 6708W        W10452   4.834   7.944  11.491  0.0479  0.2840 -0.3084
 6709W        W10453   9.564   2.014  11.345 -0.3558 -0.3459 -0.1383
 6710W        W10454   4.048   5.399  10.128  0.2632 -0.2769 -0.1532
 6711W        W10455   4.317   3.704   3.850  0.0386  0.1342 -0.0114
 6712W        W10456   8.022   0.884  12.555  0.0678 -0.3313  0.0132
 6713W        W10457   2.555   0.558  12.614  0.1942  0.0163  0.2188
 6714W        W10458   5.157   3.176   3.918  0.2321  0.0136  0.0863
 6715W        W10459   6.641   2.400   5.102 -0.4452  0.2105 -0.0537
 6716W        W10460   6.903   1.720  12.153  0.0780 -0.1069 -0.3194
 6717W        W10461   6.579   3.214   1.730  0.0570  0.2516  0.0490
 6718W        W10462   5.110   5.099  10.350 -0.0040  0.3280  0.0607
 6719W        W10463   8.828   8.893   0.484  0.2335 -0.0629 -0.1688
 6720W        W10464   5.129   1.984   0.329 -0.3350 -0.0333  0.0082
 6721W        W10465   8.719   0.219   1.981 -0.2967 -0.3568 -0.0788
 6722W        W10466   2.834   9.179   0.347  0.1567 -0.0147 -0.0608
 6723W        W10467   0.176   9.479  12.675  0.0971  0.0072 -0.2682
 6724W        W10468   5.689   7.809   3.501 -0.0303  0.0252 -0.0482
 6725W        W10469   4.017   8.615   9.123 -0.2928 -0.2233  0.2634
 6726W        W10470   9.327   0.432  12.397  0.1434 -0.2136 -0.0655
 6727W        W10471   9.897   1.636   3.072 -0.5373  0.0984 -0.1515
 6728W        W10472   7.362   6.198   8.889  0.0921  0.1553 -0.0258
 6729W        W10473   8.587   8.622   1.294 -0.0998 -0.2024 -0.1574
 6730W        W10474   2.277   7.458  12.332  0.4756 -0.1105 -0.1971
 6731W        W10475   4.089   1.314   0.534 -0.2780  0.0390 -0.0501
 6732W        W10476   2.342   7.792  12.801  0.3736  0.1381 -0.3101
 6733W        W10477   5.021   9.688  12.366 -0.0491 -0.1834  0.3958
 6734W        W10478   0.116   4.409  11.992 -0.2846  0.0158  0.2455
 6735W        W10479   2.375   2.248   9.984 -0.0477  0.1698 -0.1644
 6736W        W10480   3.085   4.564   3.254  0.2742  0.1979 -0.1666
 6737W        W10481   5.668   9.297  10.215  0.1941 -0.2853 -0.1650
 6738W        W10482   9.826   7.011  12.181  0.0078  0.1955  0.0979
 6739W        W10483   3.460   4.017  10.327  0.2182 -0.0867  0.1690
 6740W        W10484   5.553   6.710   2.411 -0.4645  0.3306 -0.0785
 6741W        W10485   7.558   7.618   3.988  0.1695  0.0111 -0.0919
 6742W        W10486   5.885   4.405   3.037  0.2034  0.0402  0.0146
 6743W        W10487   7.123   3.097   4.204 -0.3522 -0.1424  0.0534
 6744W        W10488   3.201   9.469   0.014 -0.1940  0.0520 -0.1201
 6745W        W10489   2.264   5.757   2.068  0.2216  0.1084  0.3206
 6746W        W10490   5.063   5.835   3.647 -0.0646 -0.1505 -0.0840
 6747W        W10491   4.510   4.081  11.563  0.3328 -0.4450  0.1624
 6748W        W10492   6.445   8.102   4.373  0.0855  0.2037 -0.0661
 6749W        W10493   0.444   5.211   9.949 -0.3067 -0.1304  0.0121
 6750W        W10494   3.436   4.044  12.212 -0.2618  0.0289  0.1073
 6751W        W10495   1.784   9.115   2.752 -0.1746 -0.0247 -0.1684
 6752W        W10496   3.202   3.315   1.570 -0.1914  0.1414 -0.0544
 6753W        W10497   5.124   5.710   2.288 -0.0544  0.1311  0.1750
 6754W        W10498   7.064   3.323   9.199 -0.1338  0.2364 -0.0371
 6755W        W10499   6.824   7.139   2.063  0.0889  0.3157  0.4434
 6756W        W10500   2.671   3.778  12.197 -0.3485 -0.2096  0.2505
 6757W        W10501   3.453   7.124   3.592 -0.0859  0.0791  0.1114
 6758W        W10502   7.618   9.197   1.252  0.1358  0.1811 -0.3029
 6759W        W10503   3.415   1.133   3.713 -0.1132 -0.1357  0.2313
 6760W        W10504   9.662   8.976  10.935  0.0506  0.1110 -0.0159
 6761W        W10505   6.145   7.626   8.959 -0.0532  0.0750 -0.0353
 6762W        W10506   3.379   2.512   2.673 -0.0139  0.1897  0.0249
 6763W        W10507   5.850   0.507   3.823  0.2222  0.2383  0.0323
 6764W        W10508   9.870   9.414  11.002  0.1864 -0.0075  0.0754
 6765W        W10509   3.912   3.450   1.080  0.1014 -0.0345  0.0593
 6766W        W10510   6.295   5.878  10.102 -0.1529 -0.1424 -0.2634
 6767W        W10511   9.891   6.894   3.023 -0.0512  0.4748 -0.2363
 6768W        W10512   5.750   8.764   1.472  0.0700  0.0284  0.0082
 6769W        W10513   8.264   2.687   9.983 -0.0089  0.0084  0.2527
 6770W        W10514   6.326   0.493   2.653  0.0373 -0.0096  0.1028
 6771W        W10515   3.410   6.395  11.641 -0.2731 -0.1897 -0.0000
 6772W        W10516   2.330   0.408   1.616  0.0264 -0.0612  0.2287
 6773W        W10517   8.897   3.345   9.333 -0.0643  0.1948 -0.0635
 6774W        W10518   9.721   1.655  11.013  0.6809 -0.3254 -0.0466
 6775W        W10519   8.056   8.776   0.103  0.3181 -0.1965  0.0675
 6776W        W10520   5.794   2.690   3.403  0.1163  0.0232  0.1392
 6777W        W10521   4.553   9.059  10.061 -0.3665  0.1671 -0.2108
 6778W        W10522   2.129   6.308   9.255  0.2596 -0.0350 -0.1874
 6779W        W10523   2.209   3.248   0.641  0.0933 -0.2619 -0.2250
 6780W        W10524   0.587   9.221  11.185 -0.1099 -0.0837  0.2804
 6781W        W10525   1.976   7.636   2.662  0.1044 -0.0186 -0.0344
 6782W        W10526   6.423   7.912  11.699 -0.4566  0.0498 -0.0543
 6783W        W10527   2.075   5.091   4.289 -0.0629 -0.1099 -0.1705
 6784W        W10528   3.511   0.307  11.022 -0.1013  0.1506 -0.0701
 6785W        W10529   4.382   0.974   3.274  0.1303  0.0817 -0.1516
 6786W        W10530   4.159   8.004  12.285 -0.1085  0.2732  0.0789
 6787W        W10531   0.105   5.305   9.617 -0.0981 -0.0136  0.0566
 6788W        W10532   4.828   3.144  11.457 -0.2619  0.1129 -0.1874
 6789W        W10533   4.097   0.363   0.596  0.0165  0.0958  0.0089
 6790W        W10534   4.732   8.927   3.971 -0.0580  0.1230 -0.0214
 6791W        W10535   4.059   4.290  10.656 -0.0684  0.1369 -0.1282
 6792W        W10536   7.788   8.861  11.133 -0.1078  0.1664  0.0018
 6793W        W10537   5.391   2.513   0.830 -0.0428 -0.1487  0.0766
 6794W        W10538   6.165   0.861   0.124 -0.2626  0.1132  0.3737
 6795W        W10539   4.524   0.416  10.209  0.0659 -0.2237  0.3298
 6796W        W10540   4.744   8.234   3.471  0.1938  0.0254  0.1928
 6797W        W10541   0.506   6.710   3.545 -0.0316  0.0993  0.0974
 6798W        W10542   0.022   9.890   0.106 -0.4036  0.0027 -0.0180
 6799W        W10543   7.431   4.910   2.000 -0.1819 -0.0824 -0.1861
 6800W        W10544   4.696   4.314   4.174  0.1064 -0.1002 -0.3387
 6801W        W10545   8.191   0.406  10.426 -0.0905  0.0998 -0.2183
 6802W        W10546   9.321   9.109   3.735 -0.4034  0.3137 -0.0960
 6803W        W10547   4.727   3.287   2.663  0.1436 -0.0772  0.0552
 6804W        W10548   1.303   2.726   2.014  0.0859 -0.3256  0.2911
 6805W        W10549   9.445   7.292   1.873 -0.0872  0.1922  0.2450
 6806W        W10550   1.343   9.047   2.930  0.0621 -0.0325  0.1513
 6807W        W10551   0.474   4.025   9.091  0.1317  0.3169  0.1364
 6808W        W10552   3.060   2.306  12.036 -0.0166  0.0818  0.1663
 6809W        W10553   7.604   6.344  12.610  0.1439 -0.4486  0.2188
 6810W        W10554   0.629   8.917   8.748 -0.0297  0.1178  0.1234
 6811W        W10555   9.842   5.423  12.649  0.1463  0.0760  0.0593
 6812W        W10556   5.692   4.356  11.477 -0.1220 -0.0223 -0.2703
 6813W        W10557   0.873   4.396   9.529  0.0074  0.1986 -0.2313
 6814W        W10558   7.017   6.371   3.435  0.0335 -0.0668 -0.0508
 6815W        W10559   2.243   6.791   3.942  0.0586  0.1458  0.1685
 6816W        W10560   7.087   2.172   0.762 -0.1328  0.3869  0.1336
 6817W        W10561   7.051   7.244  11.454 -0.0849 -0.1060  0.1448
 6818W        W10562   9.852   6.980   9.105  0.0892  0.0218  0.3246
 6819W        W10563   8.435   0.330  11.354  0.1045  0.0208  0.0347
 6820W        W10564   4.154   1.211   9.079 -0.1201 -0.1546  0.3972
 6821W        W10565   7.785   5.443  10.744  0.2699  0.1525 -0.1783
 6822W        W10566   8.673   7.506  10.448 -0.1702 -0.1565 -0.2637
 6823W        W10567   4.368   8.148  11.301 -0.0942 -0.0991  0.1006
 6824W        W10568   9.534   0.925  12.112  0.0278 -0.0573  0.1202
 6825W        W10569   1.312   6.718   9.508 -0.0083 -0.2249  0.1310
 6826W        W10570   4.370   8.950  12.248  0.0158  0.1507  0.2118
 6827W        W10571   1.309   1.196  11.987  0.1374 -0.2416  0.3219
 6828W        W10572   3.674   2.200   9.398  0.0198 -0.0707 -0.0013
 6829W        W10573   1.983   9.783  12.600  0.2566 -0.1416  0.0124
 6830W        W10574   3.507   0.793   1.644 -0.0478  0.1985  0.3630
 6831W        W10575   2.471   3.118   9.474  0.1031 -0.0508 -0.4539
 6832W        W10576   1.043   2.902  11.733 -0.2345  0.1044 -0.4297
 6833W        W10577   0.636   0.384  11.251  0.0655  0.0778 -0.0452
 6834W        W10578   8.268   2.336  11.207  0.2159 -0.0973 -0.1958
 6835W        W10579   4.916   3.682   2.345  0.2036  0.2598 -0.2238
 6836W        W10580   9.074   7.270   4.452  0.1948  0.1176 -0.0652
 6837W        W10581   4.843   1.870   2.918 -0.1458  0.0604 -0.1930
 6838W        W10582   4.658   0.106  11.276 -0.2626 -0.2645 -0.1752
 6839W        W10583   1.243   5.811   1.889 -0.0485 -0.1517  0.2459
 6840W        W10584   9.049   1.645   2.844  0.0015 -0.3725 -0.0039
 6841W        W10585   1.968   3.615   2.391  0.0568  0.1938  0.0157
 6842W        W10586   8.946   3.311   3.126  0.0137 -0.1104 -0.0579
 6843W        W10587   2.036   8.704  10.053 -0.1068 -0.1268 -0.0104
 6844W        W10588   7.361   7.179   1.924 -0.1598  0.0154  0.2261
 6845W        W10589   9.832   3.038   2.512  0.1021 -0.0306  0.0268
 6846W        W10590   3.357   4.689   0.991  0.1667  0.0773 -0.0146
 6847W        W10591   8.753   2.525  11.525  0.2164 -0.4008 -0.2014
 6848W        W10592   2.343   8.301   8.537 -0.2426  0.0823  0.1574
 6849W        W10593   4.977   2.500   1.108  0.0118  0.0145 -0.1033
 6850W        W10594   3.361   7.972  12.102  0.0558 -0.0285 -0.0161
 6851W        W10595   4.800   5.335   2.032  0.1742  0.1422 -0.2924
 6852W        W10596   3.384   5.699   0.684  0.0270 -0.2142 -0.0848
 6853W        W10597   9.906   5.330  10.082  0.0637 -0.0983  0.1625
 6854W        W10598   3.878   3.972   0.425 -0.0054 -0.0490  0.0439
 6855W        W10599   7.966   7.443   8.798 -0.1620  0.2636 -0.0193
 6856W        W10600   6.733   3.486  12.265 -0.7572 -0.0612 -0.0116
 6857W        W10601   7.644   6.816   0.573  0.2752  0.2337 -0.0976
 6858W        W10602   2.898   9.443   1.319  0.5301  0.3125 -0.1796
 6859W        W10603   2.904   6.868  10.331  0.0283 -0.0149 -0.1597
 6860W        W10604   0.979   9.201   2.596 -0.0683  0.2773  0.4019
 6861W        W10605   7.578   4.010   2.329 -0.0537  0.2220  0.0928
 6862W        W10606   8.928   0.800   2.932  0.1662  0.1221 -0.1767
 6863W        W10607   2.699   9.228   0.870 -0.1605  0.0570 -0.0135
 6864W        W10608   0.163   5.793  11.415  0.2691  0.1717  0.1102
 6865W        W10609   9.640   8.218   0.900 -0.0876 -0.1133 -0.0424
 6866W        W10610   1.725   8.725   8.927  0.3300  0.2076 -0.1884
 6867W        W10611   2.636   6.754   2.040  0.2613  0.0413 -0.0518
 6868W        W10612   7.101   2.034  10.168  0.0677 -0.1119 -0.0276
 6869W        W10613   8.179   2.300  11.717 -0.0575  0.0882  0.1646
 6870W        W10614   7.068   2.656   0.855 -0.2424  0.2051  0.0772
 6871W        W10615   3.103   9.435   8.880  0.5492  0.0363  0.1929
 6872W        W10616   4.363   1.808  11.570  0.2999  0.0754 -0.1541
 6873W        W10617   1.339   0.886   0.094  0.1283 -0.0907  0.1984
 6874W        W10618   1.089   6.277   3.865 -0.1572 -0.3163  0.0317
 6875W        W10619   0.963   6.126   1.449  0.1395  0.1114 -0.3011
 6876W        W10620   7.003   8.251   1.667  0.1152 -0.1063  0.0900
 6877W        W10621   9.395   3.740   4.390 -0.0061 -0.1150  0.0835
 6878W        W10622   0.661   5.906  11.494 -0.0487  0.0597  0.0101
 6879W        W10623   4.985   9.417  11.001 -0.3007  0.1260 -0.1844
 6880W        W10624   3.154   5.394  10.334  0.1703 -0.1327 -0.1336
 6881W        W10625   4.693   6.252   2.300 -0.2227  0.0168 -0.1556
 6882W        W10626   7.709   5.693   3.152 -0.0040 -0.0570 -0.1626
 6883W        W10627   1.218   9.164   3.463 -0.0844  0.1929 -0.1523
 6884W        W10628   5.472   0.170   0.350  0.2007  0.1369 -0.0329
 6885W        W10629   4.285   0.227  11.628 -0.1157 -0.4351  0.1717
 6886W        W10630   3.890   6.449   2.540 -0.2346 -0.0310  0.1096
 6887W        W10631   2.155   2.227   0.311 -0.1303  0.1553 -0.1705
 6888W        W10632   6.979   8.376   4.407 -0.2928  0.0962  0.1607
 6889W        W10633   4.844   8.713  12.378 -0.2336 -0.1668  0.0481
 6890W        W10634   9.846   5.620   0.521 -0.0391  0.0394  0.2295
 6891W        W10635   5.424   4.248  10.505 -0.0889 -0.0769 -0.1635
 6892W        W10636   3.887   0.135   4.365 -0.2032 -0.4179 -0.3038
 6893W        W10637   6.954   3.044  12.587  0.2879 -0.1812  0.0067
 6894W        W10638   0.139   9.687   2.801  0.0293  0.2229  0.3355
 6895W        W10639   4.215   7.466  12.102 -0.0448 -0.0356 -0.1711
 6896W        W10640   6.108   9.252   1.273  0.0731 -0.1509 -0.0032
 6897W        W10641   3.849   1.285  12.055  0.1781 -0.3658  0.4508
 6898W        W10642   3.001   3.848  11.785  0.0985 -0.0659 -0.0663
 6899W        W10643   3.936   6.793   2.122  0.0236  0.2162 -0.0207
 6900W        W10644   0.542   9.843   8.621  0.1256 -0.0463 -0.1873
 6901W        W10645   4.246   1.132   4.262  0.0211  0.0771  0.0240
 6902W        W10646   1.829   1.909   9.565 -0.1844 -0.2379 -0.0764
 6903W        W10647   9.155   7.522  11.650  0.0360 -0.0248 -0.2349
 6904W        W10648   6.707   6.749   2.934  0.3682 -0.3699 -0.2257
 6905W        W10649   9.233   1.486  10.625 -0.1886 -0.3032  0.2069
 6906W        W10650   1.141   8.063   9.972 -0.0724  0.0107  0.1452
 6907W        W10651   6.590   8.885   8.709  0.0791  0.1079  0.2120
 6908W        W10652   9.858   6.451   3.268  0.1033  0.0009 -0.2351
 6909W        W10653   8.305   5.028   4.250 -0.0260  0.2106  0.1706
 6910W        W10654   3.723   4.031   4.289  0.2689 -0.0347  0.0373
 6911W        W10655   6.643   5.843   4.443 -0.0213 -0.1227  0.1917
 6912W        W10656   4.347   5.537   0.908 -0.1866  0.1062  0.1058
 6913W        W10657   7.388   0.571   2.579  0.1469 -0.2273  0.1130
 6914W        W10658   2.138   6.867  11.055  0.1920  0.1998  0.1105
 6915W        W10659   5.349   5.710  10.714  0.2134 -0.0632 -0.0044
 6916W        W10660   8.816   5.948   0.421 -0.0704 -0.1037 -0.5484
 6917W        W10661   1.435   0.487   3.102 -0.0159  0.2426  0.5330
 6918W        W10662   4.211   5.065   0.095 -0.5394 -0.3560 -0.1521
 6919W        W10663   4.360   3.687   9.967 -0.2846  0.2704 -0.3086
 6920W        W10664   4.325   7.899   3.065 -0.1347 -0.0037 -0.2786
 6921W        W10665   7.308   2.494  10.249  0.1435 -0.2081  0.3206
 6922W        W10666   4.387   4.864   9.833 -0.0201 -0.2234  0.4300
 6923W        W10667   6.543   6.591   3.405  0.0630  0.3044  0.1801
 6924W        W10668   9.626   8.813  11.504  0.1099  0.2262  0.3721
 6925W        W10669   6.234   0.584   4.132  0.3107  0.0811 -0.1687
 6926W        W10670   0.765   1.937   2.254  0.2641 -0.2729  0.1229
 6927W        W10671   4.722   6.974  11.146  0.1357 -0.1724 -0.1382
 6928W        W10672   8.717   9.695  12.791  0.1813  0.0166 -0.0576
 6929W        W10673   6.616   5.893   2.118  0.2305  0.0444  0.3361
 6930W        W10674   2.593   8.609   3.940 -0.1742 -0.0781 -0.2984
 6931W        W10675   2.120   2.717  12.498  0.2376 -0.2741 -0.1036
 6932W        W10676   1.832   6.476  11.683 -0.0796  0.1747  0.1410
 6933W        W10677   1.130   0.474  12.043 -0.0673  0.1547  0.3832
 6934W        W10678   4.924   9.167  11.503  0.2468  0.1079  0.0487
 6935W        W10679   5.717   2.420   2.627  0.0348  0.3042 -0.1017
 6936W        W10680   8.688   6.376   1.151 -0.0930 -0.0357 -0.4109
 6937W        W10681   1.978   6.940  11.527  0.1842  0.2395  0.1792
 6938W        W10682   3.882   2.238  11.627 -0.1271 -0.3517  0.0697
 6939W        W10683   6.588   9.893   1.674  0.0243  0.2773  0.0783
 6940W        W10684   7.279   2.815   9.317  0.2357  0.0355  0.0131
 6941W        W10685   2.832   5.938   8.817  0.1303 -0.0196  0.1662
 6942W        W10686   1.474   4.788   8.317 -0.0994 -0.2686  0.2222
 6943W        W10687   0.491   4.558  11.704  0.0572 -0.0629  0.2120
 6944W        W10688   7.903   3.539  11.309  0.4306 -0.0591  0.1238
 6945W        W10689   2.696   5.514  10.513  0.1011  0.2138  0.1226
 6946W        W10690   5.375   3.112  11.480 -0.0748  0.3681 -0.1667
 6947W        W10691   4.561   9.356   2.523  0.0317 -0.0189 -0.1481
 6948W        W10692   8.159   2.225   9.842 -0.3380 -0.1623  0.3636
 6949W        W10693   9.120   6.565   0.120  0.0819 -0.2572  0.1204
 6950W        W10694   3.434   1.253  11.741 -0.1865  0.2176  0.3661
 6951W        W10695   8.998   8.199   1.500  0.1813  0.0987 -0.1261
 6952W        W10696   0.283   5.810  12.379 -0.0769  0.0788 -0.5132
 6953W        W10697   3.580   2.533  10.724  0.0723  0.1325 -0.2463
 6954W        W10698   7.756   1.532   1.392  0.2290 -0.1426 -0.0926
 6955W        W10699   3.585   0.267  10.476 -0.1462 -0.1049  0.3338
 6956W        W10700   6.430   9.915   9.798 -0.0037 -0.1700 -0.2942
 6957W        W10701   4.530   8.680   1.541  0.0086  0.0504 -0.2273
 6958W        W10702   2.562   8.900   2.533 -0.0897  0.2163  0.0273
 6959W        W10703   3.826   4.107   2.835 -0.3220  0.1937  0.1797
 6960W        W10704   3.993   3.147   2.005 -0.1424 -0.0612 -0.1809
 6961W        W10705   4.638   3.661   3.374  0.1254 -0.2364 -0.0875
 6962W        W10706   5.965   8.703  10.040 -0.1334  0.1472 -0.2038
 6963W        W10707   1.162   6.949  10.814  0.0371 -0.0249  0.0596
 6964W        W10708   9.112   5.929  10.412 -0.2756  0.0653 -0.1598
 6965W        W10709   8.006   4.344  10.496 -0.1890 -0.1542 -0.0275
 6966W        W10710   1.010   0.769   3.492 -0.0243  0.5150 -0.3187
 6967W        W10711   7.179   2.648   9.779  0.0327  0.1170  0.2992
 6968W        W10712   4.834   9.130   1.681  0.1085  0.1023 -0.2027
 6969W        W10713   8.193   9.530   9.160  0.0798  0.2150  0.1838
 6970W        W10714   5.566   9.419   4.051 -0.0140 -0.0783 -0.0763
 6971W        W10715   9.455   2.915  11.060 -0.1152 -0.2438  0.2516
 6972W        W10716   6.593   8.616   0.325  0.1988 -0.0275 -0.0617
 6973W        W10717   6.617   5.100   0.313 -0.3171  0.0009  0.3252
 6974W        W10718   4.980   8.952  10.340  0.1895  0.0164 -0.4190
 6975W        W10719   3.294   9.406   2.834  0.2203  0.0512  0.2002
 6976W        W10720   1.544   1.626   1.638 -0.2460 -0.0139 -0.2573
 6977W        W10721   9.592   5.442   2.925  0.0095  0.0037 -0.0080
 6978W        W10722   5.520   6.636   0.752 -0.3182 -0.0736  0.2619
 6979W        W10723   6.544   1.582   3.163  0.1787 -0.1684  0.2902
 6980W        W10724   4.474   8.538   9.912  0.3660 -0.0023 -0.1168
 6981W        W10725   3.694   7.894  10.158  0.0316  0.1991 -0.0953
 6982W        W10726   9.359   5.772   3.874 -0.3320 -0.0677  0.0173
 6983W        W10727   3.541   3.663   0.553  0.1669  0.1929  0.0177
 6984W        W10728   6.274   7.832  10.209 -0.0807  0.1992 -0.3507
 6985W        W10729   1.996   7.226  11.947  0.1471  0.2468 -0.0082
 6986W        W10730   5.348   3.980  11.546 -0.1351  0.1595  0.0226
 6987W        W10731   2.102   4.813   9.437 -0.2930  0.1980  0.0808
 6988W        W10732   2.673   9.114   3.125  0.3129 -0.1288 -0.0376
 6989W        W10733   5.354   3.453   9.772 -0.1240  0.2447 -0.0791
 6990W        W10734   6.467   4.254   2.483  0.0351  0.0276  0.1378
 6991W        W10735   1.628   0.638   2.253 -0.2666  0.2118  0.3116
 6992W        W10736   9.599   1.024  12.775 -0.0868 -0.1173 -0.2491
 6993W        W10737   7.998   5.612   3.821 -0.0478 -0.2587 -0.2024
 6994W        W10738   5.270   9.840   0.703 -0.1022 -0.1764  0.0383
 6995W        W10739   3.650   6.452  10.944 -0.3585  0.0182 -0.1051
 6996W        W10740   7.612   5.632  11.171  0.1369 -0.0180  0.0586
 6997W        W10741   8.039   4.239   8.240  0.1113 -0.1490  0.2678
 6998W        W10742   5.319   0.785   4.940  0.3633 -0.0429  0.0862
 6999W        W10743   6.232   2.930   0.216  0.2949 -0.2935 -0.0269
 7000W        W10744   5.592   8.137  12.210 -0.3135 -0.0167 -0.2027
 7001W        W10745   1.693   4.090   1.768 -0.0242  0.1706  0.0142
 7002W        W10746   7.519   2.232   3.593 -0.1030 -0.2492 -0.0276
 7003W        W10747   0.810   7.867   1.639  0.0433  0.0684 -0.1486
 7004W        W10748   3.195   0.695   9.739 -0.2904  0.3450 -0.2067
 7005W        W10749   5.365   6.254  10.795  0.0579 -0.0760 -0.1564
 7006W        W10750   2.816   6.743  11.914  0.0530 -0.2095  0.1977
 7007W        W10751   4.990   6.240   2.714  0.1065  0.1991  0.0607
 7008W        W10752   2.076   4.529   2.072 -0.2772 -0.0532  0.1828
 7009W        W10753   5.939   2.842  12.090 -0.0174 -0.4796  0.2395
 7010W        W10754   4.561   1.263  10.133  0.0037  0.0361  0.1118
 7011W        W10755   8.238   1.870  11.257 -0.3305 -0.1531 -0.2645
 7012W        W10756   1.435   4.688   9.802 -0.3941 -0.0639  0.0447
 7013W        W10757   3.114   4.671  12.153  0.3280  0.0662 -0.1107
 7014W        W10758   5.074   2.946  12.258  0.0117 -0.3220 -0.2654
 7015W        W10759   1.854   3.406   3.271  0.1787 -0.2119  0.3243
 7016W        W10760   6.016   6.843   2.464 -0.3269  0.1097 -0.1392
 7017W        W10761   8.198   4.385  11.700 -0.1574  0.2154  0.0155
 7018W        W10762   2.276   7.942  10.635  0.0208  0.2756 -0.1165
 7019W        W10763   5.532   5.361   4.433 -0.1810 -0.4098 -0.3647
 7020W        W10764   1.285   7.716   2.895 -0.0885  0.1125  0.0836
 7021W        W10765   1.848   0.612   9.701  0.1448  0.1642  0.0484
 7022W        W10766   5.280   2.470   0.249  0.0684  0.0806  0.1171
 7023W        W10767   2.264   6.888  12.507 -0.1866  0.0512 -0.1703
 7024W        W10768   5.485   8.511   0.616 -0.0875  0.2094 -0.1103
 7025W        W10769   7.678   1.432   0.450  0.3280 -0.4242 -0.1303
 7026W        W10770   6.478   6.305  10.680  0.3824 -0.1085  0.1328
 7027W        W10771   6.919   6.150   8.573  0.0522  0.0402 -0.1694
 7028W        W10772   4.302   8.025  11.780  0.2313  0.3446  0.2178
 7029W        W10773   8.769   3.318   1.698  0.0430  0.1975  0.1396
 7030W        W10774   8.452   5.429   3.871  0.3780 -0.0062 -0.1907
 7031W        W10775   6.752   9.731   8.926 -0.1832 -0.0887  0.0833
 7032W        W10776   4.246   2.201   0.716 -0.1588 -0.2690 -0.1720
 7033W        W10777   3.910   9.598   4.033  0.0763  0.1412  0.0249
 7034W        W10778   2.119   8.647   0.188 -0.0379  0.0138  0.0787
 7035W        W10779   9.452   2.328   0.538 -0.0278  0.0899  0.0467
 7036W        W10780   4.084   0.470   9.668  0.0423  0.0055 -0.1223
 7037W        W10781   7.640   0.455   9.125 -0.2757 -0.0948  0.3267
 7038W        W10782   8.462   8.285  11.344  0.0649  0.3899 -0.0582
 7039W        W10783   8.717   4.174   9.190 -0.0557  0.0640  0.1306
 7040W        W10784   9.606   8.569   0.105 -0.2848 -0.1809  0.0869
 7041W        W10785   0.721   6.224   2.945 -0.0240 -0.0557 -0.0690
 7042W        W10786   0.631   8.599   8.353  0.3605  0.2658 -0.0645
 7043W        W10787   0.054   0.903  12.387 -0.0549  0.0054  0.2713
 7044W        W10788   8.569   0.892   0.471  0.0081 -0.5502 -0.1331
 7045W        W10789   9.111   5.607   1.127 -0.2250 -0.1645  0.0812
 7046W        W10790   8.335   5.301  10.747  0.1128  0.1681  0.0208
 7047W        W10791   0.526   4.624   2.131  0.1626 -0.1986 -0.2786
 7048W        W10792   6.205   3.723   1.659  0.0452 -0.0135 -0.2361
 7049W        W10793   9.480   4.434   4.059  0.1244 -0.3340 -0.2188
 7050W        W10794   1.837   8.948   0.605 -0.0900  0.1632  0.0831
 7051W        W10795   2.582   9.503   9.113 -0.0373  0.0266  0.0428
 7052W        W10796   8.542   8.077   1.043  0.0004 -0.1223  0.1189
 7053W        W10797   5.394   0.769   9.584 -0.1418  0.1645  0.0983
 7054W        W10798   1.499   7.808   0.575 -0.0067  0.0259 -0.1619
 7055W        W10799   6.329   7.810  12.165  0.0904 -0.1431  0.1110
 7056W        W10800   8.797   5.769   8.548  0.1921  0.1636 -0.1391
 7057W        W10801   3.671   5.636  12.190  0.4065 -0.0019  0.0701
 7058W        W10802   4.525   1.107  11.305  0.0579 -0.1393  0.0265
 7059W        W10803   9.209   9.268  10.585 -0.1152 -0.3105 -0.3728
 7060W        W10804   4.525   9.180  11.060 -0.0485 -0.1097  0.2042
 7061W        W10805   3.027   4.218  10.577  0.1596 -0.0612  0.2081
 7062W        W10806   1.854   7.712  12.410 -0.3152  0.1884 -0.2007
 7063W        W10807   3.519   7.381   1.538  0.0141  0.0834  0.1478
 7064W        W10808   4.668   7.840   4.690  0.0357  0.0372 -0.1310
 7065W        W10809   0.714   6.605   4.040 -0.0890  0.0609  0.1421
 7066W        W10810   5.405   7.086   8.681  0.1946  0.2821  0.3088
 7067W        W10811   8.105   3.635  12.513 -0.3474 -0.2225  0.2284
 7068W        W10812   8.097   1.651   0.649 -0.0174 -0.0520  0.1085
 7069W        W10813   6.337   9.902   3.078 -0.2393 -0.1648 -0.4738
 7070W        W10814   2.625   4.686   9.992 -0.2993  0.0026 -0.0708
 7071W        W10815   3.797   8.020   4.391 -0.0200  0.1339  0.0431
 7072W        W10816   8.460   0.296   9.637  0.0151 -0.2757 -0.0071
 7073W        W10817   7.016   8.891   3.387 -0.4222 -0.0624  0.0624
 7074W        W10818   5.187   5.511   8.770  0.2196  0.0090  0.1987
 7075W        W10819   3.175   7.022   2.259 -0.1115  0.0004  0.0576
 7076W        W10820   2.409   2.273  11.486  0.2740  0.0164  0.2094
 7077W        W10821   0.883   2.277   2.577 -0.1840  0.4118  0.1189
 7078W        W10822   5.269   5.349   1.112 -0.1359 -0.1321  0.4796
 7079W        W10823   9.368   8.863   0.742 -0.2762 -0.4665  0.3222
 7080W        W10824   5.911   4.560  11.917 -0.0707  0.0599  0.0064
 7081W        W10825   9.697   2.188   2.825  0.0967 -0.0212 -0.1260
 7082W        W10826   0.617   5.677   4.931  0.1643 -0.0474  0.0205
 7083W        W10827   8.849   6.098   4.109  0.0688  0.0213 -0.0457
 7084W        W10828   9.789   7.410  10.488  0.1594  0.2113 -0.2114
 7085W        W10829   0.418   4.402   2.982 -0.3654 -0.0381  0.2081
 7086W        W10830   1.596   1.284  12.569 -0.0102 -0.2172 -0.2789
 7087W        W10831   3.610   0.199  11.868 -0.3858 -0.1046  0.1156
 7088W        W10832   8.944   2.824  11.161 -0.3823 -0.0061 -0.0112
 7089W        W10833   1.364   0.860   1.801 -0.2736  0.1849 -0.0555
 7090W        W10834   3.572   2.296   1.800 -0.1573 -0.1189 -0.0470
 7091W        W10835   6.969   3.351   1.419 -0.3708 -0.0921  0.0489
 7092W        W10836   5.316   2.071   2.820 -0.0157  0.4571 -0.0467
 7093W        W10837   2.448   6.738   3.237  0.3056  0.1941  0.1495
 7094W        W10838   6.478   7.284  10.340  0.1036 -0.2119 -0.1660
 7095W        W10839   1.151   6.031  11.450  0.0186  0.0218  0.0601
 7096W        W10840   8.053   0.998   0.197  0.3066  0.2990 -0.0666
 7097W        W10841   3.172   8.072  12.549  0.1260 -0.2645 -0.1325
 7098W        W10842   7.593   8.924   1.788  0.0671  0.0304 -0.1941
 7099W        W10843   9.400   0.270   1.805  0.0600  0.0425  0.3094
 7100W        W10844   2.975   8.535  12.637 -0.0532 -0.2545  0.0221
 7101W        W10845   6.389   2.904   4.059  0.0728  0.1726 -0.0850
 7102W        W10846   9.578   4.438   0.995 -0.0652  0.2472 -0.0100
 7103W        W10847   9.857   3.236  11.999 -0.0281 -0.0394  0.0059
 7104W        W10848   4.950   0.928   2.412 -0.0949 -0.0015  0.1225
 7105W        W10849   6.218   3.467   1.250  0.0080 -0.1327  0.0880
 7106W        W10850   1.382   4.366  11.582 -0.0480  0.1640 -0.1077
 7107W        W10851   0.402   7.653   8.771  0.2159 -0.1734 -0.1461
 7108W        W10852   7.029   8.492   2.155 -0.0759  0.0282 -0.2564
 7109W        W10853   1.177   2.837  10.689  0.3086  0.0554 -0.0437
 7110W        W10854   5.891   8.154  11.350  0.1718  0.3375  0.2115
 7111W        W10855   6.948   3.765  10.584 -0.0136 -0.1069  0.0039
 7112W        W10856   7.483   1.877   1.759  0.0245 -0.2409 -0.0953
 7113W        W10857   2.373   4.767   2.383  0.1614  0.0822 -0.2185
 7114W        W10858   3.364   7.491   9.930  0.1119  0.0112 -0.1387
 7115W        W10859   8.503   6.337   0.669  0.1122  0.0001 -0.1197
 7116W        W10860   3.491   3.977  11.745 -0.0693 -0.3199 -0.0364
 7117W        W10861   4.821   3.610   9.361  0.2313  0.1315  0.0821
 7118W        W10862   4.067   4.577   2.902 -0.0948 -0.1513 -0.4774
 7119W        W10863   6.657   7.434  12.174  0.3025  0.5285  0.2257
 7120W        W10864   4.319   8.888   0.613  0.0810  0.0188  0.0685
 7121W        W10865   3.735   9.148   9.927  0.1200  0.3577  0.3245
 7122W        W10866   0.581   7.434  10.137  0.2023  0.0071  0.1123
 7123W        W10867   5.792   3.612   9.723 -0.1082  0.0088 -0.2164
 7124W        W10868   4.692   6.429   0.479  0.1132  0.1096  0.1266
 7125W        W10869   2.131   3.544  12.183 -0.1589  0.1663  0.2100
 7126W        W10870   0.387   6.624  11.480 -0.2101  0.1325  0.1234
 7127W        W10871   9.598   6.669   8.794 -0.1666  0.1078 -0.3292
 7128W        W10872   0.640   1.455  11.393 -0.0949  0.1090  0.1039
 7129W        W10873   2.075   0.961   0.466  0.0683  0.3900 -0.0712
 7130W        W10874   9.797   1.510   1.366 -0.1732  0.2123  0.0293
 7131W        W10875   5.095   6.087   9.836  0.1737  0.2016  0.0457
 7132W        W10876   7.321   5.005   1.185 -0.0403 -0.1583 -0.2212
 7133W        W10877   9.245   7.047  12.315  0.1430  0.0888  0.0892
 7134W        W10878   5.647   2.942   2.361  0.1542 -0.4608 -0.0540
 7135W        W10879   8.167   7.780   8.557 -0.0197 -0.0589  0.3800
 7136W        W10880   9.644   1.956  11.848  0.2649  0.1257  0.0762
 7137W        W10881   8.604   7.211   0.545 -0.0969  0.1922 -0.1081
 7138W        W10882   7.361   7.326  12.677 -0.2051  0.2845  0.0269
 7139W        W10883   3.459   2.126   1.309 -0.1446 -0.0687 -0.1534
 7140W        W10884   1.375   8.569  12.505  0.0297 -0.0977  0.0446
 7141W        W10885   1.912   5.160   0.838 -0.1356  0.3323 -0.1372
 7142W        W10886   4.005   4.953   1.702  0.0836  0.2149  0.2141
 7143W        W10887   6.964   6.532   0.843 -0.0259  0.2733 -0.1327
 7144W        W10888   8.158   6.911  12.356  0.1145  0.0810  0.0535
 7145W        W10889   6.944   3.356   2.008 -0.2669 -0.0654  0.1659
 7146W        W10890   8.017   7.075  10.227  0.0496 -0.0744  0.0672
 7147W        W10891   6.604   9.494   3.001  0.1210 -0.0013  0.0830
 7148W        W10892   3.956   4.100  11.563  0.2664 -0.0310 -0.0212
 7149W        W10893   4.272   2.831  12.733  0.0653 -0.0334 -0.0155
 7150W        W10894   2.096   4.523   1.581 -0.0664  0.2206  0.0376
 7151W        W10895   0.005   4.282   3.342  0.3191 -0.0873 -0.2596
 7152W        W10896   8.332   3.951   2.904  0.1443 -0.1580 -0.0430
 7153W        W10897   5.488   4.706  12.183  0.1012  0.2068 -0.0923
 7154W        W10898   3.270   9.490  12.328  0.2599  0.0908  0.0927
 7155W        W10899   0.111   6.493   2.149 -0.1594  0.0102  0.0327
 7156W        W10900   7.505   6.233   1.925 -0.3009  0.0926 -0.3388
 7157W        W10901   0.568   2.829  11.830  0.1785 -0.2707 -0.1010
 7158W        W10902   0.878   3.719   1.095 -0.3770 -0.0171  0.0667
 7159W        W10903   2.717   6.445  12.332 -0.2774 -0.3535  0.1364
 7160W        W10904   0.744   6.757   0.224 -0.4480 -0.0573 -0.1271
 7161W        W10905   1.386   6.984  12.428  0.4837  0.1812  0.0804
 7162W        W10906   6.251   1.805  10.681  0.2271  0.1773  0.0805
 7163W        W10907   5.825   6.316   8.836 -0.0792  0.1081 -0.2201
 7164W        W10908   2.544   7.456   0.871 -0.1330  0.3606 -0.0090
 7165W        W10909   7.227   2.594  12.010  0.0950  0.0248  0.0640
 7166W        W10910   0.145   7.581  11.952 -0.3176  0.1106 -0.1029
 7167W        W10911   2.136   7.496  10.337 -0.0263 -0.0533  0.1553
 7168W        W10912   2.281   0.517   3.548 -0.0758  0.0531  0.0462
 7169W        W10913   7.327   2.290   8.985 -0.1467  0.2383 -0.0565
 7170W        W10914   7.935   4.717   8.267  0.1056 -0.3931 -0.2443
 7171W        W10915   8.125   3.172   2.465 -0.0093  0.0729  0.0133
 7172W        W10916   4.943   1.866   9.040  0.1720 -0.0927 -0.0349
 7173W        W10917   5.656   3.217   2.807  0.1180  0.1058  0.0732
 7174W        W10918   6.918   0.853   3.253  0.2326  0.0485 -0.2074
 7175W        W10919   1.329   2.189  12.428 -0.2783  0.1032  0.1804
 7176W        W10920   8.890   1.829   3.749  0.0546  0.4250  0.2434
 7177W        W10921   3.194   2.589   9.204  0.2657  0.1034  0.0300
 7178W        W10922   9.080   5.590   0.168  0.1496 -0.0136  0.0713
 7179W        W10923   2.424   6.094   3.423 -0.1204  0.0388  0.0364
 7180W        W10924   6.467   3.362   2.191  0.1798 -0.2336 -0.1842
 7181W        W10925   2.244   0.201  12.166  0.0382  0.1067  0.0825
 7182W        W10926   1.556   6.603   9.919  0.0835 -0.0995  0.2424
 7183W        W10927   1.395   9.592   8.328 -0.0986 -0.1283  0.3826
 7184W        W10928   8.169   1.586   8.460 -0.1982  0.2000  0.0233
 7185W        W10929   0.636   7.615  12.295 -0.1052 -0.0406 -0.1770
 7186W        W10930   6.396   2.558   2.092 -0.0149 -0.0524 -0.1618
 7187W        W10931   6.041   3.275   2.462 -0.3429 -0.0161 -0.2503
 7188W        W10932   9.120   8.784   4.130  0.1727  0.3971 -0.0972
 7189W        W10933   1.812   7.295   2.213 -0.2821 -0.2030 -0.1951
 7190W        W10934   5.639   0.237   2.282  0.3126  0.1559 -0.2450
 7191W        W10935   9.152   1.773   1.593  0.0832 -0.4184  0.0230
 7192W        W10936   3.523   9.899  11.423 -0.0918  0.0694  0.1351
 7193W        W10937   7.799   8.303   9.418 -0.0618  0.3091  0.0121
 7194W        W10938   9.127   8.490  12.714 -0.0522  0.0817  0.0497
 7195W        W10939   8.822   0.885   4.003 -0.2146 -0.0298  0.2259
 7196W        W10940   5.291   2.079   3.855  0.1293 -0.0490 -0.0238
 7197W        W10941   8.434   8.190   2.809 -0.1853  0.1793  0.0497
 7198W        W10942   5.574   8.741   0.159 -0.0176  0.0129  0.3748
 7199W        W10943   4.576   9.825   0.483 -0.0197 -0.0865 -0.2130
 7200W        W10944   9.222   4.378   4.463  0.0361 -0.1867 -0.1057
 7201W        W10945   3.860   6.010   9.199  0.0621  0.2235 -0.3545
 7202W        W10946   3.626   6.371  10.188  0.0644 -0.1029  0.3390
 7203W        W10947   7.461   2.393   1.025 -0.0196  0.0102 -0.2804
 7204W        W10948   3.154   4.181  11.202  0.0941 -0.0901  0.3296
 7205W        W10949   8.494   6.684  10.573 -0.3245 -0.0404  0.3908
 7206W        W10950   1.243   9.717   0.785 -0.0009 -0.0157  0.1173
 7207W        W10951   2.939   3.037  10.415  0.1731 -0.0352  0.2064
 7208W        W10952   9.812   0.404   2.161  0.2421  0.0454  0.1881
 7209W        W10953   5.207   4.822   9.938  0.2778  0.0772  0.2058
 7210W        W10954   4.610   6.686  12.100  0.0476 -0.0555  0.0631
 7211W        W10955   8.642   6.511   0.212  0.2209  0.1471 -0.4223
 7212W        W10956   1.440   3.288   9.325  0.0595 -0.1258 -0.0259
 7213W        W10957   2.325   7.498   9.038  0.1730 -0.0313  0.0892
 7214W        W10958   3.903   4.968   9.101 -0.1147 -0.2884  0.1903
 7215W        W10959   7.349   5.940  10.145  0.1811  0.1194 -0.0280
 7216W        W10960   7.069   5.210   9.269 -0.1040 -0.1090  0.2820
 7217W        W10961   8.795   5.210   9.124  0.1056 -0.4321  0.0847
 7218W        W10962   1.391   0.987  10.324 -0.2160 -0.1489 -0.2181
 7219W        W10963   6.415   3.470   8.508 -0.0701 -0.0343  0.1618
 7220W        W10964   6.946   8.520  10.172  0.0773 -0.0790 -0.0199
 7221W        W10965   2.019   5.669  12.370 -0.3168 -0.0175 -0.0239
 7222W        W10966   4.470   3.040  10.466  0.1197  0.2506 -0.2945
 7223W        W10967   4.442   5.839  10.915 -0.0866  0.0458 -0.0184
 7224W        W10968   5.153   5.502  11.109  0.2313  0.0989 -0.2552
 7225W        W10969   6.847   4.541  11.990 -0.0464  0.2631 -0.0453
 7226W        W10970   8.389   0.649   1.497 -0.0671 -0.0434  0.1350
 7227W        W10971   8.868   5.014  10.694  0.0698  0.2434 -0.2318
 7228W        W10972   2.803   4.002   9.575  0.0479  0.0113  0.0758
 7229W        W10973   8.775   2.274  11.079 -0.1922 -0.2846 -0.1167
 7230ION    NA+10974   9.780   7.151   2.265  0.3857  0.1664  0.2931
 7231ION    NA+10975   9.899   4.029  12.598 -0.0257 -0.0152  0.2686
 7232ION    NA+10976   0.074   2.599   2.810 -0.0170  0.2376  0.2429
 7233ION    NA+10977   7.493   8.195   9.053  0.2274 -0.1048  0.0374
 7234ION    NA+10978   0.762   3.901  11.082  0.0282  0.0791 -0.1029
 7235ION    NA+10979   5.375   7.498   3.709 -0.1124 -0.0356 -0.1563
 7236ION    NA+10980   3.668   5.418   9.801  0.0285 -0.0269  0.0214
 7237ION    NA+10981   3.277   4.336   8.361  0.1036 -0.1445  0.2831
 7238ION    NA+10982   6.851   1.526   0.173 -0.0363 -0.0745  0.0693
 7239ION    NA+10983   6.372   9.891   8.596 -0.3867 -0.0075  0.0924
 7240ION    NA+10984   5.821   0.628  10.461 -0.0424 -0.0207  0.3018
 7241ION    NA+10985   9.408   0.508  11.749  0.0378  0.2404 -0.1925
 7242ION    NA+10986   0.164   9.910   2.121 -0.2226  0.0174 -0.0223
 7243ION    NA+10987   0.020   3.003  11.037 -0.2005  0.1818  0.0754
 7244ION    NA+10988   3.109   3.401   0.652 -0.0256 -0.2378 -0.1282
 7245ION    NA+10989   6.138   1.221   8.506  0.3155  0.1134  0.2464
 7246ION    NA+10990   1.492   8.157   2.768 -0.0600 -0.2905 -0.0708
 7247ION    NA+10991   3.274   4.810   4.618 -0.2669  0.0564  0.2252
 7248ION    NA+10992   5.346   9.218   8.618  0.1060  0.1636  0.0289
 7249ION    NA+10993   5.852   9.186   4.821 -0.0736 -0.1315  0.0469
 7250ION    NA+10994   6.583   7.417   8.578 -0.3887 -0.1306  0.0267
 7251ION    NA+10995   8.511   4.435  10.464  0.0252 -0.0156 -0.0066
 7252ION    NA+10996   0.403   0.142  10.721  0.2016  0.3139 -0.2216
 7253ION    NA+10997   6.843   9.777  12.226 -0.1315 -0.1157 -0.0470
 7254ION    NA+10998   1.997   2.460   1.477 -0.3025  0.1630  0.0317
 7255ION    NA+10999   0.813   1.532   9.814  0.1002  0.0371  0.2684
 7256ION    NA+11000   2.507   7.174  11.817  0.0702  0.2340 -0.0447
 7257ION    NA+11001   1.505   4.615  12.496  0.0792 -0.6829 -0.4322
 7258ION    NA+11002   8.554   1.615   4.177 -0.3431 -0.1088 -0.0286
 7259ION    NA+11003   5.447   4.227   0.016 -0.0575  0.0583 -0.0223
 7260ION    NA+11004   0.040   0.803   3.171  0.1043 -0.2096 -0.0077
 7261ION    NA+11005   3.197   3.803   1.376  0.0031 -0.1343 -0.2991
 7262ION    NA+11006   1.763   2.808   2.263  0.1498 -0.0874  0.1516
 7263ION    NA+11007   4.211   1.756   0.367  0.0003  0.1664 -0.1722
 7264ION    NA+11008   9.005   8.809   2.211  0.0357  0.3922 -0.1873
 7265ION    NA+11009   9.345   3.536  12.828 -0.0051 -0.0907 -0.2397
 7266ION    NA+11010   2.266   8.520  12.159  0.1116 -0.3477  0.1883
 7267ION    NA+11011   6.329   1.998   2.946  0.1746 -0.0429  0.2600
 7268ION    NA+11012   1.803   5.750  12.808 -0.4561 -0.0844  0.3077
 7269ION    NA+11013   4.016   3.325   9.823  0.1597 -0.0575 -0.1903
 7270ION    NA+11014   0.319   8.420  10.136 -0.3591 -0.3275  0.0149
 7271ION    NA+11015   5.409   1.751   8.061 -0.1492  0.0503  0.1187
 7272ION    NA+11016   2.072   0.290  11.587 -0.3322  0.1228 -0.0186
 7273ION    NA+11017   2.123   0.158   2.528 -0.2512  0.3336  0.3461
 7274ION    NA+11018   7.342   3.154   2.325 -0.4137  0.2685  0.1830
 7275ION    NA+11019   4.120   9.486   1.298  0.0435 -0.3814  0.1185
 7276ION    NA+11020   9.411   6.399   1.648  0.0824 -0.1459  0.3793
 7277ION    NA+11021   3.542   2.124  12.032  0.1617 -0.0493 -0.1316
 7278ION    NA+11022   6.108   3.091   3.189  0.1460 -0.3358  0.1520
 7279ION    NA+11023   3.602   9.105   0.205 -0.1295  0.0470 -0.1521
 7280ION    NA+11024   5.087   9.193   1.232 -0.1754 -0.1964  0.1402
 7281ION    NA+11025   7.783   2.913   4.418  0.1491  0.2289 -0.0456
 7282ION    NA+11026   0.223   1.707  11.274 -0.1357 -0.0630 -0.1455
 7283ION    NA+11027   4.312   0.576  11.243  0.1058 -0.2092 -0.1408
 7284ION    NA+11028   4.995   5.407   9.812  0.0115 -0.4121 -0.2232
 7285ION    NA+11029   3.815   4.407  10.231  0.1878  0.1067 -0.2771
 7286ION    NA+11030   9.592   3.189   3.751 -0.1077 -0.1678 -0.1106
 7287ION    NA+11031   3.968   6.462  12.302  0.1323 -0.0951  0.1692
 7288ION    NA+11032   1.088   2.538  12.115  0.2213 -0.0642  0.2285
 7289ION    NA+11033   4.413   8.990   8.387 -0.0713 -0.0078 -0.0007
 7290ION    NA+11034   3.755   8.224   1.485 -0.3945  0.0162  0.1667
 7291ION    NA+11035   1.954   0.206  10.069 -0.2287  0.0724 -0.2109
 7292ION    NA+11036   4.963   9.928  10.659  0.2440 -0.1252  0.0085
 7293ION    NA+11037   3.363   8.505  12.196 -0.3308 -0.0151 -0.1874
 7294ION    NA+11038   0.366   9.148   9.775  0.0424  0.1038  0.0319
 7295ION    NA+11039   0.175   6.468   4.032  0.1924 -0.0431  0.3220
 7296ION    NA+11040   1.085   3.934   9.319  0.2636  0.0351  0.2231
 7297ION    NA+11041   9.465   8.625   9.231 -0.1267 -0.0039  0.0811
 7298ION    NA+11042   2.659   9.072   4.182  0.2366 -0.2770  0.2707
 7299ION    NA+11043   3.230   7.666   4.404  0.2623 -0.0040  0.1878
 7300ION    NA+11044   8.644   9.910   4.613 -0.2991  0.1723  0.0833
 7301ION    NA+11045   4.961   0.998  11.555 -0.2553  0.1764 -0.0890
 7302ION    NA+11046   7.903   1.820   0.212 -0.2033 -0.1637  0.3613
 7303ION    NA+11047   7.498   4.385   8.319  0.2918 -0.0556  0.2427
 7304ION    NA+11048   1.738   4.315   1.342 -0.0962 -0.2933 -0.0177
 7305ION    NA+11049   8.546   1.010   1.034 -0.0977  0.4760  0.2816
 7306ION    CL-11050   1.644   5.324  12.654 -0.2484 -0.1634  0.0514
 7307ION    CL-11051   5.821   9.602   1.546 -0.0155  0.0796 -0.2182
 7308ION    CL-11052   0.926   1.435  10.907 -0.1594  0.0330 -0.1417
 7309ION    CL-11053   2.686   4.454  11.906  0.3539  0.0318 -0.2600
 7310ION    CL-11054   8.951   0.221  12.010 -0.0418  0.1571  0.2658
 7311ION    CL-11055   7.733   7.785   9.311  0.1038  0.1854  0.2259
 7312ION    CL-11056   7.232   8.543   9.359 -0.0679 -0.3108  0.0674
 7313ION    CL-11057   0.043   7.841   3.506  0.1439 -0.2817 -0.1416
 7314ION    CL-11058   7.348   6.034   3.886  0.1049 -0.1372  0.2150
 7315ION    CL-11059   9.372   1.858  10.174  0.2850 -0.1715  0.0865
 7316ION    CL-11060   0.612   9.689   4.001 -0.1129 -0.1662  0.1370
 7317ION    CL-11061   0.314   8.670   9.640  0.1370  0.0736 -0.0906
 7318ION    CL-11062   0.000   7.003   4.140 -0.3804 -0.1487 -0.2310
 7319ION    CL-11063   6.143   2.382   3.449 -0.0804  0.0379  0.1293
 7320ION    CL-11064   3.803   6.364   0.784 -0.0745  0.2055 -0.1346
 7321ION    CL-11065   4.584   5.305   9.309 -0.1607 -0.0337  0.0652
 7322ION    CL-11066   7.118   0.596   2.131 -0.0984 -0.2122 -0.1078
 7323ION    CL-11067   2.669   9.473   9.701 -0.1285  0.0961  0.1399
 7324ION    CL-11068   1.415   2.219   0.798  0.2162 -0.2990 -0.2949
 7325ION    CL-11069   4.886   7.284   3.855  0.0790 -0.0109  0.2581
 7326ION    CL-11070   2.489   7.986   8.916  0.2503  0.0412  0.1755
 7327ION    CL-11071   4.996   1.329   8.953 -0.3518 -0.1001  0.0973
 7328ION    CL-11072   6.169   0.932  10.172  0.1759 -0.1161  0.3800
 7329ION    CL-11073   7.996   0.901   1.191 -0.3342  0.0709 -0.2203
 7330ION    CL-11074   4.724   9.447  10.495 -0.1281 -0.1575 -0.2577
 7331ION    CL-11075   0.021   3.049   2.960  0.0603 -0.0851 -0.0412
 7332ION    CL-11076   2.313   7.694   3.090  0.0522  0.0439  0.0620
 7333ION    CL-11077   3.564   6.657  12.051 -0.0042  0.4814 -0.0444
 7334ION    CL-11078   5.439   5.020   9.492 -0.0760  0.1019  0.2634
 7335ION    CL-11079   0.171   2.006  10.936  0.2093  0.0484 -0.0221
 7336ION    CL-11080   0.468   9.228  10.265  0.1384  0.1501 -0.0888
 7337ION    CL-11081   3.697   8.655   0.051 -0.3655  0.2997  0.0311
 7338ION    CL-11082   7.024   1.264   8.981  0.0611 -0.0656 -0.1379
 7339ION    CL-11083   4.119   0.968  11.516  0.0263  0.2315  0.1657
 7340ION    CL-11084   0.276   0.621  10.822 -0.1410  0.1717  0.1403
 7341ION    CL-11085   4.108   9.313   9.103  0.1633  0.4286  0.1256
 7342ION    CL-11086   5.925   3.088   3.644  0.0972  0.0370 -0.1933
 7343ION    CL-11087   5.004   2.357  12.011  0.1511 -0.3732 -0.0230
 7344ION    CL-11088   3.016   9.093  12.088  0.0424  0.0557  0.0080
 7345ION    CL-11089   6.601   6.749   2.381 -0.1231  0.1200 -0.1025
 7346ION    CL-11090   2.000   0.414  10.600 -0.2087 -0.1026 -0.1621
 7347ION    CL-11091   1.491   3.874  11.514 -0.0149  0.0333  0.0640
 7348ION    CL-11092   4.074   3.644   8.625  0.3300  0.3676 -0.2748
 7349ION    CL-11093   5.340   0.676  11.402  0.0979  0.1765  0.1537
 7350ION    CL-11094   5.312   0.790  10.512  0.1515 -0.1514  0.1112
 7351ION    CL-11095   2.334   2.235   1.184  0.2893  0.1614 -0.2426
 7352ION    CL-11096   7.318   1.730   0.108 -0.0774  0.0516  0.2573
 7353ION    CL-11097   0.614   3.783  10.632 -0.0784 -0.0418  0.1167
 7354ION    CL-11098   6.966   6.952   9.836 -0.1786  0.3538  0.0051
 7355ION    CL-11099   0.313   7.592   2.427 -0.4013  0.3563 -0.0868
 7356ION    CL-11100   7.724   6.763   4.034  0.3091  0.0595 -0.2709
 7357ION    CL-11101   9.831   3.494  12.702 -0.2792 -0.3345  0.0184
 7358ION    CL-11102   7.399   4.160   0.932 -0.2953 -0.0185 -0.0845
 7359ION    CL-11103   8.021   2.208  12.817  0.0693 -0.0536  0.0877
 7360ION    CL-11104   4.456   4.204   2.954  0.3303  0.2888  0.1444
 7361ION    CL-11105   3.968   3.956  10.203 -0.3183 -0.2821  0.0884
 7362ION    CL-11106   2.270   4.223   1.222  0.0612 -0.0899 -0.4070
 7363ION    CL-11107   2.036   0.086   2.999 -0.1026  0.0461  0.2491
 7364ION    CL-11108   0.427   0.414   3.236  0.0198 -0.0325 -0.1184
 7365ION    CL-11109   9.511   6.802   1.942  0.1195  0.2485  0.0915
 7366ION    CL-11110   0.451   9.925  11.634 -0.0835  0.1857 -0.0722
 7367ION    CL-11111   6.330   4.153   8.959 -0.0368  0.1559  0.0692
 7368ION    CL-11112   4.073   9.110   1.000 -0.0231 -0.2377 -0.0403
 7369ION    CL-11113   3.246   5.923  10.321  0.1750  0.1657 -0.2934
 7370ION    CL-11114   8.476   4.104   9.619 -0.1963 -0.2742  0.1161
 7371ION    CL-11115   1.730   6.985   8.946  0.0920 -0.3200  0.0651
 7372ION    CL-11116   2.716   3.066   0.574 -0.0693 -0.0800 -0.0555
 7373ION    CL-11117   2.581   0.246  11.496 -0.4882  0.0424 -0.2005
 7374ION    CL-11118   2.277   2.106   2.115 -0.3727 -0.2401  0.0710
 7375ION    CL-11119   3.206   6.180   2.845  0.0376  0.1986 -0.1717
 7376ION    CL-11120   7.907   2.681   9.155 -0.2089 -0.0739 -0.2078
 7377ION    CL-11121   0.742   2.344  11.787  0.3837 -0.1574  0.0584
 7378ION    CL-11122   9.672   8.482   2.470 -0.0913  0.1892 -0.0442
 7379ION    CL-11123   1.358   2.979   2.559  0.2169 -0.0939  0.1212
 7380ION    CL-11124   3.610   5.014   9.495  0.0995  0.0746 -0.2389
 7381ION    CL-11125   1.784   4.807   1.280 -0.2889 -0.1512  0.0380
   9.94153   9.94153  12.86692
