Protein in INSANE! Membrane UpperLeaflet>POPC=1.0 LowerLeaflet>POPC=1.0
12914
    1AU     AUC    1   2.395   9.925   6.953 -0.0439  0.0452 -0.0022
    1AU     AUC    2   2.233  10.023   7.244 -0.0659 -0.0805  0.0241
    1AU     AUC    3   2.538  10.092   7.160  0.0023  0.0088 -0.0334
    1AU     AUC    4   2.201   9.790   6.733 -0.0540 -0.0371  0.1273
    1AU     AUC    5   2.582   9.840   6.702  0.0231 -0.0057  0.0233
    1AU     AUC    6   2.447   9.585   6.906 -0.0489 -0.0078 -0.0199
    1AU     AUC    7   2.449   9.768   7.198  0.0526  0.0675 -0.0749
    1AU     AUC    8   2.329  10.096   6.712  0.0725  0.0283 -0.0038
    1AU     AUC    9   2.305  10.272   7.007  0.1078  0.0106 -0.0087
    1AU     AUC   10   2.603  10.130   6.842  0.0394  0.0357  0.0636
    1AU     AUC   11   2.703   9.811   6.982  0.0058 -0.1084 -0.0251
    1AU     AUC   12   2.082  10.035   6.944 -0.0548  0.0290  0.0044
    1AU     AUC   13   2.169   9.730   7.073 -0.0317 -0.0951 -0.0075
    1AU     AUC   14   2.088  10.091   7.574 -0.0451 -0.0622 -0.0130
    1AU     AUC   15   2.390  10.219   7.513  0.0233 -0.0615 -0.0201
    1AU     AUC   16   2.725  10.258   7.406 -0.0507 -0.0093  0.0671
    1AU     AUC   17   2.048   9.655   6.450 -0.0656  0.0974 -0.1009
    1AU     AUC   18   2.396   9.676   6.415  0.0095 -0.0092 -0.0675
    1AU     AUC   19   2.755   9.708   6.425  0.0490  0.0387  0.0784
    1AU     AUC   20   2.493   9.251   6.891 -0.0067  0.0780  0.0017
    1AU     AUC   21   2.515   9.389   7.235  0.0073 -0.0729 -0.0596
    1AU     AUC   22   2.527   9.573   7.505 -0.1018  0.1131 -0.0829
    1AU     AUC   23   2.254  10.251   6.417 -0.0647  0.0051 -0.0242
    1AU     AUC   24   2.217  10.460   6.717 -0.0614  0.1045 -0.0286
    1AU     AUC   25   2.219  10.598   7.056  0.0085 -0.0823 -0.0619
    1AU     AUC   26   2.833  10.335   6.737  0.0116  0.0815 -0.0158
    1AU     AUC   27   2.978  10.033   6.874  0.0341  0.0466  0.0458
    1AU     AUC   28   3.011   9.714   7.048 -0.0367  0.0019 -0.1137
    1AU     AUC   29   1.765  10.132   6.932  0.0224 -0.0796  0.0807
    1AU     AUC   30   1.801   9.813   7.052  0.0477  0.1401  0.0045
    1AU     AUC   31   1.920   9.544   7.148  0.0390  0.0738 -0.0248
    1AU     AUC   32   2.791  10.333   7.063 -0.0961 -0.0412 -0.1167
    1AU     AUC   33   2.906  10.001   7.225 -0.0172 -0.0825  0.0215
    1AU     AUC   34   1.903  10.099   7.283  0.0323 -0.0126  0.0540
    1AU     AUC   35   1.989   9.805   7.376  0.0171  0.0886  0.0015
    1AU     AUC   36   2.856  10.006   6.548  0.0646 -0.1128 -0.0686
    1AU     AUC   37   2.921   9.685   6.715  0.0781 -0.0665  0.0465
    1AU     AUC   38   1.884   9.883   6.682 -0.0477  0.0312 -0.1218
    1AU     AUC   39   1.919   9.569   6.795 -0.1274 -0.0324  0.0141
    1AU     AUC   40   2.292   9.863   7.570  0.0081  0.0513 -0.0296
    1AU     AUC   41   2.654   9.912   7.459  0.0614  0.0077  0.0478
    1AU     AUC   42   2.281   9.441   6.645 -0.0529  0.0023  0.0120
    1AU     AUC   43   2.641   9.462   6.628 -0.0558  0.0429  0.0342
    1AU     AUC   44   2.143  10.391   7.323 -0.0512  0.0689  0.0256
    1AU     AUC   45   2.486  10.455   7.231 -0.0060 -0.0260 -0.0372
    1AU     AUC   46   2.147   9.971   6.384 -0.0099  0.0164  0.0653
    1AU     AUC   47   2.498   9.993   6.399 -0.1008 -0.0262 -0.0062
    1AU     AUC   48   2.752   9.455   6.974 -0.0642  0.0039  0.0226
    1AU     AUC   49   2.769   9.642   7.286 -0.0207 -0.0139 -0.0015
    1AU     AUC   50   2.550  10.316   6.573 -0.0535 -0.0706 -0.0257
    1AU     AUC   51   2.507  10.513   6.865 -0.0178  0.0435  0.0043
    1AU     AUC   52   2.193   9.401   6.994 -0.0526 -0.0160  0.0121
    1AU     AUC   53   2.204   9.527   7.351 -0.0044  0.0085  0.0500
    1AU     AUC   54   1.975  10.210   6.642  0.0678 -0.0328  0.0268
    1AU     AUC   55   1.990  10.366   7.002  0.0325 -0.0106 -0.0384
    1AU    AUSL   56   3.082  10.399   7.326 -0.0111 -0.0689 -0.0699
    1AU    AUSL   57   2.895  10.649   6.952 -0.0150  0.0751 -0.0878
    1AU     AUL   58   3.077  10.729   7.239 -0.0476 -0.0250  0.0537
    1AU       S   59   2.872  11.132   7.119 -0.3162  0.5980  0.3264
    1AU     LIG   60   3.018  11.508   7.209  0.1122 -0.3198  0.0813
    1AU     LIG   61   3.159  11.811   6.901 -0.0301 -0.1708  0.1604
    1AU     LIG   62   3.367  12.169   6.789  0.1880 -0.2299  0.3809
    1AU     LIG   63   3.390  12.558   6.842 -0.0132 -0.2764 -0.0939
    1AU     LIG   64   3.425  13.018   6.819 -0.0735  0.0023 -0.4592
    1AU       S   65   3.511  10.579   7.173 -0.0320  0.0894  0.1539
    1AU     LIG   66   3.916  10.889   7.124 -0.4266  0.0747 -0.1226
    1AU     LIG   67   3.926  11.358   7.120  0.2863 -0.0064  0.1117
    1AU     LIG   68   4.202  11.647   7.042 -0.3703  0.0012  0.0899
    1AU     LIG   69   4.313  11.968   7.294 -0.0210  0.0039  0.0426
    1AU     LIG   70   4.410  12.049   7.693 -0.0619 -0.0642  0.2765
    1AU    AUSL   71   3.171  10.334   6.885  0.0382 -0.0791 -0.0011
    1AU    AUSL   72   3.305   9.894   6.794  0.1317 -0.0951 -0.0180
    1AU     AUL   73   3.517  10.132   6.947  0.0729 -0.0775 -0.1042
    1AU       S   74   3.331  10.499   6.797 -0.2080  0.0291  0.3073
    1AU     LIG   75   3.692  10.626   6.719  0.1381  0.0588 -0.2823
    1AU     LIG   76   4.166  10.627   6.742 -0.0117  0.0742  0.0464
    1AU     LIG   77   4.608  10.465   6.627  0.2147  0.0571 -0.0170
    1AU     LIG   78   5.023  10.515   6.758 -0.1086  0.1688  0.1711
    1AU     LIG   79   5.215  10.140   6.732 -0.1260  0.0126  0.2955
    1AU       S   80   3.455  10.079   6.493  0.1313 -0.0096  0.0794
    1AU     LIG   81   3.978  10.236   6.443  0.1106  0.0058 -0.0784
    1AU     LIG   82   4.279  10.356   6.243  0.0390  0.3187 -0.2343
    1AU     LIG   83   4.558  10.115   5.958 -0.0333  0.1828  0.3197
    1AU     LIG   84   4.906  10.121   5.792 -0.0076  0.1734 -0.2126
    1AU     LIG   85   5.195   9.913   5.729 -0.2324 -0.2851 -0.1448
    1AU    AUSL   86   3.072   9.999   7.124 -0.0579 -0.0361 -0.0248
    1AU    AUSL   87   3.056  10.076   7.592 -0.0257  0.0279  0.0272
    1AU     AUL   88   3.313  10.174   7.380 -0.0572 -0.0448  0.0817
    1AU       S   89   3.534   9.640   7.086 -0.0066 -0.1010 -0.4408
    1AU     LIG   90   3.812   9.814   6.795 -0.4343  0.0776  0.3984
    1AU     LIG   91   4.277   9.963   6.693  0.0712  0.2496  0.1689
    1AU     LIG   92   4.616  10.023   6.415  0.1814  0.2826  0.0541
    1AU     LIG   93   5.079   9.989   6.233 -0.1107 -0.0288 -0.0734
    1AU     LIG   94   5.500   9.937   6.240  0.1170 -0.3684 -0.0195
    1AU       S   95   3.416   9.970   7.761 -0.2544  0.3243  0.2419
    1AU     LIG   96   3.769  10.229   7.757 -0.2384 -0.8535  0.4761
    1AU     LIG   97   4.011  10.501   7.592  0.0464 -0.1075 -0.1761
    1AU     LIG   98   4.303  10.933   7.569  0.1689  0.0223 -0.3129
    1AU     LIG   99   4.383  11.188   7.214  0.3176  0.2488 -0.2537
    1AU     LIG  100   4.328  11.134   6.717  0.2516 -0.1389 -0.2417
    1AU    AUSL  101   1.775   9.921   7.574 -0.0147  0.0166 -0.0733
    1AU    AUSL  102   1.885   9.510   7.608  0.0655  0.0488  0.1242
    1AU     AUL  103   1.629   9.694   7.806  0.0230 -0.1279 -0.0638
    1AU       S  104   1.309   9.625   7.469  0.1104 -0.0236 -0.0321
    1AU     LIG  105   0.757   9.561   7.286 -0.6390 -0.0468  0.2047
    1AU     LIG  106   0.284   9.376   7.095  0.0407 -0.1980  0.1724
    1AU     LIG  107   0.059   9.035   7.246 -0.0704 -0.0279 -0.1429
    1AU     LIG  108  -0.216   8.813   7.100 -0.1122  0.2617  0.1465
    1AU     LIG  109  -0.395   8.444   7.188 -0.0396  0.0115 -0.3467
    1AU       S  110   1.939   9.403   7.979  0.2379 -0.1250 -0.0290
    1AU     LIG  111   1.548   9.185   7.775  0.0686  0.0019  0.0403
    1AU     LIG  112   1.157   9.249   7.701 -0.0047  0.4392  0.6744
    1AU     LIG  113   0.981   9.057   7.350 -0.3113 -0.0506 -0.0005
    1AU     LIG  114   0.662   9.039   7.184  0.0367 -0.0773 -0.0481
    1AU     LIG  115   0.515   9.008   6.806  0.0725  0.2832 -0.1664
    1AU    AUSL  116   1.488  10.059   7.283  0.0883 -0.0444 -0.0056
    1AU    AUSL  117   1.746  10.331   7.572  0.0068 -0.0197  0.0312
    1AU     AUL  118   1.464  10.138   7.654 -0.0477 -0.0165  0.0778
    1AU       S  119   1.473  10.626   7.603 -0.0743  0.0917 -0.1956
    1AU     LIG  120   1.063  10.611   7.767  0.2022 -0.2086 -0.2467
    1AU     LIG  121   0.657  10.826   7.737 -0.2791  0.0447  0.0083
    1AU     LIG  122   0.570  11.220   7.471  0.2649  0.1289  0.4610
    1AU     LIG  123   0.364  11.623   7.230  0.0411  0.2756 -0.1412
    1AU     LIG  124   0.598  11.714   6.892 -0.1438 -0.0614 -0.2380
    1AU       S  125   1.206   9.784   7.532  0.2200  0.3922 -0.1187
    1AU     LIG  126   0.882  10.159   7.420 -0.0128 -0.2799  0.0260
    1AU     LIG  127   0.617  10.453   7.302 -0.2604  0.3343 -0.3238
    1AU     LIG  128   0.618  10.883   7.126 -0.1817 -0.0807 -0.1837
    1AU     LIG  129   0.286  11.174   7.088  0.0352 -0.3419 -0.0624
    1AU     LIG  130   0.107  11.332   6.712  0.1014 -0.2972  0.1971
    1AU    AUSL  131   1.728   9.676   7.230  0.0207 -0.0417  0.0619
    1AU    AUSL  132   1.572   9.910   6.893 -0.0091  0.0352  0.0628
    1AU     AUL  133   1.323   9.891   7.094 -0.0934  0.0435 -0.0675
    1AU       S  134   1.126   9.643   6.738 -0.1262  0.1273  0.3830
    1AU     LIG  135   0.721   9.456   6.662  0.2215  0.2007 -0.1068
    1AU     LIG  136   0.336   9.410   6.526  0.3477 -0.1251 -0.0355
    1AU     LIG  137  -0.071   9.201   6.749  0.1493 -0.1979 -0.3479
    1AU     LIG  138  -0.491   9.176   6.789  0.1358  0.1791 -0.2570
    1AU     LIG  139  -0.780   9.178   6.379  0.0043  0.1624  0.2811
    1AU       S  140   1.477   9.536   7.381  0.0075 -0.1828 -0.0989
    1AU     LIG  141   1.484   9.120   7.280  0.0175 -0.1047  0.0325
    1AU     LIG  142   1.464   8.883   6.972  0.0938 -0.1390  0.0263
    1AU     LIG  143   1.394   8.594   6.803  0.0513 -0.0172 -0.2034
    1AU     LIG  144   1.171   8.285   6.578  0.0641 -0.1809  0.2431
    1AU     LIG  145   0.975   7.937   6.626  0.2605 -0.3968  0.1096
    1AU    AUSL  146   3.153   9.754   6.399 -0.0276 -0.0481  0.1300
    1AU    AUSL  147   3.110   9.520   6.839  0.0470  0.0123  0.0052
    1AU     AUL  148   3.396   9.614   6.656 -0.0840 -0.0152  0.0135
    1AU       S  149   3.458   9.924   6.289  0.1067  0.2280 -0.1095
    1AU     LIG  150   3.757   9.960   6.089  0.2843 -0.1907  0.1390
    1AU     LIG  151   3.909  10.311   5.850  0.1702  0.3278 -0.2605
    1AU     LIG  152   4.318  10.536   5.766  0.1888 -0.3533 -0.6906
    1AU     LIG  153   4.760  10.636   5.724  0.2936  0.0954  0.1111
    1AU     LIG  154   4.962  10.895   5.955  0.0303  0.3326  0.0757
    1AU       S  155   3.244   9.139   6.616  0.6628 -0.3609 -0.1207
    1AU     LIG  156   3.643   9.096   6.840 -0.0742  0.0872 -0.4044
    1AU     LIG  157   4.002   8.982   6.828  0.3287 -0.4696 -0.1596
    1AU     LIG  158   4.414   8.980   6.821 -0.2743 -0.4792  0.0789
    1AU     LIG  159   4.847   8.857   7.000  0.3051 -0.0105 -0.1944
    1AU     LIG  160   5.230   8.833   6.911  0.2097 -0.0632  0.2138
    1AU    AUSL  161   2.991  10.107   6.575  0.0267  0.0109  0.0493
    1AU    AUSL  162   2.895  10.061   6.161  0.0152  0.1238  0.0285
    1AU     AUL  163   3.055   9.873   6.108  0.0342 -0.0515 -0.0597
    1AU       S  164   3.112  10.313   5.976  0.0833 -0.1342  0.0884
    1AU     LIG  165   3.437  10.611   5.741 -0.0471  0.5236 -0.0588
    1AU     LIG  166   3.434  11.017   5.535 -0.1065  0.1231 -0.2737
    1AU     LIG  167   3.582  11.409   5.275  0.2612  0.0570 -0.1919
    1AU     LIG  168   3.439  11.757   5.317 -0.4347  0.0171  0.1445
    1AU     LIG  169   3.073  11.911   5.398  0.1833  0.0386 -0.0103
    1AU       S  170   3.363  10.196   6.392  0.0340 -0.2233 -0.0513
    1AU     LIG  171   3.609  10.495   6.191 -0.1248 -0.1930  0.2703
    1AU     LIG  172   3.949  10.779   6.039 -0.2242 -0.3238  0.1070
    1AU     LIG  173   4.449  10.861   6.182  0.0151  0.1126 -0.3279
    1AU     LIG  174   4.775  10.991   6.567  0.0039  0.3485 -0.1007
    1AU     LIG  175   5.222  11.240   6.712 -0.0743  0.1544  0.0862
    1AU    AUSL  176   1.662   9.645   6.568  0.0846 -0.0603  0.0294
    1AU    AUSL  177   1.734  10.102   6.561 -0.0628 -0.1569  0.0316
    1AU     AUL  178   1.412   9.986   6.620  0.0964  0.0491 -0.1029
    1AU       S  179   1.226   9.563   6.536 -0.1279 -0.1725  0.0965
    1AU     LIG  180   0.976   9.284   6.276 -0.1584  0.2890 -0.1756
    1AU     LIG  181   1.040   8.968   5.998  0.3032 -0.0787  0.0519
    1AU     LIG  182   0.948   8.512   5.904  0.1334 -0.1733 -0.0449
    1AU     LIG  183   0.730   8.261   6.157 -0.0817 -0.6380 -0.0749
    1AU     LIG  184   0.626   8.280   6.593  0.0390  0.0425 -0.2973
    1AU       S  185   1.462  10.069   6.147 -0.3002 -0.0789  0.2035
    1AU     LIG  186   1.117  10.187   6.255  0.2459  0.0930  0.3725
    1AU     LIG  187   0.649  10.180   6.398 -0.1316  0.1005 -0.2990
    1AU     LIG  188   0.155  10.378   6.452  0.0278 -0.3250  0.2986
    1AU     LIG  189  -0.013  10.637   6.800 -0.0197 -0.2270  0.3684
    1AU     LIG  190  -0.179  10.884   7.066 -0.0489 -0.3939  0.0546
    1AU    AUSL  191   1.520   9.468   6.941 -0.0171 -0.0116 -0.0101
    1AU    AUSL  192   1.866   9.292   6.467  0.0774 -0.0493  0.0560
    1AU     AUL  193   1.568   9.264   6.651  0.0594 -0.1277 -0.0752
    1AU       S  194   1.731   8.954   6.303 -0.1115 -0.0776 -0.3673
    1AU     LIG  195   1.267   8.906   6.440 -0.0347  0.2125  0.1013
    1AU     LIG  196   0.827   8.729   6.474  0.2884  0.2525  0.0159
    1AU     LIG  197   0.577   8.894   6.260  0.0944 -0.1127  0.4231
    1AU     LIG  198   0.338   9.203   6.039  0.0476  0.2428 -0.3251
    1AU     LIG  199   0.400   9.399   5.642  0.0892 -0.0730  0.2550
    1AU       S  200   1.216   9.431   6.972 -0.2372 -0.2800  0.0121
    1AU     LIG  201   1.006   9.106   6.806 -0.3012  0.1434 -0.2719
    1AU     LIG  202   0.939   8.683   6.964  0.1009  0.1284  0.0839
    1AU     LIG  203   0.959   8.264   7.032 -0.3959 -0.1591  0.1755
    1AU     LIG  204   0.849   7.917   7.101  0.1437 -0.6063  0.0580
    1AU     LIG  205   0.718   7.547   7.298  0.0470 -0.1356  0.0231
    1AU    AUSL  206   2.531   9.808   7.840  0.1173  0.0032 -0.0646
    1AU    AUSL  207   2.083   9.847   7.845  0.0733 -0.0368  0.1266
    1AU     AUL  208   2.364   9.796   8.171  0.0132 -0.0197 -0.0222
    1AU       S  209   2.057   9.482   8.043  0.4450 -0.3021 -0.2001
    1AU     LIG  210   1.794   9.738   8.275  0.1545 -0.0739 -0.3309
    1AU     LIG  211   1.554   9.936   8.257  0.5231  0.2498 -0.0514
    1AU     LIG  212   1.164   9.952   8.021 -0.1196 -0.1564  0.2654
    1AU     LIG  213   0.842  10.175   7.900  0.0097 -0.0925 -0.2417
    1AU     LIG  214   0.592  10.461   8.025 -0.0255 -0.2306 -0.0978
    1AU       S  215   2.720  10.122   8.208 -0.0318 -0.0701 -0.1360
    1AU     LIG  216   2.926  10.286   8.587 -0.1103  0.1430 -0.0432
    1AU     LIG  217   3.296  10.368   8.601  0.2466 -0.0335  0.0033
    1AU     LIG  218   3.609  10.738   8.697  0.2092  0.3156  0.3259
    1AU     LIG  219   3.709  11.103   8.321  0.6773 -0.0107  0.2170
    1AU     LIG  220   3.923  10.965   7.892 -0.1099  0.2788 -0.0233
    1AU    AUSL  221   2.319  10.183   7.888  0.0426 -0.0400 -0.0389
    1AU    AUSL  222   2.527  10.543   7.691 -0.0088 -0.0216  0.0194
    1AU     AUL  223   2.268  10.514   7.978 -0.0239 -0.0113  0.0011
    1AU       S  224   2.593  10.210   8.056 -0.1430  0.0741 -0.2832
    1AU     LIG  225   2.472  10.512   8.414  0.1352  0.1805 -0.2152
    1AU     LIG  226   2.537  10.915   8.464 -0.0411 -0.0205  0.2004
    1AU     LIG  227   2.471  11.197   8.212  0.1455  0.0243 -0.0097
    1AU     LIG  228   2.320  11.386   7.974 -0.1919 -0.4547  0.3327
    1AU     LIG  229   1.980  11.669   7.812  0.2538 -0.1109 -0.1291
    1AU       S  230   2.384  10.967   7.789 -0.4905  0.1855 -0.1409
    1AU     LIG  231   2.775  11.224   7.776  0.0094 -0.0854 -0.0233
    1AU     LIG  232   2.879  11.701   7.718  0.2107  0.1092 -0.2211
    1AU     LIG  233   2.838  12.092   7.732  0.1156  0.1199 -0.1535
    1AU     LIG  234   2.657  12.358   7.465  0.1961 -0.0980  0.1488
    1AU     LIG  235   2.726  12.785   7.464  0.1725 -0.7305 -0.0567
    1AU    AUSL  236   2.644  10.142   7.605 -0.0094 -0.0463  0.0010
    1AU    AUSL  237   2.821   9.723   7.550  0.0543  0.0291  0.0628
    1AU     AUL  238   2.902   9.880   7.847 -0.0201  0.1696  0.1384
    1AU       S  239   3.309   9.758   7.877 -0.3774 -0.0166  0.4708
    1AU     LIG  240   3.392   9.331   7.931  0.2801 -0.1875  0.5026
    1AU     LIG  241   3.434   8.963   7.815 -0.0299  0.2938  0.1161
    1AU     LIG  242   3.624   8.771   7.540  0.1660  0.0256  0.1419
    1AU     LIG  243   3.729   8.684   7.144  0.1667 -0.1005  0.4449
    1AU     LIG  244   3.900   8.296   7.127 -0.5889 -0.1983 -0.0579
    1AU       S  245   2.811  10.311   7.935  0.1190  0.0906 -0.2826
    1AU     LIG  246   3.105  10.512   7.812  0.2962 -0.0160 -0.0315
    1AU     LIG  247   3.524  10.656   7.639 -0.2742  0.4355  0.1502
    1AU     LIG  248   3.660  11.010   7.503  0.0785 -0.1119 -0.0616
    1AU     LIG  249   3.473  11.509   7.441 -0.1704 -0.1622  0.0198
    1AU     LIG  250   3.610  11.952   7.448  0.0582 -0.0602 -0.0569
    1AU    AUSL  251   2.518   9.151   6.534 -0.0136  0.0846 -0.1257
    1AU    AUSL  252   2.903   9.427   6.480 -0.0488 -0.1034  0.1405
    1AU     AUL  253   2.798   9.037   6.332 -0.0332 -0.0236  0.0480
    1AU       S  254   3.213   9.253   6.437  0.2659  0.0331  0.1014
    1AU     LIG  255   3.476   9.410   6.120  0.3088 -0.0485 -0.1185
    1AU     LIG  256   3.814   9.467   5.866  0.0573 -0.0719 -0.2635
    1AU     LIG  257   4.268   9.372   5.974 -0.0542 -0.2633  0.1355
    1AU     LIG  258   4.642   9.580   6.038  0.1848  0.1242  0.2563
    1AU     LIG  259   4.915   9.517   5.829 -0.0888 -0.2778  0.3741
    1AU       S  260   2.512   8.802   6.623 -0.4601 -0.0178 -0.1381
    1AU     LIG  261   2.771   8.518   6.952  0.0419  0.1950 -0.1461
    1AU     LIG  262   2.708   8.404   7.359  0.0033 -0.1155  0.0865
    1AU     LIG  263   2.570   8.234   7.779  0.1258  0.4635  0.3865
    1AU     LIG  264   2.095   8.014   7.918  0.2825 -0.1491  0.1884
    1AU     LIG  265   2.127   7.801   8.290 -0.4079 -0.6987  0.2738
    1AU    AUSL  266   2.235   9.457   6.417  0.0084 -0.0322 -0.0090
    1AU    AUSL  267   2.144   9.058   6.714  0.0770  0.0057 -0.0349
    1AU     AUL  268   2.189   9.090   6.380 -0.0176 -0.0109 -0.0294
    1AU       S  269   1.868   9.378   6.029 -0.2444  0.2056 -0.3000
    1AU     LIG  270   1.431   9.361   6.154  0.0099  0.0449  0.0626
    1AU     LIG  271   1.084   9.735   6.064 -0.1152 -0.2022  0.2200
    1AU     LIG  272   0.583   9.668   6.156  0.0019  0.1490  0.1311
    1AU     LIG  273   0.272   9.992   6.095  0.2288 -0.1816 -0.1971
    1AU     LIG  274   0.250  10.404   5.879  0.2390 -0.2448  0.0874
    1AU       S  275   2.000   8.738   6.687  0.5438 -0.0610 -0.3070
    1AU     LIG  276   1.778   8.350   6.964  0.0965  0.3288 -0.1924
    1AU     LIG  277   1.717   7.953   6.922  0.1702 -0.2082 -0.1451
    1AU     LIG  278   1.335   7.788   6.932  0.3124 -0.3192 -0.0398
    1AU     LIG  279   1.097   7.442   6.848  0.0463  0.1976  0.0874
    1AU     LIG  280   0.934   6.965   6.761 -0.2881  0.5512  0.2193
    1AU    AUSL  281   2.592   9.419   6.186  0.0106  0.0205  0.0260
    1AU    AUSL  282   2.218   9.655   6.039 -0.0691 -0.0501  0.0795
    1AU     AUL  283   2.295   9.325   6.022  0.1189  0.0408  0.0133
    1AU       S  284   2.392   9.736   5.797 -0.1564 -0.0762  0.0130
    1AU     LIG  285   2.552   9.359   5.595 -0.2757  0.0185  0.1712
    1AU     LIG  286   2.598   8.997   5.823 -0.2370 -0.2577  0.2027
    1AU     LIG  287   2.433   8.739   6.037  0.1238  0.0046  0.1397
    1AU     LIG  288   2.416   8.429   6.368 -0.0782 -0.0989 -0.0439
    1AU     LIG  289   2.125   8.106   6.559 -0.0176  0.1575  0.1311
    1AU       S  290   2.850   9.409   6.020  0.4181  0.1573  0.2875
    1AU     LIG  291   3.111   9.136   5.928 -0.0736  0.0170 -0.3387
    1AU     LIG  292   3.312   8.890   6.061 -0.0619  0.0922 -0.0228
    1AU     LIG  293   3.641   8.986   6.364 -0.6032 -0.0114 -0.2501
    1AU     LIG  294   3.869   9.385   6.551  0.0111  0.1747 -0.4153
    1AU     LIG  295   4.087   9.701   6.293 -0.1423 -0.1175  0.3540
    1AU    AUSL  296   2.291  10.740   7.380  0.0069 -0.0728  0.1064
    1AU    AUSL  297   2.677  10.490   7.289  0.0091  0.0732  0.0067
    1AU     AUL  298   2.727  10.714   7.569  0.0529 -0.0318 -0.0097
    1AU       S  299   2.315  10.917   7.486 -0.0828  0.3468 -0.1498
    1AU     LIG  300   2.053  11.178   7.221 -0.1583  0.0783  0.1253
    1AU     LIG  301   1.888  11.605   7.337  0.0680 -0.2953  0.4623
    1AU     LIG  302   1.758  11.936   7.418 -0.0157 -0.0191  0.2352
    1AU     LIG  303   1.731  12.294   7.648  0.0576  0.1107 -0.2523
    1AU     LIG  304   1.559  12.184   8.038  0.1601 -0.1127  0.0018
    1AU       S  305   2.729  11.083   7.297 -0.3075  0.1387  0.0518
    1AU     LIG  306   2.486  11.419   7.408  0.1157 -0.0175  0.0356
    1AU     LIG  307   2.314  11.903   7.452 -0.1153  0.3675 -0.1774
    1AU     LIG  308   2.276  12.188   7.066  0.4045  0.1220 -0.0724
    1AU     LIG  309   2.368  12.602   7.047  0.0957 -0.2430  0.3483
    1AU     LIG  310   2.443  13.008   7.088 -0.2147  0.1165  0.3738
    1AU    AUSL  311   2.161  10.373   7.534  0.0486 -0.0695 -0.0196
    1AU    AUSL  312   1.877  10.679   7.330  0.0554  0.0560 -0.0413
    1AU     AUL  313   1.929  10.643   7.646  0.0107  0.0712  0.0494
    1AU       S  314   2.228  10.939   7.770  0.3537 -0.2668  0.0901
    1AU     LIG  315   1.883  11.158   7.690  0.1108 -0.0540 -0.1611
    1AU     LIG  316   1.496  11.453   7.640 -0.0895  0.1084  0.0420
    1AU     LIG  317   1.298  11.928   7.646  0.1012  0.0343 -0.1502
    1AU     LIG  318   1.159  12.259   7.652 -0.1626  0.0250  0.4139
    1AU     LIG  319   0.966  12.306   8.034  0.0518 -0.2030  0.0869
    1AU       S  320   1.535  10.808   7.528 -0.2620 -0.3739 -0.1151
    1AU     LIG  321   1.532  11.175   7.156  0.1381  0.0328 -0.2143
    1AU     LIG  322   1.428  11.673   7.082 -0.2298  0.1418  0.1029
    1AU     LIG  323   1.183  11.980   6.794 -0.2871  0.1663  0.3748
    1AU     LIG  324   0.771  12.194   6.859  0.4032  0.0443 -0.1903
    1AU     LIG  325   0.499  12.527   6.945  0.1597  0.0341  0.0286
    1AU    AUSL  326   2.272  10.088   6.081 -0.0885 -0.0376 -0.0972
    1AU    AUSL  327   1.919   9.828   6.286  0.0030 -0.0261  0.0491
    1AU     AUL  328   1.976   9.893   5.925 -0.0359 -0.0188 -0.0329
    1AU       S  329   1.600   9.818   6.166 -0.1897 -0.1859  0.0189
    1AU     LIG  330   1.487   9.673   5.802  0.1681 -0.1136  0.0931
    1AU     LIG  331   1.165   9.341   5.716  0.0941 -0.1407  0.4074
    1AU     LIG  332   0.803   9.115   5.592 -0.1168  0.1186  0.1782
    1AU     LIG  333   0.732   8.829   5.249 -0.0556 -0.0219  0.0273
    1AU     LIG  334   0.939   8.605   4.879  0.3402 -0.0285 -0.0075
    1AU       S  335   2.380   9.949   5.678  0.1847 -0.5478 -0.1283
    1AU     LIG  336   2.011  10.028   5.435  0.1353 -0.0893  0.3414
    1AU     LIG  337   1.587  10.107   5.510  0.0864 -0.5169 -0.4409
    1AU     LIG  338   1.237  10.266   5.784  0.2124 -0.1153 -0.0858
    1AU     LIG  339   1.155  10.752   5.964  0.2494  0.1369  0.1238
    1AU     LIG  340   0.884  11.133   5.792  0.3185 -0.0485 -0.0862
    1AU    AUSL  341   2.561   9.824   6.250  0.0125  0.0502  0.0293
    1AU    AUSL  342   2.560  10.255   6.358 -0.0449 -0.0919  0.0673
    1AU     AUL  343   2.649  10.204   6.020  0.0038 -0.0622  0.0061
    1AU       S  344   2.978  10.479   5.906 -0.0148 -0.0881 -0.1858
    1AU     LIG  345   2.927  10.824   5.728  0.1154 -0.0500  0.6689
    1AU     LIG  346   2.722  11.247   5.732  0.0254 -0.2485 -0.2029
    1AU     LIG  347   2.826  11.615   6.014 -0.0715 -0.0791 -0.2714
    1AU     LIG  348   2.900  11.557   6.438  0.0288 -0.1681  0.1795
    1AU     LIG  349   3.007  11.360   6.732  0.3692  0.1320 -0.0319
    1AU       S  350   2.588   9.795   5.834  0.2268  0.5012  0.3616
    1AU     LIG  351   2.889  10.013   5.561 -0.1977  0.2430 -0.2668
    1AU     LIG  352   3.073  10.245   5.429  0.1301  0.0177  0.0880
    1AU     LIG  353   2.940  10.429   5.089 -0.2021  0.1751 -0.3094
    1AU     LIG  354   3.140  10.615   4.754 -0.1885  0.4034  0.2394
    1AU     LIG  355   3.296  10.877   4.447 -0.0435 -0.1158 -0.1006
    1AU    AUSL  356   2.966   9.393   7.216  0.0532 -0.0488 -0.0494
    1AU    AUSL  357   2.818   9.205   6.834 -0.0192  0.0019  0.0306
    1AU     AUL  358   3.225   9.271   7.033  0.0562 -0.0557  0.0962
    1AU       S  359   2.948   9.022   6.775 -0.7643  0.5376 -0.0911
    1AU     LIG  360   3.056   8.622   6.508 -0.0762 -0.0549 -0.1204
    1AU     LIG  361   2.908   8.256   6.346 -0.0840  0.1971  0.1203
    1AU     LIG  362   2.783   7.855   6.547 -0.0604  0.4274  0.0532
    1AU     LIG  363   2.445   7.653   6.566 -0.2106  0.3433  0.1004
    1AU     LIG  364   2.374   7.430   6.229 -0.1565  0.3764 -0.0421
    1AU       S  365   3.144   9.062   7.423 -0.1486  0.1214 -0.0598
    1AU     LIG  366   3.541   9.244   7.421 -0.2449 -0.2859 -0.0118
    1AU     LIG  367   3.958   9.414   7.229 -0.0439 -0.2752  0.3697
    1AU     LIG  368   4.227   9.420   6.920  0.2850 -0.0103  0.0707
    1AU     LIG  369   4.654   9.625   6.850  0.0250 -0.4159 -0.3389
    1AU     LIG  370   4.760  10.071   6.843  0.0585  0.1584 -0.0379
    1AU    AUSL  371   2.700   9.055   7.198  0.1004 -0.0007  0.0131
    1AU    AUSL  372   2.357   9.139   7.480  0.0156  0.0068 -0.1151
    1AU     AUL  373   2.553   8.859   7.478  0.0418  0.0099 -0.1141
    1AU       S  374   2.956   8.927   7.249  0.0619  0.0713 -0.3029
    1AU     LIG  375   3.219   8.739   7.026  0.2168 -0.0701 -0.1530
    1AU     LIG  376   3.499   8.603   6.738 -0.1375  0.0973 -0.3331
    1AU     LIG  377   3.885   8.504   6.638 -0.0236  0.1393 -0.1557
    1AU     LIG  378   4.304   8.494   6.820  0.0239 -0.1534 -0.0518
    1AU     LIG  379   4.656   8.264   7.095  0.0162  0.0871  0.0088
    1AU       S  380   2.110   8.798   7.302 -0.1108  0.4984 -0.3808
    1AU     LIG  381   2.121   8.403   7.458  0.0282 -0.0027  0.1813
    1AU     LIG  382   1.964   7.981   7.352  0.3643  0.2291 -0.6174
    1AU     LIG  383   2.115   7.599   7.111 -0.0792  0.1094 -0.2641
    1AU     LIG  384   2.187   7.297   6.839 -0.0794 -0.4043  0.0164
    1AU     LIG  385   2.567   7.103   6.646 -0.0548  0.1831 -0.0807
    1AU    AUSL  386   2.727   9.315   7.571  0.0120 -0.0160 -0.0593
    1AU    AUSL  387   3.208   9.695   7.378 -0.0264  0.0120  0.0420
    1AU     AUL  388   3.035   9.457   7.605 -0.1026  0.1067 -0.0004
    1AU       S  389   3.429   9.718   7.553  0.2725  0.2230  0.3527
    1AU     LIG  390   3.764  10.000   7.343 -0.0623 -0.1201  0.1775
    1AU     LIG  391   4.018  10.255   7.173  0.0506  0.1842 -0.0032
    1AU     LIG  392   4.330  10.501   7.221  0.1560  0.1130  0.0283
    1AU     LIG  393   4.685  10.783   7.110 -0.2492 -0.2447 -0.0583
    1AU     LIG  394   5.152  10.887   7.069  0.2857 -0.0676 -0.2840
    1AU       S  395   2.980   8.994   7.585  0.1439  0.1150 -0.3804
    1AU     LIG  396   3.177   8.592   7.566  0.1199 -0.1056  0.0963
    1AU     LIG  397   3.086   8.190   7.649 -0.3285 -0.1750 -0.0857
    1AU     LIG  398   2.910   7.871   7.605  0.0921 -0.1488 -0.0387
    1AU     LIG  399   2.430   7.760   7.562 -0.3102  0.0516 -0.0412
    1AU     LIG  400   2.142   7.530   7.763 -0.2057 -0.1947 -0.4911
    1AU    AUSL  401   2.651  10.615   6.615  0.0425  0.0842  0.0365
    1AU    AUSL  402   2.508  10.807   7.027  0.0581  0.1058  0.1015
    1AU     AUL  403   2.844  10.839   6.715  0.0337  0.0083 -0.1044
    1AU       S  404   2.568  11.067   6.354 -0.5085 -0.1213  0.1565
    1AU     LIG  405   2.969  11.136   6.132  0.1520  0.2400 -0.1170
    1AU     LIG  406   3.320  11.353   6.370  0.1580  0.4719  0.1966
    1AU     LIG  407   3.735  11.510   6.338 -0.0614  0.1985 -0.0008
    1AU     LIG  408   4.094  11.588   6.543  0.0830  0.0364 -0.1524
    1AU     LIG  409   4.553  11.590   6.378  0.0537  0.0977 -0.2059
    1AU       S  410   2.554  11.004   7.085 -0.1908  0.0742 -0.4858
    1AU     LIG  411   2.543  11.297   6.799  0.0824 -0.4271  0.1465
    1AU     LIG  412   2.603  11.657   6.945 -0.2625  0.0770  0.0243
    1AU     LIG  413   2.699  11.990   7.131 -0.2939 -0.1160  0.2963
    1AU     LIG  414   2.900  12.323   7.006 -0.2157 -0.1249  0.4486
    1AU     LIG  415   2.888  12.769   6.871 -0.0649  0.1407 -0.0017
    1AU    AUSL  416   2.336  10.598   6.309 -0.0215 -0.0526 -0.0865
    1AU    AUSL  417   2.956  10.458   6.372 -0.0118  0.0430 -0.0440
    1AU     AUL  418   2.656  10.621   6.230  0.1398  0.0200 -0.0756
    1AU       S  419   2.411  11.041   6.299 -0.4056 -0.1167  0.2610
    1AU     LIG  420   2.410  11.532   6.364 -0.1829 -0.0711  0.0004
    1AU     LIG  421   2.217  11.849   6.471 -0.1115  0.0121  0.3360
    1AU     LIG  422   2.236  12.153   6.565  0.1286 -0.0990  0.0152
    1AU     LIG  423   1.952  12.494   6.634  0.1320 -0.0877 -0.4042
    1AU     LIG  424   2.193  12.892   6.612 -0.2109  0.1214 -0.2867
    1AU       S  425   3.095  10.543   6.141  0.0062  0.0049  0.2179
    1AU     LIG  426   3.330  10.808   6.438  0.1508 -0.0299  0.2599
    1AU     LIG  427   3.323  11.034   6.869  0.3471  0.2645  0.1523
    1AU     LIG  428   3.479  11.370   6.938 -0.0057 -0.0810  0.4832
    1AU     LIG  429   3.647  11.756   6.979  0.0487 -0.2453 -0.3659
    1AU     LIG  430   3.889  12.070   7.009  0.0172  0.0236 -0.2511
    1AU    AUSL  431   2.286  10.836   6.674 -0.0137  0.1099  0.0747
    1AU    AUSL  432   2.052  10.461   6.571 -0.0081 -0.0470 -0.0155
    1AU     AUL  433   2.062  10.748   6.292 -0.0189  0.0219 -0.0429
    1AU       S  434   1.782  10.908   6.623 -0.4003 -0.0317  0.0253
    1AU     LIG  435   1.775  11.307   6.451 -0.3418  0.0884 -0.0913
    1AU     LIG  436   1.644  11.782   6.520  0.0796  0.0224  0.1409
    1AU     LIG  437   1.706  12.177   6.291 -0.3268 -0.0007 -0.1963
    1AU     LIG  438   2.113  12.292   6.057  0.4167  0.2135  0.1595
    1AU     LIG  439   2.254  12.511   5.721 -0.0153 -0.2004 -0.0697
    1AU       S  440   2.321  11.060   6.504  0.3290 -0.0202  0.4086
    1AU     LIG  441   2.085  11.497   6.787 -0.1662 -0.1621  0.1985
    1AU     LIG  442   1.961  11.877   6.899  0.3100  0.3215 -0.0341
    1AU     LIG  443   1.666  12.169   6.886  0.0390  0.0158  0.0559
    1AU     LIG  444   1.453  12.540   7.070  0.0805 -0.1605  0.2328
    1AU     LIG  445   1.574  12.712   7.499 -0.0262 -0.3781 -0.0537
    1AU    AUSL  446   1.955   9.233   7.288  0.0368  0.0115  0.0658
    1AU    AUSL  447   2.302   9.534   7.617  0.0220 -0.0719  0.0068
    1AU     AUL  448   2.058   9.186   7.616  0.0426 -0.0110  0.0810
    1AU       S  449   1.907   8.825   7.356  0.1813 -0.0419  0.0942
    1AU     LIG  450   1.553   8.634   7.383 -0.0835  0.0029 -0.0233
    1AU     LIG  451   1.105   8.606   7.449 -0.2172 -0.1106  0.0828
    1AU     LIG  452   0.632   8.447   7.363 -0.1445 -0.2462  0.1513
    1AU     LIG  453   0.295   8.495   7.118  0.2617 -0.2118  0.1638
    1AU     LIG  454   0.261   8.596   6.700  0.4610 -0.1535 -0.0066
    1AU       S  455   2.276   9.427   7.915 -0.0304 -0.2335  0.4270
    1AU     LIG  456   2.444   9.060   7.954  0.0748  0.1836 -0.1484
    1AU     LIG  457   2.719   8.653   7.898 -0.0275  0.2284  0.0310
    1AU     LIG  458   2.968   8.373   8.109 -0.0990  0.3784  0.2205
    1AU     LIG  459   3.316   8.100   8.453 -0.0448 -0.1956 -0.0849
    1AU     LIG  460   3.583   7.778   8.588  0.0375 -0.4713 -0.1293
    1AU    AUSL  461   2.309   9.177   7.067 -0.0130 -0.0821 -0.0419
    1AU    AUSL  462   1.932   9.386   6.898  0.0128  0.0082  0.0542
    1AU     AUL  463   1.889   9.073   7.005 -0.0690  0.1041  0.0794
    1AU       S  464   2.270   8.780   7.109  0.3758 -0.1599  0.4282
    1AU     LIG  465   2.308   8.397   6.965  0.1100  0.0251 -0.2376
    1AU     LIG  466   2.463   8.049   6.939  0.2946 -0.2560 -0.2184
    1AU     LIG  467   2.816   7.772   7.097 -0.1811 -0.1798 -0.2176
    1AU     LIG  468   3.080   7.457   7.278 -0.1582 -0.0615  0.3976
    1AU     LIG  469   3.102   6.990   7.430 -0.1490 -0.1044 -0.2407
    1AU       S  470   1.754   8.830   6.582  0.1785  0.1303  0.0149
    1AU     LIG  471   1.676   8.375   6.470 -0.0770 -0.1536 -0.2616
    1AU     LIG  472   1.708   7.996   6.284 -0.1812  0.2945 -0.2126
    1AU     LIG  473   1.746   7.622   6.606  0.0330  0.0760  0.0392
    1AU     LIG  474   1.637   7.321   6.844  0.2413 -0.0742  0.1938
    1AU     LIG  475   1.526   6.997   7.064 -0.0630  0.2813 -0.0380
    1AU    AUSL  476   1.665  10.468   6.747 -0.0866  0.0103 -0.0367
    1AU    AUSL  477   1.919  10.274   6.214 -0.0304 -0.0010 -0.0349
    1AU     AUL  478   1.668  10.452   6.412  0.0266 -0.0362  0.0733
    1AU       S  479   1.625  10.197   6.005 -0.3297 -0.3157 -0.1524
    1AU     LIG  480   1.640  10.726   5.964 -0.2315  0.0931  0.1029
    1AU     LIG  481   1.527  10.977   6.155 -0.3272  0.0676 -0.0988
    1AU     LIG  482   1.182  11.093   6.298  0.1756 -0.0639 -0.0842
    1AU     LIG  483   0.871  11.034   6.451  0.2300  0.2945  0.1319
    1AU     LIG  484   0.732  11.243   6.776  0.1071 -0.2597  0.1008
    1AU       S  485   1.533  10.806   6.646  0.0663 -0.4723 -0.3545
    1AU     LIG  486   1.155  10.661   6.532 -0.0963  0.2037  0.3085
    1AU     LIG  487   0.760  10.550   6.704  0.1097  0.0715 -0.0118
    1AU     LIG  488   0.412  10.358   6.867  0.0469 -0.0157 -0.0323
    1AU     LIG  489   0.166   9.998   6.763 -0.0459  0.3204 -0.1810
    1AU     LIG  490  -0.174   9.683   6.936 -0.1285  0.1603 -0.2899
    1AU    AUSL  491   2.024  10.664   6.941  0.0111 -0.0135 -0.0835
    1AU    AUSL  492   1.773  10.302   7.114  0.0406  0.0609  0.0010
    1AU     AUL  493   1.671  10.669   7.087  0.0789 -0.0436  0.0452
    1AU       S  494   1.863  10.985   6.800  0.0662 -0.0844 -0.0048
    1AU     LIG  495   1.356  11.311   6.716 -0.1147  0.1393  0.3639
    1AU     LIG  496   1.201  11.559   6.495  0.0597  0.1724 -0.5930
    1AU     LIG  497   1.273  11.872   6.241  0.1778  0.1139  0.6637
    1AU     LIG  498   1.173  12.393   6.456  0.0068 -0.0851  0.4216
    1AU     LIG  499   1.038  12.756   6.763  0.3108 -0.2773 -0.0753
    1AU       S  500   1.337  10.548   7.340 -0.1769  0.4015 -0.0272
    1AU     LIG  501   1.248  10.413   6.960  0.0749 -0.1196 -0.0240
    1AU     LIG  502   0.971  10.171   6.771  0.1047  0.5502 -0.0363
    1AU     LIG  503   0.606   9.885   6.893 -0.1823  0.2516 -0.0121
    1AU     LIG  504   0.315   9.888   7.205 -0.2114 -0.3609 -0.1980
    1AU     LIG  505  -0.008   9.802   7.398 -0.2357 -0.0773  0.5833
    2POPC   NC3  506   7.412   4.324   8.837 -0.1343  0.1872 -0.2883
    2POPC   PO4  507   7.800   4.262   8.844 -0.3747  0.2198  0.2055
    2POPC   GL1  508   7.812   4.127   8.481 -0.0890  0.0070  0.0190
    2POPC   GL2  509   7.864   4.246   8.266 -0.0116 -0.1199  0.1574
    2POPC   C1A  510   7.884   3.788   8.121 -0.0413  0.2057 -0.3069
    2POPC   D2A  511   7.698   3.445   7.866 -0.3254 -0.3610 -0.2458
    2POPC   C3A  512   7.916   3.063   7.824  0.3832 -0.2950  0.1821
    2POPC   C4A  513   8.116   2.857   7.468 -0.1230 -0.1224  0.3690
    2POPC   C1B  514   7.930   4.290   7.788  0.1749  0.1612 -0.2460
    2POPC   C2B  515   7.880   4.328   7.319  0.3502 -0.0406  0.2233
    2POPC   C3B  516   7.932   4.695   7.073 -0.0382  0.0299 -0.2467
    2POPC   C4B  517   7.708   4.551   6.837  0.3251 -0.0460 -0.4411
    3POPC   NC3  518   1.319   4.303   8.909 -0.1026  0.1227 -0.0521
    3POPC   PO4  519   0.958   4.371   8.522 -0.3240 -0.2950 -0.2413
    3POPC   GL1  520   0.976   4.319   8.043 -0.0041 -0.1056 -0.1031
    3POPC   GL2  521   1.319   4.199   7.987 -0.2160 -0.1848 -0.3504
    3POPC   C1A  522   0.661   4.491   7.706 -0.0846  0.0521 -0.2143
    3POPC   D2A  523   0.649   4.270   7.318 -0.3572 -0.3357 -0.0444
    3POPC   C3A  524   0.992   4.032   7.116  0.1821 -0.1333  0.0686
    3POPC   C4A  525   1.063   3.933   6.634  0.0145  0.2401  0.1156
    3POPC   C1B  526   1.051   4.078   7.658  0.1904 -0.0110 -0.0273
    3POPC   C2B  527   0.734   3.839   7.544  0.0212  0.0112 -0.0996
    3POPC   C3B  528   0.446   3.794   7.177 -0.0802 -0.0187  0.0294
    3POPC   C4B  529   0.054   3.600   7.119  0.0533 -0.1681 -0.3375
    4POPC   NC3  530   7.034   6.302   9.022  0.1123  0.1004  0.0116
    4POPC   PO4  531   7.056   5.856   8.971 -0.2009 -0.1525  0.2460
    4POPC   GL1  532   7.135   5.950   8.515 -0.3046 -0.0215 -0.3487
    4POPC   GL2  533   6.913   5.898   8.315 -0.0379 -0.0384 -0.2804
    4POPC   C1A  534   7.218   6.401   8.252  0.1519  0.1113  0.0194
    4POPC   D2A  535   7.258   6.563   7.891  0.0545 -0.0388 -0.2073
    4POPC   C3A  536   7.097   6.365   7.497  0.2578 -0.2590  0.1374
    4POPC   C4A  537   6.980   6.502   7.027  0.0210  0.1569 -0.2370
    4POPC   C1B  538   6.828   6.189   8.099  0.1635  0.0251  0.1369
    4POPC   C2B  539   6.628   6.380   7.801 -0.1421  0.1264  0.0635
    4POPC   C3B  540   6.647   6.118   7.374 -0.0143 -0.0351 -0.1329
    4POPC   C4B  541   6.907   5.996   7.111 -0.0625  0.0443  0.0237
    5POPC   NC3  542   7.525  10.204   8.695 -0.0073  0.1773  0.2005
    5POPC   PO4  543   7.760  10.598   8.730 -0.0770  0.0738  0.2844
    5POPC   GL1  544   7.631  10.582   8.325  0.0464 -0.1051 -0.2893
    5POPC   GL2  545   7.987  10.650   8.206  0.3453 -0.1803 -0.2365
    5POPC   C1A  546   7.410  10.586   7.964  0.0118 -0.1402 -0.1546
    5POPC   D2A  547   7.344  10.691   7.570  0.2630  0.0390 -0.1522
    5POPC   C3A  548   7.611  10.891   7.328  0.0050  0.0209  0.2591
    5POPC   C4A  549   7.705  10.770   6.811  0.0707  0.1541 -0.0309
    5POPC   C1B  550   7.885  10.512   7.819 -0.0683  0.2092  0.1805
    5POPC   C2B  551   7.767  10.334   7.422  0.2232 -0.0818 -0.0064
    5POPC   C3B  552   7.725  10.158   7.042 -0.1205  0.1938  0.0895
    5POPC   C4B  553   7.448  10.018   6.750  0.0518 -0.2133  0.1685
    6POPC   NC3  554   5.319   3.163   8.892  0.0780 -0.0902  0.0284
    6POPC   PO4  555   5.380   2.759   8.918  0.1623  0.3851 -0.0918
    6POPC   GL1  556   5.267   2.724   8.454 -0.0761 -0.1325  0.1027
    6POPC   GL2  557   5.505   2.890   8.362 -0.2540 -0.1540 -0.0321
    6POPC   C1A  558   5.306   2.542   8.063  0.1295 -0.2555 -0.1617
    6POPC   D2A  559   5.351   2.329   7.601  0.0985 -0.0223  0.0062
    6POPC   C3A  560   5.154   2.059   7.469 -0.0074  0.0097 -0.2900
    6POPC   C4A  561   5.011   2.075   7.060  0.2536 -0.0674  0.1550
    6POPC   C1B  562   5.583   2.937   7.952 -0.1187  0.3684 -0.0291
    6POPC   C2B  563   5.524   2.774   7.625 -0.1873 -0.0743 -0.1104
    6POPC   C3B  564   5.454   2.998   7.181 -0.1598  0.0934 -0.0952
    6POPC   C4B  565   5.283   2.960   6.824  0.4011 -0.2148  0.0215
    7POPC   NC3  566   6.967   2.051   8.548  0.1252 -0.1684 -0.1128
    7POPC   PO4  567   7.421   1.741   8.576  0.1435  0.0533  0.3030
    7POPC   GL1  568   7.700   1.718   8.256  0.0012 -0.1895  0.0828
    7POPC   GL2  569   7.782   1.449   8.167  0.1074 -0.0377 -0.0440
    7POPC   C1A  570   7.682   1.910   7.985 -0.1770  0.2242  0.2867
    7POPC   D2A  571   7.683   2.329   7.867 -0.0812 -0.1570 -0.0740
    7POPC   C3A  572   8.076   2.570   7.865 -0.2702 -0.2782  0.1734
    7POPC   C4A  573   8.518   2.673   7.680  0.0236  0.0400 -0.1071
    7POPC   C1B  574   7.798   1.440   7.666  0.1357 -0.2894  0.0024
    7POPC   C2B  575   7.813   1.477   7.291  0.0437 -0.2824  0.0437
    7POPC   C3B  576   7.957   1.421   6.894 -0.1489  0.0908  0.1741
    7POPC   C4B  577   7.890   1.353   6.523 -0.1408  0.0692 -0.0515
    8POPC   NC3  578   0.488   6.548   8.723 -0.1043  0.2554 -0.1840
    8POPC   PO4  579   0.744   6.941   8.814  0.0228 -0.0184  0.0847
    8POPC   GL1  580   0.720   7.178   8.368  0.0453 -0.1705  0.1454
    8POPC   GL2  581   0.834   7.511   8.239  0.0419 -0.1691  0.0483
    8POPC   C1A  582   0.575   6.855   8.092  0.1543  0.0374  0.3235
    8POPC   D2A  583   0.428   6.811   7.666  0.0698  0.3210 -0.0805
    8POPC   C3A  584   0.032   6.862   7.682  0.0683 -0.0756 -0.0253
    8POPC   C4A  585  -0.254   6.901   7.310  0.0039  0.1706 -0.2453
    8POPC   C1B  586   0.615   7.492   7.855  0.1227  0.0129  0.0561
    8POPC   C2B  587   0.364   7.270   7.586  0.1708 -0.1447  0.0524
    8POPC   C3B  588   0.216   7.053   7.244  0.1883  0.0166 -0.0159
    8POPC   C4B  589   0.458   7.010   6.875  0.1315  0.3542  0.0281
    9POPC   NC3  590   5.687   7.278   8.889  0.2072  0.0098  0.1332
    9POPC   PO4  591   6.015   7.440   8.623 -0.2401  0.0533 -0.3379
    9POPC   GL1  592   6.053   7.600   8.176 -0.0458  0.4178 -0.0740
    9POPC   GL2  593   5.953   7.901   8.036 -0.0618  0.1440 -0.0206
    9POPC   C1A  594   6.404   7.791   7.848  0.0064 -0.0445  0.1757
    9POPC   D2A  595   6.754   7.987   7.615  0.0358  0.3950 -0.0605
    9POPC   C3A  596   6.898   8.519   7.600 -0.2101  0.1294 -0.0962
    9POPC   C4A  597   7.078   8.959   7.698 -0.1454  0.2065  0.1850
    9POPC   C1B  598   6.095   8.061   7.625  0.0185  0.2110 -0.1150
    9POPC   C2B  599   6.013   8.250   7.268  0.2223 -0.0488 -0.1574
    9POPC   C3B  600   6.136   8.339   6.900 -0.2078 -0.2949  0.0097
    9POPC   C4B  601   6.162   8.223   6.474 -0.1095  0.2164  0.2256
   10POPC   NC3  602   7.581   7.456   9.450 -0.0985  0.0984  0.0549
   10POPC   PO4  603   7.670   7.134   9.095  0.3656  0.1106  0.2210
   10POPC   GL1  604   7.671   7.020   8.568  0.2998 -0.2824  0.1107
   10POPC   GL2  605   7.886   7.073   8.280  0.1268  0.1238 -0.1650
   10POPC   C1A  606   7.726   6.607   8.303 -0.3631 -0.0531  0.0012
   10POPC   D2A  607   7.645   6.216   8.016  0.1787  0.2394  0.0467
   10POPC   C3A  608   7.335   5.976   7.999  0.1700 -0.0255  0.0923
   10POPC   C4A  609   7.028   5.813   7.750  0.1045  0.0353 -0.1510
   10POPC   C1B  610   7.720   7.427   8.110 -0.2282  0.1083 -0.0834
   10POPC   C2B  611   7.566   7.594   7.781  0.3009 -0.1386 -0.1571
   10POPC   C3B  612   7.216   7.696   7.539  0.0245 -0.0710 -0.0751
   10POPC   C4B  613   6.733   7.523   7.330  0.2162 -0.0164  0.1351
   11POPC   NC3  614   4.777   3.291   8.910  0.1665  0.4512 -0.0159
   11POPC   PO4  615   4.550   3.534   8.699  0.0302 -0.3660  0.2361
   11POPC   GL1  616   4.407   3.623   8.301 -0.2290  0.2697 -0.0618
   11POPC   GL2  617   4.053   3.456   8.262  0.0040 -0.3608  0.0611
   11POPC   C1A  618   4.599   3.779   8.003  0.2608  0.0037  0.0714
   11POPC   D2A  619   5.009   3.755   7.843 -0.1066 -0.0921 -0.1991
   11POPC   C3A  620   4.900   3.625   7.455 -0.0185  0.3375 -0.1546
   11POPC   C4A  621   5.026   3.340   7.167 -0.0754  0.0315  0.0167
   11POPC   C1B  622   3.730   3.355   8.014  0.1508 -0.1333 -0.3110
   11POPC   C2B  623   3.600   3.552   7.624  0.1117  0.3064 -0.1567
   11POPC   C3B  624   3.649   3.996   7.410 -0.0790  0.0197  0.1141
   11POPC   C4B  625   3.464   4.196   7.072 -0.1906 -0.1560  0.1144
   12POPC   NC3  626   8.085   5.028   8.784 -0.0816  0.0390 -0.2318
   12POPC   PO4  627   7.815   4.741   8.656 -0.0988  0.1355  0.1251
   12POPC   GL1  628   7.798   4.997   8.283  0.0427 -0.1101 -0.0993
   12POPC   GL2  629   8.008   4.757   8.135  0.1833 -0.3495 -0.2120
   12POPC   C1A  630   7.647   5.104   7.921 -0.2358  0.0099 -0.0387
   12POPC   D2A  631   7.661   5.240   7.516  0.1190  0.0297  0.1174
   12POPC   C3A  632   8.118   5.196   7.468  0.0693  0.0017  0.0642
   12POPC   C4A  633   8.374   5.039   7.265 -0.5115  0.2028  0.2142
   12POPC   C1B  634   8.187   5.204   8.011 -0.0886 -0.0413 -0.1986
   12POPC   C2B  635   8.356   5.566   7.778  0.2683 -0.1430  0.2018
   12POPC   C3B  636   8.525   6.012   7.548 -0.0359  0.0425  0.0867
   12POPC   C4B  637   8.574   6.352   7.563 -0.0403  0.0921  0.2005
   13POPC   NC3  638   7.777   1.317   8.669 -0.1535  0.1955  0.0030
   13POPC   PO4  639   7.609   0.867   8.747 -0.3954 -0.0331 -0.0209
   13POPC   GL1  640   7.578   0.883   8.331  0.6355 -0.1093 -0.1783
   13POPC   GL2  641   7.736   0.642   8.153  0.0202 -0.0205  0.1268
   13POPC   C1A  642   7.429   1.040   7.957 -0.1067  0.1298 -0.1128
   13POPC   D2A  643   7.283   1.406   7.763 -0.2654  0.1599 -0.1645
   13POPC   C3A  644   7.249   1.568   7.254  0.3159  0.1458 -0.1761
   13POPC   C4A  645   7.171   1.643   6.852 -0.0718  0.1204 -0.1942
   13POPC   C1B  646   7.646   0.624   7.756  0.0992 -0.0473 -0.1406
   13POPC   C2B  647   7.658   0.899   7.468 -0.2254 -0.0268 -0.1623
   13POPC   C3B  648   7.594   1.076   7.111  0.2190 -0.4687 -0.0159
   13POPC   C4B  649   7.435   1.197   6.711 -0.4071  0.3734  0.0463
   14POPC   NC3  650   4.311   6.136   8.687 -0.0635 -0.0053  0.0703
   14POPC   PO4  651   4.503   6.489   8.924  0.0498 -0.4407  0.2127
   14POPC   GL1  652   4.450   6.740   8.573 -0.0485  0.1897  0.0274
   14POPC   GL2  653   4.677   6.891   8.419  0.1646 -0.0747  0.2814
   14POPC   C1A  654   4.252   7.107   8.347  0.3471 -0.1075 -0.0882
   14POPC   D2A  655   4.234   7.085   7.886  0.1711 -0.1346  0.3313
   14POPC   C3A  656   4.514   6.877   7.781  0.1056 -0.1300 -0.0479
   14POPC   C4A  657   4.887   6.888   7.680 -0.0476  0.0250 -0.5577
   14POPC   C1B  658   4.603   7.327   8.045 -0.4188  0.1286 -0.1808
   14POPC   C2B  659   4.343   7.465   7.573 -0.2037 -0.3249  0.1476
   14POPC   C3B  660   4.068   7.376   7.183 -0.1434  0.0602 -0.1240
   14POPC   C4B  661   3.986   7.454   6.779  0.1354  0.0212 -0.2518
   15POPC   NC3  662   5.723   5.038   8.773 -0.2812  0.1074  0.0348
   15POPC   PO4  663   5.232   5.035   8.636 -0.1212 -0.1132 -0.3429
   15POPC   GL1  664   5.091   5.145   8.305  0.2329 -0.1369 -0.0197
   15POPC   GL2  665   4.793   4.978   8.284  0.1998  0.2818  0.0258
   15POPC   C1A  666   5.101   5.389   7.943  0.1245  0.1758  0.0710
   15POPC   D2A  667   5.198   5.300   7.586  0.0570  0.1705 -0.0081
   15POPC   C3A  668   5.095   5.033   7.198 -0.0766 -0.1089  0.0974
   15POPC   C4A  669   5.038   4.835   6.697 -0.0343 -0.1107 -0.2413
   15POPC   C1B  670   4.695   5.012   7.801 -0.0278  0.0329  0.1807
   15POPC   C2B  671   4.441   5.108   7.421  0.0885  0.1671  0.1288
   15POPC   C3B  672   4.226   5.160   7.128  0.1214  0.2254 -0.3461
   15POPC   C4B  673   4.080   4.948   6.615  0.1974  0.0067  0.1903
   16POPC   NC3  674   9.661   2.462   8.566  0.1141  0.1980 -0.1125
   16POPC   PO4  675   9.505   2.028   8.685  0.0334 -0.2720 -0.3405
   16POPC   GL1  676   9.758   1.824   8.472  0.0016 -0.1662 -0.0528
   16POPC   GL2  677  10.007   2.095   8.502  0.0422 -0.1026  0.2350
   16POPC   C1A  678   9.793   1.721   8.061  0.2060  0.1721  0.1154
   16POPC   D2A  679   9.963   1.644   7.696  0.2380  0.1477  0.1208
   16POPC   C3A  680  10.120   1.987   7.377  0.2681 -0.0681  0.0126
   16POPC   C4A  681  10.078   2.273   7.026 -0.1897 -0.0956 -0.2664
   16POPC   C1B  682  10.218   1.954   8.097 -0.3473 -0.1280  0.2876
   16POPC   C2B  683  10.549   1.991   7.761 -0.1929  0.0687 -0.1109
   16POPC   C3B  684  10.734   1.853   7.476  0.1233 -0.2969 -0.1447
   16POPC   C4B  685  10.808   1.662   7.230  0.0613  0.0708  0.1271
   17POPC   NC3  686   8.540   3.152   9.014  0.1354  0.1992  0.3411
   17POPC   PO4  687   8.401   3.548   8.786 -0.1386 -0.0576 -0.1264
   17POPC   GL1  688   8.394   3.318   8.492  0.0202  0.0785 -0.1508
   17POPC   GL2  689   8.572   2.930   8.536 -0.1991 -0.0083  0.0782
   17POPC   C1A  690   8.281   3.464   8.002  0.1048 -0.0121  0.0417
   17POPC   D2A  691   8.512   3.326   7.570  0.2116  0.0024  0.3159
   17POPC   C3A  692   8.482   3.235   7.168  0.1177 -0.0533 -0.3672
   17POPC   C4A  693   8.573   3.247   6.783 -0.0670  0.0296 -0.0815
   17POPC   C1B  694   8.667   2.634   8.188 -0.2041 -0.0238 -0.1895
   17POPC   C2B  695   8.920   2.288   7.935 -0.1642 -0.2511  0.0846
   17POPC   C3B  696   9.074   2.204   7.602 -0.2103  0.1420  0.2634
   17POPC   C4B  697   9.253   2.047   7.200 -0.0837 -0.0852 -0.2841
   18POPC   NC3  698   7.069   9.932   8.615 -0.1390  0.0669  0.2683
   18POPC   PO4  699   6.856   9.566   8.678  0.0545 -0.2355 -0.0828
   18POPC   GL1  700   6.889   9.562   8.251  0.2130  0.1328 -0.0036
   18POPC   GL2  701   6.780   9.825   8.160 -0.2487  0.2155 -0.1852
   18POPC   C1A  702   6.784   9.345   7.907  0.1522 -0.1438 -0.0590
   18POPC   D2A  703   6.566   9.497   7.542 -0.0356 -0.0644  0.4467
   18POPC   C3A  704   6.685   9.548   7.240  0.0201 -0.1684 -0.1601
   18POPC   C4A  705   6.621   9.386   6.832 -0.0821 -0.0879  0.0674
   18POPC   C1B  706   6.968   9.844   7.823  0.0786 -0.0791 -0.1451
   18POPC   C2B  707   7.107   9.827   7.396  0.1100  0.3022 -0.5355
   18POPC   C3B  708   7.020   9.987   7.009  0.0438  0.2633 -0.2935
   18POPC   C4B  709   6.962   9.766   6.707  0.0384  0.1040  0.3137
   19POPC   NC3  710   4.669   4.681   8.799 -0.2021 -0.0434 -0.0022
   19POPC   PO4  711   4.797   4.487   8.496  0.0270  0.1111 -0.0639
   19POPC   GL1  712   4.818   4.346   8.062 -0.1089  0.0073 -0.1492
   19POPC   GL2  713   4.908   4.593   7.901 -0.0012  0.2001  0.1187
   19POPC   C1A  714   4.685   4.181   7.746 -0.1019  0.0318  0.0493
   19POPC   D2A  715   4.473   4.010   7.208 -0.2517  0.0243  0.1209
   19POPC   C3A  716   4.582   3.540   7.101 -0.1371 -0.3726 -0.0313
   19POPC   C4A  717   4.671   3.171   6.784  0.0059  0.0556  0.0730
   19POPC   C1B  718   4.933   4.675   7.515  0.1141  0.1150 -0.0527
   19POPC   C2B  719   5.330   4.565   7.150  0.0738  0.1705 -0.0510
   19POPC   C3B  720   5.656   4.252   7.103  0.0757  0.0388 -0.0172
   19POPC   C4B  721   6.157   4.312   7.136  0.3277 -0.2595  0.1007
   20POPC   NC3  722   9.849   0.069   9.904 -0.0975  0.0876 -0.1526
   20POPC   PO4  723  10.186   0.044   9.555 -0.3118  0.0827 -0.0103
   20POPC   GL1  724  10.483  -0.152   9.285 -0.0451  0.0009 -0.1248
   20POPC   GL2  725  10.706  -0.497   9.404 -0.0786 -0.1298 -0.2385
   20POPC   C1A  726  10.542  -0.157   8.860 -0.1588 -0.0085  0.0584
   20POPC   D2A  727  10.262  -0.106   8.567 -0.1065 -0.1395 -0.0662
   20POPC   C3A  728  10.187  -0.296   8.178 -0.1183  0.1097 -0.0270
   20POPC   C4A  729  10.402  -0.332   7.712 -0.2905 -0.0886 -0.1335
   20POPC   C1B  730  10.785  -0.566   9.009  0.3773 -0.2330  0.1293
   20POPC   C2B  731  10.712  -0.735   8.545 -0.1414  0.0284  0.2527
   20POPC   C3B  732  10.385  -0.735   8.291 -0.1836  0.3045 -0.2410
   20POPC   C4B  733  10.222  -0.862   7.829  0.0721  0.1032 -0.2840
   21POPC   NC3  734   6.314   4.574   9.404 -0.1082  0.0863  0.3541
   21POPC   PO4  735   6.110   4.670   8.902  0.2700 -0.3926  0.2901
   21POPC   GL1  736   6.200   4.632   8.487 -0.3173  0.1491  0.1039
   21POPC   GL2  737   6.123   5.015   8.393  0.0015 -0.1363 -0.0589
   21POPC   C1A  738   6.244   4.493   8.020 -0.0356  0.0425 -0.4790
   21POPC   D2A  739   6.327   4.468   7.591 -0.2322 -0.1187  0.1038
   21POPC   C3A  740   6.702   4.638   7.353  0.3395  0.0537  0.3427
   21POPC   C4A  741   7.055   4.712   7.157 -0.1441  0.3045  0.3160
   21POPC   C1B  742   6.162   5.322   8.050 -0.0751 -0.2086  0.2851
   21POPC   C2B  743   6.159   5.644   7.735 -0.1478  0.0798  0.0996
   21POPC   C3B  744   6.127   5.749   7.346  0.0023 -0.4114 -0.1770
   21POPC   C4B  745   5.815   5.721   6.997 -0.0289  0.2061 -0.0919
   22POPC   NC3  746   1.184   2.276   9.279  0.1994  0.1341  0.0287
   22POPC   PO4  747   1.159   1.895   9.142 -0.4553 -0.2079  0.2211
   22POPC   GL1  748   1.159   1.665   8.628 -0.2087 -0.0716  0.1724
   22POPC   GL2  749   0.926   1.887   8.675 -0.0271 -0.0798  0.1013
   22POPC   C1A  750   1.323   1.356   8.400  0.1493  0.2483  0.4355
   22POPC   D2A  751   1.387   1.151   8.065 -0.0925 -0.3110 -0.0329
   22POPC   C3A  752   1.602   0.734   8.058 -0.2560  0.1524  0.1732
   22POPC   C4A  753   1.412   0.368   8.207  0.0656 -0.0228  0.1613
   22POPC   C1B  754   1.263   2.078   8.306 -0.3002  0.1287  0.2604
   22POPC   C2B  755   1.240   2.208   7.905  0.0551 -0.1866  0.1318
   22POPC   C3B  756   1.036   2.252   7.501  0.0610 -0.2741 -0.1740
   22POPC   C4B  757   0.801   2.320   7.207 -0.1994  0.3512  0.1745
   23POPC   NC3  758   7.417   0.475   8.552 -0.1317  0.1395  0.0291
   23POPC   PO4  759   7.171   0.070   8.576 -0.0716 -0.0589 -0.0290
   23POPC   GL1  760   7.045   0.289   8.226  0.0455 -0.1104 -0.0418
   23POPC   GL2  761   7.131   0.692   8.174 -0.0509  0.0058  0.4405
   23POPC   C1A  762   6.897   0.301   7.834  0.1352 -0.3331  0.2532
   23POPC   D2A  763   6.853   0.415   7.437  0.1946 -0.1050 -0.0277
   23POPC   C3A  764   7.149   0.627   7.272 -0.1200  0.0073  0.0484
   23POPC   C4A  765   7.400   0.689   6.913  0.2040  0.1106 -0.0271
   23POPC   C1B  766   7.119   0.727   7.766 -0.1636 -0.3487  0.0539
   23POPC   C2B  767   7.210   1.091   7.446 -0.1905  0.2654  0.0681
   23POPC   C3B  768   7.061   1.171   6.993  0.0783  0.3296  0.0457
   23POPC   C4B  769   6.944   0.953   6.586  0.0879 -0.1917  0.3047
   24POPC   NC3  770   0.718   0.859   9.397 -0.3470  0.1775  0.3276
   24POPC   PO4  771   0.421   1.232   9.212 -0.2167  0.2012 -0.0039
   24POPC   GL1  772   0.493   1.206   8.804 -0.1045 -0.1584  0.1744
   24POPC   GL2  773   0.481   1.523   8.687  0.1308 -0.2014 -0.0344
   24POPC   C1A  774   0.659   1.037   8.492 -0.2286  0.2947 -0.0967
   24POPC   D2A  775   0.693   0.648   8.141  0.2468  0.2342  0.0451
   24POPC   C3A  776   0.815   0.324   8.295  0.1761  0.3713 -0.0093
   24POPC   C4A  777   1.028  -0.054   8.264 -0.3493 -0.1875 -0.0798
   24POPC   C1B  778   0.730   1.526   8.354 -0.0553 -0.2687  0.0770
   24POPC   C2B  779   0.834   1.157   8.039 -0.2961 -0.1022  0.1144
   24POPC   C3B  780   0.967   1.000   7.580 -0.2913  0.0745 -0.1291
   24POPC   C4B  781   0.942   0.902   7.160  0.1708 -0.1156 -0.3152
   25POPC   NC3  782   8.363   8.661   8.653  0.2707  0.1019  0.4184
   25POPC   PO4  783   8.234   9.099   8.546 -0.1437 -0.1081  0.0326
   25POPC   GL1  784   8.320   9.268   8.087 -0.0014 -0.0502 -0.3093
   25POPC   GL2  785   8.524   9.671   8.149 -0.2107  0.2694  0.0494
   25POPC   C1A  786   8.336   9.286   7.670 -0.1096  0.0491  0.3194
   25POPC   D2A  787   8.054   9.165   7.393 -0.0023 -0.2000 -0.2842
   25POPC   C3A  788   7.998   8.829   7.155  0.1923 -0.1574  0.1115
   25POPC   C4A  789   7.792   8.429   7.225 -0.0789  0.0613 -0.1901
   25POPC   C1B  790   8.812   9.656   7.786  0.2943  0.2157  0.2520
   25POPC   C2B  791   8.694   9.834   7.297 -0.1295 -0.1120 -0.0119
   25POPC   C3B  792   8.506  10.122   7.118  0.0618  0.0387  0.0502
   25POPC   C4B  793   8.525  10.317   6.812  0.2022 -0.2992  0.2077
   26POPC   NC3  794   9.858   2.774   9.176  0.2867  0.0147  0.1901
   26POPC   PO4  795  10.117   2.757   8.870  0.1824  0.0939  0.2466
   26POPC   GL1  796  10.022   2.759   8.399  0.0814  0.1565  0.1454
   26POPC   GL2  797  10.016   2.468   8.123 -0.1546  0.1106 -0.1185
   26POPC   C1A  798  10.140   3.021   8.093 -0.0458 -0.1266 -0.0076
   26POPC   D2A  799   9.924   3.230   7.694 -0.0397  0.0591 -0.0305
   26POPC   C3A  800   9.597   3.052   7.526 -0.1383  0.1907 -0.1276
   26POPC   C4A  801   9.416   3.118   7.151  0.3913  0.1789 -0.1421
   26POPC   C1B  802   9.826   2.193   7.776  0.2464  0.1325 -0.0439
   26POPC   C2B  803   9.670   2.262   7.393 -0.1508  0.0048  0.0081
   26POPC   C3B  804   9.648   2.129   6.904 -0.3735 -0.0624 -0.1804
   26POPC   C4B  805   9.461   2.326   6.477 -0.3094  0.1475 -0.0310
   27POPC   NC3  806   0.075   7.357   9.245 -0.2974 -0.1205  0.1423
   27POPC   PO4  807   0.471   7.657   9.455 -0.2870  0.2363 -0.2495
   27POPC   GL1  808   0.554   7.854   9.003  0.2293  0.0845 -0.2802
   27POPC   GL2  809   0.900   7.941   9.002  0.0757  0.2453  0.2218
   27POPC   C1A  810   0.517   8.215   8.660  0.3275  0.0197 -0.2616
   27POPC   D2A  811   0.223   8.348   8.304  0.1422  0.2774 -0.0114
   27POPC   C3A  812   0.281   8.373   7.871 -0.2712  0.2118 -0.0218
   27POPC   C4A  813   0.018   8.330   7.475 -0.2914  0.1221 -0.0129
   27POPC   C1B  814   0.922   7.925   8.568  0.2571 -0.1476  0.0011
   27POPC   C2B  815   1.097   7.952   8.108 -0.2384 -0.2202 -0.0448
   27POPC   C3B  816   1.120   7.619   7.852 -0.1061  0.1129 -0.1838
   27POPC   C4B  817   1.145   7.345   7.453 -0.2433  0.0166  0.2508
   28POPC   NC3  818   5.281   1.261   8.693  0.2681 -0.0564  0.0260
   28POPC   PO4  819   5.572   1.016   8.494 -0.0459  0.1510  0.4885
   28POPC   GL1  820   5.238   1.138   8.083 -0.3851  0.0509  0.0969
   28POPC   GL2  821   5.318   1.319   7.919 -0.2093 -0.0099  0.0208
   28POPC   C1A  822   4.916   0.805   8.001 -0.2144  0.2789 -0.0979
   28POPC   D2A  823   4.835   0.507   7.807  0.2068 -0.2372  0.1728
   28POPC   C3A  824   4.883   0.745   7.307 -0.3016  0.0547  0.1518
   28POPC   C4A  825   4.743   0.885   6.885 -0.0156  0.2620 -0.2532
   28POPC   C1B  826   4.993   1.154   7.604 -0.2120 -0.2924  0.0267
   28POPC   C2B  827   4.855   1.284   7.238  0.1406 -0.0406 -0.1432
   28POPC   C3B  828   4.642   1.489   6.897 -0.1684 -0.1276  0.0992
   28POPC   C4B  829   4.324   1.556   6.612  0.1392  0.0007  0.2738
   29POPC   NC3  830   8.313   1.650   9.050  0.0134  0.1564  0.0018
   29POPC   PO4  831   8.717   1.764   9.008  0.1030  0.2953 -0.1091
   29POPC   GL1  832   8.705   1.820   8.652  0.5223  0.0806 -0.0687
   29POPC   GL2  833   8.874   1.479   8.482  0.0949  0.2201  0.1487
   29POPC   C1A  834   8.680   1.901   8.178  0.0194  0.2944 -0.0171
   29POPC   D2A  835   8.602   1.689   7.754  0.0018 -0.3675 -0.0870
   29POPC   C3A  836   8.748   1.795   7.384  0.1975  0.1351  0.0597
   29POPC   C4A  837   8.785   1.870   6.967  0.0730  0.0474  0.3363
   29POPC   C1B  838   9.019   1.544   8.095 -0.0377 -0.1218 -0.0668
   29POPC   C2B  839   9.094   1.562   7.691 -0.1227 -0.2722  0.1452
   29POPC   C3B  840   8.935   1.331   7.287 -0.0544  0.1260 -0.0084
   29POPC   C4B  841   8.942   1.297   6.881  0.0228 -0.0957  0.0292
   30POPC   NC3  842   3.299   4.885   8.375  0.1133  0.3988 -0.1220
   30POPC   PO4  843   3.779   4.901   8.459 -0.1875 -0.3386  0.1308
   30POPC   GL1  844   4.125   5.239   8.422  0.0304  0.0385 -0.0281
   30POPC   GL2  845   4.188   5.095   8.114  0.1216  0.3113  0.1472
   30POPC   C1A  846   4.187   5.661   8.176 -0.1308 -0.3012  0.2186
   30POPC   D2A  847   4.493   6.030   8.190 -0.0598  0.0276  0.2042
   30POPC   C3A  848   4.750   6.063   7.778  0.2064  0.0102  0.1843
   30POPC   C4A  849   5.140   5.816   7.660  0.0004  0.0426 -0.1797
   30POPC   C1B  850   4.063   5.321   7.706 -0.0207  0.0817  0.2114
   30POPC   C2B  851   4.269   5.562   7.359 -0.2203 -0.1846 -0.3653
   30POPC   C3B  852   4.368   5.713   6.979  0.0561 -0.0344 -0.1151
   30POPC   C4B  853   4.239   5.988   6.640  0.1615 -0.0614  0.2828
   31POPC   NC3  854   8.545   0.799   8.666 -0.0934  0.2701 -0.3259
   31POPC   PO4  855   8.145   0.988   8.768  0.3649  0.1060  0.0099
   31POPC   GL1  856   8.092   0.978   8.352  0.0992  0.0133  0.1037
   31POPC   GL2  857   8.298   0.857   8.196 -0.2352 -0.2348 -0.1337
   31POPC   C1A  858   7.924   1.050   7.935  0.2373  0.0416 -0.0285
   31POPC   D2A  859   8.198   0.884   7.595 -0.2243  0.0739  0.6456
   31POPC   C3A  860   8.056   1.017   7.165 -0.0043 -0.0951  0.3429
   31POPC   C4A  861   7.886   0.871   6.828 -0.2358  0.0959 -0.3237
   31POPC   C1B  862   8.118   0.481   7.871  0.2768 -0.0987 -0.0661
   31POPC   C2B  863   8.093   0.371   7.462 -0.1859 -0.0817 -0.5797
   31POPC   C3B  864   8.074   0.472   7.093  0.1879  0.2613 -0.1180
   31POPC   C4B  865   8.188   0.473   6.734  0.1517 -0.1388  0.0381
   32POPC   NC3  866   2.938   9.915  10.275  0.1332 -0.2833 -0.4014
   32POPC   PO4  867   3.383   9.805  10.333  0.1956 -0.0211  0.1138
   32POPC   GL1  868   3.254   9.743   9.889 -0.0812  0.0482  0.3670
   32POPC   GL2  869   3.205   9.462   9.768 -0.0739 -0.0454  0.1780
   32POPC   C1A  870   3.257   9.777   9.358 -0.0365  0.0808  0.0891
   32POPC   D2A  871   3.094   9.548   9.024  0.1959  0.0996 -0.0239
   32POPC   C3A  872   2.663   9.576   9.016  0.3215 -0.2141 -0.1146
   32POPC   C4A  873   2.365   9.876   9.126  0.1518 -0.1675 -0.0754
   32POPC   C1B  874   2.878   9.577   9.588  0.1090  0.0474  0.2050
   32POPC   C2B  875   2.427   9.565   9.505  0.2345  0.1570 -0.2868
   32POPC   C3B  876   2.277   9.278   9.219  0.0093  0.0720  0.1948
   32POPC   C4B  877   2.416   9.050   8.836 -0.0786 -0.0168  0.3915
   33POPC   NC3  878   9.582   5.569   8.988  0.0111 -0.2500  0.0627
   33POPC   PO4  879   9.739   6.028   9.012  0.1549 -0.1377 -0.0876
   33POPC   GL1  880   9.904   5.812   8.687 -0.1227  0.3950 -0.0963
   33POPC   GL2  881  10.222   5.564   8.667 -0.1901  0.0476 -0.0436
   33POPC   C1A  882   9.742   5.844   8.238 -0.0463 -0.0578 -0.0227
   33POPC   D2A  883   9.852   6.312   8.065  0.0435  0.1697 -0.1191
   33POPC   C3A  884  10.051   6.399   7.696 -0.1043 -0.0304  0.3420
   33POPC   C4A  885  10.099   6.320   7.142  0.3123 -0.2652  0.0829
   33POPC   C1B  886  10.177   5.544   8.211 -0.0246 -0.2807  0.0464
   33POPC   C2B  887   9.928   5.409   7.937  0.0067  0.0270 -0.0782
   33POPC   C3B  888   9.773   5.555   7.589 -0.0895 -0.0870 -0.1358
   33POPC   C4B  889   9.376   5.716   7.299 -0.0952  0.1582  0.1512
   34POPC   NC3  890   0.955   6.548   8.639 -0.3829 -0.1629 -0.3190
   34POPC   PO4  891   0.855   6.158   8.677  0.1632 -0.0249  0.4132
   34POPC   GL1  892   1.067   6.055   8.245  0.3819 -0.0954  0.4221
   34POPC   GL2  893   1.193   6.377   8.170 -0.0452 -0.1165 -0.2301
   34POPC   C1A  894   1.055   6.048   7.773  0.0044 -0.0075 -0.2529
   34POPC   D2A  895   1.182   6.220   7.446  0.0232 -0.0309 -0.1023
   34POPC   C3A  896   1.183   5.931   7.116 -0.1019 -0.1601  0.0733
   34POPC   C4A  897   0.856   5.783   6.933  0.2110  0.1512 -0.1539
   34POPC   C1B  898   0.972   6.593   7.927  0.4169  0.1242 -0.0272
   34POPC   C2B  899   0.817   6.561   7.415  0.0445 -0.0313 -0.4732
   34POPC   C3B  900   0.601   6.478   7.182 -0.0544 -0.2592 -0.0759
   34POPC   C4B  901   0.485   6.173   6.874 -0.0073  0.1554 -0.1104
   35POPC   NC3  902   1.423   4.699   8.536 -0.2007 -0.0666 -0.3357
   35POPC   PO4  903   1.803   4.447   8.605  0.0820 -0.0145  0.2570
   35POPC   GL1  904   1.713   4.471   8.210  0.0435 -0.0057 -0.0351
   35POPC   GL2  905   1.725   4.714   8.118 -0.0782  0.2102 -0.0588
   35POPC   C1A  906   1.859   4.084   8.001 -0.3157  0.0009 -0.0946
   35POPC   D2A  907   2.150   3.911   7.714 -0.2639  0.4229  0.1403
   35POPC   C3A  908   2.056   3.721   7.354 -0.2409  0.0529 -0.0335
   35POPC   C4A  909   2.289   3.548   7.045  0.1129  0.0625  0.0008
   35POPC   C1B  910   1.351   4.796   7.841  0.3372  0.1843  0.4403
   35POPC   C2B  911   1.171   4.594   7.501 -0.1783  0.1722 -0.0221
   35POPC   C3B  912   1.020   4.528   7.199 -0.0214 -0.3022  0.1060
   35POPC   C4B  913   0.831   4.407   6.821  0.2864  0.0898 -0.1176
   36POPC   NC3  914   5.592   8.215   9.154 -0.0924  0.1155 -0.1771
   36POPC   PO4  915   5.501   8.085   8.689  0.0633 -0.0721 -0.1131
   36POPC   GL1  916   5.479   8.140   8.175 -0.1998  0.0603  0.2002
   36POPC   GL2  917   5.449   7.924   7.955 -0.0500 -0.2052  0.1908
   36POPC   C1A  918   5.690   8.355   7.746 -0.0136  0.0621 -0.1933
   36POPC   D2A  919   5.486   8.570   7.340 -0.3065 -0.2308  0.0844
   36POPC   C3A  920   5.198   8.905   7.396  0.0081  0.0845  0.1696
   36POPC   C4A  921   5.033   9.310   7.154 -0.3987  0.1585 -0.0357
   36POPC   C1B  922   5.227   7.873   7.671  0.0085 -0.2186  0.0785
   36POPC   C2B  923   5.253   7.741   7.256  0.0360  0.0021 -0.2732
   36POPC   C3B  924   4.932   7.515   7.028  0.0843 -0.1168  0.2090
   36POPC   C4B  925   4.480   7.302   6.902  0.1607 -0.4384 -0.1240
   37POPC   NC3  926   3.767  10.428   9.826 -0.0348 -0.3738  0.1478
   37POPC   PO4  927   4.137  10.613   9.683  0.0398 -0.0676 -0.4852
   37POPC   GL1  928   3.882  10.610   9.327  0.2784  0.1435 -0.1311
   37POPC   GL2  929   4.030  10.372   9.202 -0.0098 -0.2721 -0.2599
   37POPC   C1A  930   4.030  10.835   8.858 -0.1483  0.1828 -0.1384
   37POPC   D2A  931   4.230  10.735   8.519 -0.0630  0.3349 -0.0464
   37POPC   C3A  932   3.885  10.593   8.269  0.0494  0.1613  0.0784
   37POPC   C4A  933   3.559  10.557   8.204 -0.1225  0.0239  0.0008
   37POPC   C1B  934   4.036  10.313   8.831  0.1228  0.0248 -0.0066
   37POPC   C2B  935   3.801  10.168   8.546 -0.0107 -0.1435 -0.1280
   37POPC   C3B  936   3.521  10.049   8.309 -0.3239  0.1693 -0.1288
   37POPC   C4B  937   3.192  10.137   8.176 -0.1191  0.0066  0.3224
   38POPC   NC3  938   4.906   5.695   9.083  0.1797 -0.0343 -0.1030
   38POPC   PO4  939   4.437   5.690   9.002 -0.2090 -0.0457 -0.1186
   38POPC   GL1  940   4.550   5.693   8.553 -0.1672 -0.1698 -0.1479
   38POPC   GL2  941   4.640   5.475   8.286 -0.1041  0.4695  0.1527
   38POPC   C1A  942   4.964   5.839   8.223 -0.2755 -0.0016 -0.1932
   38POPC   D2A  943   5.288   6.186   8.338  0.3096 -0.1150  0.1277
   38POPC   C3A  944   5.646   6.154   8.041  0.0050  0.0594  0.1446
   38POPC   C4A  945   5.893   5.796   8.135 -0.0830  0.0461 -0.1914
   38POPC   C1B  946   4.581   5.576   7.796 -0.0558 -0.1412 -0.0053
   38POPC   C2B  947   4.782   5.610   7.344 -0.5052 -0.0864 -0.0342
   38POPC   C3B  948   5.221   5.551   7.132  0.1444  0.1287  0.1168
   38POPC   C4B  949   5.384   5.235   6.875 -0.3768 -0.1065  0.1435
   39POPC   NC3  950   9.824   7.688   8.946 -0.1546  0.0277  0.4336
   39POPC   PO4  951   9.391   7.616   8.713 -0.0218  0.3562  0.1251
   39POPC   GL1  952   9.206   7.419   8.316 -0.1418  0.0962 -0.0490
   39POPC   GL2  953   9.375   7.346   8.148  0.3835 -0.0568  0.0978
   39POPC   C1A  954   8.956   7.542   7.875 -0.0814  0.0434 -0.1324
   39POPC   D2A  955   8.822   7.577   7.427  0.0381 -0.0129 -0.0389
   39POPC   C3A  956   8.424   7.329   7.274 -0.1648 -0.1601 -0.1869
   39POPC   C4A  957   8.359   6.983   7.057 -0.1514 -0.1207 -0.0662
   39POPC   C1B  958   9.800   7.419   7.870 -0.0877 -0.0595 -0.0861
   39POPC   C2B  959  10.019   7.785   7.746 -0.0746  0.1594  0.0457
   39POPC   C3B  960  10.152   7.997   7.431  0.1214 -0.0409  0.3916
   39POPC   C4B  961  10.443   8.008   7.066 -0.0469 -0.0281  0.1252
   40POPC   NC3  962   0.073   4.553   8.774 -0.1066 -0.1296 -0.1418
   40POPC   PO4  963  -0.372   4.540   8.865 -0.2058 -0.2366  0.1880
   40POPC   GL1  964  -0.432   4.368   8.430  0.1747  0.2488  0.1296
   40POPC   GL2  965  -0.201   4.512   8.349  0.1495  0.0343 -0.1093
   40POPC   C1A  966  -0.531   4.241   7.988 -0.1639  0.4714 -0.1689
   40POPC   D2A  967  -0.356   4.198   7.670  0.2205  0.0372  0.0854
   40POPC   C3A  968  -0.331   4.428   7.264  0.0182  0.0266 -0.0802
   40POPC   C4A  969  -0.230   4.788   7.085 -0.1450 -0.1031  0.0896
   40POPC   C1B  970   0.120   4.781   8.172 -0.0379  0.0373 -0.1350
   40POPC   C2B  971   0.434   4.949   7.858 -0.3154 -0.3743  0.1366
   40POPC   C3B  972   0.604   5.003   7.476  0.1576 -0.0160  0.1548
   40POPC   C4B  973   0.742   4.927   7.020  0.1719  0.0924  0.1226
   41POPC   NC3  974   1.385   3.110   9.036  0.2143 -0.1055 -0.2299
   41POPC   PO4  975   1.774   2.982   9.003  0.4547 -0.0163  0.1436
   41POPC   GL1  976   1.573   3.126   8.572  0.0237 -0.0991  0.0048
   41POPC   GL2  977   1.244   2.983   8.568 -0.0541 -0.0724 -0.1121
   41POPC   C1A  978   1.849   2.926   8.200 -0.0137  0.3168  0.2026
   41POPC   D2A  979   1.881   3.086   7.834  0.1640 -0.1298 -0.0600
   41POPC   C3A  980   2.265   3.368   7.657  0.3376  0.0385  0.3668
   41POPC   C4A  981   2.604   3.618   7.540 -0.0406 -0.0862 -0.3749
   41POPC   C1B  982   1.395   2.593   8.235  0.1924 -0.1313 -0.0447
   41POPC   C2B  983   1.544   2.634   7.841  0.1839 -0.1922 -0.2131
   41POPC   C3B  984   1.611   2.839   7.436  0.2288 -0.0935 -0.2200
   41POPC   C4B  985   1.591   2.893   7.020  0.4597  0.2042 -0.0193
   42POPC   NC3  986   9.061   2.156   8.919  0.0175  0.1519  0.2119
   42POPC   PO4  987   9.133   2.483   8.622  0.0503  0.1036 -0.3943
   42POPC   GL1  988   9.264   2.481   8.273 -0.0236  0.1008  0.1181
   42POPC   GL2  989   9.556   2.192   8.201  0.0579  0.1020 -0.0122
   42POPC   C1A  990   9.481   2.543   7.865 -0.0663  0.1160  0.1984
   42POPC   D2A  991   9.287   2.583   7.367  0.5171  0.3603 -0.0802
   42POPC   C3A  992   8.907   2.570   7.152 -0.0632  0.2161 -0.2096
   42POPC   C4A  993   8.532   2.786   6.943  0.2105  0.0085  0.2128
   42POPC   C1B  994   9.360   1.926   7.902 -0.2489  0.1465 -0.0747
   42POPC   C2B  995   9.529   1.769   7.571  0.3420  0.0349 -0.0294
   42POPC   C3B  996   9.650   1.765   7.298 -0.1707  0.2852  0.0429
   42POPC   C4B  997   9.830   1.628   7.020 -0.0373 -0.0062  0.0932
   43POPC   NC3  998   1.458   1.138   9.701 -0.0880 -0.0888 -0.0762
   43POPC   PO4  999   1.207   0.962   9.328 -0.0652  0.0276 -0.2181
   43POPC   GL1 1000   1.626   1.024   9.163 -0.2284  0.0969  0.3768
   43POPC   GL2 1001   1.793   1.154   8.992 -0.0566  0.6705 -0.1762
   43POPC   C1A 1002   2.005   0.834   9.283  0.0251  0.0847  0.0050
   43POPC   D2A 1003   2.037   0.343   9.228  0.1329 -0.2910  0.0828
   43POPC   C3A 1004   1.637   0.045   9.088 -0.1971 -0.2361  0.2121
   43POPC   C4A 1005   1.527  -0.404   8.975 -0.0201  0.1990 -0.2678
   43POPC   C1B 1006   2.150   1.306   8.857 -0.2703  0.0530  0.1598
   43POPC   C2B 1007   2.434   1.362   8.529 -0.1301  0.1879  0.1178
   43POPC   C3B 1008   2.530   1.615   8.138 -0.1195  0.2340 -0.1857
   43POPC   C4B 1009   2.138   1.635   7.880 -0.1443 -0.2571  0.0678
   44POPC   NC3 1010   6.088   3.364   9.138 -0.0005  0.1665  0.0934
   44POPC   PO4 1011   6.543   3.229   8.865 -0.2331 -0.1172  0.2245
   44POPC   GL1 1012   6.386   3.306   8.458 -0.1047  0.1030  0.0076
   44POPC   GL2 1013   6.352   2.947   8.374  0.2207 -0.1132 -0.0242
   44POPC   C1A 1014   6.337   3.480   8.073  0.0098  0.4090 -0.2763
   44POPC   D2A 1015   6.215   3.604   7.680  0.0151 -0.1883  0.1333
   44POPC   C3A 1016   6.356   4.002   7.444 -0.0764  0.1151 -0.2011
   44POPC   C4A 1017   6.542   4.042   7.014  0.0220 -0.0570 -0.1644
   44POPC   C1B 1018   6.611   3.035   8.051 -0.0318 -0.2771 -0.0198
   44POPC   C2B 1019   6.769   2.785   7.707 -0.0315 -0.1416  0.3023
   44POPC   C3B 1020   7.064   2.882   7.356  0.1334  0.0285 -0.0429
   44POPC   C4B 1021   7.257   3.013   6.876 -0.0584 -0.0838  0.1097
   45POPC   NC3 1022   3.926   2.503   8.844  0.2281 -0.2053 -0.3071
   45POPC   PO4 1023   3.854   2.902   8.598  0.2314 -0.2795 -0.3109
   45POPC   GL1 1024   3.861   2.766   8.145 -0.0075 -0.1217 -0.1201
   45POPC   GL2 1025   4.152   2.943   8.051  0.2645  0.1832  0.0154
   45POPC   C1A 1026   3.669   2.866   7.806 -0.0593 -0.0224  0.0931
   45POPC   D2A 1027   3.572   2.722   7.337  0.0694  0.1711  0.0726
   45POPC   C3A 1028   3.859   2.828   7.040  0.3674  0.2240 -0.1476
   45POPC   C4A 1029   4.052   3.158   6.851 -0.0976 -0.0504  0.2260
   45POPC   C1B 1030   4.090   3.097   7.666 -0.2975 -0.1069 -0.0439
   45POPC   C2B 1031   3.907   3.245   7.295  0.0289 -0.1538 -0.0314
   45POPC   C3B 1032   3.625   3.441   7.111  0.1437 -0.3189  0.2120
   45POPC   C4B 1033   3.441   3.747   6.888 -0.2474  0.2034 -0.3959
   46POPC   NC3 1034   0.342   3.561   9.237 -0.1139  0.2300 -0.0078
   46POPC   PO4 1035   0.402   3.217   8.878  0.2305  0.0933 -0.5398
   46POPC   GL1 1036   0.498   3.196   8.457 -0.0473  0.1666  0.0179
   46POPC   GL2 1037   0.629   3.456   8.420  0.1019 -0.0787  0.0663
   46POPC   C1A 1038   0.508   3.185   7.928 -0.0523 -0.0663 -0.1353
   46POPC   D2A 1039   0.464   2.929   7.599  0.1768 -0.2951 -0.1803
   46POPC   C3A 1040   0.688   2.814   7.244 -0.2809 -0.0274  0.1964
   46POPC   C4A 1041   0.700   3.042   6.829  0.1188  0.0954  0.0964
   46POPC   C1B 1042   0.910   3.118   8.219  0.0912 -0.1841 -0.0612
   46POPC   C2B 1043   0.979   2.897   7.879  0.1463  0.2184  0.2826
   46POPC   C3B 1044   1.121   2.766   7.580 -0.2139 -0.0377 -0.2414
   46POPC   C4B 1045   1.292   2.523   7.156 -0.3325 -0.3896  0.2817
   47POPC   NC3 1046   5.677   9.322   8.528  0.1355 -0.0335 -0.3176
   47POPC   PO4 1047   6.071   9.185   8.640  0.2134 -0.0242  0.0923
   47POPC   GL1 1048   6.205   9.089   8.232  0.0364  0.0538  0.0536
   47POPC   GL2 1049   6.521   9.003   8.190  0.1488 -0.1892 -0.0391
   47POPC   C1A 1050   6.194   9.179   7.757 -0.1900 -0.0290 -0.0874
   47POPC   D2A 1051   6.075   9.305   7.483  0.2399  0.2679 -0.1672
   47POPC   C3A 1052   6.197   9.121   7.153  0.0811  0.3304 -0.0189
   47POPC   C4A 1053   6.424   8.771   6.929 -0.2773 -0.1368  0.0219
   47POPC   C1B 1054   6.553   8.867   7.737 -0.4134  0.1230 -0.1971
   47POPC   C2B 1055   6.700   8.908   7.346  0.0472  0.0976  0.0258
   47POPC   C3B 1056   7.171   8.874   7.245  0.2419  0.1100  0.0573
   47POPC   C4B 1057   7.575   9.051   7.425 -0.0757  0.0428  0.1820
   48POPC   NC3 1058   3.725   5.339   8.735 -0.0204  0.0249  0.1052
   48POPC   PO4 1059   3.541   5.703   8.802  0.1907 -0.0328 -0.2577
   48POPC   GL1 1060   3.646   5.657   8.288  0.1501  0.3054 -0.3407
   48POPC   GL2 1061   3.524   5.295   8.162  0.3249 -0.1295 -0.0121
   48POPC   C1A 1062   3.743   5.757   7.895 -0.1638  0.1443 -0.0133
   48POPC   D2A 1063   3.790   5.789   7.438  0.0481 -0.2780 -0.1929
   48POPC   C3A 1064   3.571   5.684   7.174 -0.2195 -0.1630 -0.0886
   48POPC   C4A 1065   3.174   5.710   7.072 -0.0750  0.2515 -0.0433
   48POPC   C1B 1066   3.629   5.322   7.722  0.0945  0.1598 -0.1859
   48POPC   C2B 1067   3.752   5.219   7.316  0.1750 -0.0240 -0.2433
   48POPC   C3B 1068   3.772   4.997   6.944  0.0867  0.5553 -0.2311
   48POPC   C4B 1069   3.733   4.525   6.844  0.1705 -0.2613 -0.4477
   49POPC   NC3 1070   8.544   6.910   8.968 -0.3143 -0.2746  0.2916
   49POPC   PO4 1071   8.563   7.175   8.554 -0.1703  0.1263  0.0723
   49POPC   GL1 1072   8.857   7.084   8.214  0.0156  0.3139  0.3658
   49POPC   GL2 1073   8.569   7.132   7.961 -0.1358 -0.4276 -0.0540
   49POPC   C1A 1074   9.033   7.095   7.667  0.0374 -0.2909 -0.1628
   49POPC   D2A 1075   9.350   7.377   7.613  0.1400 -0.0289  0.1594
   49POPC   C3A 1076   9.393   7.444   7.205  0.0245 -0.0606 -0.0133
   49POPC   C4A 1077   9.379   7.476   6.725  0.1350  0.0219 -0.0725
   49POPC   C1B 1078   8.515   6.851   7.541  0.0625 -0.1368  0.3445
   49POPC   C2B 1079   8.774   6.944   7.217 -0.2888 -0.0147  0.1324
   49POPC   C3B 1080   8.814   7.318   6.960 -0.2048 -0.2824 -0.0782
   49POPC   C4B 1081   8.667   7.760   6.881 -0.2673  0.2280 -0.1067
   50POPC   NC3 1082   0.639   8.613  10.512 -0.2730 -0.1145 -0.3421
   50POPC   PO4 1083   1.034   8.657  10.234  0.2274  0.0981 -0.2817
   50POPC   GL1 1084   1.339   8.764   9.900  0.1062  0.3186  0.6318
   50POPC   GL2 1085   1.381   9.116   9.811  0.0913  0.1299 -0.0803
   50POPC   C1A 1086   1.538   8.714   9.550 -0.1330  0.1751  0.1012
   50POPC   D2A 1087   1.676   8.362   9.391 -0.0424  0.1750 -0.3494
   50POPC   C3A 1088   2.096   8.319   9.090 -0.0963 -0.1089 -0.1936
   50POPC   C4A 1089   2.071   8.231   8.592 -0.0356  0.1026 -0.2090
   50POPC   C1B 1090   1.347   9.312   9.385  0.0848  0.0637  0.1208
   50POPC   C2B 1091   1.461   9.571   9.038 -0.2024  0.0801 -0.3227
   50POPC   C3B 1092   1.845   9.772   8.808 -0.0910  0.1004  0.0374
   50POPC   C4B 1093   2.179   9.573   8.608 -0.1104 -0.0819 -0.2742
   51POPC   NC3 1094   2.071   2.596   9.038 -0.0979  0.0995  0.2226
   51POPC   PO4 1095   1.869   2.205   9.055 -0.3945 -0.1478 -0.0288
   51POPC   GL1 1096   1.965   2.091   8.684 -0.1890 -0.1335 -0.1168
   51POPC   GL2 1097   1.723   1.985   8.459 -0.1948  0.0789 -0.2296
   51POPC   C1A 1098   2.327   2.132   8.265  0.0617 -0.0407 -0.0514
   51POPC   D2A 1099   2.462   2.023   7.876 -0.1956  0.2983 -0.1580
   51POPC   C3A 1100   2.124   2.119   7.576  0.1193 -0.0350  0.2495
   51POPC   C4A 1101   1.900   1.993   7.173 -0.2187  0.1203 -0.0514
   51POPC   C1B 1102   1.748   2.243   8.071  0.1424  0.2418 -0.0003
   51POPC   C2B 1103   2.065   2.525   7.860  0.1430 -0.1060  0.3223
   51POPC   C3B 1104   2.109   2.697   7.419  0.3212 -0.1398  0.0955
   51POPC   C4B 1105   1.965   2.484   7.057 -0.0388 -0.2649 -0.3181
   52POPC   NC3 1106   6.078   1.116   8.614 -0.0730 -0.2034  0.3138
   52POPC   PO4 1107   6.533   1.229   8.703  0.2778  0.0070  0.0905
   52POPC   GL1 1108   6.702   1.309   8.304 -0.1641 -0.3498 -0.0390
   52POPC   GL2 1109   6.907   1.166   8.108 -0.3219  0.1238  0.2859
   52POPC   C1A 1110   6.765   1.565   7.861  0.1179 -0.0199 -0.2832
   52POPC   D2A 1111   6.710   1.491   7.413  0.0847 -0.0092  0.1422
   52POPC   C3A 1112   6.333   1.506   7.276 -0.1719  0.2160  0.0841
   52POPC   C4A 1113   6.118   1.721   6.940  0.0771 -0.3758  0.1630
   52POPC   C1B 1114   6.667   1.090   7.783 -0.1136 -0.2452  0.1066
   52POPC   C2B 1115   6.591   0.936   7.366 -0.0215 -0.0310 -0.3170
   52POPC   C3B 1116   6.755   0.601   6.971  0.2620 -0.0807  0.3208
   52POPC   C4B 1117   6.590   0.372   6.558  0.1158  0.2253  0.3102
   53POPC   NC3 1118   7.881   5.433   8.494  0.1101 -0.0803 -0.0205
   53POPC   PO4 1119   8.313   5.542   8.621 -0.0626  0.5419 -0.0092
   53POPC   GL1 1120   8.232   5.676   8.229  0.0625  0.2585  0.0677
   53POPC   GL2 1121   7.875   5.655   8.081  0.1227  0.1323 -0.0375
   53POPC   C1A 1122   8.193   6.035   7.893  0.3420 -0.2087  0.1177
   53POPC   D2A 1123   7.878   6.232   7.546 -0.2522 -0.1756  0.1614
   53POPC   C3A 1124   7.608   6.532   7.568  0.0732  0.1534 -0.3467
   53POPC   C4A 1125   7.322   6.770   7.387 -0.2113 -0.1843 -0.2100
   53POPC   C1B 1126   7.810   5.724   7.638 -0.2260 -0.1088 -0.0305
   53POPC   C2B 1127   8.108   5.804   7.258  0.1628 -0.1713 -0.1949
   53POPC   C3B 1128   8.431   6.148   7.038 -0.2448  0.2210 -0.1053
   53POPC   C4B 1129   8.850   6.408   6.936 -0.1737  0.0551  0.1383
   54POPC   NC3 1130   4.902   9.488   8.982 -0.1032 -0.1541 -0.1539
   54POPC   PO4 1131   5.330   9.525   8.869 -0.1767  0.1299 -0.0028
   54POPC   GL1 1132   5.068   9.535   8.538 -0.1202 -0.0737  0.2469
   54POPC   GL2 1133   4.737   9.692   8.602  0.1423 -0.0680 -0.0622
   54POPC   C1A 1134   4.774   9.362   8.239  0.2525  0.0649  0.0794
   54POPC   D2A 1135   4.595   9.000   8.110  0.2656 -0.1327 -0.2646
   54POPC   C3A 1136   4.316   8.886   7.759 -0.0940 -0.1112 -0.1810
   54POPC   C4A 1137   4.141   8.975   7.302 -0.0433  0.0562 -0.0645
   54POPC   C1B 1138   4.679   9.840   8.232 -0.2018 -0.2079 -0.3655
   54POPC   C2B 1139   4.644   9.875   7.803  0.0946 -0.2203 -0.1715
   54POPC   C3B 1140   4.760   9.690   7.371  0.0251 -0.0304  0.0172
   54POPC   C4B 1141   4.584   9.264   7.232  0.2491 -0.0034 -0.2416
   55POPC   NC3 1142   2.548   5.942   8.711  0.0837  0.0898 -0.0512
   55POPC   PO4 1143   2.169   5.615   8.712  0.0336 -0.3889  0.1106
   55POPC   GL1 1144   2.168   5.760   8.198  0.1606 -0.2418 -0.1018
   55POPC   GL2 1145   1.939   5.536   8.043  0.2351  0.1360  0.0654
   55POPC   C1A 1146   2.311   6.208   7.937 -0.0500  0.2204  0.1492
   55POPC   D2A 1147   2.466   6.470   7.673  0.0875 -0.0884  0.1293
   55POPC   C3A 1148   2.625   6.365   7.366 -0.2276  0.3197 -0.0977
   55POPC   C4A 1149   3.043   6.529   7.373 -0.1737 -0.0115  0.7427
   55POPC   C1B 1150   1.994   5.885   7.770  0.2731 -0.1572  0.2489
   55POPC   C2B 1151   2.128   6.142   7.473  0.0555 -0.2507  0.1520
   55POPC   C3B 1152   2.135   6.521   7.274 -0.1117  0.0910 -0.2947
   55POPC   C4B 1153   2.303   6.820   7.004 -0.2103  0.0591  0.2067
   56POPC   NC3 1154   7.511   4.776   9.035  0.0903 -0.2737  0.5308
   56POPC   PO4 1155   7.594   5.137   8.817 -0.1419  0.2439  0.1208
   56POPC   GL1 1156   7.286   5.005   8.481 -0.0530 -0.1482 -0.2866
   56POPC   GL2 1157   7.373   5.336   8.309  0.2050 -0.0850  0.2084
   56POPC   C1A 1158   7.095   4.875   8.018  0.0046 -0.2786  0.0947
   56POPC   D2A 1159   7.124   4.572   7.629  0.0484  0.0449  0.1215
   56POPC   C3A 1160   7.408   4.262   7.471  0.0283 -0.1282  0.5442
   56POPC   C4A 1161   7.456   4.235   7.026 -0.2019  0.2515  0.1155
   56POPC   C1B 1162   7.373   5.469   7.860 -0.4459 -0.3961 -0.0522
   56POPC   C2B 1163   7.331   5.568   7.433  0.0770 -0.0569 -0.1438
   56POPC   C3B 1164   7.320   5.828   7.272 -0.5529 -0.1549  0.1631
   56POPC   C4B 1165   7.387   6.176   7.039 -0.1471 -0.2145  0.0956
   57POPC   NC3 1166   1.701   5.440   8.530 -0.3602  0.0586  0.0965
   57POPC   PO4 1167   1.764   5.789   8.924  0.1007 -0.2129 -0.0711
   57POPC   GL1 1168   1.764   5.952   8.478  0.1233 -0.1124 -0.2107
   57POPC   GL2 1169   1.551   5.841   8.262 -0.4208  0.1573  0.3385
   57POPC   C1A 1170   1.762   6.306   8.262  0.0065 -0.1209 -0.1879
   57POPC   D2A 1171   1.646   6.268   7.873 -0.0109  0.2240  0.0350
   57POPC   C3A 1172   1.682   6.466   7.449 -0.0937  0.0689  0.3117
   57POPC   C4A 1173   1.576   6.342   6.932  0.1312  0.1393 -0.0269
   57POPC   C1B 1174   1.474   5.806   7.824 -0.0371  0.3922 -0.2914
   57POPC   C2B 1175   1.691   5.925   7.313  0.1869 -0.0073  0.3226
   57POPC   C3B 1176   1.620   5.797   6.919  0.2482 -0.3650  0.0169
   57POPC   C4B 1177   1.772   6.115   6.513 -0.0312 -0.0277 -0.0681
   58POPC   NC3 1178   8.165   6.032   8.600  0.2783  0.2196  0.1049
   58POPC   PO4 1179   8.426   6.337   8.856 -0.1048 -0.1629  0.3733
   58POPC   GL1 1180   8.291   6.665   8.467 -0.1478  0.0838 -0.2511
   58POPC   GL2 1181   8.507   6.558   8.387 -0.1321  0.2191  0.4052
   58POPC   C1A 1182   8.208   6.672   8.000 -0.1771  0.1808 -0.1336
   58POPC   D2A 1183   8.015   6.855   7.707 -0.1036 -0.0719 -0.1687
   58POPC   C3A 1184   8.045   7.271   7.686 -0.2040 -0.0345  0.0975
   58POPC   C4A 1185   7.988   7.505   7.336  0.2178 -0.0165 -0.3018
   58POPC   C1B 1186   8.796   6.678   7.977 -0.0755  0.2330 -0.0771
   58POPC   C2B 1187   9.008   6.630   7.538 -0.0013  0.2264 -0.0185
   58POPC   C3B 1188   9.247   6.473   7.209  0.3047  0.2141 -0.1809
   58POPC   C4B 1189   9.494   6.474   6.748  0.3403 -0.0697 -0.1168
   59POPC   NC3 1190   3.726   7.107   9.354 -0.1717 -0.1451 -0.1480
   59POPC   PO4 1191   3.912   7.439   9.068  0.1916  0.1136 -0.2697
   59POPC   GL1 1192   3.961   7.818   8.912 -0.2061  0.1076  0.2491
   59POPC   GL2 1193   4.121   7.858   8.650  0.0122 -0.0670 -0.2104
   59POPC   C1A 1194   3.777   8.263   8.745  0.0563  0.5030  0.1518
   59POPC   D2A 1195   3.723   8.330   8.301  0.4166  0.1385  0.2006
   59POPC   C3A 1196   3.395   8.552   8.098 -0.0347 -0.0966 -0.1577
   59POPC   C4A 1197   3.087   8.883   8.163 -0.3712  0.1604  0.1898
   59POPC   C1B 1198   3.958   7.678   8.271 -0.3692  0.2585  0.1031
   59POPC   C2B 1199   3.493   7.890   8.073  0.1730  0.0376 -0.1708
   59POPC   C3B 1200   3.087   7.844   8.101 -0.0315 -0.0233  0.2869
   59POPC   C4B 1201   2.695   7.691   7.997 -0.1058  0.1632 -0.0763
   60POPC   NC3 1202   4.428   8.813   8.991  0.0996 -0.1341  0.2973
   60POPC   PO4 1203   4.812   8.800   8.879  0.0635  0.1328 -0.1693
   60POPC   GL1 1204   4.594   8.683   8.535  0.0026  0.3718  0.0720
   60POPC   GL2 1205   4.514   8.332   8.449  0.0587  0.0113 -0.0877
   60POPC   C1A 1206   4.238   8.659   8.291 -0.1465  0.1523  0.2155
   60POPC   D2A 1207   3.924   8.636   7.959  0.0060  0.2244  0.0342
   60POPC   C3A 1208   4.038   8.524   7.565 -0.2045  0.0143  0.1385
   60POPC   C4A 1209   4.371   8.530   7.294  0.2600 -0.1716  0.0221
   60POPC   C1B 1210   4.454   8.414   7.957  0.0444 -0.2362  0.0235
   60POPC   C2B 1211   4.371   8.132   7.597 -0.1665 -0.1421  0.1909
   60POPC   C3B 1212   4.063   7.984   7.512 -0.2331  0.0740 -0.2201
   60POPC   C4B 1213   3.837   7.639   7.776 -0.0855  0.0357  0.2993
   61POPC   NC3 1214   7.921   2.275   9.050  0.2175 -0.1422  0.0346
   61POPC   PO4 1215   8.227   2.666   8.886 -0.1881  0.1918  0.1108
   61POPC   GL1 1216   8.199   2.543   8.396 -0.2889 -0.1000  0.0113
   61POPC   GL2 1217   8.090   2.764   8.248  0.0499 -0.3887 -0.0058
   61POPC   C1A 1218   8.403   2.252   8.051  0.0582 -0.0151 -0.2658
   61POPC   D2A 1219   8.483   2.199   7.607 -0.1112 -0.1120 -0.0777
   61POPC   C3A 1220   8.141   2.390   7.413  0.1415  0.1254  0.0519
   61POPC   C4A 1221   7.699   2.344   7.368 -0.1609  0.1199 -0.0306
   61POPC   C1B 1222   8.410   3.015   8.037  0.2133 -0.0757 -0.0695
   61POPC   C2B 1223   8.790   3.325   7.967 -0.0621 -0.0330  0.1132
   61POPC   C3B 1224   9.234   3.372   7.906 -0.1398  0.1152 -0.1316
   61POPC   C4B 1225   9.533   3.515   7.505  0.0029  0.0182 -0.0302
   62POPC   NC3 1226   2.667   1.079  10.220  0.0273  0.2755  0.1298
   62POPC   PO4 1227   2.798   0.811   9.814 -0.0772 -0.1343 -0.2796
   62POPC   GL1 1228   2.709   0.745   9.372  0.4020 -0.0737 -0.0096
   62POPC   GL2 1229   2.840   0.358   9.306  0.2810  0.3567  0.0839
   62POPC   C1A 1230   2.418   0.913   9.038  0.1243  0.1316  0.2015
   62POPC   D2A 1231   2.279   0.894   8.657 -0.0302 -0.0896  0.0463
   62POPC   C3A 1232   1.971   0.613   8.435 -0.1178 -0.0198 -0.1713
   62POPC   C4A 1233   1.908   0.329   8.093 -0.0603  0.0031  0.1015
   62POPC   C1B 1234   2.474   0.443   8.978  0.0362  0.2229 -0.0462
   62POPC   C2B 1235   2.213   0.267   8.747  0.1242  0.0009  0.0467
   62POPC   C3B 1236   1.839   0.106   8.504 -0.1921 -0.0480  0.1116
   62POPC   C4B 1237   1.439  -0.097   8.574 -0.0755 -0.0328 -0.2015
   63POPC   NC3 1238   5.301   1.538   9.205 -0.2465 -0.4721  0.0425
   63POPC   PO4 1239   5.325   1.916   8.774 -0.2279 -0.5058  0.1522
   63POPC   GL1 1240   5.309   2.097   8.421 -0.0389 -0.2104 -0.2813
   63POPC   GL2 1241   4.997   2.206   8.320  0.2647  0.0472 -0.2005
   63POPC   C1A 1242   5.379   2.043   7.996 -0.1118  0.2680  0.0417
   63POPC   D2A 1243   5.449   1.717   7.670  0.3101 -0.0370  0.2866
   63POPC   C3A 1244   5.312   1.473   7.365  0.0593 -0.3416 -0.2325
   63POPC   C4A 1245   5.150   1.547   6.914  0.0890  0.0116  0.0630
   63POPC   C1B 1246   4.854   2.199   7.903  0.1557  0.1545 -0.0536
   63POPC   C2B 1247   4.512   2.519   7.897  0.0219  0.0530 -0.2516
   63POPC   C3B 1248   4.609   2.924   7.646 -0.3070 -0.1690  0.1300
   63POPC   C4B 1249   4.496   3.023   7.270  0.2340  0.0540  0.1354
   64POPC   NC3 1250   7.095   3.626   8.936  0.0277  0.4333 -0.0967
   64POPC   PO4 1251   7.069   4.046   9.025 -0.3464 -0.1721  0.3402
   64POPC   GL1 1252   6.925   4.116   8.669 -0.3207  0.1206 -0.5100
   64POPC   GL2 1253   6.744   3.843   8.570  0.1214  0.0717 -0.5108
   64POPC   C1A 1254   7.069   4.086   8.292 -0.1650 -0.0228 -0.0524
   64POPC   D2A 1255   7.416   4.151   7.986 -0.1654  0.0092  0.2179
   64POPC   C3A 1256   7.576   4.636   7.866 -0.0356  0.1764 -0.2648
   64POPC   C4A 1257   7.936   4.789   7.626 -0.2097 -0.0185  0.2760
   64POPC   C1B 1258   6.570   3.891   8.338 -0.0376  0.2137 -0.2646
   64POPC   C2B 1259   6.386   3.974   7.934 -0.0937  0.0931 -0.1147
   64POPC   C3B 1260   6.001   4.027   7.818 -0.3536 -0.4012  0.0290
   64POPC   C4B 1261   5.855   4.362   7.629 -0.0096 -0.2686  0.3610
   65POPC   NC3 1262   8.723   2.671   8.911 -0.1367  0.1478 -0.3253
   65POPC   PO4 1263   9.014   3.040   8.936 -0.1947  0.0418  0.0104
   65POPC   GL1 1264   9.034   2.950   8.377 -0.2132 -0.2050  0.1182
   65POPC   GL2 1265   9.391   2.988   8.323  0.1253 -0.1269 -0.4410
   65POPC   C1A 1266   9.144   2.861   7.897  0.0489  0.0643  0.0511
   65POPC   D2A 1267   9.017   2.997   7.455  0.1664 -0.1138  0.1227
   65POPC   C3A 1268   9.017   3.447   7.456  0.1073  0.1808 -0.0134
   65POPC   C4A 1269   8.778   3.737   7.733 -0.0290  0.2204 -0.3317
   65POPC   C1B 1270   9.626   2.951   8.060  0.0048 -0.1997 -0.1724
   65POPC   C2B 1271   9.911   2.727   7.695  0.2507 -0.0785 -0.3146
   65POPC   C3B 1272   9.887   2.808   7.231 -0.3453  0.1185 -0.4191
   65POPC   C4B 1273  10.115   2.937   6.886  0.0757  0.1609  0.0448
   66POPC   NC3 1274   1.382   9.873  10.777  0.1185 -0.3529  0.2887
   66POPC   PO4 1275   1.506  10.154  10.292 -0.0954 -0.0056 -0.2121
   66POPC   GL1 1276   1.680   9.949   9.889  0.2866  0.1020  0.0502
   66POPC   GL2 1277   1.965   9.913   9.592  0.4737  0.0007 -0.3742
   66POPC   C1A 1278   1.593   9.637   9.711 -0.1557  0.1117 -0.2726
   66POPC   D2A 1279   1.912   9.300   9.648 -0.2554 -0.2250 -0.0927
   66POPC   C3A 1280   1.795   9.069   9.341  0.2235 -0.0777 -0.1056
   66POPC   C4A 1281   1.940   8.832   9.088  0.0072 -0.3077  0.1049
   66POPC   C1B 1282   1.949   9.629   9.299 -0.0602  0.4115 -0.0247
   66POPC   C2B 1283   1.821   9.274   8.904 -0.1797 -0.0072  0.3959
   66POPC   C3B 1284   1.632   9.266   8.610  0.3670 -0.0615  0.0945
   66POPC   C4B 1285   1.437   9.410   8.190 -0.0123  0.4420  0.2914
   67POPC   NC3 1286   1.192   5.797   8.720  0.0445 -0.3810  0.0422
   67POPC   PO4 1287   1.245   5.515   8.437  0.3234 -0.4211  0.0416
   67POPC   GL1 1288   1.113   5.584   8.026 -0.2854  0.0423 -0.3981
   67POPC   GL2 1289   0.853   5.614   8.001 -0.2800  0.3497 -0.0289
   67POPC   C1A 1290   1.157   5.571   7.549  0.1181 -0.0045  0.1026
   67POPC   D2A 1291   1.430   5.468   7.265  0.0843 -0.2568  0.2864
   67POPC   C3A 1292   1.559   5.324   6.777 -0.0611 -0.1035  0.1387
   67POPC   C4A 1293   1.628   5.605   6.514  0.0491 -0.0146 -0.1513
   67POPC   C1B 1294   0.618   5.508   7.615  0.1379  0.2084 -0.1141
   67POPC   C2B 1295   0.236   5.341   7.476 -0.0741 -0.1358 -0.1133
   67POPC   C3B 1296   0.018   5.407   7.054 -0.3319  0.2349  0.1655
   67POPC   C4B 1297  -0.359   5.269   6.963  0.3822  0.2586 -0.2624
   68POPC   NC3 1298   0.238   6.362   9.168  0.0863  0.1847 -0.1094
   68POPC   PO4 1299   0.347   6.086   8.902  0.0938  0.0803  0.1000
   68POPC   GL1 1300   0.443   6.121   8.389 -0.0710 -0.1019 -0.2035
   68POPC   GL2 1301   0.650   6.432   8.277  0.0871  0.3828 -0.0732
   68POPC   C1A 1302   0.518   6.067   7.902  0.1335  0.0642  0.1380
   68POPC   D2A 1303   0.678   6.057   7.422 -0.1130  0.2611 -0.0226
   68POPC   C3A 1304   0.392   5.781   7.192 -0.3405  0.4486  0.0506
   68POPC   C4A 1305   0.473   5.484   6.896 -0.1595  0.0531 -0.1477
   68POPC   C1B 1306   0.245   6.517   8.066  0.0370  0.0157  0.0286
   68POPC   C2B 1307  -0.234   6.653   8.186  0.0082 -0.2134 -0.0537
   68POPC   C3B 1308  -0.609   6.781   8.224 -0.0387 -0.0362  0.3583
   68POPC   C4B 1309  -0.668   7.183   8.309 -0.1770 -0.1172  0.0008
   69POPC   NC3 1310   0.146   1.591   9.019 -0.0192 -0.0432 -0.0122
   69POPC   PO4 1311  -0.002   1.137   9.017  0.3076 -0.3752 -0.0232
   69POPC   GL1 1312   0.031   1.119   8.625 -0.0418  0.1023 -0.2968
   69POPC   GL2 1313  -0.322   1.031   8.477 -0.2962  0.1599 -0.3641
   69POPC   C1A 1314   0.309   1.259   8.272  0.1737  0.0911  0.4678
   69POPC   D2A 1315   0.424   1.115   7.792  0.2694  0.2259 -0.1206
   69POPC   C3A 1316   0.648   1.438   7.585 -0.3688 -0.2485  0.0488
   69POPC   C4A 1317   0.941   1.442   7.261  0.0430  0.0898  0.2958
   69POPC   C1B 1318  -0.118   0.900   8.145  0.0185  0.0907 -0.2982
   69POPC   C2B 1319  -0.016   0.908   7.615  0.0081 -0.1065 -0.2093
   69POPC   C3B 1320   0.093   0.442   7.489 -0.1218 -0.0180 -0.0626
   69POPC   C4B 1321   0.159   0.129   7.300 -0.1131  0.0043  0.0064
   70POPC   NC3 1322   6.192   5.694   9.163  0.3429  0.1747 -0.4241
   70POPC   PO4 1323   6.190   5.450   8.902  0.2559 -0.3688  0.1551
   70POPC   GL1 1324   6.450   5.405   8.506 -0.1022 -0.0582  0.0276
   70POPC   GL2 1325   6.361   5.711   8.224 -0.2720  0.5590 -0.0304
   70POPC   C1A 1326   6.676   5.318   8.106 -0.1155 -0.0378 -0.1306
   70POPC   D2A 1327   6.920   5.304   7.765 -0.1796 -0.4603  0.0619
   70POPC   C3A 1328   7.127   5.056   7.536 -0.0914 -0.2076  0.0906
   70POPC   C4A 1329   7.546   4.747   7.383  0.0639  0.0761 -0.1307
   70POPC   C1B 1330   6.579   5.846   7.917  0.1172  0.2794 -0.0654
   70POPC   C2B 1331   6.574   5.624   7.520  0.0805  0.3201 -0.2377
   70POPC   C3B 1332   6.876   5.489   7.183  0.1967 -0.1764  0.0344
   70POPC   C4B 1333   7.013   5.454   6.857 -0.0075 -0.0971 -0.1191
   71POPC   NC3 1334   9.606   4.646   9.141  0.0690 -0.3067  0.1515
   71POPC   PO4 1335   9.342   5.078   9.172 -0.1511  0.0100 -0.3287
   71POPC   GL1 1336   9.289   5.066   8.703  0.0062  0.2507 -0.0250
   71POPC   GL2 1337   9.133   5.294   8.739  0.0036  0.1898 -0.2558
   71POPC   C1A 1338   9.404   5.088   8.268  0.3504  0.1661  0.3565
   71POPC   D2A 1339   9.387   5.394   7.875  0.2686  0.0091  0.3637
   71POPC   C3A 1340   9.288   5.234   7.416 -0.4611 -0.2555  0.4653
   71POPC   C4A 1341   9.576   5.244   7.108 -0.0963  0.0293  0.2581
   71POPC   C1B 1342   8.907   5.199   8.338 -0.0863 -0.1163  0.0300
   71POPC   C2B 1343   8.828   5.145   7.885  0.0922  0.2382 -0.2348
   71POPC   C3B 1344   8.824   5.059   7.452 -0.1644 -0.0295  0.3735
   71POPC   C4B 1345   8.808   5.198   7.067 -0.1604  0.0592 -0.0482
   72POPC   NC3 1346   5.366   6.287   8.815  0.0384 -0.1052 -0.1916
   72POPC   PO4 1347   5.267   5.882   8.824 -0.0481  0.2340 -0.0564
   72POPC   GL1 1348   5.461   5.723   8.446  0.0352  0.0106  0.0012
   72POPC   GL2 1349   5.416   5.444   8.472  0.0120 -0.3850  0.0402
   72POPC   C1A 1350   5.472   5.658   7.949  0.2502 -0.1817 -0.0350
   72POPC   D2A 1351   5.685   5.893   7.600 -0.0984 -0.1448  0.0747
   72POPC   C3A 1352   5.557   6.079   7.211 -0.0554  0.0233 -0.1171
   72POPC   C4A 1353   5.392   5.945   6.786  0.1760  0.1535  0.1878
   72POPC   C1B 1354   5.606   5.230   8.166  0.0737 -0.0972 -0.1305
   72POPC   C2B 1355   5.728   5.229   7.734  0.1462 -0.0990 -0.0774
   72POPC   C3B 1356   5.649   5.288   7.306 -0.1996 -0.0087 -0.1283
   72POPC   C4B 1357   5.941   5.181   6.893  0.1359  0.1371  0.2401
   73POPC   NC3 1358   0.678   8.371  10.006  0.0502  0.1759  0.3227
   73POPC   PO4 1359   0.245   8.590   9.876 -0.1354 -0.0007 -0.2783
   73POPC   GL1 1360   0.722   8.681   9.616  0.1632  0.0618  0.1001
   73POPC   GL2 1361   0.725   9.026   9.540  0.0022 -0.2973 -0.0768
   73POPC   C1A 1362   1.141   8.829   9.296  0.0037 -0.2218  0.2775
   73POPC   D2A 1363   1.462   8.835   8.944  0.0336 -0.4746  0.0597
   73POPC   C3A 1364   1.337   8.785   8.541 -0.0640 -0.2670 -0.1059
   73POPC   C4A 1365   1.179   8.845   7.976 -0.0146  0.0483 -0.2413
   73POPC   C1B 1366   0.641   9.073   9.179  0.0807  0.0998  0.0209
   73POPC   C2B 1367   0.913   8.827   8.848  0.0069  0.1874  0.1828
   73POPC   C3B 1368   0.781   8.673   8.436 -0.1070  0.0545  0.2057
   73POPC   C4B 1369   0.858   8.422   8.001  0.2104 -0.1419 -0.0009
   74POPC   NC3 1370   3.840   8.663   9.921  0.1464  0.0489  0.3827
   74POPC   PO4 1371   3.866   8.606   9.479 -0.0981  0.0479  0.2010
   74POPC   GL1 1372   3.911   8.768   9.136 -0.0875  0.2026  0.1592
   74POPC   GL2 1373   3.975   9.103   9.021 -0.1483  0.2065 -0.3922
   74POPC   C1A 1374   3.830   8.819   8.639 -0.0055  0.0156 -0.1114
   74POPC   D2A 1375   3.619   9.047   8.315 -0.1595 -0.2408 -0.5400
   74POPC   C3A 1376   3.666   9.512   8.256 -0.1009 -0.1778  0.0172
   74POPC   C4A 1377   3.843   9.744   7.861 -0.1536 -0.3474  0.1583
   74POPC   C1B 1378   3.846   9.328   8.669 -0.1630  0.1743 -0.1979
   74POPC   C2B 1379   3.559   9.746   8.729 -0.0246 -0.2327  0.3890
   74POPC   C3B 1380   3.420  10.092   9.014 -0.0837 -0.0598  0.1752
   74POPC   C4B 1381   3.577  10.424   9.026  0.1982 -0.1349  0.1259
   75POPC   NC3 1382   7.357   2.965   8.680 -0.1436 -0.0400 -0.1325
   75POPC   PO4 1383   7.530   3.327   8.741 -0.0326  0.2356 -0.2986
   75POPC   GL1 1384   7.382   3.375   8.377  0.0930  0.0010 -0.2051
   75POPC   GL2 1385   7.019   3.384   8.389 -0.2544  0.3081 -0.2389
   75POPC   C1A 1386   7.295   3.678   8.065 -0.0801  0.0917 -0.2430
   75POPC   D2A 1387   7.227   3.798   7.636 -0.1154 -0.0811  0.1302
   75POPC   C3A 1388   7.380   3.762   7.162  0.1048 -0.1260  0.1158
   75POPC   C4A 1389   7.650   3.490   7.009  0.0234  0.0388  0.3455
   75POPC   C1B 1390   6.825   3.477   8.028 -0.0986  0.1613  0.1315
   75POPC   C2B 1391   6.743   3.674   7.729  0.2521  0.0932  0.0132
   75POPC   C3B 1392   6.851   3.680   7.330 -0.3270 -0.3627 -0.0540
   75POPC   C4B 1393   7.036   3.413   7.051 -0.0201 -0.0129  0.1545
   76POPC   NC3 1394   3.947   5.717   9.136 -0.2632  0.0916  0.1187
   76POPC   PO4 1395   3.824   6.127   8.900  0.1466  0.0945  0.0481
   76POPC   GL1 1396   3.688   6.211   8.500 -0.1933 -0.2069  0.1016
   76POPC   GL2 1397   3.529   6.579   8.419 -0.0355  0.2030 -0.2169
   76POPC   C1A 1398   3.938   6.202   8.097  0.1156 -0.0193 -0.1741
   76POPC   D2A 1399   4.304   6.373   7.949 -0.0030 -0.0906  0.1789
   76POPC   C3A 1400   4.490   6.412   7.550 -0.1109 -0.1577 -0.0359
   76POPC   C4A 1401   4.347   6.161   7.243  0.0229  0.3750 -0.0682
   76POPC   C1B 1402   3.858   6.664   8.105  0.1891 -0.0745  0.0448
   76POPC   C2B 1403   4.044   6.687   7.615  0.2712 -0.3290  0.0044
   76POPC   C3B 1404   4.344   6.909   7.290 -0.1722  0.2044  0.0312
   76POPC   C4B 1405   4.715   7.158   7.331 -0.2628 -0.0063 -0.0118
   77POPC   NC3 1406  10.281   8.616   9.184  0.0173  0.1743  0.0693
   77POPC   PO4 1407  10.047   9.005   9.149 -0.2178 -0.1162  0.1233
   77POPC   GL1 1408  10.237   9.135   8.836  0.0623  0.1603 -0.2808
   77POPC   GL2 1409  10.036   9.366   8.547  0.1048 -0.0565  0.0608
   77POPC   C1A 1410  10.548   9.268   8.362 -0.0481  0.1416 -0.0485
   77POPC   D2A 1411  10.601   9.301   7.880 -0.0647  0.1178 -0.4344
   77POPC   C3A 1412  10.979   9.459   7.660 -0.1029  0.2303  0.3173
   77POPC   C4A 1413  11.255   9.723   7.762  0.2994  0.2603  0.2097
   77POPC   C1B 1414  10.125   9.310   8.146 -0.2719  0.2532  0.2102
   77POPC   C2B 1415   9.818   9.110   7.878 -0.0604 -0.1353 -0.1497
   77POPC   C3B 1416   9.596   8.640   7.998 -0.0169 -0.3128 -0.2491
   77POPC   C4B 1417   9.351   8.403   7.839  0.2369  0.0552 -0.0521
   78POPC   NC3 1418   9.419   0.776   9.032 -0.1181  0.1061  0.2060
   78POPC   PO4 1419   9.610   1.201   8.965 -0.1023  0.1272  0.0577
   78POPC   GL1 1420   9.618   1.033   8.597 -0.2253 -0.1373 -0.0133
   78POPC   GL2 1421   9.682   1.268   8.379 -0.0855  0.1268 -0.1080
   78POPC   C1A 1422   9.297   0.942   8.264 -0.5568 -0.0134 -0.0182
   78POPC   D2A 1423   9.149   0.993   7.851 -0.1730 -0.0438 -0.1635
   78POPC   C3A 1424   9.219   0.773   7.533 -0.2910  0.3418  0.1071
   78POPC   C4A 1425   9.474   0.775   7.165 -0.1231  0.0112 -0.0539
   78POPC   C1B 1426   9.498   1.310   7.916  0.0902  0.3743 -0.0532
   78POPC   C2B 1427   9.445   1.180   7.460  0.1942 -0.1110 -0.1329
   78POPC   C3B 1428   9.462   1.245   7.090 -0.0230 -0.0396  0.0092
   78POPC   C4B 1429   9.574   0.971   6.711 -0.0400  0.0123 -0.3223
   79POPC   NC3 1430   8.807   5.131   9.119  0.1417  0.3763 -0.0567
   79POPC   PO4 1431   8.426   4.853   9.098  0.1818 -0.0555  0.1779
   79POPC   GL1 1432   8.400   4.639   8.616  0.2614 -0.0108  0.0532
   79POPC   GL2 1433   8.314   4.409   8.637  0.0324 -0.3779 -0.0404
   79POPC   C1A 1434   8.519   4.891   8.248 -0.0334 -0.1133 -0.0009
   79POPC   D2A 1435   8.446   4.862   7.770 -0.0837 -0.0122  0.0616
   79POPC   C3A 1436   8.326   4.560   7.405  0.0204  0.0742 -0.1037
   79POPC   C4A 1437   8.346   4.172   7.305 -0.3063 -0.0298  0.0366
   79POPC   C1B 1438   8.374   4.299   8.110 -0.3739 -0.0118  0.0873
   79POPC   C2B 1439   8.432   3.997   7.917 -0.1589  0.1455  0.0298
   79POPC   C3B 1440   8.246   3.802   7.683  0.1820 -0.1057 -0.2284
   79POPC   C4B 1441   7.752   3.862   7.569  0.0006  0.1578  0.1400
   80POPC   NC3 1442   4.736   6.974   8.873 -0.0269 -0.0028 -0.0607
   80POPC   PO4 1443   5.177   7.115   8.904  0.2360 -0.0098  0.0099
   80POPC   GL1 1444   5.123   6.725   8.633  0.2016 -0.1650 -0.1151
   80POPC   GL2 1445   4.928   6.561   8.633 -0.0761  0.3131  0.0329
   80POPC   C1A 1446   5.126   6.810   8.182  0.1234 -0.0561  0.0029
   80POPC   D2A 1447   5.326   6.833   7.768 -0.1431  0.1708  0.3181
   80POPC   C3A 1448   5.132   6.542   7.384  0.1668 -0.1319  0.1794
   80POPC   C4A 1449   5.368   6.479   7.079  0.2835 -0.1724 -0.0003
   80POPC   C1B 1450   4.833   6.379   8.139  0.0694 -0.1882  0.0307
   80POPC   C2B 1451   5.122   6.307   7.859  0.1881 -0.1245 -0.0137
   80POPC   C3B 1452   5.559   6.356   7.576  0.0541  0.0350  0.1478
   80POPC   C4B 1453   5.740   6.584   7.338  0.0668  0.0282  0.1800
   81POPC   NC3 1454   2.910   5.147   8.739 -0.1884  0.2901 -0.2032
   81POPC   PO4 1455   3.253   5.333   8.550  0.1048 -0.0691  0.3675
   81POPC   GL1 1456   3.138   5.703   8.280  0.1109 -0.0332 -0.1926
   81POPC   GL2 1457   3.190   6.021   8.350 -0.0412  0.2989  0.2133
   81POPC   C1A 1458   3.260   5.698   7.881  0.4074 -0.0947 -0.5358
   81POPC   D2A 1459   3.295   5.644   7.552 -0.1320 -0.0921  0.1795
   81POPC   C3A 1460   3.249   5.309   7.328  0.4997  0.2794  0.1283
   81POPC   C4A 1461   2.937   4.915   7.298  0.2737  0.0730  0.2153
   81POPC   C1B 1462   3.403   6.268   8.021 -0.0064  0.1676 -0.1009
   81POPC   C2B 1463   3.476   6.159   7.661 -0.1417  0.0127  0.0888
   81POPC   C3B 1464   3.884   6.216   7.633  0.2061 -0.0273 -0.0487
   81POPC   C4B 1465   4.231   5.961   7.676  0.0840 -0.1085 -0.1711
   82POPC   NC3 1466   5.050   2.437   8.757  0.2811  0.0468 -0.3066
   82POPC   PO4 1467   4.919   2.883   8.774 -0.0246 -0.1739  0.1058
   82POPC   GL1 1468   4.699   2.864   8.471  0.0280 -0.3954  0.0975
   82POPC   GL2 1469   4.429   3.131   8.441  0.1034 -0.0034 -0.0804
   82POPC   C1A 1470   4.896   2.779   8.098  0.1636 -0.2334  0.1596
   82POPC   D2A 1471   5.066   2.818   7.625  0.0413 -0.2427 -0.0377
   82POPC   C3A 1472   4.938   2.848   7.204 -0.0802  0.2336 -0.1052
   82POPC   C4A 1473   4.664   2.641   6.919  0.2271 -0.3021 -0.0734
   82POPC   C1B 1474   4.704   3.258   8.067  0.1988  0.2421  0.0355
   82POPC   C2B 1475   4.495   3.396   7.689 -0.0511  0.3040 -0.1218
   82POPC   C3B 1476   4.180   3.619   7.556 -0.3577  0.0795  0.1187
   82POPC   C4B 1477   4.042   3.742   7.112 -0.0920 -0.1319  0.0814
   83POPC   NC3 1478   9.132   6.255   8.743  0.1073 -0.4180 -0.0747
   83POPC   PO4 1479   9.200   5.858   8.746  0.3037 -0.1087 -0.0921
   83POPC   GL1 1480   8.925   5.930   8.390  0.1219  0.0653  0.1615
   83POPC   GL2 1481   8.675   6.040   8.481 -0.1518 -0.1542 -0.1580
   83POPC   C1A 1482   8.747   5.692   8.083 -0.3358 -0.3155 -0.2429
   83POPC   D2A 1483   8.921   5.575   7.671  0.1098  0.2279 -0.0623
   83POPC   C3A 1484   8.560   5.553   7.345  0.1886 -0.0268 -0.2564
   83POPC   C4A 1485   8.426   5.519   6.895  0.3054  0.1528  0.0709
   83POPC   C1B 1486   8.633   6.227   8.028 -0.0945  0.2121 -0.2488
   83POPC   C2B 1487   8.905   6.181   7.978 -0.1493 -0.2452 -0.1420
   83POPC   C3B 1488   9.042   6.043   7.596 -0.1017  0.2767  0.2964
   83POPC   C4B 1489   8.875   5.933   7.160  0.0563  0.0864 -0.3490
   84POPC   NC3 1490   5.228   4.144   8.557  0.1097  0.1781 -0.0024
   84POPC   PO4 1491   5.249   4.521   8.767  0.1776 -0.0309 -0.1211
   84POPC   GL1 1492   5.361   4.633   8.390 -0.0542  0.1739 -0.1211
   84POPC   GL2 1493   5.685   4.748   8.369  0.0684 -0.0744  0.1630
   84POPC   C1A 1494   5.311   4.839   7.992  0.0160 -0.3496  0.0015
   84POPC   D2A 1495   5.486   4.790   7.571  0.2525 -0.0984  0.1886
   84POPC   C3A 1496   5.839   4.779   7.306 -0.0660  0.0741 -0.1355
   84POPC   C4A 1497   6.249   4.861   7.136 -0.0257 -0.2841  0.0693
   84POPC   C1B 1498   5.813   4.769   7.944 -0.1781  0.0359 -0.0222
   84POPC   C2B 1499   6.119   4.927   7.697 -0.1061  0.0173 -0.1816
   84POPC   C3B 1500   6.145   5.232   7.390  0.1773  0.0864 -0.0528
   84POPC   C4B 1501   6.329   5.439   7.074  0.0892  0.0543  0.0147
   85POPC   NC3 1502   4.768   0.602   9.666 -0.0838 -0.0107 -0.0299
   85POPC   PO4 1503   4.838   0.594   9.211 -0.4168 -0.2182  0.2029
   85POPC   GL1 1504   4.538   0.614   8.837  0.2250  0.1151  0.0851
   85POPC   GL2 1505   4.659   0.585   8.530  0.1317 -0.0313 -0.0649
   85POPC   C1A 1506   4.174   0.766   8.594 -0.0130  0.1303  0.1526
   85POPC   D2A 1507   4.073   0.938   8.247 -0.0603 -0.1398  0.1063
   85POPC   C3A 1508   4.307   1.054   7.894 -0.1856 -0.0704 -0.3111
   85POPC   C4A 1509   4.551   0.917   7.601 -0.1168 -0.0332 -0.3127
   85POPC   C1B 1510   4.489   0.582   8.117 -0.0343 -0.0226  0.1065
   85POPC   C2B 1511   4.349   0.145   7.938  0.1375  0.1974  0.2340
   85POPC   C3B 1512   4.512  -0.131   7.674  0.1664  0.0480 -0.0427
   85POPC   C4B 1513   4.702  -0.299   7.327 -0.2534  0.1086 -0.1469
   86POPC   NC3 1514   4.429   1.762   8.833 -0.5140 -0.1361 -0.1071
   86POPC   PO4 1515   4.041   1.982   8.671 -0.1945  0.2102  0.1690
   86POPC   GL1 1516   3.918   2.223   8.350 -0.2071  0.2614 -0.1479
   86POPC   GL2 1517   3.600   2.482   8.463  0.0042  0.0271  0.0143
   86POPC   C1A 1518   4.006   2.336   7.949  0.0850 -0.1432 -0.1564
   86POPC   D2A 1519   3.973   2.496   7.599  0.0220 -0.2650 -0.2935
   86POPC   C3A 1520   4.368   2.529   7.386  0.0495 -0.1017  0.2324
   86POPC   C4A 1521   4.767   2.448   7.502 -0.0466  0.2915  0.1366
   86POPC   C1B 1522   3.466   2.489   8.035  0.0768 -0.1655  0.0994
   86POPC   C2B 1523   3.509   2.311   7.633  0.2396  0.1132 -0.1869
   86POPC   C3B 1524   3.181   2.334   7.277  0.0793 -0.1690 -0.1845
   86POPC   C4B 1525   3.002   2.735   7.143  0.0880  0.0150 -0.0790
   87POPC   NC3 1526   9.623   8.863   8.880  0.1394  0.4103 -0.4913
   87POPC   PO4 1527   9.410   8.623   8.615  0.1238  0.0214  0.3140
   87POPC   GL1 1528   9.432   8.332   8.364  0.2169  0.3431 -0.0948
   87POPC   GL2 1529   9.279   8.108   8.195 -0.1589 -0.0864 -0.3811
   87POPC   C1A 1530   9.766   8.173   8.057  0.2558  0.1403 -0.0683
   87POPC   D2A 1531   9.801   8.301   7.601 -0.0167 -0.2428  0.3308
   87POPC   C3A 1532   9.349   8.274   7.346 -0.1174 -0.0392 -0.1418
   87POPC   C4A 1533   9.221   7.919   7.010  0.3935 -0.0617 -0.2147
   87POPC   C1B 1534   9.473   7.827   7.904  0.0654  0.0907  0.0666
   87POPC   C2B 1535   9.600   7.796   7.503 -0.3521  0.3687  0.2532
   87POPC   C3B 1536   9.686   8.032   7.102  0.1559  0.2619  0.2382
   87POPC   C4B 1537   9.645   8.337   6.798  0.1026 -0.1778  0.3434
   88POPC   NC3 1538  10.483   3.157   8.595 -0.2357  0.2036  0.3601
   88POPC   PO4 1539  10.424   3.487   8.900  0.0119  0.0822 -0.1563
   88POPC   GL1 1540  10.138   3.645   8.572 -0.1585 -0.1441  0.0403
   88POPC   GL2 1541  10.212   3.471   8.296 -0.1209  0.0622  0.0196
   88POPC   C1A 1542   9.868   3.898   8.361 -0.0005  0.2317 -0.1789
   88POPC   D2A 1543   9.585   4.229   8.342  0.0039 -0.0589 -0.3514
   88POPC   C3A 1544   9.621   4.533   8.054 -0.1660  0.0168  0.0914
   88POPC   C4A 1545   9.635   4.917   7.840  0.6037 -0.1494  0.3596
   88POPC   C1B 1546  10.298   3.702   8.089 -0.0481  0.0554  0.3265
   88POPC   C2B 1547  10.193   3.649   7.542 -0.1839  0.0076  0.0321
   88POPC   C3B 1548  10.124   3.883   7.173 -0.0787 -0.1274  0.1054
   88POPC   C4B 1549  10.086   3.756   6.772  0.1574  0.5057  0.0098
   89POPC   NC3 1550  10.150   3.937   8.979 -0.5162 -0.0327  0.0201
   89POPC   PO4 1551  10.554   4.009   8.972 -0.0664  0.0185  0.2424
   89POPC   GL1 1552  10.491   4.054   8.538 -0.0954  0.1647 -0.0427
   89POPC   GL2 1553  10.693   3.696   8.389  0.1487  0.1632 -0.0420
   89POPC   C1A 1554  10.486   4.158   8.010  0.1650  0.3184 -0.0236
   89POPC   D2A 1555  10.618   3.973   7.595  0.0260  0.0673  0.1353
   89POPC   C3A 1556  10.588   4.122   7.343  0.3013 -0.0707  0.1226
   89POPC   C4A 1557  10.722   4.474   7.176  0.4296  0.0868  0.1184
   89POPC   C1B 1558  10.873   3.675   7.988 -0.1037  0.0653 -0.0679
   89POPC   C2B 1559  10.902   3.464   7.561  0.1413  0.3240 -0.0330
   89POPC   C3B 1560  10.857   3.232   7.148  0.0915  0.0709  0.1946
   89POPC   C4B 1561  10.696   2.941   6.727  0.2440  0.3117 -0.0313
   90POPC   NC3 1562   4.393   7.835   9.177  0.0391  0.1238  0.2366
   90POPC   PO4 1563   4.656   7.954   8.774  0.1600 -0.0344  0.0885
   90POPC   GL1 1564   4.547   7.821   8.261  0.0252  0.2585  0.0640
   90POPC   GL2 1565   4.356   7.934   8.165 -0.1051 -0.0588  0.0014
   90POPC   C1A 1566   4.707   7.854   7.818 -0.1481 -0.1401 -0.2052
   90POPC   D2A 1567   4.771   7.778   7.394 -0.4414 -0.1398 -0.0474
   90POPC   C3A 1568   4.412   7.790   7.164  0.0419 -0.0266 -0.3824
   90POPC   C4A 1569   4.173   7.916   6.877 -0.1521  0.1088  0.1700
   90POPC   C1B 1570   4.045   8.127   8.007  0.0307 -0.1755  0.0212
   90POPC   C2B 1571   3.649   8.281   7.730 -0.1389  0.0975  0.1700
   90POPC   C3B 1572   3.478   8.297   7.330 -0.0801  0.2050 -0.0111
   90POPC   C4B 1573   3.196   8.232   7.101 -0.1296  0.0111  0.1524
   91POPC   NC3 1574   8.019   9.743   9.133 -0.2487 -0.1416  0.1906
   91POPC   PO4 1575   7.966  10.139   8.908  0.0046  0.1798  0.0256
   91POPC   GL1 1576   8.021  10.052   8.470  0.0537  0.2894  0.1814
   91POPC   GL2 1577   7.885  10.167   8.264 -0.0873  0.2661  0.0890
   91POPC   C1A 1578   7.965   9.668   8.233 -0.2981 -0.4245 -0.4097
   91POPC   D2A 1579   7.901   9.490   7.828 -0.3432  0.2249 -0.4697
   91POPC   C3A 1580   7.652   9.611   7.583 -0.0361  0.0070  0.3047
   91POPC   C4A 1581   7.654   9.571   7.125 -0.1492  0.0480  0.0410
   91POPC   C1B 1582   7.729  10.088   7.824  0.1219  0.1905  0.0698
   91POPC   C2B 1583   7.353  10.168   7.665  0.2516  0.2099  0.0490
   91POPC   C3B 1584   7.280  10.371   7.204  0.1182 -0.0534 -0.2822
   91POPC   C4B 1585   7.119  10.679   7.075  0.0761 -0.0624  0.0021
   92POPC   NC3 1586   8.992   7.290   8.753 -0.0724  0.3416 -0.1963
   92POPC   PO4 1587   9.059   6.872   8.677  0.1356 -0.0773  0.2469
   92POPC   GL1 1588   9.264   6.837   8.354  0.1237  0.1269  0.2360
   92POPC   GL2 1589   9.041   6.493   8.368 -0.0069 -0.3527  0.4075
   92POPC   C1A 1590   9.487   6.904   7.989 -0.3319 -0.2409  0.3978
   92POPC   D2A 1591   9.838   6.931   7.763 -0.0398  0.1919  0.0311
   92POPC   C3A 1592   9.750   7.166   7.321 -0.0251  0.1211 -0.2608
   92POPC   C4A 1593   9.992   7.590   7.199  0.0308  0.0558  0.2042
   92POPC   C1B 1594   9.332   6.411   8.038  0.3064  0.3752  0.0481
   92POPC   C2B 1595   9.476   6.511   7.632 -0.1364  0.2720  0.3103
   92POPC   C3B 1596   9.737   6.584   7.291  0.0518  0.4371 -0.0828
   92POPC   C4B 1597   9.917   6.761   6.941  0.0601  0.0420 -0.0857
   93POPC   NC3 1598   6.339   2.792   8.922 -0.1015 -0.2033 -0.0829
   93POPC   PO4 1599   6.650   2.407   8.756 -0.1149  0.0761 -0.1645
   93POPC   GL1 1600   6.595   2.456   8.458 -0.0071  0.1848 -0.1991
   93POPC   GL2 1601   6.319   2.305   8.293  0.0700  0.2848  0.3982
   93POPC   C1A 1602   6.713   2.490   8.083 -0.1049 -0.0734 -0.1963
   93POPC   D2A 1603   7.095   2.352   7.901 -0.4189 -0.0084 -0.0247
   93POPC   C3A 1604   7.263   2.396   7.460  0.0545 -0.1885  0.1180
   93POPC   C4A 1605   7.198   2.581   7.047 -0.0832 -0.1274 -0.2670
   93POPC   C1B 1606   6.255   2.266   7.934  0.0344 -0.0451 -0.1571
   93POPC   C2B 1607   6.125   2.429   7.566  0.1359  0.1658 -0.2353
   93POPC   C3B 1608   6.405   2.717   7.286 -0.0062  0.0908  0.0549
   93POPC   C4B 1609   6.591   2.984   7.077  0.1880 -0.0349  0.1265
   94POPC   NC3 1610   7.886   1.777   8.771 -0.2407  0.0991 -0.0585
   94POPC   PO4 1611   8.227   2.076   8.696 -0.1044  0.0345  0.0648
   94POPC   GL1 1612   8.223   1.723   8.381  0.0563  0.4342 -0.2271
   94POPC   GL2 1613   8.363   1.409   8.339 -0.2329  0.1717 -0.0286
   94POPC   C1A 1614   8.168   1.744   7.978 -0.0672  0.2758 -0.1315
   94POPC   D2A 1615   8.058   1.887   7.561  0.2748 -0.3105  0.2390
   94POPC   C3A 1616   7.584   1.860   7.472 -0.0719 -0.0230  0.0062
   94POPC   C4A 1617   7.130   1.872   7.694 -0.0803 -0.0993 -0.3258
   94POPC   C1B 1618   8.306   1.312   7.883  0.0949 -0.0447 -0.2410
   94POPC   C2B 1619   8.356   1.395   7.407  0.1514 -0.0009 -0.2240
   94POPC   C3B 1620   8.441   1.338   7.115 -0.3539  0.1200 -0.0563
   94POPC   C4B 1621   8.408   1.419   6.658  0.1096 -0.1261 -0.1195
   95POPC   NC3 1622   5.722   4.341   8.678 -0.2652 -0.3497  0.0473
   95POPC   PO4 1623   5.920   4.084   8.877 -0.4444  0.1447  0.2863
   95POPC   GL1 1624   6.002   3.952   8.411  0.2590  0.0273 -0.4454
   95POPC   GL2 1625   5.690   4.064   8.241 -0.1408  0.0154  0.0911
   95POPC   C1A 1626   5.911   3.655   8.129 -0.0764 -0.0008  0.1119
   95POPC   D2A 1627   5.865   3.331   7.844 -0.0679  0.0612 -0.0980
   95POPC   C3A 1628   5.867   3.362   7.399 -0.1816 -0.0648  0.0498
   95POPC   C4A 1629   5.889   2.897   7.333  0.0926 -0.1157  0.0392
   95POPC   C1B 1630   5.493   4.396   7.958 -0.2771  0.1301 -0.0581
   95POPC   C2B 1631   5.201   4.249   7.587  0.0411  0.2919  0.0824
   95POPC   C3B 1632   5.031   4.213   7.227 -0.4748  0.1994  0.1203
   95POPC   C4B 1633   4.673   4.318   6.860  0.0657  0.0644 -0.0145
   96POPC   NC3 1634   9.394   9.916   8.672 -0.0772 -0.1857 -0.1353
   96POPC   PO4 1635   9.808   9.763   8.670 -0.1048 -0.2623 -0.1220
   96POPC   GL1 1636   9.738   9.891   8.250 -0.1689  0.0427 -0.2038
   96POPC   GL2 1637   9.734  10.102   8.070  0.1257  0.0555 -0.3534
   96POPC   C1A 1638   9.669   9.623   7.914  0.1548 -0.1886  0.0014
   96POPC   D2A 1639   9.369   9.429   7.599 -0.1409  0.1859  0.3079
   96POPC   C3A 1640   9.471   9.283   7.272  0.0423  0.2904 -0.0895
   96POPC   C4A 1641   9.450   8.841   6.917  0.1729 -0.0497 -0.2316
   96POPC   C1B 1642   9.885  10.014   7.570 -0.1042 -0.1546 -0.0028
   96POPC   C2B 1643   9.955   9.633   7.298  0.0469  0.2111  0.0051
   96POPC   C3B 1644   9.808   9.644   6.960  0.1683  0.1064  0.0637
   96POPC   C4B 1645   9.919   9.635   6.555  0.0688  0.1250 -0.0785
   97POPC   NC3 1646   6.582   5.907   8.640 -0.0203 -0.2548 -0.1604
   97POPC   PO4 1647   6.220   5.921   8.714  0.0569  0.0365  0.0348
   97POPC   GL1 1648   6.247   6.243   8.314 -0.1940  0.2574 -0.2674
   97POPC   GL2 1649   6.012   6.556   8.193 -0.1105  0.5062  0.0958
   97POPC   C1A 1650   6.203   6.155   7.809  0.0268  0.0132 -0.0267
   97POPC   D2A 1651   6.166   6.272   7.362  0.0601  0.0833 -0.0297
   97POPC   C3A 1652   6.287   6.072   6.951 -0.1360  0.0924  0.0586
   97POPC   C4A 1653   6.565   5.790   6.818  0.1890  0.0922 -0.0928
   97POPC   C1B 1654   6.195   6.720   7.767 -0.2595 -0.1847  0.1507
   97POPC   C2B 1655   5.838   6.978   7.572 -0.1160  0.0072 -0.1435
   97POPC   C3B 1656   5.864   7.242   7.222  0.3127  0.1112  0.0546
   97POPC   C4B 1657   5.678   7.552   6.975 -0.0756  0.0099 -0.2016
   98POPC   NC3 1658   5.577   0.498   8.571  0.4046 -0.2146 -0.4410
   98POPC   PO4 1659   5.130   0.331   8.431 -0.0769  0.1584 -0.4406
   98POPC   GL1 1660   5.433   0.557   8.107  0.4195 -0.0099 -0.0634
   98POPC   GL2 1661   5.692   0.371   8.089 -0.0768  0.0390 -0.0453
   98POPC   C1A 1662   5.366   0.765   7.778  0.3073 -0.1033  0.2619
   98POPC   D2A 1663   5.588   1.055   7.510  0.1654  0.0583  0.0379
   98POPC   C3A 1664   5.332   1.029   7.166 -0.4346 -0.2456  0.3808
   98POPC   C4A 1665   5.494   1.225   6.822 -0.0084  0.1496  0.2838
   98POPC   C1B 1666   5.950   0.651   7.968  0.3163 -0.1272 -0.0359
   98POPC   C2B 1667   6.072   0.923   7.601 -0.0833  0.1342  0.2287
   98POPC   C3B 1668   6.116   1.035   7.199  0.0868 -0.2718  0.0810
   98POPC   C4B 1669   6.065   1.233   6.773 -0.3265  0.3101  0.1493
   99POPC   NC3 1670   2.735   8.894   9.958  0.3355  0.1227 -0.2045
   99POPC   PO4 1671   2.884   8.477  10.008 -0.0833 -0.0593 -0.0227
   99POPC   GL1 1672   3.108   8.522   9.575  0.1457  0.2388 -0.3755
   99POPC   GL2 1673   3.399   8.660   9.515 -0.4523 -0.1909  0.0707
   99POPC   C1A 1674   3.021   8.574   9.189 -0.0963  0.2030  0.3288
   99POPC   D2A 1675   2.822   8.749   8.830  0.1610 -0.4011 -0.0581
   99POPC   C3A 1676   3.012   9.090   8.731  0.1339 -0.1430  0.1937
   99POPC   C4A 1677   3.326   9.299   8.602  0.0198  0.0828  0.2266
   99POPC   C1B 1678   3.116   9.064   9.505 -0.0312 -0.2649 -0.0981
   99POPC   C2B 1679   2.801   9.051   9.236  0.2123  0.2779  0.2160
   99POPC   C3B 1680   2.512   8.729   9.255  0.0219 -0.3985  0.1033
   99POPC   C4B 1681   2.310   8.473   9.513  0.1364 -0.1298 -0.2134
  100POPC   NC3 1682   1.191   6.792   9.586  0.3374  0.2558  0.2936
  100POPC   PO4 1683   1.094   6.788   9.183  0.2488  0.0719 -0.0172
  100POPC   GL1 1684   1.317   6.912   8.737 -0.2205  0.0014  0.2586
  100POPC   GL2 1685   1.441   6.713   8.480 -0.0146  0.2872  0.1787
  100POPC   C1A 1686   1.224   7.148   8.282  0.1797 -0.2479  0.2215
  100POPC   D2A 1687   1.218   7.142   7.877 -0.2972  0.0489  0.2546
  100POPC   C3A 1688   0.888   7.016   7.659  0.1555  0.0239  0.1529
  100POPC   C4A 1689   0.773   7.034   7.312  0.1047  0.0836  0.0226
  100POPC   C1B 1690   1.513   6.714   8.038  0.0734 -0.0942 -0.0529
  100POPC   C2B 1691   1.297   6.776   7.557  0.2047 -0.1121 -0.2840
  100POPC   C3B 1692   1.233   6.664   7.160  0.1948  0.3724 -0.1418
  100POPC   C4B 1693   0.977   6.451   6.868  0.1186  0.1969  0.0647
  101POPC   NC3 1694   1.666   1.751   8.958 -0.0865  0.0270 -0.0462
  101POPC   PO4 1695   1.355   1.474   9.048  0.1879 -0.0224 -0.2523
  101POPC   GL1 1696   1.301   1.085   8.792 -0.2711  0.1043 -0.2250
  101POPC   GL2 1697   1.132   0.821   8.811 -0.0126 -0.2135 -0.1272
  101POPC   C1A 1698   1.583   0.917   8.589 -0.2105 -0.1428 -0.1073
  101POPC   D2A 1699   1.967   1.075   8.352  0.0377 -0.3681  0.1238
  101POPC   C3A 1700   1.968   1.561   8.363  0.0952 -0.0756 -0.0386
  101POPC   C4A 1701   2.297   1.767   8.648  0.0415  0.0970  0.1156
  101POPC   C1B 1702   1.146   0.813   8.329 -0.1980  0.0730 -0.0011
  101POPC   C2B 1703   1.169   0.639   7.809 -0.2063  0.5092 -0.1098
  101POPC   C3B 1704   1.092   0.497   7.347 -0.2852  0.1207  0.0694
  101POPC   C4B 1705   1.134   0.470   6.897 -0.0961 -0.0124 -0.0315
  102POPC   NC3 1706   9.402   8.116   8.892 -0.0704 -0.1631 -0.0181
  102POPC   PO4 1707   9.759   8.390   8.966 -0.0134 -0.0213  0.0923
  102POPC   GL1 1708   9.856   8.488   8.549 -0.4277  0.0279 -0.0155
  102POPC   GL2 1709  10.170   8.678   8.740  0.0978 -0.0260  0.1177
  102POPC   C1A 1710  10.025   8.681   8.216 -0.2539 -0.1481  0.0307
  102POPC   D2A 1711  10.353   8.853   8.040  0.3490 -0.0290 -0.1427
  102POPC   C3A 1712  10.580   8.799   7.673  0.0870 -0.0369  0.2416
  102POPC   C4A 1713  11.018   8.917   7.646  0.0415 -0.1438  0.1654
  102POPC   C1B 1714  10.534   8.780   8.485  0.0202  0.2669 -0.0479
  102POPC   C2B 1715  10.844   8.840   8.160  0.0746 -0.0238  0.0648
  102POPC   C3B 1716  11.125   9.041   8.120 -0.3087  0.1277 -0.0492
  102POPC   C4B 1717  11.504   9.133   8.448  0.0289  0.1009  0.4127
  103POPC   NC3 1718   3.387   2.813   9.330 -0.2848  0.1909  0.3698
  103POPC   PO4 1719   3.492   2.679   8.918  0.2993  0.0118 -0.0968
  103POPC   GL1 1720   3.085   2.455   8.653 -0.0606  0.0697  0.2695
  103POPC   GL2 1721   3.207   2.205   8.485  0.1815  0.0556  0.0967
  103POPC   C1A 1722   2.779   2.468   8.315  0.0626  0.2030 -0.0601
  103POPC   D2A 1723   2.617   2.530   7.853  0.2476 -0.0160  0.3220
  103POPC   C3A 1724   2.691   2.786   7.518 -0.0986 -0.0137 -0.5343
  103POPC   C4A 1725   2.531   3.080   7.325  0.1540  0.1372 -0.1266
  103POPC   C1B 1726   3.519   1.990   8.131  0.1515  0.0879  0.3049
  103POPC   C2B 1727   3.366   1.852   7.727  0.0541 -0.1321 -0.0971
  103POPC   C3B 1728   3.150   1.875   7.450 -0.0691  0.4948  0.0111
  103POPC   C4B 1729   3.136   1.436   7.386 -0.1470  0.1481  0.1164
  104POPC   NC3 1730   7.468   8.964   8.892  0.1554 -0.1351 -0.2450
  104POPC   PO4 1731   7.021   8.719   8.818  0.0291  0.0408  0.0002
  104POPC   GL1 1732   7.309   8.608   8.440 -0.2054 -0.3213  0.0091
  104POPC   GL2 1733   7.502   8.813   8.354  0.3578  0.1851 -0.0993
  104POPC   C1A 1734   7.192   8.546   8.035 -0.0035  0.0671  0.0693
  104POPC   D2A 1735   7.139   8.136   7.845  0.0139  0.0645  0.0056
  104POPC   C3A 1736   7.103   7.702   8.133 -0.2673 -0.1030 -0.1971
  104POPC   C4A 1737   7.074   7.284   8.060 -0.0143  0.1302 -0.1212
  104POPC   C1B 1738   7.456   9.178   8.062 -0.0408 -0.1084 -0.2826
  104POPC   C2B 1739   7.266   9.369   7.718  0.0893 -0.3746  0.0235
  104POPC   C3B 1740   7.174   9.370   7.246 -0.0797  0.0091 -0.0665
  104POPC   C4B 1741   7.316   9.379   6.763 -0.2300  0.2001 -0.1450
  105POPC   NC3 1742   0.956   7.626   9.392  0.3260 -0.1494 -0.0431
  105POPC   PO4 1743   1.150   7.817   9.737  0.0691 -0.3283  0.3667
  105POPC   GL1 1744   0.945   8.120   9.467 -0.1875 -0.0424 -0.2539
  105POPC   GL2 1745   1.107   8.375   9.556  0.1213 -0.2059  0.2431
  105POPC   C1A 1746   0.708   8.438   9.165  0.2961  0.0428 -0.1430
  105POPC   D2A 1747   0.405   8.736   8.841 -0.0723 -0.2040  0.0781
  105POPC   C3A 1748   0.451   9.113   8.629  0.0855  0.1202 -0.2038
  105POPC   C4A 1749   0.170   9.351   8.898  0.3782 -0.4342  0.0362
  105POPC   C1B 1750   1.291   8.369   9.119  0.2626 -0.1591 -0.0646
  105POPC   C2B 1751   1.204   8.271   8.750  0.3119  0.1401 -0.0663
  105POPC   C3B 1752   1.239   8.355   8.373 -0.0995  0.0409  0.1195
  105POPC   C4B 1753   1.338   8.370   7.902 -0.0332 -0.0909 -0.0189
  106POPC   NC3 1754   1.830   5.179   9.003  0.0621 -0.1546 -0.1579
  106POPC   PO4 1755   1.841   4.998   8.606 -0.3694 -0.2112 -0.0259
  106POPC   GL1 1756   1.905   5.130   8.274 -0.0684  0.0619 -0.2998
  106POPC   GL2 1757   2.205   5.252   8.386 -0.0419 -0.0076 -0.0051
  106POPC   C1A 1758   2.054   5.002   7.849  0.2903 -0.2250 -0.0787
  106POPC   D2A 1759   1.781   4.820   7.592  0.1204 -0.1378 -0.1376
  106POPC   C3A 1760   1.626   4.404   7.650 -0.1116 -0.2285  0.1356
  106POPC   C4A 1761   1.456   4.053   7.393  0.2333  0.0887  0.4089
  106POPC   C1B 1762   2.436   5.374   8.107  0.2078 -0.0063  0.2257
  106POPC   C2B 1763   2.576   5.710   7.938 -0.2359 -0.0038  0.0119
  106POPC   C3B 1764   2.549   5.927   7.601  0.3692 -0.3977 -0.0437
  106POPC   C4B 1765   2.474   5.935   7.155 -0.1926  0.1921  0.0993
  107POPC   NC3 1766   0.206   5.706   8.609  0.3933 -0.1085 -0.1103
  107POPC   PO4 1767   0.370   5.325   8.739 -0.1263 -0.0999  0.2711
  107POPC   GL1 1768   0.112   5.298   8.294 -0.1027 -0.3692 -0.0769
  107POPC   GL2 1769   0.302   5.524   8.121 -0.0523  0.1397  0.2694
  107POPC   C1A 1770  -0.062   5.226   7.891  0.1162 -0.0575  0.1029
  107POPC   D2A 1771  -0.295   5.364   7.480  0.0713 -0.0184  0.0495
  107POPC   C3A 1772  -0.565   4.957   7.450  0.3032  0.1247 -0.1240
  107POPC   C4A 1773  -0.772   4.500   7.536  0.0345 -0.2223 -0.1227
  107POPC   C1B 1774   0.110   5.669   7.762  0.1926 -0.0808 -0.0821
  107POPC   C2B 1775  -0.109   5.858   7.466 -0.0609  0.3860  0.0249
  107POPC   C3B 1776  -0.006   5.936   7.022 -0.1366 -0.0288  0.1130
  107POPC   C4B 1777  -0.094   6.281   6.665 -0.1118 -0.0948  0.4152
  108POPC   NC3 1778   8.126   7.929   8.533  0.1586  0.2659 -0.1360
  108POPC   PO4 1779   7.999   8.383   8.842 -0.1184 -0.0324  0.1923
  108POPC   GL1 1780   7.930   8.382   8.384  0.1888  0.1120 -0.2191
  108POPC   GL2 1781   8.093   8.660   8.231 -0.0202 -0.1051  0.1810
  108POPC   C1A 1782   7.686   8.538   7.986  0.1052 -0.1439 -0.0347
  108POPC   D2A 1783   7.434   8.562   7.612 -0.0434 -0.0286  0.2770
  108POPC   C3A 1784   7.251   8.257   7.324 -0.2570  0.0600  0.0994
  108POPC   C4A 1785   6.978   7.943   7.126 -0.1348 -0.1056  0.1633
  108POPC   C1B 1786   8.328   8.315   8.099 -0.4573 -0.0075 -0.3118
  108POPC   C2B 1787   8.600   8.402   7.754 -0.3504 -0.0697  0.1015
  108POPC   C3B 1788   8.950   8.571   7.477  0.2210  0.0653 -0.2935
  108POPC   C4B 1789   8.969   8.594   7.000  0.0244 -0.0029  0.0931
  109POPC   NC3 1790   7.683   6.658   9.201  0.0845 -0.0152 -0.0318
  109POPC   PO4 1791   7.343   6.730   9.041  0.1480  0.3696 -0.0330
  109POPC   GL1 1792   7.209   6.750   8.630  0.3807 -0.0509  0.2895
  109POPC   GL2 1793   6.976   7.003   8.487 -0.2089 -0.1948 -0.1050
  109POPC   C1A 1794   7.369   6.919   8.202 -0.0428  0.1680 -0.0025
  109POPC   D2A 1795   7.444   7.073   7.772 -0.1808 -0.2482  0.3467
  109POPC   C3A 1796   7.097   7.233   7.568  0.0437  0.2900 -0.0010
  109POPC   C4A 1797   6.954   7.014   7.157 -0.0750  0.1401 -0.3007
  109POPC   C1B 1798   6.825   6.820   8.179 -0.0425 -0.0999  0.1282
  109POPC   C2B 1799   6.844   6.772   7.680  0.2209 -0.3674  0.2521
  109POPC   C3B 1800   6.576   6.633   7.366  0.0271  0.0846 -0.0260
  109POPC   C4B 1801   6.137   6.754   7.150 -0.1811 -0.0848  0.0997
  110POPC   NC3 1802   5.251   9.006   8.731 -0.2334 -0.2514  0.0271
  110POPC   PO4 1803   5.025   8.802   8.336 -0.1453 -0.2414 -0.3574
  110POPC   GL1 1804   5.301   8.651   8.013  0.0168 -0.0203 -0.2336
  110POPC   GL2 1805   5.230   8.468   7.729  0.0393 -0.0657 -0.2734
  110POPC   C1A 1806   5.664   8.849   7.710 -0.0638  0.3045 -0.1917
  110POPC   D2A 1807   5.600   9.107   7.344 -0.1038 -0.1935  0.2374
  110POPC   C3A 1808   5.653   9.537   7.317  0.0828  0.5370 -0.0851
  110POPC   C4A 1809   5.662  10.024   7.051 -0.0618 -0.1640 -0.2723
  110POPC   C1B 1810   5.103   8.335   7.273  0.0792 -0.1276 -0.2620
  110POPC   C2B 1811   5.058   8.308   6.828  0.0901 -0.3034 -0.2766
  110POPC   C3B 1812   4.728   8.088   6.597  0.0132  0.0795 -0.0068
  110POPC   C4B 1813   4.600   7.680   6.612  0.0595 -0.2349  0.2352
  111POPC   NC3 1814   3.332   4.192   8.693  0.1645 -0.1250  0.0667
  111POPC   PO4 1815   3.030   4.349   8.403  0.1639  0.0748  0.0180
  111POPC   GL1 1816   2.828   4.517   8.049  0.1323  0.4002  0.0750
  111POPC   GL2 1817   3.050   4.680   7.927  0.0355  0.1287 -0.1548
  111POPC   C1A 1818   2.771   4.530   7.516  0.0629  0.3957 -0.1471
  111POPC   D2A 1819   3.002   4.455   7.120  0.1023 -0.0174 -0.0612
  111POPC   C3A 1820   3.229   4.477   6.751 -0.2270  0.3671  0.2839
  111POPC   C4A 1821   3.527   4.237   6.499 -0.0207 -0.0492 -0.0270
  111POPC   C1B 1822   3.288   4.914   7.739  0.0886  0.0354  0.1839
  111POPC   C2B 1823   3.449   4.785   7.353 -0.1529 -0.2852 -0.1173
  111POPC   C3B 1824   3.301   4.919   6.962  0.1388 -0.2909 -0.1303
  111POPC   C4B 1825   3.538   4.812   6.534  0.3609  0.0072 -0.0993
  112POPC   NC3 1826   0.523   4.849   8.724  0.0740 -0.0557 -0.0720
  112POPC   PO4 1827   0.988   4.925   8.620 -0.2288 -0.1543  0.1218
  112POPC   GL1 1828   1.133   5.076   8.244 -0.0134 -0.3156 -0.3451
  112POPC   GL2 1829   1.425   5.129   8.219  0.2439 -0.0626  0.1631
  112POPC   C1A 1830   0.977   5.150   7.828 -0.1219 -0.2084  0.1812
  112POPC   D2A 1831   1.085   5.124   7.404  0.0897 -0.0199 -0.0872
  112POPC   C3A 1832   1.381   4.947   7.208 -0.5232 -0.0570 -0.2319
  112POPC   C4A 1833   1.842   5.083   7.107  0.2421 -0.3198 -0.1448
  112POPC   C1B 1834   1.487   5.274   7.775 -0.1320 -0.1587  0.0871
  112POPC   C2B 1835   1.835   5.417   7.534  0.0095  0.0622 -0.1414
  112POPC   C3B 1836   2.289   5.218   7.485  0.3533 -0.1216  0.0999
  112POPC   C4B 1837   2.394   5.042   7.095  0.0306  0.3778  0.3549
  113POPC   NC3 1838   1.166   0.105  10.293 -0.2318 -0.2731 -0.0088
  113POPC   PO4 1839   1.363   0.160   9.942  0.0652 -0.2026 -0.0456
  113POPC   GL1 1840   1.642  -0.068   9.740 -0.2555 -0.1004 -0.1780
  113POPC   GL2 1841   2.000  -0.110   9.541  0.2111 -0.1701  0.0083
  113POPC   C1A 1842   1.542  -0.343   9.469  0.0721  0.1948  0.1458
  113POPC   D2A 1843   1.220  -0.552   9.435 -0.2027  0.0250  0.0860
  113POPC   C3A 1844   1.011  -0.589   9.102 -0.0595  0.1245  0.0517
  113POPC   C4A 1845   0.660  -0.849   8.800 -0.1564 -0.1290 -0.0759
  113POPC   C1B 1846   2.084  -0.207   9.016  0.2847  0.1952  0.1486
  113POPC   C2B 1847   2.024  -0.327   8.491  0.2069  0.3181 -0.3458
  113POPC   C3B 1848   1.874  -0.221   8.103  0.3475  0.1665  0.0869
  113POPC   C4B 1849   1.496  -0.126   8.064 -0.1372  0.1095 -0.0892
  114POPC   NC3 1850   9.844   7.083   9.212 -0.3219 -0.0307  0.2130
  114POPC   PO4 1851  10.180   7.326   8.910  0.0972 -0.2124 -0.1658
  114POPC   GL1 1852  10.347   7.256   8.483  0.3969 -0.0140 -0.0941
  114POPC   GL2 1853  10.235   7.547   8.433 -0.0736  0.1638  0.0764
  114POPC   C1A 1854  10.270   7.208   7.984 -0.0643  0.0473  0.0725
  114POPC   D2A 1855  10.181   7.279   7.599 -0.0498 -0.3076 -0.0781
  114POPC   C3A 1856  10.410   7.474   7.408 -0.0516 -0.3289  0.1019
  114POPC   C4A 1857  10.655   7.565   7.021  0.0028  0.2672 -0.3697
  114POPC   C1B 1858  10.303   7.896   8.124 -0.0871 -0.1450 -0.1090
  114POPC   C2B 1859  10.216   8.334   7.925  0.3740  0.3139 -0.3893
  114POPC   C3B 1860  10.092   8.702   7.678 -0.1644  0.2070  0.1542
  114POPC   C4B 1861  10.212   9.181   7.569  0.3922  0.0218 -0.2887
  115POPC   NC3 1862   5.935   6.950   8.564 -0.1092  0.3190  0.2660
  115POPC   PO4 1863   5.572   6.811   8.837  0.1692  0.2180 -0.1457
  115POPC   GL1 1864   5.429   7.118   8.458  0.1237 -0.1085  0.0295
  115POPC   GL2 1865   5.572   7.012   8.118 -0.1644 -0.4795  0.2262
  115POPC   C1A 1866   5.161   7.347   8.077 -0.0709  0.2040 -0.0675
  115POPC   D2A 1867   5.045   7.337   7.623 -0.1290  0.3622 -0.0148
  115POPC   C3A 1868   5.263   7.173   7.221 -0.0749  0.1355  0.1111
  115POPC   C4A 1869   5.006   6.979   6.935  0.2963  0.3248 -0.1195
  115POPC   C1B 1870   5.666   7.346   7.939 -0.0229 -0.0071 -0.1166
  115POPC   C2B 1871   5.639   7.504   7.582  0.0223 -0.0594  0.2158
  115POPC   C3B 1872   5.729   7.883   7.367  0.0371 -0.0983 -0.1244
  115POPC   C4B 1873   5.512   8.110   7.056  0.1478 -0.2802 -0.1314
  116POPC   NC3 1874   6.564   1.534   9.114  0.1314  0.2270  0.3695
  116POPC   PO4 1875   6.182   1.559   8.940  0.0850  0.2796  0.1794
  116POPC   GL1 1876   5.991   1.683   8.559 -0.1673  0.0742 -0.2309
  116POPC   GL2 1877   5.859   1.947   8.531  0.0149 -0.0653 -0.2042
  116POPC   C1A 1878   6.283   1.779   8.289  0.0687 -0.0773 -0.1449
  116POPC   D2A 1879   6.661   1.995   8.132 -0.2642  0.0472 -0.1049
  116POPC   C3A 1880   6.719   2.163   7.687  0.2981 -0.0364 -0.1994
  116POPC   C4A 1881   6.741   2.283   7.240 -0.2299  0.2973 -0.1083
  116POPC   C1B 1882   5.827   1.936   8.147 -0.1275 -0.0327  0.0064
  116POPC   C2B 1883   5.855   1.606   7.974  0.4420 -0.3510  0.1901
  116POPC   C3B 1884   5.907   1.478   7.555 -0.2319  0.2473 -0.1035
  116POPC   C4B 1885   5.794   1.528   7.278 -0.0595 -0.0211  0.1063
  117POPC   NC3 1886   1.616   7.064   9.329 -0.1997 -0.1885 -0.2275
  117POPC   PO4 1887   1.267   7.337   9.608  0.0787 -0.2646 -0.0447
  117POPC   GL1 1888   1.530   7.597   9.200 -0.1979  0.0306  0.1086
  117POPC   GL2 1889   1.455   7.916   9.316 -0.0712  0.0158  0.0033
  117POPC   C1A 1890   1.387   7.775   8.831 -0.0721 -0.0583  0.1167
  117POPC   D2A 1891   1.336   7.612   8.410 -0.0862 -0.0229 -0.1110
  117POPC   C3A 1892   1.655   7.683   8.135 -0.0666 -0.1543 -0.1408
  117POPC   C4A 1893   1.594   7.893   7.767  0.0772  0.0777 -0.0061
  117POPC   C1B 1894   1.739   8.103   8.936  0.1904 -0.1301  0.1073
  117POPC   C2B 1895   1.658   8.455   8.728 -0.3487  0.4161 -0.0540
  117POPC   C3B 1896   1.945   8.802   8.596 -0.2153  0.3182  0.1822
  117POPC   C4B 1897   2.168   9.092   8.364  0.1407  0.2064  0.0006
  118POPC   NC3 1898   0.685   0.597   9.977  0.3490  0.1765  0.1601
  118POPC   PO4 1899   0.631   0.391   9.563 -0.0321  0.1985 -0.0907
  118POPC   GL1 1900   0.676   0.195   9.142  0.4742 -0.0982 -0.0926
  118POPC   GL2 1901   0.318   0.192   9.102 -0.0649 -0.1047 -0.0917
  118POPC   C1A 1902   0.687  -0.200   8.940 -0.1235  0.0079 -0.0065
  118POPC   D2A 1903   0.684  -0.244   8.513 -0.0761  0.1859  0.2563
  118POPC   C3A 1904   0.721  -0.621   8.315 -0.1118 -0.0088 -0.1993
  118POPC   C4A 1905   0.483  -1.005   8.185 -0.2517  0.0390  0.0242
  118POPC   C1B 1906   0.450   0.237   8.726  0.4764  0.2841 -0.0526
  118POPC   C2B 1907   0.229   0.056   8.415 -0.2541 -0.2018 -0.0014
  118POPC   C3B 1908   0.240  -0.339   8.157 -0.0768  0.0443  0.0997
  118POPC   C4B 1909   0.215  -0.676   7.873 -0.2967  0.2457 -0.0327
  119POPC   NC3 1910   2.544   6.821   9.204 -0.2456  0.1489 -0.0845
  119POPC   PO4 1911   2.578   6.401   8.980  0.0557 -0.2552 -0.0306
  119POPC   GL1 1912   2.514   6.654   8.611 -0.1445  0.0311 -0.1147
  119POPC   GL2 1913   2.364   6.973   8.657  0.0309  0.0386 -0.0591
  119POPC   C1A 1914   2.542   6.626   8.133 -0.1072 -0.3260 -0.1247
  119POPC   D2A 1915   2.816   6.776   7.770  0.0325  0.0336  0.2585
  119POPC   C3A 1916   2.561   6.875   7.464  0.2193 -0.1243  0.2941
  119POPC   C4A 1917   2.602   7.266   7.162 -0.4791 -0.1314 -0.3320
  119POPC   C1B 1918   2.649   7.107   8.351 -0.1091 -0.3077  0.0657
  119POPC   C2B 1919   3.039   7.300   8.145  0.4045  0.0359  0.0613
  119POPC   C3B 1920   3.262   7.488   7.769 -0.2284 -0.2056 -0.1715
  119POPC   C4B 1921   3.407   7.821   7.525 -0.0485 -0.0986  0.2138
  120POPC   NC3 1922   3.030   2.940   8.838 -0.0031  0.0656  0.2565
  120POPC   PO4 1923   2.561   2.918   8.926  0.1791  0.0194  0.2157
  120POPC   GL1 1924   2.585   2.966   8.524 -0.1448  0.0671  0.0266
  120POPC   GL2 1925   2.839   2.993   8.260 -0.0885  0.0588 -0.1576
  120POPC   C1A 1926   2.357   3.235   8.246 -0.0116 -0.2226  0.4457
  120POPC   D2A 1927   2.222   3.650   8.092  0.3702 -0.0557  0.2229
  120POPC   C3A 1928   1.796   3.559   7.868  0.1017  0.1068  0.0722
  120POPC   C4A 1929   1.408   3.687   7.837  0.2350 -0.2872  0.0662
  120POPC   C1B 1930   3.199   3.341   8.144  0.2819  0.1031 -0.0923
  120POPC   C2B 1931   3.085   3.592   7.838 -0.1059  0.3972  0.3948
  120POPC   C3B 1932   3.107   3.764   7.470 -0.1023  0.0276 -0.1139
  120POPC   C4B 1933   2.948   3.868   7.256  0.1750 -0.2061  0.1727
  121POPC   NC3 1934  10.307   0.428   9.244 -0.0438  0.2389  0.0919
  121POPC   PO4 1935  10.740   0.731   9.267 -0.1431 -0.1742 -0.0393
  121POPC   GL1 1936  10.577   0.674   8.887 -0.1064  0.5177 -0.2506
  121POPC   GL2 1937  10.388   0.340   8.770 -0.3822 -0.0770  0.2578
  121POPC   C1A 1938  10.755   0.662   8.438  0.2420 -0.2941 -0.0659
  121POPC   D2A 1939  10.730   0.567   7.954  0.0464 -0.0445 -0.2516
  121POPC   C3A 1940  10.665   0.071   7.839  0.1398  0.1879 -0.0512
  121POPC   C4A 1941  10.893  -0.290   7.662 -0.1798 -0.0736  0.0531
  121POPC   C1B 1942  10.390   0.383   8.284  0.2951 -0.1556 -0.2166
  121POPC   C2B 1943  10.193   0.483   7.868  0.0743 -0.1932  0.2565
  121POPC   C3B 1944  10.146   0.697   7.393 -0.0867  0.1737 -0.3596
  121POPC   C4B 1945  10.377   1.013   7.143  0.0012 -0.1654 -0.0228
  122POPC   NC3 1946  10.297   2.300   9.820 -0.2782 -0.2415  0.3961
  122POPC   PO4 1947  10.295   2.433   9.312 -0.0633  0.1239  0.1150
  122POPC   GL1 1948  10.440   2.357   8.859 -0.0183 -0.1153 -0.0128
  122POPC   GL2 1949  10.813   2.059   8.797  0.0566 -0.1238 -0.1587
  122POPC   C1A 1950  10.461   2.304   8.405 -0.1122  0.1998 -0.1590
  122POPC   D2A 1951  10.614   2.428   8.045 -0.2068  0.1854 -0.0301
  122POPC   C3A 1952  10.469   2.554   7.682  0.0698  0.0815 -0.0637
  122POPC   C4A 1953  10.575   2.767   7.261 -0.2398 -0.0105  0.4908
  122POPC   C1B 1954  10.970   2.348   8.489  0.0703 -0.0256  0.0543
  122POPC   C2B 1955  11.007   2.146   7.999 -0.0415  0.1706  0.1638
  122POPC   C3B 1956  11.128   2.016   7.690 -0.1311 -0.2410 -0.0113
  122POPC   C4B 1957  11.231   1.889   7.359 -0.0711  0.3741  0.0303
  123POPC   NC3 1958   3.192   0.888   9.589 -0.0857  0.0153  0.0894
  123POPC   PO4 1959   2.785   1.263   9.595  0.1959  0.2700  0.2304
  123POPC   GL1 1960   2.911   1.208   9.170  0.1013  0.0582  0.0389
  123POPC   GL2 1961   2.780   1.410   8.900  0.0202 -0.0937 -0.1752
  123POPC   C1A 1962   3.133   1.130   8.667 -0.1859 -0.1137  0.1251
  123POPC   D2A 1963   3.602   1.129   8.386  0.0756 -0.0548  0.2874
  123POPC   C3A 1964   3.646   0.895   7.929 -0.0074  0.1175 -0.1533
  123POPC   C4A 1965   3.972   0.847   7.585  0.0376 -0.0298  0.0006
  123POPC   C1B 1966   2.891   1.517   8.432 -0.1703 -0.3700 -0.0036
  123POPC   C2B 1967   3.142   1.558   8.094 -0.2861  0.0733 -0.0039
  123POPC   C3B 1968   3.502   1.479   7.964 -0.0246  0.0900  0.2416
  123POPC   C4B 1969   3.856   1.824   7.737 -0.0708 -0.1214 -0.1357
  124POPC   NC3 1970   9.416   3.364   9.195 -0.2114 -0.1789  0.1094
  124POPC   PO4 1971   9.461   3.790   9.064 -0.0161 -0.1205 -0.0517
  124POPC   GL1 1972   9.488   3.513   8.661  0.0419 -0.2683 -0.2956
  124POPC   GL2 1973   9.283   3.512   8.410  0.0524 -0.2090  0.0512
  124POPC   C1A 1974   9.717   3.446   8.149  0.1132  0.1221  0.1098
  124POPC   D2A 1975   9.824   3.772   7.856  0.2162 -0.0589 -0.3395
  124POPC   C3A 1976   9.686   3.967   7.386  0.1826 -0.1221 -0.3689
  124POPC   C4A 1977   9.729   4.045   6.980  0.0443  0.0644  0.0847
  124POPC   C1B 1978   9.375   3.872   8.056  0.1430  0.0659  0.1628
  124POPC   C2B 1979   9.235   3.911   7.651  0.2284  0.0310 -0.2338
  124POPC   C3B 1980   9.092   4.029   7.238 -0.0563  0.2915 -0.2407
  124POPC   C4B 1981   9.299   4.340   6.967  0.0773  0.1534  0.1072
  125POPC   NC3 1982   5.615  10.115   8.921  0.2079 -0.0380 -0.1548
  125POPC   PO4 1983   5.184  10.046   8.704  0.3254 -0.1560 -0.1988
  125POPC   GL1 1984   5.176  10.286   8.360 -0.1970  0.1481  0.2651
  125POPC   GL2 1985   5.155  10.073   8.173 -0.2816  0.0303  0.0163
  125POPC   C1A 1986   5.376  10.526   7.918  0.1895 -0.1445 -0.2806
  125POPC   D2A 1987   5.194  10.715   7.598 -0.0878  0.0673  0.3327
  125POPC   C3A 1988   5.216  10.276   7.213  0.1699 -0.0587 -0.4754
  125POPC   C4A 1989   5.096   9.849   7.087  0.0657  0.1134 -0.3252
  125POPC   C1B 1990   5.218   9.758   8.019  0.1349 -0.2639  0.4124
  125POPC   C2B 1991   4.958   9.491   7.775 -0.2294  0.1315  0.1231
  125POPC   C3B 1992   4.830   9.155   7.699  0.3707 -0.1840  0.1441
  125POPC   C4B 1993   4.758   8.689   7.653  0.0788 -0.2381  0.1913
  126POPC   NC3 1994   2.906   7.626   9.505 -0.2762  0.2353 -0.1380
  126POPC   PO4 1995   2.903   7.262   9.176 -0.0414  0.0911  0.1957
  126POPC   GL1 1996   2.920   7.593   8.957  0.2756 -0.0385 -0.2218
  126POPC   GL2 1997   3.158   7.572   8.653  0.2271  0.0289  0.0711
  126POPC   C1A 1998   2.834   7.889   8.534 -0.0973  0.2925  0.3849
  126POPC   D2A 1999   2.582   8.116   8.243 -0.0004  0.5207  0.2737
  126POPC   C3A 2000   2.291   8.402   8.114  0.0389  0.1570  0.1250
  126POPC   C4A 2001   2.104   8.711   7.830  0.0499  0.2315  0.1255
  126POPC   C1B 2002   3.498   7.387   8.339  0.0456 -0.0277 -0.4671
  126POPC   C2B 2003   3.714   7.154   7.979 -0.0052 -0.0421 -0.3914
  126POPC   C3B 2004   3.798   7.120   7.546 -0.3145 -0.2269 -0.1503
  126POPC   C4B 2005   3.583   7.434   7.224  0.2282 -0.3029  0.1626
  127POPC   NC3 2006   6.687   7.462   9.018  0.1376  0.2136 -0.3155
  127POPC   PO4 2007   6.473   7.183   8.691  0.1648  0.0441 -0.1620
  127POPC   GL1 2008   6.519   7.176   8.244 -0.1044 -0.2934 -0.0657
  127POPC   GL2 2009   6.160   7.103   8.083 -0.0808 -0.0797  0.2332
  127POPC   C1A 2010   6.623   7.274   7.728  0.1439  0.3334 -0.1416
  127POPC   D2A 2011   6.494   7.053   7.472 -0.0507 -0.0833  0.1938
  127POPC   C3A 2012   6.346   7.217   7.103  0.2724 -0.3351  0.1081
  127POPC   C4A 2013   6.469   7.570   6.879 -0.0267 -0.0503  0.1118
  127POPC   C1B 2014   6.149   7.355   7.735  0.1662  0.0471 -0.0089
  127POPC   C2B 2015   6.248   7.671   7.380 -0.1135 -0.2043  0.3214
  127POPC   C3B 2016   6.490   8.012   7.168  0.1417  0.4381 -0.0671
  127POPC   C4B 2017   6.566   8.104   6.819 -0.0820 -0.3445 -0.2610
  128POPC   NC3 2018   2.737   7.970  10.117  0.1305 -0.1771  0.3382
  128POPC   PO4 2019   2.800   8.071   9.700 -0.0157 -0.1659 -0.1331
  128POPC   GL1 2020   2.877   8.064   9.244 -0.4185  0.2461 -0.0681
  128POPC   GL2 2021   2.602   8.002   9.021 -0.1053 -0.1710 -0.0135
  128POPC   C1A 2022   3.095   8.202   8.892  0.2015  0.0548 -0.1234
  128POPC   D2A 2023   3.348   8.618   8.721  0.1329 -0.4119 -0.0831
  128POPC   C3A 2024   3.370   8.925   9.046  0.2763  0.2398 -0.1696
  128POPC   C4A 2025   3.545   9.339   9.169 -0.3931  0.0518 -0.0659
  128POPC   C1B 2026   2.561   8.284   8.748  0.4905  0.2046 -0.2142
  128POPC   C2B 2027   2.530   8.632   8.444  0.1088 -0.1748 -0.0101
  128POPC   C3B 2028   2.686   9.028   8.409  0.2524 -0.1863 -0.0906
  128POPC   C4B 2029   2.761   9.398   8.033 -0.1663  0.0730  0.1428
  129POPC   NC3 2030   3.276   1.703  10.042 -0.0374  0.4395 -0.0058
  129POPC   PO4 2031   3.032   1.751   9.629  0.1800 -0.1726 -0.2721
  129POPC   GL1 2032   3.021   1.873   9.194  0.2929 -0.0792  0.0452
  129POPC   GL2 2033   2.779   1.891   9.054  0.0932 -0.0951 -0.0157
  129POPC   C1A 2034   3.247   1.792   8.789  0.0603  0.0944  0.1584
  129POPC   D2A 2035   3.590   1.685   8.565 -0.0653 -0.0878  0.0244
  129POPC   C3A 2036   3.899   1.538   8.193 -0.1305 -0.1429  0.1152
  129POPC   C4A 2037   3.922   1.298   7.775  0.0459 -0.1467  0.3621
  129POPC   C1B 2038   2.817   2.001   8.643 -0.4838  0.1879  0.2890
  129POPC   C2B 2039   2.872   1.953   8.179 -0.1471  0.2527 -0.1425
  129POPC   C3B 2040   3.039   2.254   7.884 -0.1970 -0.0033  0.1672
  129POPC   C4B 2041   3.106   2.761   7.805  0.0727  0.1459 -0.2084
  130POPC   NC3 2042   4.634   9.458   9.853  0.5750 -0.1212  0.1872
  130POPC   PO4 2043   4.543   9.693   9.396  0.2922 -0.0990 -0.3451
  130POPC   GL1 2044   4.327   9.980   9.128  0.0260  0.1699 -0.1089
  130POPC   GL2 2045   3.987   9.833   9.118 -0.0795 -0.0584 -0.0262
  130POPC   C1A 2046   4.322   9.956   8.715 -0.1951  0.1414 -0.4291
  130POPC   D2A 2047   4.084   9.729   8.376 -0.0551 -0.0377 -0.0178
  130POPC   C3A 2048   4.303   9.569   8.042  0.1264 -0.0331 -0.0352
  130POPC   C4A 2049   4.393   9.489   7.642 -0.1649 -0.1011 -0.0063
  130POPC   C1B 2050   4.227   9.489   8.883  0.0833  0.0496 -0.1747
  130POPC   C2B 2051   4.316   9.273   8.502 -0.1041 -0.3753 -0.2146
  130POPC   C3B 2052   4.096   9.128   8.175 -0.1176 -0.0636 -0.1247
  130POPC   C4B 2053   3.939   9.215   7.787 -0.2797  0.1177  0.4854
  131POPC   NC3 2054   8.892   0.359   9.238 -0.1066  0.0400  0.2223
  131POPC   PO4 2055   8.924   0.558   8.832  0.0650  0.2550  0.0523
  131POPC   GL1 2056   8.832   0.685   8.279  0.0951 -0.2004 -0.0981
  131POPC   GL2 2057   8.739   1.105   8.149 -0.1513  0.1377 -0.4066
  131POPC   C1A 2058   8.701   0.526   7.866  0.1351 -0.0861 -0.2330
  131POPC   D2A 2059   8.536   0.043   7.766  0.2422  0.4176 -0.0902
  131POPC   C3A 2060   8.256  -0.156   7.480 -0.0823  0.1768  0.2917
  131POPC   C4A 2061   8.120  -0.043   7.118  0.3315 -0.1203  0.2558
  131POPC   C1B 2062   8.681   1.069   7.705  0.0418  0.0364 -0.0748
  131POPC   C2B 2063   8.722   0.808   7.314  0.2797  0.1750  0.4386
  131POPC   C3B 2064   8.888   0.819   6.940  0.0710 -0.1311 -0.0285
  131POPC   C4B 2065   9.118   0.796   6.662 -0.3057  0.0054 -0.1048
  132POPC   NC3 2066   2.610   3.464   9.160  0.0388  0.1137 -0.1211
  132POPC   PO4 2067   2.915   3.835   8.998  0.0496 -0.1285  0.0137
  132POPC   GL1 2068   2.889   3.892   8.503  0.1634  0.2279 -0.0868
  132POPC   GL2 2069   3.161   3.793   8.355 -0.2107  0.3732  0.1232
  132POPC   C1A 2070   2.728   3.572   8.169  0.3117  0.1461 -0.0677
  132POPC   D2A 2071   2.702   3.217   7.803 -0.0444 -0.1316 -0.0690
  132POPC   C3A 2072   3.005   3.198   7.528  0.0034 -0.0836  0.0521
  132POPC   C4A 2073   3.307   3.149   7.274 -0.0474  0.2125  0.0756
  132POPC   C1B 2074   3.446   3.803   8.031  0.0237 -0.0769  0.0131
  132POPC   C2B 2075   3.784   3.954   7.942 -0.4214 -0.1527 -0.4114
  132POPC   C3B 2076   4.066   4.115   7.755  0.0845 -0.2513 -0.0575
  132POPC   C4B 2077   4.064   4.281   7.401 -0.2396 -0.1070 -0.3112
  133POPC   NC3 2078   9.180   9.055   8.660 -0.2363 -0.2066 -0.0362
  133POPC   PO4 2079   9.077   9.499   8.794  0.2805  0.0110  0.1046
  133POPC   GL1 2080   9.194   9.630   8.316 -0.4350 -0.0495  0.0640
  133POPC   GL2 2081   9.531   9.471   8.348 -0.1653 -0.3419 -0.3600
  133POPC   C1A 2082   9.223   9.924   7.971 -0.2000 -0.0051 -0.0532
  133POPC   D2A 2083   9.178   9.903   7.546  0.1811 -0.2455 -0.1592
  133POPC   C3A 2084   9.511   9.931   7.282  0.1766 -0.0484 -0.1297
  133POPC   C4A 2085   9.738  10.188   7.039 -0.1680  0.0280 -0.1560
  133POPC   C1B 2086   9.359   9.198   8.050 -0.2670  0.1715 -0.0978
  133POPC   C2B 2087   9.212   8.914   7.807 -0.2466 -0.0832  0.0281
  133POPC   C3B 2088   9.422   8.785   7.493  0.0548 -0.4018  0.0442
  133POPC   C4B 2089   9.814   8.910   7.333 -0.1923 -0.0591 -0.0597
  134POPC   NC3 2090  10.233   4.826   9.256 -0.1015 -0.2436 -0.2199
  134POPC   PO4 2091  10.377   5.039   8.799 -0.0598  0.1412 -0.2739
  134POPC   GL1 2092  10.101   5.042   8.440 -0.0810 -0.2795  0.2365
  134POPC   GL2 2093   9.938   4.910   8.248  0.0913  0.0810 -0.0640
  134POPC   C1A 2094   9.775   5.319   8.458 -0.2163 -0.2904  0.1627
  134POPC   D2A 2095   9.324   5.589   8.379  0.2911  0.1635  0.4325
  134POPC   C3A 2096   9.272   5.862   8.053 -0.0411  0.0134 -0.3817
  134POPC   C4A 2097   9.500   6.032   7.806  0.3832  0.0651 -0.1766
  134POPC   C1B 2098  10.176   4.749   7.912  0.2301  0.0549 -0.0562
  134POPC   C2B 2099  10.514   4.785   7.576  0.3367 -0.0714 -0.0333
  134POPC   C3B 2100  10.736   4.922   7.168  0.2254 -0.2242 -0.3668
  134POPC   C4B 2101  10.743   4.901   6.804  0.1824 -0.1238 -0.0975
  135POPC   NC3 2102   5.680   2.933   9.666  0.0777  0.0645  0.1881
  135POPC   PO4 2103   5.648   3.161   9.303  0.0366 -0.1688 -0.1590
  135POPC   GL1 2104   5.826   3.045   8.765  0.0764 -0.2043  0.2820
  135POPC   GL2 2105   5.916   2.730   8.627  0.2276  0.0736  0.0335
  135POPC   C1A 2106   5.921   3.089   8.231 -0.2185 -0.1298  0.0170
  135POPC   D2A 2107   6.118   2.734   8.015  0.1315  0.1407  0.3815
  135POPC   C3A 2108   6.214   3.046   7.688 -0.1625  0.5154 -0.3459
  135POPC   C4A 2109   6.537   3.220   7.481  0.2228  0.1926 -0.1502
  135POPC   C1B 2110   5.842   2.425   8.348  0.2439  0.1479  0.2221
  135POPC   C2B 2111   5.750   2.375   7.936 -0.2181 -0.0246 -0.3392
  135POPC   C3B 2112   5.813   2.056   7.640  0.2410 -0.0257  0.1257
  135POPC   C4B 2113   5.554   1.942   7.233 -0.0108  0.0696 -0.0294
  136POPC   NC3 2114   8.770  10.481   8.645 -0.1004 -0.1201  0.2192
  136POPC   PO4 2115   9.161  10.490   8.831  0.0293 -0.0091 -0.0721
  136POPC   GL1 2116   9.107  10.766   8.365 -0.3213 -0.5368  0.0738
  136POPC   GL2 2117   8.871  10.649   8.122 -0.0364  0.2678  0.1334
  136POPC   C1A 2118   9.217  10.884   7.919 -0.0412  0.1174 -0.0911
  136POPC   D2A 2119   9.054  10.776   7.583  0.1741  0.2585  0.0245
  136POPC   C3A 2120   9.106  10.927   7.153 -0.1961  0.1304 -0.5207
  136POPC   C4A 2121   9.059  10.812   6.697  0.1190  0.0992 -0.2309
  136POPC   C1B 2122   9.181  10.414   7.963  0.3133 -0.1529  0.1047
  136POPC   C2B 2123   9.456  10.312   7.655 -0.3013 -0.1550  0.1135
  136POPC   C3B 2124   9.447  10.471   7.292 -0.0147  0.1227 -0.4202
  136POPC   C4B 2125   9.436  10.525   6.783 -0.0011 -0.1030 -0.0092
  137POPC   NC3 2126  10.066   0.870   8.973  0.0213  0.1040 -0.1188
  137POPC   PO4 2127   9.877   0.531   8.993  0.2215  0.2082 -0.2442
  137POPC   GL1 2128  10.027   0.562   8.558 -0.0677  0.0786  0.2322
  137POPC   GL2 2129   9.952   0.291   8.491  0.3030  0.0103  0.2272
  137POPC   C1A 2130   9.847   0.741   8.213 -0.0270  0.1772 -0.1543
  137POPC   D2A 2131   9.630   0.812   7.890  0.0150 -0.2133  0.3886
  137POPC   C3A 2132   9.676   0.550   7.610 -0.1869 -0.0823  0.0305
  137POPC   C4A 2133   9.777   0.375   7.282 -0.4492 -0.2469 -0.4335
  137POPC   C1B 2134   9.750   0.242   8.086  0.0716 -0.0696  0.1440
  137POPC   C2B 2135   9.879   0.033   7.729  0.2358  0.2347  0.0600
  137POPC   C3B 2136  10.041  -0.010   7.275 -0.0312 -0.0262  0.0972
  137POPC   C4B 2137  10.401  -0.265   7.093 -0.2681 -0.1571  0.1281
  138POPC   NC3 2138   2.399   4.744   8.570 -0.0503  0.1396  0.1945
  138POPC   PO4 2139   2.733   4.735   8.501 -0.5101  0.0522 -0.0270
  138POPC   GL1 2140   2.683   4.999   8.231 -0.0951 -0.0729  0.1251
  138POPC   GL2 2141   2.992   5.169   8.157 -0.3518  0.0571 -0.3276
  138POPC   C1A 2142   2.541   4.935   7.846 -0.0343  0.0843  0.2659
  138POPC   D2A 2143   2.336   4.754   7.447 -0.0047 -0.0343  0.0780
  138POPC   C3A 2144   2.514   4.508   7.099 -0.0496 -0.1686 -0.0387
  138POPC   C4A 2145   2.718   4.454   6.649 -0.0681  0.0913 -0.1496
  138POPC   C1B 2146   2.932   5.270   7.729 -0.1450 -0.0098 -0.0704
  138POPC   C2B 2147   2.773   5.422   7.471 -0.1226  0.0350  0.3214
  138POPC   C3B 2148   2.636   5.477   7.028  0.2297 -0.1245  0.0023
  138POPC   C4B 2149   2.668   5.388   6.564  0.0111  0.1935 -0.1589
  139POPC   NC3 2150   3.304   6.193   8.820 -0.1126 -0.0441  0.1426
  139POPC   PO4 2151   2.964   6.397   8.607  0.2293 -0.3994  0.1166
  139POPC   GL1 2152   3.008   6.481   8.227 -0.0572 -0.0369 -0.4477
  139POPC   GL2 2153   3.045   6.830   8.319  0.0902  0.2228  0.1681
  139POPC   C1A 2154   2.904   6.269   7.799 -0.0734 -0.3139  0.0784
  139POPC   D2A 2155   3.010   6.002   7.483 -0.0424  0.0930 -0.3268
  139POPC   C3A 2156   3.387   6.132   7.173  0.1049  0.1534  0.1092
  139POPC   C4A 2157   3.506   5.889   6.726  0.3052  0.5023  0.0375
  139POPC   C1B 2158   3.361   6.869   8.092  0.0820 -0.0429  0.2110
  139POPC   C2B 2159   3.502   6.664   7.677  0.0784 -0.0129 -0.0792
  139POPC   C3B 2160   3.628   6.583   7.267  0.1897 -0.0255  0.0760
  139POPC   C4B 2161   3.931   6.756   7.046  0.0071 -0.1643  0.0466
  140POPC   NC3 2162   1.909   7.899   9.469  0.2779 -0.1227 -0.2004
  140POPC   PO4 2163   2.019   7.498   9.316 -0.0277  0.2122 -0.0855
  140POPC   GL1 2164   2.093   7.787   8.954  0.1257  0.1859  0.0048
  140POPC   GL2 2165   1.851   7.668   8.688  0.1278  0.0165 -0.3334
  140POPC   C1A 2166   2.330   7.498   8.605  0.1378 -0.2704 -0.1864
  140POPC   D2A 2167   2.165   7.246   8.307 -0.3613 -0.3880  0.2576
  140POPC   C3A 2168   2.368   7.085   7.924 -0.1313 -0.0003 -0.1716
  140POPC   C4A 2169   2.789   7.299   7.694 -0.0501  0.2535  0.1154
  140POPC   C1B 2170   1.619   8.012   8.426 -0.0948  0.0105 -0.1244
  140POPC   C2B 2171   1.778   8.392   8.087 -0.2041  0.2798 -0.1551
  140POPC   C3B 2172   1.665   8.730   8.016  0.0604  0.0669  0.1283
  140POPC   C4B 2173   1.743   9.000   8.173  0.1124 -0.0555  0.2936
  141POPC   NC3 2174  10.249   5.950   9.115  0.2403  0.0217 -0.2211
  141POPC   PO4 2175  10.373   6.108   8.704  0.0335  0.4316 -0.2067
  141POPC   GL1 2176  10.288   6.059   8.233  0.1376 -0.0817 -0.1541
  141POPC   GL2 2177  10.539   5.995   8.175 -0.2798  0.1287 -0.1508
  141POPC   C1A 2178  10.043   5.890   7.800  0.1512 -0.1485 -0.0081
  141POPC   D2A 2179   9.788   6.024   7.441 -0.0425 -0.2690  0.1800
  141POPC   C3A 2180  10.001   5.739   7.043  0.4367  0.0117  0.1113
  141POPC   C4A 2181  10.150   5.642   6.667  0.2323  0.2096 -0.0806
  141POPC   C1B 2182  10.494   6.160   7.853 -0.2470  0.0631  0.4278
  141POPC   C2B 2183  10.532   6.352   7.444 -0.2812 -0.1548  0.1123
  141POPC   C3B 2184  10.543   6.538   7.088  0.0440 -0.3713 -0.1366
  141POPC   C4B 2185  10.373   6.921   6.834  0.2058  0.0883 -0.0539
  142POPC   NC3 2186   2.640   0.355   9.895  0.0329  0.1439  0.0184
  142POPC   PO4 2187   3.110   0.419   9.717  0.5482 -0.1317  0.4742
  142POPC   GL1 2188   3.334   0.111   9.425 -0.1565  0.0486  0.1301
  142POPC   GL2 2189   3.301   0.350   9.155  0.6575 -0.0950 -0.4281
  142POPC   C1A 2190   3.080  -0.086   9.067  0.0071  0.0136 -0.0734
  142POPC   D2A 2191   2.887   0.267   8.759 -0.3674  0.1754  0.1304
  142POPC   C3A 2192   2.998   0.218   8.318 -0.1688  0.0809 -0.1878
  142POPC   C4A 2193   2.761   0.312   8.062  0.0770  0.0131 -0.0390
  142POPC   C1B 2194   3.088   0.678   9.005 -0.2837 -0.2205  0.1693
  142POPC   C2B 2195   2.809   0.801   8.622 -0.0405 -0.0993  0.1115
  142POPC   C3B 2196   2.858   1.004   8.191 -0.0548  0.3441  0.2481
  142POPC   C4B 2197   3.210   1.017   8.013 -0.0691  0.2664  0.2078
  143POPC   NC3 2198   6.483  10.372   9.224 -0.0879  0.0842  0.1152
  143POPC   PO4 2199   6.037  10.279   8.949  0.0435 -0.0654  0.0999
  143POPC   GL1 2200   6.137  10.492   8.562 -0.1202 -0.0947 -0.0794
  143POPC   GL2 2201   5.807  10.438   8.337 -0.0552  0.0007 -0.1676
  143POPC   C1A 2202   6.139  10.676   8.090 -0.0799 -0.1336  0.1975
  143POPC   D2A 2203   6.021  10.771   7.652  0.0411  0.3354 -0.3285
  143POPC   C3A 2204   5.640  10.971   7.387  0.0479  0.0418 -0.1078
  143POPC   C4A 2205   5.726  11.248   7.087  0.0963 -0.2259  0.3035
  143POPC   C1B 2206   5.855  10.292   7.873 -0.1165 -0.0310 -0.2360
  143POPC   C2B 2207   5.708  10.374   7.478  0.1748 -0.0034  0.3556
  143POPC   C3B 2208   5.671  10.598   7.041  0.1204  0.2615  0.2248
  143POPC   C4B 2209   5.502  10.791   6.764 -0.0492  0.0051  0.2262
  144POPC   NC3 2210   5.930   7.951   8.530 -0.0692  0.3476 -0.0899
  144POPC   PO4 2211   6.368   8.177   8.571  0.0036  0.0536  0.0223
  144POPC   GL1 2212   6.307   8.235   8.173  0.0629 -0.3822  0.0700
  144POPC   GL2 2213   6.123   8.609   8.031 -0.0724  0.0442 -0.3455
  144POPC   C1A 2214   6.451   8.364   7.761 -0.4953 -0.1650 -0.3189
  144POPC   D2A 2215   6.456   8.486   7.300 -0.1256 -0.0123 -0.3966
  144POPC   C3A 2216   6.805   8.456   7.088 -0.1662 -0.3099  0.0349
  144POPC   C4A 2217   7.242   8.555   6.837 -0.1705 -0.1953 -0.0311
  144POPC   C1B 2218   6.102   8.669   7.610 -0.0649 -0.1828  0.3088
  144POPC   C2B 2219   5.915   8.712   7.131  0.1396 -0.1111 -0.0632
  144POPC   C3B 2220   5.755   9.019   6.871 -0.0836 -0.0037  0.1587
  144POPC   C4B 2221   5.412   9.211   6.587  0.0624  0.1246  0.1098
  145POPC   NC3 2222   4.097   0.767   9.669 -0.0825  0.2497  0.0850
  145POPC   PO4 2223   3.683   1.009   9.771 -0.0369  0.0960 -0.1146
  145POPC   GL1 2224   3.682   0.909   9.392  0.1432  0.0201  0.3203
  145POPC   GL2 2225   3.723   0.663   9.193 -0.2872 -0.0643  0.0220
  145POPC   C1A 2226   3.801   1.099   8.925  0.1442 -0.0778  0.3543
  145POPC   D2A 2227   4.073   1.378   8.628  0.1166 -0.0761 -0.2575
  145POPC   C3A 2228   4.393   1.371   8.279  0.3604  0.0313 -0.6395
  145POPC   C4A 2229   4.765   1.316   8.045 -0.3105 -0.0541  0.2378
  145POPC   C1B 2230   3.512   0.712   8.760  0.1371 -0.0509  0.1973
  145POPC   C2B 2231   3.252   0.616   8.341  0.1041 -0.2305  0.2139
  145POPC   C3B 2232   3.257   0.557   7.904 -0.1259 -0.2056 -0.4572
  145POPC   C4B 2233   3.191   0.548   7.584 -0.0829 -0.0950  0.0336
  146POPC   NC3 2234   7.146   2.296   8.983  0.0454  0.0494 -0.0169
  146POPC   PO4 2235   7.244   2.487   8.652 -0.0512  0.0253  0.0278
  146POPC   GL1 2236   7.152   2.734   8.258  0.1082  0.2793  0.2562
  146POPC   GL2 2237   7.510   2.796   8.096  0.2354  0.1951 -0.3624
  146POPC   C1A 2238   7.129   3.042   7.957  0.1640  0.4737  0.0457
  146POPC   D2A 2239   7.077   3.288   7.565  0.0841  0.1564 -0.2209
  146POPC   C3A 2240   7.562   3.308   7.413 -0.0007  0.0211 -0.4146
  146POPC   C4A 2241   8.020   3.410   7.444 -0.0350  0.0438  0.0698
  146POPC   C1B 2242   7.591   2.739   7.615 -0.1373 -0.0752  0.0138
  146POPC   C2B 2243   7.619   2.803   7.213  0.0998  0.0331 -0.0848
  146POPC   C3B 2244   7.915   2.611   6.891  0.1815 -0.0335 -0.0628
  146POPC   C4B 2245   8.341   2.311   6.918  0.1185  0.3474  0.1676
  147POPC   NC3 2246   8.355   7.890   9.177 -0.2672  0.3078  0.1748
  147POPC   PO4 2247   8.620   8.023   8.832 -0.1668 -0.1501  0.0671
  147POPC   GL1 2248   8.556   7.828   8.355  0.0280 -0.0081 -0.0237
  147POPC   GL2 2249   8.740   7.573   8.269  0.0167  0.1379 -0.1680
  147POPC   C1A 2250   8.720   8.021   7.981 -0.2954  0.1674  0.2359
  147POPC   D2A 2251   9.037   7.991   7.666  0.1696  0.2880  0.3216
  147POPC   C3A 2252   8.836   8.137   7.262 -0.2385  0.1958 -0.1393
  147POPC   C4A 2253   8.408   8.353   7.211 -0.1974  0.0609 -0.0952
  147POPC   C1B 2254   8.446   7.612   7.853 -0.0883 -0.0045 -0.2928
  147POPC   C2B 2255   8.480   7.904   7.486  0.1803 -0.0212 -0.2998
  147POPC   C3B 2256   8.134   7.926   7.159 -0.1883 -0.0557  0.0282
  147POPC   C4B 2257   8.244   8.048   6.698 -0.0835 -0.2932 -0.2700
  148POPC   NC3 2258   6.388  10.001   8.756  0.3435  0.1268 -0.3632
  148POPC   PO4 2259   6.552  10.314   8.720 -0.1360 -0.0257 -0.3301
  148POPC   GL1 2260   6.739  10.246   8.397 -0.1896  0.0622  0.1895
  148POPC   GL2 2261   6.558  10.424   8.170 -0.1601  0.2003  0.1727
  148POPC   C1A 2262   6.957  10.323   7.964  0.1423  0.0030  0.1567
  148POPC   D2A 2263   6.863  10.375   7.470  0.0720 -0.1493 -0.1225
  148POPC   C3A 2264   6.684  10.529   7.094  0.2366  0.2081 -0.2266
  148POPC   C4A 2265   6.886  10.475   6.642  0.2231 -0.0301 -0.1215
  148POPC   C1B 2266   6.476  10.502   7.723 -0.0170  0.2570 -0.0574
  148POPC   C2B 2267   6.196  10.365   7.392 -0.3522 -0.1510  0.1026
  148POPC   C3B 2268   6.115  10.286   6.970  0.0129  0.2065  0.0373
  148POPC   C4B 2269   5.701  10.232   6.579  0.2522 -0.2052 -0.3536
  149POPC   NC3 2270   4.394   4.686   8.321  0.2438 -0.0453  0.0306
  149POPC   PO4 2271   4.020   4.391   8.458 -0.0514 -0.4445  0.2108
  149POPC   GL1 2272   3.956   4.584   8.005 -0.2028 -0.0508  0.0260
  149POPC   GL2 2273   3.718   4.833   7.993 -0.0758  0.2616  0.3306
  149POPC   C1A 2274   4.321   4.568   7.706  0.1130 -0.3442  0.1060
  149POPC   D2A 2275   4.545   4.501   7.284 -0.0213  0.0475 -0.1112
  149POPC   C3A 2276   4.531   4.827   6.895 -0.0826 -0.2043 -0.1212
  149POPC   C4A 2277   4.739   5.283   6.938  0.0327  0.1892 -0.1607
  149POPC   C1B 2278   3.891   4.785   7.513 -0.1773  0.1342 -0.0614
  149POPC   C2B 2279   4.146   4.699   7.148 -0.1501  0.0523  0.1553
  149POPC   C3B 2280   4.199   4.365   6.854 -0.0719 -0.2775 -0.0163
  149POPC   C4B 2281   3.969   3.978   6.669  0.0056  0.0676  0.0586
  150POPC   NC3 2282   1.952   3.493   8.988  0.0016  0.2529 -0.0789
  150POPC   PO4 2283   1.558   3.586   8.875 -0.1703 -0.0313 -0.0099
  150POPC   GL1 2284   1.260   3.591   8.440  0.2932  0.3109  0.1979
  150POPC   GL2 2285   1.069   3.757   8.170  0.5114 -0.0701  0.1414
  150POPC   C1A 2286   1.416   3.250   8.097  0.1879 -0.1007 -0.0539
  150POPC   D2A 2287   1.300   3.217   7.676  0.3116 -0.0042  0.1321
  150POPC   C3A 2288   1.674   3.335   7.354  0.0240 -0.0916 -0.1558
  150POPC   C4A 2289   1.993   3.134   7.235 -0.3549  0.3325  0.3012
  150POPC   C1B 2290   0.900   3.510   7.853 -0.0617 -0.0522 -0.3752
  150POPC   C2B 2291   0.859   3.270   7.529 -0.0989 -0.0450  0.1443
  150POPC   C3B 2292   1.081   3.103   7.163 -0.1929 -0.0827  0.1176
  150POPC   C4B 2293   1.358   3.296   6.944 -0.1566  0.0842 -0.2656
  151POPC   NC3 2294   8.675   9.159   9.324  0.2147 -0.2779 -0.2585
  151POPC   PO4 2295   8.721   8.948   8.870  0.3020 -0.1405  0.0195
  151POPC   GL1 2296   8.751   8.987   8.376 -0.1256 -0.3009 -0.1182
  151POPC   GL2 2297   8.562   8.786   8.191  0.1779  0.0848 -0.1486
  151POPC   C1A 2298   8.823   9.177   7.919  0.0260  0.0155 -0.3007
  151POPC   D2A 2299   8.936   9.113   7.496  0.1936 -0.0130  0.0500
  151POPC   C3A 2300   8.703   9.338   7.250  0.0154  0.0041 -0.1312
  151POPC   C4A 2301   8.396   9.513   7.034  0.1960 -0.1867  0.0572
  151POPC   C1B 2302   8.509   8.868   7.788 -0.2373  0.0482 -0.2948
  151POPC   C2B 2303   8.527   8.862   7.397  0.2500 -0.2990  0.3628
  151POPC   C3B 2304   8.465   8.956   6.970 -0.0749  0.1828  0.0538
  151POPC   C4B 2305   8.059   9.177   6.832 -0.1037  0.1326 -0.3974
  152POPC   NC3 2306   4.951   0.151   8.890  0.0427  0.0222 -0.2673
  152POPC   PO4 2307   4.832  -0.277   9.006  0.3823  0.0849 -0.1536
  152POPC   GL1 2308   4.696  -0.249   8.604 -0.0469 -0.0378 -0.0116
  152POPC   GL2 2309   4.714   0.046   8.408 -0.1306 -0.2030 -0.0545
  152POPC   C1A 2310   4.342  -0.267   8.317 -0.0600  0.1108  0.1160
  152POPC   D2A 2311   4.157  -0.398   8.006  0.0137 -0.1721 -0.2584
  152POPC   C3A 2312   4.196  -0.482   7.588  0.0770 -0.1074  0.5202
  152POPC   C4A 2313   4.271  -0.693   7.188 -0.0944 -0.1225  0.2464
  152POPC   C1B 2314   4.848  -0.022   8.043  0.0003  0.0229 -0.0579
  152POPC   C2B 2315   5.047  -0.287   7.711  0.0665  0.3206  0.2441
  152POPC   C3B 2316   5.268  -0.591   7.546 -0.0716  0.0527  0.1913
  152POPC   C4B 2317   5.644  -0.722   7.795  0.0483 -0.2355 -0.1138
  153POPC   NC3 2318   1.606   6.669   9.049 -0.4104 -0.0713  0.0997
  153POPC   PO4 2319   2.053   6.504   8.883 -0.2218 -0.0495  0.0930
  153POPC   GL1 2320   1.928   6.830   8.682 -0.0877  0.3095  0.1549
  153POPC   GL2 2321   1.902   7.146   8.802  0.0284  0.0990 -0.0180
  153POPC   C1A 2322   2.072   6.710   8.264  0.1046  0.1336  0.0559
  153POPC   D2A 2323   1.979   6.646   7.800 -0.1955 -0.1373 -0.2563
  153POPC   C3A 2324   1.850   6.942   7.631  0.0972 -0.0814  0.0844
  153POPC   C4A 2325   2.137   7.106   7.432  0.4851 -0.3246 -0.0455
  153POPC   C1B 2326   1.690   7.190   8.386  0.2419  0.0979 -0.0295
  153POPC   C2B 2327   1.723   7.201   8.016 -0.1142 -0.2801 -0.3315
  153POPC   C3B 2328   1.669   7.398   7.623 -0.0566 -0.0204  0.0051
  153POPC   C4B 2329   1.577   7.606   7.283  0.2685  0.2273  0.0428
  154POPC   NC3 2330   0.288   2.552   9.139  0.0464 -0.1179 -0.1756
  154POPC   PO4 2331   0.583   2.774   9.021  0.0605 -0.0588 -0.0818
  154POPC   GL1 2332   0.782   2.815   8.622 -0.1745  0.1605  0.1230
  154POPC   GL2 2333   0.991   2.527   8.526 -0.0153 -0.0204 -0.0344
  154POPC   C1A 2334   0.540   2.756   8.226  0.2780  0.0542 -0.2864
  154POPC   D2A 2335   0.109   2.907   8.174  0.3252  0.2259 -0.2301
  154POPC   C3A 2336  -0.029   3.259   7.852  0.3692  0.1031  0.0759
  154POPC   C4A 2337  -0.100   3.164   7.460  0.0331 -0.0757  0.2946
  154POPC   C1B 2338   0.897   2.409   8.124  0.1031  0.0884  0.0543
  154POPC   C2B 2339   0.714   2.502   7.747 -0.0661 -0.1021  0.0203
  154POPC   C3B 2340   0.375   2.385   7.448 -0.0047  0.0339 -0.1652
  154POPC   C4B 2341   0.029   2.253   7.253 -0.1382 -0.2429  0.0949
  155POPC   NC3 2342   8.434  10.010   8.738  0.0125  0.1088  0.2013
  155POPC   PO4 2343   8.855   9.926   8.596 -0.0696  0.3581 -0.0585
  155POPC   GL1 2344   8.761  10.118   8.238 -0.0787 -0.0450 -0.1750
  155POPC   GL2 2345   8.465  10.211   8.269 -0.1045  0.0640  0.0504
  155POPC   C1A 2346   8.818  10.120   7.786  0.1795 -0.1352 -0.2460
  155POPC   D2A 2347   8.876  10.316   7.474 -0.3179  0.3032 -0.0376
  155POPC   C3A 2348   8.625  10.611   7.271 -0.1214 -0.1714 -0.1571
  155POPC   C4A 2349   8.674  10.808   6.991 -0.0758  0.2620  0.0917
  155POPC   C1B 2350   8.255  10.070   7.966 -0.1421 -0.1526 -0.0262
  155POPC   C2B 2351   8.172   9.866   7.696 -0.0326  0.0357 -0.1136
  155POPC   C3B 2352   8.075   9.860   7.244  0.1776  0.0778 -0.0033
  155POPC   C4B 2353   8.147  10.004   6.820  0.1040  0.3904  0.5392
  156POPC   NC3 2354   0.093  10.038  10.242  0.0615 -0.0722  0.0374
  156POPC   PO4 2355   0.471  10.080   9.964 -0.0738  0.0078 -0.0090
  156POPC   GL1 2356   0.653   9.847   9.649 -0.2672 -0.1379  0.2851
  156POPC   GL2 2357   0.761  10.150   9.520  0.1403  0.0793  0.4006
  156POPC   C1A 2358   0.890   9.457   9.393 -0.2417  0.0095 -0.1904
  156POPC   D2A 2359   1.047   9.283   8.983 -0.1900 -0.2294  0.2922
  156POPC   C3A 2360   1.188   9.609   8.619 -0.1446  0.1804  0.3142
  156POPC   C4A 2361   1.180   9.989   8.535  0.4461  0.1676  0.2215
  156POPC   C1B 2362   1.100  10.408   9.203  0.1794 -0.2083  0.1256
  156POPC   C2B 2363   1.113  10.752   8.722 -0.0698 -0.1870  0.1505
  156POPC   C3B 2364   1.484  10.933   8.732  0.1481 -0.0303 -0.1820
  156POPC   C4B 2365   1.763  11.107   8.921  0.1660  0.2911 -0.0042
  157POPC   NC3 2366   5.823   3.875   9.275 -0.0190  0.4035 -0.3597
  157POPC   PO4 2367   5.621   3.638   8.978  0.3226 -0.0721 -0.0941
  157POPC   GL1 2368   5.442   3.729   8.535 -0.2590  0.0379 -0.0641
  157POPC   GL2 2369   5.475   3.380   8.441  0.1534 -0.2620 -0.2082
  157POPC   C1A 2370   5.456   3.674   8.012  0.1498  0.1085  0.2790
  157POPC   D2A 2371   5.560   3.913   7.709  0.0893  0.0628 -0.1425
  157POPC   C3A 2372   5.866   3.907   7.367 -0.0849  0.0360 -0.3030
  157POPC   C4A 2373   6.065   3.786   6.925  0.0008 -0.0407 -0.1377
  157POPC   C1B 2374   5.215   3.234   8.221 -0.1977 -0.1800  0.2663
  157POPC   C2B 2375   5.209   3.276   7.804 -0.0205 -0.1306 -0.1058
  157POPC   C3B 2376   5.359   3.396   7.552  0.1342  0.0863  0.1707
  157POPC   C4B 2377   5.356   3.821   7.282  0.1669  0.1824  0.1257
  158POPC   NC3 2378   4.770   1.040   8.935 -0.0757 -0.1109 -0.3427
  158POPC   PO4 2379   4.851   1.503   8.939 -0.4177  0.0722 -0.1420
  158POPC   GL1 2380   4.898   1.790   8.584  0.0387 -0.2269  0.3496
  158POPC   GL2 2381   5.066   1.578   8.291 -0.1205  0.2312 -0.0037
  158POPC   C1A 2382   4.585   1.783   8.201  0.0170  0.1348  0.2425
  158POPC   D2A 2383   4.369   2.038   8.050 -0.2136 -0.3550  0.1021
  158POPC   C3A 2384   4.315   2.068   7.689 -0.2928 -0.0602  0.2159
  158POPC   C4A 2385   4.157   1.992   7.364  0.0941  0.1473  0.1363
  158POPC   C1B 2386   4.955   1.716   7.890 -0.0832  0.2426  0.0216
  158POPC   C2B 2387   4.824   1.729   7.366 -0.0251  0.0128  0.2145
  158POPC   C3B 2388   4.534   2.013   7.072  0.2508 -0.0138 -0.2663
  158POPC   C4B 2389   4.294   2.010   6.740 -0.4294 -0.0761  0.2735
  159POPC   NC3 2390   2.168   0.317  10.653 -0.3575  0.1727  0.1549
  159POPC   PO4 2391   2.284   0.124  10.236 -0.2052  0.0370  0.2303
  159POPC   GL1 2392   2.458  -0.125   9.753  0.2230  0.1168 -0.1658
  159POPC   GL2 2393   2.553  -0.460   9.837  0.0493 -0.0730 -0.1818
  159POPC   C1A 2394   2.415  -0.021   9.346 -0.1891  0.0186 -0.0852
  159POPC   D2A 2395   2.553  -0.131   8.887  0.3481 -0.0308 -0.0113
  159POPC   C3A 2396   2.562  -0.540   8.627 -0.0736 -0.0452 -0.1764
  159POPC   C4A 2397   2.695  -0.967   8.523  0.2034  0.0055  0.0310
  159POPC   C1B 2398   2.711  -0.463   9.514 -0.0923  0.3119  0.1490
  159POPC   C2B 2399   2.859  -0.499   9.034  0.0069  0.1691  0.1401
  159POPC   C3B 2400   3.107  -0.637   8.603  0.0173 -0.1250 -0.0281
  159POPC   C4B 2401   3.156  -0.851   8.331  0.0815 -0.3679 -0.0067
  160POPC   NC3 2402   6.945   0.501   8.658 -0.1665 -0.0601 -0.0381
  160POPC   PO4 2403   7.028   0.977   8.630 -0.0048 -0.1537 -0.3449
  160POPC   GL1 2404   6.611   0.795   8.339  0.0132  0.0869  0.0143
  160POPC   GL2 2405   6.338   1.000   8.168 -0.0628 -0.0443 -0.1182
  160POPC   C1A 2406   6.488   0.512   8.071 -0.1712 -0.0564 -0.1141
  160POPC   D2A 2407   6.477   0.628   7.676  0.1375 -0.1183  0.0628
  160POPC   C3A 2408   6.336   0.425   7.259 -0.0747 -0.1411 -0.3591
  160POPC   C4A 2409   6.162   0.303   6.858  0.1428 -0.0172  0.1078
  160POPC   C1B 2410   6.297   1.334   7.991 -0.1534  0.0419 -0.2145
  160POPC   C2B 2411   6.366   1.811   7.677  0.1024 -0.0536  0.0672
  160POPC   C3B 2412   6.300   2.060   7.349  0.3081  0.1391  0.0336
  160POPC   C4B 2413   6.282   2.233   6.808  0.1448  0.0262  0.0560
  161POPC   NC3 2414  10.489   7.767   9.666  0.2344  0.2928 -0.1750
  161POPC   PO4 2415  10.253   7.759   9.313 -0.1099 -0.0339  0.1507
  161POPC   GL1 2416  10.486   7.731   8.894  0.0771  0.4374 -0.0406
  161POPC   GL2 2417  10.596   7.907   8.633  0.0373  0.0881 -0.0669
  161POPC   C1A 2418  10.767   7.498   8.511 -0.1253 -0.2215  0.1286
  161POPC   D2A 2419  10.714   7.230   8.134 -0.1967 -0.3274  0.1337
  161POPC   C3A 2420  10.628   7.611   7.838 -0.0306 -0.1374  0.1995
  161POPC   C4A 2421  10.783   7.909   7.463 -0.0795  0.1017 -0.1150
  161POPC   C1B 2422  10.931   7.905   8.267  0.0244  0.1610  0.0784
  161POPC   C2B 2423  11.198   7.936   7.762 -0.0020 -0.1527 -0.1597
  161POPC   C3B 2424  11.494   8.136   7.600  0.1106 -0.1010 -0.0178
  161POPC   C4B 2425  11.874   8.052   7.324  0.3724 -0.1729 -0.0772
  162POPC   NC3 2426  10.026   1.824   9.304  0.0581 -0.0838  0.1826
  162POPC   PO4 2427  10.230   1.848   8.893  0.1232  0.2411 -0.1511
  162POPC   GL1 2428  10.475   1.710   8.544 -0.0455  0.1541  0.2916
  162POPC   GL2 2429  10.285   1.458   8.216  0.0507  0.2993  0.1963
  162POPC   C1A 2430  10.737   1.738   8.251 -0.2222  0.1546 -0.0884
  162POPC   D2A 2431  10.852   1.609   7.934  0.1078 -0.1333  0.0230
  162POPC   C3A 2432  10.479   1.383   7.734 -0.0673  0.0459 -0.1823
  162POPC   C4A 2433  10.264   1.474   7.293  0.1346 -0.2551 -0.6075
  162POPC   C1B 2434  10.006   1.169   7.874 -0.0883 -0.0311 -0.0863
  162POPC   C2B 2435   9.922   1.117   7.486 -0.2002  0.0956  0.2658
  162POPC   C3B 2436   9.908   1.097   7.043  0.1264  0.3483  0.1164
  162POPC   C4B 2437  10.061   0.737   6.820 -0.1678 -0.1880 -0.1013
  163POPC   NC3 2438   7.159   8.171   8.634  0.4835 -0.2285 -0.0015
  163POPC   PO4 2439   7.558   7.971   8.539 -0.1493  0.1956  0.2553
  163POPC   GL1 2440   7.656   8.067   8.105 -0.2859 -0.0640 -0.0303
  163POPC   GL2 2441   7.962   7.923   8.027  0.0151 -0.1117 -0.0993
  163POPC   C1A 2442   7.574   8.044   7.561  0.0177  0.0634  0.1132
  163POPC   D2A 2443   7.660   7.923   7.130 -0.1615  0.0496  0.0786
  163POPC   C3A 2444   7.442   8.040   6.743 -0.0065  0.0936 -0.3736
  163POPC   C4A 2445   7.052   8.129   6.590 -0.1290  0.4840 -0.0409
  163POPC   C1B 2446   7.999   7.845   7.686  0.0917  0.1123 -0.2295
  163POPC   C2B 2447   8.049   8.227   7.616  0.2722  0.0832  0.2219
  163POPC   C3B 2448   8.110   8.619   7.668  0.1677  0.3888  0.1553
  163POPC   C4B 2449   7.921   8.914   7.840 -0.1903 -0.1246  0.3496
  164POPC   NC3 2450   9.212   4.317   9.010  0.0768  0.1386 -0.3407
  164POPC   PO4 2451   9.033   4.696   9.024  0.1356  0.0893  0.0233
  164POPC   GL1 2452   8.884   4.490   8.648  0.3724  0.0361 -0.2753
  164POPC   GL2 2453   8.751   4.230   8.475  0.3299 -0.1595  0.4216
  164POPC   C1A 2454   9.165   4.490   8.369  0.1928 -0.3404  0.1600
  164POPC   D2A 2455   8.966   4.722   8.073  0.2164  0.1865 -0.0616
  164POPC   C3A 2456   8.736   4.479   7.828 -0.2139 -0.1622 -0.0935
  164POPC   C4A 2457   8.792   4.205   7.575 -0.1668  0.2437 -0.1529
  164POPC   C1B 2458   8.946   4.156   8.096  0.3338  0.0167  0.0215
  164POPC   C2B 2459   9.261   4.307   7.865 -0.1117 -0.0920  0.0798
  164POPC   C3B 2460   9.172   4.587   7.489 -0.0472 -0.1022  0.1483
  164POPC   C4B 2461   9.160   4.836   7.096 -0.1979 -0.2388  0.1083
  165POPC   NC3 2462   2.709   4.271   8.735 -0.0940  0.2818  0.3118
  165POPC   PO4 2463   2.305   4.297   8.754 -0.0719 -0.1086 -0.2386
  165POPC   GL1 2464   2.378   4.311   8.348  0.2140 -0.0354  0.1073
  165POPC   GL2 2465   2.161   4.505   8.184  0.0287 -0.1095 -0.1377
  165POPC   C1A 2466   2.485   4.119   7.959 -0.1424 -0.0184  0.4742
  165POPC   D2A 2467   2.922   4.090   7.812  0.0061 -0.1352  0.1613
  165POPC   C3A 2468   3.249   4.279   7.579 -0.3615  0.0601 -0.0860
  165POPC   C4A 2469   3.580   4.368   7.721  0.2474 -0.2203  0.2406
  165POPC   C1B 2470   2.136   4.498   7.816 -0.0567 -0.0989  0.0734
  165POPC   C2B 2471   2.020   4.355   7.382 -0.1396  0.2180  0.3140
  165POPC   C3B 2472   2.008   4.070   7.044  0.0122 -0.1223  0.0071
  165POPC   C4B 2473   2.061   3.898   6.622  0.1250  0.3711 -0.1077
  166POPC   NC3 2474   6.448   9.495   8.416 -0.2417 -0.0377 -0.1006
  166POPC   PO4 2475   6.065   9.556   8.279  0.3304  0.0509 -0.0215
  166POPC   GL1 2476   6.169   9.738   7.866  0.0915 -0.0829  0.0104
  166POPC   GL2 2477   6.393  10.027   7.842 -0.5504  0.1365 -0.0873
  166POPC   C1A 2478   6.117   9.905   7.493  0.2865 -0.1087  0.0712
  166POPC   D2A 2479   6.197   9.628   7.058  0.0338 -0.2605 -0.0757
  166POPC   C3A 2480   5.840   9.495   6.841  0.2955 -0.0437  0.0241
  166POPC   C4A 2481   5.442   9.633   6.839 -0.0776 -0.0703  0.0123
  166POPC   C1B 2482   6.616   9.965   7.513 -0.1355  0.1960  0.1521
  166POPC   C2B 2483   6.526  10.007   7.103 -0.3821 -0.3422  0.2782
  166POPC   C3B 2484   6.555  10.011   6.697 -0.0805 -0.0536  0.2364
  166POPC   C4B 2485   6.614  10.138   6.332  0.1744  0.1714 -0.3903
  167POPC   NC3 2486   7.057   5.219   9.043 -0.0062 -0.1257  0.1283
  167POPC   PO4 2487   7.057   4.751   8.888 -0.0304  0.0793  0.1144
  167POPC   GL1 2488   6.793   4.704   8.595  0.0181  0.0884 -0.0532
  167POPC   GL2 2489   6.703   4.426   8.335  0.4412 -0.1864  0.0243
  167POPC   C1A 2490   6.601   4.882   8.225  0.1145 -0.0738 -0.1743
  167POPC   D2A 2491   6.657   4.904   7.777  0.2230 -0.0298  0.0789
  167POPC   C3A 2492   6.617   5.080   7.383  0.2646 -0.2738 -0.1367
  167POPC   C4A 2493   6.744   5.049   6.909  0.2037 -0.0876 -0.0953
  167POPC   C1B 2494   6.743   4.468   7.918  0.2016  0.1616 -0.4385
  167POPC   C2B 2495   6.825   4.130   7.615 -0.0061  0.1648  0.1429
  167POPC   C3B 2496   6.957   4.198   7.246 -0.0056  0.2029 -0.0158
  167POPC   C4B 2497   7.080   4.024   6.849 -0.1918  0.3165 -0.0513
  168POPC   NC3 2498   8.917   4.398   5.231  0.0951 -0.2084  0.0225
  168POPC   PO4 2499   9.247   4.132   5.183 -0.3328 -0.0733  0.2261
  168POPC   GL1 2500   9.436   4.146   5.625  0.0448 -0.0787 -0.0728
  168POPC   GL2 2501   9.329   3.807   5.654  0.2636 -0.0464 -0.1078
  168POPC   C1A 2502   9.430   4.169   6.017  0.1555 -0.2381 -0.0383
  168POPC   D2A 2503   9.356   4.355   6.475 -0.0595  0.0610 -0.1453
  168POPC   C3A 2504   9.300   3.942   6.713 -0.1269 -0.3175 -0.1242
  168POPC   C4A 2505   9.449   3.638   7.003 -0.1077  0.0872 -0.0241
  168POPC   C1B 2506   9.569   3.718   6.039 -0.0406 -0.2212 -0.2025
  168POPC   C2B 2507   9.785   3.610   6.414  0.0227  0.4146 -0.0178
  168POPC   C3B 2508   9.774   3.318   6.790 -0.2702  0.0321  0.0927
  168POPC   C4B 2509   9.972   3.296   7.155  0.2451  0.0447  0.1560
  169POPC   NC3 2510   8.769   0.230   4.987 -0.1651  0.2839  0.0847
  169POPC   PO4 2511   9.227   0.168   5.012  0.0940 -0.0915 -0.0806
  169POPC   GL1 2512   9.424   0.074   5.376 -0.1805 -0.1237  0.0648
  169POPC   GL2 2513   9.682  -0.148   5.362 -0.0240  0.1104 -0.0344
  169POPC   C1A 2514   9.251  -0.268   5.662  0.0593 -0.2667  0.3556
  169POPC   D2A 2515   9.488  -0.586   5.797 -0.0210 -0.1356  0.4336
  169POPC   C3A 2516   9.819  -0.541   6.106  0.2238  0.3285  0.0938
  169POPC   C4A 2517  10.270  -0.565   6.265  0.2130 -0.2908  0.1657
  169POPC   C1B 2518   9.699  -0.122   5.827  0.2355 -0.1061  0.0453
  169POPC   C2B 2519   9.602  -0.047   6.177  0.2206 -0.0077  0.0493
  169POPC   C3B 2520   9.742  -0.243   6.484  0.0209 -0.2986 -0.2408
  169POPC   C4B 2521  10.112  -0.382   6.714 -0.2242  0.2394 -0.0910
  170POPC   NC3 2522   3.504   9.988   3.541  0.2927  0.0009  0.1661
  170POPC   PO4 2523   3.575   9.504   3.462 -0.1169 -0.2186  0.0977
  170POPC   GL1 2524   3.736   9.608   3.804  0.0660 -0.0332 -0.1876
  170POPC   GL2 2525   3.531   9.434   3.981 -0.2236 -0.0747 -0.2427
  170POPC   C1A 2526   3.914   9.694   4.238 -0.1024 -0.1186  0.1940
  170POPC   D2A 2527   4.155   9.793   4.626  0.1817  0.1172  0.0869
  170POPC   C3A 2528   4.661   9.842   4.624  0.3440 -0.2469  0.1307
  170POPC   C4A 2529   5.005   9.665   4.443  0.0273  0.0598 -0.1025
  170POPC   C1B 2530   3.339   9.085   4.274  0.2683  0.0671  0.0660
  170POPC   C2B 2531   3.060   8.793   4.461  0.1896  0.2642  0.0297
  170POPC   C3B 2532   3.040   8.620   4.908  0.2478  0.2748 -0.0359
  170POPC   C4B 2533   2.880   8.146   4.973  0.0735  0.1877 -0.1987
  171POPC   NC3 2534  10.348   5.549   4.915  0.2710  0.2246 -0.1070
  171POPC   PO4 2535  10.259   6.000   4.803 -0.0881  0.2350 -0.1873
  171POPC   GL1 2536  10.239   6.213   5.259  0.0470  0.4598 -0.1271
  171POPC   GL2 2537  10.418   6.458   5.219 -0.2458  0.0166 -0.3021
  171POPC   C1A 2538  10.323   6.339   5.651 -0.1509 -0.1863  0.2198
  171POPC   D2A 2539  10.368   6.259   5.979 -0.0202  0.2837  0.1116
  171POPC   C3A 2540  10.377   6.564   6.243  0.0572  0.2537  0.1568
  171POPC   C4A 2541  10.631   6.665   6.519  0.1109  0.0414  0.2375
  171POPC   C1B 2542  10.705   6.067   5.331  0.2980 -0.2209 -0.3087
  171POPC   C2B 2543  10.851   5.720   5.570  0.2068  0.0801 -0.0539
  171POPC   C3B 2544  10.952   5.292   5.638  0.1405 -0.0260  0.1403
  171POPC   C4B 2545  11.324   5.278   5.988 -0.0929 -0.0987  0.0263
  172POPC   NC3 2546   1.855   0.709   3.706  0.0378  0.2695  0.1166
  172POPC   PO4 2547   1.605   0.388   3.808 -0.2692  0.3276 -0.1348
  172POPC   GL1 2548   1.869   0.379   4.073 -0.0369 -0.0132 -0.0860
  172POPC   GL2 2549   1.804   0.701   4.197  0.0335 -0.1947 -0.1474
  172POPC   C1A 2550   1.664   0.123   4.391 -0.1808 -0.0110 -0.1867
  172POPC   D2A 2551   1.213   0.026   4.556 -0.0169 -0.0275  0.2565
  172POPC   C3A 2552   1.131  -0.387   4.625 -0.2091 -0.0249  0.2145
  172POPC   C4A 2553   0.849  -0.772   4.401  0.1661  0.1348 -0.4469
  172POPC   C1B 2554   1.969   0.671   4.684  0.2701  0.0389  0.0574
  172POPC   C2B 2555   1.993   0.782   5.168 -0.0013 -0.1993 -0.1322
  172POPC   C3B 2556   2.276   0.931   5.413  0.2003  0.3281  0.0203
  172POPC   C4B 2557   2.583   1.217   5.437 -0.0893 -0.1278 -0.1971
  173POPC   NC3 2558   1.234   4.691   4.663 -0.0096 -0.1946 -0.0836
  173POPC   PO4 2559   1.166   5.179   4.626 -0.0213 -0.1158 -0.3956
  173POPC   GL1 2560   1.040   5.235   5.125 -0.0976  0.2572  0.0815
  173POPC   GL2 2561   0.818   5.472   5.239  0.0702  0.0123 -0.2891
  173POPC   C1A 2562   0.995   5.094   5.564  0.2051 -0.0533 -0.0476
  173POPC   D2A 2563   1.056   4.820   6.013  0.1429  0.1696  0.2145
  173POPC   C3A 2564   1.136   5.006   6.385  0.1520 -0.0537  0.1036
  173POPC   C4A 2565   1.171   4.842   6.817  0.2376 -0.1889  0.1720
  173POPC   C1B 2566   1.025   5.584   5.555 -0.0475 -0.0017  0.1141
  173POPC   C2B 2567   0.742   5.757   5.907 -0.2292 -0.0232 -0.0301
  173POPC   C3B 2568   0.553   5.847   6.482  0.2780  0.3647  0.2517
  173POPC   C4B 2569   0.088   5.851   6.533 -0.0913 -0.2199  0.0951
  174POPC   NC3 2570   1.746   7.473   4.243 -0.1234 -0.3612 -0.0099
  174POPC   PO4 2571   1.459   7.203   4.503 -0.1626  0.0088 -0.2123
  174POPC   GL1 2572   1.500   7.592   4.679 -0.1178 -0.1725  0.1757
  174POPC   GL2 2573   1.203   7.667   4.817  0.0443 -0.1587  0.0990
  174POPC   C1A 2574   1.651   7.775   5.058 -0.1083  0.2090 -0.2090
  174POPC   D2A 2575   1.491   7.793   5.450 -0.0588 -0.0567 -0.0481
  174POPC   C3A 2576   1.533   7.775   5.870  0.1272 -0.0630  0.3537
  174POPC   C4A 2577   1.916   7.513   6.008 -0.1087  0.2841  0.0652
  174POPC   C1B 2578   1.140   7.534   5.138  0.1242  0.1940  0.0587
  174POPC   C2B 2579   1.209   7.433   5.575 -0.2448 -0.2175  0.1026
  174POPC   C3B 2580   1.028   7.347   6.000 -0.1214  0.1739 -0.1712
  174POPC   C4B 2581   0.956   7.484   6.403  0.0420 -0.1928 -0.0982
  175POPC   NC3 2582   0.845   7.132   4.214  0.1124 -0.0251  0.1611
  175POPC   PO4 2583   0.606   6.982   4.549  0.2723 -0.1649 -0.0109
  175POPC   GL1 2584   0.413   7.298   4.920 -0.0156  0.0276  0.3117
  175POPC   GL2 2585   0.596   7.535   5.002 -0.1037 -0.1035  0.1160
  175POPC   C1A 2586   0.171   7.709   5.172  0.1524  0.1625 -0.4491
  175POPC   D2A 2587   0.280   7.761   5.692  0.1696 -0.0406  0.1523
  175POPC   C3A 2588   0.307   8.138   5.899  0.5511  0.0853 -0.1728
  175POPC   C4A 2589   0.245   8.429   6.230 -0.2323 -0.0881 -0.0041
  175POPC   C1B 2590   0.701   7.525   5.442  0.2450 -0.0006  0.2497
  175POPC   C2B 2591   0.716   7.686   5.921  0.0462  0.3608  0.2665
  175POPC   C3B 2592   0.455   7.788   6.226  0.1814 -0.1442  0.0380
  175POPC   C4B 2593   0.425   7.823   6.698 -0.1948  0.2308  0.1554
  176POPC   NC3 2594   9.747   3.399   4.412 -0.1880  0.0518 -0.1566
  176POPC   PO4 2595   9.829   3.350   4.972  0.3567 -0.1446  0.1650
  176POPC   GL1 2596   9.818   3.165   5.369 -0.0883 -0.2477  0.0310
  176POPC   GL2 2597   9.811   3.408   5.520 -0.2732  0.0742  0.2484
  176POPC   C1A 2598   9.795   2.914   5.646  0.2077 -0.0141 -0.0569
  176POPC   D2A 2599   9.996   2.652   6.093 -0.1822  0.1398 -0.0074
  176POPC   C3A 2600   9.771   2.838   6.497 -0.1616 -0.0098 -0.0355
  176POPC   C4A 2601   9.497   2.640   6.942 -0.0706 -0.0202 -0.2055
  176POPC   C1B 2602   9.431   3.339   5.774 -0.3134  0.0657 -0.0952
  176POPC   C2B 2603   9.291   3.325   6.253 -0.0496 -0.1410 -0.1473
  176POPC   C3B 2604   9.223   3.317   6.665  0.0264 -0.0967 -0.0987
  176POPC   C4B 2605   8.984   3.034   6.982  0.1469 -0.2887  0.1820
  177POPC   NC3 2606   7.629   2.927   4.443  0.1391  0.2235 -0.0314
  177POPC   PO4 2607   7.700   3.153   4.900  0.0432 -0.2424 -0.0700
  177POPC   GL1 2608   7.820   3.115   5.294 -0.0585 -0.1230  0.0083
  177POPC   GL2 2609   7.945   2.774   5.338  0.2239 -0.0238  0.2104
  177POPC   C1A 2610   8.046   3.084   5.724  0.2989 -0.1522 -0.0446
  177POPC   D2A 2611   8.199   2.885   6.052  0.0880  0.1428  0.3144
  177POPC   C3A 2612   8.205   3.045   6.485  0.1466 -0.2487  0.1918
  177POPC   C4A 2613   8.039   3.074   6.976  0.2310 -0.2121  0.0178
  177POPC   C1B 2614   7.849   2.589   5.785 -0.0474  0.0411  0.3192
  177POPC   C2B 2615   7.660   2.560   6.140  0.1696  0.1591 -0.0678
  177POPC   C3B 2616   7.227   2.662   6.031 -0.3122  0.2769  0.0630
  177POPC   C4B 2617   6.900   2.590   5.668  0.1835  0.0589  0.0774
  178POPC   NC3 2618   8.113   9.482   4.932 -0.0070  0.0063 -0.1624
  178POPC   PO4 2619   7.655   9.483   4.852  0.2451  0.0238  0.1709
  178POPC   GL1 2620   7.762   9.266   5.178 -0.0765 -0.1886 -0.2461
  178POPC   GL2 2621   8.034   9.206   5.383 -0.2202  0.0909 -0.3780
  178POPC   C1A 2622   7.657   8.970   5.603  0.0893  0.5449  0.2654
  178POPC   D2A 2623   7.513   8.527   5.814  0.1910  0.0731  0.1234
  178POPC   C3A 2624   7.525   8.572   6.282 -0.0785  0.0806 -0.3115
  178POPC   C4A 2625   7.871   8.665   6.655  0.5473  0.0493 -0.1502
  178POPC   C1B 2626   8.046   9.264   5.773 -0.2146  0.0014  0.0417
  178POPC   C2B 2627   7.875   9.334   6.255 -0.0792  0.0609 -0.0718
  178POPC   C3B 2628   7.663   9.164   6.520  0.1440 -0.0975  0.0136
  178POPC   C4B 2629   7.543   8.969   6.864 -0.2157  0.2782 -0.1295
  179POPC   NC3 2630   1.872   3.797   4.490  0.0995  0.2355 -0.0978
  179POPC   PO4 2631   1.846   4.082   4.836 -0.2347 -0.2322 -0.1477
  179POPC   GL1 2632   1.882   4.009   5.244 -0.3026 -0.4811 -0.1343
  179POPC   GL2 2633   2.166   3.960   5.326 -0.1505  0.2142  0.1911
  179POPC   C1A 2634   1.563   4.075   5.626  0.4066  0.3311 -0.1051
  179POPC   D2A 2635   1.680   4.363   5.957 -0.2412 -0.1766 -0.2759
  179POPC   C3A 2636   1.610   4.709   6.218 -0.1785 -0.1346  0.0154
  179POPC   C4A 2637   1.716   4.877   6.675  0.0665  0.0195  0.2078
  179POPC   C1B 2638   2.058   3.802   5.788 -0.3469 -0.1400 -0.1715
  179POPC   C2B 2639   1.766   3.697   6.142  0.0511 -0.2452 -0.2231
  179POPC   C3B 2640   1.551   3.654   6.542  0.1395  0.2858  0.2143
  179POPC   C4B 2641   1.575   3.886   6.943  0.2795 -0.3538  0.1202
  180POPC   NC3 2642   6.290  10.384   4.737  0.1842  0.0372  0.2524
  180POPC   PO4 2643   6.503  10.833   4.733  0.1802  0.0682 -0.0641
  180POPC   GL1 2644   6.444  10.734   5.148  0.4892  0.1282  0.0260
  180POPC   GL2 2645   6.092  10.798   5.094 -0.3047  0.0846 -0.5366
  180POPC   C1A 2646   6.627  10.781   5.582 -0.0662 -0.0616  0.3141
  180POPC   D2A 2647   6.549  10.936   5.969  0.3640  0.0985  0.3277
  180POPC   C3A 2648   6.313  10.691   6.202  0.0342 -0.2186 -0.0819
  180POPC   C4A 2649   6.174  10.401   6.495  0.1103  0.1395  0.1173
  180POPC   C1B 2650   6.108  10.890   5.555 -0.3514 -0.1670 -0.1620
  180POPC   C2B 2651   5.964  10.954   5.975 -0.2347  0.1457  0.1015
  180POPC   C3B 2652   5.551  10.892   6.204 -0.3340  0.0184 -0.0324
  180POPC   C4B 2653   5.222  10.750   6.364  0.0175  0.0482  0.0706
  181POPC   NC3 2654   4.107   5.030   4.826  0.1071  0.1924 -0.0733
  181POPC   PO4 2655   3.934   5.225   5.050 -0.2030 -0.0414 -0.0134
  181POPC   GL1 2656   3.987   5.088   5.422  0.1692 -0.0273 -0.0857
  181POPC   GL2 2657   4.013   4.791   5.467  0.0596  0.2244 -0.1979
  181POPC   C1A 2658   4.115   5.313   5.753 -0.3798  0.3392  0.0591
  181POPC   D2A 2659   4.097   5.308   6.156  0.1671  0.0630  0.2741
  181POPC   C3A 2660   3.697   5.283   6.354  0.0820 -0.1955 -0.1208
  181POPC   C4A 2661   3.453   5.583   6.278 -0.4211 -0.0180 -0.2428
  181POPC   C1B 2662   3.627   4.724   5.648 -0.0193 -0.0535 -0.0932
  181POPC   C2B 2663   3.222   4.684   5.778 -0.5133  0.1664  0.3210
  181POPC   C3B 2664   2.827   4.471   5.798  0.0698  0.4108  0.1352
  181POPC   C4B 2665   2.531   4.414   6.113 -0.2646  0.0163  0.3564
  182POPC   NC3 2666   5.166   1.172   3.986  0.2838 -0.0802  0.0674
  182POPC   PO4 2667   4.752   1.300   4.149  0.1093  0.0168  0.1927
  182POPC   GL1 2668   4.720   1.155   4.517  0.0550  0.2320  0.1936
  182POPC   GL2 2669   4.343   1.109   4.418  0.1732 -0.0836 -0.0390
  182POPC   C1A 2670   5.031   1.198   4.783 -0.1706  0.3227 -0.1790
  182POPC   D2A 2671   5.224   1.360   5.172  0.0635  0.2186  0.2558
  182POPC   C3A 2672   5.153   1.179   5.516 -0.1143  0.1776 -0.0982
  182POPC   C4A 2673   4.862   0.891   5.603 -0.1118 -0.0660  0.2278
  182POPC   C1B 2674   4.142   0.680   4.454 -0.0943  0.1791  0.0345
  182POPC   C2B 2675   3.778   0.459   4.567 -0.0685  0.3059 -0.0295
  182POPC   C3B 2676   3.613   0.109   4.739  0.2427  0.0176 -0.1981
  182POPC   C4B 2677   3.418   0.181   5.149 -0.1870  0.2581 -0.0689
  183POPC   NC3 2678   6.606   4.339   4.341 -0.1811 -0.3655 -0.1685
  183POPC   PO4 2679   6.469   4.721   4.758 -0.1275 -0.1414 -0.0872
  183POPC   GL1 2680   6.401   4.933   5.180  0.1117  0.1415 -0.0535
  183POPC   GL2 2681   6.654   5.249   5.252  0.1012  0.0698 -0.0774
  183POPC   C1A 2682   6.317   4.762   5.625 -0.3420 -0.0226 -0.1332
  183POPC   D2A 2683   6.364   4.383   5.813 -0.2345 -0.1129 -0.1332
  183POPC   C3A 2684   6.470   4.513   6.224  0.2514 -0.1092 -0.3720
  183POPC   C4A 2685   6.265   4.766   6.548  0.0539  0.0662 -0.2282
  183POPC   C1B 2686   6.602   5.212   5.661 -0.1826  0.0503  0.1796
  183POPC   C2B 2687   6.663   5.019   6.095  0.1394  0.0824  0.0929
  183POPC   C3B 2688   6.832   4.774   6.399 -0.1966  0.0327  0.1609
  183POPC   C4B 2689   7.162   4.527   6.665  0.0382 -0.3204  0.2737
  184POPC   NC3 2690   5.063   4.733   4.563 -0.0195  0.1642 -0.0684
  184POPC   PO4 2691   4.742   4.931   4.842  0.1466  0.0808  0.1018
  184POPC   GL1 2692   4.766   4.831   5.216  0.0926  0.1120  0.0738
  184POPC   GL2 2693   4.841   5.043   5.404 -0.3958 -0.0242 -0.1402
  184POPC   C1A 2694   4.480   4.911   5.684  0.1938 -0.2740 -0.0050
  184POPC   D2A 2695   4.516   4.960   6.195  0.2273 -0.1247  0.0991
  184POPC   C3A 2696   4.447   4.536   6.410  0.4394 -0.0565 -0.1426
  184POPC   C4A 2697   4.416   4.085   6.385  0.0490  0.0257  0.0474
  184POPC   C1B 2698   4.912   4.782   5.720  0.2147  0.0487  0.0808
  184POPC   C2B 2699   4.738   4.467   6.030 -0.1666 -0.0260 -0.3742
  184POPC   C3B 2700   4.900   4.190   6.408  0.0318 -0.2378 -0.0425
  184POPC   C4B 2701   5.140   4.394   6.739  0.2435  0.1346 -0.0922
  185POPC   NC3 2702   3.086   5.170   4.632  0.0318  0.0228  0.1256
  185POPC   PO4 2703   2.856   5.326   4.966 -0.3627 -0.3475 -0.1078
  185POPC   GL1 2704   2.882   5.504   5.324  0.2051  0.0868  0.5588
  185POPC   GL2 2705   3.164   5.677   5.354 -0.0574  0.1807  0.0831
  185POPC   C1A 2706   3.021   5.418   5.742 -0.0820 -0.2698 -0.0196
  185POPC   D2A 2707   2.995   5.657   6.082  0.0510 -0.1684 -0.1754
  185POPC   C3A 2708   3.097   6.084   6.148 -0.0738 -0.0613 -0.1290
  185POPC   C4A 2709   3.360   5.997   5.781 -0.2366  0.3126 -0.0286
  185POPC   C1B 2710   2.866   5.947   5.699 -0.2421  0.0551 -0.3957
  185POPC   C2B 2711   2.635   6.164   6.068  0.1492  0.2459  0.0767
  185POPC   C3B 2712   2.709   5.968   6.450 -0.1133 -0.0097  0.0757
  185POPC   C4B 2713   3.064   5.776   6.603  0.3435  0.0759 -0.2511
  186POPC   NC3 2714   3.241   6.379   4.604 -0.2078 -0.0024  0.1441
  186POPC   PO4 2715   3.258   6.088   4.954  0.1055  0.3216  0.1136
  186POPC   GL1 2716   3.273   6.287   5.307  0.0490 -0.0683 -0.0218
  186POPC   GL2 2717   2.981   6.405   5.456 -0.0404 -0.1081  0.2772
  186POPC   C1A 2718   3.363   6.529   5.775  0.0021  0.1512  0.4172
  186POPC   D2A 2719   3.344   6.501   6.228 -0.3981  0.1928  0.2374
  186POPC   C3A 2720   3.075   6.484   6.576 -0.0790 -0.3213  0.0340
  186POPC   C4A 2721   2.985   6.184   6.901 -0.0559 -0.0402 -0.1461
  186POPC   C1B 2722   2.828   6.578   5.734  0.0631  0.3546  0.2731
  186POPC   C2B 2723   2.866   6.698   6.182 -0.0701  0.1168  0.0429
  186POPC   C3B 2724   2.609   6.611   6.528 -0.1483  0.0265  0.1479
  186POPC   C4B 2725   2.525   6.388   6.879  0.1150 -0.0023  0.1037
  187POPC   NC3 2726   3.340   4.340   5.113  0.0900  0.1417  0.0488
  187POPC   PO4 2727   3.074   3.991   4.925  0.2027  0.2477  0.0705
  187POPC   GL1 2728   2.996   4.003   5.302 -0.1533  0.3888 -0.1196
  187POPC   GL2 2729   2.928   3.737   5.552 -0.2171  0.0073 -0.2439
  187POPC   C1A 2730   3.262   4.092   5.668  0.1491 -0.2716 -0.0454
  187POPC   D2A 2731   3.500   3.764   5.955 -0.1436 -0.1387  0.1026
  187POPC   C3A 2732   3.913   4.049   6.174  0.1969 -0.0081  0.1475
  187POPC   C4A 2733   3.991   4.387   6.343 -0.0235 -0.4812 -0.0824
  187POPC   C1B 2734   2.865   3.616   5.940  0.1254 -0.1671 -0.2766
  187POPC   C2B 2735   2.530   3.556   6.219 -0.1922 -0.1373  0.1588
  187POPC   C3B 2736   2.117   3.415   6.435  0.0417 -0.2375 -0.0503
  187POPC   C4B 2737   1.872   3.284   6.806  0.0704  0.2475 -0.0143
  188POPC   NC3 2738   1.957   7.923   4.196  0.0340 -0.2414  0.1125
  188POPC   PO4 2739   2.132   8.167   3.919  0.0905  0.0269 -0.1648
  188POPC   GL1 2740   2.340   8.327   4.283  0.0550 -0.2021 -0.0643
  188POPC   GL2 2741   2.109   8.438   4.592  0.1825 -0.4094 -0.2034
  188POPC   C1A 2742   2.461   8.747   4.605 -0.0850 -0.2664  0.2927
  188POPC   D2A 2743   2.726   9.093   4.767 -0.3330 -0.1329  0.0398
  188POPC   C3A 2744   2.502   9.265   5.116 -0.0591 -0.1632  0.0483
  188POPC   C4A 2745   2.460   9.693   5.256  0.0949 -0.1457  0.0050
  188POPC   C1B 2746   1.741   8.567   4.923 -0.0915  0.2665  0.0409
  188POPC   C2B 2747   1.495   8.377   5.165 -0.1013 -0.1008  0.1106
  188POPC   C3B 2748   1.489   8.312   5.626  0.1339  0.0414 -0.0430
  188POPC   C4B 2749   1.396   8.340   6.080 -0.0626  0.1023 -0.1600
  189POPC   NC3 2750   0.240   1.969   4.944  0.0524 -0.1878 -0.3154
  189POPC   PO4 2751   0.466   2.287   4.851 -0.3006  0.3268  0.0064
  189POPC   GL1 2752   0.241   2.295   5.352  0.0214 -0.4400  0.1804
  189POPC   GL2 2753   0.519   2.504   5.372  0.0609 -0.0193  0.1790
  189POPC   C1A 2754   0.301   2.105   5.751  0.1316 -0.2007  0.0855
  189POPC   D2A 2755   0.285   1.786   6.099 -0.0324  0.0303  0.0742
  189POPC   C3A 2756  -0.068   1.733   6.389  0.2460  0.2759 -0.0857
  189POPC   C4A 2757  -0.500   1.707   6.550 -0.1484  0.1397  0.1980
  189POPC   C1B 2758   0.756   2.196   5.598  0.0513  0.1488 -0.0004
  189POPC   C2B 2759   0.769   2.101   6.100  0.0204  0.6469  0.0577
  189POPC   C3B 2760   0.593   2.036   6.429 -0.0279  0.3786 -0.1329
  189POPC   C4B 2761   0.417   1.733   6.556  0.0921 -0.1837 -0.0336
  190POPC   NC3 2762   8.412   1.756   4.809  0.3469  0.2005 -0.2112
  190POPC   PO4 2763   8.671   1.373   4.754 -0.3226  0.0682  0.0060
  190POPC   GL1 2764   8.807   1.172   5.177  0.0005  0.1966 -0.1199
  190POPC   GL2 2765   8.837   1.520   5.188  0.1569  0.2796 -0.1240
  190POPC   C1A 2766   9.009   1.117   5.635 -0.1037  0.1503 -0.2525
  190POPC   D2A 2767   9.122   1.404   5.930 -0.3179  0.3346 -0.2295
  190POPC   C3A 2768   9.378   1.695   6.009 -0.3049  0.3090 -0.0185
  190POPC   C4A 2769   9.518   1.759   6.436  0.1115  0.0270 -0.1658
  190POPC   C1B 2770   8.952   1.739   5.560  0.1765 -0.1487 -0.0828
  190POPC   C2B 2771   8.829   1.758   5.981  0.1607 -0.0638  0.2126
  190POPC   C3B 2772   8.837   1.612   6.433  0.2087  0.0580  0.0392
  190POPC   C4B 2773   9.235   1.371   6.429 -0.1199  0.2779 -0.0995
  191POPC   NC3 2774   8.004   6.875   5.016  0.2279  0.1414  0.0778
  191POPC   PO4 2775   8.115   7.256   4.721  0.1187  0.1147 -0.0781
  191POPC   GL1 2776   8.127   7.373   5.126 -0.1022  0.2867 -0.1212
  191POPC   GL2 2777   8.356   7.146   5.285  0.0038 -0.0380 -0.3743
  191POPC   C1A 2778   8.116   7.493   5.619 -0.0938  0.1688  0.0669
  191POPC   D2A 2779   8.330   7.560   6.004  0.1090  0.1466 -0.0432
  191POPC   C3A 2780   7.993   7.572   6.295  0.0977 -0.0869  0.0864
  191POPC   C4A 2781   7.797   7.636   6.682  0.1167 -0.1812 -0.2301
  191POPC   C1B 2782   8.419   7.071   5.727  0.3830  0.0592 -0.1788
  191POPC   C2B 2783   8.479   7.020   6.088  0.1634 -0.0309 -0.1993
  191POPC   C3B 2784   8.307   7.158   6.440  0.1625 -0.0403 -0.2626
  191POPC   C4B 2785   8.266   7.514   6.745 -0.0120 -0.2782  0.1438
  192POPC   NC3 2786   5.267  10.184   3.897  0.0755  0.2251  0.0247
  192POPC   PO4 2787   5.009   9.858   3.829 -0.0260 -0.2831  0.0395
  192POPC   GL1 2788   4.763  10.056   4.136  0.0037  0.4137  0.0566
  192POPC   GL2 2789   4.981  10.230   4.326  0.1474  0.2952 -0.1782
  192POPC   C1A 2790   4.329  10.168   4.346  0.2251  0.1216  0.2365
  192POPC   D2A 2791   3.985  10.346   4.383  0.0719 -0.0527 -0.4260
  192POPC   C3A 2792   3.931  10.216   4.773 -0.0168 -0.1605  0.5028
  192POPC   C4A 2793   3.876   9.928   5.009  0.1107  0.1496 -0.0504
  192POPC   C1B 2794   4.692  10.332   4.574  0.0909 -0.2457 -0.2101
  192POPC   C2B 2795   4.401  10.199   4.879 -0.0633 -0.1514  0.2359
  192POPC   C3B 2796   4.171  10.596   5.121  0.0704  0.2994  0.0938
  192POPC   C4B 2797   3.876  10.840   5.101 -0.0731  0.0477  0.0665
  193POPC   NC3 2798   6.235   7.219   4.639  0.5280 -0.1338  0.0337
  193POPC   PO4 2799   6.237   7.215   5.148  0.1000 -0.1101  0.2494
  193POPC   GL1 2800   5.983   7.231   5.527 -0.0984  0.0813 -0.0640
  193POPC   GL2 2801   5.765   7.389   5.477  0.0840 -0.3213 -0.2074
  193POPC   C1A 2802   5.954   6.929   5.897 -0.1881 -0.3579 -0.4895
  193POPC   D2A 2803   5.822   6.839   6.296 -0.2862  0.2814  0.2597
  193POPC   C3A 2804   6.057   6.676   6.606  0.2051 -0.2155  0.0888
  193POPC   C4A 2805   6.515   6.731   6.730 -0.1312  0.2625 -0.1657
  193POPC   C1B 2806   5.740   7.687   5.799  0.0073  0.1237  0.0119
  193POPC   C2B 2807   5.633   8.090   5.887  0.1368 -0.3889  0.2688
  193POPC   C3B 2808   5.384   8.306   6.141 -0.0944 -0.2676 -0.3477
  193POPC   C4B 2809   5.158   8.626   6.469 -0.0502 -0.0946 -0.0246
  194POPC   NC3 2810   5.817   7.367   5.004  0.4652  0.3705  0.1849
  194POPC   PO4 2811   5.364   7.360   4.751 -0.2434 -0.0028 -0.2634
  194POPC   GL1 2812   5.344   7.377   5.184  0.0723  0.1976 -0.0855
  194POPC   GL2 2813   5.268   7.105   5.362 -0.3033  0.2828  0.2835
  194POPC   C1A 2814   5.315   7.570   5.561  0.2221  0.0516 -0.0213
  194POPC   D2A 2815   5.306   7.607   5.996  0.0543 -0.0634  0.1118
  194POPC   C3A 2816   5.615   7.786   6.301 -0.1227  0.3153  0.2599
  194POPC   C4A 2817   5.689   8.095   6.517  0.1363  0.1208  0.0996
  194POPC   C1B 2818   5.482   7.064   5.831 -0.1639  0.0397 -0.0203
  194POPC   C2B 2819   5.655   7.305   6.196  0.2171 -0.1540  0.0106
  194POPC   C3B 2820   5.607   7.124   6.637 -0.0547  0.1237  0.0966
  194POPC   C4B 2821   5.632   6.854   6.929  0.1662 -0.5246  0.0457
  195POPC   NC3 2822   1.700   5.287   4.507  0.1810 -0.0414 -0.0444
  195POPC   PO4 2823   1.445   5.465   4.907 -0.0433  0.0710  0.2104
  195POPC   GL1 2824   1.469   5.493   5.306 -0.0680 -0.1339 -0.1240
  195POPC   GL2 2825   1.512   5.124   5.392  0.3515 -0.1315 -0.2291
  195POPC   C1A 2826   1.553   5.760   5.769 -0.0394 -0.0523  0.1584
  195POPC   D2A 2827   1.482   6.161   6.095 -0.3483  0.1641  0.4175
  195POPC   C3A 2828   1.101   6.472   6.256  0.2666 -0.1026  0.0588
  195POPC   C4A 2829   0.710   6.554   6.401  0.2179  0.1640 -0.1593
  195POPC   C1B 2830   1.401   5.232   5.780  0.0891  0.0045  0.2784
  195POPC   C2B 2831   1.344   5.364   6.135 -0.2126 -0.0788 -0.0645
  195POPC   C3B 2832   1.070   5.544   6.494  0.1660  0.2160 -0.1229
  195POPC   C4B 2833   0.999   5.314   6.902  0.0563 -0.0637 -0.1337
  196POPC   NC3 2834   8.960   9.317   4.607  0.0889 -0.3943  0.3762
  196POPC   PO4 2835   9.338   9.741   4.733  0.1256  0.0298 -0.1346
  196POPC   GL1 2836   9.200   9.500   5.145 -0.1660 -0.1237 -0.2185
  196POPC   GL2 2837   8.968   9.292   5.410 -0.1117  0.0097 -0.1044
  196POPC   C1A 2838   9.046   9.747   5.508  0.0624  0.0674 -0.2155
  196POPC   D2A 2839   9.081   9.740   6.010 -0.1232  0.0115 -0.1283
  196POPC   C3A 2840   9.302  10.052   6.235  0.3099 -0.1618 -0.1701
  196POPC   C4A 2841   9.400   9.912   6.689  0.0399 -0.3445  0.3690
  196POPC   C1B 2842   9.024   9.279   5.885  0.3535 -0.0395 -0.1462
  196POPC   C2B 2843   9.221   9.142   6.178 -0.1850 -0.0639 -0.0638
  196POPC   C3B 2844   9.153   9.003   6.566  0.0226 -0.2957  0.0408
  196POPC   C4B 2845   9.022   9.081   7.021 -0.1691  0.0815  0.1676
  197POPC   NC3 2846   2.605   7.091   4.193 -0.5452 -0.0505  0.1187
  197POPC   PO4 2847   2.658   7.425   4.527  0.0998 -0.4575 -0.1196
  197POPC   GL1 2848   2.633   7.509   4.926  0.1696 -0.0142  0.0091
  197POPC   GL2 2849   2.603   7.311   5.250 -0.0337 -0.0142  0.1310
  197POPC   C1A 2850   2.583   7.797   5.261 -0.2359  0.1327  0.0168
  197POPC   D2A 2851   2.402   8.085   5.446  0.1605 -0.1106 -0.0142
  197POPC   C3A 2852   2.318   8.493   5.547 -0.0469 -0.1621  0.2551
  197POPC   C4A 2853   1.869   8.622   5.439  0.0428  0.0324  0.0031
  197POPC   C1B 2854   2.719   7.531   5.638 -0.0806  0.2658 -0.0436
  197POPC   C2B 2855   2.724   7.834   5.991 -0.3193  0.1557 -0.1297
  197POPC   C3B 2856   2.628   8.274   5.926  0.3663 -0.0550  0.0189
  197POPC   C4B 2857   2.920   8.582   5.888  0.1110 -0.0392  0.1155
  198POPC   NC3 2858   2.025   9.480   3.806 -0.0548  0.1321 -0.1739
  198POPC   PO4 2859   1.611   9.325   3.832  0.0956  0.1902 -0.3147
  198POPC   GL1 2860   1.715   9.590   4.184 -0.2705 -0.3471  0.1432
  198POPC   GL2 2861   1.421   9.931   4.233  0.1598  0.0642 -0.4683
  198POPC   C1A 2862   1.929   9.675   4.466 -0.2124 -0.2457  0.0166
  198POPC   D2A 2863   2.150   9.803   4.866 -0.0253 -0.0249  0.2285
  198POPC   C3A 2864   1.973   9.471   5.172  0.2223  0.1057 -0.1520
  198POPC   C4A 2865   1.980   9.465   5.574 -0.0987 -0.2101 -0.1875
  198POPC   C1B 2866   1.805  10.126   4.551 -0.1120 -0.1612 -0.1276
  198POPC   C2B 2867   1.985  10.303   4.895 -0.1041  0.1805 -0.0024
  198POPC   C3B 2868   2.091  10.494   5.291 -0.0606  0.1002  0.0565
  198POPC   C4B 2869   2.064  10.486   5.789  0.1159 -0.1283 -0.0194
  199POPC   NC3 2870  10.483   9.925   4.056  0.1428  0.0437 -0.1238
  199POPC   PO4 2871  10.254   9.652   4.153 -0.3843 -0.2883 -0.0860
  199POPC   GL1 2872  10.318   9.790   4.578  0.0379  0.0050  0.3988
  199POPC   GL2 2873  10.631   9.752   4.522 -0.0296  0.0243 -0.0474
  199POPC   C1A 2874  10.417   9.777   4.967  0.1160  0.0899  0.2479
  199POPC   D2A 2875  10.353   9.569   5.346 -0.0780  0.5194 -0.2212
  199POPC   C3A 2876  10.506   9.236   5.416 -0.3321  0.1270 -0.1828
  199POPC   C4A 2877  10.732   8.896   5.199  0.0149 -0.2872 -0.2645
  199POPC   C1B 2878  10.921   9.677   4.812 -0.0988 -0.1955 -0.2619
  199POPC   C2B 2879  10.880   9.744   5.213  0.2556 -0.1453 -0.4687
  199POPC   C3B 2880  11.112  10.017   5.514  0.0377 -0.0859  0.1595
  199POPC   C4B 2881  11.246  10.103   5.885  0.0271 -0.0455  0.0571
  200POPC   NC3 2882   2.004   0.067   3.637 -0.4556 -0.0183 -0.1677
  200POPC   PO4 2883   2.318   0.354   3.624  0.0936 -0.2585 -0.1120
  200POPC   GL1 2884   2.481   0.296   4.069 -0.0288  0.0791  0.0265
  200POPC   GL2 2885   2.294   0.107   4.208  0.2461  0.2449 -0.1909
  200POPC   C1A 2886   2.516   0.572   4.459 -0.3135  0.2946  0.1722
  200POPC   D2A 2887   2.435   0.796   4.892  0.2354 -0.0600 -0.3026
  200POPC   C3A 2888   2.705   0.801   5.117  0.2409 -0.0373 -0.0181
  200POPC   C4A 2889   3.036   0.504   5.273  0.1474  0.3475  0.1471
  200POPC   C1B 2890   2.151   0.180   4.503 -0.0766  0.2118 -0.3186
  200POPC   C2B 2891   2.207   0.297   4.949 -0.2053  0.0303 -0.2298
  200POPC   C3B 2892   2.464   0.417   5.332 -0.2413  0.0720 -0.2411
  200POPC   C4B 2893   2.362   0.468   5.779  0.0730  0.2961 -0.1714
  201POPC   NC3 2894   8.623   6.062   4.656  0.4960 -0.3638 -0.0861
  201POPC   PO4 2895   8.357   6.370   4.842  0.0729 -0.0880  0.5256
  201POPC   GL1 2896   8.354   6.558   5.235 -0.0940 -0.0676  0.0095
  201POPC   GL2 2897   8.092   6.562   5.446  0.0042 -0.3414  0.2677
  201POPC   C1A 2898   8.546   6.592   5.649 -0.2313  0.0606 -0.0118
  201POPC   D2A 2899   8.467   6.344   5.908  0.3169 -0.0298 -0.2429
  201POPC   C3A 2900   8.542   6.522   6.384  0.0715  0.2270  0.0905
  201POPC   C4A 2901   8.641   6.834   6.686 -0.0393  0.1227  0.1432
  201POPC   C1B 2902   8.093   6.672   5.868  0.1985  0.0508  0.0980
  201POPC   C2B 2903   8.058   6.732   6.347 -0.0025  0.2896 -0.2374
  201POPC   C3B 2904   8.089   6.624   6.788 -0.1553  0.0030 -0.1851
  201POPC   C4B 2905   7.622   6.613   7.075 -0.1293  0.3069 -0.2611
  202POPC   NC3 2906   6.281   4.130   4.848 -0.2336 -0.1496 -0.1412
  202POPC   PO4 2907   6.340   4.410   5.129  0.2998  0.0826 -0.3026
  202POPC   GL1 2908   6.748   4.495   5.452 -0.0956  0.0634  0.1004
  202POPC   GL2 2909   6.905   4.358   5.288 -0.4737  0.2013 -0.1425
  202POPC   C1A 2910   6.890   4.597   5.846  0.0755  0.0434 -0.0294
  202POPC   D2A 2911   7.121   4.346   6.049 -0.2538 -0.1663 -0.2322
  202POPC   C3A 2912   7.500   4.157   6.016  0.2075  0.0696  0.4560
  202POPC   C4A 2913   7.823   4.130   5.824 -0.3253 -0.1611 -0.0029
  202POPC   C1B 2914   7.223   4.190   5.563 -0.0929 -0.3097 -0.0845
  202POPC   C2B 2915   7.058   3.913   5.782  0.0890 -0.3174  0.2554
  202POPC   C3B 2916   6.946   3.609   5.827  0.0734 -0.3434  0.0379
  202POPC   C4B 2917   6.745   3.509   6.170 -0.1008 -0.0796 -0.1472
  203POPC   NC3 2918   4.119   1.368   4.048 -0.0079 -0.1997 -0.2335
  203POPC   PO4 2919   3.771   1.222   3.787  0.1088  0.0401  0.1190
  203POPC   GL1 2920   3.740   1.071   4.190 -0.1094 -0.0288  0.1000
  203POPC   GL2 2921   3.621   0.757   4.270 -0.0062 -0.1360  0.1476
  203POPC   C1A 2922   3.830   1.040   4.577  0.4090  0.0989  0.1405
  203POPC   D2A 2923   4.225   0.969   4.879  0.4940 -0.2740 -0.2914
  203POPC   C3A 2924   4.321   0.572   4.899 -0.4815  0.0835 -0.1029
  203POPC   C4A 2925   4.302   0.183   4.644  0.0015 -0.0697  0.0830
  203POPC   C1B 2926   3.258   0.932   4.391  0.0541  0.0816 -0.0691
  203POPC   C2B 2927   2.813   1.029   4.569 -0.0276  0.1729  0.0065
  203POPC   C3B 2928   2.611   1.254   4.937  0.1323  0.0918  0.0226
  203POPC   C4B 2929   2.326   1.457   5.052 -0.0184  0.0409 -0.1138
  204POPC   NC3 2930   1.251   9.238   3.501  0.0265  0.0206  0.0941
  204POPC   PO4 2931   0.986   9.151   3.854  0.1663  0.1596 -0.1706
  204POPC   GL1 2932   0.775   9.236   4.364 -0.2290  0.1534 -0.2149
  204POPC   GL2 2933   0.456   9.216   4.541 -0.0373 -0.1494 -0.2961
  204POPC   C1A 2934   0.828   9.313   4.813 -0.0119 -0.0184 -0.1900
  204POPC   D2A 2935   1.147   9.310   5.182 -0.0969  0.0914  0.1715
  204POPC   C3A 2936   1.495   9.614   5.229  0.0404 -0.1450 -0.2819
  204POPC   C4A 2937   1.679   9.921   5.051  0.2010 -0.3116 -0.2823
  204POPC   C1B 2938   0.585   8.830   4.653  0.1984  0.4188 -0.0723
  204POPC   C2B 2939   0.442   8.507   5.016 -0.1740 -0.2271  0.0236
  204POPC   C3B 2940   0.446   8.480   5.475 -0.2061 -0.2657 -0.3007
  204POPC   C4B 2941   0.384   8.733   5.771 -0.1517 -0.1809  0.1685
  205POPC   NC3 2942   6.368   2.157   5.071 -0.0770 -0.2479 -0.2442
  205POPC   PO4 2943   5.909   2.022   5.031  0.0031 -0.1888 -0.0144
  205POPC   GL1 2944   5.832   1.835   5.403  0.2952  0.1228 -0.1458
  205POPC   GL2 2945   5.524   1.955   5.377 -0.0816 -0.0116  0.0271
  205POPC   C1A 2946   5.945   1.960   5.900  0.5870  0.2011  0.2829
  205POPC   D2A 2947   6.233   2.303   5.965  0.0526  0.1842 -0.3483
  205POPC   C3A 2948   6.543   2.400   6.304 -0.2928 -0.2354  0.2756
  205POPC   C4A 2949   6.666   2.713   6.620  0.0456  0.2546 -0.2073
  205POPC   C1B 2950   5.449   1.987   5.844  0.0852  0.2071  0.1577
  205POPC   C2B 2951   5.558   1.710   6.150  0.2595 -0.0246  0.1131
  205POPC   C3B 2952   5.339   1.454   6.410  0.2092 -0.2954 -0.2624
  205POPC   C4B 2953   5.004   1.169   6.555 -0.2625  0.2040  0.0056
  206POPC   NC3 2954   5.349   2.881   5.078 -0.0254 -0.0369 -0.4009
  206POPC   PO4 2955   5.142   2.469   4.963  0.0995  0.2017 -0.1551
  206POPC   GL1 2956   5.014   2.269   5.316 -0.2588 -0.0284 -0.0782
  206POPC   GL2 2957   5.259   2.520   5.489  0.0671 -0.0399  0.0702
  206POPC   C1A 2958   4.977   2.107   5.775 -0.1056 -0.2193  0.1726
  206POPC   D2A 2959   4.972   2.009   6.231  0.2017  0.0927  0.2851
  206POPC   C3A 2960   5.350   1.957   6.558 -0.0781  0.1070 -0.1477
  206POPC   C4A 2961   5.615   1.703   6.828 -0.2145 -0.2232 -0.0534
  206POPC   C1B 2962   5.562   2.457   5.881  0.2156 -0.0001  0.0940
  206POPC   C2B 2963   5.720   2.235   6.248 -0.0592  0.0759  0.0575
  206POPC   C3B 2964   5.796   2.225   6.721  0.1103  0.1346 -0.3256
  206POPC   C4B 2965   5.909   2.279   7.159  0.1573 -0.0431 -0.3201
  207POPC   NC3 2966   2.592   8.709   3.958 -0.4309 -0.0976 -0.2423
  207POPC   PO4 2967   2.417   9.074   3.967 -0.0707 -0.1655  0.1816
  207POPC   GL1 2968   2.539   9.406   4.234  0.0133 -0.0218 -0.2594
  207POPC   GL2 2969   2.842   9.487   4.229  0.1403 -0.0161  0.0433
  207POPC   C1A 2970   2.623   9.614   4.691  0.3594  0.1810  0.0890
  207POPC   D2A 2971   2.911   9.826   5.073 -0.2042  0.0183 -0.2761
  207POPC   C3A 2972   2.956   9.503   5.331  0.2703 -0.0510 -0.1259
  207POPC   C4A 2973   3.187   9.563   5.741 -0.0015 -0.6878  0.0267
  207POPC   C1B 2974   3.121   9.481   4.606  0.3112  0.0406 -0.0195
  207POPC   C2B 2975   3.359   9.702   4.898 -0.1970  0.3681 -0.1171
  207POPC   C3B 2976   3.356   9.871   5.313 -0.2003  0.2342  0.0528
  207POPC   C4B 2977   3.434   9.987   5.708 -0.1299 -0.1356  0.0507
  208POPC   NC3 2978   3.264   2.239   4.579  0.3795  0.1464 -0.1919
  208POPC   PO4 2979   2.885   2.425   4.691  0.2461 -0.2510 -0.1916
  208POPC   GL1 2980   3.054   2.432   5.136  0.0861 -0.0572  0.2593
  208POPC   GL2 2981   3.326   2.495   5.397 -0.0024  0.0836 -0.0412
  208POPC   C1A 2982   2.820   2.259   5.414 -0.2030 -0.3179 -0.2056
  208POPC   D2A 2983   2.947   2.192   5.815  0.1680 -0.2983  0.2129
  208POPC   C3A 2984   2.647   2.175   6.150  0.0773 -0.1129  0.2863
  208POPC   C4A 2985   2.582   2.013   6.611  0.0389 -0.2461 -0.1232
  208POPC   C1B 2986   3.561   2.217   5.682  0.1634 -0.1619 -0.1419
  208POPC   C2B 2987   3.415   2.003   5.984  0.0133 -0.1929 -0.2512
  208POPC   C3B 2988   3.566   1.788   6.321 -0.1905  0.1201 -0.3031
  208POPC   C4B 2989   3.767   1.480   6.526 -0.1118  0.0281 -0.0674
  209POPC   NC3 2990   4.454   0.771   3.521 -0.1190 -0.1720  0.1046
  209POPC   PO4 2991   4.611   0.706   3.973 -0.0970 -0.1464  0.0777
  209POPC   GL1 2992   4.707   0.666   4.391 -0.0644  0.1623  0.0388
  209POPC   GL2 2993   4.850   0.287   4.507  0.0389 -0.4337  0.0198
  209POPC   C1A 2994   4.817   0.736   4.856  0.2398  0.2834 -0.0225
  209POPC   D2A 2995   5.043   0.853   5.177  0.0449  0.1548  0.1325
  209POPC   C3A 2996   5.478   0.776   5.275  0.0493 -0.0534 -0.1677
  209POPC   C4A 2997   5.944   0.812   5.358 -0.0643  0.0124  0.1024
  209POPC   C1B 2998   4.721   0.201   4.961  0.1653  0.3629  0.0983
  209POPC   C2B 2999   4.669   0.469   5.370 -0.3662 -0.1400  0.3939
  209POPC   C3B 3000   4.440   0.685   5.771 -0.1381  0.1994  0.0284
  209POPC   C4B 3001   4.213   0.818   6.170  0.0422  0.1578 -0.1862
  210POPC   NC3 3002   7.551   6.397   5.136 -0.1131 -0.2360 -0.2105
  210POPC   PO4 3003   7.838   6.151   5.410 -0.1416  0.2200  0.1834
  210POPC   GL1 3004   7.800   6.267   5.763 -0.0122 -0.1423 -0.0001
  210POPC   GL2 3005   7.590   6.615   5.595  0.0354  0.2502 -0.1591
  210POPC   C1A 3006   8.054   6.215   6.145 -0.2077  0.2201  0.0910
  210POPC   D2A 3007   8.244   6.173   6.574 -0.1366  0.2708  0.3012
  210POPC   C3A 3008   8.078   5.771   6.703  0.0503 -0.0944 -0.1486
  210POPC   C4A 3009   7.701   5.729   6.968 -0.0760 -0.2652  0.2691
  210POPC   C1B 3010   7.610   6.788   5.945  0.0478  0.2983  0.0467
  210POPC   C2B 3011   7.459   6.930   6.150  0.5499 -0.1386  0.0636
  210POPC   C3B 3012   7.162   7.147   6.348  0.0017 -0.1237 -0.3340
  210POPC   C4B 3013   6.849   7.221   6.676 -0.0414 -0.2369  0.2174
  211POPC   NC3 3014   0.542   5.948   4.527  0.0310 -0.1235 -0.1068
  211POPC   PO4 3015   0.299   5.664   4.741  0.2056 -0.2990  0.0350
  211POPC   GL1 3016   0.618   5.939   5.051 -0.0755  0.0779 -0.1140
  211POPC   GL2 3017   0.894   6.096   4.810  0.0997 -0.2546  0.0944
  211POPC   C1A 3018   0.802   6.011   5.387  0.1527 -0.0139 -0.2176
  211POPC   D2A 3019   1.112   6.090   5.691 -0.1788  0.0486 -0.2104
  211POPC   C3A 3020   1.208   6.530   5.735 -0.0605 -0.0436 -0.3487
  211POPC   C4A 3021   1.321   6.927   5.601  0.2111 -0.1071 -0.0538
  211POPC   C1B 3022   1.070   6.322   5.113 -0.3337  0.1448 -0.2371
  211POPC   C2B 3023   1.403   6.517   5.281 -0.0132  0.0637 -0.1093
  211POPC   C3B 3024   1.792   6.851   5.350  0.0098  0.0098 -0.1783
  211POPC   C4B 3025   2.164   7.031   5.259  0.3203  0.2190  0.0308
  212POPC   NC3 3026  10.452   8.687   4.116  0.2672 -0.2304  0.1401
  212POPC   PO4 3027  10.136   8.801   4.333  0.2085 -0.2488  0.1514
  212POPC   GL1 3028   9.977   8.992   4.708 -0.0092  0.1904  0.1598
  212POPC   GL2 3029  10.160   9.367   4.831 -0.0710 -0.2264  0.0367
  212POPC   C1A 3030  10.209   9.012   5.146  0.0648  0.0317 -0.0140
  212POPC   D2A 3031  10.008   9.284   5.532  0.1678 -0.1267  0.0739
  212POPC   C3A 3032  10.067   9.347   5.990 -0.0174  0.1651  0.0207
  212POPC   C4A 3033  10.409   9.452   6.344 -0.1080 -0.0931  0.3308
  212POPC   C1B 3034  10.592   9.324   4.947 -0.2936 -0.0661  0.0790
  212POPC   C2B 3035  11.024   9.283   5.156 -0.1630  0.1256 -0.1473
  212POPC   C3B 3036  11.285   9.568   5.375  0.2590 -0.0452 -0.1035
  212POPC   C4B 3037  11.635   9.787   5.515  0.3607 -0.0523  0.0556
  213POPC   NC3 3038   8.275   1.255   4.579  0.1097 -0.2357  0.0987
  213POPC   PO4 3039   8.195   0.732   4.506  0.0200  0.0472 -0.4370
  213POPC   GL1 3040   7.844   0.645   4.871 -0.1717 -0.0430  0.1859
  213POPC   GL2 3041   7.954   0.879   5.043 -0.2061  0.0673 -0.1493
  213POPC   C1A 3042   7.510   0.699   5.255  0.2122 -0.2021  0.2945
  213POPC   D2A 3043   7.576   0.705   5.655 -0.0842 -0.0392  0.0161
  213POPC   C3A 3044   7.363   0.529   5.980  0.0224  0.1779  0.0599
  213POPC   C4A 3045   6.968   0.196   5.953 -0.1031 -0.0037  0.1606
  213POPC   C1B 3046   8.100   0.950   5.441  0.0708 -0.5232  0.1463
  213POPC   C2B 3047   8.424   1.105   5.701 -0.1177  0.1502  0.0221
  213POPC   C3B 3048   8.739   1.054   6.065  0.4265  0.3548  0.1969
  213POPC   C4B 3049   8.780   1.121   6.445  0.0078 -0.2814 -0.1911
  214POPC   NC3 3050   6.545   8.147   4.673 -0.2614 -0.0860  0.0523
  214POPC   PO4 3051   6.081   7.948   4.659  0.2868  0.1470  0.1007
  214POPC   GL1 3052   5.795   8.077   5.017  0.0456 -0.1651  0.1027
  214POPC   GL2 3053   5.687   7.890   5.208 -0.2111 -0.0906 -0.2707
  214POPC   C1A 3054   5.827   8.369   5.409 -0.0525 -0.2873  0.0431
  214POPC   D2A 3055   5.901   8.592   5.877  0.0376  0.1277  0.0046
  214POPC   C3A 3056   5.806   8.584   6.371 -0.0508 -0.1026  0.0001
  214POPC   C4A 3057   5.633   8.542   6.790  0.0168  0.3552 -0.5229
  214POPC   C1B 3058   5.391   8.199   5.488  0.2341  0.0172 -0.1435
  214POPC   C2B 3059   5.398   8.502   5.674 -0.0574  0.3138 -0.0578
  214POPC   C3B 3060   5.483   8.798   5.980 -0.0234 -0.0156 -0.2634
  214POPC   C4B 3061   5.691   9.132   6.170 -0.2984  0.0300 -0.1759
  215POPC   NC3 3062   7.613   7.057   4.787  0.5535  0.4860  0.1770
  215POPC   PO4 3063   7.461   6.858   5.136  0.1517  0.0025 -0.0417
  215POPC   GL1 3064   7.721   7.142   5.348  0.2429 -0.0762 -0.0605
  215POPC   GL2 3065   7.968   7.017   5.608  0.4902 -0.0512 -0.0935
  215POPC   C1A 3066   7.545   7.259   5.766 -0.1982  0.2395 -0.0678
  215POPC   D2A 3067   7.586   7.489   6.070 -0.1029 -0.1342 -0.1591
  215POPC   C3A 3068   7.488   7.900   6.220 -0.2783 -0.0790  0.0955
  215POPC   C4A 3069   7.172   8.128   5.996  0.0238  0.2329 -0.1652
  215POPC   C1B 3070   7.956   7.153   6.045  0.1089 -0.2348  0.3675
  215POPC   C2B 3071   7.747   7.121   6.507 -0.0792 -0.1097  0.1184
  215POPC   C3B 3072   7.868   7.153   6.865  0.1796  0.1140  0.0116
  215POPC   C4B 3073   7.731   7.020   7.342 -0.1885 -0.2839 -0.0791
  216POPC   NC3 3074   1.278   2.673   4.702  0.1185  0.1578  0.0914
  216POPC   PO4 3075   1.671   2.439   4.925  0.5564 -0.2839  0.0079
  216POPC   GL1 3076   1.407   2.273   5.252 -0.1366  0.1063 -0.1708
  216POPC   GL2 3077   1.519   2.351   5.449 -0.3487  0.0591 -0.0003
  216POPC   C1A 3078   1.227   1.922   5.387 -0.2470  0.2739 -0.2007
  216POPC   D2A 3079   1.244   1.636   5.829  0.2537 -0.0769  0.1862
  216POPC   C3A 3080   1.639   1.449   5.833 -0.0507  0.1539  0.0766
  216POPC   C4A 3081   1.918   1.241   6.117 -0.1517 -0.2245  0.2324
  216POPC   C1B 3082   1.429   2.609   5.780  0.0196 -0.2250  0.1749
  216POPC   C2B 3083   1.577   2.722   6.222  0.0597  0.1561  0.0804
  216POPC   C3B 3084   1.784   2.801   6.565 -0.0137  0.3918 -0.0266
  216POPC   C4B 3085   2.206   2.883   6.748  0.2899  0.2292 -0.0181
  217POPC   NC3 3086   5.880   4.943   4.934  0.1613 -0.2162  0.1435
  217POPC   PO4 3087   5.730   5.332   5.072  0.0287  0.2180 -0.1182
  217POPC   GL1 3088   5.800   5.285   5.550 -0.2775  0.3795  0.1044
  217POPC   GL2 3089   5.999   5.077   5.571 -0.0021 -0.3635  0.1556
  217POPC   C1A 3090   5.788   5.307   5.972  0.0720  0.0900  0.1053
  217POPC   D2A 3091   5.817   5.203   6.381 -0.1070 -0.2605  0.3749
  217POPC   C3A 3092   5.659   5.567   6.519  0.2667  0.2468  0.0324
  217POPC   C4A 3093   5.513   6.005   6.293 -0.1455 -0.1195 -0.0820
  217POPC   C1B 3094   6.135   4.973   5.985  0.1259  0.1025 -0.2785
  217POPC   C2B 3095   5.903   4.617   6.234 -0.2915 -0.3338  0.0208
  217POPC   C3B 3096   5.963   4.229   6.188 -0.0867 -0.1378 -0.2292
  217POPC   C4B 3097   5.796   3.794   6.275 -0.2621  0.2195 -0.2351
  218POPC   NC3 3098   8.730   0.585   4.572 -0.1043  0.1673 -0.2455
  218POPC   PO4 3099   8.928   0.702   4.898  0.1068 -0.0651 -0.2109
  218POPC   GL1 3100   8.784   0.665   5.330  0.2315  0.3415  0.0646
  218POPC   GL2 3101   8.930   0.266   5.439  0.2307  0.1514 -0.1475
  218POPC   C1A 3102   9.003   0.645   5.807 -0.3282 -0.1864 -0.1798
  218POPC   D2A 3103   8.913   0.509   6.237  0.0793  0.1486  0.1158
  218POPC   C3A 3104   8.620   0.663   6.551 -0.1207 -0.0675  0.0433
  218POPC   C4A 3105   8.373   0.889   6.776 -0.2190  0.1039 -0.0103
  218POPC   C1B 3106   8.932   0.095   5.864 -0.0310 -0.0521  0.1580
  218POPC   C2B 3107   9.121   0.033   6.283 -0.1457  0.0283  0.4340
  218POPC   C3B 3108   9.001  -0.245   6.602 -0.3022 -0.1767  0.1845
  218POPC   C4B 3109   9.110  -0.301   7.051 -0.0345  0.1186 -0.0559
  219POPC   NC3 3110   2.906   6.440   4.941 -0.2559 -0.2925 -0.0714
  219POPC   PO4 3111   3.292   6.725   5.082 -0.2721 -0.0101  0.0340
  219POPC   GL1 3112   3.181   6.894   5.462  0.2210  0.0924 -0.1863
  219POPC   GL2 3113   3.090   7.192   5.325 -0.1027  0.0454 -0.1539
  219POPC   C1A 3114   3.273   7.050   5.844  0.1874 -0.0407 -0.1981
  219POPC   D2A 3115   3.343   7.045   6.282 -0.0256 -0.2831  0.1831
  219POPC   C3A 3116   3.058   6.994   6.551 -0.1630 -0.2623  0.2807
  219POPC   C4A 3117   2.853   6.849   6.959  0.1602  0.0115 -0.1580
  219POPC   C1B 3118   3.278   7.479   5.567 -0.0161  0.2394 -0.0339
  219POPC   C2B 3119   3.240   7.522   6.009  0.0035 -0.1321 -0.1899
  219POPC   C3B 3120   3.244   7.825   6.343 -0.0956 -0.0581  0.1336
  219POPC   C4B 3121   3.276   8.152   6.639  0.0630  0.2870  0.3735
  220POPC   NC3 3122   9.069   3.622   5.063  0.2100 -0.2510  0.0357
  220POPC   PO4 3123   8.949   3.180   5.008 -0.0624 -0.0981 -0.0747
  220POPC   GL1 3124   8.902   3.136   5.430  0.2174 -0.2855 -0.4881
  220POPC   GL2 3125   8.968   3.409   5.560  0.0230  0.0551  0.4647
  220POPC   C1A 3126   9.128   2.929   5.853 -0.0838 -0.0514 -0.2200
  220POPC   D2A 3127   9.496   2.885   6.105 -0.1585 -0.4618 -0.2004
  220POPC   C3A 3128   9.809   3.192   6.094  0.2179  0.0364 -0.0354
  220POPC   C4A 3129  10.174   3.304   6.472 -0.4582  0.1072 -0.0134
  220POPC   C1B 3130   8.955   3.642   5.948  0.1275  0.1089  0.1097
  220POPC   C2B 3131   8.915   3.734   6.478 -0.0837  0.0052  0.3137
  220POPC   C3B 3132   8.852   3.586   6.918  0.0681 -0.0533  0.0093
  220POPC   C4B 3133   8.669   3.716   7.284  0.0297 -0.0122  0.0741
  221POPC   NC3 3134   7.793   1.180   4.694  0.2748  0.0321  0.1197
  221POPC   PO4 3135   7.916   1.627   4.728 -0.1584  0.1273 -0.0830
  221POPC   GL1 3136   7.666   1.472   5.097 -0.1572 -0.0720  0.4959
  221POPC   GL2 3137   7.736   1.227   5.380 -0.1709 -0.0946 -0.0233
  221POPC   C1A 3138   7.330   1.557   5.411  0.0056  0.0092  0.2304
  221POPC   D2A 3139   7.028   1.704   5.706 -0.0667  0.0533 -0.0746
  221POPC   C3A 3140   6.970   1.442   6.039 -0.0752 -0.1831  0.2795
  221POPC   C4A 3141   6.964   1.438   6.467  0.3513  0.0011 -0.0465
  221POPC   C1B 3142   7.951   1.532   5.653 -0.0185 -0.0105 -0.0140
  221POPC   C2B 3143   7.924   1.674   6.157 -0.1246  0.2299  0.1001
  221POPC   C3B 3144   8.135   1.842   6.511 -0.3739  0.0682  0.3745
  221POPC   C4B 3145   8.287   1.772   7.049 -0.3084 -0.1479 -0.0281
  222POPC   NC3 3146   9.142   1.836   4.872  0.1879  0.0956 -0.1296
  222POPC   PO4 3147   9.161   2.365   4.975 -0.3918  0.3462  0.0656
  222POPC   GL1 3148   9.240   2.157   5.347 -0.0329  0.0661 -0.0715
  222POPC   GL2 3149   9.532   1.975   5.377 -0.2192 -0.3124  0.1762
  222POPC   C1A 3150   9.165   2.186   5.880 -0.0073 -0.0984 -0.2614
  222POPC   D2A 3151   8.991   2.179   6.277  0.1393 -0.0921  0.1091
  222POPC   C3A 3152   9.161   1.971   6.671 -0.1224 -0.1126 -0.1075
  222POPC   C4A 3153   9.299   1.675   6.884 -0.4357  0.2591  0.1042
  222POPC   C1B 3154   9.759   1.797   5.630  0.3161 -0.0364 -0.0795
  222POPC   C2B 3155   9.820   1.817   6.018  0.1473  0.3034  0.1103
  222POPC   C3B 3156   9.845   2.094   6.195 -0.1051  0.0290  0.0474
  222POPC   C4B 3157  10.108   2.218   6.528 -0.2618  0.2512  0.1549
  223POPC   NC3 3158   6.133   3.656   4.928 -0.2762  0.0494 -0.0288
  223POPC   PO4 3159   6.056   3.311   5.203  0.3903  0.2203 -0.2864
  223POPC   GL1 3160   5.836   3.363   5.600  0.2443 -0.1164 -0.0175
  223POPC   GL2 3161   5.708   3.652   5.683  0.4970 -0.3007 -0.0576
  223POPC   C1A 3162   5.920   3.309   6.072  0.1642 -0.0460 -0.2792
  223POPC   D2A 3163   5.961   3.377   6.473  0.2224 -0.0982 -0.1668
  223POPC   C3A 3164   5.766   3.074   6.771  0.2805 -0.0533  0.1003
  223POPC   C4A 3165   5.695   2.628   6.898 -0.3985  0.1211 -0.0851
  223POPC   C1B 3166   5.482   3.455   6.065  0.1194 -0.0185  0.2623
  223POPC   C2B 3167   5.518   3.046   6.338  0.0708 -0.1243 -0.0398
  223POPC   C3B 3168   5.549   2.649   6.435  0.1793 -0.1621 -0.0366
  223POPC   C4B 3169   5.205   2.433   6.258 -0.3990  0.3134 -0.0975
  224POPC   NC3 3170   4.717   2.078   4.316 -0.2406 -0.0578  0.3784
  224POPC   PO4 3171   4.887   2.045   4.656  0.2200 -0.0047  0.0134
  224POPC   GL1 3172   4.959   1.843   5.074  0.0948 -0.2822 -0.0482
  224POPC   GL2 3173   4.765   1.616   4.980 -0.0222 -0.1465 -0.0205
  224POPC   C1A 3174   5.101   1.690   5.580  0.0003 -0.1997 -0.0321
  224POPC   D2A 3175   5.018   1.606   5.964  0.0154  0.1065 -0.0723
  224POPC   C3A 3176   4.923   1.211   6.085  0.0344 -0.0049 -0.1562
  224POPC   C4A 3177   5.131   0.797   6.187  0.2390  0.1170  0.0260
  224POPC   C1B 3178   4.592   1.256   5.027 -0.1999  0.0648  0.0970
  224POPC   C2B 3179   4.439   0.939   5.324 -0.2900  0.3192  0.0302
  224POPC   C3B 3180   4.042   0.697   5.426  0.0785  0.0287 -0.1752
  224POPC   C4B 3181   3.907   0.283   5.561  0.0853  0.2221 -0.4921
  225POPC   NC3 3182   4.721   3.023   4.508  0.3042 -0.2268 -0.4296
  225POPC   PO4 3183   4.856   2.943   4.931 -0.1853 -0.0844 -0.1292
  225POPC   GL1 3184   4.874   2.781   5.313  0.2176  0.2876 -0.2627
  225POPC   GL2 3185   4.754   2.785   5.661 -0.0567  0.2700 -0.2120
  225POPC   C1A 3186   4.600   2.339   5.548 -0.2928  0.1421  0.0395
  225POPC   D2A 3187   4.605   1.902   5.434 -0.1554  0.2468 -0.2231
  225POPC   C3A 3188   4.738   1.376   5.607  0.3389  0.0888  0.2084
  225POPC   C4A 3189   4.545   1.154   5.794 -0.1697  0.4452 -0.1696
  225POPC   C1B 3190   4.639   2.549   6.063 -0.1235  0.4266 -0.0908
  225POPC   C2B 3191   4.664   2.383   6.415  0.0314 -0.1437 -0.0725
  225POPC   C3B 3192   4.764   2.104   6.646 -0.2129 -0.0150 -0.0730
  225POPC   C4B 3193   4.762   1.622   6.432  0.0393  0.3178 -0.0940
  226POPC   NC3 3194   3.219   2.971   5.222  0.2852  0.0082 -0.1930
  226POPC   PO4 3195   3.579   2.984   5.157 -0.0268  0.0745 -0.1521
  226POPC   GL1 3196   3.576   3.015   5.531  0.2457 -0.1417  0.1698
  226POPC   GL2 3197   3.482   3.388   5.592  0.3562  0.2414 -0.0103
  226POPC   C1A 3198   3.440   2.732   5.841 -0.1493 -0.0112  0.1509
  226POPC   D2A 3199   3.542   2.472   6.224  0.0620  0.3167  0.2292
  226POPC   C3A 3200   3.184   2.278   6.399 -0.0964  0.1032  0.2635
  226POPC   C4A 3201   3.086   1.938   6.434  0.0028  0.1099  0.1941
  226POPC   C1B 3202   3.244   3.197   5.935  0.1313  0.0822 -0.2073
  226POPC   C2B 3203   3.020   3.320   6.323 -0.3488  0.1967  0.2090
  226POPC   C3B 3204   2.891   3.615   6.580 -0.0495  0.3273  0.0966
  226POPC   C4B 3205   2.991   4.060   6.732 -0.0966 -0.0798 -0.0384
  227POPC   NC3 3206   5.890   0.286   3.940 -0.4608 -0.1418 -0.3319
  227POPC   PO4 3207   5.930   0.024   4.339  0.1821 -0.0002 -0.0373
  227POPC   GL1 3208   5.621   0.210   4.660  0.1392  0.4509 -0.1981
  227POPC   GL2 3209   5.710  -0.017   4.832  0.1479  0.0328  0.1706
  227POPC   C1A 3210   5.221   0.381   4.869 -0.3213 -0.0626 -0.0669
  227POPC   D2A 3211   5.181   0.353   5.440 -0.3391 -0.3882 -0.1345
  227POPC   C3A 3212   5.318   0.713   5.737 -0.5277 -0.4018  0.1716
  227POPC   C4A 3213   5.710   0.889   5.782 -0.1012  0.3165  0.0765
  227POPC   C1B 3214   5.625   0.278   5.218  0.3436  0.2735  0.1427
  227POPC   C2B 3215   5.624   0.228   5.680  0.1016  0.0928 -0.2398
  227POPC   C3B 3216   5.359  -0.045   5.908 -0.0931 -0.1084 -0.1440
  227POPC   C4B 3217   4.857  -0.038   6.139  0.0349 -0.3297  0.2365
  228POPC   NC3 3218  10.244   3.440   5.280  0.3102  0.0761  0.0115
  228POPC   PO4 3219  10.182   3.833   4.917 -0.0350  0.1510 -0.0434
  228POPC   GL1 3220  10.118   4.010   5.418 -0.2209 -0.0734  0.2247
  228POPC   GL2 3221   9.881   3.933   5.564  0.0350  0.1784  0.0304
  228POPC   C1A 3222  10.361   4.152   5.802  0.2005  0.3423  0.0470
  228POPC   D2A 3223  10.727   3.950   5.947  0.1014 -0.0985 -0.1173
  228POPC   C3A 3224  10.813   3.998   6.319 -0.2955 -0.0687  0.3147
  228POPC   C4A 3225  10.994   4.031   6.715  0.1667 -0.2337  0.0150
  228POPC   C1B 3226  10.122   3.723   5.868 -0.0124 -0.2950  0.0034
  228POPC   C2B 3227  10.202   3.805   6.293 -0.0248  0.3127  0.1476
  228POPC   C3B 3228  10.395   4.215   6.329  0.3718  0.2004  0.2972
  228POPC   C4B 3229  10.332   4.655   6.255  0.0526 -0.0718  0.1651
  229POPC   NC3 3230   1.964   7.238   4.644  0.1192 -0.0197  0.2251
  229POPC   PO4 3231   2.235   7.366   4.281 -0.0768 -0.1241 -0.0589
  229POPC   GL1 3232   2.159   7.687   4.676 -0.0694 -0.0975  0.1844
  229POPC   GL2 3233   2.385   8.043   4.749 -0.0132 -0.2095 -0.2719
  229POPC   C1A 3234   2.153   7.614   5.152  0.3899  0.1446  0.4363
  229POPC   D2A 3235   2.228   7.572   5.546 -0.0583  0.1259  0.1616
  229POPC   C3A 3236   2.208   7.150   5.804  0.4481  0.1965  0.0143
  229POPC   C4A 3237   1.923   6.938   5.925  0.0683 -0.3238 -0.2337
  229POPC   C1B 3238   2.459   8.443   5.032  0.0834 -0.1720  0.1150
  229POPC   C2B 3239   2.395   8.804   5.113  0.0655  0.2324  0.0352
  229POPC   C3B 3240   2.241   9.043   5.489  0.3443  0.2923  0.4148
  229POPC   C4B 3241   2.013   8.941   5.845  0.0833  0.0269 -0.1225
  230POPC   NC3 3242   5.888   9.705   3.817  0.1837 -0.0550 -0.2326
  230POPC   PO4 3243   5.890   9.419   4.260  0.4187  0.0352  0.1973
  230POPC   GL1 3244   5.517   9.502   4.521  0.0480 -0.1545 -0.1706
  230POPC   GL2 3245   5.261   9.261   4.619  0.4227 -0.1291 -0.1486
  230POPC   C1A 3246   5.429   9.528   4.956  0.1127 -0.0612 -0.2843
  230POPC   D2A 3247   5.232   9.644   5.283 -0.1036 -0.0103  0.2808
  230POPC   C3A 3248   4.960   9.925   5.095  0.0328 -0.0371  0.3815
  230POPC   C4A 3249   4.690  10.247   5.247  0.0150  0.0902  0.5706
  230POPC   C1B 3250   4.881   9.403   4.897  0.1669 -0.0570 -0.1353
  230POPC   C2B 3251   4.810   9.316   5.326 -0.1563  0.1756 -0.2710
  230POPC   C3B 3252   4.511   9.589   5.560  0.0267  0.0607 -0.1044
  230POPC   C4B 3253   4.206   9.855   5.811  0.2336  0.1774  0.1352
  231POPC   NC3 3254   0.483   1.213   4.282 -0.2662 -0.2899 -0.3295
  231POPC   PO4 3255   0.104   0.956   4.553  0.0937  0.1441  0.2424
  231POPC   GL1 3256   0.266   0.712   4.888 -0.2103  0.1809 -0.1402
  231POPC   GL2 3257   0.053   0.435   5.000 -0.0905  0.0211 -0.1263
  231POPC   C1A 3258   0.290   0.637   5.498  0.0627 -0.0860  0.2550
  231POPC   D2A 3259   0.458   0.348   5.798  0.0164 -0.1677 -0.0761
  231POPC   C3A 3260   0.325   0.311   6.198  0.1423 -0.1280  0.0122
  231POPC   C4A 3261   0.413   0.381   6.663  0.1451 -0.0268  0.0325
  231POPC   C1B 3262  -0.204   0.177   5.119 -0.0853  0.1565 -0.2357
  231POPC   C2B 3263  -0.147  -0.236   5.279  0.0173 -0.2735 -0.1532
  231POPC   C3B 3264   0.099  -0.520   5.539  0.2299 -0.0036  0.0595
  231POPC   C4B 3265   0.005  -0.922   5.835  0.2116  0.0916  0.0818
  232POPC   NC3 3266   9.343   5.580   4.471 -0.0734  0.3652  0.0473
  232POPC   PO4 3267   9.412   5.788   4.742 -0.0239 -0.1824 -0.1556
  232POPC   GL1 3268   9.578   5.659   5.159 -0.0552  0.0636 -0.3436
  232POPC   GL2 3269  10.032   5.775   5.221 -0.1213  0.1196  0.0628
  232POPC   C1A 3270   9.558   5.453   5.539 -0.2007  0.0216 -0.0573
  232POPC   D2A 3271   9.172   5.097   5.679  0.1159  0.1436 -0.0874
  232POPC   C3A 3272   8.853   5.192   6.086  0.0554  0.1413 -0.1892
  232POPC   C4A 3273   8.653   5.458   6.343 -0.0899 -0.0008 -0.1369
  232POPC   C1B 3274   9.837   5.937   5.523 -0.2732  0.2779  0.1521
  232POPC   C2B 3275   9.887   6.112   5.892  0.0195  0.3696 -0.0399
  232POPC   C3B 3276  10.010   6.035   6.273 -0.1873  0.0345 -0.0368
  232POPC   C4B 3277   9.903   6.116   6.736  0.1685 -0.0519 -0.2980
  233POPC   NC3 3278   9.624   5.284   4.780 -0.1219  0.1534  0.1734
  233POPC   PO4 3279   9.181   5.363   4.910 -0.0547  0.2565  0.2107
  233POPC   GL1 3280   9.031   5.496   5.285 -0.0757  0.0661  0.0058
  233POPC   GL2 3281   8.691   5.662   5.408  0.0656  0.0449 -0.0181
  233POPC   C1A 3282   9.164   5.578   5.749  0.1146 -0.1745  0.2642
  233POPC   D2A 3283   9.191   5.515   6.180 -0.1191  0.1188  0.4734
  233POPC   C3A 3284   8.976   5.764   6.499 -0.2842 -0.2218 -0.0479
  233POPC   C4A 3285   8.685   5.871   6.694 -0.1898 -0.2838 -0.2003
  233POPC   C1B 3286   8.774   5.963   5.754  0.1928 -0.1070 -0.0797
  233POPC   C2B 3287   8.826   6.092   6.163  0.2824 -0.1293  0.1038
  233POPC   C3B 3288   9.086   6.269   6.464  0.4031  0.0776 -0.4000
  233POPC   C4B 3289   9.290   6.034   6.851 -0.0130  0.1844 -0.0294
  234POPC   NC3 3290   7.995   0.278   4.571  0.1257  0.1947 -0.1772
  234POPC   PO4 3291   8.327   0.312   4.808  0.0698  0.0743 -0.3848
  234POPC   GL1 3292   8.278   0.436   5.231  0.0685  0.0241  0.0450
  234POPC   GL2 3293   7.933   0.428   5.310  0.0427  0.0704  0.1063
  234POPC   C1A 3294   8.424   0.512   5.727 -0.2367  0.0124  0.0007
  234POPC   D2A 3295   8.000   0.459   5.949  0.1296 -0.4394  0.0465
  234POPC   C3A 3296   7.919   0.255   6.250  0.1833  0.0865  0.1562
  234POPC   C4A 3297   8.027  -0.092   6.607 -0.0771  0.1854  0.0043
  234POPC   C1B 3298   7.722   0.218   5.557 -0.1646 -0.1454  0.4101
  234POPC   C2B 3299   7.414   0.028   5.812 -0.0065 -0.1007 -0.0483
  234POPC   C3B 3300   7.404  -0.368   5.886  0.1097  0.3579 -0.0195
  234POPC   C4B 3301   7.210  -0.682   5.735 -0.1462 -0.0059 -0.0474
  235POPC   NC3 3302  10.021  10.199   4.721  0.1152  0.4299 -0.2827
  235POPC   PO4 3303   9.631  10.406   4.821 -0.0252  0.0454  0.0040
  235POPC   GL1 3304   9.607  10.039   4.966  0.4073  0.0826 -0.0136
  235POPC   GL2 3305   9.406   9.938   5.263 -0.0682  0.1112  0.1900
  235POPC   C1A 3306   9.932   9.842   5.273 -0.1976  0.0046  0.1268
  235POPC   D2A 3307  10.083   9.890   5.639  0.0229  0.1571  0.0221
  235POPC   C3A 3308  10.229  10.247   5.847  0.2089 -0.0532  0.0215
  235POPC   C4A 3309  10.192  10.420   6.309  0.1529  0.0917 -0.1145
  235POPC   C1B 3310   9.549   9.512   5.481 -0.1159 -0.1138  0.2166
  235POPC   C2B 3311   9.600   9.459   5.902  0.2154 -0.0642 -0.2258
  235POPC   C3B 3312   9.506   9.580   6.332 -0.0787 -0.1486  0.0432
  235POPC   C4B 3313   9.455   9.342   6.755 -0.0363 -0.2541  0.2092
  236POPC   NC3 3314   6.457   9.019   4.238 -0.2096  0.3429  0.0197
  236POPC   PO4 3315   6.329   9.263   4.545  0.0150 -0.3315 -0.3165
  236POPC   GL1 3316   6.336   9.494   5.016 -0.1335 -0.1336  0.2246
  236POPC   GL2 3317   6.274   9.353   5.363  0.1341 -0.0671  0.2067
  236POPC   C1A 3318   6.142   9.852   5.206 -0.1390  0.1786 -0.1528
  236POPC   D2A 3319   6.074   9.867   5.593  0.0906  0.0209  0.0030
  236POPC   C3A 3320   5.958   9.602   5.931 -0.1589 -0.0703 -0.2103
  236POPC   C4A 3321   5.787   9.610   6.347 -0.1131  0.1051  0.1806
  236POPC   C1B 3322   5.873   9.450   5.382 -0.0718 -0.0395  0.1427
  236POPC   C2B 3323   5.546   9.428   5.705  0.0365  0.0545 -0.1195
  236POPC   C3B 3324   5.302   9.534   6.160 -0.1267  0.0528 -0.0416
  236POPC   C4B 3325   5.073   9.582   6.573 -0.1021  0.3324  0.1669
  237POPC   NC3 3326   7.651   9.834   4.260  0.2581  0.2981  0.0845
  237POPC   PO4 3327   7.530  10.101   4.601  0.1449 -0.0371 -0.1474
  237POPC   GL1 3328   7.279   9.873   4.927 -0.2699  0.1301 -0.1471
  237POPC   GL2 3329   7.316   9.684   5.115  0.0530  0.0655  0.1302
  237POPC   C1A 3330   7.039  10.012   5.289 -0.0010  0.0570 -0.1462
  237POPC   D2A 3331   6.827  10.184   5.770 -0.0487  0.0122  0.2568
  237POPC   C3A 3332   6.380  10.048   5.902 -0.0835  0.0978  0.5933
  237POPC   C4A 3333   6.105  10.009   6.158 -0.1888 -0.2855 -0.0503
  237POPC   C1B 3334   7.234   9.293   5.597  0.0267 -0.0739  0.0106
  237POPC   C2B 3335   7.031   9.431   5.930  0.0332 -0.0598 -0.2100
  237POPC   C3B 3336   6.941   9.839   6.122 -0.0054  0.2623  0.0256
  237POPC   C4B 3337   7.117  10.160   6.305 -0.2412 -0.0116 -0.1581
  238POPC   NC3 3338   4.208   6.595   5.032 -0.0219 -0.0515  0.0021
  238POPC   PO4 3339   4.504   6.832   4.987  0.1052  0.2475 -0.1153
  238POPC   GL1 3340   4.585   6.701   5.402  0.0094  0.0757  0.0553
  238POPC   GL2 3341   4.376   6.459   5.561 -0.2326 -0.2558  0.0962
  238POPC   C1A 3342   4.345   6.944   5.689  0.0024  0.6383 -0.1547
  238POPC   D2A 3343   4.188   7.174   6.091  0.1136 -0.0590  0.2598
  238POPC   C3A 3344   4.106   7.052   6.419 -0.1322 -0.1013 -0.1961
  238POPC   C4A 3345   4.380   6.872   6.754  0.0592 -0.2461  0.0359
  238POPC   C1B 3346   4.293   6.457   5.988  0.1975  0.2407 -0.0579
  238POPC   C2B 3347   4.156   6.529   6.433 -0.0046 -0.3362 -0.2186
  238POPC   C3B 3348   4.125   6.374   6.861  0.4205  0.0050  0.0645
  238POPC   C4B 3349   3.870   6.071   7.069 -0.1448  0.2193 -0.1117
  239POPC   NC3 3350  10.274   4.588   5.376  0.0356 -0.0212 -0.0385
  239POPC   PO4 3351  10.383   4.972   5.152  0.2577 -0.2143  0.1295
  239POPC   GL1 3352  10.319   5.051   5.481 -0.2032  0.0483 -0.3042
  239POPC   GL2 3353  10.335   4.900   5.744 -0.0071 -0.0481  0.4598
  239POPC   C1A 3354  10.034   5.317   5.672  0.1773  0.0912  0.2081
  239POPC   D2A 3355   9.771   5.567   5.955 -0.0012  0.1315  0.1036
  239POPC   C3A 3356   9.686   5.354   6.316  0.1489 -0.1712 -0.3827
  239POPC   C4A 3357   9.642   5.138   6.588 -0.0067  0.0610  0.3429
  239POPC   C1B 3358  10.557   5.191   5.878 -0.0148  0.0493 -0.1071
  239POPC   C2B 3359  10.780   5.526   6.067 -0.0619  0.1600 -0.0040
  239POPC   C3B 3360  10.787   5.910   6.095 -0.0541 -0.3994 -0.2654
  239POPC   C4B 3361  10.832   6.250   6.350 -0.3024  0.0251  0.1176
  240POPC   NC3 3362   2.585   4.068   4.953  0.1127 -0.0627 -0.3215
  240POPC   PO4 3363   2.234   4.437   5.006 -0.1784  0.0031 -0.0631
  240POPC   GL1 3364   2.411   4.411   5.397 -0.2142  0.2615  0.2015
  240POPC   GL2 3365   2.558   4.134   5.600  0.1241  0.1524 -0.2754
  240POPC   C1A 3366   2.077   4.330   5.738  0.0982  0.1043 -0.0861
  240POPC   D2A 3367   2.042   4.156   6.191  0.0285  0.1716  0.0531
  240POPC   C3A 3368   2.199   4.362   6.609  0.1134 -0.0512  0.0225
  240POPC   C4A 3369   2.072   4.629   6.890 -0.0616 -0.1485 -0.0690
  240POPC   C1B 3370   2.504   3.966   5.981  0.1728  0.0111 -0.1937
  240POPC   C2B 3371   2.573   3.995   6.421 -0.0978 -0.3511 -0.2233
  240POPC   C3B 3372   2.544   3.960   6.928 -0.0052 -0.1570  0.0329
  240POPC   C4B 3373   2.452   4.077   7.391 -0.2391 -0.3765 -0.0612
  241POPC   NC3 3374   2.128   2.817   4.900  0.1125  0.0713  0.3126
  241POPC   PO4 3375   1.737   2.936   4.974  0.0210 -0.1427  0.2968
  241POPC   GL1 3376   1.740   3.046   5.319  0.0078  0.4042  0.0170
  241POPC   GL2 3377   2.062   2.946   5.401 -0.0640 -0.0748 -0.0227
  241POPC   C1A 3378   1.788   2.991   5.819  0.3100  0.1140  0.2740
  241POPC   D2A 3379   1.763   3.161   6.201 -0.0825  0.2105  0.0753
  241POPC   C3A 3380   1.429   3.119   6.518  0.2928 -0.2177 -0.0980
  241POPC   C4A 3381   1.120   2.763   6.726  0.3612 -0.0399 -0.0241
  241POPC   C1B 3382   2.372   2.889   5.651 -0.1034 -0.1527 -0.1744
  241POPC   C2B 3383   2.683   3.043   5.934 -0.0601 -0.2299  0.0243
  241POPC   C3B 3384   2.590   3.116   6.443  0.0602 -0.0553 -0.1075
  241POPC   C4B 3385   2.672   2.958   6.788 -0.2421  0.1380  0.1404
  242POPC   NC3 3386   8.710   2.729   4.889 -0.1791 -0.2731 -0.4290
  242POPC   PO4 3387   8.416   2.420   4.923 -0.2627 -0.0365 -0.0311
  242POPC   GL1 3388   8.416   2.616   5.302  0.0181 -0.0404  0.1194
  242POPC   GL2 3389   8.264   2.457   5.513  0.0772  0.1865  0.1264
  242POPC   C1A 3390   8.569   2.758   5.710 -0.2355 -0.0331 -0.3809
  242POPC   D2A 3391   8.803   2.587   6.010  0.0289 -0.0969  0.0609
  242POPC   C3A 3392   8.507   2.642   6.383  0.1302 -0.2744 -0.0783
  242POPC   C4A 3393   8.161   2.441   6.429  0.0623  0.1005  0.0714
  242POPC   C1B 3394   8.326   2.356   5.928  0.0776 -0.1734  0.1520
  242POPC   C2B 3395   8.470   2.023   6.189  0.0438 -0.2915  0.0155
  242POPC   C3B 3396   8.576   2.156   6.534 -0.1162  0.2743 -0.4895
  242POPC   C4B 3397   8.879   2.461   6.664 -0.1357  0.0916  0.0000
  243POPC   NC3 3398   6.109   1.571   4.861 -0.0764  0.2690 -0.1574
  243POPC   PO4 3399   6.407   1.698   5.103  0.0602 -0.2242 -0.2091
  243POPC   GL1 3400   6.588   1.459   5.401 -0.2666  0.3246 -0.3355
  243POPC   GL2 3401   6.867   1.157   5.280  0.0277 -0.2363  0.1579
  243POPC   C1A 3402   6.568   1.187   5.761 -0.1608  0.0107  0.1057
  243POPC   D2A 3403   6.730   1.013   6.153 -0.1172 -0.1268 -0.1497
  243POPC   C3A 3404   7.207   0.956   6.157 -0.0482  0.2462  0.0503
  243POPC   C4A 3405   7.544   0.842   6.366 -0.0064  0.1630 -0.2095
  243POPC   C1B 3406   7.286   1.053   5.515  0.0349 -0.1124 -0.1416
  243POPC   C2B 3407   7.480   1.194   5.826 -0.1792  0.1455 -0.0504
  243POPC   C3B 3408   7.859   1.033   5.890 -0.3568 -0.0326  0.1917
  243POPC   C4B 3409   8.035   0.836   6.325 -0.0271 -0.0054  0.0809
  244POPC   NC3 3410   3.638   2.299   4.291 -0.0250 -0.4037 -0.1911
  244POPC   PO4 3411   3.689   2.648   4.570  0.2677  0.2406  0.1982
  244POPC   GL1 3412   3.723   2.524   4.988  0.1458 -0.2288  0.0386
  244POPC   GL2 3413   4.044   2.458   4.993 -0.2582  0.0523 -0.0929
  244POPC   C1A 3414   3.698   2.172   5.203 -0.3597  0.0080 -0.1110
  244POPC   D2A 3415   3.901   1.856   5.340  0.1578 -0.0314  0.3099
  244POPC   C3A 3416   3.687   1.603   5.516 -0.1725 -0.1261  0.2537
  244POPC   C4A 3417   3.616   1.423   5.913 -0.0419 -0.0944  0.0018
  244POPC   C1B 3418   4.230   2.208   5.285 -0.2517 -0.2249  0.1580
  244POPC   C2B 3419   4.158   2.092   5.695  0.1975 -0.2439  0.0855
  244POPC   C3B 3420   3.935   1.853   5.970  0.2230  0.0147  0.1716
  244POPC   C4B 3421   4.095   1.459   6.125  0.4303 -0.2198  0.2595
  245POPC   NC3 3422   3.414   5.225   5.020 -0.3501 -0.2393  0.0740
  245POPC   PO4 3423   3.542   5.628   4.942 -0.3252 -0.1662 -0.1062
  245POPC   GL1 3424   3.588   5.475   5.401 -0.0612  0.1009  0.1019
  245POPC   GL2 3425   3.827   5.611   5.600 -0.1999 -0.0734  0.0733
  245POPC   C1A 3426   3.621   5.199   5.845 -0.3696  0.0272  0.0488
  245POPC   D2A 3427   3.296   5.098   6.061 -0.2976 -0.0959 -0.0790
  245POPC   C3A 3428   3.196   5.173   6.459 -0.0895 -0.0401 -0.1243
  245POPC   C4A 3429   3.392   5.365   6.754  0.3240 -0.0175  0.1814
  245POPC   C1B 3430   3.779   5.739   5.952 -0.0875  0.1897 -0.1079
  245POPC   C2B 3431   3.626   6.097   6.217  0.0546  0.0063 -0.0688
  245POPC   C3B 3432   3.703   6.262   6.514  0.1185  0.0565  0.1222
  245POPC   C4B 3433   3.507   6.497   6.763  0.1963 -0.1975  0.1410
  246POPC   NC3 3434   7.580   8.488   4.951  0.1952 -0.3370 -0.1609
  246POPC   PO4 3435   7.205   8.404   5.359 -0.2394 -0.1711  0.0149
  246POPC   GL1 3436   7.205   7.888   5.522  0.7437  0.0395 -0.0037
  246POPC   GL2 3437   7.038   7.509   5.659 -0.5304 -0.1915 -0.0316
  246POPC   C1A 3438   7.585   7.743   5.627  0.2083 -0.0731 -0.1641
  246POPC   D2A 3439   7.870   7.921   5.901 -0.2798  0.0363  0.0223
  246POPC   C3A 3440   8.036   8.398   5.828  0.4091 -0.1422  0.2752
  246POPC   C4A 3441   8.145   8.757   5.711 -0.1421  0.0264  0.1463
  246POPC   C1B 3442   7.076   7.579   6.041 -0.0070  0.0413  0.2069
  246POPC   C2B 3443   7.090   7.642   6.447  0.1013  0.0174 -0.1520
  246POPC   C3B 3444   7.337   7.566   6.793 -0.3828 -0.1219  0.0994
  246POPC   C4B 3445   7.384   7.359   7.202  0.0354 -0.0303  0.0267
  247POPC   NC3 3446   7.606   2.675   4.954  0.0099 -0.0101 -0.1129
  247POPC   PO4 3447   7.198   2.579   4.888 -0.3205 -0.2387  0.0343
  247POPC   GL1 3448   7.334   2.403   5.288  0.1028  0.2841  0.0415
  247POPC   GL2 3449   7.491   2.604   5.458  0.3473 -0.3127 -0.1054
  247POPC   C1A 3450   7.252   2.206   5.723  0.1555 -0.1753  0.1975
  247POPC   D2A 3451   7.297   2.082   6.161 -0.0125  0.4566  0.1415
  247POPC   C3A 3452   7.117   2.337   6.471  0.0447  0.1167  0.0326
  247POPC   C4A 3453   6.912   2.223   6.748  0.2217 -0.0882 -0.0847
  247POPC   C1B 3454   7.554   2.978   5.783 -0.2367 -0.2608  0.1869
  247POPC   C2B 3455   7.716   3.066   6.187 -0.0038  0.1460 -0.4049
  247POPC   C3B 3456   7.585   3.258   6.531  0.0280  0.0041  0.2650
  247POPC   C4B 3457   7.161   3.487   6.601 -0.1257  0.1154  0.1625
  248POPC   NC3 3458   1.852   6.480   4.348 -0.1187 -0.3043  0.0507
  248POPC   PO4 3459   1.618   6.738   4.550  0.3847  0.0829  0.0893
  248POPC   GL1 3460   1.444   6.939   4.913  0.0849  0.0328  0.0036
  248POPC   GL2 3461   1.095   7.167   4.833 -0.1138 -0.0361 -0.0496
  248POPC   C1A 3462   1.554   7.295   5.183 -0.0018 -0.2745  0.0454
  248POPC   D2A 3463   1.786   7.280   5.525  0.0585  0.0552  0.0981
  248POPC   C3A 3464   1.494   7.179   5.978  0.0134 -0.1948 -0.1805
  248POPC   C4A 3465   1.415   7.405   6.345  0.1047  0.2587  0.2275
  248POPC   C1B 3466   0.918   7.072   5.237  0.0506  0.0213  0.0878
  248POPC   C2B 3467   0.747   7.092   5.659  0.0674 -0.1256 -0.2546
  248POPC   C3B 3468   0.797   6.864   6.016 -0.2048  0.0120 -0.0770
  248POPC   C4B 3469   1.151   6.948   6.276  0.1974 -0.0422 -0.0914
  249POPC   NC3 3470   6.509   9.025   5.000 -0.0387  0.1255  0.4007
  249POPC   PO4 3471   6.426   8.622   5.101 -0.3154 -0.3473 -0.3916
  249POPC   GL1 3472   6.499   8.563   5.466 -0.1098  0.3297  0.3489
  249POPC   GL2 3473   6.718   8.257   5.632  0.0920  0.1939 -0.1526
  249POPC   C1A 3474   6.531   8.763   5.847 -0.1694  0.1859  0.1587
  249POPC   D2A 3475   6.415   8.680   6.281  0.2034  0.0188  0.0361
  249POPC   C3A 3476   6.615   8.955   6.476 -0.0396 -0.1310 -0.1719
  249POPC   C4A 3477   6.928   8.963   6.817 -0.0179 -0.2345  0.2782
  249POPC   C1B 3478   6.709   8.339   6.130 -0.1800  0.0365 -0.2154
  249POPC   C2B 3479   6.984   8.566   6.407  0.0929  0.0565 -0.1716
  249POPC   C3B 3480   7.177   8.930   6.389  0.0122  0.0660  0.2167
  249POPC   C4B 3481   7.020   9.188   6.390  0.1028  0.1849 -0.3990
  250POPC   NC3 3482   3.454   1.550   3.942 -0.0810 -0.2588  0.0108
  250POPC   PO4 3483   3.304   1.845   4.285 -0.1898 -0.1949  0.0989
  250POPC   GL1 3484   3.239   1.747   4.661  0.1484 -0.1193  0.2043
  250POPC   GL2 3485   3.267   1.856   5.028 -0.3097  0.0382  0.2075
  250POPC   C1A 3486   3.118   1.357   4.841  0.0247 -0.0211 -0.2985
  250POPC   D2A 3487   3.123   1.007   5.074  0.2540  0.1647 -0.1288
  250POPC   C3A 3488   3.088   0.955   5.535  0.0394 -0.1191 -0.0641
  250POPC   C4A 3489   3.471   0.979   5.844 -0.0306  0.1752 -0.1177
  250POPC   C1B 3490   3.229   1.973   5.370 -0.0937 -0.0773  0.0984
  250POPC   C2B 3491   3.066   1.763   5.685  0.0301  0.0031 -0.0644
  250POPC   C3B 3492   3.130   1.578   6.048  0.2212  0.0382 -0.0098
  250POPC   C4B 3493   3.301   1.372   6.296 -0.3102  0.0637 -0.0514
  251POPC   NC3 3494   3.958   2.747   5.380 -0.1300 -0.0443  0.2646
  251POPC   PO4 3495   4.351   2.916   5.393 -0.0152  0.1151  0.2172
  251POPC   GL1 3496   4.264   2.796   5.808  0.3423  0.1859 -0.1688
  251POPC   GL2 3497   3.961   2.501   5.849  0.1112 -0.1146  0.2898
  251POPC   C1A 3498   3.973   2.865   6.158 -0.0848  0.1379 -0.0808
  251POPC   D2A 3499   3.678   2.876   6.493 -0.1086 -0.1097 -0.1689
  251POPC   C3A 3500   3.594   3.350   6.570 -0.0586  0.2508 -0.3699
  251POPC   C4A 3501   3.586   3.677   6.464  0.3018  0.3725  0.1737
  251POPC   C1B 3502   4.147   2.437   6.178  0.2879  0.0648 -0.0681
  251POPC   C2B 3503   3.988   2.126   6.381 -0.0803 -0.2898  0.0336
  251POPC   C3B 3504   3.834   1.940   6.716 -0.0200  0.0267 -0.1050
  251POPC   C4B 3505   3.635   1.932   7.263 -0.0982 -0.0174 -0.0675
  252POPC   NC3 3506   9.431   1.249   4.408 -0.1268  0.0319  0.0809
  252POPC   PO4 3507   9.505   1.594   4.641 -0.2129  0.0377  0.0119
  252POPC   GL1 3508   9.620   1.175   4.940  0.3773  0.2163 -0.2338
  252POPC   GL2 3509   9.323   1.027   5.245 -0.2751  0.1860  0.1029
  252POPC   C1A 3510   9.849   1.183   5.339 -0.1312 -0.3833 -0.0097
  252POPC   D2A 3511  10.174   1.284   5.651 -0.0535  0.1336  0.3606
  252POPC   C3A 3512  10.226   1.360   6.083 -0.1267 -0.0331 -0.0807
  252POPC   C4A 3513  10.151   1.183   6.479 -0.1563  0.0785 -0.1868
  252POPC   C1B 3514   9.443   1.438   5.468  0.0216 -0.0867 -0.0099
  252POPC   C2B 3515   9.710   1.359   5.805 -0.1148  0.0785  0.1775
  252POPC   C3B 3516   9.666   1.279   6.219 -0.0796  0.3836  0.0154
  252POPC   C4B 3517   9.795   0.741   6.273 -0.0587 -0.3318 -0.0399
  253POPC   NC3 3518   4.575   1.628   4.518  0.0407 -0.0729 -0.1556
  253POPC   PO4 3519   4.162   1.720   4.423 -0.3919  0.1920 -0.4280
  253POPC   GL1 3520   4.110   1.504   4.708  0.1119 -0.0423 -0.0222
  253POPC   GL2 3521   3.818   1.563   4.948  0.1590 -0.2421 -0.1471
  253POPC   C1A 3522   4.294   1.663   5.146  0.1441  0.0176 -0.2413
  253POPC   D2A 3523   4.241   1.628   5.611 -0.2828 -0.1820 -0.0222
  253POPC   C3A 3524   4.508   1.747   5.886  0.2606  0.0063 -0.2459
  253POPC   C4A 3525   4.445   1.987   6.233  0.2721  0.0001 -0.0480
  253POPC   C1B 3526   3.938   1.221   5.222 -0.0844 -0.0816 -0.0047
  253POPC   C2B 3527   4.022   1.120   5.647  0.1830  0.0101 -0.2168
  253POPC   C3B 3528   3.836   0.711   5.848  0.0133  0.3660 -0.1313
  253POPC   C4B 3529   3.498   0.519   6.035 -0.1693  0.4436 -0.1158
  254POPC   NC3 3530   6.195   5.700   4.850  0.2327  0.0524  0.1994
  254POPC   PO4 3531   6.663   5.799   4.849  0.2162  0.1840  0.3772
  254POPC   GL1 3532   6.587   5.782   5.176  0.0256  0.3635 -0.3508
  254POPC   GL2 3533   6.960   5.749   5.304 -0.0957  0.3168 -0.0160
  254POPC   C1A 3534   6.559   5.712   5.595 -0.1948 -0.0520 -0.0256
  254POPC   D2A 3535   6.176   5.504   5.788  0.1667  0.0734 -0.2589
  254POPC   C3A 3536   6.243   5.432   6.147  0.1648 -0.3961  0.0390
  254POPC   C4A 3537   6.367   5.206   6.489  0.0172 -0.4449  0.1934
  254POPC   C1B 3538   6.947   6.055   5.635  0.4407  0.1341 -0.2052
  254POPC   C2B 3539   6.874   6.078   5.997  0.0380 -0.0121  0.1723
  254POPC   C3B 3540   7.197   6.145   6.157  0.0630 -0.1630 -0.0137
  254POPC   C4B 3541   7.542   6.403   6.306  0.3973  0.0353  0.0060
  255POPC   NC3 3542   9.751   6.098   4.903 -0.1750 -0.1089 -0.1079
  255POPC   PO4 3543   9.659   6.332   4.554  0.1364 -0.2430 -0.1780
  255POPC   GL1 3544   9.962   6.532   4.980 -0.3646  0.1395 -0.4118
  255POPC   GL2 3545  10.087   6.873   5.063  0.1028  0.2580  0.0505
  255POPC   C1A 3546   9.895   6.544   5.465  0.2864 -0.1943  0.3009
  255POPC   D2A 3547   9.914   6.609   5.905  0.1888 -0.2242  0.0571
  255POPC   C3A 3548  10.023   6.978   6.196  0.0119  0.2412 -0.2140
  255POPC   C4A 3549   9.782   7.375   6.340 -0.0243  0.0934  0.0816
  255POPC   C1B 3550  10.299   6.826   5.524 -0.1431  0.0712  0.3194
  255POPC   C2B 3551  10.436   6.957   5.958 -0.0543 -0.0098  0.4303
  255POPC   C3B 3552  10.425   7.112   6.429 -0.2639 -0.0906  0.1217
  255POPC   C4B 3553  10.267   7.393   6.781 -0.0079 -0.0055  0.0064
  256POPC   NC3 3554   6.782   3.305   4.818  0.1284  0.0789  0.2636
  256POPC   PO4 3555   6.510   3.428   5.156 -0.0661  0.3024  0.0378
  256POPC   GL1 3556   6.439   3.504   5.552  0.2336  0.0482 -0.0017
  256POPC   GL2 3557   6.185   3.743   5.507  0.0838  0.2423 -0.0118
  256POPC   C1A 3558   6.394   3.286   5.958 -0.1417 -0.1469 -0.0137
  256POPC   D2A 3559   6.370   3.110   6.415 -0.0177  0.0176  0.3310
  256POPC   C3A 3560   6.272   3.319   6.892  0.0147 -0.0194 -0.2232
  256POPC   C4A 3561   6.376   3.558   7.198 -0.1825 -0.0906 -0.1305
  256POPC   C1B 3562   6.251   3.824   5.958  0.0091 -0.0215  0.0771
  256POPC   C2B 3563   6.346   3.748   6.410  0.0844 -0.0905  0.0218
  256POPC   C3B 3564   6.707   3.664   6.704  0.1055  0.0641 -0.0750
  256POPC   C4B 3565   6.773   3.235   6.674 -0.0246 -0.0111  0.0068
  257POPC   NC3 3566   1.008   3.642   4.863  0.3440  0.2768 -0.0325
  257POPC   PO4 3567   1.267   3.192   4.936 -0.1131  0.0377 -0.0522
  257POPC   GL1 3568   1.301   3.272   5.272 -0.2981  0.1907  0.1034
  257POPC   GL2 3569   0.976   3.423   5.343  0.0733 -0.2033 -0.3042
  257POPC   C1A 3570   1.306   3.062   5.690 -0.1477 -0.0558  0.0986
  257POPC   D2A 3571   1.170   2.932   6.133 -0.0009  0.0526  0.1371
  257POPC   C3A 3572   0.776   2.904   6.321  0.2191  0.0742  0.1286
  257POPC   C4A 3573   0.381   3.095   6.240 -0.3737 -0.0312 -0.0228
  257POPC   C1B 3574   0.882   3.276   5.778  0.0052 -0.0609  0.1085
  257POPC   C2B 3575   0.731   2.908   5.805 -0.1922 -0.1668  0.1042
  257POPC   C3B 3576   0.907   2.556   6.001  0.1591  0.0270  0.2795
  257POPC   C4B 3577   1.169   2.384   6.285  0.1591  0.4605 -0.3248
  258POPC   NC3 3578   3.876   6.051   4.808  0.2261 -0.0649 -0.3037
  258POPC   PO4 3579   3.708   6.429   4.955  0.3339 -0.2114 -0.1664
  258POPC   GL1 3580   3.740   6.487   5.375 -0.0678 -0.1715  0.4199
  258POPC   GL2 3581   3.986   6.741   5.433 -0.1346  0.2336 -0.0949
  258POPC   C1A 3582   3.817   6.356   5.851  0.0776 -0.0212  0.1163
  258POPC   D2A 3583   4.127   6.012   6.170  0.2222  0.2000 -0.0347
  258POPC   C3A 3584   3.921   5.719   6.410  0.0703 -0.0229 -0.4103
  258POPC   C4A 3585   3.923   5.500   6.890  0.0754  0.0530  0.2958
  258POPC   C1B 3586   3.861   6.839   5.824 -0.3377 -0.0739 -0.0452
  258POPC   C2B 3587   3.752   6.780   6.223  0.0602  0.2720 -0.5911
  258POPC   C3B 3588   3.634   6.987   6.635 -0.0666 -0.5232 -0.1443
  258POPC   C4B 3589   3.462   6.982   7.019 -0.0855 -0.0567 -0.3612
  259POPC   NC3 3590   4.858   5.501   5.174 -0.2007  0.1291  0.5277
  259POPC   PO4 3591   5.235   5.137   5.095  0.0010 -0.3269  0.3502
  259POPC   GL1 3592   5.230   5.355   5.474  0.4459 -0.1118 -0.1023
  259POPC   GL2 3593   5.372   5.637   5.481 -0.0205  0.1300 -0.2994
  259POPC   C1A 3594   5.345   5.088   5.823  0.3432 -0.0983  0.0903
  259POPC   D2A 3595   5.559   4.825   5.979  0.1221 -0.0069  0.2798
  259POPC   C3A 3596   5.834   4.560   5.747  0.2942 -0.1226 -0.1330
  259POPC   C4A 3597   5.910   4.114   5.720 -0.0171 -0.2033  0.1316
  259POPC   C1B 3598   5.765   5.763   5.738 -0.2771  0.0919 -0.0582
  259POPC   C2B 3599   5.946   5.812   6.139  0.0557 -0.2335  0.1978
  259POPC   C3B 3600   5.970   6.069   6.493 -0.1420 -0.2426  0.1342
  259POPC   C4B 3601   5.875   6.263   6.842 -0.0333 -0.0943  0.1710
  260POPC   NC3 3602   2.706   3.644   5.165 -0.1706 -0.2318 -0.0827
  260POPC   PO4 3603   2.782   3.232   5.307 -0.0195 -0.0239 -0.1730
  260POPC   GL1 3604   2.765   2.719   5.470  0.2564 -0.1169  0.0849
  260POPC   GL2 3605   2.960   2.667   5.644  0.0253  0.1788  0.0808
  260POPC   C1A 3606   2.486   2.456   5.730  0.1153 -0.0392 -0.1016
  260POPC   D2A 3607   2.030   2.549   5.991 -0.2691 -0.1533  0.0276
  260POPC   C3A 3608   1.759   2.272   6.306 -0.1909  0.3049 -0.3377
  260POPC   C4A 3609   1.561   2.349   6.649  0.3955 -0.2557 -0.0303
  260POPC   C1B 3610   3.002   2.599   6.065 -0.2936 -0.0038 -0.4645
  260POPC   C2B 3611   3.153   2.772   6.466  0.1713  0.0378  0.1506
  260POPC   C3B 3612   3.167   3.192   6.772 -0.1135 -0.3500 -0.0323
  260POPC   C4B 3613   2.833   3.394   7.155 -0.1939 -0.3089  0.1554
  261POPC   NC3 3614   0.517   8.006   3.791  0.2576 -0.1363  0.0919
  261POPC   PO4 3615   0.424   7.997   4.289 -0.0740  0.2939  0.2130
  261POPC   GL1 3616   0.397   8.005   4.726  0.1849  0.0469 -0.4890
  261POPC   GL2 3617   0.119   8.136   4.887  0.0180  0.0478 -0.0213
  261POPC   C1A 3618   0.678   8.051   5.063 -0.0148 -0.2797 -0.3750
  261POPC   D2A 3619   0.676   8.048   5.561 -0.1697  0.1380 -0.0422
  261POPC   C3A 3620   1.072   7.976   5.770 -0.0884  0.0045  0.1496
  261POPC   C4A 3621   1.122   7.893   6.138 -0.1627 -0.1381 -0.3287
  261POPC   C1B 3622  -0.211   8.465   5.126  0.0033  0.2270  0.0359
  261POPC   C2B 3623  -0.068   8.727   5.499  0.0852  0.0510  0.1156
  261POPC   C3B 3624  -0.054   9.026   5.843 -0.0384 -0.0215  0.1550
  261POPC   C4B 3625   0.007   8.915   6.311 -0.1491 -0.1978 -0.2163
  262POPC   NC3 3626   9.268   7.043   5.217 -0.1776  0.3231 -0.0048
  262POPC   PO4 3627   9.645   7.284   4.982  0.0939 -0.1133  0.1186
  262POPC   GL1 3628   9.596   7.267   5.472  0.0295  0.0232 -0.3871
  262POPC   GL2 3629   9.786   7.057   5.696 -0.0115 -0.0265 -0.1912
  262POPC   C1A 3630   9.355   7.182   5.880  0.1349  0.1296  0.1582
  262POPC   D2A 3631   9.504   6.835   6.188 -0.3373 -0.0652  0.4069
  262POPC   C3A 3632   9.642   6.928   6.576  0.2581 -0.0207 -0.2650
  262POPC   C4A 3633   9.823   7.263   6.829  0.0237 -0.3208 -0.1082
  262POPC   C1B 3634  10.067   7.366   5.853 -0.2140  0.3633  0.2197
  262POPC   C2B 3635  10.140   7.706   6.068 -0.3840 -0.1888 -0.0614
  262POPC   C3B 3636  10.237   8.139   6.255 -0.0361  0.1040 -0.0288
  262POPC   C4B 3637  10.471   8.231   6.591  0.0800 -0.0103 -0.1125
  263POPC   NC3 3638   0.804   2.949   5.148  0.1849 -0.3383 -0.1404
  263POPC   PO4 3639   0.659   3.286   4.992 -0.3765 -0.0902 -0.1163
  263POPC   GL1 3640   0.467   3.331   5.441 -0.0594  0.2794 -0.0257
  263POPC   GL2 3641   0.548   3.696   5.692 -0.2649 -0.1830 -0.0798
  263POPC   C1A 3642   0.305   3.295   5.815 -0.3039 -0.3337  0.0117
  263POPC   D2A 3643   0.066   3.464   6.156 -0.2818 -0.1623 -0.1945
  263POPC   C3A 3644   0.050   3.688   6.605 -0.2857  0.4898 -0.2290
  263POPC   C4A 3645   0.019   4.050   6.781  0.0441  0.1776  0.0082
  263POPC   C1B 3646   0.579   3.570   6.208  0.0353 -0.0328  0.0025
  263POPC   C2B 3647   0.555   3.562   6.692  0.0836  0.3676  0.4788
  263POPC   C3B 3648   0.915   3.590   6.988  0.1570  0.0026  0.0698
  263POPC   C4B 3649   1.218   3.581   7.352 -0.1498 -0.0770 -0.0820
  264POPC   NC3 3650   2.042   1.565   4.099  0.0278  0.0323  0.1166
  264POPC   PO4 3651   1.881   1.195   3.981  0.3503 -0.2403  0.0889
  264POPC   GL1 3652   1.777   1.124   4.460  0.3073 -0.2181 -0.0074
  264POPC   GL2 3653   1.528   1.075   4.671 -0.0887 -0.1329  0.2260
  264POPC   C1A 3654   1.933   1.201   4.909 -0.1542 -0.0223  0.1625
  264POPC   D2A 3655   1.885   1.489   5.278 -0.0657 -0.0036  0.1811
  264POPC   C3A 3656   2.155   1.377   5.598 -0.1347 -0.2308  0.0995
  264POPC   C4A 3657   2.331   1.101   5.869 -0.2020 -0.2464 -0.2430
  264POPC   C1B 3658   1.573   0.858   4.941  0.3630 -0.3315  0.4926
  264POPC   C2B 3659   1.462   0.681   5.280  0.0294 -0.2529  0.1598
  264POPC   C3B 3660   1.383   0.659   5.713 -0.2485  0.0414  0.0502
  264POPC   C4B 3661   1.441   0.952   5.998 -0.1761  0.1327 -0.0121
  265POPC   NC3 3662   0.261   6.623   4.478 -0.0921  0.2867 -0.4027
  265POPC   PO4 3663   0.615   6.502   4.643  0.0118  0.1520  0.1020
  265POPC   GL1 3664   0.779   6.682   5.020 -0.1996 -0.1820  0.2709
  265POPC   GL2 3665   0.538   6.520   5.131  0.0724  0.2328 -0.2848
  265POPC   C1A 3666   0.883   6.617   5.441  0.0150 -0.1058 -0.3499
  265POPC   D2A 3667   0.698   6.269   5.874 -0.0626  0.4951 -0.1698
  265POPC   C3A 3668   1.064   5.971   6.223  0.1626  0.1868 -0.2911
  265POPC   C4A 3669   1.247   6.063   6.602 -0.1876 -0.1733 -0.1364
  265POPC   C1B 3670   0.326   6.575   5.534  0.1179  0.0993  0.2126
  265POPC   C2B 3671   0.311   6.635   5.929  0.3354 -0.2022  0.0039
  265POPC   C3B 3672   0.364   7.004   6.249  0.1573 -0.1297  0.1596
  265POPC   C4B 3673   0.369   7.316   6.517 -0.0403  0.1811 -0.0229
  266POPC   NC3 3674   0.677   5.094   4.773 -0.5576 -0.0607 -0.0640
  266POPC   PO4 3675   0.740   4.674   4.773  0.1239  0.0537 -0.0659
  266POPC   GL1 3676   0.814   4.732   5.250  0.0439 -0.2400  0.0269
  266POPC   GL2 3677   1.092   4.693   5.139  0.0667 -0.1032 -0.2391
  266POPC   C1A 3678   0.474   4.775   5.700  0.0341  0.2544  0.3301
  266POPC   D2A 3679   0.541   4.934   6.026  0.1658  0.3333  0.1903
  266POPC   C3A 3680   0.221   5.078   6.351  0.0202  0.1194  0.0951
  266POPC   C4A 3681   0.047   5.355   6.504  0.0689  0.0508 -0.2529
  266POPC   C1B 3682   1.476   4.610   5.483 -0.2511 -0.1503  0.0462
  266POPC   C2B 3683   1.818   4.757   5.738  0.2167  0.2339 -0.0959
  266POPC   C3B 3684   1.780   5.151   6.182  0.2799  0.5080 -0.1054
  266POPC   C4B 3685   1.844   5.557   6.044 -0.3148  0.3595 -0.1517
  267POPC   NC3 3686   8.451   4.603   4.521  0.0794  0.1255 -0.1886
  267POPC   PO4 3687   8.485   4.396   4.992  0.1171 -0.2279  0.2437
  267POPC   GL1 3688   8.520   4.671   5.379  0.0841  0.5947 -0.1194
  267POPC   GL2 3689   8.496   4.426   5.510  0.0388  0.0359 -0.2434
  267POPC   C1A 3690   8.283   4.811   5.723  0.0420 -0.3378  0.0511
  267POPC   D2A 3691   8.112   5.115   5.847  0.1845 -0.2511  0.2158
  267POPC   C3A 3692   8.343   5.063   6.227  0.0398 -0.0125  0.0555
  267POPC   C4A 3693   8.333   5.018   6.606  0.1180 -0.2580 -0.0055
  267POPC   C1B 3694   8.509   4.381   5.932  0.4356 -0.2774 -0.0222
  267POPC   C2B 3695   8.383   4.178   6.412  0.3122  0.0851  0.2640
  267POPC   C3B 3696   8.106   4.176   6.737 -0.2747 -0.1812 -0.0807
  267POPC   C4B 3697   7.873   3.918   7.047 -0.0706 -0.3851 -0.0013
  268POPC   NC3 3698   2.363   5.370   5.093  0.3195  0.0973  0.0784
  268POPC   PO4 3699   2.350   5.751   5.208 -0.0104  0.0595  0.1044
  268POPC   GL1 3700   2.345   5.616   5.550  0.0846 -0.0881  0.0853
  268POPC   GL2 3701   2.543   5.400   5.670 -0.0235 -0.1376  0.3451
  268POPC   C1A 3702   2.442   5.661   6.081 -0.2328 -0.2005  0.2779
  268POPC   D2A 3703   2.179   5.799   6.319  0.0022  0.1843 -0.0970
  268POPC   C3A 3704   2.309   5.907   6.663  0.2668 -0.0297 -0.1383
  268POPC   C4A 3705   2.046   6.105   6.978 -0.0835 -0.0803  0.2112
  268POPC   C1B 3706   2.716   5.125   6.069  0.2172  0.0423  0.0030
  268POPC   C2B 3707   2.891   4.780   6.304 -0.1203  0.2807 -0.0411
  268POPC   C3B 3708   3.073   4.419   6.291 -0.3055 -0.2255  0.2835
  268POPC   C4B 3709   3.128   4.060   6.221  0.2710 -0.1137  0.1663
  269POPC   NC3 3710   4.233   8.030   4.164  0.1416  0.0319  0.1094
  269POPC   PO4 3711   3.874   8.276   4.094 -0.0763  0.3423  0.0437
  269POPC   GL1 3712   4.036   8.404   4.555 -0.2366 -0.2093  0.1685
  269POPC   GL2 3713   4.293   8.270   4.859 -0.0235  0.3272 -0.0357
  269POPC   C1A 3714   4.187   8.870   4.722 -0.3789 -0.3030 -0.0056
  269POPC   D2A 3715   3.890   9.174   4.844 -0.3000 -0.2150  0.2067
  269POPC   C3A 3716   3.673   9.320   5.110 -0.0223  0.0303  0.1260
  269POPC   C4A 3717   3.477   9.272   5.508 -0.1679  0.1018  0.2161
  269POPC   C1B 3718   4.556   8.251   5.308  0.0860 -0.2203 -0.0439
  269POPC   C2B 3719   4.906   8.200   5.686 -0.0361  0.3182  0.0716
  269POPC   C3B 3720   4.969   7.976   6.047 -0.0197  0.0167 -0.1288
  269POPC   C4B 3721   4.881   7.615   6.233 -0.0734  0.0715  0.0684
  270POPC   NC3 3722   6.788   0.613   4.436  0.1078  0.6536 -0.1487
  270POPC   PO4 3723   6.795   0.775   4.803 -0.0458  0.0680  0.3108
  270POPC   GL1 3724   6.684   0.656   5.150 -0.1671 -0.4146  0.1132
  270POPC   GL2 3725   6.942   0.632   5.326 -0.0472  0.1549 -0.2056
  270POPC   C1A 3726   6.494   0.836   5.433  0.0290 -0.1866  0.0272
  270POPC   D2A 3727   6.222   0.860   5.839 -0.1697  0.0903 -0.0146
  270POPC   C3A 3728   6.322   0.757   6.335 -0.1411 -0.3382  0.1634
  270POPC   C4A 3729   6.341   0.798   6.771  0.1170 -0.0037 -0.1267
  270POPC   C1B 3730   6.909   0.715   5.756 -0.2258 -0.2689  0.3618
  270POPC   C2B 3731   6.967   0.555   6.237 -0.3580 -0.0936 -0.3059
  270POPC   C3B 3732   7.224   0.293   6.490  0.0458 -0.0725  0.2390
  270POPC   C4B 3733   7.510  -0.070   6.387 -0.0825 -0.1987 -0.1442
  271POPC   NC3 3734   6.733   6.349   4.758  0.0353 -0.2215  0.2306
  271POPC   PO4 3735   6.815   6.710   5.039  0.1466 -0.0730 -0.1673
  271POPC   GL1 3736   6.970   6.691   5.417  0.0385  0.1173  0.1626
  271POPC   GL2 3737   7.245   6.943   5.581  0.0533  0.2889  0.1356
  271POPC   C1A 3738   7.068   6.559   5.860  0.2436 -0.0951 -0.2960
  271POPC   D2A 3739   6.902   6.661   6.223  0.1394  0.2882 -0.0605
  271POPC   C3A 3740   7.176   6.607   6.600 -0.0682  0.0169  0.2221
  271POPC   C4A 3741   7.301   6.979   6.836  0.0008 -0.0176 -0.0873
  271POPC   C1B 3742   6.827   7.082   5.897 -0.0389  0.1884 -0.0615
  271POPC   C2B 3743   6.720   7.257   6.196 -0.3379  0.0739 -0.0228
  271POPC   C3B 3744   6.410   7.324   6.442 -0.1826 -0.2235 -0.0764
  271POPC   C4B 3745   6.087   7.155   6.633 -0.3862 -0.3436  0.0756
  272POPC   NC3 3746   7.863   3.745   4.820 -0.0054 -0.0144 -0.1392
  272POPC   PO4 3747   8.039   3.477   5.103  0.3243 -0.1070  0.1900
  272POPC   GL1 3748   8.253   3.523   5.489  0.2973 -0.0913  0.0154
  272POPC   GL2 3749   8.349   3.898   5.725 -0.1305  0.0971 -0.4670
  272POPC   C1A 3750   8.538   3.259   5.785  0.4118  0.1828 -0.1116
  272POPC   D2A 3751   8.635   3.263   6.235 -0.1325 -0.2308 -0.1671
  272POPC   C3A 3752   8.921   3.010   6.365 -0.0301  0.0636 -0.1533
  272POPC   C4A 3753   9.228   2.801   6.510 -0.2475 -0.3514  0.2166
  272POPC   C1B 3754   8.503   3.794   6.084  0.0984 -0.1232 -0.3771
  272POPC   C2B 3755   8.372   3.648   6.511 -0.3893  0.2591 -0.4340
  272POPC   C3B 3756   7.983   3.562   6.635 -0.0717 -0.2984 -0.1399
  272POPC   C4B 3757   7.607   3.798   6.658  0.2884  0.1315 -0.1503
  273POPC   NC3 3758   1.739   5.866   5.010  0.1814  0.1465 -0.2745
  273POPC   PO4 3759   1.854   6.301   4.866 -0.2554  0.0790  0.0093
  273POPC   GL1 3760   1.878   6.315   5.276 -0.1390 -0.1964 -0.1235
  273POPC   GL2 3761   1.875   6.013   5.459 -0.0251  0.0357 -0.0804
  273POPC   C1A 3762   1.761   6.421   5.634  0.2537 -0.5095  0.2700
  273POPC   D2A 3763   1.856   6.482   6.037  0.1468 -0.3349  0.2237
  273POPC   C3A 3764   1.562   6.710   6.226  0.1932 -0.0734  0.2321
  273POPC   C4A 3765   1.389   6.741   6.635 -0.1969 -0.0681 -0.2208
  273POPC   C1B 3766   2.119   6.048   5.873 -0.0466  0.1769 -0.0564
  273POPC   C2B 3767   2.230   6.305   6.329  0.1882  0.3680 -0.0870
  273POPC   C3B 3768   2.108   6.499   6.651  0.2936  0.0605 -0.2770
  273POPC   C4B 3769   1.855   6.831   6.717 -0.4482 -0.0081  0.1061
  274POPC   NC3 3770   9.603   4.351   4.914  0.1872 -0.1869 -0.0106
  274POPC   PO4 3771   9.773   4.330   5.310 -0.4073  0.1826 -0.2732
  274POPC   GL1 3772   9.895   4.447   5.684  0.0165 -0.2348  0.5922
  274POPC   GL2 3773   9.659   4.621   5.889  0.0658  0.0418 -0.0351
  274POPC   C1A 3774   9.960   4.197   6.050 -0.0884  0.1199  0.2415
  274POPC   D2A 3775   9.837   4.113   6.415 -0.1566 -0.0500 -0.1248
  274POPC   C3A 3776   9.964   4.501   6.714  0.0400  0.2500  0.2041
  274POPC   C4A 3777   9.711   4.784   6.963 -0.0115  0.1788 -0.0338
  274POPC   C1B 3778   9.967   4.922   6.091 -0.1106  0.0327  0.0086
  274POPC   C2B 3779  10.154   5.279   6.221  0.4234 -0.1048 -0.2275
  274POPC   C3B 3780  10.301   5.663   6.144  0.2480  0.1308  0.0149
  274POPC   C4B 3781  10.347   5.705   5.734  0.1541 -0.2120  0.2049
  275POPC   NC3 3782   3.514   8.180   3.734 -0.0262 -0.2944 -0.0910
  275POPC   PO4 3783   3.355   8.186   4.201  0.1434 -0.0336 -0.0102
  275POPC   GL1 3784   3.480   8.259   4.563  0.0782  0.0535 -0.1706
  275POPC   GL2 3785   3.316   8.040   4.820 -0.1154 -0.0277 -0.1729
  275POPC   C1A 3786   3.534   8.516   4.896  0.1931 -0.1983  0.0965
  275POPC   D2A 3787   3.490   8.695   5.222  0.0703 -0.3624 -0.0254
  275POPC   C3A 3788   3.199   8.580   5.464  0.2557  0.1677  0.2973
  275POPC   C4A 3789   2.779   8.490   5.409  0.0586  0.2629  0.0483
  275POPC   C1B 3790   3.326   8.156   5.226  0.0747  0.1400  0.0133
  275POPC   C2B 3791   3.590   8.245   5.452  0.2705  0.3393  0.0384
  275POPC   C3B 3792   3.605   8.569   5.697  0.0086 -0.2787 -0.2479
  275POPC   C4B 3793   3.788   8.968   5.833 -0.0305 -0.0364 -0.1712
  276POPC   NC3 3794   1.281   1.359   4.123 -0.0773  0.0424  0.0732
  276POPC   PO4 3795   1.569   1.633   4.190  0.0564  0.2355  0.3468
  276POPC   GL1 3796   1.451   1.591   4.592  0.2332  0.2284  0.6685
  276POPC   GL2 3797   1.082   1.508   4.626 -0.1266  0.2250 -0.1478
  276POPC   C1A 3798   1.481   1.417   5.060  0.0097  0.1301 -0.0467
  276POPC   D2A 3799   1.462   1.172   5.411 -0.1370  0.2910 -0.0586
  276POPC   C3A 3800   1.853   0.972   5.637  0.3264  0.3531  0.2155
  276POPC   C4A 3801   2.003   0.747   6.035  0.0539  0.0372  0.1091
  276POPC   C1B 3802   0.982   1.535   5.042  0.0596  0.0207  0.0064
  276POPC   C2B 3803   0.976   1.363   5.365 -0.0375  0.2013 -0.2208
  276POPC   C3B 3804   1.075   1.229   5.724  0.0793  0.0865 -0.0430
  276POPC   C4B 3805   0.910   1.033   6.052  0.3034 -0.2055  0.1731
  277POPC   NC3 3806   6.810   8.250   5.133 -0.0039 -0.0233  0.3067
  277POPC   PO4 3807   6.957   8.674   4.962 -0.3264  0.2424  0.4715
  277POPC   GL1 3808   6.962   8.826   5.337 -0.2163  0.0353 -0.1664
  277POPC   GL2 3809   6.768   9.057   5.502 -0.2167 -0.0723 -0.4507
  277POPC   C1A 3810   7.125   8.823   5.814 -0.0850 -0.1343 -0.0022
  277POPC   D2A 3811   7.523   9.124   6.042 -0.1543  0.1438  0.3031
  277POPC   C3A 3812   7.945   8.872   6.172  0.3031 -0.1353  0.0788
  277POPC   C4A 3813   8.274   8.951   6.372 -0.2827  0.1736  0.3410
  277POPC   C1B 3814   6.595   9.279   5.821  0.4689  0.2658 -0.0035
  277POPC   C2B 3815   6.467   9.573   6.137 -0.5393 -0.1688 -0.1503
  277POPC   C3B 3816   6.302   9.580   6.483 -0.1087 -0.1740 -0.1475
  277POPC   C4B 3817   6.043   9.894   6.653 -0.2726  0.0030 -0.0580
  278POPC   NC3 3818   5.082   3.873   5.072 -0.2263  0.0373 -0.1876
  278POPC   PO4 3819   5.480   4.142   5.083 -0.1915  0.1009  0.1445
  278POPC   GL1 3820   5.386   3.957   5.471 -0.0145 -0.0565  0.2179
  278POPC   GL2 3821   5.056   3.780   5.586  0.0858 -0.1282 -0.0562
  278POPC   C1A 3822   5.364   3.911   5.958 -0.2278  0.0697  0.0136
  278POPC   D2A 3823   5.302   3.888   6.357  0.0997 -0.1248  0.0631
  278POPC   C3A 3824   5.543   4.123   6.625  0.1526  0.0621  0.0412
  278POPC   C4A 3825   6.008   4.324   6.673  0.4549  0.0950 -0.0092
  278POPC   C1B 3826   4.776   4.028   5.859 -0.0690  0.5744  0.1955
  278POPC   C2B 3827   4.337   4.249   5.908  0.1092  0.0479 -0.3743
  278POPC   C3B 3828   4.170   4.625   5.869 -0.1891  0.1558 -0.1173
  278POPC   C4B 3829   3.920   4.825   6.116  0.3457 -0.0828  0.0601
  279POPC   NC3 3830   9.035   2.653   4.556 -0.5476 -0.1220 -0.1686
  279POPC   PO4 3831   9.321   2.847   4.951  0.1060  0.1231 -0.2823
  279POPC   GL1 3832   9.227   2.760   5.345 -0.2870 -0.1344  0.2859
  279POPC   GL2 3833   8.908   2.596   5.370 -0.0129 -0.0748  0.3127
  279POPC   C1A 3834   9.428   2.596   5.644  0.0788 -0.0237  0.3063
  279POPC   D2A 3835   9.625   2.374   5.840  0.1787 -0.1596  0.0954
  279POPC   C3A 3836   9.984   2.277   5.748  0.1412  0.0436  0.2420
  279POPC   C4A 3837  10.397   2.505   5.782 -0.2231 -0.0712  0.2018
  279POPC   C1B 3838   8.734   2.286   5.653  0.1112 -0.2247 -0.1218
  279POPC   C2B 3839   8.421   1.923   5.735  0.3768 -0.1920 -0.0835
  279POPC   C3B 3840   8.371   1.576   5.968  0.1017  0.1542 -0.0477
  279POPC   C4B 3841   8.301   1.230   6.186  0.0323 -0.0950 -0.0111
  280POPC   NC3 3842   2.352   6.093   4.860  0.2807 -0.1056  0.1383
  280POPC   PO4 3843   2.396   6.423   4.688  0.2680  0.0562 -0.1568
  280POPC   GL1 3844   2.439   6.525   5.125 -0.1363 -0.2037  0.0413
  280POPC   GL2 3845   2.705   6.827   5.247  0.1335  0.0978  0.1633
  280POPC   C1A 3846   2.247   6.642   5.547 -0.0704  0.2302  0.0839
  280POPC   D2A 3847   2.372   6.684   6.033  0.3291 -0.0147 -0.0433
  280POPC   C3A 3848   2.189   6.875   6.323  0.2238 -0.1106  0.1701
  280POPC   C4A 3849   1.904   7.205   6.387 -0.1131 -0.0723  0.4582
  280POPC   C1B 3850   2.742   7.034   5.675  0.1883 -0.2576  0.3053
  280POPC   C2B 3851   2.784   7.169   6.061  0.0837 -0.1540 -0.0888
  280POPC   C3B 3852   2.885   7.415   6.400  0.2298  0.1930  0.0623
  280POPC   C4B 3853   2.999   7.422   6.805  0.4705  0.2364  0.0353
  281POPC   NC3 3854   1.356   8.020   3.819 -0.0921 -0.0336  0.1678
  281POPC   PO4 3855   1.380   7.959   4.261 -0.0537 -0.0011 -0.0336
  281POPC   GL1 3856   1.704   8.090   4.611  0.3883  0.0311  0.0683
  281POPC   GL2 3857   1.458   8.136   4.764  0.2395 -0.0261  0.1195
  281POPC   C1A 3858   1.995   8.153   5.057 -0.2604 -0.0202 -0.0038
  281POPC   D2A 3859   1.929   8.023   5.448 -0.2461 -0.2433  0.1678
  281POPC   C3A 3860   1.891   8.190   5.886  0.1830  0.0498  0.0818
  281POPC   C4A 3861   1.969   8.558   6.117  0.3212 -0.1807 -0.2887
  281POPC   C1B 3862   1.190   8.074   5.095 -0.0234  0.2757 -0.3634
  281POPC   C2B 3863   0.981   8.370   5.323 -0.1292 -0.0421 -0.1061
  281POPC   C3B 3864   1.209   8.849   5.479 -0.1455 -0.0216 -0.2458
  281POPC   C4B 3865   1.475   8.802   5.910 -0.0792 -0.0699  0.1218
  282POPC   NC3 3866  10.165   4.359   4.950 -0.4307  0.5707  0.0808
  282POPC   PO4 3867  10.569   4.216   5.175 -0.3207 -0.2938 -0.0452
  282POPC   GL1 3868  10.739   4.219   5.534  0.3715  0.3162 -0.0814
  282POPC   GL2 3869  11.056   4.287   5.465 -0.0384 -0.0833 -0.0763
  282POPC   C1A 3870  10.754   4.446   6.006  0.0043  0.2502  0.0882
  282POPC   D2A 3871  10.815   4.527   6.470  0.1099 -0.0426 -0.1259
  282POPC   C3A 3872  10.459   4.524   6.693  0.1320 -0.1052 -0.2887
  282POPC   C4A 3873  10.205   4.929   6.645  0.0009  0.1379 -0.1283
  282POPC   C1B 3874  11.212   4.270   5.819  0.2426  0.0400 -0.1479
  282POPC   C2B 3875  11.220   4.390   6.257 -0.1020 -0.0273  0.1995
  282POPC   C3B 3876  11.214   4.806   6.504  0.1144  0.4928 -0.2359
  282POPC   C4B 3877  11.091   5.341   6.411  0.2452  0.1145 -0.1765
  283POPC   NC3 3878   5.705   3.699   5.165 -0.0327  0.0337 -0.1107
  283POPC   PO4 3879   5.292   3.422   5.110 -0.2174 -0.2686  0.0266
  283POPC   GL1 3880   5.338   3.361   5.497 -0.1013  0.0232  0.0232
  283POPC   GL2 3881   5.226   3.097   5.567 -0.2150  0.3017 -0.0563
  283POPC   C1A 3882   5.590   3.035   5.819 -0.2640 -0.0993 -0.1558
  283POPC   D2A 3883   5.923   2.749   5.905 -0.2249 -0.2740 -0.2009
  283POPC   C3A 3884   6.056   2.732   6.357 -0.1897  0.1366  0.0290
  283POPC   C4A 3885   6.182   2.771   6.758  0.2613 -0.0525  0.0838
  283POPC   C1B 3886   5.040   2.910   6.052  0.0350 -0.2393 -0.1943
  283POPC   C2B 3887   4.971   2.826   6.453  0.0001 -0.1934  0.1835
  283POPC   C3B 3888   5.168   2.488   6.763  0.0318 -0.0293  0.0116
  283POPC   C4B 3889   5.276   2.479   7.152  0.1697 -0.1921  0.0303
  284POPC   NC3 3890  10.041   7.749   4.607 -0.1714 -0.1805 -0.0975
  284POPC   PO4 3891   9.590   7.800   4.745  0.1506  0.5138  0.0174
  284POPC   GL1 3892   9.416   7.906   5.159  0.1639 -0.1392 -0.2166
  284POPC   GL2 3893   9.348   7.651   5.280 -0.1761  0.0886  0.3537
  284POPC   C1A 3894   9.454   7.999   5.632 -0.3088  0.1159 -0.2133
  284POPC   D2A 3895   9.467   8.061   6.109  0.0099  0.0977  0.0933
  284POPC   C3A 3896   9.794   7.845   6.476 -0.0064 -0.3137  0.2303
  284POPC   C4A 3897  10.053   8.109   6.748  0.0302  0.2446  0.2000
  284POPC   C1B 3898   9.164   7.629   5.676  0.2116  0.0886  0.2160
  284POPC   C2B 3899   8.949   8.046   5.902  0.3240  0.1890  0.1171
  284POPC   C3B 3900   8.793   8.191   6.302  0.2253 -0.0672 -0.0113
  284POPC   C4B 3901   8.711   8.199   6.703  0.1563 -0.2584 -0.0415
  285POPC   NC3 3902   8.817   9.882   4.955  0.2707 -0.3813 -0.2017
  285POPC   PO4 3903   8.625   9.416   5.032  0.0313 -0.0610  0.0174
  285POPC   GL1 3904   8.475   9.565   5.355 -0.1243  0.1176  0.2905
  285POPC   GL2 3905   8.149   9.714   5.350 -0.0879  0.2380 -0.2703
  285POPC   C1A 3906   8.651   9.587   5.759  0.1067  0.1926  0.1328
  285POPC   D2A 3907   8.728   9.597   6.262  0.0461  0.1804  0.2647
  285POPC   C3A 3908   9.056   9.572   6.555 -0.0968 -0.4138  0.1733
  285POPC   C4A 3909   9.082   9.651   7.006 -0.3134  0.0162  0.2416
  285POPC   C1B 3910   8.290   9.922   5.710  0.0771  0.1733  0.0470
  285POPC   C2B 3911   8.216   9.673   6.064 -0.0674  0.0053 -0.0298
  285POPC   C3B 3912   8.269   9.612   6.526  0.2445  0.3483 -0.2019
  285POPC   C4B 3913   8.648   9.325   6.625 -0.1823 -0.0886 -0.2544
  286POPC   NC3 3914   4.548   6.229   5.110 -0.0801  0.1450  0.2491
  286POPC   PO4 3915   4.889   5.932   4.954 -0.1885  0.3521 -0.1948
  286POPC   GL1 3916   4.913   5.981   5.374 -0.3699  0.3913 -0.1367
  286POPC   GL2 3917   4.927   6.239   5.494 -0.3565  0.0423  0.0117
  286POPC   C1A 3918   5.038   5.701   5.814  0.1426  0.0502  0.1127
  286POPC   D2A 3919   5.399   5.567   6.089  0.0485 -0.1217  0.2007
  286POPC   C3A 3920   5.331   5.154   6.312  0.0746  0.1599 -0.3283
  286POPC   C4A 3921   5.081   4.803   6.195 -0.1485 -0.2066  0.2365
  286POPC   C1B 3922   4.681   6.118   5.843  0.1424 -0.2657 -0.3842
  286POPC   C2B 3923   4.590   6.225   6.332 -0.1103  0.3707  0.1042
  286POPC   C3B 3924   4.682   6.285   6.808  0.1380  0.0209 -0.2933
  286POPC   C4B 3925   4.657   6.528   7.073  0.0917 -0.1429 -0.0339
  287POPC   NC3 3926   5.474   6.903   4.928  0.3107  0.1735 -0.1476
  287POPC   PO4 3927   5.834   6.881   4.997 -0.1919 -0.0777  0.3605
  287POPC   GL1 3928   5.914   6.689   5.437  0.0148  0.4451 -0.0381
  287POPC   GL2 3929   5.514   6.657   5.413  0.1345  0.0320  0.0406
  287POPC   C1A 3930   6.101   6.447   5.741  0.1040 -0.3000  0.2079
  287POPC   D2A 3931   6.154   6.403   6.167  0.1068 -0.1460 -0.2375
  287POPC   C3A 3932   6.482   6.387   6.338  0.0725  0.0712  0.1589
  287POPC   C4A 3933   6.815   6.164   6.536  0.0796 -0.0845  0.0848
  287POPC   C1B 3934   5.213   6.580   5.720  0.0749 -0.2091 -0.1340
  287POPC   C2B 3935   4.738   6.611   5.852  0.0248 -0.0639 -0.2705
  287POPC   C3B 3936   4.507   6.830   6.206  0.3039 -0.1871  0.0673
  287POPC   C4B 3937   4.564   7.199   6.404  0.0069  0.0552 -0.0156
  288POPC   NC3 3938   7.118  10.342   4.685  0.3978 -0.5357  0.1197
  288POPC   PO4 3939   7.464  10.626   4.696 -0.0530  0.0331  0.0918
  288POPC   GL1 3940   7.614  10.481   5.069 -0.0710 -0.0562  0.1596
  288POPC   GL2 3941   8.014  10.477   5.044  0.1319  0.0652  0.2484
  288POPC   C1A 3942   7.443  10.271   5.398 -0.1851  0.0602 -0.0281
  288POPC   D2A 3943   7.667   9.812   5.465  0.2107 -0.0388  0.2049
  288POPC   C3A 3944   7.719   9.699   5.892  0.3170  0.2312  0.1751
  288POPC   C4A 3945   7.399   9.676   6.291  0.1682  0.4512  0.1093
  288POPC   C1B 3946   8.011  10.277   5.482 -0.2395  0.0057 -0.1310
  288POPC   C2B 3947   7.858  10.346   5.925 -0.1116  0.0842  0.0352
  288POPC   C3B 3948   7.834   9.978   6.310  0.2034  0.0245 -0.2161
  288POPC   C4B 3949   7.805   9.628   6.659 -0.0269  0.1322 -0.2783
  289POPC   NC3 3950   2.799   0.339   3.514  0.2646 -0.2181 -0.2149
  289POPC   PO4 3951   3.125   0.174   3.665  0.0071 -0.0428  0.0345
  289POPC   GL1 3952   2.977   0.109   4.031 -0.0151  0.2085 -0.2338
  289POPC   GL2 3953   3.044  -0.167   4.086  0.2752 -0.0428 -0.0779
  289POPC   C1A 3954   2.770   0.062   4.431 -0.0807  0.1508 -0.1882
  289POPC   D2A 3955   2.669   0.276   4.831 -0.1966  0.1084 -0.0671
  289POPC   C3A 3956   3.010   0.575   4.784 -0.2876 -0.3932 -0.0444
  289POPC   C4A 3957   3.375   0.690   4.830 -0.0784 -0.2039  0.2416
  289POPC   C1B 3958   3.474  -0.215   4.379 -0.0522 -0.1033 -0.0831
  289POPC   C2B 3959   3.528  -0.556   4.532  0.0494 -0.0771  0.0229
  289POPC   C3B 3960   3.636  -1.042   4.535 -0.0528 -0.0289 -0.2164
  289POPC   C4B 3961   3.796  -1.314   4.312 -0.1493  0.0257  0.0844
  290POPC   NC3 3962   9.984   2.477   4.844 -0.1269  0.0743 -0.0222
  290POPC   PO4 3963  10.064   2.106   5.049  0.0959 -0.0655 -0.3712
  290POPC   GL1 3964  10.239   1.960   5.456  0.2415  0.0092  0.6299
  290POPC   GL2 3965  10.474   1.745   5.353  0.0999 -0.2086  0.2986
  290POPC   C1A 3966  10.319   1.927   5.896 -0.0274 -0.0002  0.0684
  290POPC   D2A 3967  10.489   2.212   6.168 -0.1570 -0.4674 -0.3990
  290POPC   C3A 3968  10.637   2.172   6.588  0.1575  0.0179  0.4026
  290POPC   C4A 3969  10.373   1.912   6.844  0.3106 -0.2281 -0.2004
  290POPC   C1B 3970  10.677   1.517   5.692 -0.1131  0.3960  0.1593
  290POPC   C2B 3971  10.809   1.284   6.049 -0.0169 -0.1477  0.1142
  290POPC   C3B 3972  10.655   1.324   6.431 -0.0544 -0.0325 -0.5167
  290POPC   C4B 3973  10.437   1.372   6.828 -0.4031 -0.2728  0.1082
  291POPC   NC3 3974   0.487   4.267   4.925 -0.0441 -0.2965 -0.0133
  291POPC   PO4 3975   0.861   4.177   4.999  0.1080  0.0407 -0.0361
  291POPC   GL1 3976   1.008   4.108   5.402 -0.0432  0.1692  0.3003
  291POPC   GL2 3977   1.091   4.311   5.508  0.1740  0.0561 -0.0304
  291POPC   C1A 3978   0.974   3.826   5.626 -0.0925 -0.2757  0.0816
  291POPC   D2A 3979   1.058   3.841   6.062  0.1161 -0.1676 -0.0019
  291POPC   C3A 3980   1.475   4.055   6.277  0.0476 -0.0588 -0.0079
  291POPC   C4A 3981   1.708   4.380   6.551  0.1319  0.0766  0.1772
  291POPC   C1B 3982   1.162   4.304   5.986  0.0591 -0.1937  0.1002
  291POPC   C2B 3983   1.188   4.492   6.440 -0.2371  0.1222  0.1630
  291POPC   C3B 3984   1.292   4.359   6.782 -0.0027  0.2404 -0.2728
  291POPC   C4B 3985   1.588   4.482   7.090  0.2066 -0.1097 -0.2411
  292POPC   NC3 3986   9.664   8.744   4.450 -0.1655 -0.3232 -0.2895
  292POPC   PO4 3987   9.233   8.850   4.503  0.0751  0.1299  0.3443
  292POPC   GL1 3988   9.462   8.817   4.956  0.1072  0.0308  0.1134
  292POPC   GL2 3989   9.288   9.048   5.145 -0.3485 -0.2172  0.1451
  292POPC   C1A 3990   9.733   8.905   5.145  0.1518 -0.1143  0.2514
  292POPC   D2A 3991   9.873   8.635   5.523  0.2455  0.1539 -0.0975
  292POPC   C3A 3992   9.502   8.518   5.845 -0.0648  0.0349 -0.1985
  292POPC   C4A 3993   9.510   8.697   6.369 -0.0060 -0.2069  0.0008
  292POPC   C1B 3994   9.417   8.934   5.570 -0.1152 -0.0207 -0.1552
  292POPC   C2B 3995   9.682   8.989   5.843 -0.2698 -0.1450 -0.0674
  292POPC   C3B 3996   9.962   8.740   6.062  0.0948  0.1381  0.0323
  292POPC   C4B 3997  10.355   8.520   5.921  0.3760  0.3984  0.0763
  293POPC   NC3 3998  10.264   0.781   4.025 -0.2195  0.2246 -0.3212
  293POPC   PO4 3999  10.184   0.599   4.367  0.0134  0.2240  0.2634
  293POPC   GL1 4000  10.131   0.682   4.843  0.0585  0.1413  0.0485
  293POPC   GL2 4001  10.313   0.887   4.903  0.1294  0.2884  0.1424
  293POPC   C1A 4002  10.231   0.774   5.388  0.1153  0.3041 -0.1148
  293POPC   D2A 4003   9.942   0.825   5.772 -0.0803 -0.1207 -0.2738
  293POPC   C3A 4004   9.481   0.914   5.876 -0.4282 -0.1617  0.0191
  293POPC   C4A 4005   9.228   0.950   6.186 -0.1365  0.0731  0.1359
  293POPC   C1B 4006  10.612   1.057   5.294 -0.3553 -0.0163  0.0333
  293POPC   C2B 4007  10.582   0.994   5.682  0.0114 -0.2259 -0.0764
  293POPC   C3B 4008  10.525   0.905   6.168  0.0794 -0.3127  0.3020
  293POPC   C4B 4009  10.398   0.482   6.434  0.3138 -0.0906  0.0481
  294POPC   NC3 4010   0.609   1.383   3.639 -0.4386 -0.3566  0.0343
  294POPC   PO4 4011   0.877   1.122   3.958 -0.1190 -0.2940  0.1034
  294POPC   GL1 4012   1.115   0.931   4.352 -0.3595  0.1023  0.1306
  294POPC   GL2 4013   0.837   0.824   4.482 -0.0122 -0.1373 -0.0242
  294POPC   C1A 4014   1.361   0.571   4.480 -0.1644 -0.0083 -0.1323
  294POPC   D2A 4015   1.589   0.334   4.816 -0.0314  0.0845 -0.2390
  294POPC   C3A 4016   1.433  -0.083   4.988 -0.1458 -0.0236  0.0230
  294POPC   C4A 4017   1.169  -0.310   5.223 -0.0228  0.1261 -0.0115
  294POPC   C1B 4018   0.971   0.573   4.878 -0.1743 -0.0319 -0.2582
  294POPC   C2B 4019   1.133   0.262   5.183 -0.0010  0.0004 -0.0135
  294POPC   C3B 4020   1.426   0.187   5.526  0.0001  0.1074  0.0363
  294POPC   C4B 4021   1.887   0.395   5.554 -0.1315  0.1334 -0.1279
  295POPC   NC3 4022   5.784   6.351   4.978  0.3079 -0.0752  0.1790
  295POPC   PO4 4023   6.234   6.194   4.728  0.1777  0.1356 -0.0882
  295POPC   GL1 4024   6.340   6.231   5.104 -0.0335 -0.2429  0.0178
  295POPC   GL2 4025   6.126   6.192   5.287 -0.0114  0.0649 -0.1803
  295POPC   C1A 4026   6.560   6.214   5.445  0.1206  0.0606  0.0023
  295POPC   D2A 4027   6.610   6.489   5.831 -0.2646 -0.1906 -0.2455
  295POPC   C3A 4028   6.446   6.772   5.976  0.2183 -0.1986  0.4871
  295POPC   C4A 4029   6.354   6.893   6.257  0.1467  0.2120  0.0705
  295POPC   C1B 4030   6.147   5.998   5.508 -0.1787  0.0170  0.2675
  295POPC   C2B 4031   6.352   6.019   5.917  0.0382 -0.2337  0.0910
  295POPC   C3B 4032   6.431   5.902   6.324 -0.2134  0.0966  0.1772
  295POPC   C4B 4033   6.165   5.653   6.556  0.0972  0.0068 -0.0870
  296POPC   NC3 4034   7.851   9.913   4.915 -0.0991 -0.1195  0.0121
  296POPC   PO4 4035   8.344   9.943   4.889  0.1730 -0.1855 -0.0005
  296POPC   GL1 4036   8.516  10.129   5.291  0.2788  0.1101  0.2430
  296POPC   GL2 4037   8.489  10.490   5.294  0.2411  0.1642  0.0142
  296POPC   C1A 4038   8.745  10.136   5.669 -0.2259 -0.2030 -0.1319
  296POPC   D2A 4039   8.835  10.138   6.134 -0.0304 -0.0605 -0.0456
  296POPC   C3A 4040   8.637  10.533   6.396 -0.2971  0.1400 -0.1622
  296POPC   C4A 4041   8.425  10.855   6.175 -0.0370 -0.3082  0.1206
  296POPC   C1B 4042   8.418  10.535   5.673 -0.3132 -0.2907 -0.0152
  296POPC   C2B 4043   8.340  10.329   6.050  0.0731  0.2599  0.1229
  296POPC   C3B 4044   8.386  10.088   6.398 -0.0291 -0.0744  0.1238
  296POPC   C4B 4045   8.714   9.897   6.710 -0.0773 -0.1321 -0.1636
  297POPC   NC3 4046   8.377   8.594   4.705 -0.0105  0.0766  0.0691
  297POPC   PO4 4047   8.071   8.301   4.967 -0.2140 -0.0036  0.1921
  297POPC   GL1 4048   8.279   8.204   5.419 -0.0372  0.1347  0.3510
  297POPC   GL2 4049   8.248   7.968   5.563 -0.1357  0.3808 -0.1986
  297POPC   C1A 4050   8.580   8.427   5.705 -0.1803  0.0089 -0.0489
  297POPC   D2A 4051   8.565   8.583   6.048 -0.0598 -0.3449 -0.1990
  297POPC   C3A 4052   8.215   8.481   6.359  0.3482 -0.0677  0.2877
  297POPC   C4A 4053   7.904   8.173   6.381  0.2922  0.2979 -0.0595
  297POPC   C1B 4054   8.425   8.032   5.997 -0.3871 -0.0519 -0.2728
  297POPC   C2B 4055   8.628   7.686   6.351 -0.3203  0.2302  0.4666
  297POPC   C3B 4056   8.823   7.245   6.417 -0.0065 -0.0732 -0.2243
  297POPC   C4B 4057   9.227   7.188   6.342 -0.3612 -0.2254  0.0277
  298POPC   NC3 4058  10.302   7.346   4.191 -0.3093 -0.1736  0.0088
  298POPC   PO4 4059  10.379   6.915   4.206  0.4767  0.0875  0.2409
  298POPC   GL1 4060  10.543   7.105   4.590  0.0122  0.0841  0.2078
  298POPC   GL2 4061  10.654   6.795   4.956  0.2609  0.1133  0.0924
  298POPC   C1A 4062  10.411   7.251   4.991  0.2354  0.0759  0.2262
  298POPC   D2A 4063  10.373   7.379   5.380 -0.1098  0.2220 -0.0322
  298POPC   C3A 4064  10.288   7.771   5.550 -0.3234  0.0359  0.0322
  298POPC   C4A 4065  10.454   8.208   5.516 -0.0538 -0.0517  0.3436
  298POPC   C1B 4066  10.814   7.002   5.337  0.1215  0.1348  0.4349
  298POPC   C2B 4067  10.797   7.254   5.682  0.2273 -0.0620  0.1212
  298POPC   C3B 4068  10.614   7.428   6.104  0.0521 -0.0697  0.2812
  298POPC   C4B 4069  10.501   7.719   6.448 -0.0059  0.2796 -0.0448
  299POPC   NC3 4070   7.435   9.108   4.530 -0.0997  0.2166 -0.0316
  299POPC   PO4 4071   7.180   9.503   4.552  0.0189  0.1631  0.0282
  299POPC   GL1 4072   6.859   9.489   4.834 -0.1202  0.0716  0.1853
  299POPC   GL2 4073   7.014   9.304   5.027  0.1586 -0.0014 -0.2067
  299POPC   C1A 4074   6.659   9.932   4.996 -0.0735  0.0525  0.1146
  299POPC   D2A 4075   6.703  10.366   4.955 -0.0826  0.2183  0.2422
  299POPC   C3A 4076   6.949  10.586   5.298 -0.3572  0.0068  0.0038
  299POPC   C4A 4077   7.278  10.783   5.355 -0.0392 -0.2743  0.0743
  299POPC   C1B 4078   6.861   9.526   5.348 -0.1380 -0.3029 -0.2034
  299POPC   C2B 4079   6.605   9.833   5.490 -0.2173  0.0948 -0.1037
  299POPC   C3B 4080   6.416  10.264   5.411  0.1208 -0.0628 -0.0884
  299POPC   C4B 4081   6.093  10.406   5.739  0.1466 -0.0956  0.1299
  300POPC   NC3 4082   5.960   9.994   4.259  0.0589 -0.2077  0.1962
  300POPC   PO4 4083   5.783  10.242   3.889 -0.3381 -0.2325 -0.0294
  300POPC   GL1 4084   5.502  10.249   4.335 -0.0170 -0.2192  0.0586
  300POPC   GL2 4085   5.490  10.020   4.542 -0.1504 -0.1276  0.1041
  300POPC   C1A 4086   5.208  10.373   4.702  0.2080  0.0724 -0.2001
  300POPC   D2A 4087   5.134  10.463   5.173 -0.0152 -0.2069  0.1483
  300POPC   C3A 4088   5.409  10.376   5.410  0.0391 -0.1188 -0.0940
  300POPC   C4A 4089   5.877  10.278   5.237 -0.2319 -0.0929  0.0698
  300POPC   C1B 4090   5.409  10.042   5.022 -0.2155  0.1893 -0.2994
  300POPC   C2B 4091   5.566   9.913   5.458 -0.2668 -0.1912 -0.0406
  300POPC   C3B 4092   5.731  10.099   5.837 -0.1636 -0.1884 -0.1176
  300POPC   C4B 4093   5.786  10.444   6.165  0.2949 -0.1776  0.0702
  301POPC   NC3 4094   7.167   2.056   4.905 -0.1720 -0.3534 -0.0832
  301POPC   PO4 4095   6.851   1.984   5.181 -0.0310 -0.2878 -0.4498
  301POPC   GL1 4096   6.640   2.139   5.549 -0.0569  0.1509 -0.0704
  301POPC   GL2 4097   6.308   1.970   5.528 -0.0504  0.0363 -0.1491
  301POPC   C1A 4098   6.832   2.147   5.951  0.0822  0.2792 -0.1138
  301POPC   D2A 4099   6.789   1.878   6.318  0.1244  0.0527 -0.1071
  301POPC   C3A 4100   6.600   1.860   6.640  0.0561  0.3284  0.3508
  301POPC   C4A 4101   6.728   1.817   7.062 -0.1026 -0.0619 -0.3468
  301POPC   C1B 4102   6.561   1.710   5.885 -0.0431  0.0055  0.0767
  301POPC   C2B 4103   6.433   1.547   6.217 -0.2749 -0.0490 -0.1099
  301POPC   C3B 4104   6.462   1.223   6.474  0.2770 -0.0896  0.1669
  301POPC   C4B 4105   6.582   1.369   6.842  0.1636 -0.1715 -0.0178
  302POPC   NC3 4106   2.484   3.257   4.574  0.2378  0.0101  0.2445
  302POPC   PO4 4107   2.396   3.192   4.968 -0.0367 -0.3848  0.1153
  302POPC   GL1 4108   2.172   3.420   5.364 -0.2240 -0.1192  0.1374
  302POPC   GL2 4109   2.440   3.579   5.585 -0.3227 -0.1460 -0.2933
  302POPC   C1A 4110   1.746   3.446   5.570 -0.0082 -0.1869 -0.2061
  302POPC   D2A 4111   1.399   3.611   5.675  0.2500  0.2480 -0.1591
  302POPC   C3A 4112   1.297   3.459   6.158  0.1292  0.0439 -0.3106
  302POPC   C4A 4113   0.991   3.360   6.519 -0.1861 -0.3622 -0.0811
  302POPC   C1B 4114   2.230   3.284   5.848  0.0556 -0.3293 -0.3221
  302POPC   C2B 4115   2.225   3.005   6.157  0.0482  0.0187  0.1370
  302POPC   C3B 4116   2.451   2.584   6.276  0.0710  0.0255  0.0264
  302POPC   C4B 4117   2.669   2.487   6.539 -0.0887  0.1290  0.2819
  303POPC   NC3 4118   5.407   4.693   5.004 -0.0266  0.1428  0.3261
  303POPC   PO4 4119   5.036   4.450   4.952  0.1644  0.0938  0.1668
  303POPC   GL1 4120   5.088   4.395   5.333  0.1491 -0.1536  0.0194
  303POPC   GL2 4121   4.919   4.220   5.426 -0.0440  0.0665  0.2368
  303POPC   C1A 4122   5.286   4.418   5.814  0.0643 -0.0758 -0.4838
  303POPC   D2A 4123   5.372   4.368   6.241  0.1006  0.1369  0.3418
  303POPC   C3A 4124   5.476   4.702   6.518 -0.2392  0.0313 -0.1678
  303POPC   C4A 4125   5.676   4.768   6.850  0.0938 -0.1885  0.2027
  303POPC   C1B 4126   4.594   4.394   5.439  0.0373 -0.0560  0.0494
  303POPC   C2B 4127   4.116   4.325   5.467 -0.2767  0.0108  0.1563
  303POPC   C3B 4128   3.869   4.248   5.725  0.0957 -0.1781  0.0435
  303POPC   C4B 4129   3.522   4.395   6.059 -0.1954  0.1188 -0.0031
  304POPC   NC3 4130  10.311  10.408   3.897  0.0016  0.0580 -0.2954
  304POPC   PO4 4131  10.278  10.383   4.321 -0.2548 -0.1304  0.2810
  304POPC   GL1 4132  10.478  10.251   4.665 -0.0564  0.0891 -0.2378
  304POPC   GL2 4133  10.600  10.482   4.719  0.3804  0.0277 -0.2725
  304POPC   C1A 4134  10.795  10.259   5.096 -0.2667  0.2921 -0.1427
  304POPC   D2A 4135  10.778  10.616   5.385  0.1019 -0.1881 -0.1843
  304POPC   C3A 4136  10.370  10.675   5.590  0.0287 -0.0134  0.1684
  304POPC   C4A 4137  10.363  11.052   5.890 -0.0224  0.0493 -0.1469
  304POPC   C1B 4138  11.044  10.749   4.805  0.0330 -0.1337 -0.0146
  304POPC   C2B 4139  11.177  11.014   5.207  0.0191 -0.0011  0.0415
  304POPC   C3B 4140  11.488  11.357   5.358 -0.4454  0.1249  0.1523
  304POPC   C4B 4141  11.597  11.561   5.019  0.0952 -0.0505  0.1113
  305POPC   NC3 4142   7.914   5.676   5.371  0.0742  0.0114 -0.1759
  305POPC   PO4 4143   7.495   5.798   5.294  0.0689  0.0175 -0.0580
  305POPC   GL1 4144   7.526   5.786   5.763 -0.4549  0.0938  0.3268
  305POPC   GL2 4145   7.813   5.800   5.890  0.2173  0.0327 -0.0708
  305POPC   C1A 4146   7.334   5.624   6.145 -0.2470 -0.2036 -0.0777
  305POPC   D2A 4147   7.225   5.139   6.316  0.2230 -0.0620 -0.0894
  305POPC   C3A 4148   7.273   5.008   6.722  0.1000 -0.1286  0.0043
  305POPC   C4A 4149   7.422   5.178   7.075 -0.0967 -0.1226 -0.3319
  305POPC   C1B 4150   7.636   5.933   6.317  0.3331  0.1580 -0.3398
  305POPC   C2B 4151   7.745   6.177   6.703 -0.1198 -0.1761  0.4394
  305POPC   C3B 4152   7.894   6.229   7.007  0.1430  0.0521  0.2561
  305POPC   C4B 4153   8.158   6.576   7.291 -0.0437 -0.4939 -0.0984
  306POPC   NC3 4154   6.441   3.424   4.258 -0.1220 -0.4139 -0.0072
  306POPC   PO4 4155   6.628   3.768   4.595  0.2467  0.0608  0.0568
  306POPC   GL1 4156   6.690   3.860   5.031 -0.2319  0.0156 -0.0569
  306POPC   GL2 4157   6.574   3.972   5.232  0.0513  0.1579  0.0927
  306POPC   C1A 4158   7.100   3.743   5.348 -0.2884  0.1423 -0.0504
  306POPC   D2A 4159   7.440   3.512   5.659 -0.1551  0.0574  0.0395
  306POPC   C3A 4160   7.807   3.561   5.716 -0.0570  0.2533 -0.1435
  306POPC   C4A 4161   8.105   3.421   6.170  0.2058 -0.0099 -0.0232
  306POPC   C1B 4162   6.630   4.045   5.601 -0.2748  0.0361 -0.1075
  306POPC   C2B 4163   6.702   4.058   6.089  0.0169 -0.1093 -0.2506
  306POPC   C3B 4164   6.690   4.196   6.531  0.0326 -0.1781  0.0538
  306POPC   C4B 4165   6.642   4.508   6.810 -0.1523 -0.0554  0.0478
  307POPC   NC3 4166   0.548   2.079   4.283  0.0956 -0.5032 -0.2180
  307POPC   PO4 4167   0.433   1.710   4.524 -0.2231 -0.1627  0.2434
  307POPC   GL1 4168   0.536   1.543   4.886 -0.1476 -0.0370  0.0265
  307POPC   GL2 4169   0.523   1.216   4.759  0.2007 -0.1910  0.0570
  307POPC   C1A 4170   0.531   1.517   5.274 -0.0335  0.1651  0.2007
  307POPC   D2A 4171   0.705   1.693   5.729 -0.3518 -0.1218  0.0735
  307POPC   C3A 4172   0.762   1.570   6.099 -0.0297  0.2513 -0.2440
  307POPC   C4A 4173   0.813   1.357   6.466  0.2977  0.1891  0.2502
  307POPC   C1B 4174   0.566   1.023   5.144 -0.1269  0.1421  0.1752
  307POPC   C2B 4175   0.578   1.116   5.599  0.0965  0.2851 -0.2106
  307POPC   C3B 4176   0.465   0.813   5.927 -0.0776 -0.0663 -0.0655
  307POPC   C4B 4177   0.459   0.876   6.367 -0.2579  0.2120 -0.1274
  308POPC   NC3 4178   0.414   2.779   4.848 -0.2743 -0.1167 -0.1994
  308POPC   PO4 4179   0.154   3.091   5.045 -0.1910 -0.0050 -0.3241
  308POPC   GL1 4180   0.088   2.953   5.402  0.0607  0.0149  0.0288
  308POPC   GL2 4181  -0.205   2.962   5.553  0.1456 -0.2671  0.0365
  308POPC   C1A 4182   0.271   2.855   5.692  0.2559 -0.0205  0.1206
  308POPC   D2A 4183   0.380   2.561   5.971 -0.1857 -0.0389  0.1017
  308POPC   C3A 4184   0.425   2.577   6.451 -0.2247 -0.2466 -0.5500
  308POPC   C4A 4185   0.501   2.540   6.840  0.0989 -0.0447 -0.0478
  308POPC   C1B 4186  -0.192   3.055   5.942 -0.3500 -0.1226  0.2531
  308POPC   C2B 4187  -0.063   2.875   6.187  0.1281 -0.1817 -0.1888
  308POPC   C3B 4188  -0.188   2.695   6.471  0.0420 -0.1671  0.0554
  308POPC   C4B 4189  -0.045   2.517   6.842  0.0179 -0.5169  0.1779
  309POPC   NC3 4190   4.381   4.108   4.523  0.0580 -0.0604  0.1584
  309POPC   PO4 4191   4.314   3.753   4.838 -0.1836 -0.0936 -0.0017
  309POPC   GL1 4192   4.112   3.830   5.292 -0.1814  0.1004 -0.0491
  309POPC   GL2 4193   4.310   3.912   5.550  0.1606 -0.0547  0.0665
  309POPC   C1A 4194   3.934   3.602   5.654  0.1758  0.3051  0.2613
  309POPC   D2A 4195   3.944   3.270   5.823  0.1603  0.1435 -0.0528
  309POPC   C3A 4196   4.046   3.344   6.217  0.2145 -0.0213 -0.1629
  309POPC   C4A 4197   4.372   3.428   6.539  0.1005 -0.4007 -0.1176
  309POPC   C1B 4198   4.297   3.766   5.947 -0.3129 -0.3038  0.0658
  309POPC   C2B 4199   4.676   3.688   6.205  0.2211 -0.2641  0.0230
  309POPC   C3B 4200   4.723   3.782   6.657  0.2108  0.1799 -0.0073
  309POPC   C4B 4201   5.024   3.801   6.921  0.0460 -0.1063  0.1623
  310POPC   NC3 4202   4.856   3.312   5.317  0.2917  0.2930 -0.0578
  310POPC   PO4 4203   4.573   3.593   5.214 -0.2643 -0.0401  0.1888
  310POPC   GL1 4204   4.576   3.527   5.666  0.0341  0.0188 -0.0355
  310POPC   GL2 4205   4.502   3.286   5.737 -0.0169  0.0223 -0.0972
  310POPC   C1A 4206   4.920   3.375   5.961  0.3509  0.1684 -0.1126
  310POPC   D2A 4207   4.925   3.294   6.386 -0.2043 -0.3337  0.0824
  310POPC   C3A 4208   5.314   3.480   6.674 -0.1338  0.0301 -0.0810
  310POPC   C4A 4209   5.585   3.496   7.031  0.1091  0.1287 -0.0527
  310POPC   C1B 4210   4.462   3.125   6.138 -0.1324 -0.1154  0.1512
  310POPC   C2B 4211   4.384   2.864   6.452  0.1328 -0.1752 -0.2057
  310POPC   C3B 4212   4.133   2.554   6.695 -0.0052 -0.0370  0.1113
  310POPC   C4B 4213   3.981   2.326   7.036 -0.0495 -0.1206 -0.0633
  311POPC   NC3 4214   4.773   8.593   3.606  0.1508  0.4839 -0.0271
  311POPC   PO4 4215   4.727   8.793   4.040  0.1169  0.0206 -0.0164
  311POPC   GL1 4216   4.349   8.990   4.083 -0.0214  0.2520  0.1369
  311POPC   GL2 4217   4.086   8.795   4.193 -0.1300  0.2951  0.0172
  311POPC   C1A 4218   4.282   9.290   4.468 -0.0307  0.2597 -0.1835
  311POPC   D2A 4219   4.378   9.355   4.989 -0.1779 -0.3752  0.1670
  311POPC   C3A 4220   4.440   9.781   5.073 -0.0664  0.0928  0.3068
  311POPC   C4A 4221   4.201  10.074   5.348 -0.2589  0.2189 -0.0158
  311POPC   C1B 4222   3.689   8.795   4.552 -0.1962 -0.2543  0.2517
  311POPC   C2B 4223   3.380   9.001   4.736  0.0616 -0.0573 -0.0326
  311POPC   C3B 4224   3.203   9.096   5.049  0.0994  0.1696  0.1001
  311POPC   C4B 4225   2.895   8.967   5.366 -0.1012 -0.0434  0.0587
  312POPC   NC3 4226   9.472   7.004   4.620 -0.1405 -0.2133  0.0461
  312POPC   PO4 4227   9.507   6.692   4.960 -0.1714 -0.1514  0.0674
  312POPC   GL1 4228   9.280   6.556   5.301  0.2388 -0.0613 -0.3985
  312POPC   GL2 4229   9.432   6.734   5.574 -0.0064 -0.0555  0.0036
  312POPC   C1A 4230   9.025   6.411   5.612 -0.0682  0.1781  0.2064
  312POPC   D2A 4231   9.153   6.414   6.019 -0.2209 -0.0330 -0.1342
  312POPC   C3A 4232   9.605   6.353   6.205  0.1050  0.2318  0.1362
  312POPC   C4A 4233   9.899   6.551   6.455  0.1902 -0.1238  0.0596
  312POPC   C1B 4234   9.512   6.332   5.713 -0.1736  0.0528  0.0351
  312POPC   C2B 4235   9.408   5.947   5.941  0.0165 -0.0559 -0.0257
  312POPC   C3B 4236   9.567   5.879   6.422  0.1132  0.1441  0.1324
  312POPC   C4B 4237   9.585   5.636   6.757  0.0773 -0.0483 -0.0101
  313POPC   NC3 4238   5.280   5.608   4.916  0.3526 -0.0625  0.0637
  313POPC   PO4 4239   5.371   6.101   5.116 -0.1378  0.2795  0.0652
  313POPC   GL1 4240   5.422   6.126   5.530  0.3808  0.3778  0.3686
  313POPC   GL2 4241   5.698   6.226   5.599 -0.3483 -0.0804 -0.0729
  313POPC   C1A 4242   5.258   6.103   5.852 -0.3229  0.0890 -0.0044
  313POPC   D2A 4243   5.138   6.301   6.209 -0.1943  0.0038  0.1857
  313POPC   C3A 4244   5.043   6.138   6.526  0.2158  0.1515 -0.1880
  313POPC   C4A 4245   5.127   5.632   6.500 -0.0662 -0.0203  0.1190
  313POPC   C1B 4246   5.644   6.390   6.011  0.0446  0.0430 -0.2078
  313POPC   C2B 4247   5.597   6.451   6.484 -0.3100 -0.3954 -0.0474
  313POPC   C3B 4248   5.221   6.699   6.633  0.0604 -0.1874 -0.1031
  313POPC   C4B 4249   4.857   6.749   6.522  0.2010 -0.2195 -0.1284
  314POPC   NC3 4250   2.609   9.934   3.365 -0.3944 -0.2673  0.0103
  314POPC   PO4 4251   2.237   9.990   3.620 -0.3120  0.1100  0.0104
  314POPC   GL1 4252   2.296   9.839   4.123  0.0379 -0.3059  0.1280
  314POPC   GL2 4253   2.656   9.949   4.030 -0.0151 -0.0937 -0.1060
  314POPC   C1A 4254   2.281  10.148   4.455  0.0092 -0.1731  0.2280
  314POPC   D2A 4255   2.497  10.206   4.797 -0.0138  0.0807 -0.0105
  314POPC   C3A 4256   2.508  10.230   5.254  0.2689  0.0315  0.1394
  314POPC   C4A 4257   2.524  10.477   5.595  0.4776  0.0594 -0.1379
  314POPC   C1B 4258   2.861   9.953   4.477  0.1531  0.3790  0.2973
  314POPC   C2B 4259   3.052  10.158   4.686  0.2877  0.0263 -0.0218
  314POPC   C3B 4260   3.469  10.215   5.013  0.2314  0.1144 -0.1049
  314POPC   C4B 4261   3.758  10.315   5.334 -0.1226 -0.4110 -0.0192
  315POPC   NC3 4262   9.697   0.443   4.608 -0.1129  0.2149  0.2408
  315POPC   PO4 4263   9.499   0.820   4.591  0.3878 -0.1687  0.0347
  315POPC   GL1 4264   9.625   0.706   5.032 -0.1675  0.0311  0.0890
  315POPC   GL2 4265   9.769   0.325   5.084  0.0541  0.3926  0.1689
  315POPC   C1A 4266   9.401   0.540   5.511 -0.0137 -0.1050  0.3272
  315POPC   D2A 4267   9.391   0.337   5.888 -0.2348  0.2700 -0.2203
  315POPC   C3A 4268   9.431   0.479   6.330  0.1240  0.2295 -0.1325
  315POPC   C4A 4269   9.621   0.517   6.717  0.1118 -0.0100 -0.1270
  315POPC   C1B 4270   9.940   0.359   5.541 -0.2308 -0.4440 -0.0479
  315POPC   C2B 4271   9.940   0.311   5.958 -0.0545 -0.1434 -0.0323
  315POPC   C3B 4272   9.906   0.298   6.363  0.1063 -0.0208 -0.0890
  315POPC   C4B 4273   9.958   0.135   6.792  0.0592  0.0995  0.2586
  316POPC   NC3 4274   2.416   2.244   4.105  0.2235 -0.1458  0.1133
  316POPC   PO4 4275   2.326   1.883   4.377 -0.2596  0.3250  0.3518
  316POPC   GL1 4276   2.359   1.935   4.840 -0.0934 -0.3308  0.3640
  316POPC   GL2 4277   2.705   2.012   4.967 -0.1755 -0.2229  0.2194
  316POPC   C1A 4278   2.200   1.885   5.204  0.1416 -0.4192 -0.0614
  316POPC   D2A 4279   1.774   1.892   5.511  0.0084 -0.1054 -0.0958
  316POPC   C3A 4280   1.599   1.982   5.865 -0.1346 -0.3256  0.3433
  316POPC   C4A 4281   1.201   2.139   5.810 -0.1420 -0.3669  0.1364
  316POPC   C1B 4282   2.704   1.738   5.299 -0.1718  0.4010 -0.0872
  316POPC   C2B 4283   2.583   1.661   5.663  0.0786 -0.0038  0.1727
  316POPC   C3B 4284   2.566   1.655   6.129 -0.2333 -0.3091 -0.1656
  316POPC   C4B 4285   2.696   1.500   6.540 -0.1344  0.1723  0.1585
  317POPC   NC3 4286   6.291   2.578   4.705  0.0554  0.6035 -0.0622
  317POPC   PO4 4287   6.118   2.549   5.206 -0.0320  0.1269  0.1228
  317POPC   GL1 4288   6.342   2.679   5.514  0.0888  0.1991  0.0488
  317POPC   GL2 4289   6.456   3.007   5.517  0.2472  0.1023 -0.1720
  317POPC   C1A 4290   6.501   2.790   5.955 -0.3490 -0.2023  0.0858
  317POPC   D2A 4291   6.781   3.018   6.207 -0.1848  0.1649 -0.2985
  317POPC   C3A 4292   7.208   2.929   6.407  0.1854  0.0089  0.1868
  317POPC   C4A 4293   7.568   2.757   6.580  0.0278  0.4152  0.0399
  317POPC   C1B 4294   6.885   3.133   5.712 -0.1546 -0.1445  0.4516
  317POPC   C2B 4295   7.222   3.233   6.010 -0.2063  0.0100 -0.3231
  317POPC   C3B 4296   7.385   3.617   6.130 -0.0469 -0.0258  0.2830
  317POPC   C4B 4297   7.166   3.918   6.276  0.2599  0.0353 -0.4728
  318POPC   NC3 4298   7.540   1.780   4.540  0.2229 -0.2692  0.1015
  318POPC   PO4 4299   7.629   1.999   4.986 -0.1278 -0.0297  0.1321
  318POPC   GL1 4300   7.587   1.962   5.436 -0.3014  0.0703  0.0902
  318POPC   GL2 4301   7.950   2.107   5.569  0.2822  0.0139  0.1834
  318POPC   C1A 4302   7.510   1.773   5.836  0.0827 -0.1239  0.1467
  318POPC   D2A 4303   7.488   1.486   6.168 -0.2171  0.0316 -0.3728
  318POPC   C3A 4304   7.552   1.754   6.532 -0.0308  0.2337  0.0993
  318POPC   C4A 4305   7.795   1.889   7.006  0.1646 -0.0183  0.0800
  318POPC   C1B 4306   7.909   2.146   6.071  0.0089  0.0195 -0.2482
  318POPC   C2B 4307   7.752   2.165   6.505 -0.1529 -0.3433  0.0426
  318POPC   C3B 4308   7.434   2.134   6.778  0.0660 -0.0177 -0.0935
  318POPC   C4B 4309   7.169   2.048   7.176 -0.5156  0.0633  0.2210
  319POPC   NC3 4310   5.411   1.991   4.869  0.1916 -0.0616 -0.1567
  319POPC   PO4 4311   5.612   1.539   4.878 -0.1888 -0.1315  0.1357
  319POPC   GL1 4312   5.664   1.360   5.278 -0.1107  0.0176  0.2037
  319POPC   GL2 4313   6.066   1.307   5.295 -0.0991  0.1346  0.0907
  319POPC   C1A 4314   5.582   1.449   5.744 -0.0974  0.0227  0.3366
  319POPC   D2A 4315   5.396   1.213   6.009  0.1557  0.0919 -0.0735
  319POPC   C3A 4316   5.657   0.885   6.288  0.2623  0.1045  0.3454
  319POPC   C4A 4317   5.891   0.592   6.557  0.2088 -0.4004 -0.1279
  319POPC   C1B 4318   6.134   1.465   5.708 -0.0584 -0.4341  0.0405
  319POPC   C2B 4319   6.061   1.212   6.162 -0.2976 -0.0126  0.0323
  319POPC   C3B 4320   5.935   1.561   6.427  0.1283 -0.1749 -0.3297
  319POPC   C4B 4321   6.120   1.954   6.428  0.1109  0.2631  0.5393
  320POPC   NC3 4322   7.651   5.190   4.544 -0.1512 -0.0820  0.1367
  320POPC   PO4 4323   7.387   5.039   4.824  0.0498 -0.0073 -0.2156
  320POPC   GL1 4324   7.667   5.082   5.155 -0.0708  0.2527  0.0375
  320POPC   GL2 4325   7.584   5.290   5.382 -0.1041 -0.1021 -0.0690
  320POPC   C1A 4326   7.793   4.886   5.561  0.0702  0.3802  0.0274
  320POPC   D2A 4327   7.825   4.578   5.998 -0.1439 -0.0491  0.2934
  320POPC   C3A 4328   8.055   4.640   6.411  0.0676  0.2848 -0.1332
  320POPC   C4A 4329   8.420   4.558   6.676  0.1245 -0.0721 -0.1651
  320POPC   C1B 4330   7.620   5.277   5.776  0.1827  0.0054  0.1350
  320POPC   C2B 4331   7.671   5.031   6.120 -0.0597 -0.3225 -0.3210
  320POPC   C3B 4332   7.777   4.991   6.632  0.2005  0.0833 -0.0442
  320POPC   C4B 4333   7.897   5.276   6.983 -0.2635 -0.4890  0.0617
  321POPC   NC3 4334   3.760   6.930   4.995 -0.0875 -0.0400 -0.0064
  321POPC   PO4 4335   4.099   7.157   5.133 -0.0392  0.2582 -0.4280
  321POPC   GL1 4336   4.017   7.397   5.361  0.2809 -0.0272 -0.2061
  321POPC   GL2 4337   3.743   7.238   5.464  0.1315  0.1514 -0.0513
  321POPC   C1A 4338   4.257   7.494   5.708 -0.0195  0.0757  0.4140
  321POPC   D2A 4339   4.403   7.608   6.193 -0.1264  0.1043  0.3100
  321POPC   C3A 4340   4.181   7.745   6.386 -0.1473 -0.0578  0.0208
  321POPC   C4A 4341   3.786   8.023   6.507  0.2728 -0.0265 -0.0809
  321POPC   C1B 4342   3.730   7.410   5.919 -0.0985  0.2418  0.2217
  321POPC   C2B 4343   3.702   7.547   6.296 -0.0086 -0.0511  0.0186
  321POPC   C3B 4344   3.556   7.570   6.732 -0.1368  0.2174  0.0477
  321POPC   C4B 4345   3.530   7.863   7.000 -0.1229 -0.1554  0.0739
  322POPC   NC3 4346   3.678   5.991   5.267  0.0714 -0.0135 -0.3988
  322POPC   PO4 4347   4.137   6.142   5.282 -0.2745 -0.0538 -0.2582
  322POPC   GL1 4348   4.451   5.866   5.491  0.0666  0.2703 -0.0143
  322POPC   GL2 4349   4.223   5.843   5.675 -0.0279 -0.0567 -0.1239
  322POPC   C1A 4350   4.602   5.427   5.691 -0.0887 -0.2572 -0.1387
  322POPC   D2A 4351   4.846   5.233   5.959  0.4100 -0.2183 -0.3419
  322POPC   C3A 4352   4.797   5.268   6.386  0.1657  0.0286  0.2081
  322POPC   C4A 4353   4.370   5.336   6.571 -0.2878 -0.3403  0.0324
  322POPC   C1B 4354   4.489   5.678   6.106  0.0827  0.3020 -0.3545
  322POPC   C2B 4355   4.648   5.718   6.558 -0.0442  0.1287  0.1291
  322POPC   C3B 4356   4.897   5.822   6.880 -0.0840  0.1583 -0.0160
  322POPC   C4B 4357   4.933   6.119   7.236  0.3662 -0.1239  0.2007
  323POPC   NC3 4358   7.207   5.541   4.978 -0.1727  0.0604  0.1841
  323POPC   PO4 4359   7.175   5.298   5.165  0.0050  0.2779  0.1138
  323POPC   GL1 4360   7.256   4.907   5.417 -0.0991 -0.1467  0.1785
  323POPC   GL2 4361   7.083   4.981   5.517 -0.1598 -0.1697 -0.0795
  323POPC   C1A 4362   7.365   4.651   5.788 -0.1437  0.2627 -0.2660
  323POPC   D2A 4363   7.444   4.631   6.302  0.0721  0.2495 -0.0623
  323POPC   C3A 4364   7.687   4.275   6.420  0.0369  0.0911 -0.2745
  323POPC   C4A 4365   7.922   3.954   6.255  0.0942 -0.0542  0.2472
  323POPC   C1B 4366   7.120   5.338   5.810  0.3534 -0.2218  0.3321
  323POPC   C2B 4367   6.780   5.591   6.037  0.2411 -0.1247  0.0313
  323POPC   C3B 4368   6.898   5.670   6.418 -0.2400 -0.0232 -0.4182
  323POPC   C4B 4369   7.254   5.932   6.623  0.0642  0.0763 -0.1632
  324POPC   NC3 4370   5.058   8.675   4.415  0.0338  0.1810  0.1561
  324POPC   PO4 4371   5.440   8.687   4.586 -0.0638  0.0119 -0.0159
  324POPC   GL1 4372   5.313   8.744   4.981  0.1744 -0.3317  0.2544
  324POPC   GL2 4373   5.653   8.728   5.091  0.2376  0.2243  0.1253
  324POPC   C1A 4374   5.314   9.050   5.273  0.2840  0.2071  0.0515
  324POPC   D2A 4375   5.105   9.017   5.652 -0.4016  0.2307 -0.2697
  324POPC   C3A 4376   5.092   9.089   6.102  0.0656  0.2714  0.1345
  324POPC   C4A 4377   4.925   9.052   6.560 -0.0433  0.3656  0.0118
  324POPC   C1B 4378   5.691   8.965   5.532 -0.1988  0.0402  0.2145
  324POPC   C2B 4379   6.070   9.165   5.765  0.0099  0.1298  0.1807
  324POPC   C3B 4380   6.198   9.148   6.139  0.1954  0.1980 -0.4589
  324POPC   C4B 4381   6.105   9.031   6.572 -0.1245 -0.2708  0.3296
  325POPC   NC3 4382   3.816   7.863   4.506  0.0646 -0.3546  0.0715
  325POPC   PO4 4383   4.245   7.814   4.670 -0.0576 -0.2347 -0.1568
  325POPC   GL1 4384   4.022   7.854   4.999  0.4151 -0.1013 -0.3563
  325POPC   GL2 4385   3.842   8.115   4.941  0.2027 -0.0004  0.0048
  325POPC   C1A 4386   4.104   8.085   5.408 -0.1647  0.0793  0.0282
  325POPC   D2A 4387   4.110   8.435   5.566 -0.0830  0.0271 -0.0303
  325POPC   C3A 4388   4.316   8.560   5.991  0.0206  0.1328  0.0879
  325POPC   C4A 4389   4.131   8.959   6.321  0.0152 -0.2087 -0.1976
  325POPC   C1B 4390   3.938   8.494   5.147  0.0155  0.3040  0.1301
  325POPC   C2B 4391   3.884   8.913   5.330  0.1036 -0.0439  0.2164
  325POPC   C3B 4392   4.055   9.385   5.450 -0.0624 -0.0281  0.1283
  325POPC   C4B 4393   3.833   9.782   5.514 -0.0700 -0.0977 -0.2104
  326POPC   NC3 4394   0.901   8.012   4.442  0.1633 -0.4572  0.0427
  326POPC   PO4 4395   0.924   8.163   4.072  0.0759  0.0536  0.0128
  326POPC   GL1 4396   1.073   8.465   4.273 -0.1182  0.0888 -0.1932
  326POPC   GL2 4397   0.992   8.752   4.239  0.3350 -0.1474 -0.0836
  326POPC   C1A 4398   1.403   8.561   4.487  0.4241 -0.1448 -0.3712
  326POPC   D2A 4399   1.813   8.776   4.470  0.1103  0.2379  0.1439
  326POPC   C3A 4400   1.986   8.960   4.864 -0.2016  0.0152 -0.1211
  326POPC   C4A 4401   2.249   9.243   4.674  0.3997 -0.0375  0.3196
  326POPC   C1B 4402   1.132   8.960   4.587  0.0657 -0.0158 -0.0552
  326POPC   C2B 4403   1.380   8.951   4.915  0.0674  0.0673 -0.2938
  326POPC   C3B 4404   1.621   9.141   5.160  0.0674  0.2867  0.0303
  326POPC   C4B 4405   1.623   9.165   5.591 -0.1381 -0.0708  0.0040
  327POPC   NC3 4406   0.685   0.067   3.985  0.2022  0.3624 -0.0796
  327POPC   PO4 4407   0.370   0.035   4.275 -0.0364 -0.1528  0.2693
  327POPC   GL1 4408   0.696  -0.132   4.530 -0.1434 -0.0925 -0.3920
  327POPC   GL2 4409   0.569  -0.371   4.724 -0.1057  0.0726 -0.1515
  327POPC   C1A 4410   0.903  -0.057   4.913  0.0386  0.1012 -0.0348
  327POPC   D2A 4411   0.738  -0.037   5.356 -0.0296 -0.0058  0.1399
  327POPC   C3A 4412   0.842   0.151   5.624  0.1166  0.0170  0.0035
  327POPC   C4A 4413   0.723   0.058   6.078 -0.1196  0.1427 -0.1186
  327POPC   C1B 4414   0.830  -0.566   5.002  0.4888 -0.1780 -0.1922
  327POPC   C2B 4415   1.110  -0.761   4.927  0.1653 -0.0499  0.0640
  327POPC   C3B 4416   1.463  -0.849   4.685  0.3320  0.1950 -0.1006
  327POPC   C4B 4417   1.730  -1.209   4.666 -0.1300 -0.3651  0.1087
  328POPC   NC3 4418   7.038   7.182   5.240  0.4642  0.2088 -0.1738
  328POPC   PO4 4419   6.893   7.617   5.161 -0.0809 -0.1278  0.0990
  328POPC   GL1 4420   6.629   7.709   5.429 -0.0966 -0.1294  0.1229
  328POPC   GL2 4421   6.566   7.418   5.495  0.0407 -0.0744  0.0662
  328POPC   C1A 4422   6.646   7.791   5.873 -0.3560 -0.1440 -0.1003
  328POPC   D2A 4423   6.589   7.780   6.330 -0.2042 -0.1004  0.0711
  328POPC   C3A 4424   6.142   7.753   6.541 -0.0524 -0.1347  0.0685
  328POPC   C4A 4425   6.025   7.881   6.871 -0.0068 -0.3808 -0.2880
  328POPC   C1B 4426   6.344   7.325   5.875 -0.1568  0.1185 -0.0833
  328POPC   C2B 4427   6.123   7.526   6.119  0.0364  0.3878 -0.1194
  328POPC   C3B 4428   6.212   7.900   6.030 -0.1329  0.1257 -0.1219
  328POPC   C4B 4429   6.233   8.147   5.566 -0.0358  0.0152  0.0754
  329POPC   NC3 4430   5.323   7.980   4.104  0.1793  0.2227  0.0300
  329POPC   PO4 4431   5.131   8.218   4.500 -0.3201 -0.0169 -0.0490
  329POPC   GL1 4432   4.884   8.565   4.857 -0.0687 -0.4217  0.5774
  329POPC   GL2 4433   4.728   8.856   4.830 -0.1464 -0.0691 -0.0877
  329POPC   C1A 4434   4.898   8.673   5.269 -0.3372 -0.1839 -0.0178
  329POPC   D2A 4435   4.663   8.574   5.666  0.1670  0.0524 -0.1835
  329POPC   C3A 4436   4.843   8.544   6.078 -0.0795  0.1270  0.0365
  329POPC   C4A 4437   4.661   8.573   6.430  0.2455 -0.2982 -0.1966
  329POPC   C1B 4438   4.420   8.929   5.222 -0.0695 -0.0964  0.0134
  329POPC   C2B 4439   4.444   8.991   5.657  0.0881 -0.0947 -0.1144
  329POPC   C3B 4440   4.618   9.074   6.151  0.1454 -0.0654 -0.1743
  329POPC   C4B 4441   4.431   9.347   6.481  0.1344  0.1355 -0.0350
  330POPC   NC3 4442   8.292   3.940   5.201  0.0242  0.1831 -0.0242
  330POPC   PO4 4443   8.761   3.967   5.411  0.2260  0.0539 -0.3169
  330POPC   GL1 4444   8.901   4.037   5.689  0.1304 -0.2574  0.1513
  330POPC   GL2 4445   9.001   4.339   5.729 -0.0333 -0.1747  0.0708
  330POPC   C1A 4446   8.844   4.166   6.197  0.0490 -0.0922  0.0151
  330POPC   D2A 4447   8.886   4.198   6.715  0.2250  0.0134  0.3879
  330POPC   C3A 4448   8.564   3.989   6.836 -0.1411 -0.1687 -0.2330
  330POPC   C4A 4449   8.249   3.646   7.039  0.0902 -0.2169 -0.0312
  330POPC   C1B 4450   9.161   4.546   6.002 -0.2474 -0.4039  0.1107
  330POPC   C2B 4451   9.300   4.946   6.261  0.0518 -0.0723 -0.1183
  330POPC   C3B 4452   9.062   5.168   6.622  0.1675 -0.2508  0.1872
  330POPC   C4B 4453   9.110   5.505   6.903 -0.2629  0.4288 -0.0495
  331POPC   NC3 4454   8.120   5.191   4.797 -0.2162  0.0774  0.0023
  331POPC   PO4 4455   8.157   5.240   5.123 -0.0811 -0.4434  0.1500
  331POPC   GL1 4456   8.355   5.285   5.445  0.0266 -0.3349 -0.0460
  331POPC   GL2 4457   8.652   5.170   5.580  0.1048 -0.2132 -0.0863
  331POPC   C1A 4458   8.449   5.506   5.855 -0.2466 -0.1716 -0.0856
  331POPC   D2A 4459   8.200   5.759   6.173 -0.1018  0.1437 -0.5404
  331POPC   C3A 4460   7.956   5.483   6.305  0.1269  0.2237  0.4222
  331POPC   C4A 4461   7.543   5.428   6.584  0.3165  0.2248 -0.1841
  331POPC   C1B 4462   8.786   4.801   5.792 -0.0117  0.1302 -0.1108
  331POPC   C2B 4463   8.739   4.678   6.291 -0.2334 -0.1024  0.0288
  331POPC   C3B 4464   8.809   4.777   6.721 -0.1796  0.0266  0.1560
  331POPC   C4B 4465   8.751   4.531   7.100  0.2804 -0.2587  0.0609
  332POPC   NC3 4466   8.587   7.382   4.801  0.2166 -0.3460 -0.4614
  332POPC   PO4 4467   8.860   7.294   5.118  0.1741 -0.0218  0.1877
  332POPC   GL1 4468   8.812   7.186   5.464 -0.0478 -0.1226  0.1260
  332POPC   GL2 4469   8.878   6.875   5.462  0.2512  0.0594 -0.0771
  332POPC   C1A 4470   8.839   7.336   5.951  0.2461 -0.1340  0.1547
  332POPC   D2A 4471   9.203   7.634   6.175  0.0872 -0.0354  0.1600
  332POPC   C3A 4472   9.564   7.613   5.957 -0.0872 -0.3376  0.2607
  332POPC   C4A 4473   9.820   7.660   5.563 -0.1856  0.0954 -0.0206
  332POPC   C1B 4474   8.892   6.832   5.843  0.2054 -0.0886 -0.4435
  332POPC   C2B 4475   8.986   6.744   6.339 -0.1963  0.0177 -0.4534
  332POPC   C3B 4476   9.137   6.760   6.782  0.3204 -0.1978 -0.0427
  332POPC   C4B 4477   9.310   6.997   7.112 -0.0314 -0.0149  0.0672
  333POPC   NC3 4478   3.048   7.798   4.390 -0.2514  0.1611  0.2465
  333POPC   PO4 4479   3.441   7.594   4.423 -0.1125  0.0610  0.0193
  333POPC   GL1 4480   3.151   7.431   4.815 -0.3144 -0.1393 -0.1912
  333POPC   GL2 4481   3.444   7.309   4.984 -0.0745 -0.0075 -0.0119
  333POPC   C1A 4482   3.071   7.732   5.216 -0.0053  0.0416  0.1939
  333POPC   D2A 4483   2.975   8.051   5.523 -0.1328 -0.1546 -0.2139
  333POPC   C3A 4484   3.290   8.163   5.844  0.0410  0.2346 -0.4537
  333POPC   C4A 4485   3.424   8.413   6.235 -0.2320 -0.1592  0.1052
  333POPC   C1B 4486   3.537   7.690   5.143 -0.3249  0.1002 -0.0727
  333POPC   C2B 4487   3.769   7.765   5.558  0.0429  0.2448  0.0585
  333POPC   C3B 4488   4.004   7.891   5.966 -0.0974  0.2020  0.2681
  333POPC   C4B 4489   3.852   8.264   6.053 -0.1967 -0.2856 -0.3441
  334POPC   NC3 4490   9.236   7.857   4.405 -0.3978  0.2464 -0.0586
  334POPC   PO4 4491   9.418   8.332   4.547  0.1633  0.0287  0.0633
  334POPC   GL1 4492   9.603   8.331   4.966  0.1926  0.1495 -0.0499
  334POPC   GL2 4493   9.819   8.145   4.950 -0.1062  0.0716  0.3361
  334POPC   C1A 4494   9.464   8.466   5.281 -0.2008  0.2283  0.0812
  334POPC   D2A 4495   9.149   8.385   5.524  0.3609  0.0622 -0.4832
  334POPC   C3A 4496   8.780   8.085   5.437  0.3102  0.1556  0.1154
  334POPC   C4A 4497   8.671   7.700   5.618  0.0453 -0.3124  0.2454
  334POPC   C1B 4498   9.968   8.099   5.373 -0.1966  0.1092 -0.0519
  334POPC   C2B 4499   9.884   8.185   5.830  0.1409 -0.0295  0.2133
  334POPC   C3B 4500   9.788   8.324   6.293 -0.2699 -0.0010 -0.1699
  334POPC   C4B 4501   9.962   8.671   6.662  0.1509  0.1023 -0.1955
  335POPC   NC3 4502   2.523   4.890   5.045 -0.0517  0.0726 -0.1956
  335POPC   PO4 4503   2.794   5.033   5.356  0.1292 -0.1392 -0.4096
  335POPC   GL1 4504   2.495   4.957   5.562 -0.0457  0.2379  0.3085
  335POPC   GL2 4505   2.153   5.050   5.531  0.1142  0.4487 -0.1576
  335POPC   C1A 4506   2.376   4.733   5.809  0.2054  0.2288  0.0696
  335POPC   D2A 4507   2.152   4.717   6.232  0.2151 -0.1913  0.1062
  335POPC   C3A 4508   2.437   4.845   6.526 -0.1352  0.4206  0.0765
  335POPC   C4A 4509   2.822   4.934   6.771 -0.1484  0.1644  0.0852
  335POPC   C1B 4510   2.207   5.192   5.924 -0.2104 -0.1507 -0.1885
  335POPC   C2B 4511   2.236   5.262   6.325 -0.2673 -0.0590  0.1763
  335POPC   C3B 4512   2.127   5.344   6.759  0.1030  0.2420  0.1701
  335POPC   C4B 4513   1.956   5.566   7.134  0.4477  0.1241  0.0434
  336POPC   NC3 4514   8.441   9.198   4.165  0.1932 -0.4585  0.1490
  336POPC   PO4 4515   8.340   9.134   4.675 -0.1083 -0.1885  0.1288
  336POPC   GL1 4516   8.368   8.934   5.093 -0.3216  0.0282 -0.0444
  336POPC   GL2 4517   8.386   8.632   5.213 -0.3541  0.1935  0.1505
  336POPC   C1A 4518   8.495   9.063   5.498 -0.1025 -0.0281  0.1167
  336POPC   D2A 4519   8.487   9.185   5.971 -0.2488 -0.0698  0.3605
  336POPC   C3A 4520   8.745   9.040   6.249 -0.2682  0.1950  0.1174
  336POPC   C4A 4521   8.734   8.715   6.544 -0.3104  0.3598  0.2055
  336POPC   C1B 4522   8.826   8.748   5.395  0.2939 -0.0885 -0.2761
  336POPC   C2B 4523   8.961   8.806   5.790 -0.0979  0.3235 -0.1119
  336POPC   C3B 4524   9.042   8.674   6.195  0.2481 -0.2082  0.3241
  336POPC   C4B 4525   9.168   8.343   6.596  0.0423  0.0401  0.1141
  337POPC   NC3 4526   4.495   7.319   4.846 -0.1696 -0.1044 -0.3099
  337POPC   PO4 4527   4.907   7.568   4.981 -0.0100  0.2700  0.0253
  337POPC   GL1 4528   4.884   7.415   5.282 -0.3383 -0.2895  0.2911
  337POPC   GL2 4529   4.677   7.231   5.390 -0.1874  0.0346  0.1355
  337POPC   C1A 4530   4.728   7.714   5.656 -0.2645 -0.1077  0.0214
  337POPC   D2A 4531   4.447   7.962   5.718  0.1005 -0.0532  0.1664
  337POPC   C3A 4532   4.494   8.097   6.076  0.3096 -0.1892 -0.2010
  337POPC   C4A 4533   4.261   8.290   6.417 -0.0115 -0.1420 -0.2178
  337POPC   C1B 4534   4.864   7.055   5.698 -0.1277 -0.1690  0.0707
  337POPC   C2B 4535   5.026   7.002   6.136 -0.1625 -0.1318 -0.0366
  337POPC   C3B 4536   5.095   7.221   6.528  0.1871  0.1820 -0.1982
  337POPC   C4B 4537   5.215   7.750   6.592  0.0795  0.3263 -0.4250
  338W        W 4538   9.018   9.810  10.970  0.0669  0.2254 -0.3655
  339W        W 4539   0.551   8.573  11.662  0.2199  0.1900 -0.0683
  340W        W 4540   1.030   7.841  10.662 -0.2954 -0.0207  0.2335
  341W        W 4541   1.644   0.122   0.801 -0.1861  0.5622  0.1271
  342W        W 4542   4.916   4.399  13.310 -0.1000  0.2740 -0.3137
  343W        W 4543   8.464   4.958   1.404  0.1213  0.0545 -0.0517
  344W        W 4544   1.756   9.846  11.485  0.0166 -0.0927 -0.1012
  345W        W 4545   7.547   0.055  10.245  0.0825  0.0385  0.1767
  346W        W 4546   3.707   0.400   9.776  0.0335 -0.0066  0.1067
  347W        W 4547   4.792   8.050   4.857 -0.0360  0.0536 -0.0792
  348W        W 4548   2.128   3.907   9.873  0.3438  0.5513  0.0011
  349W        W 4549   4.574   7.268   1.092 -0.1208 -0.1059 -0.1966
  350W        W 4550   9.617   3.025   0.152 -0.1878 -0.1087 -0.3610
  351W        W 4551   4.292   9.638   0.752  0.0272  0.1829 -0.0417
  352W        W 4552   1.906   6.154  10.996 -0.0734 -0.4794 -0.0074
  353W        W 4553   3.829   3.835   1.288 -0.2790 -0.0323  0.0726
  354W        W 4554   7.934   4.155  12.776  0.2680 -0.4073 -0.0440
  355W        W 4555   5.375   5.548   0.210 -0.2355 -0.0749  0.0348
  356W        W 4556   8.941   8.408   4.528  0.0098  0.3045  0.0623
  357W        W 4557   1.723   8.323   2.837 -0.2814 -0.2364  0.0741
  358W        W 4558   6.884   5.613   9.895  0.4842 -0.1840 -0.0392
  359W        W 4559   6.076   2.615  11.115 -0.2541  0.2959 -0.0999
  360W        W 4560   9.936   5.094  11.794  0.3994 -0.3270  0.1536
  361W        W 4561   1.740   6.960   2.512 -0.1070  0.0976 -0.2249
  362W        W 4562   6.007   4.266  11.179  0.3136  0.2027  0.3042
  363W        W 4563   2.567   3.550   0.200  0.0396 -0.2114 -0.1322
  364W        W 4564   3.035   0.631   1.011 -0.0390 -0.3037 -0.0992
  365W        W 4565   3.020   1.752  11.707 -0.1458  0.2026  0.2129
  366W        W 4566   9.090   7.753   1.210 -0.3457  0.0943 -0.1104
  367W        W 4567   5.984   3.337   3.468 -0.0826  0.0460 -0.0299
  368W        W 4568   5.202   8.304   9.495 -0.0404  0.3931 -0.1486
  369W        W 4569   4.130   4.153   4.116  0.0570  0.2116  0.1936
  370W        W 4570   5.815   1.257  10.027  0.1729 -0.1620 -0.1069
  371W        W 4571  10.246   5.677   2.212  0.0898 -0.0212 -0.1809
  372W        W 4572   6.030   2.000   9.777  0.1943 -0.3597 -0.1988
  373W        W 4573   1.802   2.527   8.620 -0.0362 -0.4533 -0.1455
  374W        W 4574   2.370   1.175   9.821 -0.1450 -0.0364 -0.2269
  375W        W 4575   9.334   9.573   3.187  0.1666  0.0286  0.1767
  376W        W 4576   8.635   0.014   9.583  0.1636 -0.0260 -0.0380
  377W        W 4577   1.618   8.113   1.730  0.2085 -0.0844 -0.3254
  378W        W 4578   7.585   7.569   3.894  0.1880 -0.2337  0.1560
  379W        W 4579   0.388   1.501   3.182 -0.4892  0.2549 -0.1991
  380W        W 4580   9.154   9.318   1.927 -0.1727  0.2406 -0.1325
  381W        W 4581   3.668  10.196  11.305  0.1153  0.2783  0.1479
  382W        W 4582   3.462   2.097   0.924  0.2395 -0.0826 -0.0878
  383W        W 4583   3.176   1.227  12.439  0.0827 -0.1683  0.2511
  384W        W 4584   1.221   7.815  12.624 -0.0352  0.0745 -0.0437
  385W        W 4585   9.084   8.978   2.701 -0.1583  0.0458  0.3300
  386W        W 4586   1.734   8.995  10.986 -0.0054  0.0521  0.1355
  387W        W 4587   8.827   6.088  11.064  0.1788 -0.0412  0.0481
  388W        W 4588  10.292   0.626   0.447  0.1285  0.1989 -0.1192
  389W        W 4589   2.875   7.227  12.689 -0.0327 -0.0121  0.0883
  390W        W 4590   4.320   3.455   0.652  0.1816  0.1290  0.0780
  391W        W 4591  10.219   8.194   2.985 -0.0051 -0.0109 -0.3391
  392W        W 4592   7.348   8.041  11.800  0.3174 -0.1000  0.0517
  393W        W 4593   3.717   7.964   3.210  0.2452 -0.0166 -0.3997
  394W        W 4594   8.262   2.510   0.405  0.0943 -0.0168 -0.2977
  395W        W 4595   9.046   8.849  10.084 -0.0030 -0.0527  0.0091
  396W        W 4596   9.250   3.958   4.672  0.2799  0.0051  0.0454
  397W        W 4597   4.433   5.130  12.281 -0.0371  0.1733 -0.0059
  398W        W 4598   7.244   8.422  10.338  0.1051  0.0534  0.2852
  399W        W 4599   8.759  10.333  11.109 -0.1355  0.2202  0.2369
  400W        W 4600   2.619   3.309  11.534  0.2036 -0.0975 -0.1080
  401W        W 4601   7.693   1.262   1.691 -0.2588 -0.1668  0.4586
  402W        W 4602   0.235   4.311   9.803 -0.2218  0.2479  0.1152
  403W        W 4603   1.476   3.619   4.685 -0.1754 -0.2911 -0.2113
  404W        W 4604   3.769   3.239   3.147 -0.0861 -0.0362 -0.0409
  405W        W 4605  10.241   8.139  10.063 -0.0232  0.0181 -0.3114
  406W        W 4606   0.415   9.578   0.508 -0.1371 -0.4774  0.0339
  407W        W 4607   4.050   1.973  10.834 -0.2410 -0.0341  0.0586
  408W        W 4608   7.449   0.553  12.502  0.0622  0.1363  0.1092
  409W        W 4609   0.282   5.286  11.425  0.0807  0.0737  0.0989
  410W        W 4610   6.033   1.763  13.223  0.0795  0.2887 -0.2068
  411W        W 4611   1.880   9.874  12.919 -0.0727 -0.0680  0.0021
  412W        W 4612   4.437   3.693  10.189  0.0061 -0.0380 -0.1198
  413W        W 4613   3.164   2.533  10.724 -0.2237 -0.4287 -0.1692
  414W        W 4614   1.342   4.454  10.339  0.3396  0.3080 -0.1426
  415W        W 4615   8.748   4.559  11.770  0.1260 -0.2478  0.0962
  416W        W 4616   4.623   6.237  11.565 -0.0235  0.2935  0.0644
  417W        W 4617   0.758   8.230   1.308 -0.0819 -0.2118  0.0359
  418W        W 4618   2.230   5.115   0.044  0.1284  0.0361  0.0760
  419W        W 4619   5.215   1.694  10.678 -0.0118  0.1439 -0.0453
  420W        W 4620   2.806   5.138   9.843  0.0446  0.1198  0.2136
  421W        W 4621   6.648   4.249  13.110  0.0204  0.0436 -0.2564
  422W        W 4622   4.767   9.178   4.383 -0.1956 -0.0806 -0.0986
  423W        W 4623   4.275   8.689   1.266 -0.0875 -0.0156 -0.4174
  424W        W 4624   8.801   4.950   3.090  0.4390  0.2994  0.2096
  425W        W 4625   0.728   2.492   2.395 -0.0412  0.2721 -0.0942
  426W        W 4626   4.305   7.546   0.724 -0.2232  0.0824 -0.0353
  427W        W 4627   6.152   7.589  10.809 -0.0681  0.0582  0.0160
  428W        W 4628   8.421   2.499   0.880  0.3256 -0.0936 -0.0629
  429W        W 4629   8.198   0.960   3.118  0.1137 -0.1510  0.2003
  430W        W 4630   3.306   8.956  12.111 -0.0821  0.0236 -0.1797
  431W        W 4631   4.160   8.728   0.795  0.0430 -0.1490  0.0053
  432W        W 4632   1.271   3.108   4.453  0.1279 -0.0083  0.2073
  433W        W 4633   4.359   4.021   3.460  0.1811  0.0881  0.0664
  434W        W 4634   6.890   7.032   0.509  0.1983  0.0136  0.1643
  435W        W 4635  10.450   6.221  12.390 -0.0461  0.1024  0.0831
  436W        W 4636   6.668   0.286   8.997  0.0892 -0.0667 -0.2172
  437W        W 4637   2.534   4.420   3.025  0.0897  0.0737  0.1084
  438W        W 4638   6.597   9.567   9.535 -0.0177  0.1965  0.2938
  439W        W 4639   8.193   0.133  13.133 -0.2880 -0.3042  0.0474
  440W        W 4640   4.529   0.086   1.157 -0.0776 -0.0066 -0.3033
  441W        W 4641   0.607   8.043  11.332 -0.0167  0.0872 -0.2071
  442W        W 4642   9.781   6.076  11.177  0.1798 -0.3577 -0.2487
  443W        W 4643   2.074   1.182  12.508 -0.1856  0.0578  0.0555
  444W        W 4644   0.753   7.570   1.597  0.1212 -0.1491  0.2187
  445W        W 4645   1.910   6.095   3.280  0.0443  0.2133  0.1274
  446W        W 4646   3.178   2.723   3.654  0.6066  0.0116 -0.2560
  447W        W 4647   8.686   9.526   0.887  0.2370  0.3992  0.3103
  448W        W 4648   7.664   9.174  10.627  0.1957 -0.0608 -0.4226
  449W        W 4649   1.337   5.416   3.272  0.1387 -0.1996  0.0017
  450W        W 4650   0.574   1.840   2.183  0.0626  0.1620 -0.1858
  451W        W 4651   0.524   5.021  10.892  0.2305 -0.2023 -0.0084
  452W        W 4652   7.714   1.787   9.706  0.0838  0.0883  0.0663
  453W        W 4653   1.189   6.872  12.020  0.0191  0.1181 -0.2370
  454W        W 4654   6.510   2.690   9.724 -0.1213 -0.1894 -0.0399
  455W        W 4655   4.507   9.194  10.759  0.0363  0.4190 -0.0486
  456W        W 4656   1.430   9.290  10.721 -0.3271 -0.0329  0.1727
  457W        W 4657   4.966   7.932  11.332  0.0837  0.1767 -0.3639
  458W        W 4658   5.703   0.397   0.392 -0.1441 -0.1856  0.2349
  459W        W 4659  10.111   0.476  11.108  0.0160 -0.0794 -0.1683
  460W        W 4660   9.837   8.725   3.920  0.4242  0.3232 -0.0312
  461W        W 4661   8.306   4.744  11.909 -0.1348  0.1749 -0.1811
  462W        W 4662   5.101   4.413   2.466  0.0860  0.1242 -0.1586
  463W        W 4663   8.889   7.850   9.966  0.0079  0.1408 -0.2024
  464W        W 4664  10.060   9.347  11.545 -0.0210  0.3978  0.0110
  465W        W 4665  10.378   6.273   9.510  0.0425  0.2033 -0.0225
  466W        W 4666   6.773   7.949  12.432 -0.0005  0.0788  0.1382
  467W        W 4667   5.442   7.117   0.433 -0.2144 -0.1491 -0.1874
  468W        W 4668  10.254  10.444   2.459  0.2660 -0.1102  0.0590
  469W        W 4669   0.145   5.869   9.414 -0.0898  0.3143  0.1839
  470W        W 4670   8.263   0.337  10.734  0.1435  0.0718 -0.1178
  471W        W 4671   7.197   8.733   9.347  0.0563  0.1020  0.1248
  472W        W 4672   7.400   1.617   9.986  0.1725 -0.4187  0.2075
  473W        W 4673   9.247   5.404  12.699  0.0679  0.1060  0.2570
  474W        W 4674   7.451   0.971  12.884  0.2323  0.1452  0.4333
  475W        W 4675   2.871   6.481   3.880  0.1456 -0.0648  0.0976
  476W        W 4676   6.710   5.383   0.101  0.2403  0.0073 -0.1239
  477W        W 4677   7.982   2.255   9.858 -0.2052 -0.1490 -0.0020
  478W        W 4678   7.588   6.724   4.352  0.1629  0.1745 -0.3904
  479W        W 4679   0.812   6.668   4.113 -0.3129  0.1685 -0.2462
  480W        W 4680   4.395   3.462   3.702 -0.0112  0.0582  0.2192
  481W        W 4681   6.010   0.074   9.704  0.3122  0.2377  0.1479
  482W        W 4682   9.384   8.708   9.726 -0.1350  0.0648 -0.3611
  483W        W 4683   3.562   2.029   9.750 -0.0132 -0.0315  0.3698
  484W        W 4684   4.289   5.653   9.580  0.1383 -0.0306 -0.2059
  485W        W 4685   7.519   7.265  11.618 -0.0929 -0.1670 -0.0123
  486W        W 4686   3.291   9.191   2.641  0.0641 -0.2699 -0.1359
  487W        W 4687   9.277   0.915   0.200 -0.2682 -0.1138  0.2296
  488W        W 4688   7.775   1.802  10.943  0.2163  0.3152  0.0061
  489W        W 4689   2.044   1.801   1.308  0.1769  0.2703 -0.2097
  490W        W 4690   2.456   7.227  10.866 -0.1253 -0.0431 -0.0777
  491W        W 4691   5.601   7.976   0.055  0.1848 -0.0212 -0.1746
  492W        W 4692   8.477  10.057   4.343 -0.1767  0.0864 -0.2955
  493W        W 4693   5.915   3.478   1.800  0.1862 -0.2500  0.2032
  494W        W 4694   7.420   8.708  11.292  0.0368  0.0200 -0.1620
  495W        W 4695   8.923   6.924  10.998  0.0933 -0.1131 -0.1937
  496W        W 4696   7.610   2.637   1.418  0.0120  0.1503  0.0579
  497W        W 4697   4.941   4.758   0.277 -0.0443 -0.0403  0.4761
  498W        W 4698   4.386   7.859   9.726  0.2239  0.1906 -0.0135
  499W        W 4699   9.099   8.868   0.329  0.0417 -0.2720 -0.0389
  500W        W 4700   9.943   5.810   1.189  0.1169 -0.2370  0.0724
  501W        W 4701   0.355   0.732   4.148  0.4486 -0.1902  0.1872
  502W        W 4702   6.144   1.345  11.486 -0.1756  0.2021  0.0182
  503W        W 4703   7.857   2.658  12.746 -0.2085 -0.3427 -0.1326
  504W        W 4704   6.424  10.094   3.600 -0.1296  0.0544  0.0137
  505W        W 4705   5.935   7.889  12.765 -0.0656  0.0469 -0.1526
  506W        W 4706   1.333   3.337   1.038 -0.0190 -0.0251 -0.2017
  507W        W 4707   1.526   9.814   0.427  0.0105  0.0465  0.1154
  508W        W 4708   1.218   0.344   4.080  0.1728  0.2220  0.1382
  509W        W 4709   7.923  10.020   1.259  0.3176 -0.3741  0.1978
  510W        W 4710   8.544   7.729   5.169  0.2561  0.1628  0.1689
  511W        W 4711   9.438   9.038   4.094 -0.2844 -0.0759  0.0121
  512W        W 4712   5.875   6.204  10.473  0.3431  0.2846  0.2279
  513W        W 4713   4.319   3.891   1.108  0.1473  0.4336 -0.2956
  514W        W 4714   8.709   2.780   2.315 -0.3430 -0.1146  0.0949
  515W        W 4715   7.586   4.340  11.333  0.1078 -0.2758 -0.0662
  516W        W 4716   3.269   3.802   9.349  0.0428  0.0297  0.1340
  517W        W 4717   5.930   4.639   5.309 -0.1183 -0.0047 -0.3093
  518W        W 4718   4.921   5.306  10.352 -0.0047 -0.3598 -0.2009
  519W        W 4719   0.980   9.189   3.074 -0.1991 -0.5876 -0.2586
  520W        W 4720   5.711   6.285   0.553  0.0427  0.0086 -0.0404
  521W        W 4721   4.945   7.493  11.471  0.0437  0.1978 -0.0293
  522W        W 4722   5.063   4.126  11.192  0.0037  0.1836 -0.1742
  523W        W 4723   5.100   6.981   0.726  0.0708 -0.2329 -0.2958
  524W        W 4724   8.520   4.390   9.111  0.1231  0.0691 -0.1077
  525W        W 4725  10.488   3.094   1.344 -0.2571 -0.1105 -0.3344
  526W        W 4726   1.127   7.356   8.954  0.2351  0.2694  0.2507
  527W        W 4727   9.165   2.923   0.514 -0.0683  0.0982 -0.1754
  528W        W 4728   5.162   6.808   1.340  0.0780 -0.0714  0.0469
  529W        W 4729   1.333   5.468  10.621  0.1698 -0.3001 -0.1836
  530W        W 4730   1.775   9.770  13.376  0.1666 -0.3698  0.3904
  531W        W 4731  10.410   8.124   2.537 -0.0232 -0.1502  0.0928
  532W        W 4732   0.833   8.968  12.539  0.2412  0.6577  0.1015
  533W        W 4733   5.734   9.370   2.884 -0.3720  0.0639 -0.2932
  534W        W 4734   5.264   7.663   0.449  0.4219  0.1518  0.3019
  535W        W 4735   5.381   6.274   3.814  0.0267 -0.0860  0.0434
  536W        W 4736   7.494   1.936   9.136  0.2784  0.1575 -0.1715
  537W        W 4737   9.462   1.566   0.806  0.2057 -0.0031  0.2781
  538W        W 4738   9.418   8.129  10.520 -0.1861  0.0586 -0.0679
  539W        W 4739   0.506   5.963  12.994 -0.2895  0.3818  0.1089
  540W        W 4740   4.722   8.367   2.123 -0.0589 -0.1897 -0.3685
  541W        W 4741   3.618   8.162   0.587  0.1798  0.0445  0.0657
  542W        W 4742   9.165   1.552  11.375  0.2550 -0.1296 -0.0130
  543W        W 4743  10.448   2.340   1.789  0.0828  0.1756 -0.1219
  544W        W 4744   5.720   1.042  12.892 -0.0407 -0.2299  0.0999
  545W        W 4745   6.702   2.216  12.694  0.0287  0.0780 -0.1287
  546W        W 4746   6.883   3.558   1.445  0.0414  0.1885  0.0084
  547W        W 4747   2.887   9.837  12.428  0.1192 -0.1085 -0.2846
  548W        W 4748   8.917   5.029  11.969 -0.1949  0.2294 -0.1243
  549W        W 4749   8.506   3.296  11.102  0.0111 -0.2332  0.0217
  550W        W 4750   9.839   1.460   0.487 -0.0627  0.4565  0.2289
  551W        W 4751   1.612   8.356   2.178  0.1802  0.1826 -0.2725
  552W        W 4752   2.453   0.176   0.988 -0.0259  0.2563  0.3492
  553W        W 4753   6.477  10.003  10.912 -0.0269 -0.1072  0.2385
  554W        W 4754   2.275   8.460  11.405 -0.0014 -0.0532 -0.1606
  555W        W 4755   8.777   4.013   8.921  0.1878  0.2169  0.2130
  556W        W 4756   9.069   2.460   1.342  0.0552  0.1632  0.2780
  557W        W 4757   1.958   1.451  12.956  0.0067 -0.1635  0.1814
  558W        W 4758  10.421   6.805   2.756 -0.3378 -0.1522 -0.1561
  559W        W 4759   1.281  10.181   3.308 -0.1067  0.0097 -0.0329
  560W        W 4760   7.194   2.532   0.711 -0.0120 -0.3868  0.0447
  561W        W 4761   8.490   9.974   0.385  0.0416 -0.0266 -0.0228
  562W        W 4762   9.736   7.844   1.481 -0.0637 -0.2823  0.4318
  563W        W 4763   1.260   6.453   3.217 -0.2027 -0.2304 -0.0650
  564W        W 4764   5.884   0.472  10.428  0.1147 -0.1230 -0.1630
  565W        W 4765   8.035   0.944  10.460  0.2686  0.0169 -0.1330
  566W        W 4766   3.092   7.671  12.642 -0.0468 -0.2562  0.1850
  567W        W 4767   1.704   6.032   4.397 -0.0696 -0.3652 -0.0562
  568W        W 4768   5.608   8.419  10.860  0.1227 -0.1918  0.3968
  569W        W 4769   2.830   0.206   0.223  0.0679  0.2470  0.2372
  570W        W 4770   1.664   8.335   4.085 -0.3364 -0.0656 -0.3548
  571W        W 4771   0.214   9.785  11.204  0.0916 -0.2968 -0.0403
  572W        W 4772   6.169   3.885   4.372  0.1799 -0.1530  0.1441
  573W        W 4773   4.541   4.893  13.366  0.0737  0.0531 -0.1431
  574W        W 4774   8.784   1.180  11.556  0.3318 -0.2906  0.1112
  575W        W 4775   0.917   2.517   3.111 -0.0166  0.0356 -0.1983
  576W        W 4776   4.545   2.981   0.855  0.2395 -0.3737  0.1762
  577W        W 4777   7.141   0.552  11.615 -0.0704  0.0196 -0.0119
  578W        W 4778   0.294  10.012  12.277 -0.1940  0.1967  0.1134
  579W        W 4779   3.986   9.105   0.439  0.0488 -0.1197 -0.1128
  580W        W 4780   2.924   7.636   2.654  0.4317 -0.0629  0.0450
  581W        W 4781   5.251   4.533   2.052 -0.1550  0.0288 -0.0569
  582W        W 4782   9.752   9.638   3.491 -0.0942  0.1927 -0.3050
  583W        W 4783   7.245   5.376  13.347  0.6002 -0.0818  0.2610
  584W        W 4784   3.598   5.010   2.904 -0.0031 -0.0904 -0.1305
  585W        W 4785   1.577   9.623   3.431 -0.0883  0.0066  0.0303
  586W        W 4786   5.893   2.924   0.742 -0.3536 -0.0193  0.0333
  587W        W 4787   0.957   8.265   3.035 -0.2715 -0.1866  0.2510
  588W        W 4788   1.458   7.606   3.336 -0.1995  0.0393 -0.0201
  589W        W 4789   7.786   2.809   2.383  0.0101 -0.2419 -0.1366
  590W        W 4790   1.901   8.757   2.229 -0.1510  0.1875 -0.4506
  591W        W 4791   3.479  10.051   0.643 -0.2677 -0.1077 -0.0746
  592W        W 4792   0.669   6.930   0.256  0.1363  0.2005  0.3223
  593W        W 4793   3.722   0.344   3.157  0.0060 -0.0447 -0.1712
  594W        W 4794   8.576   4.690  12.356  0.1150 -0.0429  0.0221
  595W        W 4795   5.211   8.495   8.977  0.2707  0.0138 -0.3288
  596W        W 4796   8.261   1.866   3.867  0.5757 -0.0458 -0.0391
  597W        W 4797   5.813   4.076   0.742  0.1654  0.0347  0.0045
  598W        W 4798   6.055   9.608  12.570  0.0757 -0.2589  0.0212
  599W        W 4799   8.934   9.664   0.479  0.3597  0.1307 -0.1913
  600W        W 4800   3.128   4.806   2.843  0.2297 -0.3264  0.0482
  601W        W 4801   1.651   5.966   0.128  0.0683  0.1030  0.1097
  602W        W 4802   1.542   1.253  11.696  0.0546  0.2617 -0.0139
  603W        W 4803   8.585   8.016  11.078  0.0043  0.1488  0.1365
  604W        W 4804   7.392   2.727  12.925 -0.1811 -0.0724 -0.1731
  605W        W 4805   7.496   5.543   0.766  0.1748 -0.1033  0.0648
  606W        W 4806   8.875   4.133   4.348  0.3802  0.3474  0.0493
  607W        W 4807   7.534   4.624   4.457 -0.0135  0.3641  0.0865
  608W        W 4808   2.107   2.946  12.868 -0.0074 -0.3085 -0.1138
  609W        W 4809   9.160   3.655   4.247  0.2063  0.1937  0.3518
  610W        W 4810   2.751   4.076   3.310  0.1224  0.1046 -0.3880
  611W        W 4811   3.595   8.855   2.814 -0.0524 -0.0790 -0.0572
  612W        W 4812   8.954  10.174  11.936  0.2083  0.2933 -0.3224
  613W        W 4813   3.296   4.079   3.351 -0.3159 -0.1504  0.0934
  614W        W 4814   7.747   3.245  12.204  0.0826 -0.3301 -0.1862
  615W        W 4815   1.136   4.672   2.113  0.0839 -0.0630  0.2738
  616W        W 4816   4.572   5.113   1.979 -0.1843 -0.0631 -0.0048
  617W        W 4817   8.097   3.076   9.265  0.2038  0.1926  0.1309
  618W        W 4818   7.441   6.506   2.404  0.2735 -0.0131 -0.0957
  619W        W 4819   2.363   2.101   9.082  0.4723 -0.0642  0.2235
  620W        W 4820   8.977   6.435   9.640  0.1954 -0.1503  0.0246
  621W        W 4821   8.032   9.495   1.045 -0.0526  0.3121 -0.0872
  622W        W 4822   1.017   5.554   0.998  0.2096 -0.0942  0.3584
  623W        W 4823   8.456   9.579  11.327 -0.0650 -0.0541 -0.1144
  624W        W 4824  10.177   4.004   0.842 -0.2409  0.0510  0.0264
  625W        W 4825   3.335   2.117   3.840  0.0719  0.2398 -0.2184
  626W        W 4826   1.769   9.059   0.019 -0.0427 -0.0341 -0.0699
  627W        W 4827   3.960   5.509   4.183 -0.0021  0.2258  0.2633
  628W        W 4828   7.348   9.694  13.079 -0.1229 -0.0846  0.1864
  629W        W 4829   2.725   6.419  11.347  0.2683  0.0996  0.0428
  630W        W 4830   3.672   9.076   1.730 -0.0844  0.3306 -0.0716
  631W        W 4831   0.197   3.264   9.814 -0.1953  0.0953 -0.0354
  632W        W 4832   3.779   6.228   3.016  0.1386  0.2275  0.3494
  633W        W 4833   9.948   0.810  12.497  0.0875  0.3140 -0.0891
  634W        W 4834   4.495   3.204  11.481 -0.3676 -0.2961  0.0654
  635W        W 4835   5.105   9.898  13.357  0.1777 -0.4209 -0.1123
  636W        W 4836   2.942   0.697  11.567  0.0478 -0.1201 -0.1856
  637W        W 4837   1.211   4.841  12.853  0.3041 -0.1993  0.0636
  638W        W 4838   1.369   6.648  10.279 -0.1596  0.0380  0.3407
  639W        W 4839   3.258   1.093  11.898  0.0736  0.3108  0.2672
  640W        W 4840   5.785   5.408  12.375 -0.0820  0.4800 -0.1717
  641W        W 4841   1.849   7.096   0.309  0.4612 -0.2364 -0.0811
  642W        W 4842   8.603   0.747   9.140 -0.2284 -0.1987  0.0308
  643W        W 4843   0.135   2.814  13.375 -0.2512  0.0768 -0.0115
  644W        W 4844   7.563   5.277  11.955  0.3791 -0.0115 -0.1238
  645W        W 4845   3.318   7.710   2.188 -0.0125  0.3279  0.0456
  646W        W 4846   1.422   4.095   8.474  0.0140 -0.0222  0.1500
  647W        W 4847   5.778   0.219   2.590  0.3102  0.2012 -0.0591
  648W        W 4848   5.748   9.924   1.173  0.0369  0.1363 -0.0012
  649W        W 4849   8.619   9.924  12.215  0.1115  0.2056 -0.3060
  650W        W 4850   9.868   9.556   2.546 -0.1890 -0.3771  0.1150
  651W        W 4851  10.130   6.068   2.514  0.1076  0.0509 -0.0371
  652W        W 4852   0.430   0.922   1.270  0.0220  0.1594  0.1233
  653W        W 4853   4.733   0.921  12.946 -0.0868  0.2735 -0.2708
  654W        W 4854   5.646  10.231  12.048  0.3631 -0.2473 -0.0781
  655W        W 4855   5.754   1.520  10.508 -0.1327 -0.1800 -0.1520
  656W        W 4856   6.278   5.897  11.124 -0.1575 -0.0146  0.0685
  657W        W 4857   8.869   7.445   4.410  0.0756  0.0946  0.2412
  658W        W 4858   5.840   3.134   3.955  0.0152  0.1095  0.1079
  659W        W 4859   8.249   0.038   2.828  0.2803 -0.4501  0.2194
  660W        W 4860   8.697   3.733  12.380  0.1725 -0.0419  0.1579
  661W        W 4861   9.458   8.720   1.607 -0.0911  0.2625 -0.3209
  662W        W 4862   3.883   3.395  12.147  0.2258 -0.3668  0.1092
  663W        W 4863   5.930   7.156   0.157 -0.0170 -0.0848  0.2926
  664W        W 4864   1.615   2.095   3.293 -0.2414  0.0483  0.3048
  665W        W 4865   3.710   6.004  12.427  0.0656  0.4712  0.1119
  666W        W 4866   2.818   9.199   2.908  0.2049  0.0549 -0.4148
  667W        W 4867   8.181   6.821   2.761  0.0005 -0.1096  0.0070
  668W        W 4868   4.599   7.584  12.895  0.3679  0.2144 -0.0617
  669W        W 4869   3.451   7.083  11.547  0.2256 -0.0073 -0.0779
  670W        W 4870   6.811   8.547  13.062 -0.0847  0.1043  0.2590
  671W        W 4871   2.087   8.304   1.985 -0.1740 -0.3008 -0.1298
  672W        W 4872   3.694   4.980   9.577  0.1273  0.1665  0.0657
  673W        W 4873   6.488  10.405  11.161 -0.2875  0.1964  0.3216
  674W        W 4874   0.800   5.724   4.183 -0.1430 -0.0498 -0.0921
  675W        W 4875   2.055   2.271  12.894 -0.3534 -0.5205  0.1541
  676W        W 4876   4.657   1.963  11.464  0.0352 -0.3438 -0.1656
  677W        W 4877   6.904   9.475  13.222  0.1188  0.1139  0.0407
  678W        W 4878   2.132   1.068  11.113  0.2571 -0.2168 -0.2685
  679W        W 4879   9.003   6.569  11.746 -0.1180  0.1224  0.2880
  680W        W 4880   6.297   7.106  13.160  0.0220 -0.2154  0.0470
  681W        W 4881   9.470  10.119  11.097 -0.0851  0.0386 -0.0513
  682W        W 4882   0.394   5.825  11.584 -0.1529  0.0280 -0.1843
  683W        W 4883   3.142   5.457  11.238  0.1254 -0.1281 -0.2304
  684W        W 4884   1.105   5.765   1.966 -0.1787  0.3707  0.1025
  685W        W 4885   9.944   4.824   0.508 -0.2352 -0.1480  0.1282
  686W        W 4886   9.532   2.808   2.658  0.0161 -0.0616  0.0253
  687W        W 4887   9.156  10.068   9.101 -0.0385  0.1444 -0.0758
  688W        W 4888   8.717   7.300  10.711  0.1309 -0.0689  0.2363
  689W        W 4889   9.574   0.249  10.845  0.0142 -0.0374 -0.0528
  690W        W 4890  10.432   4.961   3.567  0.2743  0.0734  0.0388
  691W        W 4891   3.399   5.924  11.260  0.0571 -0.1086  0.3974
  692W        W 4892   4.077   1.166  10.011 -0.1993 -0.2203  0.0538
  693W        W 4893   1.370   7.746  12.025  0.3193 -0.0383  0.1693
  694W        W 4894   8.580   0.923   1.036 -0.0939  0.2092 -0.1184
  695W        W 4895   4.745   9.696  10.776  0.0544 -0.0241  0.5288
  696W        W 4896   7.435   2.223  10.959  0.3823 -0.1836  0.1846
  697W        W 4897  10.259   4.509   9.793  0.1846 -0.0371  0.1682
  698W        W 4898   9.733   6.453   1.260 -0.1474 -0.0922 -0.1314
  699W        W 4899   6.691   4.458  11.034  0.2766  0.3785 -0.0175
  700W        W 4900   2.270   5.894  10.177  0.0554  0.0084  0.0433
  701W        W 4901   5.729   9.999  11.547  0.3619 -0.0647  0.0461
  702W        W 4902   2.651   9.744   0.976 -0.1507  0.1954 -0.1443
  703W        W 4903   5.151   4.475   9.249  0.2268 -0.1906 -0.1027
  704W        W 4904   0.187   2.315   3.954 -0.2894 -0.1367 -0.3429
  705W        W 4905   7.482   9.386   4.111  0.1362  0.0670 -0.3134
  706W        W 4906   6.616   5.411   3.862  0.1347  0.0605  0.3461
  707W        W 4907   8.464  10.145  11.757 -0.0371  0.0556  0.1442
  708W        W 4908   7.593   4.660   9.567 -0.2648  0.0070 -0.0928
  709W        W 4909   8.911   5.214   0.947 -0.3834 -0.3631 -0.1106
  710W        W 4910   8.083   8.779   1.879  0.0916  0.1196 -0.0980
  711W        W 4911   2.350   2.746   8.142  0.2454 -0.0960  0.0413
  712W        W 4912   1.768   8.426   3.635  0.1623 -0.1995  0.3777
  713W        W 4913   6.144   1.789  10.217  0.2756 -0.0030 -0.1639
  714W        W 4914   3.914   7.286   8.594  0.2841  0.0271  0.1947
  715W        W 4915   4.038   6.335   0.383 -0.1080 -0.0428 -0.3714
  716W        W 4916   1.738   8.530   0.157  0.0477  0.2937  0.1302
  717W        W 4917   9.473   2.021   9.230  0.0052 -0.0101 -0.0139
  718W        W 4918   5.862   6.853   2.698 -0.1450 -0.0877  0.1954
  719W        W 4919   8.664   9.553   9.920 -0.0487 -0.0186 -0.1471
  720W        W 4920   4.975   2.461  10.858  0.4344  0.5166  0.0401
  721W        W 4921   0.343   6.605  10.943 -0.0505 -0.0560 -0.1059
  722W        W 4922   3.876   0.745  10.220 -0.0399 -0.0775 -0.0708
  723W        W 4923   5.862   2.172  11.024 -0.1853  0.0769  0.3901
  724W        W 4924   5.424   1.397   1.274  0.1130 -0.1337 -0.0353
  725W        W 4925   7.451   2.172  13.258  0.1857 -0.2224  0.0078
  726W        W 4926   1.760   2.597   0.649 -0.0834 -0.0573  0.1736
  727W        W 4927   9.960   9.036  12.618  0.0092 -0.0252  0.0443
  728W        W 4928   1.584   8.094   9.820  0.0356  0.0356  0.2024
  729W        W 4929   0.205   4.934   9.124 -0.0944  0.0790 -0.1149
  730W        W 4930   0.868   4.589  10.514 -0.1763 -0.0795  0.2637
  731W        W 4931   0.640   1.562  11.907  0.0222  0.3859 -0.0824
  732W        W 4932   4.949   5.469   4.170 -0.2450  0.0409 -0.1961
  733W        W 4933   8.155   7.375  10.087 -0.2309 -0.3037 -0.0278
  734W        W 4934   3.226   7.378   9.777  0.0314  0.1790  0.0943
  735W        W 4935   8.459   0.003   0.687  0.0364  0.2097 -0.2745
  736W        W 4936   4.636   3.763   9.109 -0.2714  0.1800  0.1295
  737W        W 4937   3.848   7.195   0.303  0.0425  0.1474  0.1360
  738W        W 4938   1.904   3.284  10.924  0.1654  0.1749 -0.0543
  739W        W 4939   6.981   2.962   9.698 -0.0935 -0.0849 -0.1724
  740W        W 4940   8.869   6.732   3.088 -0.1485 -0.1556 -0.3168
  741W        W 4941   8.379  10.032   9.902 -0.0760  0.4046 -0.1195
  742W        W 4942   6.141   6.679   0.086  0.1263  0.0868  0.0820
  743W        W 4943   4.213   6.457   3.171 -0.1841  0.0406 -0.1343
  744W        W 4944   8.865   6.853   0.943  0.0907  0.1355  0.2472
  745W        W 4945   2.044   4.033   4.050  0.1117  0.3197  0.0604
  746W        W 4946   6.312   3.098   0.450 -0.1376 -0.0082 -0.0567
  747W        W 4947   4.495   6.606   2.814  0.0339  0.3088  0.1330
  748W        W 4948  10.347   6.643  10.839  0.3122 -0.1276 -0.0305
  749W        W 4949   7.871   0.432  12.936 -0.1503  0.0706  0.3228
  750W        W 4950   8.380   8.386  11.413 -0.3361 -0.0383  0.0983
  751W        W 4951   5.941   0.675   8.943 -0.1643 -0.3184  0.2535
  752W        W 4952   2.862   3.121  11.159  0.0116  0.1514 -0.1315
  753W        W 4953   5.543   3.815  12.831 -0.1861 -0.2109 -0.0073
  754W        W 4954   8.175   4.088   3.003 -0.2400 -0.0951  0.1230
  755W        W 4955   8.604   9.575  11.877  0.4405 -0.1105  0.0899
  756W        W 4956   0.661   6.688   9.521 -0.1132 -0.1293 -0.0393
  757W        W 4957   1.543   5.733  11.417  0.0038 -0.0173 -0.0562
  758W        W 4958   0.404   8.587  11.023  0.2148  0.1006 -0.0900
  759W        W 4959   1.352   3.787   0.237 -0.1454 -0.0200  0.1286
  760W        W 4960   9.514   8.372   4.083  0.3062  0.0665  0.0439
  761W        W 4961   7.598   0.651   3.735  0.0796 -0.1418  0.1809
  762W        W 4962   9.508   7.907   0.376  0.2735  0.2448  0.2379
  763W        W 4963   3.362   7.219   1.077 -0.0697 -0.1398  0.2564
  764W        W 4964   8.950   6.604   2.116 -0.4508  0.1430  0.1739
  765W        W 4965   2.027   5.388  12.208  0.0873 -0.0021  0.1287
  766W        W 4966   6.070   3.719  10.651  0.0320  0.0333 -0.2622
  767W        W 4967   0.700   1.011  12.048  0.1283  0.1645 -0.1164
  768W        W 4968  10.357   4.398   3.550 -0.3753 -0.1777 -0.0038
  769W        W 4969   9.047   4.077  11.230  0.0321  0.0122 -0.0604
  770W        W 4970   0.538   6.014   2.341  0.1163 -0.1205  0.2205
  771W        W 4971   2.316   9.241  12.618 -0.1400 -0.1236  0.1660
  772W        W 4972   5.152   3.798   4.109 -0.0671  0.0957  0.0551
  773W        W 4973   8.374   0.399   9.464 -0.0115 -0.1250 -0.1667
  774W        W 4974   4.851   7.686   3.999  0.3418  0.1181 -0.0681
  775W        W 4975   0.289   4.097  13.178  0.1149 -0.1751  0.0845
  776W        W 4976   1.589   6.268  10.619  0.0949 -0.1129 -0.2201
  777W        W 4977   9.249   3.232  10.225  0.1985  0.0474 -0.1813
  778W        W 4978   1.076   1.954   0.292 -0.1510 -0.2364 -0.0629
  779W        W 4979   2.574   8.141   1.611 -0.0982  0.1184  0.2066
  780W        W 4980   9.675   8.966   8.387  0.0666 -0.1051 -0.0977
  781W        W 4981   4.596   3.644  11.331  0.1300  0.0075 -0.0218
  782W        W 4982   5.115   1.953   2.800  0.1794  0.2824 -0.0316
  783W        W 4983  10.452   2.830   2.716 -0.2289 -0.1634 -0.2090
  784W        W 4984   9.264   0.692  12.360  0.0590 -0.3355  0.0367
  785W        W 4985   0.661   0.597   0.304 -0.2471 -0.0795 -0.0258
  786W        W 4986  10.019   1.786  10.720  0.0892 -0.0821 -0.1941
  787W        W 4987   6.594   1.204   9.580  0.0431 -0.2513 -0.3883
  788W        W 4988   2.232   5.075  10.778  0.1538  0.5526 -0.0077
  789W        W 4989   2.036   1.396  10.694 -0.2289  0.0716 -0.1576
  790W        W 4990   9.135   0.168   2.370 -0.1754 -0.3252 -0.2187
  791W        W 4991   9.139   3.161  11.702  0.0697  0.2904 -0.1028
  792W        W 4992   0.836   2.706  10.291  0.5659  0.1285  0.1102
  793W        W 4993   2.359   4.082   4.515  0.1115 -0.1202 -0.1678
  794W        W 4994   5.479   5.243  12.759 -0.1744  0.2457  0.2397
  795W        W 4995   4.181   2.938  12.374  0.2834  0.0673  0.0743
  796W        W 4996  10.399   9.751  11.781  0.0973 -0.2157 -0.1392
  797W        W 4997   9.964   9.405  10.934  0.2670  0.2614  0.3216
  798W        W 4998   8.205   1.412  11.765 -0.2037 -0.0164 -0.0103
  799W        W 4999   8.257  10.472   8.589 -0.1893 -0.1588  0.3385
  800W        W 5000   3.586   3.894   4.931 -0.2162 -0.1342  0.2177
  801W        W 5001   7.005   6.986  10.927 -0.2383  0.0734  0.4130
  802W        W 5002   7.511   3.694   0.393  0.0011  0.3063 -0.1644
  803W        W 5003  10.306   6.878   9.163  0.0956 -0.0396 -0.2778
  804W        W 5004   3.966   1.579   9.044 -0.0554  0.0774  0.0528
  805W        W 5005   8.222   7.258  11.164  0.2251  0.1182  0.0678
  806W        W 5006   8.431   0.928  11.823 -0.1465  0.0044  0.1242
  807W        W 5007   5.582   5.495  10.978  0.2636 -0.0462 -0.1880
  808W        W 5008   7.204  10.034   1.418  0.2709 -0.2513 -0.1759
  809W        W 5009  10.239   4.723  10.452  0.0368 -0.3248 -0.0414
  810W        W 5010   0.755   3.970   9.697 -0.2844  0.1122  0.1326
  811W        W 5011   7.870  10.004  12.411  0.0340 -0.1687  0.0319
  812W        W 5012   1.703   3.585   2.754 -0.0558 -0.1364 -0.2815
  813W        W 5013   0.076   3.217   0.336 -0.1826  0.1729 -0.2859
  814W        W 5014   5.802   5.579  13.320 -0.2066  0.1186  0.3900
  815W        W 5015   8.800   6.076  11.571  0.1163 -0.1196 -0.1223
  816W        W 5016   1.342   9.044  13.112 -0.0303 -0.3815  0.0847
  817W        W 5017   1.758   4.346   4.327  0.2049  0.3525  0.1597
  818W        W 5018  10.084   2.352  10.817 -0.1654 -0.0085  0.0385
  819W        W 5019   2.360   7.891   2.013  0.0585 -0.1256 -0.1447
  820W        W 5020   8.141   9.027   1.289 -0.1531 -0.1104  0.1898
  821W        W 5021   7.346   6.440   3.933 -0.0914  0.1201 -0.1520
  822W        W 5022   1.829   7.821   3.722 -0.0745  0.1968  0.1297
  823W        W 5023   6.300   0.362  12.484  0.1695  0.0777  0.0423
  824W        W 5024   1.671   5.331   1.428  0.1376  0.2290  0.0506
  825W        W 5025   1.114   3.893   3.851  0.2606 -0.2252 -0.2920
  826W        W 5026   6.056   3.795   1.240 -0.3621  0.0575 -0.1558
  827W        W 5027   9.994   2.586   2.651  0.3463 -0.3391  0.2041
  828W        W 5028   5.474   2.581   9.408  0.0363 -0.5392  0.1486
  829W        W 5029   5.753   6.992  12.086  0.1590  0.2780  0.2115
  830W        W 5030   7.975   1.848   1.673 -0.0730  0.1493 -0.1939
  831W        W 5031   4.593   0.316   3.601  0.3006 -0.1866  0.1712
  832W        W 5032   1.294   2.033  12.892  0.1191  0.1994  0.2533
  833W        W 5033   5.247   3.296   4.122 -0.0294  0.1400 -0.3849
  834W        W 5034   3.537   8.853  13.020  0.1173 -0.1219 -0.3686
  835W        W 5035   6.408   4.063  10.836  0.1321  0.2483 -0.0807
  836W        W 5036   7.187   9.304  10.769 -0.0626 -0.1196  0.1657
  837W        W 5037   1.992   3.482   3.900 -0.2825 -0.0860 -0.0875
  838W        W 5038   3.466   6.307  10.905 -0.5526 -0.1849 -0.2304
  839W        W 5039   0.326   3.225   4.613 -0.4648 -0.1722  0.2490
  840W        W 5040   5.632   5.114   3.158  0.2673 -0.1669  0.0790
  841W        W 5041   1.060   3.741  11.546 -0.2714 -0.0246 -0.2191
  842W        W 5042   8.592   4.227  10.859 -0.0527 -0.0889  0.1267
  843W        W 5043   5.638   1.735  11.860  0.3825  0.3696 -0.0576
  844W        W 5044   7.947   6.530   8.772 -0.0935 -0.0583  0.4198
  845W        W 5045   6.420   2.076   1.515  0.0854 -0.1858  0.0355
  846W        W 5046   4.522   2.754   1.271  0.1870 -0.2723  0.3055
  847W        W 5047   7.809   4.755   4.830 -0.0083  0.4820  0.1865
  848W        W 5048   9.238   8.645  11.873  0.0205  0.1713 -0.0745
  849W        W 5049   7.404   7.168   3.047  0.1061 -0.1921  0.0262
  850W        W 5050   1.077   0.581   3.554  0.2562  0.0390 -0.1500
  851W        W 5051   3.328   4.554   0.151  0.0733  0.0288 -0.1873
  852W        W 5052   0.251   0.013  11.546 -0.0088 -0.2188  0.2547
  853W        W 5053   7.824   3.575   1.743 -0.1938  0.1222 -0.2938
  854W        W 5054   0.855   7.951  13.332  0.0869 -0.0001 -0.1415
  855W        W 5055   8.471   4.526   2.857 -0.2133  0.1708 -0.1664
  856W        W 5056   1.559   0.585  11.806  0.0197  0.2130  0.2358
  857W        W 5057   5.081   4.142  10.154 -0.0630  0.2254 -0.0889
  858W        W 5058   6.866   8.066   9.584 -0.3082 -0.1417 -0.0591
  859W        W 5059   2.860   2.853   9.361 -0.1436  0.0510  0.0122
  860W        W 5060   1.540   0.359   1.482  0.0153 -0.0099  0.1014
  861W        W 5061   9.733   6.157  10.274 -0.1502 -0.1167 -0.3236
  862W        W 5062   3.367   5.164   9.967  0.2480  0.0380  0.0311
  863W        W 5063   4.808   6.721  12.750 -0.0151 -0.0173 -0.0152
  864W        W 5064   0.349   6.246  12.001 -0.2076 -0.0406  0.2307
  865W        W 5065   2.489   1.511   1.235 -0.0624 -0.2738  0.0884
  866W        W 5066   8.454   2.290   9.670  0.0042 -0.0214  0.2066
  867W        W 5067   4.739   9.246   2.326 -0.0735  0.0989 -0.0637
  868W        W 5068   0.800   3.385   4.352  0.1007 -0.2181 -0.0381
  869W        W 5069   9.976   9.953  11.982 -0.0434 -0.0248 -0.1975
  870W        W 5070   0.863   4.609   3.534 -0.2827  0.1921  0.2218
  871W        W 5071   0.609   3.777   5.199  0.2948  0.1572  0.1735
  872W        W 5072   0.594   5.630   9.159  0.1675 -0.2242 -0.2888
  873W        W 5073   5.069   9.978   2.799  0.0153 -0.4845 -0.0929
  874W        W 5074  10.157   3.671  11.506 -0.0880 -0.2642 -0.2171
  875W        W 5075   7.777   5.004   9.830  0.0606 -0.1315 -0.0287
  876W        W 5076   2.385   4.212   3.642 -0.2439 -0.0704 -0.1183
  877W        W 5077   5.910   7.190   0.687  0.1381  0.0803 -0.0977
  878W        W 5078   5.431   9.476  13.357 -0.1022  0.1105  0.1013
  879W        W 5079   8.014   2.359   1.276 -0.3544  0.0248 -0.1129
  880W        W 5080   0.268   2.164   0.489 -0.0926  0.2240  0.0724
  881W        W 5081   7.922   8.929   4.805 -0.0203  0.0232 -0.0957
  882W        W 5082   8.108   6.335   0.587 -0.0671 -0.2573  0.3700
  883W        W 5083   7.308   3.897   2.323 -0.3030 -0.0922 -0.1009
  884W        W 5084   2.552  10.361  10.628  0.0232 -0.2403  0.0712
  885W        W 5085   9.305   7.620  12.622 -0.1277  0.0675  0.2139
  886W        W 5086   4.290   8.327  11.815  0.2246  0.3000  0.4639
  887W        W 5087   6.540   4.202   2.664 -0.0759  0.0602 -0.2911
  888W        W 5088   7.953   6.567   2.439  0.1450  0.0195 -0.1780
  889W        W 5089   9.088   9.506  10.574  0.1859  0.3130  0.1479
  890W        W 5090   8.307   6.346   1.904  0.0848 -0.0494 -0.3666
  891W        W 5091   3.752   1.547   9.805  0.2157 -0.3225 -0.0783
  892W        W 5092   2.364   8.796   2.354  0.1239 -0.3108 -0.4444
  893W        W 5093   8.376   9.034  10.784 -0.2833  0.0782 -0.2641
  894W        W 5094   9.167   1.238   9.214  0.0643 -0.1499 -0.3980
  895W        W 5095   9.340   7.870   9.435 -0.2666  0.0282  0.2571
  896W        W 5096  10.197   5.289   3.248 -0.5707 -0.0352 -0.0940
  897W        W 5097   8.385   9.586   0.050 -0.0188  0.0610 -0.2617
  898W        W 5098   4.351   3.426   4.470 -0.0230 -0.2637  0.0973
  899W        W 5099  10.371   1.157  11.660 -0.0382 -0.0337 -0.0375
  900W        W 5100   5.313   7.605   8.791  0.1787 -0.1601  0.1818
  901W        W 5101   5.115   9.044   9.228  0.2856 -0.3826  0.1044
  902W        W 5102   3.063   2.497   4.219 -0.0190  0.0720 -0.2191
  903W        W 5103   5.747   9.538   3.331 -0.0343  0.0739 -0.1183
  904W        W 5104  10.364   1.751   1.243  0.1987 -0.0927  0.1018
  905W        W 5105   5.432   2.657   4.624  0.0623 -0.3815 -0.0718
  906W        W 5106   9.849   2.919   4.601 -0.2016 -0.0958  0.1669
  907W        W 5107   5.309   5.493   9.923  0.1732 -0.3725 -0.0822
  908W        W 5108   4.761   7.160   1.630 -0.1047 -0.1374  0.1501
  909W        W 5109   9.923   4.321   2.443  0.0392  0.2133 -0.0968
  910W        W 5110   4.468   0.381  13.229 -0.0065  0.2107 -0.0410
  911W        W 5111   7.574   4.190   9.291 -0.1280  0.1502  0.0060
  912W        W 5112   8.056   3.155  12.589 -0.1673  0.1278 -0.0588
  913W        W 5113   4.591   0.315   1.674 -0.1585 -0.4206 -0.1870
  914W        W 5114   5.568   4.991   0.723 -0.0748  0.3082 -0.0741
  915W        W 5115   4.601   2.454   8.994 -0.1157  0.1019 -0.1619
  916W        W 5116   4.082   1.691  10.133  0.0301 -0.0165 -0.0556
  917W        W 5117   2.124   7.229   2.844 -0.0822 -0.1644  0.0396
  918W        W 5118   0.101   3.886  10.536 -0.1892  0.1134 -0.2612
  919W        W 5119   1.773   9.395  10.117  0.1992  0.0402 -0.0931
  920W        W 5120   4.803   3.418  11.811 -0.0548  0.1727 -0.0214
  921W        W 5121   4.293   6.803  11.161  0.2240 -0.2402  0.5722
  922W        W 5122   1.751   3.939   0.530  0.0119 -0.1838  0.0266
  923W        W 5123   6.190   6.506   2.606  0.0185 -0.1679  0.0620
  924W        W 5124   3.653   9.492  10.695  0.0213  0.0699 -0.0261
  925W        W 5125   7.727   7.559   1.364 -0.0106  0.1853  0.0764
  926W        W 5126   1.698   9.687   1.911  0.0062 -0.3324  0.1763
  927W        W 5127   3.762   6.524   0.022 -0.0996  0.2466  0.1831
  928W        W 5128   9.599   4.544  11.851 -0.2287 -0.1655  0.0302
  929W        W 5129   7.355   4.758   3.973 -0.4100  0.3892 -0.3727
  930W        W 5130   6.777   5.635   3.049  0.2083 -0.1964  0.3291
  931W        W 5131   7.247   7.516   1.389  0.1673  0.3054 -0.0241
  932W        W 5132   2.535   3.798  10.870  0.1440  0.1470 -0.3219
  933W        W 5133   1.749   7.004   3.059  0.1086  0.1453  0.0257
  934W        W 5134   4.188   6.763   1.850  0.0951  0.2491  0.1599
  935W        W 5135   6.760   6.454  12.178 -0.0704 -0.0142 -0.3062
  936W        W 5136   0.970   8.400  12.033  0.2937  0.0103 -0.0105
  937W        W 5137  10.126   0.192   4.680  0.4882 -0.1385 -0.0797
  938W        W 5138   6.647   9.210   2.743 -0.0509 -0.3380  0.4013
  939W        W 5139   8.082   8.777  13.323 -0.3667  0.1668  0.0120
  940W        W 5140   7.067   4.196  12.233  0.0213 -0.0636 -0.0579
  941W        W 5141   6.342  10.039   1.967  0.0634  0.3773  0.1847
  942W        W 5142   0.934   6.584   9.986  0.0877 -0.0987 -0.3342
  943W        W 5143   9.674   7.370   2.652  0.3108 -0.1787 -0.0060
  944W        W 5144   3.319   1.032   3.920 -0.0364  0.4059  0.0346
  945W        W 5145   6.967   2.687  11.024  0.0535 -0.0926 -0.0465
  946W        W 5146   7.616   2.188   8.718 -0.2257  0.1683  0.1531
  947W        W 5147   9.526   0.180  12.684 -0.1068 -0.0770 -0.2193
  948W        W 5148   0.576   3.886  11.251 -0.3644 -0.1224 -0.3014
  949W        W 5149   0.854   8.823   1.332 -0.0602  0.0142 -0.1124
  950W        W 5150   9.765   8.075   4.342 -0.0899  0.4135  0.0329
  951W        W 5151   2.359   5.275   1.407  0.0865 -0.0787 -0.1573
  952W        W 5152   4.370   4.469   9.975  0.0400 -0.1829  0.2186
  953W        W 5153   8.578   1.448  12.539 -0.0499  0.2119  0.1802
  954W        W 5154   4.489   7.361   8.702  0.1598  0.0096  0.0113
  955W        W 5155   7.249   6.963   9.542 -0.1023 -0.0249 -0.0911
  956W        W 5156   2.863   6.437   0.502  0.3854  0.0660  0.1454
  957W        W 5157   8.552   5.256   2.203  0.3506 -0.1134  0.2059
  958W        W 5158   9.559   0.445   1.482 -0.0612  0.1616  0.0878
  959W        W 5159   7.582   3.760   4.031  0.0501 -0.0721  0.0430
  960W        W 5160   0.810   1.505  10.485  0.2183  0.0401 -0.1147
  961W        W 5161   3.349   6.352   0.645 -0.1278  0.2377 -0.0360
  962W        W 5162   5.258   8.311   1.441 -0.3292  0.2351 -0.1015
  963W        W 5163   4.627   1.682   0.658  0.0757  0.4903 -0.1152
  964W        W 5164   0.507   3.195  11.487  0.0670  0.1533  0.0866
  965W        W 5165   2.694   5.526   9.064  0.0508 -0.0582  0.0750
  966W        W 5166   8.556   6.162   0.843  0.0865  0.2450 -0.0631
  967W        W 5167   4.354   6.922   3.206  0.1104 -0.1700 -0.2747
  968W        W 5168   3.958   8.249   0.112  0.3683  0.2182 -0.1510
  969W        W 5169   1.319   3.437   9.940  0.0839 -0.3522 -0.1878
  970W        W 5170   3.018   3.691   4.048 -0.2195  0.0904 -0.3296
  971W        W 5171   5.758   2.200   1.133  0.1209 -0.1313  0.3170
  972W        W 5172   7.965   6.947  13.039 -0.0764 -0.1530  0.1999
  973W        W 5173   1.290   3.781   0.713 -0.0531 -0.1217  0.0152
  974W        W 5174   6.785   3.668  11.255 -0.1271  0.2510  0.0941
  975W        W 5175   7.532   0.840   9.905 -0.1757 -0.0545 -0.1542
  976W        W 5176   8.300   7.620  10.815  0.1071 -0.1969  0.0490
  977W        W 5177   6.485   0.381   0.606  0.1366  0.0034 -0.0142
  978W        W 5178   7.895   1.248   2.159 -0.0093  0.1162  0.0062
  979W        W 5179   9.793   5.845   0.583 -0.0424 -0.1197  0.2672
  980W        W 5180   8.420   5.356   0.683  0.1781 -0.0983  0.1030
  981W        W 5181   6.537   4.121  11.347  0.0722 -0.1256 -0.7740
  982W        W 5182   2.146   2.222   0.583 -0.2764 -0.1439 -0.0977
  983W        W 5183   4.656   1.858   9.975  0.0813  0.0862 -0.1236
  984W        W 5184   2.376   1.470  11.105 -0.5491  0.1706  0.3307
  985W        W 5185   9.552   8.800   2.619  0.0969  0.2837  0.1932
  986W        W 5186   6.556   2.772  11.167  0.1506 -0.1939  0.1038
  987W        W 5187   8.234   1.620   2.411 -0.0695 -0.0706 -0.1857
  988W        W 5188   4.350   7.153   3.907 -0.1263 -0.1120  0.1359
  989W        W 5189   1.994   1.322   0.431  0.0226 -0.1106  0.1807
  990W        W 5190   9.658   4.175  10.444 -0.0035 -0.0217 -0.0692
  991W        W 5191   2.493   5.882   9.581  0.3135  0.1809  0.0348
  992W        W 5192   8.122   3.857   2.109  0.0931  0.1496  0.0506
  993W        W 5193   3.540   3.682  10.007 -0.3214 -0.3038  0.0643
  994W        W 5194   9.078   7.847  11.371 -0.1246  0.1181 -0.2841
  995W        W 5195   0.892   5.474   1.618 -0.1476  0.1524  0.1737
  996W        W 5196   3.587   4.525  12.791  0.1698  0.0892  0.1978
  997W        W 5197   1.057   9.499  13.100  0.3188  0.0171 -0.1185
  998W        W 5198   6.771   7.410   0.191 -0.0466  0.0727  0.2468
  999W        W 5199   5.927   0.115  10.830  0.1506  0.3233 -0.0843
 1000W        W 5200   0.126   7.712   0.863 -0.0915 -0.3680  0.3128
 1001W        W 5201   4.458   3.685   0.121  0.2159 -0.0905  0.1038
 1002W        W 5202   2.799   5.958   5.150 -0.0732 -0.0572  0.0763
 1003W        W 5203   6.183   3.106  11.070  0.0463 -0.1401  0.0101
 1004W        W 5204   0.112   0.789   0.778 -0.1316  0.1705 -0.2323
 1005W        W 5205   4.677   3.186   9.820 -0.2885 -0.0893  0.5040
 1006W        W 5206   9.093   3.431   0.205 -0.2317 -0.1139 -0.0662
 1007W        W 5207   6.112   3.290   2.545  0.0768 -0.3317  0.1477
 1008W        W 5208   2.883   5.589   9.504  0.1032 -0.0329  0.0746
 1009W        W 5209   6.734   5.796  10.961  0.0761  0.0804 -0.3235
 1010W        W 5210   4.756   8.135  12.869 -0.1315  0.3617 -0.2685
 1011W        W 5211   7.161  10.300  13.005 -0.0456  0.1267  0.2582
 1012W        W 5212   8.376   7.746   9.635  0.1257  0.0145 -0.0655
 1013W        W 5213   9.752   9.250   3.765 -0.0932 -0.1866 -0.1361
 1014W        W 5214   4.229   2.556   9.271 -0.0760 -0.2617  0.1490
 1015W        W 5215   2.749   2.265   9.523  0.0507  0.0998  0.2525
 1016W        W 5216  10.483   8.875   1.623 -0.1056  0.2091 -0.0482
 1017W        W 5217   3.252   8.904   2.147 -0.1350 -0.2218  0.3522
 1018W        W 5218   4.776   9.351  12.666  0.1943 -0.2061 -0.0804
 1019W        W 5219   3.609   3.389   8.477  0.1226  0.1653 -0.3329
 1020W        W 5220   4.867   8.136  10.228 -0.1421  0.1655 -0.1249
 1021W        W 5221   5.913   2.315   5.566  0.0933  0.1650 -0.0107
 1022W        W 5222   5.638   1.783  10.024 -0.0575  0.0243 -0.0780
 1023W        W 5223   5.001   7.245   0.287  0.1587 -0.0648 -0.2644
 1024W        W 5224   2.559   6.690  10.894 -0.0518  0.2699  0.1092
 1025W        W 5225  10.261   8.866   9.678 -0.0534  0.3121  0.4787
 1026W        W 5226   4.956   7.391  13.184  0.2124 -0.1413 -0.1550
 1027W        W 5227   4.035   4.698  12.563  0.1685 -0.0964  0.2585
 1028W        W 5228   1.902   4.692   5.274  0.0011  0.0417  0.0467
 1029W        W 5229   3.454   4.985   4.170  0.1918 -0.2085 -0.0475
 1030W        W 5230   3.917   2.898   9.128 -0.0217  0.0517  0.1738
 1031W        W 5231   3.383   8.911   1.371 -0.1354  0.1968 -0.1032
 1032W        W 5232   3.073   5.218   1.028 -0.2241 -0.3415  0.0820
 1033W        W 5233   6.864   2.997   5.267 -0.0906 -0.0689  0.1033
 1034W        W 5234   6.265   2.555   0.503 -0.1052 -0.0584 -0.1432
 1035W        W 5235   1.805   6.360  13.139 -0.0891 -0.2436  0.2510
 1036W        W 5236   2.309   1.222   4.329 -0.1855  0.0083  0.2239
 1037W        W 5237   5.889   5.868   3.193 -0.2930  0.1789 -0.0486
 1038W        W 5238   8.101   3.610   3.894 -0.1267 -0.1922 -0.0086
 1039W        W 5239   1.836   4.259   9.103 -0.3895 -0.3635  0.1969
 1040W        W 5240   9.298   0.070  11.760  0.2756  0.4055  0.1412
 1041W        W 5241   1.179   5.857   5.109 -0.3420  0.0040  0.1365
 1042W        W 5242   2.727   8.259  11.677 -0.2782 -0.1136 -0.2024
 1043W        W 5243   3.842   6.161   9.583 -0.3155 -0.2262 -0.1075
 1044W        W 5244   2.354   1.837   1.692 -0.0776 -0.3699 -0.3104
 1045W        W 5245   7.653   1.805   3.117 -0.1718  0.1609  0.2083
 1046W        W 5246   1.946   0.927   9.745  0.1848  0.4395 -0.1698
 1047W        W 5247  10.352   6.800   3.212 -0.3345 -0.1687  0.0558
 1048W        W 5248   9.625   2.396   1.311 -0.0937 -0.0909  0.0790
 1049W        W 5249   5.084   0.868  12.564 -0.1423  0.0677  0.0442
 1050W        W 5250   5.416   8.538   8.502 -0.3735 -0.1150  0.0519
 1051W        W 5251   7.338   6.036  12.296  0.1049 -0.0067 -0.1179
 1052W        W 5252   8.377   0.975  12.453  0.0940  0.0392  0.1521
 1053W        W 5253   2.165   3.998   0.898  0.1923  0.0801  0.0017
 1054W        W 5254  10.398   1.009  10.935 -0.2676  0.2630  0.1251
 1055W        W 5255   1.272   4.384   4.146  0.2012 -0.0671  0.2432
 1056W        W 5256   5.506   5.168   4.646  0.1552 -0.0423 -0.2140
 1057W        W 5257   7.636  10.399   0.815 -0.0642  0.3432 -0.1005
 1058W        W 5258   4.773   3.831   3.641  0.0129  0.3650 -0.1103
 1059W        W 5259   4.891   9.779  11.851 -0.0089 -0.0218 -0.0471
 1060W        W 5260   5.785   0.391   3.444 -0.1398 -0.0823 -0.1847
 1061W        W 5261   6.001   8.192   0.804 -0.0534 -0.3870  0.0953
 1062W        W 5262   4.557   4.123  11.362  0.2390 -0.2803  0.0735
 1063W        W 5263   3.102   0.588   4.001 -0.2238 -0.2409 -0.1871
 1064W        W 5264   0.453   0.084   0.812 -0.0037 -0.1740 -0.0339
 1065W        W 5265   9.248   3.904   0.192 -0.2662  0.0425 -0.0009
 1066W        W 5266   8.161   1.931   3.334  0.1425 -0.0593  0.0560
 1067W        W 5267   0.421   3.579   2.516 -0.1502  0.1006  0.2602
 1068W        W 5268   6.568   7.737   2.853  0.1983 -0.0650 -0.2308
 1069W        W 5269   8.358   8.722   9.505  0.0029 -0.1146  0.0542
 1070W        W 5270   6.851   6.886   8.961 -0.1278  0.2308 -0.0374
 1071W        W 5271   0.890   1.925   9.611 -0.2303  0.5187  0.0827
 1072W        W 5272   2.729   5.637   9.995 -0.0903 -0.0420  0.0872
 1073W        W 5273   0.074   8.365  10.526 -0.1462 -0.0800  0.0127
 1074W        W 5274   7.090   6.536   1.166 -0.0985  0.0335 -0.0835
 1075W        W 5275   7.877   3.789   0.719 -0.1194  0.2098 -0.1200
 1076W        W 5276   7.556   5.006  10.475 -0.1533 -0.0352 -0.0941
 1077W        W 5277   2.501   6.080   3.828  0.0428 -0.1282 -0.3790
 1078W        W 5278   1.097   4.714   2.901 -0.2230  0.0478  0.1548
 1079W        W 5279   7.133   0.084   2.466  0.1709 -0.1883  0.0025
 1080W        W 5280   9.432   4.955  11.971 -0.0108 -0.0267 -0.0233
 1081W        W 5281   9.047   7.882   2.308  0.1841  0.0433  0.2181
 1082W        W 5282   7.160   6.010   3.028 -0.1824 -0.2290 -0.0202
 1083W        W 5283   2.099   8.246  10.398 -0.0135 -0.2481  0.0961
 1084W        W 5284   8.635   4.232   9.521 -0.0787 -0.2294 -0.2415
 1085W        W 5285   2.351   1.970  10.825  0.0467 -0.0752  0.0498
 1086W        W 5286   1.309   0.523   2.362  0.0528  0.4510  0.5092
 1087W        W 5287   8.035   7.184   4.217 -0.0304  0.0156 -0.1165
 1088W        W 5288   4.836   1.233  10.811 -0.1207  0.4309  0.0257
 1089W        W 5289   8.035   5.191  10.283  0.0737  0.0173 -0.1654
 1090W        W 5290   2.600   1.028  11.229 -0.1096  0.0237 -0.0319
 1091W        W 5291   7.945   8.278   0.189  0.1222 -0.2671  0.4545
 1092W        W 5292   9.004   2.789   1.911  0.2994 -0.1177  0.3799
 1093W        W 5293   3.255   6.559   3.576 -0.0937  0.1810 -0.1085
 1094W        W 5294   8.612   1.965   5.227 -0.2727  0.2448 -0.3065
 1095W        W 5295   6.357   4.160   0.834  0.0548 -0.2689  0.1016
 1096W        W 5296   9.314   5.554   1.752  0.0773 -0.1927  0.0690
 1097W        W 5297   1.252   2.851  12.498  0.1568 -0.3974  0.1057
 1098W        W 5298   1.089   3.766  11.038  0.3130  0.2120  0.1377
 1099W        W 5299   9.377   4.447   4.460 -0.2727 -0.4551 -0.1393
 1100W        W 5300   9.090   1.095   8.694  0.0885  0.1336  0.0504
 1101W        W 5301   9.624   1.795   2.909  0.1561 -0.1766  0.2107
 1102W        W 5302   4.810   0.157   0.116 -0.5345 -0.4434 -0.0544
 1103W        W 5303   7.714   7.115   1.605 -0.0013 -0.0218  0.0015
 1104W        W 5304   6.135  10.423  10.214  0.1369  0.0523  0.1765
 1105W        W 5305   5.472   4.084   9.553 -0.1033 -0.0411  0.0588
 1106W        W 5306   2.693  10.263  11.930 -0.0931 -0.0954 -0.1484
 1107W        W 5307   6.298   0.760  12.024  0.1230 -0.2393 -0.3052
 1108W        W 5308   1.988   5.239   2.933  0.0169  0.1816  0.0346
 1109W        W 5309   7.757   7.086  10.273 -0.1546  0.1236 -0.2608
 1110W        W 5310   6.853  10.352   3.809  0.1283 -0.1192 -0.2908
 1111W        W 5311   8.196   6.147  11.028 -0.1005  0.1892  0.0625
 1112W        W 5312   8.979   3.493   9.358  0.1225 -0.0872 -0.1385
 1113W        W 5313   2.889   4.562   1.826  0.0014  0.0111  0.1153
 1114W        W 5314   2.094   1.343   3.036 -0.1013  0.0109  0.2017
 1115W        W 5315   2.944   2.766   1.524 -0.1881  0.1014  0.1911
 1116W        W 5316   1.824   8.566  11.138 -0.2567  0.0213 -0.1960
 1117W        W 5317   5.224   3.075   4.575 -0.1115 -0.0336 -0.4742
 1118W        W 5318   6.516   9.731   2.701  0.0146 -0.1138 -0.0039
 1119W        W 5319   4.399   7.922  10.538  0.1952 -0.0461 -0.0921
 1120W        W 5320   2.525   0.179  12.800 -0.1935 -0.3508  0.0086
 1121W        W 5321   5.910   2.960   4.937  0.2718  0.0893  0.1326
 1122W        W 5322   9.051   1.015  11.931  0.3275  0.3286 -0.1487
 1123W        W 5323   7.456   1.956  10.542 -0.3380  0.1736  0.0912
 1124W        W 5324   5.233   4.781   1.634 -0.0046  0.0732  0.3081
 1125W        W 5325   7.687   6.985   2.491 -0.0876 -0.1334 -0.1164
 1126W        W 5326   6.605   5.117   1.424 -0.3329  0.2369 -0.4203
 1127W        W 5327   7.825   9.396   2.435 -0.0658  0.0484  0.1486
 1128W        W 5328   7.000   8.025   0.823 -0.1350 -0.2210 -0.1115
 1129W        W 5329   9.037   4.239   1.980  0.2616  0.0933  0.3849
 1130W        W 5330   4.634   5.417  11.105 -0.0963  0.2759 -0.2277
 1131W        W 5331   2.667   2.779   3.374  0.0453  0.1834  0.0586
 1132W        W 5332   1.641   0.602   1.990  0.3388  0.0649  0.0770
 1133W        W 5333   9.519   9.747   2.145  0.1690  0.0750  0.2356
 1134W        W 5334   9.213   3.935  13.133 -0.3040  0.1328  0.1408
 1135W        W 5335   3.203   8.220   0.858  0.0102 -0.0957  0.0233
 1136W        W 5336   5.849   0.911   4.281 -0.3039  0.1684 -0.0236
 1137W        W 5337   0.383   9.213   0.156 -0.0475  0.4387  0.0200
 1138W        W 5338   8.721   1.405  13.016  0.3317 -0.3940 -0.1300
 1139W        W 5339   8.818   5.522   4.501 -0.0040  0.1515 -0.3360
 1140W        W 5340  10.177   7.615   3.238 -0.3074  0.0388  0.0539
 1141W        W 5341   3.595   1.751  10.409  0.0366 -0.1624  0.0907
 1142W        W 5342   7.977   5.355   0.954  0.0964  0.2065 -0.0299
 1143W        W 5343   2.589   9.504   3.759  0.1706  0.2716 -0.1571
 1144W        W 5344   2.227   7.452   1.380 -0.1733 -0.2231  0.0060
 1145W        W 5345   3.653   1.383   1.964 -0.3579 -0.1996 -0.2024
 1146W        W 5346   5.941   9.992   0.565 -0.0103  0.0363  0.1082
 1147W        W 5347   4.268   8.745  12.148  0.7006 -0.2052  0.0219
 1148W        W 5348   3.512   8.172  10.669  0.3507  0.1191  0.0415
 1149W        W 5349   2.007   3.250   4.638  0.2870  0.2910  0.1290
 1150W        W 5350   4.899  10.059   9.546  0.0481 -0.1432 -0.0872
 1151W        W 5351   9.809   5.485   2.534 -0.2890 -0.0864  0.3112
 1152W        W 5352   9.180   9.048   1.278 -0.0163 -0.0459 -0.3382
 1153W        W 5353   1.589   5.059  13.099  0.0158  0.0853 -0.0509
 1154W        W 5354   7.149   7.361   3.830  0.0039 -0.0096  0.1965
 1155W        W 5355   3.545   4.109  10.518 -0.0698  0.2328  0.3981
 1156W        W 5356   9.283   6.522   1.044  0.0319 -0.0813 -0.0448
 1157W        W 5357   5.495   8.669  10.389 -0.0132  0.3318 -0.1480
 1158W        W 5358   2.516   2.652   1.253 -0.1234 -0.1074 -0.0823
 1159W        W 5359   7.213   0.322   9.972 -0.0600 -0.1505 -0.0756
 1160W        W 5360   5.751   6.761   0.436  0.1205  0.1784 -0.1077
 1161W        W 5361   7.730   2.679   8.571 -0.1076 -0.1797 -0.1452
 1162W        W 5362   4.396   0.074   8.956  0.0040  0.0575  0.0550
 1163W        W 5363   0.087   7.188  12.098 -0.0071 -0.3860  0.0828
 1164W        W 5364   0.552   3.242  10.367 -0.3436  0.1708 -0.2476
 1165W        W 5365   3.479   7.888   2.762  0.0351  0.5358  0.2932
 1166W        W 5366   8.286   8.333   2.733  0.1678 -0.2440 -0.1323
 1167W        W 5367   7.211   3.216  11.300 -0.1678 -0.0351  0.0781
 1168W        W 5368   6.622   9.779   3.172 -0.1511  0.2649  0.3362
 1169W        W 5369   6.492   7.954  11.876  0.0928  0.0508 -0.1440
 1170W        W 5370   8.150   8.899   9.066 -0.1014  0.0593  0.0121
 1171W        W 5371   8.162  10.083   1.820  0.0441  0.1849 -0.0764
 1172W        W 5372   9.567  10.143   3.799 -0.3173 -0.3024 -0.0599
 1173W        W 5373   0.389   8.228   2.116 -0.2205  0.0141 -0.2056
 1174W        W 5374   1.360   2.800   3.037  0.4944  0.2106  0.0508
 1175W        W 5375   0.231   1.562   2.596  0.0323  0.3697 -0.0532
 1176W        W 5376   1.650   2.437   1.361 -0.1279 -0.0938  0.0727
 1177W        W 5377   2.652   8.815  12.761  0.1181 -0.2108  0.0546
 1178W        W 5378  10.417  10.111   9.800  0.0607 -0.1454 -0.0245
 1179W        W 5379   7.529   7.586  10.284 -0.0107 -0.1415 -0.1138
 1180W        W 5380   0.372   6.269   1.228 -0.0273 -0.1327 -0.0055
 1181W        W 5381   8.082   0.603  11.677  0.0376  0.3183 -0.1590
 1182W        W 5382   7.191   4.207   1.803  0.3145 -0.0569 -0.1164
 1183W        W 5383   1.727   8.579  12.499 -0.1419  0.1493  0.2081
 1184W        W 5384   1.147   2.049   3.425 -0.1977  0.1015 -0.0963
 1185W        W 5385   5.991   6.685   3.744  0.3054 -0.1183 -0.3525
 1186W        W 5386   1.073   0.516   0.555  0.0380  0.0439  0.3736
 1187W        W 5387  10.179   8.695  12.278  0.1577 -0.0875  0.0739
 1188W        W 5388   9.209   7.382   4.729 -0.1336  0.0145 -0.0113
 1189W        W 5389   5.808   5.671  11.926 -0.0216  0.3760 -0.3000
 1190W        W 5390   7.959   6.060   4.902  0.4165 -0.0840 -0.1664
 1191W        W 5391   8.781   5.566  11.098 -0.1178 -0.0102 -0.0116
 1192W        W 5392   6.637   5.125   4.275  0.0910  0.0938  0.0549
 1193W        W 5393   9.383   6.766   2.276  0.2272  0.0844 -0.1305
 1194W        W 5394   0.944   1.198  12.461  0.0790 -0.1546  0.0122
 1195W        W 5395   9.191   4.812   9.991  0.3292 -0.0495  0.1435
 1196W        W 5396   0.071  10.150  13.392 -0.2677 -0.0204 -0.2038
 1197W        W 5397   4.108   7.773  11.124  0.2036 -0.1029  0.0008
 1198W        W 5398  10.357   2.464  12.430  0.0724 -0.2152  0.0237
 1199W        W 5399   5.808   8.970   0.977  0.1782  0.0125  0.0155
 1200W        W 5400   4.824   3.353   0.028 -0.1812 -0.0419 -0.0272
 1201W        W 5401   1.671  10.417  12.781  0.5547  0.0304 -0.3210
 1202W        W 5402   0.658   6.480  11.438 -0.1267 -0.2610  0.1627
 1203W        W 5403   3.709   4.572  10.746 -0.1632  0.0941  0.0945
 1204W        W 5404   7.066   4.440  13.150  0.0035  0.2410 -0.1154
 1205W        W 5405   2.601   1.895   2.493  0.0204 -0.2522 -0.1489
 1206W        W 5406   4.596   7.084   0.593  0.0860 -0.3335  0.0333
 1207W        W 5407   6.580   3.193   9.787  0.1281 -0.0604 -0.3080
 1208W        W 5408   1.931   1.595   4.617 -0.2758  0.0467 -0.2083
 1209W        W 5409   6.502   1.610   0.684  0.1297 -0.0311 -0.0730
 1210W        W 5410   3.132   9.520  10.652  0.3680  0.1738  0.0552
 1211W        W 5411   2.660  10.237  13.110  0.1161  0.0183  0.0117
 1212W        W 5412   9.644   2.097  12.165 -0.0158 -0.1978 -0.1901
 1213W        W 5413   0.571   2.436   3.465  0.4405  0.2387 -0.0948
 1214W        W 5414   0.218   8.525   2.509 -0.2859  0.0926 -0.1415
 1215W        W 5415   9.214   3.964   8.591 -0.2335  0.0785 -0.0208
 1216W        W 5416   7.622   4.889   1.974  0.1117  0.0102  0.7067
 1217W        W 5417   3.237   4.188  13.260  0.1241  0.2773  0.2492
 1218W        W 5418   5.274   2.674  12.712 -0.0690 -0.0443  0.0304
 1219W        W 5419   1.669   8.098  12.674  0.1100  0.1308 -0.2435
 1220W        W 5420   5.593   9.080   0.528  0.0882  0.1596  0.1089
 1221W        W 5421   1.621   4.086  13.247  0.1172  0.3509 -0.0799
 1222W        W 5422   0.244   3.263   0.835  0.0691 -0.3022  0.1196
 1223W        W 5423   0.230   2.064   9.865 -0.0554 -0.2052 -0.1379
 1224W        W 5424   3.277   7.316  12.989 -0.0267 -0.0935  0.1584
 1225W        W 5425   6.745   0.935   4.047 -0.1245 -0.1971  0.3298
 1226W        W 5426   5.736   2.385   2.465 -0.0401  0.0291 -0.1088
 1227W        W 5427   0.643   1.586  12.465 -0.0136 -0.2031 -0.1505
 1228W        W 5428   7.354   7.221  11.162  0.0319  0.1685 -0.2719
 1229W        W 5429   5.108   7.820   8.384  0.0690  0.1993 -0.0243
 1230W        W 5430   9.053   8.572   1.380 -0.0984  0.2757  0.2447
 1231W        W 5431   5.866   3.444  13.010 -0.0231  0.0800  0.1385
 1232W        W 5432   2.933   3.714   3.585  0.1543 -0.1029  0.3732
 1233W        W 5433   9.660   0.536  12.102  0.0834 -0.2099 -0.0478
 1234W        W 5434   9.177   0.387   1.143 -0.1874 -0.0734  0.3490
 1235W        W 5435   2.250  10.426   1.707 -0.1174  0.1017 -0.2129
 1236W        W 5436   6.033  10.154  10.636  0.1942  0.0997  0.0484
 1237W        W 5437   6.443   8.102   3.340  0.0320  0.0594 -0.0855
 1238W        W 5438   8.109   3.970  10.755  0.4727 -0.0208  0.0152
 1239W        W 5439   8.311   0.613   2.199  0.2072  0.1224  0.0675
 1240W        W 5440   3.738   7.320   1.504 -0.0751 -0.0537 -0.0379
 1241W        W 5441   8.411   4.269   0.246 -0.0467 -0.1319  0.1972
 1242W        W 5442   4.102   4.256  11.158 -0.2048 -0.1368  0.1023
 1243W        W 5443   7.849   6.969  11.172  0.2306  0.2901  0.1083
 1244W        W 5444   6.913   4.666   3.421  0.1273 -0.2483 -0.3754
 1245W        W 5445   1.553   0.440   0.397  0.0435 -0.1253  0.0869
 1246W        W 5446   7.138   3.204   9.136  0.1250 -0.1627  0.0182
 1247W        W 5447   1.619   2.566  11.658 -0.0252 -0.0184 -0.0424
 1248W        W 5448   9.011   5.163   9.640 -0.1219  0.0987  0.3028
 1249W        W 5449   7.936   0.908  12.110 -0.0421 -0.2961  0.1049
 1250W        W 5450   0.642   8.576   0.732 -0.2171 -0.3303  0.0716
 1251W        W 5451   9.720   1.659  13.392 -0.0151 -0.0740 -0.1737
 1252W        W 5452   8.275   4.225  11.786 -0.1571  0.0788  0.1846
 1253W        W 5453   6.246   0.447   9.412  0.4757  0.0956  0.0766
 1254W        W 5454   1.681   3.020   2.643  0.0155  0.2032  0.0803
 1255W        W 5455   2.740   8.133  12.144 -0.1077  0.2660 -0.1647
 1256W        W 5456   9.927   7.722   0.627  0.2158 -0.1653  0.0698
 1257W        W 5457   3.217   7.904  11.424  0.2834 -0.0891  0.0803
 1258W        W 5458   2.633   4.698   9.019  0.2468 -0.1035  0.1015
 1259W        W 5459   3.231   2.303   9.223  0.0169  0.1903  0.2294
 1260W        W 5460   4.745   9.264   3.550  0.0016  0.0008 -0.0418
 1261W        W 5461   1.510   7.419   0.114 -0.0006 -0.2150 -0.2766
 1262W        W 5462   5.482  10.089   0.808  0.0394 -0.0026 -0.1479
 1263W        W 5463   2.954   4.846   1.308  0.0154 -0.1640  0.3503
 1264W        W 5464   9.714   3.463  11.449  0.0612  0.1060 -0.0092
 1265W        W 5465   2.609   7.887   0.110 -0.1542 -0.0527 -0.1818
 1266W        W 5466   4.896   2.081  10.540 -0.1209 -0.1051  0.0979
 1267W        W 5467   9.404   7.414   9.166  0.1515  0.0861 -0.3099
 1268W        W 5468   6.228   2.864   1.642 -0.0196 -0.2432  0.0424
 1269W        W 5469   3.717   1.821  12.280 -0.1402  0.4794  0.2443
 1270W        W 5470   4.254   4.490  10.719 -0.0346  0.1181 -0.0387
 1271W        W 5471   7.075   1.693   9.136 -0.1758  0.0513  0.2052
 1272W        W 5472   5.138  10.061   2.207  0.1278 -0.1599 -0.2763
 1273W        W 5473  10.210   3.946   3.765 -0.1155 -0.3677  0.1859
 1274W        W 5474  10.009   4.298  10.148 -0.1778 -0.1302  0.0038
 1275W        W 5475   9.079   9.362  12.732 -0.0779  0.1061 -0.2740
 1276W        W 5476   9.463   5.527   0.211  0.0017  0.0218 -0.0990
 1277W        W 5477   5.222   1.977  11.726 -0.0100  0.2800  0.3773
 1278W        W 5478   7.187   5.141   4.351  0.0797  0.1846  0.1098
 1279W        W 5479   7.551   7.298  12.884 -0.0965  0.1080  0.2472
 1280W        W 5480   2.731   9.713  11.796 -0.0693 -0.0530 -0.0346
 1281W        W 5481  10.068   4.106   1.974  0.0567  0.0892 -0.4461
 1282W        W 5482   8.930   5.820   4.930 -0.2103  0.1445  0.0540
 1283W        W 5483   1.268   3.881   2.807  0.0223 -0.0483  0.2091
 1284W        W 5484   9.623   5.815   9.960 -0.0933 -0.1641  0.1213
 1285W        W 5485   8.760   6.220   0.259 -0.0441 -0.1287 -0.2942
 1286W        W 5486   0.193   0.516  13.300  0.0138 -0.0051 -0.1083
 1287W        W 5487   4.017   1.759   0.310 -0.2047  0.0355  0.3855
 1288W        W 5488   5.048   9.389   1.511 -0.2001  0.0876  0.1070
 1289W        W 5489   1.284   0.276  12.505  0.2181  0.1059  0.1647
 1290W        W 5490   2.041   2.949   2.265  0.2714 -0.1446 -0.1612
 1291W        W 5491   2.439   9.334   0.575  0.0232  0.0338  0.3051
 1292W        W 5492   5.154   4.236  12.023 -0.3514 -0.0368 -0.2103
 1293W        W 5493   4.469   1.350   0.301 -0.0946  0.0048 -0.1779
 1294W        W 5494   0.951   8.934  11.978 -0.0722  0.0556 -0.4571
 1295W        W 5495   8.936   7.988   3.569  0.1839  0.2391  0.3191
 1296W        W 5496   8.064   7.029   3.711  0.2172 -0.2228 -0.0107
 1297W        W 5497   4.863   3.437   0.551  0.1191 -0.0841 -0.3235
 1298W        W 5498   8.007   1.769  10.088  0.0896 -0.2018  0.2932
 1299W        W 5499  10.461   9.823   1.321 -0.2365  0.0888 -0.1257
 1300W        W 5500   8.655   5.348   3.970  0.2079 -0.0923  0.0623
 1301W        W 5501   9.810   6.316   0.303  0.0937  0.2040  0.2403
 1302W        W 5502   3.979   9.769  10.438 -0.1565 -0.0991 -0.1521
 1303W        W 5503   1.837   5.361  10.650  0.2786  0.2013  0.1033
 1304W        W 5504   8.120   3.558   9.185  0.1142 -0.0374  0.0481
 1305W        W 5505   8.421   5.171   4.451 -0.5890 -0.4566  0.0421
 1306W        W 5506   0.830   0.314   4.407  0.0501 -0.1965  0.0611
 1307W        W 5507   4.906   1.040  12.025 -0.0587  0.0931 -0.2692
 1308W        W 5508   5.887   8.346  12.574  0.1239  0.0234 -0.1130
 1309W        W 5509   0.740   1.103   3.188 -0.1020 -0.0395  0.0975
 1310W        W 5510   8.860   8.053  11.835  0.2581 -0.3825  0.0531
 1311W        W 5511   2.466   5.631  13.094 -0.1632  0.1940  0.2894
 1312W        W 5512   6.030   1.597   3.116 -0.0326 -0.1672  0.0892
 1313W        W 5513   8.992   2.280   9.895 -0.2337 -0.1755 -0.1289
 1314W        W 5514   8.686   8.299   8.390  0.0578 -0.1826  0.2212
 1315W        W 5515   6.091   0.999   3.211  0.2631 -0.0484  0.0131
 1316W        W 5516   8.564   8.378   3.611 -0.0780  0.1329 -0.3402
 1317W        W 5517   6.248   2.368  12.962 -0.2261 -0.2782 -0.2200
 1318W        W 5518   5.345   3.493  10.307 -0.1519  0.0654  0.2510
 1319W        W 5519   3.970   3.911   0.710 -0.0361  0.0341  0.2869
 1320W        W 5520   1.044   1.114   2.098  0.1848  0.0462  0.0536
 1321W        W 5521   5.443   4.145  11.642 -0.3750  0.3007  0.0123
 1322W        W 5522   7.057   6.556   9.791 -0.0441 -0.0801  0.0079
 1323W        W 5523   7.986   0.501   8.600 -0.0635 -0.0351  0.1252
 1324W        W 5524   3.033   4.028   0.906  0.0298 -0.4452  0.1231
 1325W        W 5525   6.137   3.322  12.613  0.1252  0.1538 -0.0814
 1326W        W 5526   1.837   7.846   2.117 -0.0386  0.0295  0.1190
 1327W        W 5527   0.639   1.830  10.068  0.0905  0.0897 -0.3908
 1328W        W 5528   8.462   1.130   2.254 -0.1671 -0.0157  0.0912
 1329W        W 5529   6.191   3.617   3.843 -0.2365  0.0900 -0.4051
 1330W        W 5530   5.889   6.167  13.015  0.1088  0.1480 -0.0748
 1331W        W 5531  10.447   0.850   1.324 -0.1197  0.2168  0.1099
 1332W        W 5532   4.513   5.030   0.494 -0.3029  0.0450  0.2441
 1333W        W 5533   2.307   2.694   0.366  0.2837  0.0208 -0.2328
 1334W        W 5534   1.465   8.941  10.311  0.2106  0.3425  0.1426
 1335W        W 5535   8.233   0.617  10.032  0.2880  0.2592 -0.2634
 1336W        W 5536   5.741   0.371   2.110 -0.1175  0.0095 -0.2152
 1337W        W 5537   0.907   5.194  12.732 -0.0332  0.0866  0.1662
 1338W        W 5538   7.559   2.177   0.734 -0.1142 -0.4657 -0.1241
 1339W        W 5539   2.354   3.829   9.001 -0.1991 -0.0392  0.1918
 1340W        W 5540   1.986  10.078   0.333  0.3515  0.1961 -0.2540
 1341W        W 5541   1.468   4.425   2.793 -0.1848 -0.2926 -0.1619
 1342W        W 5542   8.942   2.497   0.835  0.0545  0.0682 -0.3068
 1343W        W 5543   5.168   2.367  11.340  0.0905  0.1400  0.4376
 1344W        W 5544   0.188   6.895   2.314 -0.1865  0.0903  0.1058
 1345W        W 5545   8.615   8.510   0.953 -0.2575  0.1617 -0.2735
 1346W        W 5546   7.641   0.512  13.350 -0.1813  0.2867 -0.0831
 1347W        W 5547   7.889   4.521  11.810  0.2644  0.2173 -0.0627
 1348W        W 5548   9.019   7.945   8.536 -0.1434  0.0522 -0.1000
 1349W        W 5549   8.269   2.599  13.272 -0.0569 -0.1216  0.3343
 1350W        W 5550   4.703   1.650   9.373 -0.0779 -0.0003 -0.0116
 1351W        W 5551   7.656   4.827   2.477  0.0348  0.1468 -0.3514
 1352W        W 5552   7.427   7.493   0.433 -0.0895  0.1194  0.5591
 1353W        W 5553   2.721   4.693  12.457  0.0043 -0.1843  0.0095
 1354W        W 5554   6.760   7.945   8.774  0.4784 -0.0998 -0.3117
 1355W        W 5555   0.441   3.258   2.951 -0.0687  0.0179 -0.0973
 1356W        W 5556   5.713   1.946   0.313  0.1638 -0.0973 -0.1524
 1357W        W 5557   6.908   2.732   9.052  0.0832 -0.0308  0.4283
 1358W        W 5558   3.224   3.445   9.671 -0.2505  0.0767 -0.1751
 1359W        W 5559   3.433   3.228  10.450 -0.1901  0.1531  0.2977
 1360W        W 5560   5.338   3.640   1.779  0.1791  0.2942 -0.2795
 1361W        W 5561   9.786   4.636   9.595 -0.2119  0.2022  0.0352
 1362W        W 5562   6.567   1.225   0.327  0.1888 -0.0192  0.1509
 1363W        W 5563   9.326  10.420   0.180  0.0725 -0.2849  0.0569
 1364W        W 5564   3.744   3.961   8.508 -0.3271 -0.1664  0.2473
 1365W        W 5565   2.973   6.957   3.921 -0.1781  0.1305  0.4065
 1366W        W 5566   9.583   2.031   4.877  0.3083 -0.2920  0.3016
 1367W        W 5567   3.871   2.481  11.561  0.1873 -0.0553  0.0565
 1368W        W 5568   8.169   8.418   2.174 -0.0576  0.2816 -0.2792
 1369W        W 5569   1.787   5.262   0.577  0.0182 -0.0014  0.1662
 1370W        W 5570   4.885   7.251   4.575 -0.2637  0.0572 -0.1466
 1371W        W 5571   3.984   2.422   0.278 -0.2619  0.3313 -0.0804
 1372W        W 5572   3.249   9.921  11.901  0.2316  0.1553 -0.0670
 1373W        W 5573   2.670   3.050   0.759  0.1451 -0.3557 -0.0856
 1374W        W 5574   0.659   7.397  12.028  0.2874 -0.1654  0.0811
 1375W        W 5575   5.032   6.796   3.549  0.1515  0.1219  0.1728
 1376W        W 5576   7.275   3.401  10.398  0.0781  0.0760  0.2220
 1377W        W 5577   6.838   2.527  10.081  0.2642  0.3480 -0.4696
 1378W        W 5578   6.749   5.852   3.598  0.0128  0.0354 -0.1166
 1379W        W 5579   5.993   6.575   8.844  0.0642  0.0804 -0.2703
 1380W        W 5580   2.081   0.706  12.589  0.1166  0.0914 -0.0549
 1381W        W 5581   4.110   3.750  11.099  0.2811  0.0899  0.0422
 1382W        W 5582   0.003   8.125   3.829  0.1942 -0.0344 -0.4465
 1383W        W 5583   8.853   2.326   1.819 -0.0891  0.0824 -0.0098
 1384W        W 5584   3.414   5.581   1.119 -0.0822  0.0564 -0.1387
 1385W        W 5585   2.256   0.765   4.025 -0.1547 -0.1859  0.2427
 1386W        W 5586   8.369   2.210   4.187  0.0997  0.0862  0.0392
 1387W        W 5587   3.701   0.477  12.095  0.1475 -0.0821 -0.1425
 1388W        W 5588   5.313   0.209   4.296 -0.0388 -0.1752 -0.1264
 1389W        W 5589   9.691   3.326  10.970 -0.1133  0.1438 -0.2260
 1390W        W 5590   8.546   7.060   4.426  0.3655  0.2076  0.0083
 1391W        W 5591   4.880   9.620   2.023 -0.2863  0.0936  0.0309
 1392W        W 5592   5.223   1.423   2.628  0.1147 -0.0513  0.2358
 1393W        W 5593   4.166   7.249   2.120 -0.1317 -0.0099  0.0807
 1394W        W 5594   6.415   9.363  10.263  0.0619 -0.0777 -0.0635
 1395W        W 5595   8.097   4.444   0.598 -0.1196 -0.1130 -0.1178
 1396W        W 5596   7.090   3.973   3.962 -0.0626 -0.0651  0.1109
 1397W        W 5597   5.886   0.396  13.304 -0.0219  0.0423 -0.1917
 1398W        W 5598   8.522   4.769   2.032  0.0781 -0.2631  0.1413
 1399W        W 5599   5.049   3.887   1.234  0.0926 -0.0250 -0.2028
 1400W        W 5600   4.958   2.984   1.074  0.2452 -0.1117  0.2102
 1401W        W 5601   7.861   8.804   8.655  0.2361 -0.0804 -0.0866
 1402W        W 5602   0.496   9.732  10.344 -0.0958 -0.0288 -0.0258
 1403W        W 5603   9.466   0.209   9.207 -0.1406  0.0674  0.3889
 1404W        W 5604   3.007  10.057   3.656 -0.0265 -0.4074  0.0435
 1405W        W 5605   8.388  10.083   9.410  0.0828 -0.5177 -0.3708
 1406W        W 5606   0.825   4.600  12.616 -0.0896  0.5099 -0.1722
 1407W        W 5607   0.332   0.447   2.080  0.0580 -0.0255  0.0525
 1408W        W 5608   0.454   4.877  11.797  0.0471  0.1495 -0.1520
 1409W        W 5609   1.167   4.313   9.914 -0.2900  0.1253  0.0565
 1410W        W 5610   4.416   0.421   9.343  0.1739  0.3942  0.1608
 1411W        W 5611   9.847   2.386  12.722 -0.3105 -0.0712 -0.1271
 1412W        W 5612   6.046   5.437  11.048 -0.0334  0.0480 -0.2494
 1413W        W 5613   7.456   6.221  11.552  0.2062  0.1455 -0.1873
 1414W        W 5614   7.232   3.775   9.851 -0.2545  0.1511 -0.1351
 1415W        W 5615   8.814   1.689   0.119  0.2385 -0.1315 -0.0529
 1416W        W 5616   2.673  10.288   2.335  0.2219  0.0500  0.0304
 1417W        W 5617   9.762   4.992   3.164 -0.2019  0.1283  0.2628
 1418W        W 5618   1.148   0.501  11.540  0.0595 -0.0962  0.0168
 1419W        W 5619   1.393   5.494   9.129 -0.2005  0.1875  0.0211
 1420W        W 5620   8.416   3.103   1.656 -0.0159 -0.0054  0.0964
 1421W        W 5621   9.233   0.658   0.661  0.2968  0.0103 -0.1015
 1422W        W 5622   9.411   2.943   4.367  0.2938 -0.0320  0.0787
 1423W        W 5623   5.019   3.246   3.665  0.0826 -0.0040  0.1543
 1424W        W 5624   8.531   4.726  11.065  0.0612  0.0438 -0.0430
 1425W        W 5625   6.643   1.167   1.818  0.1745  0.0489  0.2333
 1426W        W 5626   3.428   4.104  11.511  0.0175 -0.1118 -0.0346
 1427W        W 5627   0.414   4.638  13.079 -0.3853 -0.0836  0.0592
 1428W        W 5628   2.941   5.020   4.153  0.1196  0.0144  0.1514
 1429W        W 5629   0.389   6.463   3.128 -0.0981 -0.1919  0.0287
 1430W        W 5630   8.642   4.036   2.732  0.0370  0.1243  0.2863
 1431W        W 5631   9.063   3.529   3.370 -0.0457  0.2114 -0.0021
 1432W        W 5632   8.583   1.257   8.821 -0.1773 -0.1171  0.1405
 1433W        W 5633   9.593   9.837  10.448  0.1788  0.0437  0.1793
 1434W        W 5634   2.909   3.758  11.282 -0.4143  0.3798  0.0505
 1435W        W 5635   1.850   2.947  11.359  0.1603 -0.1457  0.0011
 1436W        W 5636   6.384   0.337   3.712  0.0295  0.0684 -0.1066
 1437W        W 5637   6.996   8.812   1.907  0.1428  0.0331  0.1106
 1438W        W 5638   9.045   3.667   1.836 -0.0972 -0.4214 -0.0044
 1439W        W 5639   2.182   3.012   4.171  0.0449 -0.0407 -0.1053
 1440W        W 5640   9.855   2.817   3.656 -0.2466 -0.0986 -0.1430
 1441W        W 5641   0.286   8.908  11.376 -0.0439  0.1091 -0.0363
 1442W        W 5642   4.672   9.234   9.335 -0.1506  0.1820 -0.1004
 1443W        W 5643   1.396   1.623   0.422  0.0040  0.1903  0.3931
 1444W        W 5644   8.241   7.286   1.648 -0.1075 -0.1440 -0.1219
 1445W        W 5645   9.645   1.546  11.050  0.1155 -0.0946  0.1598
 1446W        W 5646   7.498   3.177  12.641  0.1422  0.1340  0.3574
 1447W        W 5647   2.739   1.984   1.966 -0.0693  0.0421 -0.1517
 1448W        W 5648   6.305   1.240  12.207  0.1638  0.1741 -0.0013
 1449W        W 5649   4.603   1.976  13.091 -0.1289  0.0949  0.1226
 1450W        W 5650   6.559  10.408   1.102  0.3316 -0.0847  0.0850
 1451W        W 5651   3.159   6.357  10.413  0.0143 -0.2227  0.3462
 1452W        W 5652   7.249   6.835   0.833 -0.2576 -0.0597  0.0662
 1453W        W 5653   4.412   9.951  12.980 -0.0600 -0.2074 -0.1347
 1454W        W 5654   4.918   7.157   9.335  0.0468  0.1519 -0.2499
 1455W        W 5655   6.091   9.226   3.879 -0.0652 -0.0304 -0.0471
 1456W        W 5656   5.570   7.704   2.376 -0.1042 -0.1788 -0.3228
 1457W        W 5657   9.002   5.158  10.243  0.0015 -0.0895  0.0563
 1458W        W 5658   8.139   7.631   3.843  0.0084  0.3352  0.0832
 1459W        W 5659   6.031   8.931   9.698  0.3665 -0.3744 -0.0725
 1460W        W 5660   9.449   2.416   9.585 -0.1149  0.3626 -0.2594
 1461W        W 5661   6.295   0.387  11.064 -0.1230 -0.0419  0.2636
 1462W        W 5662   8.943   2.318  12.485  0.2897 -0.0555  0.0107
 1463W        W 5663   8.652   0.066  10.572 -0.0519  0.0989 -0.0236
 1464W        W 5664   4.555   5.824  12.030 -0.2768 -0.1341  0.1073
 1465W        W 5665   9.347   3.089  13.029 -0.2073 -0.0500 -0.0798
 1466W        W 5666   4.965   4.645  10.991 -0.1575  0.2425 -0.1479
 1467W        W 5667   8.700   4.357   0.752 -0.0475 -0.3361 -0.1412
 1468W        W 5668   5.687   8.583   0.668  0.2220  0.1488  0.0245
 1469W        W 5669   5.830   3.067   3.028  0.0636  0.1920  0.2065
 1470W        W 5670   8.257   8.193   1.199 -0.1411  0.0907  0.0674
 1471W        W 5671   1.868  10.423   1.209 -0.0460  0.1084 -0.1960
 1472W        W 5672   6.520   2.110   9.729  0.0096 -0.2306  0.2095
 1473W        W 5673  10.244   4.377   1.429 -0.0162  0.0675 -0.1099
 1474W        W 5674   3.995   8.191   9.837  0.3439  0.0620  0.0362
 1475W        W 5675   2.848   3.686  12.721 -0.2167  0.0803 -0.1550
 1476W        W 5676   3.281   1.007  11.069  0.0568 -0.3082 -0.0426
 1477W        W 5677   5.167   2.951   9.354  0.0088 -0.1833 -0.0776
 1478W        W 5678  10.417   7.270   1.027 -0.0921  0.1430 -0.1192
 1479W        W 5679   9.272   8.201   0.839  0.0168  0.0530 -0.1186
 1480W        W 5680   9.000  10.312   4.060  0.2438  0.2438  0.2733
 1481W        W 5681   2.253   4.510  12.562  0.1176 -0.1302  0.0015
 1482W        W 5682   2.338   2.565  13.178 -0.2954  0.2273 -0.1341
 1483W        W 5683   7.273   2.473  10.406  0.6352 -0.0628  0.3710
 1484W        W 5684   9.760   4.198   1.591  0.0678  0.0447 -0.0848
 1485W        W 5685   6.862   3.698   0.868 -0.3369 -0.0847  0.3594
 1486W        W 5686   6.561   8.685   4.586 -0.1765  0.1203 -0.0208
 1487W        W 5687   0.335   7.075  12.555 -0.0617  0.0742  0.2279
 1488W        W 5688   1.282   5.453   4.080 -0.0296 -0.0732  0.5393
 1489W        W 5689  10.493   7.370  11.341 -0.1529 -0.1384  0.1064
 1490W        W 5690   6.875   4.242  10.558 -0.0528 -0.2685  0.0573
 1491W        W 5691   8.404   8.368  12.996 -0.3368  0.0582 -0.2720
 1492W        W 5692   9.983   3.471   9.011  0.0855  0.3066 -0.0332
 1493W        W 5693   6.047   8.227  13.105 -0.0012  0.1606  0.2802
 1494W        W 5694   1.726   6.573  12.591  0.1376 -0.4730 -0.0779
 1495W        W 5695   9.415   0.019   3.426  0.1483  0.0293 -0.1003
 1496W        W 5696   4.792   7.640   1.353 -0.1812 -0.2625 -0.0935
 1497W        W 5697   5.739   8.528   4.130 -0.3050 -0.1631  0.1716
 1498W        W 5698   9.922   3.084  11.991  0.1907  0.0621 -0.2480
 1499W        W 5699   4.715   3.464  12.850  0.1682 -0.2237  0.0558
 1500W        W 5700   7.138   6.965   4.670 -0.1249  0.0512  0.0941
 1501W        W 5701   6.129   4.460   4.424  0.0458  0.0304 -0.2670
 1502W        W 5702   0.334   2.860  11.052  0.1256 -0.2952 -0.2074
 1503W        W 5703   2.789   5.979   9.187 -0.1188 -0.1404  0.1661
 1504W        W 5704   5.690   1.789   9.504 -0.1105  0.2710 -0.2844
 1505W        W 5705   5.649   3.399   0.459 -0.3823 -0.0629  0.0049
 1506W        W 5706   9.285   6.299   4.833  0.0108 -0.0320 -0.0736
 1507W        W 5707   2.898   9.020   1.261  0.0398 -0.2823  0.1293
 1508W        W 5708   1.776   1.972   2.186  0.2314 -0.0158 -0.0222
 1509W        W 5709   1.267   2.540  12.897 -0.0857 -0.1521 -0.1834
 1510W        W 5710   5.285   4.820  11.357 -0.1374  0.0251 -0.1050
 1511W        W 5711   8.107   0.033   1.595 -0.1468  0.1593 -0.0347
 1512W        W 5712   9.526   7.882   2.688  0.4004  0.1182  0.1267
 1513W        W 5713   6.905   2.808   3.925  0.0317 -0.0430  0.0916
 1514W        W 5714   6.712   3.568  13.246 -0.3245  0.1385  0.0476
 1515W        W 5715   8.010   3.326   4.568 -0.3324  0.1949 -0.1389
 1516W        W 5716   8.903   8.977   2.181  0.0690  0.0791 -0.1466
 1517W        W 5717   2.806   8.789   2.602  0.0577  0.0418 -0.1390
 1518W        W 5718   7.417   1.107   3.420 -0.3234 -0.0933 -0.0894
 1519W        W 5719  10.485   1.943   4.295  0.0089  0.2894 -0.1972
 1520W        W 5720   7.311   2.792   9.403 -0.2827 -0.2091  0.4623
 1521W        W 5721   2.468   3.006  12.350 -0.0616 -0.1070 -0.2795
 1522W        W 5722   4.438   6.699  11.636 -0.0303 -0.0234 -0.0765
 1523W        W 5723   8.937   7.105   9.197  0.3884  0.2619 -0.2547
 1524W        W 5724   0.422   2.118   9.395 -0.4940  0.0309 -0.2975
 1525W        W 5725   1.326   6.945   4.118 -0.0099 -0.0435 -0.1399
 1526W        W 5726   8.790   6.262   5.110 -0.0057 -0.1308 -0.2083
 1527W        W 5727   0.884   3.128   1.197  0.1311 -0.2678 -0.1923
 1528W        W 5728   1.594   2.426   9.756 -0.2643  0.3020  0.0818
 1529W        W 5729   6.431   7.501   2.091  0.1075  0.0479  0.0301
 1530W        W 5730   6.235   3.433   2.983 -0.0067  0.0534  0.0847
 1531W        W 5731   4.016   5.823  10.045 -0.0537 -0.2689 -0.0897
 1532W        W 5732   6.663   3.086   1.418 -0.0455  0.2220  0.0952
 1533W        W 5733   9.224   2.125   4.497 -0.0674 -0.2229 -0.1124
 1534W        W 5734   6.931   6.368   1.757  0.3912 -0.0434 -0.1421
 1535W        W 5735   1.508   2.179   0.360  0.1419 -0.1261  0.0256
 1536W        W 5736   6.981   8.420  12.534 -0.1235  0.1176 -0.2582
 1537W        W 5737   0.778   7.499  12.931  0.1740  0.2094 -0.2959
 1538W        W 5738   7.029   9.638  12.699  0.1360  0.1707 -0.0292
 1539W        W 5739   4.743   5.703   3.744  0.1425 -0.0025 -0.3055
 1540W        W 5740   7.204   3.248   2.929  0.0781 -0.2933  0.1797
 1541W        W 5741  10.186   6.181  13.331 -0.1239  0.1807  0.1969
 1542W        W 5742   4.210   4.312  11.727 -0.1409  0.0159  0.0083
 1543W        W 5743   7.038   9.000   8.379 -0.0905 -0.2441 -0.0512
 1544W        W 5744   4.980   3.717  10.927 -0.2300 -0.0767  0.0020
 1545W        W 5745   2.282   3.273   0.959 -0.2307 -0.0946 -0.1256
 1546W        W 5746   8.876   7.701   4.013  0.1520 -0.0233 -0.3055
 1547W        W 5747   7.848   7.572   2.511 -0.2389  0.0435 -0.0841
 1548W        W 5748   2.573   3.571   2.982 -0.1559 -0.3334 -0.2707
 1549W        W 5749   4.328   8.905   9.466  0.0207 -0.1958  0.0435
 1550W        W 5750   5.225   0.286   2.218 -0.0617  0.0093 -0.0664
 1551W        W 5751   9.080   6.842   1.568 -0.4146  0.1679  0.0175
 1552W        W 5752   2.360   5.283   1.993 -0.2746 -0.2139 -0.1883
 1553W        W 5753   0.317   2.755   3.787  0.0715 -0.1701  0.1635
 1554W        W 5754   4.878   7.554   9.000 -0.0052 -0.2350  0.1443
 1555W        W 5755   3.408   9.553   2.061 -0.1335 -0.0668  0.4095
 1556W        W 5756   6.916   0.277  13.140 -0.1050 -0.1031  0.2850
 1557W        W 5757   5.634   5.799  12.767  0.0687  0.1583  0.1138
 1558W        W 5758   7.558   5.740   4.018  0.0863 -0.0453  0.1651
 1559W        W 5759   8.268   7.980  13.353 -0.2087  0.1249 -0.1782
 1560W        W 5760   4.363   4.858   3.597 -0.2437  0.2233  0.0691
 1561W        W 5761   7.448   6.294   8.751  0.1427  0.2292 -0.0407
 1562W        W 5762   7.836   0.278  11.969 -0.0462  0.2628 -0.0149
 1563W        W 5763  10.116   6.629  10.373 -0.1421  0.1449  0.0685
 1564W        W 5764  10.043   7.503  12.993  0.0417 -0.0355  0.0974
 1565W        W 5765   0.089   3.062  12.560 -0.0748  0.0373 -0.2981
 1566W        W 5766   1.639   5.907   2.935  0.2550  0.1170  0.2281
 1567W        W 5767   7.288   3.759   9.371  0.2310  0.3876 -0.0414
 1568W        W 5768   4.467  10.488   2.482 -0.2233  0.3663  0.0644
 1569W        W 5769   6.447   9.797   9.953 -0.3597 -0.0415 -0.0446
 1570W        W 5770   7.230   4.524  10.978  0.1250  0.0043 -0.1824
 1571W        W 5771   5.444  10.318   2.541 -0.0076  0.3444  0.0522
 1572W        W 5772   3.429  10.366  11.722  0.1610 -0.0448  0.0604
 1573W        W 5773   8.295   4.876  10.600 -0.2861  0.0791 -0.0414
 1574W        W 5774   8.799   5.314  12.880  0.1479 -0.1890  0.0524
 1575W        W 5775   0.898   1.738   1.686 -0.1367  0.1200  0.1512
 1576W        W 5776   6.518   1.677   3.495 -0.3037  0.2829  0.1134
 1577W        W 5777   1.784   4.078   2.595  0.1623  0.2116  0.1964
 1578W        W 5778   1.595   0.904   0.365  0.0081 -0.0025  0.0650
 1579W        W 5779   8.818   2.380   4.206  0.0814 -0.0613  0.0745
 1580W        W 5780   4.541   4.718   2.693  0.1924 -0.0970 -0.1279
 1581W        W 5781   6.412   2.924   5.063  0.0297  0.1745 -0.0773
 1582W        W 5782   0.425   7.232   0.949  0.0269 -0.2683 -0.1911
 1583W        W 5783   8.507   1.063   1.640  0.0059  0.2895 -0.0253
 1584W        W 5784   9.721   8.433   3.554  0.0602 -0.4321  0.0762
 1585W        W 5785   1.532   6.248   3.778  0.2107 -0.0087 -0.0366
 1586W        W 5786   5.890   5.440   8.501 -0.0470  0.1265 -0.0357
 1587W        W 5787   3.405   5.406  10.844  0.0510  0.1847  0.0353
 1588W        W 5788   8.616   2.263   2.250  0.0942  0.0461 -0.2012
 1589W        W 5789   9.778   3.687  12.956 -0.1507  0.1083 -0.0476
 1590W        W 5790   7.970   4.602   9.172 -0.1041  0.1301 -0.0911
 1591W        W 5791   4.615  10.264   3.727 -0.0791 -0.0858  0.2549
 1592W        W 5792   6.807   6.799  10.417 -0.0438 -0.0931  0.2137
 1593W        W 5793   4.068   6.548   9.218 -0.0405  0.0474  0.1412
 1594W        W 5794   1.301   6.772  12.463 -0.2754  0.0404  0.1223
 1595W        W 5795   8.360   6.264   3.787  0.1939 -0.0530 -0.0955
 1596W        W 5796   2.511   7.434   2.045  0.0232 -0.2705 -0.2252
 1597W        W 5797   6.840   1.234   4.590 -0.3130 -0.1470  0.2648
 1598W        W 5798   4.906   9.350   0.015  0.0695 -0.3278 -0.2190
 1599W        W 5799   9.437   0.550   2.450  0.1542  0.0412 -0.1121
 1600W        W 5800   7.959   8.707   9.776  0.0452 -0.2053  0.2328
 1601W        W 5801   7.752   4.009  11.697 -0.0352 -0.2062 -0.0251
 1602W        W 5802   1.999   7.584  13.367 -0.0531 -0.1323  0.0457
 1603W        W 5803   3.866   8.598   1.538  0.0442  0.0581  0.1872
 1604W        W 5804   2.483   5.949   3.286  0.0222 -0.2227  0.1048
 1605W        W 5805   7.678  10.309   3.786 -0.2489  0.0159  0.1014
 1606W        W 5806   6.438   3.564  12.184  0.0232  0.0088  0.0727
 1607W        W 5807   6.925   2.034   2.532  0.1449  0.1823  0.0302
 1608W        W 5808   8.548   9.193  10.350 -0.0566  0.0474 -0.1496
 1609W        W 5809   0.354   3.118   4.102 -0.1421  0.0677 -0.3171
 1610W        W 5810   3.173   6.500   9.678  0.2243 -0.0752 -0.2958
 1611W        W 5811   1.068  10.221   4.077  0.0785 -0.2941  0.2623
 1612W        W 5812   9.378   6.866   9.092  0.0531 -0.4173  0.0596
 1613W        W 5813   8.644   0.563  10.470 -0.2320 -0.0274  0.2737
 1614W        W 5814   7.583   4.467  13.179 -0.1019  0.1324  0.0500
 1615W        W 5815   6.201   8.629   2.418  0.0324 -0.3862  0.2199
 1616W        W 5816   0.214   8.094  10.939 -0.3256  0.1389 -0.0057
 1617W        W 5817   2.233  10.083   2.598 -0.0192 -0.2525 -0.0386
 1618W        W 5818  10.470   2.301   2.630  0.1237 -0.3661  0.0343
 1619W        W 5819   7.008   8.927   2.426 -0.3132 -0.1065  0.1002
 1620W        W 5820   5.791   7.113   1.277  0.0801 -0.2195 -0.1395
 1621W        W 5821   9.243   6.932   9.589  0.1430  0.1902  0.0761
 1622W        W 5822   7.972   6.388   1.060 -0.0624  0.1083  0.2145
 1623W        W 5823   8.191   4.788  12.889  0.1385 -0.3514  0.2644
 1624W        W 5824   5.262   3.194   9.855 -0.1913 -0.1482 -0.0264
 1625W        W 5825   9.581   4.132  12.751 -0.1862  0.1208 -0.2368
 1626W        W 5826   8.222   0.013   9.200  0.1579  0.2992  0.0519
 1627W        W 5827  10.030   6.234   0.785  0.0227  0.0587 -0.0650
 1628W        W 5828   1.884   3.670   3.271 -0.3445  0.3028 -0.0612
 1629W        W 5829   0.110   4.257   1.719 -0.0368 -0.3914 -0.1211
 1630W        W 5830   2.795   1.172   1.536 -0.0168  0.0103  0.1804
 1631W        W 5831   0.017   0.613  12.525  0.1104  0.0741  0.0870
 1632W        W 5832   6.459   8.619   0.944 -0.0572 -0.1085  0.2894
 1633W        W 5833   3.741   8.662   2.063  0.0786 -0.3908  0.1179
 1634W        W 5834   2.371   3.793   8.512  0.1452  0.2591 -0.0723
 1635W        W 5835   6.656   2.077  10.364 -0.1590 -0.1111  0.2792
 1636W        W 5836   2.774   2.375   0.226  0.0009 -0.1729  0.0991
 1637W        W 5837   4.962   4.692  12.076 -0.0710 -0.0370  0.0064
 1638W        W 5838   6.791   6.991   3.128 -0.0013 -0.0763  0.2177
 1639W        W 5839   9.503   9.821   2.750  0.2659  0.0941 -0.0999
 1640W        W 5840   8.996   7.808   4.955 -0.0328 -0.1159 -0.0700
 1641W        W 5841   2.067   2.789   1.471 -0.3769  0.1096  0.1557
 1642W        W 5842   3.935   7.858   0.848  0.0713  0.2358  0.0140
 1643W        W 5843   3.931  10.027   0.890  0.0411 -0.1176  0.0440
 1644W        W 5844   2.451   3.871  11.442  0.0239  0.2078 -0.0125
 1645W        W 5845   5.561   6.913  13.345 -0.4048 -0.1771  0.0403
 1646W        W 5846  10.026   6.128   3.822  0.2371 -0.0741 -0.1080
 1647W        W 5847   9.716  10.339  10.645 -0.2533  0.0485 -0.0975
 1648W        W 5848   8.555  10.063   3.720  0.1414 -0.2288 -0.1634
 1649W        W 5849   1.255   5.650   0.582 -0.2061 -0.0841  0.0838
 1650W        W 5850  10.143   3.006   5.067 -0.0794  0.0581  0.3103
 1651W        W 5851   1.366   1.609   9.565  0.2120 -0.0204 -0.0215
 1652W        W 5852   5.885   6.597  10.806  0.0295 -0.1052  0.2531
 1653W        W 5853   4.649   0.530  12.108 -0.1678  0.0464 -0.2770
 1654W        W 5854   7.978   4.396   4.367  0.0671 -0.0530  0.0820
 1655W        W 5855   9.128   5.992   5.360 -0.3044 -0.0529 -0.2027
 1656W        W 5856   4.388   9.656  11.402  0.1691  0.1606 -0.1488
 1657W        W 5857   4.971   1.160   9.390  0.1779 -0.0571  0.2464
 1658W        W 5858   9.349   6.870  11.991 -0.0387  0.2785  0.3174
 1659W        W 5859   7.736   3.095  13.071 -0.2344 -0.1358  0.0934
 1660W        W 5860   4.842   8.335   4.038  0.0674 -0.0837 -0.0178
 1661W        W 5861  10.484   6.588   8.760 -0.0753  0.3818 -0.1323
 1662W        W 5862   1.095   0.477   9.693  0.0895 -0.0103  0.2271
 1663W        W 5863   6.147   3.851  13.296 -0.0540  0.3136 -0.0478
 1664W        W 5864   4.561   2.163   8.552 -0.0541 -0.2919 -0.2957
 1665W        W 5865   3.487   7.556  13.348 -0.0255 -0.2535 -0.1663
 1666W        W 5866  10.027   2.872  10.597  0.0528 -0.4465 -0.2347
 1667W        W 5867   0.959   4.177   9.262 -0.0650  0.0274  0.1090
 1668W        W 5868   6.365   4.691  11.369 -0.0142 -0.2205  0.1280
 1669W        W 5869   8.944   0.788   2.286 -0.0801 -0.0256  0.0135
 1670W        W 5870   8.022   2.715   2.938  0.2724  0.0718  0.2872
 1671W        W 5871   6.496   1.324   3.091 -0.0857  0.2927 -0.0724
 1672W        W 5872   3.233   8.617   2.530 -0.3602  0.1988 -0.3904
 1673W        W 5873   4.421   1.916  10.474 -0.0203 -0.0371  0.1480
 1674W        W 5874   9.553   1.956   3.402  0.0556 -0.1678 -0.0713
 1675W        W 5875   3.582   4.781   0.525 -0.1378 -0.2946  0.0220
 1676W        W 5876   8.237   3.795   9.676 -0.2105  0.2625  0.0590
 1677W        W 5877  10.061   1.555  10.296  0.0252  0.1530  0.2952
 1678W        W 5878   5.711   7.588   1.367 -0.0912  0.1572  0.1026
 1679W        W 5879   2.993  10.430  12.716 -0.0967  0.1396 -0.0563
 1680W        W 5880   4.687   1.792   2.446 -0.0245  0.1284  0.1474
 1681W        W 5881   4.842   2.284   9.813 -0.3093 -0.0029 -0.2035
 1682W        W 5882   9.466   4.313   2.958 -0.1147 -0.2155 -0.0624
 1683W        W 5883   7.967   8.609   3.449  0.2611 -0.2433  0.1684
 1684W        W 5884   0.893   0.466   2.759 -0.3866 -0.2250  0.0381
 1685W        W 5885   8.288  10.171  10.445 -0.0242  0.0071  0.0831
 1686W        W 5886   6.800   7.655   4.550 -0.2191  0.2642 -0.3836
 1687W        W 5887   8.746   3.994  11.644  0.0404 -0.3441  0.2653
 1688W        W 5888   7.041   9.128   9.598  0.2016  0.0451 -0.1831
 1689W        W 5889   5.932   7.827   3.503  0.0434  0.1366  0.4036
 1690W        W 5890   2.161   3.325   2.705 -0.1327  0.1777 -0.2684
 1691W        W 5891   9.347   5.134   1.515  0.1650  0.1449 -0.0424
 1692W        W 5892   0.409   3.379   1.247  0.1009 -0.0452 -0.1884
 1693W        W 5893   4.541   0.853   2.335 -0.1093 -0.0796 -0.0170
 1694W        W 5894   1.886   6.138  11.502  0.2917  0.0708  0.0904
 1695W        W 5895   6.369   0.039   1.656  0.0753  0.2859  0.0550
 1696W        W 5896   4.321   7.230  10.151  0.1202  0.1581  0.1924
 1697W        W 5897   1.192   1.982   4.291 -0.1083 -0.3648 -0.3038
 1698W        W 5898   5.436   6.534  12.177 -0.0322 -0.4010  0.0496
 1699W        W 5899   8.426   2.567   1.922 -0.1815 -0.0184 -0.0184
 1700W        W 5900   9.010   6.070  10.606  0.0422 -0.0002 -0.0648
 1701W        W 5901   1.400   4.370   9.431 -0.0375 -0.1021 -0.1163
 1702W        W 5902   6.272   3.621   0.572  0.0949  0.1819 -0.1581
 1703W        W 5903   9.961   0.213   0.545  0.2849 -0.0397  0.2634
 1704W        W 5904   6.427   4.529  10.607  0.3276 -0.1655  0.0104
 1705W        W 5905   4.475   8.306   0.049 -0.0720  0.1124 -0.1099
 1706W        W 5906   5.772   7.367   9.593  0.2376  0.1799 -0.0960
 1707W        W 5907   7.452   5.083   0.442 -0.1798 -0.2319  0.0427
 1708W        W 5908   1.993   6.149   0.343  0.2933 -0.0537 -0.2550
 1709W        W 5909   9.962   4.964   1.220 -0.0421  0.0662  0.0714
 1710W        W 5910   8.930  10.269   2.005 -0.3081  0.1138 -0.1837
 1711W        W 5911   8.222   5.144  11.266  0.0863  0.0942  0.0804
 1712W        W 5912   7.614   8.931  12.023  0.3465  0.2825 -0.1050
 1713W        W 5913   5.433   0.030   8.762 -0.0522  0.1862 -0.1469
 1714W        W 5914   6.289   6.831  12.753 -0.1580  0.1018 -0.0028
 1715W        W 5915   1.905   6.741  10.141  0.1119  0.1473 -0.2206
 1716W        W 5916   3.707   3.285  12.681  0.0871  0.0715 -0.0913
 1717W        W 5917   6.515   2.754   2.030  0.0027 -0.0747  0.0719
 1718W        W 5918   7.267   2.067   2.131  0.1145  0.1011 -0.1144
 1719W        W 5919   7.968   3.526  13.345 -0.6398  0.2855  0.3018
 1720W        W 5920   3.702   2.021   4.691  0.2374  0.1202  0.1736
 1721W        W 5921   1.398   9.926  12.887 -0.2064  0.2549  0.2015
 1722W        W 5922   9.092   5.721   2.631 -0.0754 -0.3223  0.0954
 1723W        W 5923   7.144  10.367  11.321  0.1568  0.1863  0.1862
 1724W        W 5924   9.591   1.630  10.457 -0.2064  0.2038 -0.0903
 1725W        W 5925   2.248   9.459   3.337 -0.0284  0.0002  0.1784
 1726W        W 5926   6.247   9.103   1.142  0.1928  0.1484  0.0462
 1727W        W 5927   4.319   0.449   2.592  0.2823  0.0381 -0.3502
 1728W        W 5928   3.858   9.050  12.172 -0.1527  0.1156 -0.1479
 1729W        W 5929   1.666   5.648  12.551  0.1850  0.1108 -0.1830
 1730W        W 5930  10.364   3.459  12.919  0.1433  0.1995  0.0355
 1731W        W 5931   9.457   8.635   0.524  0.0040 -0.2931 -0.2458
 1732W        W 5932   1.508  10.408   0.356 -0.0717  0.0294  0.0544
 1733W        W 5933   3.674   3.219   9.507  0.3794  0.2068 -0.2431
 1734W        W 5934   7.942   7.836   5.173 -0.1167  0.0090 -0.3557
 1735W        W 5935   1.890   5.311   5.031 -0.1905  0.0234 -0.2204
 1736W        W 5936   9.994   7.762   2.370  0.1224 -0.1892  0.0337
 1737W        W 5937   3.707   0.088   1.395 -0.1201  0.4328  0.1563
 1738W        W 5938   4.700   5.399   1.027 -0.3768  0.0237  0.0072
 1739W        W 5939   0.811   5.563   4.699  0.2793  0.1238  0.0485
 1740W        W 5940   5.458   2.736   3.264 -0.1300 -0.2046 -0.2648
 1741W        W 5941   7.916   0.887  12.639  0.0122 -0.2088  0.4222
 1742W        W 5942   4.049   3.967  10.673 -0.0494 -0.2100  0.0927
 1743W        W 5943   3.749   2.086   1.737 -0.0264 -0.0494 -0.2165
 1744W        W 5944   7.805   8.164  12.240 -0.0901  0.0548  0.2972
 1745W        W 5945   6.876   2.113   1.816 -0.1467  0.3440  0.0921
 1746W        W 5946   5.531   2.203   2.915 -0.0815  0.0444 -0.2254
 1747W        W 5947   6.052   1.600   3.731 -0.0168 -0.1890 -0.1479
 1748W        W 5948   8.771   3.680  13.275 -0.3253 -0.0879 -0.2485
 1749W        W 5949   3.870   9.022  10.383  0.0683  0.1851  0.0040
 1750W        W 5950  10.088   4.586   1.813 -0.1001 -0.1821  0.0941
 1751W        W 5951   2.097  10.149  12.465 -0.1500  0.1380  0.2302
 1752W        W 5952   6.654   6.591   9.434 -0.1744  0.0751  0.0839
 1753W        W 5953   0.573   1.208  10.162  0.2004 -0.0252  0.0062
 1754W        W 5954   9.534   4.612   0.307 -0.1105  0.0982  0.1012
 1755W        W 5955   2.055   8.049   0.657 -0.0145  0.0864 -0.2709
 1756W        W 5956   1.304   3.401  11.838  0.2998  0.2212 -0.2602
 1757W        W 5957  10.167  10.375  13.130 -0.1513  0.1695 -0.4917
 1758W        W 5958   0.344   2.561   1.577 -0.0087 -0.1802  0.0239
 1759W        W 5959   4.241   7.367  11.551  0.1448 -0.1828 -0.2672
 1760W        W 5960   4.015   6.426  12.415  0.0515  0.0279  0.1378
 1761W        W 5961   2.549   4.100   0.637 -0.0280 -0.1588 -0.2978
 1762W        W 5962   7.590   0.365   4.181 -0.1165 -0.0156  0.2205
 1763W        W 5963   8.541   6.842   4.888  0.0528  0.0520  0.0799
 1764W        W 5964   3.440   1.362   0.521  0.0422 -0.0243 -0.3946
 1765W        W 5965   5.945   8.017  12.169  0.2871 -0.1924 -0.0647
 1766W        W 5966   1.892   4.678   2.880  0.2154  0.0950  0.2522
 1767W        W 5967   8.047   0.973   1.794  0.0586 -0.1337 -0.0961
 1768W        W 5968   4.660   3.915   1.622 -0.3828  0.0388  0.3389
 1769W        W 5969  10.142   1.140   1.646 -0.0934 -0.0484 -0.1408
 1770W        W 5970   5.945   0.830  11.246 -0.0651  0.3378 -0.0874
 1771W        W 5971   8.257   6.225  12.745 -0.1117  0.2187 -0.0887
 1772W        W 5972   1.365   2.335   2.903 -0.0465  0.0483  0.1804
 1773W        W 5973   4.116   5.857   3.098  0.0722 -0.2822  0.0941
 1774W        W 5974   0.329   4.293   3.829 -0.3405  0.1460  0.2563
 1775W        W 5975   8.527   2.134  12.685  0.0333  0.1521  0.2043
 1776W        W 5976   6.303   5.184   9.298  0.2388  0.0590  0.1378
 1777W        W 5977   6.781   9.638   1.738  0.4237  0.0620 -0.0176
 1778W        W 5978   3.956   2.221   0.711  0.0659  0.2574  0.2886
 1779W        W 5979   9.051   4.007   9.349  0.3023 -0.1521  0.2948
 1780W        W 5980   6.498   1.273   2.360 -0.3221 -0.0421  0.0844
 1781W        W 5981   8.492   4.889   4.894 -0.1631  0.2605 -0.0120
 1782W        W 5982   4.780   7.069  11.003  0.0867  0.2163  0.2063
 1783W        W 5983   7.280   0.186   3.877 -0.0974 -0.1750 -0.1669
 1784W        W 5984   1.742   4.054   3.654 -0.0629 -0.2598 -0.0677
 1785W        W 5985   8.626   2.120   0.531  0.0260  0.1724 -0.2019
 1786W        W 5986   7.906   4.199   9.814  0.0860  0.0775  0.1740
 1787W        W 5987   2.409   2.631   9.408 -0.0727 -0.1792  0.0187
 1788W        W 5988   5.162   0.910   0.902 -0.1037  0.1784  0.2177
 1789W        W 5989   3.420   4.191  10.035 -0.2645 -0.1091 -0.2714
 1790W        W 5990   9.103   5.265   4.139 -0.1738 -0.0459  0.1257
 1791W        W 5991   6.567   0.777   3.436 -0.2261 -0.1066 -0.3507
 1792W        W 5992   5.340   7.465   9.295 -0.3463 -0.3463 -0.0336
 1793W        W 5993   0.150   4.011   1.275 -0.3705 -0.1401 -0.0317
 1794W        W 5994   3.247   7.415  11.194  0.0311  0.0388  0.1705
 1795W        W 5995   3.325   1.838  13.178 -0.0891  0.4089 -0.2626
 1796W        W 5996   3.269   0.825  12.764 -0.0728 -0.0500 -0.3763
 1797W        W 5997   1.205   5.204  11.599  0.1012  0.0105 -0.2766
 1798W        W 5998   1.551   3.621   3.683  0.0410 -0.0656  0.3388
 1799W        W 5999   5.576   0.985  12.416 -0.1313 -0.1122  0.1519
 1800W        W 6000   4.232   3.620   1.644  0.1017 -0.0293  0.5073
 1801W        W 6001   6.172   2.966   9.442  0.0183  0.3915  0.1505
 1802W        W 6002   2.539   8.038  11.203 -0.1006 -0.0265  0.2967
 1803W        W 6003   4.511   1.506   1.222 -0.2302 -0.1853 -0.2410
 1804W        W 6004   3.190   3.490   0.960 -0.0517 -0.1910  0.1081
 1805W        W 6005  10.314   2.984  13.018  0.1227  0.4532  0.0185
 1806W        W 6006   6.700   2.428   0.780  0.1523 -0.2287 -0.2763
 1807W        W 6007   7.912   1.415   1.256 -0.1241 -0.0153  0.2046
 1808W        W 6008   7.600   5.628   0.203  0.1191 -0.0213  0.0810
 1809W        W 6009   9.436   9.987  12.061  0.0878  0.0894  0.2103
 1810W        W 6010   4.138   0.012   2.897 -0.3541  0.0470  0.2328
 1811W        W 6011   5.377   8.222  12.941 -0.1692 -0.0018  0.0579
 1812W        W 6012   7.453   9.398  11.167 -0.1266  0.0083  0.0310
 1813W        W 6013   6.959   4.709  12.239 -0.0335 -0.0449  0.1698
 1814W        W 6014   7.073   9.771  10.621  0.0450  0.1906 -0.2501
 1815W        W 6015   9.568   2.064  13.063  0.0204 -0.0679 -0.0835
 1816W        W 6016   4.338   9.772  12.539  0.0184 -0.0220  0.1199
 1817W        W 6017   7.905   7.194   3.016  0.1372 -0.1239  0.4138
 1818W        W 6018   1.473   2.213   3.826  0.1244  0.1880  0.0121
 1819W        W 6019   4.622   8.644   1.620 -0.1011 -0.1549  0.2806
 1820W        W 6020   5.067   2.521   2.866 -0.1234 -0.0392 -0.3462
 1821W        W 6021   9.206   5.393  12.134 -0.0565 -0.0811 -0.0009
 1822W        W 6022  10.182   8.129  10.646  0.1860  0.1300  0.0402
 1823W        W 6023   0.927   4.742  12.086 -0.0013  0.2772 -0.0620
 1824W        W 6024   4.499   8.839   2.175 -0.2067  0.0122 -0.0684
 1825W        W 6025   9.581   3.762   5.215 -0.2414  0.1255  0.0070
 1826W        W 6026   1.332   6.290   4.717  0.1179 -0.0554  0.0559
 1827W        W 6027   3.456   0.839  12.267 -0.2468 -0.1361  0.1310
 1828W        W 6028   1.295   2.834   1.352  0.3106  0.1795  0.0529
 1829W        W 6029   8.002   3.184   8.796  0.0557 -0.0600 -0.1331
 1830W        W 6030   8.114   9.400  10.498  0.0460 -0.1331  0.5084
 1831W        W 6031   2.073   6.677   0.844  0.1272 -0.1475 -0.0836
 1832W        W 6032   4.013   1.235   9.451 -0.1815 -0.0551 -0.3039
 1833W        W 6033   8.377   4.303  12.817 -0.3567  0.0390  0.0590
 1834W        W 6034   3.485   2.857   1.463  0.0859  0.1356  0.0422
 1835W        W 6035   9.781   0.960   9.355 -0.0422  0.0553  0.1447
 1836W        W 6036  10.304   0.762  12.999  0.0591 -0.2258  0.1205
 1837W        W 6037   8.718   8.902   4.416  0.4038  0.0501  0.1023
 1838W        W 6038  10.033   8.000   0.201 -0.1148 -0.0773  0.1634
 1839W        W 6039   2.874   4.527   5.293 -0.2815  0.0937  0.1772
 1840W        W 6040   9.369   2.378   1.859  0.2108  0.2698 -0.0866
 1841W        W 6041   9.053   6.596   2.628  0.0430 -0.3010  0.1337
 1842W        W 6042   3.181   7.782  10.653 -0.1276  0.2091 -0.1054
 1843W        W 6043  10.164   3.041   0.987  0.2351 -0.0866  0.1621
 1844W        W 6044   3.275   6.356   3.135 -0.3778  0.1894  0.3359
 1845W        W 6045   3.960   0.073  12.799 -0.1305  0.1556 -0.0703
 1846W        W 6046   9.957   4.306   0.456 -0.0082  0.1381 -0.0008
 1847W        W 6047   4.284   1.898   0.945  0.1868  0.1461  0.1550
 1848W        W 6048   6.082   9.766  13.042  0.1073  0.0147 -0.2355
 1849W        W 6049   1.034   3.194  12.224  0.0457  0.2261  0.0183
 1850W        W 6050   8.136   2.858  12.186  0.0199 -0.1036  0.1264
 1851W        W 6051  10.327   2.146   0.901 -0.0683  0.0169  0.1082
 1852W        W 6052   7.005  10.414  12.154  0.1456 -0.0893  0.0400
 1853W        W 6053   5.834   0.112   0.790 -0.1483 -0.1172  0.0480
 1854W        W 6054   3.132   1.031  10.457  0.0863  0.2224 -0.0508
 1855W        W 6055   7.380   9.175  13.308 -0.0962  0.0286  0.1511
 1856W        W 6056   3.159   6.839   1.384 -0.2772 -0.1543 -0.0369
 1857W        W 6057   9.900   9.428   9.499 -0.1940 -0.0716 -0.0138
 1858W        W 6058   5.141  10.051   1.724 -0.1946 -0.3393 -0.0412
 1859W        W 6059   0.629   9.068   3.498 -0.0149  0.0004 -0.0473
 1860W        W 6060   4.797   8.461  10.967 -0.1634  0.3457 -0.0852
 1861W        W 6061   8.032   6.712  12.602  0.2211 -0.0891  0.0624
 1862W        W 6062   6.622   0.876  12.428 -0.0532  0.0425  0.2912
 1863W        W 6063   0.960   3.418   0.200 -0.1628  0.1399 -0.2368
 1864W        W 6064  10.047   7.209   3.445 -0.1074  0.0458  0.1403
 1865W        W 6065   7.444   4.590   3.268  0.2359 -0.1923 -0.1735
 1866W        W 6066   4.603   2.927   3.634  0.1633 -0.0986  0.0041
 1867W        W 6067  10.287   3.259   2.527  0.0903  0.0501 -0.1346
 1868W        W 6068   1.258   4.937  10.601 -0.2332  0.0596  0.0123
 1869W        W 6069   4.123   2.061   9.125 -0.1050 -0.1932 -0.1810
 1870W        W 6070   4.022   6.797   2.872 -0.1060 -0.1749 -0.1100
 1871W        W 6071   8.513   7.100   0.709 -0.1102  0.1278  0.0040
 1872W        W 6072  10.365   6.156   2.025  0.0511 -0.0747  0.1391
 1873W        W 6073   9.029   9.490  11.445 -0.2056 -0.0852  0.0354
 1874W        W 6074   2.834   8.699   3.495 -0.3318 -0.0737  0.0069
 1875W        W 6075   7.724   4.773  11.053 -0.0964  0.0129 -0.0287
 1876W        W 6076   8.853   3.318   9.846 -0.0552 -0.0179  0.2075
 1877W        W 6077   6.842   1.523   2.641  0.1369  0.3064  0.0139
 1878W        W 6078   5.063   1.104  13.287 -0.2163  0.0168 -0.0754
 1879W        W 6079   6.093   3.112   9.919 -0.2115 -0.0998  0.6009
 1880W        W 6080   8.936   2.930   1.474 -0.0035 -0.3234 -0.1925
 1881W        W 6081   1.609   5.780   1.022 -0.4232  0.2312  0.0528
 1882W        W 6082   9.419   9.505   0.439 -0.1128 -0.1540  0.0598
 1883W        W 6083   0.994   3.344   8.811 -0.2919 -0.1302 -0.2972
 1884W        W 6084   9.630  10.314   9.505 -0.2273 -0.0268 -0.2540
 1885W        W 6085   0.899   1.992   2.548 -0.0838 -0.0473  0.0304
 1886W        W 6086   2.443   3.079  13.221  0.0477 -0.1561  0.0117
 1887W        W 6087   9.489   2.111   3.902 -0.0244 -0.0389  0.0707
 1888W        W 6088   4.360   6.371  12.795  0.0505 -0.1529  0.0597
 1889W        W 6089   1.021   1.341  10.914 -0.1041  0.0965 -0.2557
 1890W        W 6090   7.833   2.950  11.765 -0.4525  0.0356  0.1170
 1891W        W 6091   4.867   6.288  12.979  0.3146  0.0191  0.1080
 1892W        W 6092   2.154   3.117  10.514 -0.3418  0.1132 -0.2242
 1893W        W 6093   1.839   1.432  12.143  0.1997  0.0271 -0.2576
 1894W        W 6094   8.319   1.795  12.163  0.1094 -0.1094 -0.0489
 1895W        W 6095   1.722   8.654   1.790  0.1560  0.0367  0.3803
 1896W        W 6096   6.338   8.331  12.284  0.2816  0.2084  0.0627
 1897W        W 6097   0.373   9.507   9.317 -0.0707 -0.3811 -0.2345
 1898W        W 6098   8.422   3.084   5.235  0.2482  0.0159 -0.0087
 1899W        W 6099   2.323  10.459  11.099  0.3015  0.2311 -0.1717
 1900W        W 6100   2.300   8.554   3.597  0.0424  0.2482  0.2609
 1901W        W 6101   1.571   7.589  10.724  0.1421  0.1640 -0.1755
 1902W        W 6102   5.033   6.438   4.263 -0.1119  0.2881 -0.2022
 1903W        W 6103   5.282   2.057   4.386  0.0185  0.1138 -0.2375
 1904W        W 6104   7.876   7.973   0.973 -0.0306  0.1511 -0.0142
 1905W        W 6105   8.754   6.210  13.105  0.0417 -0.1375  0.1298
 1906W        W 6106   7.378   3.306   0.674  0.3498  0.1753  0.1058
 1907W        W 6107   6.062   4.615  12.686 -0.2307 -0.0475 -0.0763
 1908W        W 6108   3.898   8.945  12.722  0.1083  0.0043 -0.0848
 1909W        W 6109   6.374   7.661   4.918  0.1482 -0.0830  0.2117
 1910W        W 6110   5.337   4.690   9.695  0.1163 -0.0397 -0.0793
 1911W        W 6111   4.739   0.536  11.298 -0.0946 -0.0356  0.1828
 1912W        W 6112   7.748   9.464   3.592 -0.0680 -0.4465 -0.2084
 1913W        W 6113   0.595   3.061  12.555 -0.2558  0.1158 -0.0362
 1914W        W 6114   4.376   4.455   1.249  0.0936  0.0601  0.2685
 1915W        W 6115   1.393   6.256   8.634  0.1111 -0.0858  0.1413
 1916W        W 6116   7.998   5.700  13.365  0.0150 -0.0531  0.0299
 1917W        W 6117   0.844   8.851  11.405  0.1520  0.2640 -0.2467
 1918W        W 6118   0.098   8.396   1.620 -0.0014  0.0283 -0.0226
 1919W        W 6119   0.088   5.784  12.135 -0.0376  0.0914 -0.1973
 1920W        W 6120   4.068   4.914  11.564 -0.1722 -0.0248 -0.0214
 1921W        W 6121   3.158   4.830  12.034  0.1476 -0.0121  0.0100
 1922W        W 6122   0.123   4.206  10.929 -0.0396  0.3100 -0.3385
 1923W        W 6123   8.870   7.339  12.390 -0.0426 -0.0741 -0.2385
 1924W        W 6124   5.706   9.021   0.024 -0.0001 -0.1574  0.0952
 1925W        W 6125   2.722   0.962  10.720 -0.2179 -0.0278  0.0400
 1926W        W 6126   4.840   7.736   9.481  0.0923  0.2969  0.0776
 1927W        W 6127   6.781   1.370  12.167  0.1730 -0.2741  0.0374
 1928W        W 6128  10.235   5.103   1.632 -0.2193  0.4319 -0.1217
 1929W        W 6129   6.088   1.331   0.713 -0.1694 -0.2371 -0.0448
 1930W        W 6130   3.155   7.859   9.925  0.4480 -0.1805 -0.1390
 1931W        W 6131   5.184   4.980   4.138  0.0530 -0.0255  0.1469
 1932W        W 6132   1.336   2.007   9.885 -0.0421  0.3474  0.1221
 1933W        W 6133   6.685   7.815  13.349  0.0673 -0.0104  0.0122
 1934W        W 6134   8.608   3.535   5.167 -0.0099 -0.0603 -0.4092
 1935W        W 6135   7.909   3.640   8.567  0.1026  0.3952 -0.2103
 1936W        W 6136   1.102   1.907  11.007 -0.0503  0.1572  0.0251
 1937W        W 6137   4.118   4.560   9.532  0.0688 -0.1757 -0.1762
 1938W        W 6138   7.269   3.938  11.406 -0.2785  0.5560  0.1127
 1939W        W 6139   1.276   1.873  10.551  0.0442  0.2339 -0.2824
 1940W        W 6140   9.211   4.421  10.423 -0.1987  0.2660 -0.2721
 1941W        W 6141   9.486   1.083   2.205  0.0023  0.1739 -0.1924
 1942W        W 6142   4.234   8.217   2.451  0.1933  0.0851  0.1320
 1943W        W 6143   6.299   9.320   3.029  0.0065 -0.0375 -0.1145
 1944W        W 6144   7.914   4.240   4.861 -0.0806 -0.1160 -0.3140
 1945W        W 6145   8.265   4.959   3.944  0.2481 -0.0734  0.1857
 1946W        W 6146   2.065   1.678   9.309 -0.0260  0.0836 -0.4664
 1947W        W 6147   0.587   4.293   8.942  0.2347  0.1120 -0.0520
 1948W        W 6148   4.867   7.732   3.396  0.0066  0.2645  0.1558
 1949W        W 6149   2.019   7.759   2.886 -0.1381 -0.1334 -0.1505
 1950W        W 6150   8.980   6.919  10.013 -0.1620  0.1468  0.1400
 1951W        W 6151   3.527   6.480  12.483 -0.4481 -0.3791  0.0024
 1952W        W 6152   3.842   2.154  11.931  0.3338  0.0286  0.0700
 1953W        W 6153   3.608   9.323  12.951  0.4112  0.0788  0.0050
 1954W        W 6154   9.555   5.478  11.801  0.3100 -0.1079  0.0936
 1955W        W 6155   3.227   9.451  13.289  0.2176  0.0393 -0.0356
 1956W        W 6156   6.722   7.140   1.274 -0.0107  0.2304 -0.1180
 1957W        W 6157   6.076  10.277  13.263 -0.2003  0.0264 -0.1408
 1958W        W 6158   4.699   2.565  11.494 -0.0521  0.0973  0.3231
 1959W        W 6159   2.773   8.340   2.798  0.1680 -0.2107  0.0690
 1960W        W 6160   4.495   9.174   3.114 -0.1525 -0.4000  0.1602
 1961W        W 6161   4.351   8.883   3.551  0.4625  0.2304  0.4925
 1962W        W 6162   2.246   1.583   2.159  0.1703  0.0207 -0.3481
 1963W        W 6163   5.420   2.762   2.238  0.0249 -0.1186  0.0808
 1964W        W 6164   8.152   6.100   9.903  0.0577  0.1174  0.4441
 1965W        W 6165   0.141   5.122   1.242 -0.0212 -0.1343  0.1172
 1966W        W 6166   8.134   0.603   2.721  0.0825 -0.2511  0.2022
 1967W        W 6167   8.899   9.543   1.484 -0.0912  0.0164 -0.1931
 1968W        W 6168   5.985   9.571   0.810 -0.0556  0.1292  0.2563
 1969W        W 6169   1.175   0.666   1.719 -0.1111  0.0792  0.2376
 1970W        W 6170   5.417   5.856  10.334  0.0690  0.1071  0.2624
 1971W        W 6171   0.117   9.599   0.080  0.1205  0.2329 -0.1279
 1972W        W 6172   4.862   5.647   0.365 -0.0344 -0.2146  0.0464
 1973W        W 6173   0.193   3.539  12.528 -0.0570  0.1512 -0.0881
 1974W        W 6174   7.935   5.181  10.785 -0.1767  0.0168 -0.1598
 1975W        W 6175   5.704   5.879   4.680 -0.2858 -0.3999  0.0679
 1976W        W 6176   3.879   3.820   1.956  0.1149  0.2330 -0.2166
 1977W        W 6177   1.321   2.794   5.183  0.0372  0.1719  0.1044
 1978W        W 6178  10.454   4.615   0.573 -0.0764 -0.1830  0.0718
 1979W        W 6179   8.028   8.237  11.715  0.0079 -0.3133 -0.7200
 1980W        W 6180   5.605   0.342   9.535 -0.0570 -0.2927  0.0910
 1981W        W 6181   4.831   4.213   3.310 -0.0112  0.0097  0.0653
 1982W        W 6182   8.015   8.318  10.532 -0.2640  0.0296 -0.0571
 1983W        W 6183   6.041   8.079  10.884 -0.1112 -0.0781 -0.1785
 1984W        W 6184   5.990   7.321   2.350  0.2037  0.3679 -0.3048
 1985W        W 6185   0.647   0.552   0.872 -0.2576  0.0701  0.0511
 1986W        W 6186   6.533   6.411  13.291  0.1050  0.1898  0.0690
 1987W        W 6187   5.668   7.667   4.533  0.0663 -0.0780 -0.0372
 1988W        W 6188   1.984   9.003   3.638  0.1675 -0.0356 -0.2190
 1989W        W 6189   2.354   1.180   3.782 -0.0983  0.0081 -0.1279
 1990W        W 6190   3.096   3.263   1.533  0.1471  0.0310 -0.2135
 1991W        W 6191   1.813   2.595   2.984 -0.1322  0.2772  0.0148
 1992W        W 6192   1.584   7.129   3.508  0.1471  0.1384 -0.2621
 1993W        W 6193   1.145   1.397  12.013 -0.2625  0.0325  0.1267
 1994W        W 6194   0.238   3.640  11.540  0.0126  0.0570  0.1156
 1995W        W 6195   5.208   1.963   1.735  0.2271  0.0565  0.0729
 1996W        W 6196   0.473   8.992  11.839  0.2887  0.1537  0.0845
 1997W        W 6197   8.896   1.044  12.525 -0.0721 -0.2635 -0.0522
 1998W        W 6198   9.637   7.560  10.448  0.1970  0.0167 -0.0850
 1999W        W 6199   1.205   1.380   2.577 -0.1638  0.3573  0.0398
 2000W        W 6200   7.635   5.987   3.211  0.1830  0.1880 -0.3001
 2001W        W 6201   6.333  10.369  11.734  0.1135  0.1215 -0.1002
 2002W        W 6202   7.365   0.615   3.200  0.1962  0.0236 -0.2222
 2003W        W 6203   9.834  10.451   0.107  0.0654  0.2253 -0.0475
 2004W        W 6204  10.252   1.003  10.428 -0.1637  0.4936 -0.1411
 2005W        W 6205   0.018   8.409  12.466  0.2150  0.2873 -0.1182
 2006W        W 6206   0.017   3.268  11.251  0.2612  0.1415  0.0235
 2007W        W 6207   4.118   1.888  11.559  0.1873 -0.2085  0.1852
 2008W        W 6208   5.044   6.530   5.083  0.1110 -0.0923  0.0612
 2009W        W 6209   3.650   2.955  12.209 -0.1852 -0.1261  0.2149
 2010W        W 6210   1.253   9.370   4.268 -0.0460  0.3197 -0.0977
 2011W        W 6211   9.093   3.314  10.711  0.3138 -0.0577  0.2052
 2012W        W 6212   5.862   2.606   4.007  0.1793  0.1197 -0.0418
 2013W        W 6213   3.368   2.146  11.972  0.1874  0.1784 -0.3259
 2014W        W 6214   8.174   3.796  10.245  0.0707 -0.0654  0.0245
 2015W        W 6215   7.867   9.799   0.304  0.0607 -0.2231  0.0845
 2016W        W 6216   4.193   5.342  11.353  0.1913 -0.0934 -0.0380
 2017W        W 6217   9.375  10.211   2.505  0.1944  0.2033 -0.0350
 2018W        W 6218  10.199   7.657  10.063 -0.0166 -0.1504  0.1052
 2019W        W 6219   5.722   3.539   3.043  0.2059 -0.0117 -0.1103
 2020W        W 6220   3.681   2.672  10.507  0.0695 -0.0607  0.0511
 2021W        W 6221   4.332   9.658   1.240 -0.0118 -0.0012 -0.3677
 2022W        W 6222   0.592   0.687   8.855  0.2306  0.1658 -0.3634
 2023W        W 6223  10.136   2.360   4.420  0.0890  0.1185  0.3814
 2024W        W 6224  10.413   9.794   0.519  0.2453  0.1184 -0.0311
 2025W        W 6225   5.961   3.447   0.907 -0.0114 -0.2070 -0.0860
 2026W        W 6226   9.434   5.085   1.011  0.1968 -0.1306 -0.1347
 2027W        W 6227   7.574   7.052   0.529 -0.1824 -0.1094 -0.1355
 2028W        W 6228   5.117   5.165  10.963  0.2949 -0.1396 -0.1504
 2029W        W 6229   8.640   5.051   8.665 -0.0962  0.2960 -0.0396
 2030W        W 6230   1.073   4.302   3.163  0.1160 -0.1876 -0.0190
 2031W        W 6231   4.376   8.193  10.108 -0.1298 -0.1288  0.0187
 2032W        W 6232   4.500   4.567   4.574  0.3162 -0.1855  0.1400
 2033W        W 6233   9.571   7.277   3.203 -0.1697 -0.1387  0.1953
 2034W        W 6234   5.383   8.067   2.659  0.4217 -0.1747 -0.1034
 2035W        W 6235   9.317   6.050   1.921  0.0603  0.0577  0.0566
 2036W        W 6236   3.528   5.613  10.183  0.0749 -0.0692 -0.1322
 2037W        W 6237   0.061   3.543   1.621 -0.2087  0.2135 -0.0674
 2038W        W 6238   1.138   7.542   4.352  0.1827 -0.1582 -0.0569
 2039W        W 6239   6.495   0.781  10.290  0.1735 -0.1418  0.2330
 2040W        W 6240   2.887   1.895   3.873  0.1418  0.1018 -0.3394
 2041W        W 6241   0.961   6.279   4.341  0.2369  0.0431  0.1605
 2042W        W 6242   6.759   2.979   0.656  0.3052 -0.2594 -0.0923
 2043W        W 6243   7.976   1.710  11.429  0.2600  0.1302 -0.4017
 2044W        W 6244   4.384   6.482   9.611  0.1845  0.4728  0.2323
 2045W        W 6245   7.249   0.079   0.035 -0.1691 -0.1731 -0.0300
 2046W        W 6246  10.102   6.814   9.714 -0.0882  0.1118 -0.0526
 2047W        W 6247   3.797   8.910   1.129 -0.1016  0.0017  0.0255
 2048W        W 6248   1.222   8.245   0.111 -0.2051 -0.0300  0.0718
 2049W        W 6249   3.702   5.012   1.714  0.1103 -0.3097 -0.0640
 2050W        W 6250   6.083   7.889   3.067 -0.0112  0.1599 -0.1266
 2051W        W 6251   0.784   2.569  12.711 -0.2935  0.2505  0.3645
 2052W        W 6252   3.917   1.438   2.434 -0.0864 -0.1053  0.1906
 2053W        W 6253   3.121   2.806   3.153  0.1460  0.2225  0.0873
 2054W        W 6254   1.244   1.109  10.271 -0.0320 -0.3411 -0.1642
 2055W        W 6255   5.168   7.804   2.983  0.2198  0.0266 -0.1540
 2056W        W 6256   9.474   1.157  11.276 -0.0118 -0.0258  0.0967
 2057W        W 6257   5.657   8.179   3.767  0.0251  0.2329  0.2650
 2058W        W 6258   4.950   8.405  13.244 -0.0960 -0.3223  0.0285
 2059W        W 6259   1.474   8.606  12.047  0.1467  0.1671  0.2169
 2060W        W 6260   7.362   9.665   8.255 -0.0243  0.0509  0.0920
 2061W        W 6261   4.455   1.688  12.639  0.0588  0.0343 -0.2077
 2062W        W 6262   1.847   4.424   0.906  0.2773 -0.1756  0.1425
 2063W        W 6263   4.317   1.090  11.988 -0.0569 -0.0464  0.0625
 2064W        W 6264   8.846   4.151  13.355 -0.0918  0.0153  0.2570
 2065W        W 6265   2.565   0.854  12.878  0.0311 -0.2250 -0.1512
 2066W        W 6266   9.161   5.572   9.233 -0.2774  0.0803 -0.3324
 2067W        W 6267   6.102   4.471  10.197  0.1314 -0.1368  0.1138
 2068W        W 6268   5.601   4.887   2.035  0.0832  0.1909 -0.0788
 2069W        W 6269  10.287   9.901   8.848  0.1231  0.1669 -0.0491
 2070W        W 6270   5.705   4.120   2.705  0.1749  0.1285  0.3371
 2071W        W 6271   6.652   6.498  12.706 -0.0437  0.1412  0.1221
 2072W        W 6272   0.157   1.919   3.015  0.0498 -0.0245  0.2415
 2073W        W 6273   5.729   8.718   3.152 -0.2027  0.1164  0.4348
 2074W        W 6274   0.659   5.213   1.182  0.2969 -0.0703  0.0102
 2075W        W 6275  10.372   3.548   3.519  0.2611  0.2935  0.0433
 2076W        W 6276   0.922   7.811  11.687 -0.0069 -0.0710  0.2503
 2077W        W 6277   1.455   0.014   2.863 -0.0073  0.1102  0.0687
 2078W        W 6278   7.008   1.602   4.318 -0.1224 -0.1656  0.1508
 2079W        W 6279   0.865   7.680   3.873  0.0281  0.0558 -0.1746
 2080W        W 6280   5.609  10.325  10.486 -0.0988 -0.0771  0.2196
 2081W        W 6281   7.456   2.728   2.835  0.1464 -0.4249  0.0577
 2082W        W 6282   5.798   5.485   1.909 -0.2179 -0.0089 -0.0153
 2083W        W 6283   9.344   5.121   2.060 -0.1048 -0.0811  0.3401
 2084W        W 6284   9.267   8.365   3.655 -0.1190  0.2301  0.1940
 2085W        W 6285   1.989   5.437   1.037 -0.0128 -0.0707 -0.2122
 2086W        W 6286   5.743   8.588   9.934 -0.0055  0.2297  0.0602
 2087W        W 6287   0.019   2.042   2.179 -0.2829 -0.0610  0.0681
 2088W        W 6288   2.902   6.986   2.543  0.1301 -0.1533  0.0013
 2089W        W 6289   2.582   5.611  11.111 -0.0434 -0.1157  0.0346
 2090W        W 6290   5.602   0.583  11.731  0.1291  0.1795 -0.0840
 2091W        W 6291   4.479   5.330  10.617  0.2433 -0.1393 -0.1416
 2092W        W 6292   8.014   9.798  10.918 -0.0444 -0.1942  0.2885
 2093W        W 6293   5.902   4.264  10.693 -0.3278 -0.0394  0.0296
 2094W        W 6294   1.339   5.434  12.895  0.0730 -0.0937  0.1650
 2095W        W 6295   5.767   5.318  10.097 -0.1546  0.2690 -0.0117
 2096W        W 6296   0.676   4.174   3.467  0.1023 -0.0291 -0.5497
 2097W        W 6297   4.465   5.513  10.053 -0.0109 -0.1907 -0.2471
 2098W        W 6298   9.332   9.522   4.266  0.3688  0.1934 -0.0960
 2099W        W 6299   3.992   3.400   2.612 -0.0435  0.0351 -0.3645
 2100W        W 6300   7.287   6.774  11.344 -0.1048  0.0253 -0.3144
 2101W        W 6301   3.684   5.681   0.413  0.1390 -0.1845 -0.0528
 2102W        W 6302  10.049   8.891   0.086 -0.0154 -0.3195 -0.1138
 2103W        W 6303   4.084   2.877   2.721  0.2289  0.0946 -0.3140
 2104W        W 6304   3.658   5.497   2.424  0.2357 -0.1059  0.1363
 2105W        W 6305   3.525   3.168   8.941 -0.2214 -0.1638 -0.1468
 2106W        W 6306   4.567   8.330  12.223  0.0731 -0.0823 -0.1243
 2107W        W 6307   9.276   5.026   0.054  0.1367 -0.2938 -0.3800
 2108W        W 6308   0.387   4.914   4.405 -0.1943 -0.0136 -0.0529
 2109W        W 6309   2.807   4.373  11.192 -0.1330 -0.0768 -0.2429
 2110W        W 6310   4.029   2.878   0.038  0.1379  0.2084 -0.3467
 2111W        W 6311   9.682  10.113   3.201  0.0195  0.1576 -0.0819
 2112W        W 6312   3.070   3.768   0.333  0.0897 -0.3709  0.0514
 2113W        W 6313   2.516   6.854   2.897  0.1333  0.2659 -0.5453
 2114W        W 6314   1.402   4.961   4.265  0.1004  0.1648 -0.1576
 2115W        W 6315   5.259   4.512   3.362  0.0844  0.0606 -0.1387
 2116W        W 6316   1.515   0.136   3.394 -0.2421  0.1186 -0.1925
 2117W        W 6317  10.463   5.020  10.001 -0.1705 -0.2477  0.1956
 2118W        W 6318   3.964   4.142   2.417  0.0198  0.1487 -0.1101
 2119W        W 6319   7.812   3.947   5.327 -0.0961  0.1784 -0.4380
 2120W        W 6320   2.042   7.528   0.513 -0.2726 -0.0848 -0.2632
 2121W        W 6321   6.051   2.079   2.731  0.0856  0.0910 -0.0689
 2122W        W 6322   3.222   3.825   1.365  0.3709  0.0771  0.1801
 2123W        W 6323   2.427   3.814  13.197 -0.1663 -0.2190  0.0554
 2124W        W 6324   8.093   7.587  12.151  0.1032  0.1369  0.1855
 2125W        W 6325   3.358   6.420   1.581  0.2002 -0.0803 -0.0029
 2126W        W 6326   7.321   3.088   5.235 -0.0086 -0.2781 -0.1293
 2127W        W 6327   4.237   3.391  12.756 -0.0814  0.1189 -0.0296
 2128W        W 6328   3.840   7.991  12.619 -0.1555 -0.1562  0.1186
 2129W        W 6329   6.326   6.701   4.857  0.0514 -0.0102  0.2782
 2130W        W 6330   3.957   0.089   0.019 -0.0188  0.0837  0.0286
 2131W        W 6331   4.084   2.213   9.611 -0.1856  0.2335 -0.4595
 2132W        W 6332   8.483   8.708   1.404  0.0935  0.2400  0.0832
 2133W        W 6333   2.016   6.145   3.991  0.0066 -0.0792 -0.1912
 2134W        W 6334   6.270   8.728   1.917  0.3149  0.2266 -0.0330
 2135W        W 6335   2.899   2.005   1.009 -0.0798 -0.0221 -0.0284
 2136W        W 6336  10.012   1.253   2.149 -0.1274 -0.0750  0.0237
 2137W        W 6337   6.033   6.329   2.103  0.0523  0.3215  0.2355
 2138W        W 6338   4.017   2.699  11.988  0.0815 -0.4435 -0.2668
 2139W        W 6339   2.209   6.064  13.147  0.2019  0.2978 -0.2936
 2140W        W 6340   7.214   4.735   1.715  0.0247  0.1355  0.0303
 2141W        W 6341   4.587   0.564   0.342 -0.0791 -0.1292 -0.0093
 2142W        W 6342   2.484   0.634   0.062 -0.1805 -0.0103 -0.1085
 2143W        W 6343   7.682   9.181   1.584  0.2657 -0.1936 -0.1530
 2144W        W 6344   1.613   1.991   9.450  0.0254 -0.0603 -0.1210
 2145W        W 6345   1.815   0.109  10.991  0.1591  0.1341 -0.3390
 2146W        W 6346   4.819   6.096   8.760  0.0555 -0.1121 -0.1900
 2147W        W 6347   6.936   4.977   0.317  0.1029  0.1256  0.3652
 2148W        W 6348   2.396   0.596  10.971 -0.3087 -0.3832 -0.1130
 2149W        W 6349   2.287   7.851   1.086 -0.1036 -0.5241  0.1220
 2150W        W 6350   8.929   5.250   3.564  0.1826 -0.1910 -0.1491
 2151W        W 6351   7.940   3.342   0.409 -0.0639 -0.1529 -0.1896
 2152W        W 6352   4.217   4.600   2.374  0.1661  0.2029 -0.0365
 2153W        W 6353   9.999   6.373  12.215  0.3433 -0.1535 -0.0345
 2154W        W 6354   9.174   2.235  13.344 -0.0462 -0.0031  0.4602
 2155W        W 6355   3.466   5.821   2.982  0.1835  0.2959  0.2877
 2156W        W 6356   7.528   0.801  11.870  0.2870 -0.1001  0.1631
 2157W        W 6357   8.468   2.280  10.858 -0.3303  0.0738  0.1243
 2158W        W 6358   0.797   0.971  10.639  0.1636 -0.0657 -0.2752
 2159W        W 6359   6.734   7.977   8.254  0.2071  0.0555  0.2759
 2160W        W 6360   7.282   9.990   2.393  0.1545 -0.0540 -0.0231
 2161W        W 6361   1.175   9.687   2.415  0.1178  0.4133  0.2351
 2162W        W 6362   1.517   3.119   3.469 -0.2622  0.1480 -0.3144
 2163W        W 6363   3.563   2.143  10.738 -0.0754 -0.2186  0.2174
 2164W        W 6364   5.287   3.666   4.574  0.0994 -0.0955  0.0276
 2165W        W 6365   9.124  10.394   0.971  0.2602 -0.1287 -0.2836
 2166W        W 6366   8.313   5.268   0.155 -0.0249  0.0756  0.2415
 2167W        W 6367   8.567   6.543   2.554 -0.3446 -0.1797 -0.3909
 2168W        W 6368   9.133   9.551   1.055  0.5607 -0.2540 -0.0570
 2169W        W 6369   6.239   2.064   3.338 -0.2962 -0.1712  0.0453
 2170W        W 6370   2.841   0.783   2.491 -0.2276 -0.0789 -0.1482
 2171W        W 6371   5.794   2.430  11.581 -0.0546 -0.3311 -0.0363
 2172W        W 6372   8.544   9.612   4.602  0.0840 -0.3279 -0.2280
 2173W        W 6373  10.203   1.747   9.807  0.1811 -0.1612  0.1828
 2174W        W 6374   2.141   6.627   3.139  0.3429  0.0355 -0.0916
 2175W        W 6375   2.193   7.073   0.597 -0.2272 -0.1245  0.0858
 2176W        W 6376   1.349   9.265   0.537  0.0808  0.1845  0.0111
 2177W        W 6377   5.595   6.416   0.053 -0.0611  0.1529 -0.0319
 2178W        W 6378   7.379  10.068  10.378 -0.1163  0.0243  0.0281
 2179W        W 6379   8.893   9.206  11.871 -0.4260  0.2639  0.0721
 2180W        W 6380   9.509   3.460  13.280 -0.1378  0.0060 -0.1872
 2181W        W 6381   5.969   6.506   1.004 -0.0926 -0.2688 -0.3307
 2182W        W 6382   1.986   9.643  10.501  0.1572  0.1592 -0.1987
 2183W        W 6383   5.717   5.794   9.935  0.0849 -0.4108  0.0461
 2184W        W 6384   1.757   2.816  12.450 -0.0496  0.3295  0.0281
 2185W        W 6385   1.338   7.930   2.972 -0.0888 -0.1750  0.0998
 2186W        W 6386   7.621   7.603   4.848 -0.3723 -0.1041  0.4328
 2187W        W 6387   0.676  10.155   0.663  0.3886 -0.1106 -0.0730
 2188W        W 6388   9.069   2.027   3.527 -0.3592  0.2119 -0.3055
 2189W        W 6389   8.751   3.483   1.466 -0.3504  0.1425  0.1330
 2190W        W 6390   7.170   5.011   1.297  0.3057 -0.0451 -0.3088
 2191W        W 6391   4.753   2.283   2.571  0.0385 -0.1460  0.1724
 2192W        W 6392   9.439   5.344   3.359  0.1563  0.0789 -0.0963
 2193W        W 6393   3.655   1.492   0.004  0.5445  0.0756  0.0739
 2194W        W 6394   8.414   2.637   3.939  0.0265  0.0636  0.0359
 2195W        W 6395   5.333   0.467   2.711  0.0464 -0.2706  0.0213
 2196W        W 6396   0.352   8.596   1.278  0.0514 -0.0353  0.1577
 2197W        W 6397   9.501  10.468   0.709  0.2005  0.1288 -0.2169
 2198W        W 6398   0.807   3.929   2.407 -0.1175  0.2885  0.0816
 2199W        W 6399   6.431   0.955   4.519  0.1974  0.1197  0.2174
 2200W        W 6400   4.478   2.451  10.531  0.1486 -0.0607 -0.0285
 2201W        W 6401   3.877   5.139  12.232  0.1939 -0.0559  0.1359
 2202W        W 6402   9.292   4.545  12.693 -0.0413  0.1685  0.0526
 2203W        W 6403   4.033   3.628   4.130  0.2781 -0.0211  0.0452
 2204W        W 6404   5.446   2.863   4.139 -0.2876  0.2667 -0.3197
 2205W        W 6405   2.643   9.477   1.966  0.2643  0.0290 -0.1093
 2206W        W 6406   4.938   9.204   2.841  0.0066  0.1363  0.0525
 2207W        W 6407   1.894   4.537  11.742  0.0534 -0.1508  0.2158
 2208W        W 6408  10.344   9.299   0.405 -0.1151  0.2054 -0.0903
 2209W        W 6409   9.692   3.918   4.181  0.1727 -0.2019 -0.1010
 2210W        W 6410  10.304   3.374   4.750  0.0508 -0.2687  0.1842
 2211W        W 6411  10.281   8.973  11.185 -0.2174  0.2717  0.1207
 2212W        W 6412   6.756   2.426   2.296 -0.0825  0.0077  0.1921
 2213W        W 6413   5.746   1.725   0.836 -0.0533 -0.1585 -0.1206
 2214W        W 6414   7.025   4.051   4.487 -0.1723 -0.0576  0.3325
 2215W        W 6415   7.372   0.624   4.690  0.2451 -0.1425  0.1157
 2216W        W 6416   3.837   6.103   1.215  0.0104  0.0295 -0.2203
 2217W        W 6417  10.254  10.380   1.970  0.2418  0.0741  0.0962
 2218W        W 6418   7.067   0.679   3.624  0.1642  0.2593  0.3018
 2219W        W 6419   7.051   7.892   0.364 -0.0998  0.0237 -0.0144
 2220W        W 6420   6.619   6.075  11.781  0.0127  0.0538 -0.3898
 2221W        W 6421   3.572   4.431   9.281 -0.3753 -0.0643 -0.0862
 2222W        W 6422   7.709   6.839   9.697 -0.3400  0.0733  0.0563
 2223W        W 6423   9.737   0.713   3.989  0.2296 -0.2170 -0.0975
 2224W        W 6424   9.813   5.065   9.358 -0.4499  0.1045 -0.0924
 2225W        W 6425   1.188   1.388   0.854  0.0674  0.0268 -0.3292
 2226W        W 6426   1.637   7.925  11.180 -0.4047 -0.0477  0.1989
 2227W        W 6427   3.119   2.710   0.110  0.0243  0.1895 -0.0506
 2228W        W 6428  10.316   6.489   4.681 -0.1840 -0.2575 -0.2162
 2229W        W 6429   2.632   1.618   3.386  0.0504 -0.0192  0.0696
 2230W        W 6430   2.963   5.799   3.141 -0.1191  0.3053 -0.0699
 2231W        W 6431   0.627   5.936   0.145 -0.1634 -0.1748 -0.0910
 2232W        W 6432   5.068   6.683  10.113 -0.1960  0.0694  0.0057
 2233W        W 6433   2.734   5.949   2.683  0.4920 -0.1447 -0.0051
 2234W        W 6434   0.760   9.638   0.127 -0.2650  0.2118 -0.1734
 2235W        W 6435   9.126   5.770   3.460  0.1410  0.1179 -0.2289
 2236W        W 6436   7.113   5.414   3.929 -0.2774 -0.4757  0.1119
 2237W        W 6437   1.507   7.473   2.077  0.0395 -0.2268 -0.2081
 2238W        W 6438   4.792   1.690   0.162 -0.0437 -0.4248  0.2675
 2239W        W 6439   9.287   0.155   9.844 -0.0020 -0.0105  0.0147
 2240W        W 6440   4.976   4.762   3.711  0.2190 -0.2373  0.2604
 2241W        W 6441   1.082   7.433   2.912  0.0036  0.0333 -0.0973
 2242W        W 6442   8.761   7.018   2.697  0.1013  0.2328 -0.1701
 2243W        W 6443   8.277   5.632   4.737 -0.3455 -0.1258 -0.2559
 2244W        W 6444   4.237   9.166  11.291  0.0127 -0.1275 -0.0531
 2245W        W 6445  10.345   8.524   2.169 -0.1142 -0.1300 -0.0984
 2246W        W 6446   7.523   2.127  10.083  0.0816  0.1997  0.2764
 2247W        W 6447   6.688   6.344  10.148 -0.0117  0.0579  0.1215
 2248W        W 6448   6.741   7.423  12.490 -0.0952 -0.0138  0.0792
 2249W        W 6449   3.132   8.206  10.312 -0.2908  0.0494 -0.1828
 2250W        W 6450   8.273   9.517   2.816 -0.3167 -0.1530 -0.0699
 2251W        W 6451   6.397   4.209   8.774  0.2114  0.0537 -0.1233
 2252W        W 6452   4.123   5.631   5.187  0.4203 -0.0871 -0.0425
 2253W        W 6453   6.743   8.998   0.580 -0.0933  0.1470 -0.2511
 2254W        W 6454   2.641   8.715  13.234  0.3476  0.0324  0.3406
 2255W        W 6455   0.312   5.760  10.317 -0.0252 -0.0199 -0.2618
 2256W        W 6456   1.540   1.244   1.829 -0.3499  0.2390 -0.0447
 2257W        W 6457   4.151   5.256   8.991 -0.1914 -0.2067 -0.1596
 2258W        W 6458   2.706   3.711   4.607 -0.1696  0.1789  0.0279
 2259W        W 6459   6.608   0.143   9.630  0.1696  0.2025  0.1732
 2260W        W 6460   0.978   5.890   2.521  0.1942  0.3217  0.1535
 2261W        W 6461   5.350   2.063   9.265 -0.0832 -0.2716  0.0160
 2262W        W 6462   6.285   1.166   4.074  0.0731 -0.0935  0.0841
 2263W        W 6463   4.702   4.763   4.129 -0.1218  0.1467 -0.3589
 2264W        W 6464   8.621   6.745   9.414 -0.4577  0.0815 -0.1599
 2265W        W 6465   8.694   2.719  10.656 -0.0979  0.0031 -0.1042
 2266W        W 6466   6.729   4.392   9.158 -0.4093 -0.0032  0.0414
 2267W        W 6467   5.708   6.186   9.593 -0.1792  0.3772 -0.3701
 2268W        W 6468   9.389   6.401   3.385 -0.2304 -0.3713 -0.1546
 2269W        W 6469   2.252   2.095   2.113 -0.2618 -0.0345  0.0385
 2270W        W 6470   3.640   3.731   3.224  0.1208 -0.0980 -0.2332
 2271W        W 6471   5.974   7.921  11.712  0.1350  0.0036  0.1996
 2272W        W 6472   7.723   7.639   3.080  0.0972  0.1952 -0.2104
 2273W        W 6473   7.936   4.117   3.834 -0.3030  0.0476  0.0317
 2274W        W 6474   3.522   9.651   2.528 -0.3525 -0.0580 -0.2943
 2275W        W 6475   3.807   9.992  11.704  0.0050 -0.0510 -0.0531
 2276W        W 6476   0.978   3.037   9.754  0.0180 -0.4752 -0.2846
 2277W        W 6477   0.822   9.535   2.027 -0.0385 -0.1449 -0.1050
 2278W        W 6478   2.332   4.562   1.006  0.2703 -0.2936  0.3916
 2279W        W 6479   7.271   4.820   9.925  0.0965  0.2626 -0.1009
 2280W        W 6480   7.073   8.834   3.519  0.4983  0.2994 -0.3717
 2281W        W 6481   9.564   7.685  13.120 -0.2075  0.1114 -0.0683
 2282W        W 6482   6.837   9.441   9.916  0.0467  0.2584 -0.0344
 2283W        W 6483   6.057   5.946   4.324 -0.0427  0.2392  0.0402
 2284W        W 6484   2.532   0.424  11.396  0.0090  0.2112  0.3260
 2285W        W 6485   2.365   3.589  11.889  0.0398 -0.2639  0.0716
 2286W        W 6486   8.279   0.752   0.654 -0.2097  0.3829  0.0884
 2287W        W 6487   6.061   1.297   0.050  0.2529  0.0191 -0.0677
 2288W        W 6488   6.319   5.050   2.581 -0.0829  0.1557  0.0370
 2289W        W 6489   6.458   1.756  12.924  0.0048 -0.0116  0.3473
 2290W        W 6490   2.508   2.445   1.771 -0.2958 -0.0540 -0.0531
 2291W        W 6491   8.943   6.392  10.154  0.2404 -0.1553  0.2913
 2292W        W 6492   2.399   7.262   9.536 -0.3993  0.0919  0.1608
 2293W        W 6493   0.865   3.925   0.565 -0.0410  0.2320  0.2399
 2294W        W 6494   7.255   2.983   1.551  0.0482 -0.1269  0.0827
 2295W        W 6495   0.190   1.431  13.313  0.0812  0.0521 -0.2775
 2296W        W 6496   1.039   3.911   8.810 -0.1755  0.1155 -0.0482
 2297W        W 6497   7.640   1.144   3.978  0.4857  0.0541  0.0524
 2298W        W 6498   6.195   4.282   1.327  0.0335 -0.0369  0.0684
 2299W        W 6499   1.080   4.841   3.901  0.1564  0.3606  0.3708
 2300W        W 6500   6.034   5.366   9.688  0.2380 -0.0391 -0.3585
 2301W        W 6501   8.720   6.007   9.805  0.0616 -0.2022 -0.1881
 2302W        W 6502   6.691   8.700   0.182  0.2349  0.0962 -0.3363
 2303W        W 6503   3.462   4.406   2.561 -0.1438 -0.2776  0.2763
 2304W        W 6504   0.630   3.719  10.619  0.3622 -0.1322 -0.3592
 2305W        W 6505   5.296   0.770   9.477  0.1371  0.1003  0.0622
 2306W        W 6506   3.903   8.771  11.278  0.1898  0.1605  0.0103
 2307W        W 6507   6.830   3.994  12.723 -0.0287  0.2033  0.1269
 2308W        W 6508   6.485   0.305   8.531 -0.0195 -0.1027  0.0824
 2309W        W 6509   0.249   8.318   0.135 -0.2896 -0.1228  0.1366
 2310W        W 6510   0.590   4.315  11.003 -0.2149 -0.0363 -0.1918
 2311W        W 6511   3.861   7.842  12.091  0.0284  0.2044  0.1496
 2312W        W 6512   8.910   0.152   2.892 -0.1174 -0.3363  0.0039
 2313W        W 6513   6.915   4.092   9.484  0.3628  0.2179  0.0125
 2314W        W 6514   2.690   2.783   4.426 -0.1460 -0.0969  0.1036
 2315W        W 6515  10.339   0.197   2.871  0.0213 -0.2287 -0.0182
 2316W        W 6516   9.712   2.483   2.290 -0.0284  0.0666 -0.0222
 2317W        W 6517   4.571   6.973   2.116 -0.0599  0.2223  0.1829
 2318W        W 6518   2.263   2.146  10.303  0.4688  0.0109 -0.1043
 2319W        W 6519   4.594   4.215   4.990 -0.0320  0.1298  0.2905
 2320W        W 6520   7.533   0.089   9.699  0.0683  0.0985 -0.0361
 2321W        W 6521   7.165   9.371   3.696 -0.3181  0.0615  0.0054
 2322W        W 6522   6.888   9.972   4.531 -0.1727  0.1582  0.1683
 2323W        W 6523   0.359   4.700   3.473  0.1417  0.1301 -0.1615
 2324W        W 6524   7.122   2.905  10.219 -0.1883  0.1638 -0.1755
 2325W        W 6525   8.211   2.510  11.789  0.2436  0.2644  0.2688
 2326W        W 6526  10.143  10.239   0.432 -0.0164  0.3289 -0.2824
 2327W        W 6527   1.650  10.232   1.697 -0.2125 -0.1816 -0.3699
 2328W        W 6528   1.763   0.312   2.382 -0.0433  0.1668 -0.0268
 2329W        W 6529   6.320   7.526   0.358 -0.0325 -0.0621 -0.0597
 2330W        W 6530   7.106   1.738  12.116  0.2537  0.0430 -0.1930
 2331W        W 6531   1.762   9.187   1.837  0.0321  0.2589  0.3428
 2332W        W 6532   5.292   5.134  12.222 -0.0264  0.0396  0.0244
 2333W        W 6533   5.613   0.843   2.542  0.1737 -0.0346 -0.3863
 2334W        W 6534   9.254   6.963  11.490 -0.0125 -0.1626  0.4159
 2335W        W 6535   6.843   0.511   3.049  0.0913 -0.0497 -0.2268
 2336W        W 6536   8.788   0.161  12.013  0.2353  0.2012  0.2002
 2337W        W 6537   2.037   0.222  12.596  0.1406 -0.0576 -0.0170
 2338W        W 6538   8.859   1.078  13.373  0.3319  0.2292  0.1261
 2339W        W 6539   8.956   7.395  10.205  0.0563  0.0459 -0.4130
 2340W        W 6540   5.094   0.727   8.723 -0.1531 -0.1802 -0.2008
 2341W        W 6541   1.174   7.787   0.381 -0.0475  0.0524  0.2510
 2342W        W 6542   8.501   0.224  11.251  0.1214  0.0156 -0.0395
 2343W        W 6543   0.457   9.038   1.586 -0.0126  0.2964  0.1561
 2344W        W 6544   8.059   2.957   4.182 -0.2505  0.0230  0.3194
 2345W        W 6545   6.046   3.845  12.126 -0.0320 -0.3637 -0.0947
 2346W        W 6546   0.093   6.206  12.980  0.0648 -0.1472 -0.1073
 2347W        W 6547  10.423   1.504   3.414 -0.1423 -0.3688  0.0132
 2348W        W 6548   1.098   7.252  13.244  0.0482  0.2919  0.2497
 2349W        W 6549   0.683   0.731  11.593 -0.1509  0.5161 -0.0548
 2350W        W 6550   6.887   1.303  11.114  0.2259 -0.1014 -0.0148
 2351W        W 6551   5.416   0.312   1.719  0.3111  0.0030  0.0969
 2352W        W 6552   0.338   1.716   3.994  0.1435  0.4007  0.2249
 2353W        W 6553   4.348   8.509   3.919 -0.0903  0.4135  0.2922
 2354W        W 6554   1.855   8.368  11.635 -0.0290  0.3025 -0.1717
 2355W        W 6555   1.516   5.398  10.157  0.2836  0.0576 -0.4079
 2356W        W 6556   2.687   7.664   1.646 -0.0160  0.1173  0.1352
 2357W        W 6557   4.337   3.620  12.283 -0.0523 -0.0260  0.1107
 2358W        W 6558   6.258   3.177  10.550 -0.1066 -0.1281 -0.1909
 2359W        W 6559   8.173   7.393   3.384  0.1866  0.1917  0.1091
 2360W        W 6560   3.031   2.089  12.689 -0.2681  0.1210 -0.2932
 2361W        W 6561   9.246   4.009   0.849  0.0084 -0.1459 -0.3292
 2362W        W 6562   3.525   2.466   3.343 -0.0116  0.0775  0.1542
 2363W        W 6563   1.756   3.124   9.434 -0.0651  0.0351 -0.0839
 2364W        W 6564   2.238   9.100   2.865  0.1162 -0.0825 -0.0021
 2365W        W 6565   3.575   5.179  10.380 -0.2204  0.2682 -0.0644
 2366W        W 6566   8.887   8.678   9.610  0.0013  0.0190  0.1846
 2367W        W 6567   6.054   9.000   5.123 -0.2936 -0.4707  0.0976
 2368W        W 6568   6.623   6.259   0.922 -0.0371  0.0289 -0.1148
 2369W        W 6569   5.441   4.002  10.875  0.1088 -0.2368  0.3019
 2370W        W 6570   2.770   8.946  11.332  0.3006 -0.1726  0.0494
 2371W        W 6571   6.458   1.238   4.926  0.0460  0.2494 -0.1379
 2372W        W 6572   5.747   3.455   4.722  0.1098  0.1887  0.1578
 2373W        W 6573   3.615   5.346   3.849  0.0696  0.0820  0.1057
 2374W        W 6574   0.061   9.447   0.905  0.1377 -0.3514  0.2188
 2375W        W 6575   2.336   5.561  10.676  0.0760  0.3381  0.0048
 2376W        W 6576   9.862   2.537   1.802 -0.3515  0.1983  0.1112
 2377W        W 6577   1.540   2.541   9.032  0.3223  0.0452 -0.1209
 2378W        W 6578   3.756   6.549   2.554 -0.2976  0.1458 -0.0613
 2379W        W 6579   7.619   2.662   3.317  0.0247  0.0628 -0.1192
 2380W        W 6580   4.747  10.224  12.023 -0.0250  0.0649  0.2003
 2381W        W 6581   3.030   7.443   3.589  0.3248 -0.2819  0.0668
 2382W        W 6582   2.188   1.620  10.163  0.1959 -0.1866 -0.0846
 2383W        W 6583   0.612   9.489   0.934  0.2134  0.3257  0.2261
 2384W        W 6584   5.951   9.805   0.106 -0.2898  0.2699  0.0904
 2385W        W 6585   1.874   2.378  10.117  0.2393  0.0163 -0.2044
 2386W        W 6586   0.928   5.533   0.186 -0.0389 -0.2055 -0.1406
 2387W        W 6587   8.242   3.280  11.802  0.0097  0.1090  0.1109
 2388W        W 6588   5.293   5.936   9.753 -0.1152 -0.1694 -0.0061
 2389W        W 6589   9.779   5.398   1.453  0.0803 -0.0884  0.2464
 2390W        W 6590   2.905   9.321  10.212 -0.2970 -0.5270 -0.0646
 2391W        W 6591   6.356   8.528  10.418  0.1193 -0.0335 -0.1532
 2392W        W 6592   0.248   3.878   3.535 -0.2159 -0.0978  0.1456
 2393W        W 6593   0.766  10.344   1.857  0.0834  0.1147 -0.1296
 2394W        W 6594   6.353   6.876   2.940 -0.1174  0.0359  0.2300
 2395W        W 6595   8.177   1.493   9.574 -0.1253 -0.0766  0.2547
 2396W        W 6596   7.859  10.299   9.483  0.2579 -0.1264  0.2930
 2397W        W 6597   1.019   2.075   2.039 -0.0984  0.2020 -0.0488
 2398W        W 6598   3.293   5.620   9.767  0.0973  0.0386 -0.0273
 2399W        W 6599   4.999   8.849   3.234  0.2953  0.1405 -0.0481
 2400W        W 6600   9.727   3.177   0.770 -0.0528  0.1568 -0.0680
 2401W        W 6601   1.175   0.931  11.817 -0.2552 -0.1428  0.1566
 2402W        W 6602  10.311   8.000  13.149 -0.2177  0.0295  0.3291
 2403W        W 6603   2.190   4.362   2.616  0.0985  0.0623 -0.3224
 2404W        W 6604   7.114   7.620  10.615 -0.2575 -0.0949  0.0711
 2405W        W 6605   2.031   6.798  13.005 -0.1751  0.1999 -0.0540
 2406W        W 6606   3.497   6.935   3.729  0.1761  0.1291 -0.3122
 2407W        W 6607   7.998   0.008   3.425  0.1032 -0.3353  0.0860
 2408W        W 6608   7.666  10.409   2.471 -0.0095  0.2064 -0.1584
 2409W        W 6609   3.799   3.153  10.773 -0.1003 -0.2333 -0.0912
 2410W        W 6610   7.024   9.824  12.189 -0.2481  0.0152 -0.2180
 2411W        W 6611   7.395   1.243   1.183 -0.0199  0.4151  0.0194
 2412W        W 6612   7.394   3.767  11.920  0.1040  0.1501  0.2329
 2413W        W 6613   0.865   0.072   0.458  0.1452 -0.2195  0.4864
 2414W        W 6614   3.825   5.205   1.226  0.1404  0.1309 -0.2811
 2415W        W 6615   8.893   5.192   0.382 -0.4588  0.0006 -0.0011
 2416W        W 6616   2.429   3.710   3.494  0.0168 -0.1429 -0.1519
 2417W        W 6617   3.356   1.045   1.159  0.2418  0.0596 -0.0405
 2418W        W 6618   5.137   9.216   0.587 -0.3006  0.0199 -0.1077
 2419W        W 6619  10.455   3.774   2.629 -0.2289  0.1375  0.0570
 2420W        W 6620   9.838   5.261   4.283 -0.4211  0.2892 -0.1071
 2421W        W 6621   1.160   7.222   1.833 -0.1549  0.1269  0.3679
 2422W        W 6622   2.652   1.197  13.325  0.0427  0.0349  0.1453
 2423W        W 6623   3.561   4.400   8.271 -0.0920  0.1406  0.3270
 2424W        W 6624   6.733   1.160  10.638  0.1725 -0.2332 -0.2079
 2425W        W 6625   5.957   5.167  10.608 -0.4248 -0.1434  0.4151
 2426W        W 6626   2.255   6.848   4.447  0.0293 -0.0595  0.2604
 2427W        W 6627   2.972   0.708  12.228  0.0132  0.2345 -0.0064
 2428W        W 6628   9.233   2.777   9.869  0.1450  0.3227  0.0650
 2429W        W 6629   1.384   1.820   2.420  0.2158 -0.2495 -0.2428
 2430W        W 6630   6.232   6.014   0.640  0.1135 -0.2066 -0.1192
 2431W        W 6631   7.577   9.657   1.365  0.0567 -0.2854 -0.2184
 2432W        W 6632   7.020   8.813  12.153  0.1135 -0.1771  0.5508
 2433W        W 6633   5.152   0.385   9.850 -0.1559  0.2484  0.0156
 2434W        W 6634   0.736   1.941   5.156 -0.0178 -0.0124 -0.3435
 2435W        W 6635   6.716   3.329   2.979 -0.1303  0.2584 -0.1906
 2436W        W 6636   4.768   4.268   1.013 -0.1168  0.2425  0.1744
 2437W        W 6637   8.220   5.791   0.961  0.2121  0.2883  0.3392
 2438W        W 6638   6.364   9.634  12.180 -0.0696 -0.0326  0.1857
 2439W        W 6639   4.951   4.852  12.556 -0.0816 -0.0033  0.0098
 2440W        W 6640   1.061  10.085   0.371  0.1388 -0.1400 -0.2831
 2441W        W 6641   2.185   8.502  13.308  0.1270 -0.0320  0.0370
 2442W        W 6642   1.644   2.384  12.104 -0.0509  0.3265  0.2200
 2443W        W 6643   1.810   0.870   2.865  0.2361  0.1541 -0.0186
 2444W        W 6644   0.030   7.720   2.844 -0.3695  0.1093 -0.1509
 2445W        W 6645   0.668   6.818   2.217  0.0577 -0.1171 -0.1509
 2446W        W 6646   0.484   4.239  10.500 -0.0493  0.1556 -0.0376
 2447W        W 6647   8.106   7.296   0.327 -0.0781 -0.1987  0.0109
 2448W        W 6648   9.084   2.462   3.734  0.0234 -0.0730  0.2392
 2449W        W 6649   4.400   4.428   1.898 -0.3012  0.0667 -0.1831
 2450W        W 6650   0.447   7.248   1.422 -0.0224 -0.0846 -0.0406
 2451W        W 6651   8.471   0.471   4.031 -0.0034  0.0231 -0.0148
 2452W        W 6652   0.375   9.539   1.407 -0.2379 -0.1789 -0.2778
 2453W        W 6653   9.692   8.110   3.092  0.2127 -0.0157  0.1886
 2454W        W 6654   6.594   9.064   8.748  0.1688 -0.1787  0.0766
 2455W        W 6655   1.113   7.969  11.167 -0.0931 -0.2627  0.0176
 2456W        W 6656   5.354  10.077  10.150 -0.0316 -0.1182  0.1863
 2457W        W 6657   2.194   8.204   2.961  0.0085  0.3111  0.0417
 2458W        W 6658   3.780   5.535  11.160  0.1451 -0.1861 -0.0622
 2459W        W 6659   7.917   2.224   0.039 -0.2241 -0.1662 -0.0780
 2460W        W 6660   3.168   9.572   0.731 -0.0062  0.3012 -0.1284
 2461W        W 6661   7.246   1.240  10.531 -0.0975  0.1035  0.5397
 2462W        W 6662   6.581   5.215  11.685  0.0827 -0.0180  0.2053
 2463W        W 6663   8.973   9.190   4.094 -0.0740 -0.1610 -0.0181
 2464W        W 6664   7.535   3.556   2.686  0.1006  0.0050  0.1068
 2465W        W 6665   7.209   4.964   9.426 -0.0344  0.0385  0.0175
 2466W        W 6666   0.106   7.257   3.210 -0.2450 -0.0417 -0.2133
 2467W        W 6667   3.361   6.507  13.093  0.0253  0.0864 -0.1319
 2468W        W 6668   2.416   3.329  11.012  0.0384 -0.2041  0.1162
 2469W        W 6669   4.656   5.326   9.361  0.2237  0.0504 -0.0545
 2470W        W 6670   1.350   3.914   9.242 -0.1567 -0.0524 -0.1796
 2471W        W 6671   6.163   5.247  12.022  0.0148 -0.2601 -0.0676
 2472W        W 6672   8.018   3.264  10.328  0.0468  0.1038  0.2715
 2473W        W 6673   6.370   7.506   1.220  0.3750 -0.0116 -0.2977
 2474W        W 6674   0.098   8.768   0.167  0.0317 -0.1349  0.0069
 2475W        W 6675   5.644   4.520   9.148  0.1592  0.4405  0.1196
 2476W        W 6676   5.794   1.930   9.041 -0.1087 -0.3324 -0.0041
 2477W        W 6677   9.419   7.746   3.844  0.0688 -0.1044  0.1288
 2478W        W 6678   2.079   4.963   4.774  0.0262  0.0742 -0.4904
 2479W        W 6679   0.360   8.764   2.002  0.1801 -0.2628 -0.2341
 2480W        W 6680  10.246   2.598   2.206 -0.1205 -0.0313  0.2179
 2481W        W 6681   4.378   1.986   4.818 -0.3926  0.0790  0.0353
 2482W        W 6682   5.467   2.798  11.626 -0.0838  0.1267 -0.3496
 2483W        W 6683   5.445   8.615  12.524  0.0540  0.1068  0.0224
 2484W        W 6684   1.065   0.238   3.186 -0.1752 -0.0788  0.0559
 2485W        W 6685   7.464   3.588   3.197  0.2690 -0.1633  0.2231
 2486W        W 6686   2.142   4.329   0.538  0.0598  0.0933  0.3585
 2487W        W 6687   4.205   9.081   9.937  0.2330  0.1046 -0.0429
 2488W        W 6688   8.122   8.669   0.953 -0.0602 -0.0967  0.0879
 2489W        W 6689   8.930   9.861   4.466 -0.0150  0.1595 -0.1678
 2490W        W 6690   9.956   5.197   3.709  0.2028  0.1770  0.0318
 2491W        W 6691   7.724   9.481   0.671 -0.1025  0.2266  0.0258
 2492W        W 6692   2.631   1.082  12.362 -0.3522 -0.0175  0.1008
 2493W        W 6693   5.906   1.250   1.276  0.0244 -0.2025 -0.0314
 2494W        W 6694   9.988   3.223   3.389  0.0898  0.1173  0.0043
 2495W        W 6695   0.843   6.150   3.262 -0.1938  0.1168 -0.0685
 2496W        W 6696   9.070   0.680   2.796  0.1878 -0.1325  0.0331
 2497W        W 6697   5.374   5.438   1.718 -0.2159 -0.2469 -0.2600
 2498W        W 6698   6.602   3.224  11.470  0.1379  0.0947 -0.0275
 2499W        W 6699   5.264   8.880   9.674 -0.3124 -0.0338 -0.0641
 2500W        W 6700   5.187   6.383   3.365 -0.1540 -0.0029  0.1643
 2501W        W 6701   1.157   2.342  12.423 -0.2449  0.1721 -0.0315
 2502W        W 6702   9.617   2.843   3.177 -0.0440 -0.0146 -0.0927
 2503W        W 6703   6.084   2.940  13.022  0.1361  0.1953 -0.2605
 2504W        W 6704   1.265   8.499   3.774 -0.1324  0.0756  0.1646
 2505W        W 6705   7.833   3.573  12.684  0.1322 -0.2012 -0.0877
 2506W        W 6706   1.445   1.648   3.353 -0.0336  0.1693 -0.2517
 2507W        W 6707   3.153   6.181   0.138 -0.2240 -0.0295 -0.1457
 2508W        W 6708   2.117   8.524   0.413  0.0580 -0.0732 -0.0030
 2509W        W 6709   6.729   6.271  10.698  0.1608 -0.0373 -0.0043
 2510W        W 6710   5.978   5.092  12.711  0.0152  0.0228 -0.0369
 2511W        W 6711   5.596   0.952  10.424 -0.2026 -0.1682 -0.0031
 2512W        W 6712   0.229   4.609   2.780 -0.0049 -0.0960 -0.0470
 2513W        W 6713   0.922   9.852  11.108 -0.1005  0.0272 -0.0870
 2514W        W 6714   1.896   3.098   3.154 -0.0539  0.1892  0.0598
 2515W        W 6715   4.567   8.387  10.549 -0.0688  0.1303 -0.1496
 2516W        W 6716   9.138   8.302   0.311 -0.0339 -0.1807 -0.2945
 2517W        W 6717  10.065   1.292   9.678  0.4856  0.1156 -0.0991
 2518W        W 6718   2.729   2.429   9.005  0.0840 -0.0095  0.1013
 2519W        W 6719   5.412   7.441  13.371  0.4754 -0.1385  0.0480
 2520W        W 6720   1.467   5.358  12.010  0.0489 -0.0426 -0.1863
 2521W        W 6721  10.089   0.409   1.307 -0.0555 -0.1351 -0.1961
 2522W        W 6722   0.933   0.064   0.943 -0.1273 -0.0590 -0.0586
 2523W        W 6723   6.602   4.509  11.998  0.2345 -0.1497 -0.0875
 2524W        W 6724   6.379   8.113   2.479 -0.0678 -0.3110  0.1861
 2525W        W 6725   0.274   2.417   3.013  0.3478 -0.1116  0.1193
 2526W        W 6726   8.271   6.612  10.461  0.1016 -0.1873 -0.5471
 2527W        W 6727   5.238   7.223   3.713 -0.1307 -0.0385  0.3012
 2528W        W 6728  10.244   7.870   4.146 -0.3027  0.1478  0.2898
 2529W        W 6729   2.050   7.395   1.881  0.2014 -0.0231  0.0540
 2530W        W 6730   7.140   2.172   0.343  0.2700  0.0030  0.3398
 2531W        W 6731   4.231   1.260  12.915 -0.0214  0.0182 -0.1085
 2532W        W 6732   3.392   4.289   1.195 -0.0700  0.1387  0.2280
 2533W        W 6733   5.563   8.951  12.181 -0.1963 -0.1616 -0.0387
 2534W        W 6734   5.383   0.473  10.236 -0.1764  0.2212 -0.0288
 2535W        W 6735   7.387   3.799   0.896 -0.2453 -0.2648 -0.0127
 2536W        W 6736   9.924   2.238   8.955  0.3190  0.0873  0.1942
 2537W        W 6737   7.774   4.572   0.222 -0.2651  0.1043 -0.0705
 2538W        W 6738   8.771   4.470   3.279  0.0923 -0.0277  0.2707
 2539W        W 6739   6.178   9.325   9.402  0.0554 -0.0819 -0.5432
 2540W        W 6740  10.003   8.710   3.239  0.0821  0.2775 -0.2152
 2541W        W 6741   7.419   8.434   8.998  0.0170  0.2258 -0.0541
 2542W        W 6742   7.667   7.447  10.742 -0.3784  0.1243  0.0593
 2543W        W 6743   0.662   6.550  12.891  0.0680  0.0378 -0.1626
 2544W        W 6744   5.034   6.270   0.075 -0.0907  0.0061  0.0710
 2545W        W 6745   5.252  10.367  13.394 -0.1589  0.1667 -0.1559
 2546W        W 6746   9.326   7.704   3.106  0.0107 -0.0015 -0.1605
 2547W        W 6747   9.154   6.520  11.251  0.0865 -0.0774  0.2289
 2548W        W 6748   9.305   0.883   1.664  0.0250 -0.0157 -0.2056
 2549W        W 6749   5.039  10.054   3.336  0.0729  0.1512 -0.0264
 2550W        W 6750   1.046   9.341  12.250 -0.1954 -0.3445  0.3791
 2551W        W 6751   2.982   3.249   4.314 -0.1430 -0.0230 -0.0583
 2552W        W 6752   3.661   8.456   2.569 -0.4433  0.0675 -0.2321
 2553W        W 6753   0.159   2.511  10.127  0.4089 -0.0785  0.1635
 2554W        W 6754   3.814   7.199  12.787  0.4148 -0.0580  0.5293
 2555W        W 6755   3.807   6.215  12.890  0.0141  0.3823  0.1948
 2556W        W 6756   6.336   8.331   4.261 -0.5178 -0.0999 -0.0608
 2557W        W 6757   0.280   6.201   0.619  0.0098 -0.3090  0.1969
 2558W        W 6758   8.420   9.189   1.713  0.0252  0.1641  0.2840
 2559W        W 6759   0.140   6.332  10.493 -0.0865  0.1113 -0.2129
 2560W        W 6760   7.769   4.977  13.057 -0.0816 -0.0493 -0.2064
 2561W        W 6761   2.357   5.558   3.921  0.0128 -0.0441  0.0155
 2562W        W 6762   4.040   7.438  13.289 -0.0301  0.1362 -0.0364
 2563W        W 6763   9.476   3.249   1.286  0.1180  0.0066 -0.2174
 2564W        W 6764   8.664   3.450   0.510 -0.2338  0.1266 -0.0893
 2565W        W 6765  10.275   5.290  12.284  0.0075  0.0277 -0.2012
 2566W        W 6766   5.638   8.699   9.295 -0.0530 -0.0112 -0.0538
 2567W        W 6767   3.337   7.196   3.300  0.0347 -0.1470  0.3045
 2568W        W 6768   5.216   6.801   3.989 -0.0454 -0.1298  0.1627
 2569W        W 6769   7.012   0.648  12.771  0.3141  0.1143 -0.0174
 2570W        W 6770   3.802   1.689   0.766 -0.1007 -0.1460 -0.2083
 2571W        W 6771   5.060   2.337  12.451  0.2377  0.2389  0.4831
 2572W        W 6772   2.664   3.871   1.609  0.2703  0.0476 -0.1449
 2573W        W 6773   2.796   5.194   1.670  0.0991  0.3874  0.1665
 2574W        W 6774  10.088   9.928   0.012 -0.1813  0.1878  0.0670
 2575W        W 6775   1.163   6.036  11.347 -0.0540 -0.1808 -0.2683
 2576W        W 6776   5.386   4.944   9.152 -0.3220  0.1670 -0.1481
 2577W        W 6777   7.205  10.245   4.173  0.0947  0.1913 -0.1121
 2578W        W 6778   8.085   2.758   4.872 -0.0601 -0.4163 -0.3197
 2579W        W 6779   7.044   5.460   2.615 -0.0316  0.1450  0.2313
 2580W        W 6780   4.316   1.431   2.742 -0.0906  0.2176 -0.1204
 2581W        W 6781   9.648   7.292  11.840 -0.3893 -0.0025  0.0023
 2582W        W 6782   9.811   6.114  11.671 -0.0457  0.0858 -0.2140
 2583W        W 6783   0.922   4.625   9.020  0.0985  0.3595 -0.3059
 2584W        W 6784   8.976   8.215  10.263 -0.0449 -0.2031  0.2432
 2585W        W 6785   4.243   1.245   3.593 -0.2118  0.0288  0.0063
 2586W        W 6786   9.145   2.684   2.897  0.1358 -0.0945 -0.0357
 2587W        W 6787   1.908   3.842  10.345  0.1066  0.3214  0.0377
 2588W        W 6788   7.560   2.426   0.306 -0.1304  0.3167 -0.1675
 2589W        W 6789   9.834   5.674   3.532 -0.1445 -0.2753  0.2414
 2590W        W 6790   7.848   4.596  10.515  0.1320 -0.1621 -0.4560
 2591W        W 6791   9.773   7.014  11.462  0.2995 -0.1358  0.0166
 2592W        W 6792   2.995   8.502  11.345  0.3293 -0.2839  0.1741
 2593W        W 6793   4.605   2.890   9.260 -0.2590  0.0649  0.1330
 2594W        W 6794   6.184   4.396   0.002 -0.2893 -0.0698  0.0643
 2595W        W 6795  10.087   8.372   4.123  0.0728  0.0860 -0.4277
 2596W        W 6796   2.304   4.602  10.809  0.0216  0.2225  0.0400
 2597W        W 6797  10.063   8.958   1.383  0.3010 -0.2338 -0.0458
 2598W        W 6798   9.368   1.577   3.635  0.1373 -0.1382  0.1182
 2599W        W 6799   0.838   7.619  10.243  0.0002  0.4209 -0.2828
 2600W        W 6800   1.144   4.272   2.438 -0.2979  0.1457 -0.0647
 2601W        W 6801   9.721   6.963  12.380 -0.0868  0.1795 -0.0253
 2602W        W 6802   5.761   1.827   4.506  0.0396 -0.2090  0.0275
 2603W        W 6803   2.639   3.956   2.677 -0.2832 -0.0447 -0.0830
 2604W        W 6804   8.333   6.204  12.189  0.0261 -0.1121  0.0845
 2605W        W 6805   6.910   8.634   9.716  0.1155  0.1024  0.1970
 2606W        W 6806   5.581   9.242   3.802 -0.3027 -0.1482 -0.0410
 2607W        W 6807   6.937   0.754   1.711 -0.1204 -0.1079 -0.0776
 2608W        W 6808   4.764   5.870   0.873 -0.1205 -0.1970 -0.0773
 2609W        W 6809   0.473  10.028   0.231 -0.2319  0.1335  0.0348
 2610W        W 6810   4.660   0.259   3.039  0.2393  0.2006 -0.2812
 2611W        W 6811   1.921   8.639  10.681 -0.1117  0.1450  0.1949
 2612W        W 6812   0.820   2.385   4.500 -0.0221  0.0219 -0.1177
 2613W        W 6813   5.155   6.387   2.725  0.1825 -0.0835 -0.3775
 2614W        W 6814   1.437   1.856  13.336 -0.0127  0.2511  0.2509
 2615W        W 6815   0.756   9.492  12.669 -0.2430  0.1092  0.0808
 2616W        W 6816   5.568   5.510   0.736 -0.2133  0.1165  0.2743
 2617W        W 6817   0.195  10.339   1.112  0.1039  0.3047  0.2256
 2618W        W 6818   7.020   1.648  10.375  0.4395 -0.0057  0.3038
 2619W        W 6819  10.463   6.476  10.034 -0.0437  0.1531 -0.3150
 2620W        W 6820   2.133   2.332  12.349  0.0699 -0.0960 -0.0083
 2621W        W 6821   6.121   6.107  11.628 -0.3064 -0.0515  0.1256
 2622W        W 6822   0.461   2.241  10.448 -0.1493 -0.1318  0.0921
 2623W        W 6823   7.156   6.646  12.465  0.1508 -0.0061  0.4051
 2624W        W 6824   9.931   9.557  12.378 -0.4164 -0.0970 -0.0816
 2625W        W 6825   4.166   5.221   3.845 -0.1796 -0.0129 -0.1365
 2626W        W 6826   2.738   5.192  11.555  0.0079 -0.2002  0.3355
 2627W        W 6827   1.947   9.148  10.599 -0.1999  0.0982 -0.1849
 2628W        W 6828   6.949   5.871   0.638  0.3279  0.0170 -0.0327
 2629W        W 6829   7.612   6.445  12.273  0.1533  0.2198 -0.1448
 2630W        W 6830   3.676   1.149   1.538 -0.1384  0.1543  0.1066
 2631W        W 6831   5.616   9.854  12.366 -0.2793  0.1056 -0.1817
 2632W        W 6832   4.253   4.183   2.856 -0.0282 -0.3015 -0.0057
 2633W        W 6833   4.151   9.767   2.688  0.1399  0.4678  0.1425
 2634W        W 6834   4.595   8.056   3.680  0.1766  0.0938  0.0542
 2635W        W 6835   1.153   5.561  12.408 -0.4683 -0.2608  0.3500
 2636W        W 6836   1.619   0.701   0.822  0.0358 -0.2516 -0.3760
 2637W        W 6837   3.933   5.826   2.148 -0.2322 -0.0015 -0.4636
 2638W        W 6838   7.600   6.625  12.830  0.2810  0.0335 -0.1069
 2639W        W 6839   2.763   0.966   4.077 -0.0552 -0.0023 -0.0982
 2640W        W 6840   5.807   4.785  11.410  0.2240  0.0288 -0.0138
 2641W        W 6841   8.612   8.615   1.872  0.3382  0.2353  0.2761
 2642W        W 6842   5.617   9.347  11.023  0.0487 -0.1993  0.0634
 2643W        W 6843   8.836   0.818   3.957 -0.2811  0.1408 -0.2021
 2644W        W 6844   4.053   1.726   1.963  0.0578  0.0328 -0.0709
 2645W        W 6845   3.850   6.678   9.670 -0.0282 -0.0039 -0.1158
 2646W        W 6846   2.075   0.767   2.350 -0.2711 -0.2559  0.1801
 2647W        W 6847   7.811  10.278  10.555  0.0399 -0.0704 -0.0230
 2648W        W 6848   4.941   3.385   9.379 -0.3245 -0.2414 -0.1319
 2649W        W 6849   1.692  10.253  13.304 -0.0907 -0.0487  0.4053
 2650W        W 6850   4.683   0.158   0.584  0.1082  0.0536 -0.0701
 2651W        W 6851   1.414   8.749   3.040 -0.1338 -0.0177 -0.0586
 2652W        W 6852   4.177   1.351   0.707  0.0782 -0.2542  0.0426
 2653W        W 6853   5.544   6.808   3.526 -0.0015  0.1365 -0.2264
 2654W        W 6854   8.647   7.634   1.430  0.0728  0.0446  0.0835
 2655W        W 6855   3.520   7.750  10.266 -0.1545 -0.2798 -0.1383
 2656W        W 6856   8.461   8.334  12.020  0.2532 -0.0101  0.1259
 2657W        W 6857   5.399   4.101   9.080  0.0728  0.3507 -0.0088
 2658W        W 6858  10.181   5.806   9.627  0.0993 -0.1680  0.0021
 2659W        W 6859   9.989  10.083  10.154 -0.0902 -0.3034 -0.0789
 2660W        W 6860   9.607   5.934   1.529  0.0780 -0.0684 -0.1526
 2661W        W 6861   0.220   7.082   0.079  0.2080  0.1690 -0.0108
 2662W        W 6862   7.189   1.251  11.973 -0.2843  0.1032  0.0089
 2663W        W 6863   9.306   0.929   3.230  0.2377  0.7887 -0.0328
 2664W        W 6864   6.080  10.466   3.578  0.0384 -0.0759  0.2137
 2665W        W 6865   6.747   8.302  10.024  0.2103  0.0081 -0.0025
 2666W        W 6866   9.858   5.354   0.883  0.2658  0.2037 -0.1739
 2667W        W 6867   8.601   1.821   9.488  0.2068 -0.3275  0.1415
 2668W        W 6868   0.155   8.897   3.584  0.0186 -0.0358 -0.0498
 2669W        W 6869   2.697   6.743  12.552  0.3933 -0.0173 -0.0954
 2670W        W 6870   8.512   4.301  11.323  0.2866 -0.2888 -0.1135
 2671W        W 6871   6.861   7.464  10.241  0.1542 -0.0606 -0.0842
 2672W        W 6872   9.650   0.714  13.344  0.2045 -0.1812  0.1811
 2673W        W 6873   8.074   5.022   1.795 -0.0113  0.1393  0.1445
 2674W        W 6874   9.946   3.164   9.916  0.0267 -0.1023  0.2798
 2675W        W 6875   9.284   9.408   3.747  0.3028 -0.0570 -0.0789
 2676W        W 6876   5.783   2.291   3.339 -0.3127  0.0267  0.1214
 2677W        W 6877   4.314   5.219   1.538  0.0819 -0.2798  0.3397
 2678W        W 6878   1.736   4.910  10.832 -0.1053  0.1159 -0.2223
 2679W        W 6879   9.756   7.795   1.951  0.2832 -0.0434  0.1731
 2680W        W 6880   2.280   1.890   0.896 -0.1172  0.0058  0.1789
 2681W        W 6881   3.987  10.000  13.355  0.0236  0.0449  0.3016
 2682W        W 6882   8.480   3.173   4.675 -0.0861 -0.1011 -0.0208
 2683W        W 6883   1.946   9.067  12.189 -0.1896  0.1653  0.0936
 2684W        W 6884   9.631   2.896  10.137 -0.0958  0.6195 -0.1655
 2685W        W 6885   5.455   2.652  10.007  0.2487  0.0728 -0.1183
 2686W        W 6886   7.098   8.214   3.460 -0.2138  0.0792  0.3344
 2687W        W 6887   3.280   3.417  10.887  0.2149 -0.0406  0.0846
 2688W        W 6888   6.250   8.187   5.060  0.0389 -0.2099 -0.1065
 2689W        W 6889   4.715   6.771   0.957 -0.3105  0.0123 -0.2947
 2690W        W 6890   3.876   4.553   2.797  0.0937  0.2842 -0.2163
 2691W        W 6891   5.491   8.535   2.370 -0.0022 -0.2505 -0.0410
 2692W        W 6892   6.055   9.146  12.692 -0.0786  0.2146 -0.3334
 2693W        W 6893   4.727   5.210   2.444 -0.2605  0.1563  0.1688
 2694W        W 6894   4.529   8.061  10.991 -0.2359  0.0199 -0.0290
 2695W        W 6895   1.795   3.413  12.728 -0.0611  0.0402  0.0631
 2696W        W 6896   1.981   4.065   1.399 -0.2708  0.0858  0.1366
 2697W        W 6897   3.366   1.523   2.502 -0.1603 -0.0235 -0.1367
 2698W        W 6898   4.783   4.698   3.253  0.1493  0.1001 -0.2576
 2699W        W 6899   9.862   1.631   1.413 -0.3867 -0.2222  0.5219
 2700W        W 6900   6.810   0.412   3.970  0.1462 -0.1521  0.0748
 2701W        W 6901   7.121   6.697  13.034 -0.1029  0.0633 -0.1195
 2702W        W 6902   3.451   6.902   9.816  0.2621 -0.0155 -0.0750
 2703W        W 6903   9.630   5.862   4.220 -0.4176  0.0340 -0.0813
 2704W        W 6904   8.910   1.848  12.384 -0.0443 -0.0897 -0.0019
 2705W        W 6905   1.227   9.864   1.851  0.0252 -0.1650 -0.2814
 2706W        W 6906   4.038   2.509   1.074  0.0610 -0.1057  0.1593
 2707W        W 6907   7.892   8.453  11.279  0.2345  0.1250 -0.1547
 2708W        W 6908   8.167   5.462   2.514 -0.2849 -0.3528 -0.0839
 2709W        W 6909   7.081   6.010  11.291 -0.1947 -0.0309  0.1155
 2710W        W 6910   5.295   8.550   2.861  0.0618  0.1252 -0.2402
 2711W        W 6911   5.125   9.533   2.472 -0.0490 -0.0332  0.0261
 2712W        W 6912   7.182   1.912  11.280 -0.1489  0.0087 -0.0177
 2713W        W 6913   8.735   2.720  11.767 -0.3520 -0.1069 -0.2950
 2714W        W 6914   0.333  10.481   9.584  0.0437  0.0785  0.1574
 2715W        W 6915   4.390   2.475   2.914  0.2228 -0.3966 -0.0488
 2716W        W 6916   2.792   1.569  10.033 -0.2766 -0.5336  0.1593
 2717W        W 6917   4.621   6.290  10.373 -0.1616 -0.3139  0.0572
 2718W        W 6918   6.495   8.093   9.206 -0.3515 -0.3560  0.0439
 2719W        W 6919   1.854   5.372   2.422  0.3572  0.0416  0.2668
 2720W        W 6920   7.481   5.595   8.919  0.1280  0.3356  0.1601
 2721W        W 6921   6.973   1.531   8.679 -0.2514 -0.3049 -0.2778
 2722W        W 6922   2.561  10.100  11.320 -0.0877  0.0290 -0.0898
 2723W        W 6923   1.881   5.757  13.028  0.1983 -0.3126  0.1641
 2724W        W 6924   2.766   3.191  12.003  0.3222  0.1726 -0.0661
 2725W        W 6925   9.413   3.693  11.054  0.2255 -0.2882 -0.0342
 2726W        W 6926   9.554   9.256   4.622  0.1851 -0.1843 -0.0148
 2727W        W 6927   9.018   0.169   1.553 -0.0085  0.1876 -0.1029
 2728W        W 6928   5.058   6.317  11.861  0.2919 -0.0583  0.0927
 2729W        W 6929   8.089   8.047  12.834  0.1648  0.0822  0.3684
 2730W        W 6930   0.616   1.172   0.032 -0.1995  0.0348  0.0886
 2731W        W 6931   8.250   5.833   2.903 -0.4126  0.1569  0.0298
 2732W        W 6932   1.487   2.291   1.928 -0.2549  0.1973 -0.0075
 2733W        W 6933   9.149   1.252   4.843 -0.0331  0.3037 -0.3584
 2734W        W 6934   7.311   3.364   9.644 -0.0881  0.0444  0.1715
 2735W        W 6935   3.494   5.913   4.462  0.0835  0.3230  0.1825
 2736W        W 6936   9.892   6.632  13.296  0.1417  0.0664 -0.2399
 2737W        W 6937   6.847   0.927   2.512  0.3759 -0.3246 -0.2814
 2738W        W 6938   9.318   5.615   0.694 -0.0523 -0.1135 -0.0839
 2739W        W 6939   8.294   7.675   1.116  0.0572  0.0294 -0.1354
 2740W        W 6940  10.222   0.834   2.156  0.2881  0.1335 -0.1950
 2741W        W 6941   1.248   7.629   2.483  0.2493 -0.2159 -0.3087
 2742W        W 6942   0.054   8.947   1.133  0.0586  0.1269  0.1048
 2743W        W 6943  10.437   5.516  10.118 -0.1780 -0.0245  0.1065
 2744W        W 6944   8.833   5.584  10.524  0.0837 -0.2721 -0.0354
 2745W        W 6945   7.866   4.625   3.853  0.3993  0.0837  0.2387
 2746W        W 6946   8.114   6.235   4.375  0.2259 -0.1656 -0.0403
 2747W        W 6947   2.682   4.485   4.170  0.1038 -0.1388 -0.1253
 2748W        W 6948   8.585  10.331   1.702 -0.0315  0.1191 -0.0970
 2749W        W 6949   9.570   9.350   8.874 -0.1678  0.0159 -0.0583
 2750W        W 6950   4.840   6.350   0.563  0.1583 -0.0733 -0.4065
 2751W        W 6951   4.928   6.843  11.813  0.0811  0.1178  0.0630
 2752W        W 6952   9.437   7.567   2.258 -0.1783 -0.0025  0.1490
 2753W        W 6953   3.148   4.967  12.635  0.0999 -0.2642  0.0353
 2754W        W 6954   4.249   9.444   3.671 -0.2068 -0.2752  0.0494
 2755W        W 6955   0.553   0.117   2.915  0.0820 -0.2110 -0.1059
 2756W        W 6956   9.468   0.590   9.977 -0.0071  0.3035 -0.0542
 2757W        W 6957   3.082   1.995   2.388  0.0425  0.0932 -0.1931
 2758W        W 6958   1.351   2.782  12.009  0.1091  0.0625 -0.0676
 2759W        W 6959   0.521   3.891   4.170  0.2317  0.2722 -0.0670
 2760W        W 6960   4.172   4.652   4.130 -0.1796 -0.0005 -0.3258
 2761W        W 6961   9.791   8.429   0.229 -0.0152 -0.1616 -0.0573
 2762W        W 6962   6.388   9.275   1.678  0.0153 -0.1036  0.0134
 2763W        W 6963   6.551   5.638  12.063 -0.0122 -0.1121 -0.1150
 2764W        W 6964   6.400   4.872   0.144 -0.1594  0.3491 -0.0108
 2765W        W 6965   6.891   7.212   2.167 -0.0251 -0.2255  0.0541
 2766W        W 6966  10.369   4.806   3.065 -0.0390  0.0194 -0.0363
 2767W        W 6967   4.266   5.681  10.950  0.0689  0.0752  0.2214
 2768W        W 6968   8.451   6.861  10.937  0.0468 -0.0308 -0.0055
 2769W        W 6969   4.816   6.324   4.700 -0.1179 -0.0069 -0.2889
 2770W        W 6970   0.504   7.349   8.944  0.2589  0.0626 -0.0443
 2771W        W 6971   5.305   1.279  12.768 -0.4193 -0.0427 -0.2095
 2772W        W 6972   7.200   0.767   9.098 -0.0383 -0.5359 -0.3214
 2773W        W 6973   8.076   9.761   4.507 -0.3683  0.0680 -0.0064
 2774W        W 6974   9.302   9.065  10.898  0.0120  0.3119  0.1287
 2775W        W 6975   5.678   9.409   2.340  0.0272  0.1495 -0.1588
 2776W        W 6976   8.042   2.371  12.314  0.0177  0.3390 -0.0417
 2777W        W 6977   1.275   4.354   3.640 -0.1906  0.1067  0.2337
 2778W        W 6978   4.514   8.501   4.411 -0.2653  0.3370  0.1320
 2779W        W 6979   6.626   5.312  10.300  0.3548 -0.2582  0.1193
 2780W        W 6980   8.314   5.353   9.288  0.1559 -0.0263  0.0139
 2781W        W 6981   9.003   8.465   2.318  0.2800  0.0175  0.3228
 2782W        W 6982   6.913   8.328   1.742 -0.4652 -0.0956 -0.1893
 2783W        W 6983   7.401   6.787  10.094  0.1447 -0.0092  0.1408
 2784W        W 6984   5.322   1.361  10.356 -0.4819  0.3886 -0.1287
 2785W        W 6985   6.958   9.126  12.536 -0.1664  0.0254 -0.0552
 2786W        W 6986   2.131   7.780  12.581  0.0973  0.1888  0.1411
 2787W        W 6987   4.989   1.660   1.386 -0.1573 -0.1110 -0.1772
 2788W        W 6988   6.168   0.680   0.770 -0.0691  0.1459  0.0411
 2789W        W 6989   0.298   0.570   1.612 -0.2078 -0.1039  0.0081
 2790W        W 6990   0.898   8.436  12.539  0.0207 -0.2940 -0.2783
 2791W        W 6991   7.860   6.163   9.030 -0.0084  0.0229 -0.0449
 2792W        W 6992   2.586   3.407   1.772  0.0317  0.3842 -0.1966
 2793W        W 6993   4.550   4.767   1.601 -0.1819 -0.3859 -0.1309
 2794W        W 6994   1.345   8.327   3.296 -0.0267 -0.3408 -0.0142
 2795W        W 6995   3.396   1.356  12.982 -0.1078 -0.0153  0.2422
 2796W        W 6996   7.890   0.306   9.387  0.0076 -0.0034  0.0421
 2797W        W 6997   4.097  10.039   9.591  0.2416 -0.1028 -0.1952
 2798W        W 6998   3.972   4.223  12.796 -0.1890 -0.2045 -0.0450
 2799W        W 6999  10.406   1.364   2.926  0.1553 -0.1524 -0.0128
 2800W        W 7000   8.852   8.782   4.922 -0.2023 -0.0582 -0.1017
 2801W        W 7001   3.524   6.034   9.935 -0.2522  0.2003 -0.0998
 2802W        W 7002   4.093   6.955   0.794  0.0333  0.1100  0.0518
 2803W        W 7003   7.944   4.498   2.095 -0.0869  0.0723  0.0144
 2804W        W 7004   6.246   2.680  10.663  0.0795 -0.0373 -0.0749
 2805W        W 7005   9.463   9.291   2.823 -0.0205 -0.0642 -0.0149
 2806W        W 7006   2.229   5.298   4.385 -0.1823  0.2971  0.1355
 2807W        W 7007   3.029   7.919   0.500  0.1163 -0.0667  0.0783
 2808W        W 7008   6.514   1.216   1.320 -0.0952 -0.1204  0.0482
 2809W        W 7009   5.766   3.966   1.661 -0.2182  0.1849 -0.0932
 2810W        W 7010   3.939   5.280  13.147 -0.0553 -0.0659  0.1284
 2811W        W 7011   1.736   0.490  12.312  0.0775 -0.1078 -0.0560
 2812W        W 7012   7.389   7.401   2.224  0.1060 -0.0397  0.0605
 2813W        W 7013   2.070   8.908  13.025  0.5135 -0.2952 -0.0183
 2814W        W 7014   9.985  10.055   2.257 -0.0669 -0.3195  0.0344
 2815W        W 7015   6.523   6.031   4.337  0.0700 -0.1944 -0.0757
 2816W        W 7016   3.387   2.943   4.183 -0.2170  0.1103 -0.0530
 2817W        W 7017  10.278   9.377   2.845 -0.0567 -0.2615  0.0480
 2818W        W 7018   0.948   7.545   3.366  0.0439  0.0155  0.0001
 2819W        W 7019   9.758   8.988  11.185  0.0509  0.0601 -0.2835
 2820W        W 7020   7.571   3.407  11.599  0.1001 -0.1983  0.2229
 2821W        W 7021   1.044   3.305   3.516 -0.1456 -0.0689 -0.1332
 2822W        W 7022   3.714   2.405   2.334 -0.1680  0.1332 -0.1020
 2823W        W 7023   4.617  10.068   1.136  0.3068 -0.2911 -0.0152
 2824W        W 7024   6.243   4.225   3.972 -0.0575  0.2136 -0.2559
 2825W        W 7025   0.119   9.034  10.210 -0.0009 -0.3453 -0.2147
 2826W        W 7026   6.259   4.999  10.292 -0.1141  0.1991 -0.0768
 2827W        W 7027   3.361   7.361   2.544  0.0471 -0.0166  0.1645
 2828W        W 7028   2.062   3.379  13.185  0.6572  0.1647  0.2086
 2829W        W 7029   4.381   0.600  10.063  0.0606  0.1152  0.0915
 2830W        W 7030   6.318   9.185  11.798 -0.0030 -0.4524  0.2152
 2831W        W 7031   7.665   8.374   2.349  0.1920  0.1874  0.0135
 2832W        W 7032   9.115   2.049   3.078  0.0073  0.1962  0.0348
 2833W        W 7033   1.986   2.431   5.281 -0.0429 -0.1399  0.1996
 2834W        W 7034   9.981   7.749  12.028 -0.0749  0.0215  0.1207
 2835W        W 7035   0.559   8.650  12.170 -0.1962 -0.1862  0.0445
 2836W        W 7036   4.320   4.482   3.262 -0.3225  0.0406  0.2451
 2837W        W 7037   8.463   0.305   8.910 -0.0911 -0.1593 -0.0352
 2838W        W 7038   1.441   1.859  12.399  0.0861  0.0216  0.0860
 2839W        W 7039   4.881   5.460   3.330 -0.0216  0.1691  0.1657
 2840W        W 7040   4.632  10.298   1.566 -0.1437 -0.4536 -0.1090
 2841W        W 7041  10.330   8.363   9.614 -0.1142  0.0613 -0.3154
 2842W        W 7042   0.894   5.266   3.686 -0.2493  0.4201  0.0171
 2843W        W 7043   2.993   6.925   8.796 -0.1185  0.2678  0.4530
 2844W        W 7044   8.919   5.425   1.437  0.1086  0.4430 -0.0997
 2845W        W 7045   0.077   9.398  11.509  0.1519  0.2936  0.1286
 2846W        W 7046   0.861   8.110   0.777 -0.1573  0.3045 -0.0281
 2847W        W 7047   2.328   4.936   9.862 -0.1468  0.1625 -0.1690
 2848W        W 7048   1.102   1.668  12.665 -0.0482  0.0296 -0.1247
 2849W        W 7049   4.770   0.442  12.762  0.1320  0.0128 -0.1484
 2850W        W 7050   0.917   4.661  13.289  0.0651 -0.3823  0.3529
 2851W        W 7051   1.211   9.284  12.670 -0.0430  0.0317  0.0845
 2852W        W 7052   1.781   7.148   1.487 -0.0082  0.2079  0.4251
 2853W        W 7053   9.031   6.967   4.427  0.0164 -0.4830 -0.0487
 2854W        W 7054   1.285  10.125   0.789  0.1174 -0.1477 -0.0682
 2855W        W 7055   8.906   6.554   9.050 -0.1749  0.1462 -0.1675
 2856W        W 7056   0.621   4.582   9.411 -0.0279  0.0544  0.1903
 2857W        W 7057   7.946   1.069   3.577 -0.1512 -0.0448 -0.1980
 2858W        W 7058   2.793   2.884   3.926 -0.2391 -0.2753 -0.0497
 2859W        W 7059   6.927   8.255   0.051  0.1613  0.3678  0.0789
 2860W        W 7060   7.380   5.649  11.523  0.2221  0.1795 -0.0244
 2861W        W 7061  10.206   7.280   2.372 -0.2118  0.0081 -0.2184
 2862W        W 7062   4.387   7.923  12.550 -0.0244 -0.3335 -0.2773
 2863W        W 7063   4.125   5.267  12.677  0.0534 -0.1330  0.3328
 2864W        W 7064   3.077   4.247   2.953 -0.3020 -0.0058 -0.0304
 2865W        W 7065   5.446   9.677   1.458 -0.1661  0.2400 -0.0855
 2866W        W 7066   9.583   2.042  10.758 -0.1209  0.1142 -0.2071
 2867W        W 7067   2.221   2.234   2.975 -0.0234  0.0526  0.1072
 2868W        W 7068   6.710   4.203   2.213  0.2504  0.1079 -0.2183
 2869W        W 7069   4.346   1.998  12.248 -0.1537  0.1393  0.1072
 2870W        W 7070   6.719   9.488   4.281 -0.1277  0.0856  0.3506
 2871W        W 7071   7.361   9.551   0.188  0.1776 -0.3212  0.0564
 2872W        W 7072   7.668   8.919  13.003  0.0644  0.1182  0.0815
 2873W        W 7073   2.876   1.481   2.328  0.0459  0.2249  0.2319
 2874W        W 7074   7.642   5.974  10.195 -0.2895 -0.0467 -0.0523
 2875W        W 7075   7.864   5.447  11.499  0.1840  0.2009 -0.1007
 2876W        W 7076   0.056   5.945   3.865  0.2134  0.0817  0.1177
 2877W        W 7077   0.776   5.070  10.392  0.1150 -0.0323 -0.2147
 2878W        W 7078   8.003   6.523  10.012  0.1810  0.0243  0.3221
 2879W        W 7079   4.197   8.721   0.225 -0.0119 -0.0038 -0.1171
 2880W        W 7080   8.994   2.059   9.435 -0.2433 -0.1161 -0.4670
 2881W        W 7081   2.187   9.909   3.127  0.0433 -0.1086  0.0286
 2882W        W 7082   5.489   1.004  11.321 -0.2541  0.0677 -0.1097
 2883W        W 7083   7.568   8.055  10.478 -0.2485  0.2430  0.1504
 2884W        W 7084  10.021   2.578   0.976 -0.1889  0.0345 -0.3262
 2885W        W 7085   0.922   4.737  11.009  0.2362 -0.0244  0.1417
 2886W        W 7086   3.410   7.694  12.220 -0.3211  0.1290 -0.0249
 2887W        W 7087   4.397   3.247  13.241  0.0874 -0.0485  0.0892
 2888W        W 7088   5.157   2.357   3.340 -0.0428  0.2063  0.1929
 2889W        W 7089   3.260   0.582  10.638  0.1464  0.1129  0.2814
 2890W        W 7090   0.431   6.438   2.598  0.1840  0.0169  0.0330
 2891W        W 7091   7.230   1.563   4.890 -0.2146 -0.0490  0.1015
 2892W        W 7092   5.280   6.097   0.576  0.0745  0.0926 -0.0036
 2893W        W 7093   1.753   3.434   2.286 -0.1262 -0.2141  0.0842
 2894W        W 7094   0.895   2.829  10.836  0.0562  0.1021  0.0894
 2895W        W 7095   5.778   9.948  11.037 -0.0057  0.2041  0.0059
 2896W        W 7096   0.439   3.982   2.060 -0.0928  0.2476 -0.0334
 2897W        W 7097   2.753   6.384   3.147  0.1820 -0.1226 -0.1166
 2898W        W 7098   9.627   7.403   1.689 -0.1881  0.0166  0.1595
 2899W        W 7099   7.542   9.781  10.817  0.1857 -0.0069  0.1413
 2900W        W 7100   4.434   5.962   4.650  0.2809 -0.2368 -0.0634
 2901W        W 7101   0.132   1.573  11.755 -0.0874 -0.1731 -0.0448
 2902W        W 7102   4.238   2.106   4.077  0.2556  0.2040 -0.0504
 2903W        W 7103   9.551   9.378  11.461  0.0624 -0.1159  0.0898
 2904W        W 7104   1.273   5.188   0.490 -0.1871  0.3381  0.2670
 2905W        W 7105   0.152   1.479  11.249 -0.1527 -0.0571  0.1510
 2906W        W 7106   0.883   3.403  13.008 -0.1535 -0.0200 -0.1453
 2907W        W 7107   3.447   2.037   3.136 -0.0443  0.1243 -0.3062
 2908W        W 7108   6.516   0.683  12.869  0.0336 -0.5340 -0.1094
 2909W        W 7109   7.755   2.633  13.256 -0.0593 -0.1444  0.0391
 2910W        W 7110   4.713   2.032   1.607  0.1511  0.0096 -0.0406
 2911W        W 7111   7.752   1.465   2.626  0.0578 -0.0181  0.0696
 2912W        W 7112   7.910   6.396  11.333  0.1914 -0.1045  0.1104
 2913W        W 7113   8.805   0.526   9.724  0.0775  0.1323  0.0572
 2914W        W 7114   3.716   4.523  11.395  0.0303 -0.2925  0.0165
 2915W        W 7115   7.465   7.465  12.239  0.0269  0.2308 -0.1166
 2916W        W 7116   4.430   7.356  12.431  0.1406  0.2000  0.2082
 2917W        W 7117   7.997   3.964   0.196  0.1444  0.4453  0.2682
 2918W        W 7118   7.336  10.151  12.530 -0.1327  0.1920 -0.0140
 2919W        W 7119   7.062   3.982   0.538 -0.2730 -0.4209  0.1993
 2920W        W 7120   1.086   3.299  10.809  0.0193 -0.0265  0.0503
 2921W        W 7121   8.761   5.639  12.457 -0.1551 -0.1626  0.1856
 2922W        W 7122   0.707   6.343   9.157 -0.1366  0.2048  0.1667
 2923W        W 7123  10.261   4.355   2.864 -0.1169 -0.2342  0.0319
 2924W        W 7124   4.218   4.179  13.244 -0.0876  0.3767 -0.2108
 2925W        W 7125   8.109   2.218  12.927 -0.1163 -0.0983 -0.0763
 2926W        W 7126   1.947   2.900  13.391  0.3476  0.0168  0.2007
 2927W        W 7127   9.376   3.509  12.697  0.0491  0.0409  0.0499
 2928W        W 7128   9.977   9.537   1.541 -0.2386 -0.4426  0.2898
 2929W        W 7129   6.734   2.589   0.320  0.0073 -0.2620 -0.1826
 2930W        W 7130   1.096   2.767   2.076  0.0913  0.1178 -0.3663
 2931W        W 7131   7.024   7.237  11.541 -0.1224  0.3430 -0.1547
 2932W        W 7132   9.957   1.544   4.234 -0.2338  0.1693  0.1014
 2933W        W 7133   9.391   9.676   1.556  0.1251  0.0875 -0.3804
 2934W        W 7134   4.668   4.039   9.922  0.1847  0.0518 -0.1008
 2935W        W 7135   4.521   5.949   3.367 -0.2012 -0.1650 -0.0187
 2936W        W 7136   8.405   7.603   4.297 -0.2303  0.2184  0.3432
 2937W        W 7137   0.691   3.918   8.404 -0.0804  0.0874  0.0686
 2938W        W 7138   7.210   3.641  13.393 -0.0093  0.1312 -0.0983
 2939W        W 7139   0.996  10.082  10.428 -0.2963 -0.1637  0.4134
 2940W        W 7140   3.889   7.966   9.342 -0.1112 -0.0748  0.1567
 2941W        W 7141   3.426   1.401   9.035 -0.1563 -0.0625  0.1282
 2942W        W 7142   0.318   5.051   0.704 -0.2906 -0.2669  0.0767
 2943W        W 7143   9.384   9.484  12.274  0.0127 -0.1694 -0.1059
 2944W        W 7144   0.307   6.779   3.993  0.1401 -0.0620  0.2742
 2945W        W 7145   7.727   0.811   4.379 -0.0498  0.4120  0.0847
 2946W        W 7146   5.860   2.271  10.131  0.0303 -0.2370 -0.2013
 2947W        W 7147   1.959   4.898   4.242 -0.2098  0.0063 -0.1939
 2948W        W 7148   0.664   4.984   9.767  0.1310  0.0795 -0.1992
 2949W        W 7149   2.505   0.645   0.573  0.3032 -0.3404 -0.4129
 2950W        W 7150   7.936   9.289   4.423 -0.2035  0.1156 -0.1196
 2951W        W 7151   6.610   3.196   2.375 -0.1550  0.1453  0.0134
 2952W        W 7152   6.459   1.508   4.430  0.1074  0.3200  0.3884
 2953W        W 7153   6.317   9.652   4.037 -0.2146 -0.1285  0.2108
 2954W        W 7154   6.036   9.282  13.158  0.1752  0.1144  0.1198
 2955W        W 7155   7.343   4.858  13.360 -0.2018  0.3853  0.0778
 2956W        W 7156   4.012   1.529   1.190 -0.1979  0.2385 -0.1250
 2957W        W 7157   7.491   1.607   0.818 -0.2051  0.2139  0.0048
 2958W        W 7158   8.671   1.596   2.202  0.1613 -0.1848  0.2626
 2959W        W 7159   1.416   6.385   0.075  0.0399  0.1618  0.1622
 2960W        W 7160   5.389   4.230   4.562  0.3547 -0.1370  0.1446
 2961W        W 7161   5.068   1.704   4.084 -0.2681 -0.0864  0.0510
 2962W        W 7162   8.234   5.202  11.769  0.1656 -0.0188 -0.2216
 2963W        W 7163   0.255  10.449   1.970  0.0103  0.0441 -0.0447
 2964W        W 7164   1.458   5.911   9.353 -0.0480 -0.0983 -0.0887
 2965W        W 7165   3.993   9.126  10.853  0.2296 -0.0862 -0.1014
 2966W        W 7166   6.618   0.128  12.779  0.2413 -0.0962  0.1492
 2967W        W 7167   8.322   3.458   0.848 -0.0164 -0.1860  0.0820
 2968W        W 7168   0.285   3.781   9.703  0.0291  0.1019  0.3397
 2969W        W 7169   4.653   6.678   1.628 -0.4038 -0.0973 -0.1852
 2970W        W 7170   2.509   7.880   4.317  0.0408 -0.0304  0.0875
 2971W        W 7171   2.671   1.001  11.852 -0.1978  0.1273  0.0986
 2972W        W 7172   6.428   2.055   3.816  0.0688  0.0088  0.2400
 2973W        W 7173   9.842  10.176   4.273 -0.1797 -0.1110 -0.2927
 2974W        W 7174   7.491   1.606   4.058 -0.0308 -0.2533 -0.2635
 2975W        W 7175   5.827   4.471   4.848  0.1016  0.1150 -0.0452
 2976W        W 7176   6.802   8.521   8.436  0.1502 -0.1280  0.0512
 2977W        W 7177  10.444   5.247   3.992  0.1072  0.1327 -0.0133
 2978W        W 7178   2.864   0.763   3.059 -0.0817 -0.2148  0.0502
 2979W        W 7179   3.093   2.671  12.637  0.0782  0.1222 -0.4341
 2980W        W 7180   7.119   3.135  13.177  0.1778  0.2681 -0.1460
 2981W        W 7181   2.336   8.442   0.922 -0.1725  0.1616  0.1370
 2982W        W 7182   6.313   7.472  10.291 -0.1963 -0.2304 -0.2199
 2983W        W 7183   7.226   0.046   0.551  0.2609  0.1214  0.0020
 2984W        W 7184   6.244   0.421  10.012  0.1050 -0.0484 -0.5183
 2985W        W 7185   5.095   8.200   0.906 -0.1094  0.1434 -0.1576
 2986W        W 7186   9.927   3.517   3.873 -0.2061  0.0729 -0.0705
 2987W        W 7187   6.309   4.915   9.741  0.1375  0.0604  0.0371
 2988W        W 7188   3.605   5.383   9.236 -0.1151 -0.0147 -0.2083
 2989W        W 7189   9.724   1.171  10.229 -0.3909  0.0221 -0.1210
 2990W        W 7190   8.504   7.580   0.123 -0.2012  0.1387 -0.2536
 2991W        W 7191   1.416   2.503  10.252  0.0433 -0.0857  0.0659
 2992W        W 7192   0.864   3.364   0.734  0.2731 -0.0639  0.2478
 2993W        W 7193   3.279   5.784  12.115 -0.2906 -0.0769  0.1581
 2994W        W 7194   3.919   2.809  11.215  0.0541 -0.2551 -0.0972
 2995W        W 7195   9.910   0.165   1.735  0.1104 -0.1177  0.0902
 2996W        W 7196   1.317   3.779   1.313  0.1059 -0.2638 -0.0625
 2997W        W 7197   0.895   4.706   4.324  0.0438 -0.0772 -0.1997
 2998W        W 7198   4.433   9.631   2.207  0.1347 -0.0397 -0.0367
 2999W        W 7199   1.361   3.313   2.999 -0.3740  0.1187 -0.0569
 3000W        W 7200   1.310   5.624   1.490  0.1050 -0.1366 -0.0257
 3001W        W 7201   1.636   4.495   1.779  0.3298 -0.3535  0.0236
 3002W        W 7202   2.917   2.102   9.972 -0.1678 -0.4276  0.1981
 3003W        W 7203   2.838   5.593   1.315  0.0568  0.1108  0.2460
 3004W        W 7204   6.829   6.383   8.524 -0.0859  0.1139  0.0703
 3005W        W 7205   0.275   6.078   1.681 -0.2896 -0.0741 -0.0447
 3006W        W 7206   1.483   3.910   4.207 -0.0035  0.2229  0.1161
 3007W        W 7207   3.642   9.072   0.131 -0.2357 -0.2603  0.0444
 3008W        W 7208   4.068   3.017   1.102  0.3651 -0.3364  0.0668
 3009W        W 7209   7.445   0.781   1.466 -0.1513  0.2458  0.3991
 3010W        W 7210   3.391   7.295   8.957  0.2473 -0.3557  0.1247
 3011W        W 7211   3.972   3.856  10.185 -0.2318  0.4755 -0.0919
 3012W        W 7212   2.602   4.946   4.529  0.0344  0.0013  0.2262
 3013W        W 7213   7.022   0.053   1.361  0.1352 -0.1168  0.1880
 3014W        W 7214   8.493   7.186   3.966  0.1109  0.0780 -0.1217
 3015W        W 7215   4.384   5.990   2.166 -0.0825  0.3493 -0.1199
 3016W        W 7216   9.811   8.002  10.273  0.0221 -0.3934 -0.0299
 3017W        W 7217   7.775   9.300   8.451 -0.3505  0.1392  0.3425
 3018W        W 7218   1.039   7.016  10.230 -0.0004 -0.0770 -0.1417
 3019W        W 7219   8.791   0.546   0.872  0.0258 -0.2719  0.1404
 3020W        W 7220   6.938   7.766   2.393  0.1955  0.1315  0.1074
 3021W        W 7221   1.195   4.628   1.102 -0.1177 -0.1488  0.2320
 3022W        W 7222   8.318   9.572   9.572  0.1001  0.1253  0.4745
 3023W        W 7223   6.946   4.759   4.548  0.1861  0.2054  0.1052
 3024W        W 7224   7.321   2.016   3.897  0.2241  0.3258 -0.0743
 3025W        W 7225   6.039   8.935  10.237 -0.1877 -0.1494  0.1323
 3026W        W 7226   1.483   3.449  11.353 -0.2941  0.1322 -0.0101
 3027W        W 7227   5.969  10.047   3.381  0.0994 -0.2399  0.2000
 3028W        W 7228   7.300   2.011   9.609 -0.1618  0.0367 -0.0419
 3029W        W 7229   5.815   1.083   8.026 -0.0159  0.0295  0.1258
 3030W        W 7230   2.901   0.826   0.299  0.1566 -0.2587 -0.0921
 3031W        W 7231   1.466   4.300   1.326 -0.3124 -0.0920 -0.0916
 3032W        W 7232   2.943   0.798  13.195  0.2948  0.1962  0.0083
 3033W        W 7233   5.871   5.994  10.906  0.2205  0.0505 -0.1046
 3034W        W 7234   4.891   3.733  10.446 -0.1690 -0.0584 -0.1795
 3035W        W 7235   0.269   9.104   9.710  0.0306  0.3019 -0.0470
 3036W        W 7236   1.246   4.270  12.869  0.2278  0.0769  0.1800
 3037W        W 7237   5.331  10.421   9.230 -0.1628 -0.2206 -0.1208
 3038W        W 7238   7.206   3.036  10.784  0.2405 -0.0978 -0.2781
 3039W        W 7239   0.676   9.079  11.005 -0.0581 -0.0928 -0.1560
 3040W        W 7240   0.042   4.678   3.964  0.0419 -0.1740 -0.1215
 3041W        W 7241   6.221   1.949   9.346  0.1697  0.1887  0.0889
 3042W        W 7242   9.039   0.313  11.306 -0.0660  0.2520 -0.2012
 3043W        W 7243   0.739   5.469  11.701  0.1422  0.0524 -0.3595
 3044W        W 7244   0.137   4.457  11.985  0.2296 -0.0517  0.1046
 3045W        W 7245   1.483   7.132  10.382 -0.0391  0.3004 -0.0149
 3046W        W 7246   3.290   7.213  12.039  0.0816  0.2736 -0.0722
 3047W        W 7247   2.346   4.892  11.640  0.0365 -0.0466 -0.1915
 3048W        W 7248   8.223   6.879   3.238  0.1282 -0.2052  0.2808
 3049W        W 7249   7.030   5.555   9.421  0.0904  0.0214  0.4161
 3050W        W 7250   2.522   4.065  12.075  0.0826  0.0083  0.1988
 3051W        W 7251   8.776   6.206   1.735  0.0934  0.2634  0.1194
 3052W        W 7252   6.210   2.263   4.188 -0.0247 -0.2418  0.0224
 3053W        W 7253   0.693   8.514   1.733 -0.3573 -0.1959 -0.1361
 3054W        W 7254   1.524   7.691  11.585 -0.0238 -0.0254 -0.0623
 3055W        W 7255   8.728   7.620   3.149 -0.2842  0.4165 -0.2269
 3056W        W 7256   0.949   8.655   0.016 -0.1716 -0.3407 -0.2024
 3057W        W 7257   8.036   9.284   0.307  0.2017  0.1812  0.2668
 3058W        W 7258   2.535   6.247  11.816  0.1612 -0.0670  0.3550
 3059W        W 7259   0.268   8.731   9.376 -0.1613  0.0542  0.0474
 3060W        W 7260   8.729   3.926  12.860  0.0288 -0.0090  0.0221
 3061W        W 7261  10.362   9.797  12.396 -0.1559  0.2559 -0.0879
 3062W        W 7262   6.462   6.205   1.671  0.2370 -0.1543 -0.1576
 3063W        W 7263   2.820   2.880   1.997  0.0665 -0.1107  0.1072
 3064W        W 7264   8.225   9.119   0.730 -0.0562  0.3004  0.0641
 3065W        W 7265   7.257   3.116   4.118  0.0654 -0.2699  0.0682
 3066W        W 7266   8.902   2.355   2.760  0.4772  0.0229  0.0373
 3067W        W 7267   9.089   1.993   1.531 -0.1486 -0.1313  0.0012
 3068W        W 7268   4.861   2.490   0.982  0.0761 -0.0861 -0.0253
 3069W        W 7269   5.836   7.019   9.273  0.2603  0.3142  0.2482
 3070W        W 7270   8.560   9.233   3.225  0.0843  0.0977  0.1350
 3071W        W 7271   9.420  10.184  10.125  0.0777 -0.1616  0.0410
 3072W        W 7272   4.670   3.227  12.293  0.1499 -0.0018  0.0388
 3073W        W 7273   8.926   4.583   4.754 -0.2968  0.0195 -0.0145
 3074W        W 7274   4.007   4.874   0.189  0.3131 -0.0906 -0.2783
 3075W        W 7275   0.358   1.151  11.743 -0.2035  0.0229  0.0352
 3076W        W 7276   0.566   8.469   4.331  0.1211 -0.0120 -0.4087
 3077W        W 7277   2.450   7.392   0.938  0.0166 -0.0140 -0.0686
 3078W        W 7278   1.332   9.630  10.348 -0.1232 -0.0160  0.4382
 3079W        W 7279   9.082   7.654  13.089 -0.2578 -0.1083  0.0430
 3080W        W 7280   0.452   3.822  10.159 -0.0425  0.1053 -0.1781
 3081W        W 7281   5.366   6.615  11.615  0.1698  0.0567 -0.1871
 3082W        W 7282   5.845   4.741   0.243 -0.4164 -0.2407  0.0882
 3083W        W 7283   1.632   9.053  12.656 -0.1250  0.1327  0.4906
 3084W        W 7284   9.620   1.497  12.893  0.0259 -0.2532 -0.1604
 3085W        W 7285   7.141   5.940   2.549 -0.1274  0.1165  0.0160
 3086W        W 7286  10.107   0.762   0.897 -0.0036  0.0715  0.1873
 3087W        W 7287   0.932   3.350   2.123 -0.0424  0.0503 -0.0217
 3088W        W 7288   1.834   1.935  10.483  0.1555 -0.1890  0.1610
 3089W        W 7289   0.144   9.301  11.007  0.3313  0.1380 -0.2041
 3090W        W 7290   3.591   4.849  13.193 -0.1626 -0.1008  0.0190
 3091W        W 7291   1.997   4.081  11.977 -0.0467 -0.2690 -0.3332
 3092W        W 7292   2.976   1.694   2.779 -0.0498  0.1452 -0.2744
 3093W        W 7293   7.735   8.404   0.662  0.0758 -0.0638  0.0985
 3094W        W 7294   0.275   0.441  11.828 -0.2598 -0.1096 -0.0691
 3095W        W 7295   2.527   7.021  12.993  0.1754 -0.0174  0.4476
 3096W        W 7296   1.403   7.327   1.297  0.1847  0.3562 -0.0062
 3097W        W 7297   1.921   1.940   9.879  0.1037  0.1407  0.2730
 3098W        W 7298   1.218   3.678  10.493  0.1080 -0.3943  0.4076
 3099W        W 7299   5.189   4.085   3.661 -0.0719 -0.1972 -0.3562
 3100W        W 7300   2.065   4.604   3.533 -0.1217  0.0042  0.0876
 3101W        W 7301   5.174   3.518  13.053  0.1378 -0.3334 -0.2320
 3102W        W 7302   8.616   7.582   0.667  0.1497  0.2253 -0.1271
 3103W        W 7303   8.885   3.012  11.299  0.2938 -0.0095  0.0478
 3104W        W 7304   6.645   6.630   1.398 -0.0449 -0.4418 -0.0685
 3105W        W 7305   8.349   8.797   3.794 -0.3289  0.2796  0.3675
 3106W        W 7306   0.084   1.385  10.171 -0.2289 -0.1188 -0.3305
 3107W        W 7307   8.365   7.901   3.357  0.1919 -0.2460 -0.2764
 3108W        W 7308   9.104   5.926  13.350 -0.3341 -0.2268 -0.0521
 3109W        W 7309   7.333   1.102   2.557  0.2015 -0.2968  0.1813
 3110W        W 7310   6.239   6.439   4.136 -0.1856  0.0354 -0.2008
 3111W        W 7311   8.604   5.704   2.421  0.1221  0.4517 -0.0113
 3112W        W 7312   5.001   1.374   9.985  0.1059  0.3559  0.2125
 3113W        W 7313   6.699   8.520   2.289  0.0398 -0.2775  0.1436
 3114W        W 7314   3.597  10.161   9.469 -0.0370 -0.1406  0.0775
 3115W        W 7315  10.307   2.017  12.169  0.2267 -0.1040 -0.2501
 3116W        W 7316   3.829   6.534   1.561  0.2310 -0.0730 -0.0165
 3117W        W 7317   4.715  10.186  10.935  0.1557 -0.2696  0.0295
 3118W        W 7318   1.948   2.946   3.610  0.2684 -0.0057  0.1111
 3119W        W 7319   0.903   1.226  11.514  0.2987 -0.2823  0.1726
 3120W        W 7320   0.144   0.427   4.462  0.0074 -0.3213 -0.2034
 3121W        W 7321   1.528   7.010   9.918 -0.0979  0.2338  0.0856
 3122W        W 7322  10.008   3.033   2.873  0.1781 -0.0157  0.0156
 3123W        W 7323  10.227   0.623   1.734 -0.2935  0.0066 -0.0260
 3124W        W 7324   2.474   4.815   1.880  0.0056 -0.1427 -0.0413
 3125W        W 7325   7.272   4.355   3.662  0.2913 -0.3541  0.0908
 3126W        W 7326   5.862   7.993   1.664  0.2151  0.3996  0.2030
 3127W        W 7327   9.676  10.447  12.261 -0.2106  0.3565  0.2020
 3128W        W 7328   1.577   4.779   1.377 -0.0811 -0.1111 -0.1411
 3129W        W 7329   8.476   7.310   9.318  0.0276  0.1825  0.0769
 3130W        W 7330   6.815   3.381   3.916  0.1713  0.2726 -0.0146
 3131W        W 7331   8.807   6.293  12.079 -0.1191 -0.2184  0.2247
 3132W        W 7332   4.892   4.847   1.241 -0.2604 -0.0939 -0.0548
 3133W        W 7333   1.524   1.313  12.536 -0.1236  0.0348 -0.0924
 3134W        W 7334   8.313   2.743  10.261  0.0346 -0.2116  0.0763
 3135W        W 7335   0.296   2.718  12.902 -0.1248 -0.0448  0.1240
 3136W        W 7336   0.864   6.421  10.930  0.0815  0.0550 -0.0077
 3137W        W 7337   5.433   3.259   2.679 -0.0840  0.1324  0.4436
 3138W        W 7338   2.343   7.261  11.418  0.1616 -0.2660 -0.1609
 3139W        W 7339   8.484   9.697   1.794 -0.2200 -0.0656  0.1047
 3140W        W 7340   3.380   7.280  12.496 -0.2155  0.0023 -0.0033
 3141W        W 7341   9.504   2.009   2.218 -0.0630  0.0134 -0.0430
 3142W        W 7342   0.292   2.234  12.704  0.1012 -0.0221  0.1937
 3143W        W 7343   5.774   5.818   5.199  0.1795 -0.0642 -0.3343
 3144W        W 7344   0.328   7.659  12.339  0.1255  0.2561  0.0910
 3145W        W 7345   8.486   1.707   0.812 -0.0109 -0.2374  0.3624
 3146W        W 7346   2.356   3.337   8.751  0.0661  0.3633 -0.2202
 3147W        W 7347   6.630   3.826   4.086 -0.2018  0.0036 -0.2526
 3148W        W 7348   2.790   3.153  12.689  0.1068  0.0494  0.0106
 3149W        W 7349   2.117  10.376  12.931  0.1981  0.0810 -0.1785
 3150W        W 7350   6.617   4.728   1.883  0.5053 -0.1644  0.2342
 3151W        W 7351   0.227   8.910  10.688 -0.1047  0.2078  0.1288
 3152W        W 7352   3.176   6.140   2.687 -0.4184 -0.1088  0.1416
 3153W        W 7353   5.100   6.583   9.102  0.0625 -0.1970 -0.0231
 3154W        W 7354  10.354   4.304  12.364 -0.0835 -0.0882 -0.1647
 3155W        W 7355   0.149   4.704   1.467 -0.2155 -0.5080  0.0426
 3156W        W 7356   4.985   5.742   1.550  0.1145  0.0061 -0.2262
 3157W        W 7357   4.927   1.046  10.358 -0.1737  0.2916 -0.0666
 3158W        W 7358   0.910   7.260   1.168  0.0318 -0.1889 -0.2556
 3159W        W 7359   6.112   1.371  12.871  0.0506  0.0755 -0.0204
 3160W        W 7360   8.152   3.133   3.752 -0.2005 -0.2316  0.0246
 3161W        W 7361   4.024   6.489   0.914 -0.1792 -0.0027 -0.1097
 3162W        W 7362   1.932   2.915  10.016 -0.0284 -0.4012  0.2420
 3163W        W 7363   3.742   7.647   2.372 -0.4295  0.0399  0.1057
 3164W        W 7364   6.866   5.532   2.120  0.1794 -0.1954 -0.0003
 3165W        W 7365   3.998  10.493   0.951  0.0299 -0.0198  0.1671
 3166W        W 7366   2.179   3.101  11.725 -0.0264 -0.3528 -0.0010
 3167W        W 7367  10.059   8.190  12.277  0.1577  0.1362 -0.0530
 3168W        W 7368  10.494   1.402   9.445  0.0260 -0.3320 -0.0672
 3169W        W 7369   7.306   5.601   4.474 -0.2817  0.0081  0.0701
 3170W        W 7370   4.466   6.041   9.895 -0.0230  0.0066  0.1488
 3171W        W 7371   0.463   2.672   4.286  0.1991 -0.4516  0.1764
 3172W        W 7372   9.330   1.953  11.196  0.0541 -0.0066 -0.0076
 3173W        W 7373   9.207   7.153   2.060 -0.0032  0.1680  0.0323
 3174W        W 7374   4.798   1.952   1.084  0.3895  0.1490  0.1398
 3175W        W 7375   2.799   7.554  13.069 -0.3580  0.1633 -0.3660
 3176W        W 7376   3.212   5.347   2.875 -0.5098  0.0887  0.1524
 3177W        W 7377   8.565   4.534  13.221 -0.3442 -0.0095 -0.4018
 3178W        W 7378   1.647   2.637   2.355 -0.1443 -0.2643  0.3040
 3179W        W 7379   7.704   4.134  12.162  0.3483  0.0335  0.0575
 3180W        W 7380   1.277   5.963   4.102 -0.1574 -0.1211  0.0243
 3181W        W 7381   6.368   9.677   0.484  0.0196  0.1172  0.0360
 3182W        W 7382   9.112   1.637   2.016 -0.3917  0.1360 -0.0112
 3183W        W 7383   8.820   0.891   0.446 -0.0940 -0.1812 -0.2039
 3184W        W 7384   2.527   9.604   2.963  0.0494 -0.2751  0.2333
 3185W        W 7385   1.461   9.592   0.947 -0.1411  0.2120  0.3052
 3186W        W 7386   7.301   4.804  12.809  0.0489 -0.0529  0.2838
 3187W        W 7387   4.577   4.945  10.886 -0.0822 -0.8372 -0.3277
 3188W        W 7388   1.157   0.544   1.083 -0.2575 -0.0599 -0.0530
 3189W        W 7389   8.064   7.042   8.811 -0.1034  0.1003  0.1345
 3190W        W 7390   7.252   9.056  10.248  0.3638  0.0992  0.1027
 3191W        W 7391   0.023   5.499   3.586  0.2586  0.2365  0.3432
 3192W        W 7392   1.084   8.716  12.926  0.0403 -0.0315 -0.1037
 3193W        W 7393   4.637   2.496   3.356  0.1098 -0.3025  0.4657
 3194W        W 7394   6.061   5.541  12.882  0.0343 -0.1949 -0.2104
 3195W        W 7395   0.401   6.407   2.079  0.1750 -0.4122  0.0596
 3196W        W 7396   9.558   7.373   0.555  0.1336  0.1651  0.1595
 3197W        W 7397   9.729   3.580   1.076 -0.1820  0.0697  0.2509
 3198W        W 7398   8.391   6.294   1.337  0.1205  0.0860  0.0455
 3199W        W 7399   6.329   0.361  10.515  0.2216  0.0578 -0.1383
 3200W        W 7400   0.393   8.183   9.530  0.2083  0.1008 -0.0545
 3201W        W 7401   9.086   4.837   0.673 -0.1056 -0.1003  0.4637
 3202W        W 7402   9.898   5.252   5.189  0.0668  0.2198 -0.2726
 3203W        W 7403   5.330   3.737   2.734 -0.0670 -0.1286 -0.1686
 3204W        W 7404   8.058   8.681   0.453 -0.0532 -0.1370 -0.3284
 3205W        W 7405   3.699   4.009   4.327  0.1029 -0.1319 -0.0954
 3206W        W 7406   1.361   6.328   9.855 -0.1059  0.2834  0.0102
 3207W        W 7407   2.503   8.666   1.314 -0.0310 -0.3876  0.1237
 3208W        W 7408   7.708   5.160  12.635 -0.0169  0.0605 -0.0153
 3209W        W 7409   5.929   0.083  12.301  0.0619 -0.1591  0.0523
 3210W        W 7410   3.094   9.908   2.331 -0.1398  0.5303  0.1293
 3211W        W 7411   5.402   5.365  10.505 -0.2391 -0.2829  0.0016
 3212W        W 7412   9.509   9.122   0.904  0.2974 -0.1795  0.0460
 3213W        W 7413   5.887   8.351  10.419 -0.0217  0.1792 -0.0688
 3214W        W 7414   5.261   3.495   2.274  0.2017 -0.0800 -0.3408
 3215W        W 7415   5.329   7.032  11.347 -0.3743  0.0425 -0.1604
 3216W        W 7416   5.497  10.374   3.439 -0.0185 -0.2751 -0.2422
 3217W        W 7417  10.205   0.445   9.880  0.1433  0.0453 -0.2047
 3218W        W 7418   6.700   7.094   9.461  0.1546 -0.0873 -0.2746
 3219W        W 7419   7.946   0.732   9.635 -0.0986 -0.3065 -0.2040
 3220W        W 7420   1.678   6.658   3.367 -0.2420  0.3147  0.0585
 3221W        W 7421   6.348   3.552   9.554  0.0696  0.1514  0.0031
 3222W        W 7422  10.304   9.863   2.654  0.0506 -0.3303 -0.2812
 3223W        W 7423   2.886   2.531  11.228 -0.1348  0.3594 -0.0345
 3224W        W 7424   6.414   7.810   4.310 -0.1449  0.3025  0.1923
 3225W        W 7425   0.014   5.068  11.026  0.2074 -0.0254 -0.1487
 3226W        W 7426   3.296   4.433   0.721 -0.0199 -0.0597 -0.2241
 3227W        W 7427   6.546   9.037  11.316  0.0064  0.0533  0.2081
 3228W        W 7428   3.815   3.301  13.166  0.0038  0.4280 -0.1948
 3229W        W 7429   7.720   1.105   0.696  0.3042 -0.3192 -0.1894
 3230W        W 7430   6.737   0.685  11.838 -0.3856  0.1336  0.4931
 3231W        W 7431   0.330   6.826   3.442 -0.0896  0.0352 -0.1469
 3232W        W 7432   6.668   4.258   1.667  0.0718  0.0940 -0.0009
 3233W        W 7433   3.677   1.716   3.523  0.0723 -0.0175 -0.0400
 3234W        W 7434   7.980   5.496   8.982 -0.0658 -0.2010 -0.2340
 3235W        W 7435   8.334  10.010   0.848 -0.1739 -0.0082 -0.3033
 3236W        W 7436   1.170   6.177   1.609  0.0679  0.1565 -0.2466
 3237W        W 7437   7.718   3.705  10.067 -0.2194  0.1013  0.1550
 3238W        W 7438   6.087   0.772   3.709  0.2962  0.0699  0.1297
 3239W        W 7439   5.537   3.136  12.664 -0.2299 -0.1272 -0.0768
 3240W        W 7440   2.604   9.685   1.477  0.0296 -0.3577 -0.1325
 3241W        W 7441   9.248   1.630  13.252  0.0311 -0.0022  0.0913
 3242W        W 7442   4.036   2.714   1.504  0.1762  0.0599  0.1328
 3243W        W 7443   8.881   8.972   1.666  0.2236 -0.0134 -0.3126
 3244W        W 7444   7.065   0.500   1.285  0.0231 -0.1941 -0.1274
 3245W        W 7445   6.369   7.186   1.702 -0.2859 -0.1143  0.1379
 3246W        W 7446   2.722   1.688  12.419 -0.1685  0.0380 -0.0168
 3247W        W 7447   7.391   7.666   0.964 -0.2093  0.2399 -0.3211
 3248W        W 7448   9.470   2.354  10.153 -0.1393  0.1022  0.1921
 3249W        W 7449   0.699  10.217   1.137 -0.0301  0.1655  0.1882
 3250W        W 7450   3.257   0.512   0.074  0.1161 -0.3720  0.0768
 3251W        W 7451   5.977   9.699   8.783 -0.2275 -0.2301 -0.0801
 3252W        W 7452   9.599   7.898  12.309 -0.0025  0.3803  0.2170
 3253W        W 7453   5.169   1.556  11.364 -0.0997  0.0456  0.0087
 3254W        W 7454   9.018   0.804  10.143 -0.2805  0.0670 -0.3104
 3255W        W 7455   4.482   4.278   9.310 -0.2065  0.1440 -0.2505
 3256W        W 7456   4.054   0.597  10.966  0.1584  0.1020 -0.1407
 3257W        W 7457   8.322   1.364   5.127  0.0720 -0.1443 -0.0800
 3258W        W 7458   6.870  10.226   3.155  0.1188 -0.2119  0.0648
 3259W        W 7459  10.355   3.235  11.721 -0.0400 -0.0822 -0.2055
 3260W        W 7460   4.069   8.295   0.609 -0.0106  0.2895 -0.0922
 3261W        W 7461   5.876   2.695   9.146  0.0990  0.1564  0.2766
 3262W        W 7462   5.660   3.174   2.163 -0.0885 -0.3926 -0.3680
 3263W        W 7463   4.739   6.786   4.586  0.1779  0.0527  0.3271
 3264W        W 7464   8.109   6.893   9.270 -0.0396  0.1562 -0.0570
 3265W        W 7465   9.099   1.666   2.769  0.1005 -0.0976 -0.0769
 3266W        W 7466   8.829   8.680  11.558  0.3521 -0.1384 -0.0893
 3267W        W 7467   9.323   6.361   1.546  0.0115  0.0884  0.0090
 3268W        W 7468   0.363   2.844   1.021  0.2478 -0.2138 -0.1935
 3269W        W 7469   8.295   1.279  11.253  0.0150 -0.5797 -0.1630
 3270W        W 7470   0.110   6.282  11.541 -0.0621 -0.3206  0.2248
 3271W        W 7471   9.455   9.552  10.994 -0.1556  0.1754 -0.1954
 3272W        W 7472   5.805  10.197   9.395  0.1693  0.0817 -0.3157
 3273W        W 7473   0.080  10.209   2.851  0.0954  0.0006  0.0438
 3274W        W 7474   7.087   0.937   9.595 -0.1490  0.0196  0.1461
 3275W        W 7475   2.769   2.687   9.863 -0.4104 -0.1008 -0.0570
 3276W        W 7476   3.742   9.544  13.360  0.1862 -0.1965 -0.0983
 3277W        W 7477   4.300   7.379   0.263 -0.0257 -0.1646 -0.1626
 3278W        W 7478   9.362   3.276   5.245  0.0856 -0.2758 -0.2157
 3279W        W 7479   4.410   8.042   1.889 -0.0242 -0.1921  0.0917
 3280W        W 7480   7.450   4.567  12.359 -0.4142  0.1412 -0.0977
 3281W        W 7481   5.785   2.864   5.387  0.3093  0.1158 -0.0789
 3282W        W 7482   0.589   5.529   3.289  0.3354  0.0805 -0.1824
 3283W        W 7483   9.262   2.750   0.001  0.0693  0.2305  0.0858
 3284W        W 7484   5.654   2.195   4.160 -0.1469  0.3634  0.2508
 3285W        W 7485   0.970   1.568   2.166  0.1164 -0.2659  0.3001
 3286W        W 7486  10.465  10.251  11.923  0.1441  0.1330  0.0993
 3287W        W 7487   7.390   7.894  10.917 -0.1198 -0.3480 -0.0790
 3288W        W 7488  10.338   6.765   3.732  0.4195 -0.1086 -0.1398
 3289W        W 7489   7.747   9.946   2.238 -0.0118  0.0973 -0.2547
 3290W        W 7490   1.800   4.344  10.250  0.2049 -0.0242  0.2949
 3291W        W 7491   3.607   3.466   2.244 -0.0050  0.1619  0.3040
 3292W        W 7492   4.337   6.971  10.548 -0.0692 -0.3381  0.1296
 3293W        W 7493   7.726   3.112   1.485  0.0729  0.1527  0.1333
 3294W        W 7494   5.899   5.310   0.348 -0.0482 -0.1335  0.2264
 3295W        W 7495   8.431   5.788  12.859 -0.0585 -0.2198  0.0896
 3296W        W 7496   0.946  10.307  11.479 -0.0021  0.0815 -0.3125
 3297W        W 7497   7.818   8.877   2.292 -0.3174 -0.0331  0.1974
 3298W        W 7498   3.161   4.253   9.142  0.3381  0.1901  0.2434
 3299W        W 7499   3.317   6.040   1.009 -0.0397  0.0585  0.1149
 3300W        W 7500   7.982   7.743  10.379  0.1205  0.0476 -0.0792
 3301W        W 7501   2.836   0.318  13.161 -0.5030 -0.0831  0.0397
 3302W        W 7502   3.649   3.900   5.457 -0.1360 -0.1415 -0.2938
 3303W        W 7503   0.543  10.175   2.665  0.2004  0.0814  0.0828
 3304W        W 7504   7.378   3.142   2.464 -0.0946 -0.0874 -0.1880
 3305W        W 7505   7.474  10.067   0.035  0.0870  0.0379 -0.1099
 3306W        W 7506   5.876   6.613  11.683 -0.0989 -0.1460  0.2172
 3307W        W 7507   4.038   1.943   2.465  0.0715 -0.0507  0.0702
 3308W        W 7508   9.112   2.366  11.932 -0.0141  0.0481  0.0236
 3309W        W 7509   5.107   3.668   8.954 -0.1341 -0.0970  0.0094
 3310W        W 7510   1.484   6.567   2.334  0.0906 -0.0398 -0.2327
 3311W        W 7511   6.155   2.131   0.087 -0.3020  0.1506  0.0266
 3312W        W 7512   8.685   5.169  10.810  0.0349  0.4395  0.1953
 3313W        W 7513   0.422   9.569  11.885  0.1773 -0.2271  0.0228
 3314W        W 7514   0.494   9.483  13.130  0.0647 -0.0849  0.0344
 3315W        W 7515   7.505   7.965   0.607 -0.2069 -0.3264 -0.0710
 3316W        W 7516   6.906   2.847  12.558 -0.0258 -0.0334 -0.0451
 3317W        W 7517   7.570   8.087   3.213  0.2406  0.1447  0.4046
 3318W        W 7518   7.849   0.763   2.345  0.0108 -0.0099  0.2882
 3319W        W 7519   7.912   6.336   9.524  0.2617  0.0638 -0.1832
 3320W        W 7520   2.841   5.408   2.597 -0.3087 -0.0240 -0.1179
 3321W        W 7521   5.886   6.123   3.880  0.0585 -0.3381 -0.3144
 3322W        W 7522   5.076   3.267  10.679 -0.2403 -0.4372 -0.0614
 3323W        W 7523   3.944   7.784  11.600  0.2984  0.2954  0.1224
 3324W        W 7524   9.655   6.100   9.526  0.1003  0.2006  0.1176
 3325W        W 7525   1.045   1.090   1.512 -0.0691 -0.3589 -0.2506
 3326W        W 7526   6.134   8.550   3.357 -0.2698 -0.3106  0.3668
 3327W        W 7527   3.164  10.416  12.109  0.1611  0.0810 -0.2713
 3328W        W 7528   7.999   0.838  13.187 -0.1955 -0.1503 -0.1372
 3329W        W 7529   4.756   9.855   0.711 -0.0447  0.1501 -0.1345
 3330W        W 7530   4.441   4.173  10.416  0.0422  0.0135 -0.0123
 3331W        W 7531   0.200   8.233   9.090 -0.0389  0.0004  0.2625
 3332W        W 7532   3.215   1.796   1.882 -0.1290 -0.2012  0.0821
 3333W        W 7533   6.747   0.738   9.865  0.3302 -0.1896 -0.4148
 3334W        W 7534   4.759   2.853  10.569  0.1249  0.2714 -0.2762
 3335W        W 7535   7.984   9.147   9.440 -0.0038 -0.0214 -0.1333
 3336W        W 7536   4.909   2.584   4.499  0.1741  0.4338 -0.2255
 3337W        W 7537   7.437   0.099  11.623  0.3970 -0.1857 -0.0518
 3338W        W 7538   6.262   1.694   1.173  0.0190 -0.1639 -0.1808
 3339W        W 7539   1.418   4.574  13.206  0.0649 -0.2475 -0.4643
 3340W        W 7540   2.837   4.531   0.970 -0.0735 -0.0287  0.0812
 3341W        W 7541   1.549   5.870  12.138  0.2412 -0.0741 -0.0552
 3342W        W 7542   0.720   5.518   2.291 -0.0675 -0.0470  0.1113
 3343W        W 7543   0.825   0.364   1.855 -0.3206 -0.2650  0.0460
 3344W        W 7544   0.399   7.850   2.545 -0.4643  0.0301 -0.1009
 3345W        W 7545   9.240   8.141  12.617 -0.0353 -0.2398  0.0575
 3346W        W 7546   5.641   2.393   5.042  0.4419 -0.0173  0.2883
 3347W        W 7547   2.628   5.009  12.034 -0.0999 -0.0118 -0.4333
 3348W        W 7548   8.037   0.502  11.214 -0.4617  0.0019  0.1247
 3349W        W 7549   7.300   1.028   4.990 -0.1241  0.1185 -0.1850
 3350W        W 7550   3.671   8.758  10.801  0.3461  0.1262  0.1039
 3351W        W 7551   3.944   1.465  10.566 -0.2706 -0.1492 -0.3196
 3352W        W 7552   3.633   4.842  11.783  0.3704  0.1018 -0.0440
 3353W        W 7553  10.130   4.197   4.492 -0.0421  0.3826  0.1451
 3354W        W 7554   6.028   6.821   1.772  0.0547 -0.1326  0.0684
 3355W        W 7555   7.452   1.693   1.814  0.0801  0.0813 -0.1866
 3356W        W 7556   9.095   9.678  11.912 -0.0069 -0.1303  0.0056
 3357W        W 7557   7.570   6.936  12.304 -0.0295  0.4257  0.1488
 3358W        W 7558   7.539   3.201   0.076  0.2024 -0.3533  0.0810
 3359W        W 7559   4.822   9.631   3.138  0.2357 -0.4552 -0.0557
 3360W        W 7560   3.096   6.786  10.142 -0.1886 -0.1829  0.1468
 3361W        W 7561   2.800   6.101   1.396  0.0721 -0.0159  0.0503
 3362W        W 7562   2.675   8.199   3.794 -0.2170  0.1513  0.0925
 3363W        W 7563   2.216   3.898   2.323 -0.1943  0.0430  0.1977
 3364W        W 7564   8.043   6.355   2.863  0.3870 -0.1985  0.2804
 3365W        W 7565   6.069   7.327   2.969  0.0717  0.0881 -0.2056
 3366W        W 7566   2.735  10.057   2.823 -0.0675 -0.0973 -0.3299
 3367W        W 7567   5.363   7.403   4.226 -0.1551 -0.0735 -0.0296
 3368W        W 7568   2.126   0.981  13.178 -0.1474  0.2200 -0.1302
 3369W        W 7569   6.808   1.728   1.480 -0.3001 -0.0144 -0.1484
 3370W        W 7570   0.591   4.377  11.636 -0.0586  0.1421  0.2768
 3371W        W 7571   7.977   6.395  13.155  0.0491 -0.3047 -0.1055
 3372W        W 7572   4.084   0.399   3.591 -0.2480  0.0383 -0.2018
 3373W        W 7573   3.258   3.137  12.476 -0.0520 -0.0393  0.0962
 3374W        W 7574   2.075   4.536   2.078  0.1988 -0.0252 -0.1834
 3375W        W 7575  10.151   8.039   3.431  0.1938  0.0163 -0.2279
 3376W        W 7576   1.984   6.498   2.103 -0.0951 -0.1459  0.1988
 3377W        W 7577   6.655   9.994   4.087  0.0273  0.1022  0.2799
 3378W        W 7578   3.075   9.532  11.487  0.1799 -0.3202  0.1142
 3379W        W 7579  10.034   9.976   3.818  0.1451 -0.1745 -0.2004
 3380W        W 7580   6.185  10.092   8.296 -0.2630  0.1177 -0.2131
 3381W        W 7581   1.002   0.132   1.442  0.2174 -0.1174  0.1376
 3382W        W 7582   8.834   6.471   1.258 -0.3590 -0.0901 -0.2324
 3383W        W 7583   4.738   6.236   9.341 -0.0581 -0.1332  0.0165
 3384W        W 7584   2.100   7.961  11.412 -0.2788  0.0524 -0.3095
 3385W        W 7585   7.281   5.080  12.330 -0.0172  0.2603 -0.0673
 3386W        W 7586  10.025   5.014  10.861  0.1026 -0.3261  0.3363
 3387W        W 7587   2.961   2.889  11.576  0.0262 -0.2254  0.1361
 3388W        W 7588   5.656   1.496  11.432 -0.0087  0.2823 -0.0621
 3389W        W 7589   7.127   9.930   1.941 -0.1689  0.0037  0.0891
 3390W        W 7590   3.577   7.656  12.835  0.0748 -0.2598 -0.2220
 3391W        W 7591   9.711   6.202  13.060 -0.0501 -0.1711  0.0496
 3392W        W 7592   3.672   9.050   9.607 -0.4067  0.1066 -0.0489
 3393W        W 7593   8.943   2.970   9.464 -0.1391 -0.1250 -0.0177
 3394W        W 7594   6.303   7.812  12.448  0.1066 -0.2015 -0.3003
 3395W        W 7595   0.542  10.192  11.221 -0.1065  0.5326  0.1754
 3396W        W 7596   2.579   1.536   4.050  0.2574  0.0266 -0.1342
 3397W        W 7597   9.900   7.065   3.949 -0.2496  0.0318 -0.0270
 3398W        W 7598   1.355   2.211   8.730  0.2427  0.0293  0.0027
 3399W        W 7599   5.074   9.885   1.217  0.1523 -0.0252 -0.3117
 3400W        W 7600   2.144   6.447  12.241 -0.0086  0.1406  0.1687
 3401W        W 7601  10.164   8.363  12.799 -0.4503  0.0232  0.1174
 3402W        W 7602   6.237   1.709   0.311 -0.0181  0.0845  0.1140
 3403W        W 7603  10.324   2.913   9.666 -0.0513  0.0512  0.1898
 3404W        W 7604  10.103   9.232   3.295 -0.1601  0.0120  0.0573
 3405W        W 7605  10.183   6.589  12.836  0.2741 -0.3333 -0.0835
 3406W        W 7606   3.645   3.982  10.991 -0.1711  0.0885 -0.0216
 3407W        W 7607   7.813   0.420  10.548  0.1340 -0.0600 -0.0436
 3408W        W 7608   9.045   6.023   4.467  0.0494 -0.0088 -0.2465
 3409W        W 7609   3.785   0.977  12.914 -0.1477  0.4121  0.1541
 3410W        W 7610   4.725  10.276   2.991 -0.3732 -0.2074  0.0435
 3411W        W 7611   8.572   9.755  10.369 -0.0088  0.1212  0.1205
 3412W        W 7612   8.124  10.129  13.316  0.1601 -0.2598 -0.0463
 3413W        W 7613   3.447   8.670   0.902 -0.0817  0.0269 -0.1629
 3414W        W 7614   2.711   2.938   0.270 -0.1146  0.2074 -0.0422
 3415W        W 7615   0.844   7.022   0.722 -0.2061 -0.3107 -0.0191
 3416W        W 7616  10.338   3.904   3.194 -0.0650 -0.1181  0.1140
 3417W        W 7617   8.693  10.285   9.081  0.0173  0.1025  0.3645
 3418W        W 7618   6.405   6.156   3.367  0.0608  0.0933 -0.3350
 3419W        W 7619   0.445   0.527  12.851  0.0352  0.2338 -0.2790
 3420W        W 7620   5.203  10.162  12.269 -0.1822 -0.3301 -0.1053
 3421W        W 7621   7.230   1.666  13.285  0.2487 -0.0325 -0.1457
 3422W        W 7622   9.574   5.143  10.251 -0.1092 -0.1099 -0.0971
 3423W        W 7623   9.566   9.065   0.137 -0.0897  0.2423  0.1185
 3424W        W 7624   8.347   8.020  10.009 -0.1428  0.2736 -0.0904
 3425W        W 7625   3.450   1.398  10.711  0.1514 -0.1598  0.3146
 3426W        W 7626   0.319   7.544   9.999 -0.2299  0.2464 -0.0666
 3427W        W 7627   2.005   3.814  10.929 -0.0879 -0.0476  0.1772
 3428W        W 7628   9.856   8.694   2.251 -0.0977 -0.0661  0.3352
 3429W        W 7629   8.119   2.114   4.683  0.0832 -0.1024 -0.1018
 3430W        W 7630  10.494   2.088  11.476 -0.1939  0.2831 -0.1488
 3431W        W 7631   5.631   2.251  12.726  0.3270 -0.0891 -0.1639
 3432W        W 7632   1.723   7.653   1.500  0.0502  0.1391  0.1484
 3433W        W 7633   8.966   1.063   4.461  0.3851  0.1133  0.1498
 3434W        W 7634   5.680   0.015   0.121 -0.0179  0.1110 -0.0174
 3435W        W 7635   1.292   6.826   2.794  0.0866  0.2179  0.0353
 3436W        W 7636   8.329   5.853   9.050  0.0645  0.0189  0.0120
 3437W        W 7637   8.210   9.730   2.216 -0.1235  0.1304 -0.0249
 3438W        W 7638   7.241   1.958  12.546  0.1659  0.0752  0.1837
 3439W        W 7639   5.520   9.591  10.107 -0.0684  0.4552  0.0104
 3440W        W 7640   3.954   5.234  10.817  0.0267  0.2833 -0.2266
 3441W        W 7641   8.332   7.187  13.242 -0.2838  0.0134 -0.5029
 3442W        W 7642   4.908   5.230   1.581 -0.3204  0.1196  0.0139
 3443W        W 7643   3.604  10.039   2.253  0.0334 -0.1532 -0.0249
 3444W        W 7644   2.243   4.232  10.456  0.4058 -0.0580 -0.0927
 3445W        W 7645  10.271   7.236  12.583  0.3333 -0.2885  0.0339
 3446W        W 7646   2.386   0.099  13.305 -0.1865  0.2310  0.1153
 3447W        W 7647   3.321   4.458  11.072  0.3382 -0.0038 -0.0467
 3448W        W 7648   9.284   3.895  10.181  0.0613 -0.1809  0.0787
 3449W        W 7649   5.698   4.523   1.042  0.1457  0.1887 -0.1200
 3450W        W 7650   7.383   8.386   0.999 -0.1377 -0.0610  0.1686
 3451W        W 7651   2.006   7.474   2.385 -0.2376  0.3290 -0.0109
 3452W        W 7652   9.455   3.392   2.127  0.0414 -0.2775 -0.2354
 3453W        W 7653   8.285   3.899  13.149  0.0353  0.4254  0.0454
 3454W        W 7654   6.952   1.263   9.990 -0.3111  0.1367 -0.0184
 3455W        W 7655   0.107   5.194   4.708  0.3139  0.3456 -0.2215
 3456W        W 7656   4.088   5.229   9.527 -0.4273  0.2546  0.1229
 3457W        W 7657   7.062   3.949   1.282 -0.2510  0.0870  0.0374
 3458W        W 7658   9.133   5.804  11.854 -0.0732 -0.1525 -0.2388
 3459W        W 7659   8.646   6.189   2.235 -0.2398 -0.3088 -0.4886
 3460W        W 7660   6.450   4.319  12.598  0.3435 -0.0224  0.2312
 3461W        W 7661   7.316   8.825  10.819  0.0342  0.2733 -0.2618
 3462W        W 7662   0.286  10.114   1.608 -0.1720 -0.0655 -0.0866
 3463W        W 7663   3.096   6.650   2.803  0.0462 -0.0672  0.2361
 3464W        W 7664   2.657   4.166  12.611 -0.4125  0.2966 -0.1542
 3465W        W 7665   0.749   5.155   1.989 -0.1075  0.1718  0.4022
 3466W        W 7666   9.689   4.619   4.044  0.0028 -0.1752 -0.1854
 3467W        W 7667   8.455   8.018   3.962 -0.0031 -0.1341 -0.1191
 3468W        W 7668   4.970   0.175   9.436  0.1783  0.2724  0.1888
 3469W        W 7669   2.213   6.012   9.082  0.1183  0.0911  0.3048
 3470W        W 7670   7.798   8.341  13.125 -0.2821  0.2169  0.1647
 3471W        W 7671   5.552   9.851   2.581  0.0008  0.0900 -0.1656
 3472W        W 7672   3.961   6.149   3.537  0.2644 -0.1382 -0.0091
 3473W        W 7673   9.269  10.283  12.911  0.1121 -0.2169 -0.1700
 3474W        W 7674   4.415   0.101  12.075 -0.2230 -0.1354  0.0777
 3475W        W 7675   4.961   0.614   1.845 -0.0239 -0.0571 -0.0537
 3476W        W 7676   4.431   3.883  11.804 -0.1231  0.2971  0.2378
 3477W        W 7677   1.735   9.146   3.201  0.1749 -0.0677  0.0075
 3478W        W 7678   4.582   6.677   4.122 -0.0252 -0.0406 -0.3499
 3479W        W 7679  10.196  10.185  10.556  0.0080  0.5427 -0.0072
 3480W        W 7680   0.562   7.071  13.140  0.0834  0.2033  0.2041
 3481W        W 7681   2.434   7.428   0.084 -0.0379 -0.1087 -0.0972
 3482W        W 7682   0.982  10.362   2.824 -0.2989  0.4844  0.0838
 3483W        W 7683   0.710   0.326  13.293 -0.1676 -0.1197 -0.1301
 3484W        W 7684   0.123   5.159  13.251  0.0012  0.2646  0.2732
 3485W        W 7685   0.368  10.052  11.690  0.2006 -0.1374 -0.2014
 3486W        W 7686   9.135   4.743   4.172  0.1700 -0.1661  0.0560
 3487W        W 7687   0.629   2.210  12.057 -0.0808 -0.1133 -0.1945
 3488W        W 7688   0.405   0.624   2.658  0.1468  0.0214 -0.1587
 3489W        W 7689   2.118   5.833   3.600 -0.2944  0.1236 -0.0823
 3490W        W 7690   7.890   2.597  11.374  0.0187 -0.1344 -0.0163
 3491W        W 7691   6.513   2.342  10.920  0.2867  0.0549 -0.0177
 3492W        W 7692   0.405   8.926   4.122 -0.0635 -0.0243 -0.0087
 3493W        W 7693   2.723   4.857   3.748  0.3145  0.3043  0.1368
 3494W        W 7694   8.873   7.314  13.345 -0.0904  0.1953 -0.0888
 3495W        W 7695   8.473   8.891   2.793 -0.0112  0.1421 -0.0414
 3496W        W 7696   1.635   2.806   1.704 -0.1296 -0.0753  0.1586
 3497W        W 7697   6.480   2.341   2.906  0.1371 -0.2117  0.2473
 3498W        W 7698   9.929  10.285  12.725 -0.1397  0.1302 -0.1353
 3499W        W 7699   1.578   3.037   3.941 -0.1239  0.0834 -0.1985
 3500W        W 7700   3.617   1.880   2.162 -0.3193 -0.0002  0.1656
 3501W        W 7701   6.454   7.168   0.820  0.1496 -0.1974 -0.1803
 3502W        W 7702   7.676   8.562   1.842 -0.1180 -0.0731 -0.4543
 3503W        W 7703   9.665   8.061   9.776 -0.2687  0.0128  0.1917
 3504W        W 7704   9.872   6.934  12.846  0.3010  0.0567  0.1842
 3505W        W 7705   6.562   0.800   2.128 -0.0031 -0.0634 -0.2403
 3506W        W 7706   8.100   4.832  13.380 -0.2352  0.0053  0.3487
 3507W        W 7707   7.014   3.818   3.426  0.1031 -0.2865  0.2300
 3508W        W 7708   8.795   8.045  13.157  0.1305 -0.3101 -0.2596
 3509W        W 7709   1.709   5.230   3.943 -0.1377 -0.0524 -0.0842
 3510W        W 7710   1.840   6.988   4.200  0.0581  0.3174 -0.2080
 3511W        W 7711   0.434   0.481  12.312 -0.1764  0.2556 -0.1522
 3512W        W 7712   6.021   4.723  10.890  0.1048 -0.1602 -0.2786
 3513W        W 7713   9.652   6.469  12.556 -0.1979  0.0840 -0.1462
 3514W        W 7714   5.610   0.829   3.218  0.1960 -0.0719  0.0804
 3515W        W 7715   9.705   1.524  12.025 -0.0271 -0.1696  0.1651
 3516W        W 7716   8.098   7.074  10.612  0.1357  0.3267  0.2884
 3517W        W 7717   1.007   5.346  10.000 -0.0900 -0.0104  0.1617
 3518W        W 7718   3.884  10.317   0.410 -0.1791 -0.1084 -0.1065
 3519W        W 7719   2.927   1.393  10.943 -0.0490  0.0254 -0.4071
 3520W        W 7720   0.273   4.980  12.749  0.0177 -0.0372  0.0483
 3521W        W 7721   7.671   8.069   4.623 -0.2861  0.1244  0.3313
 3522W        W 7722   5.349   6.444   4.683 -0.0852  0.1170 -0.2219
 3523W        W 7723   1.591   1.934   1.451 -0.1639 -0.0943 -0.1939
 3524W        W 7724   8.385   7.867  11.742  0.0107  0.1298 -0.1549
 3525W        W 7725   3.179   8.092   1.824  0.2083  0.0133 -0.0144
 3526W        W 7726   4.666   8.324  11.465 -0.0151  0.4124 -0.1752
 3527W        W 7727   7.597   2.264  12.801 -0.2248  0.2146 -0.0039
 3528W        W 7728   8.859   6.716   3.949 -0.3591  0.0667 -0.0553
 3529W        W 7729   0.760   5.105  11.353 -0.1961  0.0198  0.2100
 3530W        W 7730   1.688   6.610   9.587  0.0541 -0.3087  0.0691
 3531W        W 7731   2.202   4.292  13.093 -0.1610 -0.0826 -0.0905
 3532W        W 7732   0.475   7.745   2.005 -0.0883  0.1303  0.1147
 3533W        W 7733   3.505   9.999   0.091 -0.1871  0.0414  0.1041
 3534W        W 7734   4.461   1.385   9.714 -0.0176 -0.1387  0.0774
 3535W        W 7735   5.286   6.618  11.004  0.1251  0.0961 -0.0109
 3536W        W 7736   9.192   1.628  10.829 -0.2041 -0.1059  0.0490
 3537W        W 7737   3.397   5.625   1.989 -0.1158 -0.0860  0.2734
 3538W        W 7738   6.756   2.277   4.708 -0.0858  0.0604 -0.0747
 3539W        W 7739   5.539   8.292   1.902  0.1019  0.1637 -0.1036
 3540W        W 7740   8.695   9.935  13.333 -0.0812  0.0487 -0.0310
 3541W        W 7741   1.037   1.771  11.654  0.3360 -0.2401  0.0732
 3542W        W 7742   1.378   2.093  11.473  0.2343  0.1068  0.0669
 3543W        W 7743   2.119   5.047   9.376 -0.1924 -0.0104  0.0696
 3544W        W 7744   4.428   4.120  12.249 -0.1393  0.0573 -0.1225
 3545W        W 7745  10.295   7.719  12.480 -0.1321 -0.0252 -0.4008
 3546W        W 7746   3.882   8.404   3.031  0.0300 -0.1332 -0.0536
 3547W        W 7747   8.098   3.763   3.428 -0.2368 -0.1291  0.0594
 3548W        W 7748   4.769   3.960   8.488  0.0523  0.1107 -0.2823
 3549W        W 7749   5.949   3.452   8.547 -0.4076  0.1449  0.0480
 3550W        W 7750   1.193   7.013   3.235  0.1947 -0.0552 -0.2921
 3551W        W 7751   0.750   3.413   1.649 -0.0190  0.0627  0.0171
 3552W        W 7752   7.014   9.143  11.244  0.0465 -0.0004  0.2565
 3553W        W 7753   3.387   6.862   2.364  0.0296  0.0347 -0.2370
 3554W        W 7754   1.383   1.011   1.105 -0.2554  0.3697  0.1092
 3555W        W 7755   8.322  10.063  11.270  0.1088 -0.0983 -0.0056
 3556W        W 7756   6.179   8.667   3.851  0.0423 -0.0420 -0.3368
 3557W        W 7757   4.835   7.025  12.260 -0.2372 -0.3502  0.2550
 3558W        W 7758   8.088   5.894   3.944 -0.0802  0.1806  0.3545
 3559W        W 7759   2.651   1.685   0.070 -0.1223 -0.0863  0.0475
 3560W        W 7760   1.143   2.797   3.588 -0.2066 -0.2062 -0.0049
 3561W        W 7761   8.380   2.650  12.710  0.0372  0.4962 -0.1718
 3562W        W 7762   6.158   6.386  11.174 -0.0604 -0.1108 -0.3672
 3563W        W 7763   3.076   4.215   9.610  0.0101 -0.0381 -0.1132
 3564W        W 7764   4.172   0.986   3.005 -0.0986  0.0220 -0.1972
 3565W        W 7765   0.139   7.075  10.867  0.1660 -0.0029  0.0278
 3566W        W 7766   4.056   4.814  11.061  0.0749  0.0198  0.0246
 3567W        W 7767   0.570   8.466   3.427 -0.2135 -0.2604  0.0791
 3568W        W 7768   8.133   1.176   0.888 -0.2632  0.1121 -0.2092
 3569W        W 7769   2.058   9.141  11.375  0.2080 -0.1144  0.3472
 3570W        W 7770   6.467   9.080   2.302 -0.1640  0.3557  0.2117
 3571W        W 7771   4.581   0.880  12.437  0.2195  0.1845  0.0808
 3572W        W 7772   6.161   0.511   1.941 -0.0655 -0.3001  0.1163
 3573W        W 7773   8.621   2.108  13.396 -0.2455  0.0727  0.0358
 3574W        W 7774   1.287   8.164   1.338  0.1604  0.1389 -0.2018
 3575W        W 7775   5.727   4.207   4.231 -0.0129 -0.0827  0.2434
 3576W        W 7776   5.747   5.877   2.177 -0.2706 -0.1231  0.2696
 3577W        W 7777   3.483   0.139   4.082 -0.0290 -0.3273 -0.0434
 3578W        W 7778   3.227   5.133  11.614 -0.0450 -0.0851 -0.0530
 3579W        W 7779   3.091   6.190  11.663 -0.1576  0.0445 -0.1977
 3580W        W 7780   7.132   9.088   2.916  0.2805 -0.1857 -0.0672
 3581W        W 7781   4.075   2.684  10.168 -0.1557 -0.3677 -0.0669
 3582W        W 7782   8.852   1.641  11.816  0.1597 -0.0056  0.1059
 3583W        W 7783   2.274   8.118  11.875  0.3150  0.0827 -0.4385
 3584W        W 7784   2.964   3.379   8.652  0.3945  0.1459  0.0731
 3585W        W 7785   6.871   4.791  11.703 -0.0325 -0.3782  0.0435
 3586W        W 7786  10.382   2.722   4.138 -0.5822 -0.0272  0.1890
 3587W        W 7787   6.224   3.175   2.064  0.0932 -0.2873 -0.0389
 3588W        W 7788   0.529   2.745   2.762 -0.1603  0.1325 -0.3830
 3589W        W 7789   8.766   0.792   3.179 -0.0330 -0.2032 -0.0458
 3590W        W 7790   0.724   3.581   3.851 -0.4501  0.1628 -0.0452
 3591W        W 7791   6.198   2.158  10.565  0.2211  0.2687  0.1502
 3592W        W 7792   7.471   8.808   9.798  0.1016 -0.0086  0.1374
 3593W        W 7793   7.220   2.570   2.357 -0.1699  0.1797  0.0365
 3594W        W 7794   9.877   4.460  13.399  0.1254 -0.2138  0.2087
 3595W        W 7795   7.046   6.909   4.048  0.2331  0.0908 -0.0074
 3596W        W 7796   4.579   9.622   3.957 -0.2141 -0.1498  0.0200
 3597W        W 7797   9.701   3.975  13.372 -0.3348 -0.4652  0.0949
 3598W        W 7798   6.302   7.549  12.900 -0.0985 -0.0009  0.0622
 3599W        W 7799   9.235   2.677  11.483 -0.6730 -0.1162  0.0699
 3600W        W 7800   5.035   5.273   4.612  0.0948  0.1017  0.4098
 3601W        W 7801   7.147   6.057  10.724 -0.1608  0.1797  0.0779
 3602W        W 7802   1.031   2.598   5.539 -0.1166  0.0515  0.2361
 3603W        W 7803   3.514   2.906  13.214  0.4223  0.1880  0.0532
 3604W        W 7804   0.297  10.303   3.854  0.2286 -0.0200 -0.0283
 3605W        W 7805   2.680   3.825   2.104 -0.2043 -0.1587  0.0473
 3606W        W 7806   8.582   3.492   3.057 -0.0016  0.1478  0.2337
 3607W        W 7807   7.415   2.205   1.650  0.0505  0.0388 -0.0662
 3608W        W 7808   6.972   8.307   9.162 -0.0924 -0.2703  0.3901
 3609W        W 7809   6.179   6.630  12.302 -0.1912 -0.0592  0.2579
 3610W        W 7810   5.724   1.765   1.348 -0.3868  0.1112  0.0720
 3611W        W 7811   3.250   0.289   1.383 -0.1412  0.1640 -0.4038
 3612W        W 7812   5.662   6.599   4.109 -0.0008 -0.0398 -0.1746
 3613W        W 7813   7.931   5.847   9.444  0.1739  0.0627 -0.0794
 3614W        W 7814   3.843   7.297  11.848 -0.0303 -0.1079  0.0470
 3615W        W 7815   4.346  10.062  10.649  0.0302  0.2744  0.5157
 3616W        W 7816   4.604   6.102   4.058 -0.1690 -0.1339  0.2338
 3617W        W 7817   8.089   4.151   9.311  0.0941  0.0708  0.0833
 3618W        W 7818   3.891   9.722  11.231 -0.1970 -0.1507 -0.0764
 3619W        W 7819   8.108   3.507  10.917 -0.1928 -0.1075 -0.3512
 3620W        W 7820   6.850   3.526   9.510 -0.0642  0.1092 -0.1072
 3621W        W 7821   8.699   2.597   0.191 -0.3601  0.0720  0.2965
 3622W        W 7822   9.283   4.641   5.429 -0.1545 -0.0467 -0.0738
 3623W        W 7823   5.230   1.050   3.487 -0.2016 -0.2195 -0.1243
 3624W        W 7824   4.828   5.583   2.017 -0.1105 -0.2139 -0.1329
 3625W        W 7825   9.586   9.487  12.727 -0.1286  0.1694 -0.0046
 3626W        W 7826   1.505   7.085  11.463 -0.1307 -0.2950  0.0545
 3627W        W 7827   5.054   2.705   3.637 -0.3763 -0.4156  0.1075
 3628W        W 7828   2.413   7.824   9.451 -0.0723  0.1627  0.0146
 3629W        W 7829   7.222   6.071   3.559 -0.0117 -0.1417  0.0787
 3630W        W 7830   0.786   2.462   1.772  0.0146 -0.1027  0.0587
 3631W        W 7831   7.832   9.268   8.964  0.3237 -0.5616  0.1984
 3632W        W 7832   2.950   4.258   1.412  0.1009 -0.0450  0.3637
 3633W        W 7833   3.088   8.280   3.464 -0.4226 -0.2273 -0.0449
 3634W        W 7834   8.527   9.957  10.831  0.1870 -0.0568  0.2251
 3635W        W 7835   3.211   9.860   4.094 -0.0712  0.0550 -0.2919
 3636W        W 7836   8.285   7.378  11.676  0.1918  0.0138 -0.0008
 3637W        W 7837   4.642   2.167  12.671  0.2684 -0.1688 -0.0014
 3638W        W 7838   2.841   1.234   3.670 -0.1196 -0.1479 -0.1941
 3639W        W 7839   6.564   1.835  12.006  0.0599  0.0635  0.1940
 3640W        W 7840   0.705   8.345   2.607 -0.3008 -0.4255 -0.2792
 3641W        W 7841   8.669   4.839   4.139  0.1667  0.2863 -0.0593
 3642W        W 7842   6.368   2.938   2.815 -0.1685  0.0518  0.2055
 3643W        W 7843   6.644   8.962   9.260  0.1078  0.0662  0.0069
 3644W        W 7844   7.641   5.428  13.119  0.0428 -0.0020 -0.2584
 3645W        W 7845   4.736   9.781   1.599  0.1018 -0.0983  0.0508
 3646W        W 7846   9.021   7.198   3.109  0.0448 -0.0326  0.2372
 3647W        W 7847   3.528   8.549  13.400  0.0495  0.0196  0.0272
 3648W        W 7848   5.807   7.269  10.541 -0.4450  0.0077 -0.0440
 3649W        W 7849   9.926   1.094  12.870  0.1721 -0.0252 -0.2114
 3650W        W 7850   7.375   2.555  11.411 -0.1411  0.3908 -0.0081
 3651W        W 7851   3.629   5.054  11.267  0.0617  0.1602 -0.1724
 3652W        W 7852  10.123   7.591  10.550 -0.3106  0.3083 -0.1359
 3653W        W 7853   1.860   7.122   0.923 -0.2334 -0.0288 -0.1264
 3654W        W 7854   9.375   1.322  11.754 -0.2592  0.0105  0.2103
 3655W        W 7855   4.522   6.460   2.086  0.4099  0.0051  0.0734
 3656W        W 7856   8.426   8.610  12.405  0.5205  0.0604  0.0842
 3657W        W 7857   7.762   8.899  11.063  0.1223  0.0293 -0.0217
 3658W        W 7858   4.164   6.372   4.034 -0.0723  0.0857 -0.0713
 3659W        W 7859   7.114  10.132  11.773 -0.1859 -0.0334 -0.1212
 3660W        W 7860   2.620   7.865  12.711  0.1328  0.0420  0.0106
 3661W        W 7861   0.646   7.604   4.411 -0.2236 -0.2292 -0.0691
 3662W        W 7862   1.628   8.605  13.053 -0.1830  0.0188 -0.1008
 3663W        W 7863   0.873   6.143  11.733  0.0357  0.2398  0.2302
 3664W        W 7864   9.273   1.862  11.914  0.0577  0.4478  0.0196
 3665W        W 7865   6.162   4.925   2.140  0.1602  0.0014  0.2647
 3666W        W 7866   5.099   8.323  11.710 -0.0435 -0.1644  0.1712
 3667W        W 7867   4.587   7.362   9.733  0.0972 -0.0065  0.2486
 3668W        W 7868   0.397   6.262   4.113  0.0225  0.1517 -0.2405
 3669W        W 7869   4.496   2.764  13.283  0.2850 -0.0456  0.2700
 3670W        W 7870   6.740   0.413  12.229 -0.3122 -0.4615 -0.2473
 3671W        W 7871   8.291   2.028  11.700  0.1417  0.0438  0.1191
 3672W        W 7872   8.735   4.712   0.338  0.3550 -0.1244 -0.0205
 3673W        W 7873   9.478   0.638  10.482  0.0770 -0.4382 -0.2884
 3674W        W 7874   1.159   8.199  10.035 -0.2307  0.2439 -0.0334
 3675W        W 7875   6.835   8.523   3.162  0.1876 -0.1108 -0.1304
 3676W        W 7876   3.229   7.381   1.596 -0.0104  0.0687 -0.1823
 3677W        W 7877   5.069   5.640  10.875 -0.2841  0.1675 -0.2288
 3678W        W 7878   2.304   6.189   2.297  0.0932  0.1955 -0.2824
 3679W        W 7879   0.906   1.682   3.255 -0.1627  0.4542 -0.2967
 3680W        W 7880   9.518   3.014  10.650 -0.0829 -0.3038 -0.3372
 3681W        W 7881   6.355   2.630  13.364 -0.1532 -0.1643  0.2375
 3682W        W 7882   8.590   8.529   9.965 -0.0022 -0.2222  0.0420
 3683W        W 7883   0.289   4.768   5.003  0.0392 -0.1557  0.1341
 3684W        W 7884   0.302   1.941  12.303 -0.1539  0.3755 -0.0733
 3685W        W 7885   8.517   8.037  10.537  0.1017  0.0237 -0.1837
 3686W        W 7886   1.568   4.463   2.260 -0.2537 -0.0171  0.3431
 3687W        W 7887   8.093   6.662  12.143  0.1562  0.0606  0.4415
 3688W        W 7888  10.366   1.990  12.738  0.1053  0.1372 -0.1844
 3689W        W 7889   6.838   7.686   1.155  0.1416  0.1165 -0.0341
 3690W        W 7890   0.471   8.667   2.971 -0.0903 -0.0907  0.1216
 3691W        W 7891   1.355   5.174   9.658 -0.0125 -0.1018 -0.0819
 3692W        W 7892   8.825   2.447   3.262 -0.5134  0.0948 -0.2213
 3693W        W 7893   9.361   7.314  12.218 -0.1619 -0.0835 -0.0449
 3694W        W 7894   8.620   9.642   4.067 -0.0539  0.1422 -0.3090
 3695W        W 7895   7.401   4.039   5.076 -0.2187  0.3852  0.1184
 3696W        W 7896   3.695   8.656   0.442  0.0481  0.1414  0.1556
 3697W        W 7897   5.544   6.869   1.746  0.2274 -0.1916  0.1537
 3698W        W 7898   7.365   7.555   2.741 -0.0764 -0.2411  0.1923
 3699W        W 7899   8.083   9.092   3.346 -0.2162  0.0610 -0.1161
 3700W        W 7900   6.590   6.047   0.313 -0.1508 -0.0537 -0.3248
 3701W        W 7901   2.546   6.650   2.200  0.1582  0.3396 -0.0580
 3702W        W 7902   4.942   5.450   8.658  0.0958  0.1504  0.1541
 3703W        W 7903   0.905   5.325  10.854  0.1565 -0.3120  0.1115
 3704W        W 7904   5.216   6.222  12.542  0.4627  0.0676  0.2619
 3705W        W 7905   6.344   5.531   4.302 -0.1812  0.1707  0.1911
 3706W        W 7906  10.003   7.438  11.463 -0.0842 -0.0456  0.2199
 3707W        W 7907   3.851   8.990   3.792 -0.0915 -0.0951 -0.0347
 3708W        W 7908  10.185   6.776   2.310 -0.0512  0.3595 -0.1780
 3709W        W 7909   4.550   5.004  12.773  0.0419  0.0221 -0.3012
 3710W        W 7910   8.691   8.212   3.163  0.0711 -0.2198  0.1341
 3711W        W 7911   9.466   7.235   3.702 -0.1340 -0.1700  0.1018
 3712W        W 7912   7.485   8.345   4.215 -0.1393  0.2319 -0.1537
 3713W        W 7913   6.129   3.962   3.431 -0.0912  0.0912 -0.1779
 3714W        W 7914   0.605   6.568   0.699 -0.2601 -0.0187 -0.4380
 3715W        W 7915   6.345   5.562   3.420 -0.1666  0.1040  0.0947
 3716W        W 7916   0.442   9.219   2.185 -0.0014 -0.1020 -0.3120
 3717W        W 7917   5.561   6.554   8.419  0.2330  0.0070 -0.0399
 3718W        W 7918   7.256   7.676  11.395 -0.1573 -0.1403  0.1776
 3719W        W 7919   4.719  10.426  12.669 -0.1925  0.2119  0.1104
 3720W        W 7920   3.184   1.055   2.720 -0.1948  0.0187 -0.0974
 3721W        W 7921   4.897   6.358   3.779  0.2862  0.3518 -0.0488
 3722W        W 7922   3.088   4.018  12.293 -0.4453  0.0119  0.1732
 3723W        W 7923   5.806   7.700   0.874 -0.2149 -0.0288 -0.2516
 3724W        W 7924   6.868   8.131  11.548 -0.0400  0.0246 -0.4190
 3725W        W 7925   2.339   2.677   3.775  0.0059 -0.1925 -0.0151
 3726W        W 7926   0.317   1.048   9.681 -0.1907 -0.1241 -0.0993
 3727W        W 7927   5.916   6.103   2.599 -0.0497 -0.1054 -0.0467
 3728W        W 7928   7.902   2.327  10.446  0.3041  0.2794 -0.3373
 3729W        W 7929   5.865   4.684   3.966  0.1417  0.2390 -0.0752
 3730W        W 7930   9.744   9.487  10.073  0.2352  0.1035  0.1536
 3731W        W 7931   6.527   3.556   3.491 -0.0609  0.4285 -0.1452
 3732W        W 7932   6.219   7.039   9.583 -0.1585  0.0718  0.0896
 3733W        W 7933   8.643   1.716   3.659 -0.2385 -0.2493 -0.0960
 3734W        W 7934   4.873   7.787  12.415  0.2585 -0.0370  0.0774
 3735W        W 7935   2.242   1.804  12.642  0.0784 -0.1359  0.5779
 3736W        W 7936   9.854   6.831   3.138 -0.1563  0.0942 -0.2168
 3737W        W 7937   3.848   1.018   0.447  0.2413 -0.2782  0.1797
 3738W        W 7938   7.611   2.482  11.809  0.1169 -0.0601 -0.3613
 3739W        W 7939   2.128   2.583  11.493  0.2012  0.0544 -0.1388
 3740W        W 7940   8.792   6.495  10.749  0.2564 -0.2726 -0.3098
 3741W        W 7941   3.917   4.981   4.333 -0.0255  0.1463 -0.3098
 3742W        W 7942   4.471   7.569   4.278  0.0643  0.0311 -0.2314
 3743W        W 7943   2.638   3.568   0.683  0.2348  0.1437  0.0172
 3744W        W 7944   6.730   9.989  11.431  0.0259 -0.0153  0.1173
 3745W        W 7945   1.450   3.848   2.254 -0.3326 -0.0960  0.1269
 3746W        W 7946   0.448   5.437  12.883  0.1573  0.0084  0.1063
 3747W        W 7947   6.545   0.508   2.581  0.0910  0.0262  0.1384
 3748W        W 7948   0.048   5.662   1.801  0.1355  0.2382  0.4590
 3749W        W 7949   4.297   2.306  13.267 -0.0342 -0.2472  0.5002
 3750W        W 7950   1.853   7.616   1.008  0.2546 -0.0275  0.1644
 3751W        W 7951   5.194   0.566   1.376 -0.2867  0.0835  0.0651
 3752W        W 7952   0.861   2.662  12.196 -0.1915  0.3193 -0.0264
 3753W        W 7953   4.444   2.607   9.698 -0.3034  0.1208  0.1647
 3754W        W 7954   6.855   3.504   0.410  0.3075 -0.0826 -0.0335
 3755W        W 7955   9.438   9.058  12.501  0.1705 -0.1143  0.1778
 3756W        W 7956   9.090   0.285  10.786 -0.0608 -0.1087  0.1669
 3757W        W 7957   6.781   7.750   3.595 -0.3945  0.0845 -0.0858
 3758W        W 7958   3.044   4.953  11.205  0.0884 -0.0954 -0.1096
 3759W        W 7959   4.999   4.971   9.484 -0.0582  0.0234 -0.2565
 3760W        W 7960   4.072   5.453  10.387 -0.2479 -0.1499  0.0501
 3761W        W 7961   4.000   6.833   4.599 -0.2600 -0.2576  0.3723
 3762W        W 7962   3.184   2.146  10.401  0.2018 -0.0821  0.0543
 3763W        W 7963   8.825   9.596   3.570 -0.0124 -0.1822 -0.0130
 3764W        W 7964   7.084   0.810  10.225  0.2274  0.0250  0.2694
 3765W        W 7965   5.319   0.009   2.962  0.2720  0.2329  0.2816
 3766W        W 7966   6.535   5.186   3.049 -0.2267  0.3063 -0.1591
 3767W        W 7967   4.841   1.987  12.119  0.1340  0.0287  0.2197
 3768W        W 7968   9.639   2.048   1.637 -0.3250 -0.2458 -0.0190
 3769W        W 7969   3.064   2.358  11.634 -0.0309 -0.1650  0.1469
 3770W        W 7970   2.882   9.918  10.791 -0.0800 -0.1567  0.1411
 3771W        W 7971   3.200   2.439   2.795  0.2213 -0.0036 -0.1496
 3772W        W 7972   4.669   0.797  10.725 -0.0401 -0.0378 -0.3596
 3773W        W 7973   2.326   9.934  10.788 -0.2108 -0.3344 -0.0481
 3774W        W 7974   2.551   0.710   1.074 -0.0524  0.1932 -0.2414
 3775W        W 7975   1.508   5.855  10.891 -0.0586 -0.1145 -0.0312
 3776W        W 7976   0.700   6.428   0.230 -0.3705 -0.3408 -0.1807
 3777W        W 7977   2.414   9.688   0.197 -0.0499  0.0333 -0.1794
 3778W        W 7978   7.642   8.539  11.740 -0.0269  0.1988 -0.1596
 3779W        W 7979   3.988   8.572  13.079 -0.2642  0.0814  0.1634
 3780W        W 7980   9.853   1.276  11.611 -0.1477 -0.3312 -0.0385
 3781W        W 7981   3.343   0.280  12.403 -0.0183  0.0094 -0.4645
 3782W        W 7982   3.038   3.184  13.355 -0.1368  0.2498  0.2672
 3783W        W 7983   8.072   0.775   3.983  0.2868 -0.1943 -0.0269
 3784W        W 7984   7.903   7.922   8.975  0.0078 -0.2580  0.1727
 3785W        W 7985   5.276   9.668  11.591 -0.1242 -0.1781  0.1151
 3786W        W 7986   7.794   9.520  13.301  0.0364  0.0819  0.0851
 3787W        W 7987   9.801   9.897   9.717  0.1017  0.0724  0.0364
 3788W        W 7988   5.074   0.854   2.421  0.2487  0.0389  0.0818
 3789W        W 7989   7.157   2.866   0.310  0.0203 -0.1505 -0.3457
 3790W        W 7990   6.451   7.857  11.160  0.3396 -0.0656  0.2392
 3791W        W 7991   1.957   3.411   9.891  0.1313  0.3852 -0.0408
 3792W        W 7992   7.019   0.172   3.369  0.2861  0.2966 -0.2343
 3793W        W 7993   5.132   1.932  10.118  0.1149  0.2476 -0.1010
 3794W        W 7994   5.633   4.004   3.289  0.0276  0.1714 -0.2084
 3795W        W 7995   4.184   1.734   9.501  0.0029 -0.2569  0.1695
 3796W        W 7996   5.404   0.477   9.070  0.3238 -0.1460 -0.2009
 3797W        W 7997   5.636   1.694   3.987  0.2747  0.1697 -0.0918
 3798W        W 7998   8.512   0.935   3.621  0.2307 -0.2819 -0.0051
 3799W        W 7999   6.037   7.471   4.209 -0.0730  0.1506 -0.1324
 3800W        W 8000   6.827   9.673   0.324  0.0693  0.3255 -0.0525
 3801W        W 8001   4.396   2.110   3.467  0.1996  0.2239 -0.0376
 3802W        W 8002   0.575   4.667   1.005 -0.0336  0.0056  0.0104
 3803W        W 8003  10.195   7.995   1.485 -0.1276  0.0121 -0.2353
 3804W        W 8004   6.161   8.807   0.133 -0.0329  0.0600 -0.1042
 3805W        W 8005   6.961   1.730   3.677 -0.1690 -0.1373  0.4160
 3806W        W 8006   9.703   6.397   4.025  0.2477 -0.2158 -0.4596
 3807W        W 8007   4.873   9.746  11.283 -0.0174 -0.1739 -0.0530
 3808W        W 8008   8.282   3.931   8.369  0.0870 -0.3337 -0.0815
 3809W        W 8009   5.540   1.529   8.322 -0.3726 -0.0426 -0.3143
 3810W        W 8010   9.130   3.313  12.245 -0.0282 -0.4087  0.0082
 3811W        W 8011   6.581   5.225   0.628  0.5609  0.2007 -0.0130
 3812W        W 8012   4.335   7.731   1.423  0.0518 -0.0855 -0.0271
 3813W        W 8013   3.213   8.710  12.555 -0.2499  0.0901 -0.3924
 3814W        W 8014   1.401   5.153   8.769  0.0673 -0.0958 -0.0455
 3815W        W 8015   4.247   5.173   0.957 -0.0243  0.3624 -0.0840
 3816W        W 8016   7.777   5.856   4.430 -0.3436  0.1498 -0.1033
 3817W        W 8017   3.002   7.604   0.115 -0.4359  0.0802  0.1434
 3818W        W 8018   6.246  10.142   9.700  0.0379  0.3559  0.0195
 3819W        W 8019   4.845   8.828  10.669 -0.2512  0.0236  0.1239
 3820W        W 8020   0.079   6.799   9.590  0.0609 -0.0941 -0.2989
 3821W        W 8021   6.295   6.734   0.654 -0.0733 -0.4515  0.0728
 3822W        W 8022   7.673   8.750   1.224 -0.0579 -0.0889 -0.1759
 3823W        W 8023   3.686   0.671   1.365  0.0282 -0.1328 -0.2132
 3824W        W 8024   3.585   6.210  11.912  0.2355 -0.0677 -0.0419
 3825W        W 8025   8.043   6.768   4.543 -0.0981 -0.1904  0.2938
 3826W        W 8026   4.850   7.191  12.747 -0.3330  0.2374 -0.0705
 3827W        W 8027   7.718  10.397   4.288 -0.0459 -0.0058  0.1843
 3828W        W 8028   4.545   9.401  13.077 -0.0731  0.0670 -0.2946
 3829W        W 8029   0.760   4.870   0.306  0.2056 -0.0489 -0.1429
 3830W        W 8030   0.340   1.717   1.687 -0.1157 -0.3480 -0.2014
 3831W        W 8031   6.062   6.602   9.471  0.0535 -0.0361  0.1903
 3832W        W 8032   4.597   7.702  10.150 -0.0889  0.0207 -0.0024
 3833W        W 8033   8.662   0.616  10.969 -0.0273  0.0422  0.1521
 3834W        W 8034   8.551   5.308  12.133 -0.0621  0.1407  0.0056
 3835W        W 8035   5.710   4.518   3.053 -0.0051 -0.1531 -0.2259
 3836W        W 8036   7.097   0.113   9.444 -0.0789  0.0301  0.1241
 3837W        W 8037   4.665   8.796  12.390  0.0851  0.0975 -0.0830
 3838W        W 8038   8.816  10.460  11.599 -0.0641 -0.1914  0.0899
 3839W        W 8039   4.965   7.035   4.998 -0.0599  0.1377  0.3064
 3840W        W 8040   2.868   4.233   3.764  0.2102 -0.0410 -0.2378
 3841W        W 8041   8.431   8.441   0.197 -0.0303  0.0765 -0.0854
 3842W        W 8042   8.840   6.032   9.141 -0.2530 -0.0716 -0.0615
 3843W        W 8043   0.152   4.818   9.622  0.3794 -0.2015  0.0854
 3844W        W 8044   9.596   2.691   0.598  0.0842  0.0578  0.2213
 3845W        W 8045   3.351  10.233   1.753  0.3319 -0.2987 -0.3592
 3846W        W 8046   2.724   1.553   4.554 -0.1643 -0.0945  0.0544
 3847W        W 8047   2.338   3.189   0.420 -0.0382 -0.0597  0.2582
 3848W        W 8048   5.940   2.561   1.957  0.3216  0.1583  0.0474
 3849W        W 8049   6.221   6.898   1.209 -0.1340 -0.0101  0.1450
 3850W        W 8050   4.079   2.280   4.517  0.1844 -0.0122 -0.2147
 3851W        W 8051  10.187   5.226  10.416  0.3286 -0.0085  0.0516
 3852W        W 8052   0.810   6.987  11.613  0.1545 -0.1798  0.1932
 3853W        W 8053   4.815  10.156  10.332  0.1856  0.2598 -0.0199
 3854W        W 8054   6.697   5.779  10.442 -0.0199 -0.3323 -0.1272
 3855W        W 8055   3.882   7.412  12.359 -0.1372 -0.1092  0.1270
 3856W        W 8056   4.993   6.810  10.599  0.1154  0.3883 -0.1258
 3857W        W 8057   1.410   8.748  10.733  0.0184  0.0405 -0.1169
 3858W        W 8058   6.650   3.785   9.897  0.2398 -0.1772  0.3058
 3859W        W 8059   1.059   5.844  10.857 -0.2462  0.2835  0.0561
 3860W        W 8060   1.393   1.430  13.007 -0.0100 -0.1717  0.2752
 3861W        W 8061   6.755   2.647  10.581 -0.5141  0.2460 -0.0335
 3862W        W 8062   6.266   2.382   1.061  0.0615 -0.0194  0.1220
 3863W        W 8063   3.471  10.186   1.120 -0.2497 -0.0622  0.0698
 3864W        W 8064   3.370   0.984   0.172  0.3062 -0.0761 -0.0072
 3865W        W 8065   0.294   1.788  10.434 -0.0916  0.1494 -0.0935
 3866W        W 8066   6.134   7.728   5.370  0.0437  0.0805  0.0424
 3867W        W 8067   8.543   7.595  13.043 -0.1881  0.0666 -0.1387
 3868W        W 8068   0.709   0.022   9.916 -0.0715  0.2165 -0.1745
 3869W        W 8069   9.570   4.627   3.469  0.0371 -0.0735  0.0837
 3870W        W 8070   3.824   4.832   3.779  0.3250 -0.2373 -0.0353
 3871W        W 8071   8.599   7.630  12.098 -0.2657 -0.0494 -0.0630
 3872W        W 8072   5.130   6.284  11.333 -0.0802  0.1137 -0.2187
 3873W        W 8073   4.771   2.178   3.725 -0.2054 -0.1871  0.0560
 3874W        W 8074   4.973   7.321   8.512  0.1394  0.0475  0.1131
 3875W        W 8075   7.213   7.216   8.920 -0.0034 -0.0966 -0.0676
 3876W        W 8076   5.824   8.077   9.939  0.0083  0.0741 -0.0679
 3877W        W 8077   4.458   4.594  11.346  0.1259  0.1971  0.1198
 3878W        W 8078   5.885   9.516   4.885 -0.1854 -0.1334  0.1293
 3879W        W 8079   4.265   9.395  10.299  0.1868  0.5444  0.1802
 3880W        W 8080   3.886   8.529   3.588 -0.2359  0.1838 -0.0765
 3881W        W 8081   2.650   5.487   0.843  0.1197 -0.0600 -0.0371
 3882W        W 8082   0.074   7.614   1.488  0.0506 -0.0247  0.0173
 3883W        W 8083   8.938   5.050   4.572 -0.1987  0.3434  0.0955
 3884W        W 8084   2.876   2.418   2.395  0.2880  0.5063  0.1584
 3885W        W 8085   9.833   2.039  10.198  0.1406  0.0715  0.2360
 3886W        W 8086  10.219   6.242   1.348 -0.0105 -0.0724 -0.1761
 3887W        W 8087   5.386   0.282   3.788  0.0317  0.0420  0.1860
 3888W        W 8088   7.171   8.367  10.840  0.1007  0.0562 -0.1569
 3889W        W 8089   4.042   1.228  13.360 -0.0493  0.1306 -0.2413
 3890W        W 8090   1.023   7.323  10.690  0.1473 -0.1459  0.0127
 3891W        W 8091   2.137   2.833   0.832 -0.1949  0.0097 -0.1584
 3892W        W 8092   2.968   0.462  12.718  0.0889  0.1248 -0.0836
 3893W        W 8093  10.065   7.216  12.091 -0.1708 -0.3599 -0.1037
 3894W        W 8094   6.076   3.234   1.353 -0.1628 -0.0972  0.1340
 3895W        W 8095   3.400   1.208   3.484 -0.0427 -0.2632  0.2088
 3896W        W 8096   5.856   1.954  12.264  0.2420 -0.0531  0.1519
 3897W        W 8097   8.439   5.810   4.249 -0.1994 -0.2139 -0.0452
 3898W        W 8098   8.884   8.618   3.377  0.1469  0.0125 -0.1061
 3899W        W 8099   4.046   9.525  11.753 -0.0521 -0.2876 -0.2398
 3900W        W 8100   8.631   0.457  13.266  0.1017  0.1736  0.1124
 3901W        W 8101   4.955   2.494  10.249 -0.0633  0.1743 -0.4308
 3902W        W 8102   2.070   2.241  11.855 -0.2846  0.1999 -0.0161
 3903W        W 8103   9.770   6.885   0.338 -0.1988  0.0850  0.1179
 3904W        W 8104   2.068   8.705   4.048 -0.1674 -0.2964  0.3769
 3905W        W 8105  10.061   1.779   4.635 -0.1122 -0.0991 -0.1227
 3906W        W 8106   8.262   5.931   5.687  0.2603  0.1491  0.0269
 3907W        W 8107   1.262   4.726   0.282 -0.1423  0.0360  0.1612
 3908W        W 8108   7.078   2.626  12.028  0.1256  0.1926  0.0050
 3909W        W 8109   8.554   3.531   3.633 -0.4120 -0.0027 -0.2133
 3910W        W 8110   9.608   7.910   1.009 -0.0784  0.3145  0.1757
 3911W        W 8111   1.400   9.135  12.010 -0.4478 -0.0273  0.3403
 3912W        W 8112   2.047   1.235  11.672  0.1234 -0.2723 -0.1089
 3913W        W 8113   1.784   7.993   3.245 -0.1313 -0.0086  0.0950
 3914W        W 8114   5.083   2.980  13.044  0.2342  0.3166 -0.0753
 3915W        W 8115   9.934   5.984   3.003  0.0327  0.1842  0.2525
 3916W        W 8116   5.146   7.651   2.530 -0.0263  0.0037  0.2453
 3917W        W 8117   8.033   7.290   9.608  0.1532 -0.0054  0.0731
 3918W        W 8118   5.221   2.355   2.437 -0.0839  0.4513 -0.0123
 3919W        W 8119   2.413   1.116   0.340 -0.1326 -0.3275 -0.1157
 3920W        W 8120   5.070   3.028   2.512 -0.1109 -0.1587  0.0212
 3921W        W 8121   3.580   9.771   3.025  0.1450 -0.1482 -0.2919
 3922W        W 8122   6.489   5.280  12.875  0.0705  0.2234 -0.1534
 3923W        W 8123   2.645   8.285   3.301  0.2902 -0.0709  0.2929
 3924W        W 8124   2.300   0.615   9.601  0.2234  0.0949 -0.1501
 3925W        W 8125   3.046   4.838   0.575  0.2749  0.1079 -0.1786
 3926W        W 8126   8.928   4.929   5.220  0.3191 -0.3203 -0.1017
 3927W        W 8127   6.697   8.613   4.091 -0.3412  0.0658  0.2329
 3928W        W 8128   6.149   4.955   0.636  0.2264 -0.0605  0.0904
 3929W        W 8129   8.829   2.469  13.069  0.2064 -0.1150  0.1856
 3930W        W 8130   0.441   6.206  12.534  0.1640  0.4612  0.2255
 3931W        W 8131   8.666   6.587   4.477 -0.0084  0.0468 -0.1952
 3932W        W 8132   6.919   6.026   9.611 -0.0842 -0.1799 -0.2219
 3933W        W 8133   9.362   7.913  10.123  0.3732 -0.2775  0.1123
 3934W        W 8134   9.854   1.604   3.721  0.0532 -0.2100  0.2119
 3935W        W 8135   5.069   2.395   4.056 -0.0311  0.2947  0.0768
 3936W        W 8136   3.221   5.461   4.195 -0.0109  0.4569  0.1260
 3937W        W 8137   8.228   1.824   1.240 -0.1994 -0.0706  0.1579
 3938W        W 8138   0.935   4.094  10.267 -0.2433  0.3456 -0.0553
 3939W        W 8139   6.774   4.527   0.120  0.0618 -0.0948 -0.2732
 3940W        W 8140   3.319   3.359   3.287  0.3346 -0.0879  0.0830
 3941W        W 8141   1.104   3.826  13.099  0.1035 -0.1435  0.0143
 3942W        W 8142   8.156   1.843   5.201 -0.1023 -0.1381 -0.0406
 3943W        W 8143   7.985   3.818   4.315 -0.1121 -0.0725 -0.0867
 3944W        W 8144   3.372   0.714  10.043  0.2308  0.1423 -0.2170
 3945W        W 8145   2.135   9.462  13.084 -0.1981  0.3080 -0.0562
 3946W        W 8146   5.474   7.307   1.002  0.3544 -0.0963  0.0311
 3947W        W 8147   0.837   2.834   0.791 -0.0617  0.1834  0.0195
 3948W        W 8148   4.507   9.336   1.806  0.1993 -0.1945 -0.0762
 3949W        W 8149  10.253   5.896   3.395 -0.0671 -0.0146 -0.0196
 3950W        W 8150   1.915   2.416   0.208 -0.1306  0.3759  0.0395
 3951W        W 8151   0.042   6.368   3.498 -0.1561  0.0508  0.3327
 3952W        W 8152   1.706   4.568  12.823  0.2206 -0.1327  0.1532
 3953W        W 8153   0.947   5.441   9.440  0.1396  0.5314  0.1060
 3954W        W 8154   7.677   6.155  10.682 -0.1338 -0.0510 -0.2433
 3955W        W 8155   0.482   1.498  10.859 -0.2238  0.1118  0.0613
 3956W        W 8156   4.744   7.962  11.889 -0.3015  0.0264  0.1336
 3957W        W 8157   8.351   0.544  12.746 -0.0137 -0.2078  0.0015
 3958W        W 8158   5.870  10.055   1.692 -0.0245  0.0857 -0.1094
 3959W        W 8159   5.103   8.934  10.270 -0.1498  0.0918  0.1055
 3960W        W 8160   9.568   9.335  10.541 -0.2686  0.2177  0.0965
 3961W        W 8161   1.072  10.209   9.912  0.1375  0.1960 -0.0067
 3962W        W 8162   9.833   4.895  12.250 -0.0937 -0.2124 -0.1070
 3963W        W 8163   5.222   2.841   1.419  0.0307 -0.1354 -0.1375
 3964W        W 8164   4.484   5.641   4.205 -0.2209 -0.1024 -0.0065
 3965W        W 8165   1.899   3.188   1.886  0.4127 -0.0916 -0.1186
 3966W        W 8166   6.810   9.668   3.668  0.3508 -0.2509  0.1039
 3967W        W 8167   7.873   7.520   0.798  0.1057 -0.1213  0.1132
 3968W        W 8168   4.951   3.995   9.479 -0.0533  0.0885 -0.1655
 3969W        W 8169   7.426   4.410   2.260  0.3483 -0.0705  0.1469
 3970W        W 8170   2.657   6.196  10.075 -0.0212  0.0344  0.3590
 3971W        W 8171   2.348   4.329  11.632  0.3534 -0.1305 -0.0745
 3972W        W 8172   9.975   0.002   1.008  0.0782  0.1125  0.0877
 3973W        W 8173   7.405   6.005  13.263 -0.1409 -0.1194  0.0556
 3974W        W 8174   6.945   9.625  11.085 -0.0914 -0.0323  0.2109
 3975W        W 8175   3.283   8.933   9.970  0.0289  0.3887 -0.0233
 3976W        W 8176   4.540   3.806  10.772 -0.2220 -0.0856  0.0298
 3977W        W 8177   6.617   4.657   0.599 -0.5671  0.1600  0.1132
 3978W        W 8178   6.848   5.560   4.327  0.0109  0.0250 -0.0494
 3979W        W 8179   2.058   8.569  12.055  0.2828  0.0035 -0.1218
 3980W        W 8180   9.795   7.435  12.539  0.3582  0.0784 -0.0388
 3981W        W 8181   8.045   7.102   1.078  0.3149  0.1160 -0.2509
 3982W        W 8182   4.427   2.270  10.074 -0.0072 -0.3121  0.1115
 3983W        W 8183  10.322   5.532   1.275 -0.0019  0.0091  0.1154
 3984W        W 8184   3.846   3.921  11.495  0.0143  0.0551  0.3756
 3985W        W 8185   2.259  10.385   3.224 -0.0740  0.0667  0.0145
 3986W        W 8186   7.202   2.428  12.577 -0.1205 -0.2083 -0.1451
 3987W        W 8187   6.838  10.160  12.563  0.0355  0.2390  0.3050
 3988W        W 8188   7.940  10.412  12.732  0.2601  0.1256  0.0807
 3989W        W 8189   9.098   6.574   0.552 -0.1626 -0.2439 -0.4876
 3990W        W 8190  10.376   6.675  13.369  0.2133 -0.0266 -0.0139
 3991W        W 8191   6.545   1.310  12.618 -0.0128 -0.2615  0.1995
 3992W        W 8192   7.663   2.824   3.911  0.0421 -0.1474  0.0477
 3993W        W 8193   8.041   2.133   0.662  0.0673  0.0913 -0.0497
 3994W        W 8194   6.229   1.016   9.220 -0.0267 -0.0300 -0.0989
 3995W        W 8195   7.256   6.588  10.585 -0.4060 -0.0202  0.0670
 3996W        W 8196   6.235   0.456   3.224 -0.1640  0.1322  0.2619
 3997W        W 8197   5.199   9.514   3.495 -0.0611 -0.1322 -0.1301
 3998W        W 8198   5.832   5.388   3.608 -0.0015 -0.1312  0.0616
 3999W        W 8199   0.309   1.955  11.032  0.3633  0.1722 -0.4668
 4000W        W 8200   0.047   5.223   2.686 -0.2497  0.2929 -0.2099
 4001W        W 8201   1.296   9.361   1.902  0.0464  0.1789 -0.0991
 4002W        W 8202   2.329   0.069  11.660  0.0495  0.1331 -0.1205
 4003W        W 8203   9.979   6.343   8.617 -0.1170 -0.0522 -0.1397
 4004W        W 8204   1.650   5.388  11.115  0.2085  0.1693  0.2326
 4005W        W 8205   9.147  10.272  10.593  0.0630 -0.0355 -0.1293
 4006W        W 8206   3.938   4.405  10.299 -0.0343  0.1362  0.0893
 4007W        W 8207   3.996   7.547   3.308 -0.2655 -0.0331  0.0975
 4008W        W 8208   9.223   7.342  10.674  0.3203 -0.1158  0.2798
 4009W        W 8209   2.558   4.603  10.196 -0.0562  0.2068  0.0866
 4010W        W 8210  10.385   3.031   3.722 -0.0119 -0.1454 -0.0139
 4011W        W 8211   3.033   6.046   9.688  0.0144 -0.2931 -0.1947
 4012W        W 8212   5.099   8.576   1.838 -0.1101  0.2936  0.0010
 4013W        W 8213   7.053   6.346   0.701 -0.0877 -0.1082  0.1581
 4014W        W 8214   4.407   1.339  10.364 -0.0248 -0.0239  0.0542
 4015W        W 8215   0.247   9.623   2.835  0.1145 -0.2313  0.2207
 4016W        W 8216   3.179   6.884   0.776 -0.0325  0.1419  0.0162
 4017W        W 8217  10.138   0.940   0.062  0.1337 -0.0002  0.1350
 4018W        W 8218   5.018   5.941  12.166  0.0548  0.2559  0.1741
 4019W        W 8219   8.187   7.780   0.454 -0.2978  0.2151  0.3383
 4020W        W 8220   5.197   1.380  12.283 -0.1842  0.3722  0.0044
 4021W        W 8221   0.391   6.674  10.028 -0.0522  0.0756  0.2068
 4022W        W 8222   8.991   7.414  11.760  0.2525  0.0658 -0.1179
 4023W        W 8223   3.410   7.817   0.966 -0.0188  0.1697  0.1522
 4024W        W 8224   8.762   4.728  10.497  0.0646 -0.0160  0.2884
 4025W        W 8225  10.320   3.563   9.421 -0.1570  0.0690 -0.0769
 4026W        W 8226   9.171   9.416   2.440  0.0404 -0.2204  0.5457
 4027W        W 8227   5.599   1.701  10.999  0.0331 -0.1394 -0.0146
 4028W        W 8228   9.065   9.211   0.670  0.2175  0.0430  0.0084
 4029W        W 8229   7.520   9.112   0.477  0.1001 -0.1494 -0.0209
 4030W        W 8230   1.171   2.936   2.551 -0.3237 -0.0539 -0.2877
 4031W        W 8231   2.265   6.900  10.468 -0.1873 -0.0634 -0.1035
 4032W        W 8232   2.272   8.343  10.894 -0.0894 -0.1531 -0.2099
 4033W        W 8233   8.548   5.827   3.745  0.0200  0.2025 -0.0328
 4034W        W 8234   5.957   8.514   1.642  0.0966  0.1538 -0.1822
 4035W        W 8235   1.448   2.928   9.967  0.1786 -0.4311 -0.2672
 4036W        W 8236   1.188   8.508   0.525 -0.3091  0.0567 -0.2276
 4037W        W 8237   3.873   8.632  11.883 -0.2066 -0.0725  0.0188
 4038W        W 8238   4.801   2.098   3.153  0.2433  0.2760 -0.0365
 4039W        W 8239   9.724   5.368  12.367 -0.0652 -0.5114 -0.0055
 4040W        W 8240   6.408   8.278   1.479 -0.0930 -0.1036 -0.1332
 4041W        W 8241   6.103   0.109  12.881 -0.1392  0.1022  0.1512
 4042W        W 8242   8.670   2.320   8.563 -0.0542  0.0595 -0.2796
 4043W        W 8243   2.044   0.678   0.252  0.1004  0.0072  0.0154
 4044W        W 8244   2.555  10.006   1.901 -0.0132  0.1930 -0.0304
 4045W        W 8245  10.282   9.581   3.636  0.0847  0.2080 -0.1800
 4046W        W 8246   4.697   1.497  11.274 -0.1780  0.0363  0.0143
 4047W        W 8247   3.510  10.309  12.641  0.2160 -0.0400  0.0024
 4048W        W 8248   1.076   2.386   0.538  0.0891 -0.2425 -0.0583
 4049W        W 8249   4.966   2.532  11.972  0.1359  0.0132 -0.0736
 4050W        W 8250   1.652   2.350  12.608  0.0825  0.0120 -0.1393
 4051W        W 8251   0.194   6.066  10.998  0.1947  0.0035  0.0586
 4052W        W 8252   7.369   2.155   8.232  0.2620 -0.0423 -0.0501
 4053W        W 8253   9.843   3.702   3.394 -0.0136 -0.0689  0.1795
 4054W        W 8254   2.372   5.983  11.357 -0.1451  0.1639 -0.1652
 4055W        W 8255   7.638   9.697   8.686 -0.2082 -0.0595 -0.2384
 4056W        W 8256   3.743   9.895  10.018  0.1446  0.0142 -0.0693
 4057W        W 8257   4.246   3.203  10.175 -0.0227 -0.2770 -0.2191
 4058W        W 8258   1.685   1.376  13.377 -0.1448 -0.0347 -0.2625
 4059W        W 8259   9.813   0.493   9.567  0.0800 -0.0078  0.2404
 4060W        W 8260   5.531   9.811   2.007 -0.0569 -0.0146  0.0456
 4061W        W 8261   3.062   9.119  12.877 -0.3705  0.0997  0.0566
 4062W        W 8262   8.673   1.904  10.567  0.0516 -0.2084  0.2011
 4063W        W 8263   7.401   9.163   2.099 -0.1170  0.2676 -0.1463
 4064W        W 8264   2.392   8.521  10.056  0.0700 -0.1082 -0.0552
 4065W        W 8265   0.829   4.246   4.511  0.1582 -0.2297  0.0992
 4066W        W 8266   4.217   2.944   2.091  0.1041  0.1799 -0.0939
 4067W        W 8267   5.820   4.135   0.229  0.2444  0.4083 -0.5539
 4068W        W 8268   3.440   9.505   1.541  0.0490 -0.3345 -0.1721
 4069W        W 8269   7.516   5.415   9.422  0.0156 -0.2418 -0.3689
 4070W        W 8270   8.601   1.939   2.634  0.4315  0.1277 -0.0990
 4071W        W 8271   3.237   7.129   0.352  0.2447 -0.1435  0.3108
 4072W        W 8272   9.687   7.579   9.931  0.1218  0.0621 -0.0179
 4073W        W 8273   9.059   8.236   9.733 -0.0492 -0.2226 -0.0902
 4074W        W 8274   0.234   0.735  10.319  0.0578 -0.0320  0.1569
 4075W        W 8275   9.464   5.769  11.376  0.0445 -0.0208 -0.0594
 4076W        W 8276   0.383   6.614  13.275  0.0068 -0.3343  0.1196
 4077W        W 8277   6.870   9.404   2.124 -0.0698  0.1524 -0.0712
 4078W        W 8278   0.943   0.211  11.200 -0.1414  0.0147 -0.0333
 4079W        W 8279   3.702   6.451   3.905  0.0454  0.0031 -0.0992
 4080W        W 8280   1.744   4.412   0.293  0.0496  0.2331  0.1663
 4081W        W 8281   4.798   3.811  12.188  0.1745  0.4117 -0.0497
 4082W        W 8282   1.979   0.322  11.386  0.1135 -0.0676 -0.1074
 4083W        W 8283   0.100   9.429   1.859  0.1025  0.1985  0.0879
 4084W        W 8284   2.421   0.878   1.629 -0.0010 -0.0068 -0.2066
 4085W        W 8285   2.727   9.087  10.770  0.2970 -0.1012 -0.0229
 4086W        W 8286   7.669   5.024   2.951 -0.2104  0.0189 -0.1423
 4087W        W 8287   6.635  10.280  10.030  0.3066 -0.1788  0.1846
 4088W        W 8288   2.437   7.842   2.569  0.1705  0.1785 -0.0784
 4089W        W 8289   4.240   2.957  10.572  0.0478  0.1954  0.1361
 4090W        W 8290   9.248   0.648   4.218 -0.1317 -0.0611 -0.1010
 4091W        W 8291   3.439   0.868   0.657  0.2838 -0.1375  0.0334
 4092W        W 8292   2.073   7.579  11.766 -0.0685  0.0461 -0.2008
 4093W        W 8293   0.720   8.225   0.350 -0.2750 -0.1368  0.0684
 4094W        W 8294   4.611   4.368   3.725  0.0735 -0.3018 -0.0885
 4095W        W 8295  10.030   5.603   3.978 -0.1187  0.0797  0.0859
 4096W        W 8296   1.322   6.179   1.061 -0.1347 -0.0703 -0.0750
 4097W        W 8297   8.005   5.375  12.200 -0.0881 -0.0202 -0.1971
 4098W        W 8298   6.569   8.920   3.196  0.1100  0.2557  0.0443
 4099W        W 8299   6.469   9.400   0.830  0.2757 -0.0512  0.0689
 4100W        W 8300   7.688   8.004  11.339 -0.3349  0.0924 -0.2107
 4101W        W 8301   0.088   5.537   9.080  0.2047  0.0735 -0.1366
 4102W        W 8302   7.823   9.945   0.776 -0.0696  0.3093  0.3569
 4103W        W 8303   9.180   9.004  11.518  0.2641 -0.2603 -0.3215
 4104W        W 8304   8.337   6.704   4.104 -0.0397  0.0817  0.0264
 4105W        W 8305   5.317   0.968   1.598 -0.0808 -0.2558 -0.1236
 4106W        W 8306   7.090   1.229   0.054 -0.3007 -0.0786 -0.1571
 4107W        W 8307   9.943   0.500  10.418  0.4366  0.0027  0.0637
 4108W        W 8308   9.881   5.660   4.614  0.0162  0.0692 -0.2532
 4109W        W 8309   7.496   4.015   1.456 -0.1415  0.1106 -0.0578
 4110W        W 8310   3.495   1.512   1.085  0.1064 -0.3352  0.1047
 4111W        W 8311   8.936   4.356  12.886  0.3817 -0.1152  0.4646
 4112W        W 8312   7.392   7.390   8.448 -0.0720 -0.3760 -0.0919
 4113W        W 8313   2.023   4.029   0.118  0.1986  0.1673 -0.1024
 4114W        W 8314   9.022   3.168   1.047  0.2517 -0.0617  0.1831
 4115W        W 8315   3.282   0.627   2.229 -0.2623  0.0455  0.0279
 4116W        W 8316   3.022   2.193   3.397  0.0497 -0.0404  0.0403
 4117W        W 8317   6.959  10.329   9.007 -0.2290  0.0848 -0.1092
 4118W        W 8318   3.602   2.551   0.867  0.2636 -0.0739  0.0912
 4119W        W 8319   9.322   6.305   9.266  0.1696  0.1016  0.0658
 4120W        W 8320   8.219   5.430   3.742  0.1631 -0.2827 -0.1462
 4121W        W 8321   6.756   0.344  10.159 -0.2201  0.2014 -0.1164
 4122W        W 8322   6.295   5.828   2.960 -0.2915 -0.2167 -0.0852
 4123W        W 8323   7.728   6.745   0.850 -0.2307  0.2897 -0.0731
 4124W        W 8324   6.096   5.140  11.527 -0.1235 -0.2935 -0.1577
 4125W        W 8325  10.174   2.234   3.941  0.1376  0.0511  0.1209
 4126W        W 8326   9.149   0.409   3.253  0.0210 -0.0907 -0.0129
 4127W        W 8327   2.253   8.016   3.468 -0.0381  0.0582 -0.2126
 4128W        W 8328   9.103   7.524   3.518 -0.0729  0.2309  0.1168
 4129W        W 8329   6.398   4.716   4.054  0.2145  0.4929  0.0857
 4130W        W 8330   5.572   9.306   9.537  0.0724 -0.0857  0.3562
 4131W        W 8331   8.077   5.590  11.015 -0.1524  0.0022  0.0333
 4132W        W 8332   8.706   5.879   3.256 -0.0652 -0.0201 -0.0414
 4133W        W 8333   4.304  10.019   3.074 -0.3178 -0.2428 -0.2624
 4134W        W 8334   7.696   2.104  11.429  0.0978 -0.1386  0.3023
 4135W        W 8335   4.132   6.242   2.650 -0.3055  0.1105 -0.0092
 4136W        W 8336   6.074   7.398   9.190 -0.0559  0.0686  0.0688
 4137W        W 8337   8.288   5.646  10.169  0.0479  0.0931 -0.0599
 4138W        W 8338   0.312   5.345  12.389  0.0354 -0.3521  0.4069
 4139W        W 8339   6.290   8.597   9.917 -0.0558  0.1615  0.1294
 4140W        W 8340   7.402   8.066   9.318 -0.0528  0.3888 -0.0936
 4141W        W 8341   6.902   1.495  12.920  0.1113  0.0951  0.0659
 4142W        W 8342   1.737   9.308   1.374 -0.0012 -0.4657 -0.1373
 4143W        W 8343   6.748   3.066   4.389  0.0675 -0.1189  0.2629
 4144W        W 8344   4.264   4.357   0.725  0.0260  0.1314  0.0210
 4145W        W 8345   0.182   4.264   3.159 -0.0284 -0.2009 -0.0686
 4146W        W 8346   9.938   1.026   4.356  0.0086  0.3074 -0.2121
 4147W        W 8347   5.291   1.762   0.504 -0.0011  0.1687 -0.1734
 4148W        W 8348   3.366   1.359   9.545 -0.1679  0.0254  0.2285
 4149W        W 8349   2.304   4.831   3.179 -0.0355 -0.1063 -0.1003
 4150W        W 8350   8.522   2.776   9.397 -0.1571  0.1027 -0.1899
 4151W        W 8351   0.476   8.165  12.306  0.0882  0.0153 -0.0848
 4152W        W 8352   9.582   6.625   8.711  0.0106 -0.0729  0.1230
 4153W        W 8353  10.245   5.945  10.167  0.3650  0.0878 -0.1401
 4154W        W 8354   2.583   3.132   1.358  0.0466 -0.2211 -0.2610
 4155W        W 8355   1.190   0.983  12.974  0.0853  0.0196 -0.0749
 4156W        W 8356   8.707   7.053  11.549 -0.0673 -0.1220 -0.1623
 4157W        W 8357  10.361   1.202   2.460 -0.0753 -0.1917  0.2305
 4158W        W 8358   0.544   7.069  10.644 -0.5571 -0.0525  0.1746
 4159W        W 8359   4.554   0.903  11.605  0.1393  0.2002 -0.1699
 4160W        W 8360   6.262   7.805   8.924 -0.1980  0.3174  0.0257
 4161W        W 8361   6.036   9.279   0.305  0.3971 -0.0197  0.0052
 4162W        W 8362   6.812   1.097   9.089  0.1649 -0.0505 -0.0567
 4163W        W 8363   6.517   7.339   9.875  0.0072  0.2850  0.3513
 4164W        W 8364   2.518   9.305  11.525 -0.0622  0.2083 -0.2639
 4165W        W 8365   8.948   1.180   1.278  0.0792  0.1148  0.1262
 4166W        W 8366   4.198   3.452   2.107 -0.0035 -0.0125  0.0344
 4167W        W 8367   5.429   3.592   3.610 -0.0009 -0.4020  0.0597
 4168W        W 8368   6.621   1.535   3.947  0.2925  0.2843  0.2265
 4169W        W 8369   4.806   2.859  11.086 -0.2162  0.1083  0.1169
 4170W        W 8370   6.073   0.986  12.530  0.0761  0.1704  0.2665
 4171W        W 8371   1.972   6.623   1.571 -0.0691 -0.1298  0.0217
 4172W        W 8372   9.182  10.249   4.740  0.2911 -0.1447  0.0863
 4173W        W 8373   7.074   7.984  12.996  0.2772  0.1198  0.0312
 4174W        W 8374   2.913   9.898  13.379  0.1076 -0.0907  0.0709
 4175W        W 8375   1.252   1.957   0.757 -0.0271  0.2920  0.0894
 4176W        W 8376   5.043   3.711  12.593  0.2203  0.0755 -0.1155
 4177W        W 8377   4.600   2.863  11.993  0.1068  0.1955  0.3030
 4178W        W 8378   7.187   2.183  11.752  0.1377  0.3530  0.2614
 4179W        W 8379   5.054   5.075   2.047 -0.0452  0.2028  0.0958
 4180W        W 8380   8.933   8.397   8.780  0.1462 -0.2312 -0.0287
 4181W        W 8381   9.245   5.699  10.950 -0.0650  0.0793  0.0911
 4182W        W 8382   7.069   0.188  12.596 -0.0186  0.1616  0.0397
 4183W        W 8383   4.902   5.232   9.858  0.1130  0.0112 -0.0056
 4184W        W 8384   6.427  10.223   2.917 -0.0496  0.3958 -0.1977
 4185W        W 8385   2.720   7.279   1.361  0.1115  0.0056  0.1451
 4186W        W 8386   8.180  10.136   3.148 -0.1996 -0.1021  0.2011
 4187W        W 8387   5.897   0.574   2.898  0.0563 -0.1169 -0.0484
 4188W        W 8388   9.946   6.765   4.488 -0.2654 -0.1478  0.0687
 4189W        W 8389   5.800   2.973  10.752  0.1786  0.0062 -0.1021
 4190W        W 8390   5.348   5.012  10.073 -0.1126 -0.1047 -0.3571
 4191W        W 8391   7.170   8.470   3.896 -0.1216 -0.0305 -0.0457
 4192W        W 8392   7.445   9.847   3.711 -0.0553 -0.0762  0.2447
 4193W        W 8393   0.106  10.148   2.342  0.0353 -0.1921 -0.0521
 4194W        W 8394  10.064   5.141   2.797  0.0156  0.1888 -0.2229
 4195W        W 8395   9.765   4.226   3.764  0.0456 -0.2361  0.1442
 4196W        W 8396   8.456   5.351   1.692 -0.5576  0.1492 -0.0976
 4197W        W 8397   4.335   4.997   3.116  0.0355  0.0607 -0.2673
 4198W        W 8398   7.596   2.380   9.452  0.1025 -0.2493 -0.1228
 4199W        W 8399   0.779   3.049   3.880 -0.0762  0.0812  0.1803
 4200W        W 8400   9.402   7.166  10.222  0.0399 -0.1763  0.1686
 4201W        W 8401   5.751   9.286   7.943  0.2832 -0.2071 -0.2438
 4202W        W 8402   9.529   6.405  12.031  0.0299  0.0208  0.1884
 4203W        W 8403   4.689   7.841   0.937  0.0371 -0.0550 -0.1204
 4204W        W 8404   0.384   3.332   3.534  0.1451 -0.1480 -0.0767
 4205W        W 8405   0.955  10.396  10.860  0.0307  0.0864  0.2273
 4206W        W 8406   4.431   6.826  12.451  0.1091  0.0079  0.1638
 4207W        W 8407   8.029   3.583   2.984 -0.0847  0.0139 -0.3964
 4208W        W 8408   6.467   9.181   0.030 -0.0347 -0.0053  0.0795
 4209W        W 8409   2.834   5.855  12.208  0.2070  0.2841 -0.1324
 4210W        W 8410  10.430   3.097   9.166  0.1941 -0.0077  0.1598
 4211W        W 8411   0.174   0.439   1.113 -0.0100 -0.0574 -0.0164
 4212W        W 8412   0.541   5.658   1.879 -0.0228 -0.0745 -0.2552
 4213W        W 8413   2.111   9.966   1.648 -0.2656  0.0179  0.1822
 4214W        W 8414   6.637   8.788  12.603  0.1243  0.2292  0.0070
 4215W        W 8415   3.514   8.693   3.322 -0.0374 -0.1565 -0.3843
 4216W        W 8416   8.346   2.625   3.361 -0.2034  0.0840 -0.2749
 4217W        W 8417   6.464   5.000   3.581 -0.0483 -0.3224 -0.0375
 4218W        W 8418   8.210   1.833  10.604 -0.0064  0.2448  0.4846
 4219W        W 8419   9.205   8.692   9.169  0.0798  0.0644  0.1740
 4220W        W 8420   1.529   8.828   3.549 -0.1788  0.0662 -0.1701
 4221W        W 8421   5.904   6.879   3.205  0.0555 -0.0106  0.2321
 4222W        W 8422   5.972   4.886   3.548  0.1898 -0.1587  0.0541
 4223W        W 8423   0.347   7.897  13.199 -0.0172  0.1685 -0.0416
 4224W        W 8424   7.644   8.439  10.824  0.1445 -0.1534 -0.1355
 4225W        W 8425   0.154   0.495   9.683  0.1148  0.0431 -0.0656
 4226W        W 8426   6.247   8.024  10.445 -0.0014 -0.3721 -0.3963
 4227W        W 8427   8.443   0.397   8.305  0.1412 -0.0226 -0.1662
 4228W        W 8428   0.495   7.344   2.415 -0.2448 -0.1784  0.2935
 4229W        W 8429   2.293   3.675   1.317  0.2183  0.1944  0.1802
 4230W        W 8430   0.666   3.570  12.400 -0.0228 -0.1127  0.0955
 4231W        W 8431   4.271   6.282   1.703 -0.2166 -0.1849 -0.2491
 4232W        W 8432   6.712   9.850   1.300 -0.0316  0.0532  0.1952
 4233W        W 8433   3.431   0.894   3.109  0.1350 -0.2463 -0.1509
 4234W        W 8434   6.497   1.681   1.961 -0.3302 -0.1308 -0.0952
 4235W        W 8435   8.691   5.617   9.462  0.0724 -0.0559  0.3352
 4236W        W 8436   6.961   3.287   3.392  0.2832  0.3089 -0.0294
 4237W        W 8437   1.363   5.610   0.011 -0.1564 -0.0583  0.0968
 4238W        W 8438   4.736   8.318   9.174 -0.1248 -0.0476 -0.0044
 4239W        W 8439   6.610   7.715  10.669  0.2307  0.0615 -0.2349
 4240W        W 8440   9.071   5.861  10.133 -0.3527  0.1361  0.1679
 4241W        W 8441   5.977   9.789   2.335  0.5490 -0.3379  0.1481
 4242W        W 8442   1.998   8.795   0.972  0.0839  0.0696  0.0056
 4243W        W 8443   6.349   0.617   4.184 -0.2005  0.4672  0.0020
 4244W        W 8444   3.625   1.254  10.212  0.0936 -0.1056  0.0399
 4245W        W 8445   5.061   9.369   4.008  0.1111 -0.1322  0.4093
 4246W        W 8446   4.379   2.640   4.600  0.1405  0.1720 -0.0238
 4247W        W 8447   2.942   5.919   4.101 -0.1534  0.0734 -0.2614
 4248W        W 8448   2.497   9.279   2.493 -0.3628 -0.0074 -0.2698
 4249W        W 8449   3.620  10.134  12.168 -0.0909  0.0729 -0.0114
 4250W        W 8450   9.259   9.942   0.064 -0.0173 -0.4243 -0.3608
 4251W        W 8451   4.999   7.463   2.053 -0.2457  0.0598  0.1637
 4252W        W 8452  10.163   1.499   0.016 -0.0062  0.0142  0.1266
 4253W        W 8453   5.360   0.396   3.236 -0.0763  0.3249 -0.1475
 4254W        W 8454   7.573   0.093  12.476 -0.0271 -0.1257 -0.3365
 4255W        W 8455   0.766   4.224  13.065  0.3962  0.0249 -0.4939
 4256W        W 8456  10.078   7.175   0.672  0.4834 -0.3737 -0.3173
 4257W        W 8457   7.043   4.288   2.666 -0.0634 -0.1913 -0.0694
 4258W        W 8458   3.610   5.373   4.500 -0.1250 -0.1731  0.2068
 4259W        W 8459   7.953   5.957  11.469 -0.0781 -0.2140  0.1224
 4260W        W 8460   9.680   8.319   1.805 -0.4399  0.0476  0.2156
 4261W        W 8461   0.621   1.305   2.379  0.0412  0.2668  0.1208
 4262W        W 8462   3.869   2.038   1.260 -0.1722  0.3601  0.3362
 4263W        W 8463   3.333   7.358   3.979 -0.0047 -0.4044 -0.1720
 4264W        W 8464  10.422  10.112   3.540 -0.1660  0.2345  0.0271
 4265W        W 8465   1.649   5.753   3.790 -0.0874  0.1845 -0.1478
 4266W        W 8466   5.611   4.675   4.405 -0.0600  0.0188  0.3107
 4267W        W 8467   9.879   0.842   1.317  0.1942 -0.0175 -0.0864
 4268W        W 8468   3.635   5.528  12.562 -0.1973  0.0390 -0.1424
 4269W        W 8469   4.983   2.927   3.206  0.0565  0.0048  0.2869
 4270W        W 8470   3.161   5.731   2.372  0.3120  0.2050 -0.1200
 4271W        W 8471   3.598   5.216   0.189 -0.1343 -0.0280 -0.1460
 4272W        W 8472   3.483   2.614  11.824  0.1827  0.2091 -0.0755
 4273W        W 8473   1.244   7.695   1.674 -0.2042 -0.1665 -0.0804
 4274W        W 8474   6.226   0.889   9.771 -0.6183  0.0025 -0.1037
 4275W        W 8475  10.089   6.512  11.581  0.2134 -0.0121  0.4452
 4276W        W 8476   7.456   9.531   3.057  0.3195  0.1100  0.0752
 4277W        W 8477   7.959   2.510   4.337 -0.2669  0.1498  0.1377
 4278W        W 8478   1.719   2.897   4.442  0.0507  0.2422 -0.1014
 4279W        W 8479   6.235  10.050  11.386  0.1598 -0.1237  0.0267
 4280W        W 8480  10.361   3.290   4.213 -0.2260  0.1295  0.0269
 4281W        W 8481   8.170   5.949   3.386 -0.4670  0.2613 -0.3641
 4282W        W 8482   5.606   3.136   1.624  0.0297  0.3044 -0.0877
 4283W        W 8483   1.461   4.411  11.530 -0.1282 -0.0056  0.0167
 4284W        W 8484   2.555   5.779   1.666  0.3123  0.1464 -0.2214
 4285W        W 8485   7.247   5.598   3.370 -0.1823 -0.2879 -0.0189
 4286W        W 8486   2.402   6.441   4.191  0.0166 -0.1271 -0.0290
 4287W        W 8487   7.227   7.627  12.704 -0.0647 -0.1502  0.1268
 4288W        W 8488   3.610   2.603   3.896 -0.1950  0.0501 -0.1415
 4289W        W 8489   7.594   5.579  12.350 -0.0929  0.1826  0.0568
 4290W        W 8490   9.654  10.292  11.700  0.0009  0.0884  0.1194
 4291W        W 8491   9.761   3.626   9.513  0.2780  0.1044 -0.0399
 4292W        W 8492   6.730   0.129   2.843 -0.3930  0.3368  0.0721
 4293W        W 8493   5.545   2.279  11.980 -0.2460 -0.0913  0.1773
 4294W        W 8494   5.143   9.301  10.809 -0.1255  0.0834 -0.1981
 4295W        W 8495   2.823   9.795   0.481  0.0542 -0.0511 -0.0516
 4296W        W 8496   6.265   0.726   4.981 -0.3090  0.0914 -0.0141
 4297W        W 8497   5.311   5.307   2.814 -0.0513 -0.0503 -0.1137
 4298W        W 8498   8.156   0.128  10.268 -0.2290 -0.1802 -0.4388
 4299W        W 8499   7.462   7.251   9.891 -0.1384 -0.1094  0.0666
 4300W        W 8500   8.856   0.391   1.981 -0.0298 -0.2095  0.0092
 4301W        W 8501   4.554   4.615  12.301  0.0097 -0.0257 -0.1413
 4302W        W 8502   7.634   9.423  11.712  0.1367 -0.0060 -0.1300
 4303W        W 8503   5.767   6.096   8.536 -0.2517  0.3948  0.1226
 4304W        W 8504   6.882   5.289   4.754 -0.0940 -0.0829  0.1129
 4305W        W 8505   5.545   5.838   3.600 -0.3445  0.0549 -0.2538
 4306W        W 8506   8.736   8.211   1.355 -0.2026  0.0407  0.2417
 4307W        W 8507   6.258   8.516   0.527  0.0961  0.0073  0.0875
 4308W        W 8508   8.510   4.848   0.720  0.3367  0.3328 -0.5435
 4309W        W 8509   3.481   8.250   1.261 -0.4353 -0.2469  0.0202
 4310W        W 8510   8.877   8.540  13.339  0.3125  0.3052 -0.2669
 4311W        W 8511   9.401   2.775   1.600  0.2660  0.1640  0.4156
 4312W        W 8512   9.024   6.181   0.813  0.1910 -0.1834  0.1345
 4313W        W 8513  10.316   2.836  10.993 -0.2164 -0.0072  0.1094
 4314W        W 8514   3.183   5.832   0.579  0.2071 -0.3390 -0.2329
 4315W        W 8515   0.343  10.117  10.710 -0.3061  0.1640 -0.0812
 4316W        W 8516   9.613   1.717  11.533 -0.0019 -0.0551  0.0883
 4317W        W 8517   4.878   7.346   2.860 -0.3607  0.0441  0.2080
 4318W        W 8518   6.277   4.765   3.105 -0.2901 -0.0465 -0.4485
 4319W        W 8519   7.774   7.729  11.767  0.0070  0.0090  0.0286
 4320W        W 8520   0.825   1.378  12.963  0.0949  0.2410  0.1176
 4321W        W 8521   1.466  10.180   2.176 -0.1223 -0.3177  0.1729
 4322W        W 8522   0.889   4.465   0.610  0.1321  0.0180  0.1756
 4323W        W 8523   6.000   6.282  12.071 -0.0359 -0.0855 -0.2716
 4324W        W 8524   4.891   3.409   4.777  0.0230  0.2150 -0.1500
 4325W        W 8525   5.347   4.004  13.284  0.4363 -0.3148  0.4050
 4326W        W 8526   0.899   7.891   2.762 -0.2072 -0.1132  0.4103
 4327W        W 8527   4.327   5.627   0.670  0.3839  0.0488 -0.0890
 4328W        W 8528   4.853   6.095   2.410 -0.1659  0.0255  0.3717
 4329W        W 8529   8.414   7.091  12.117  0.3214 -0.2176 -0.1622
 4330W        W 8530   7.268   0.784   4.189 -0.1298  0.0457  0.0671
 4331W        W 8531   5.800   8.896   2.520 -0.0819 -0.1277  0.0673
 4332W        W 8532  10.440   0.197   1.567 -0.5624 -0.1258 -0.0824
 4333W        W 8533   5.012   8.598  12.779  0.1388  0.0713 -0.2627
 4334W        W 8534   2.507   4.123   1.205  0.2540 -0.0039  0.1970
 4335W        W 8535   9.737   2.016   4.341 -0.0054 -0.1983 -0.2562
 4336W        W 8536   2.075   5.736   2.808 -0.5202 -0.1463  0.2381
 4337W        W 8537   3.291   3.680   4.532 -0.6593 -0.0634  0.1488
 4338W        W 8538   7.120   8.575  11.704 -0.0737 -0.1583 -0.0036
 4339W        W 8539   7.645   3.806   9.025 -0.3127 -0.1917 -0.3312
 4340W        W 8540   3.625   5.984   2.568  0.1219  0.0427  0.1872
 4341W        W 8541   0.659   6.058  11.188  0.0865  0.0117 -0.3212
 4342W        W 8542   2.514   1.430  10.587 -0.1739 -0.0393 -0.1750
 4343W        W 8543   6.027  10.347   1.133 -0.1575 -0.0277 -0.1720
 4344W        W 8544   8.763   8.698  12.039  0.1070  0.1097  0.3026
 4345W        W 8545   6.248   4.636   1.029  0.0633 -0.1328 -0.0388
 4346W        W 8546   0.426   2.398  11.408 -0.2562 -0.0330  0.2496
 4347W        W 8547   5.371   8.545   3.410  0.4013 -0.0782  0.0326
 4348W        W 8548   2.086   8.968   1.559 -0.3143  0.0001 -0.0484
 4349W        W 8549   8.944   7.212   3.884 -0.4655  0.1657 -0.3286
 4350W        W 8550   0.579   3.816   4.660 -0.3113 -0.0725 -0.4583
 4351W        W 8551   2.571   4.201   9.792 -0.1812 -0.0277  0.0572
 4352W        W 8552   9.254  10.160   1.667 -0.0088 -0.0413 -0.0575
 4353W        W 8553   0.649   2.034   3.046  0.1494 -0.0775  0.1088
 4354W        W 8554   5.569   6.108   4.246  0.0437 -0.0176 -0.3130
 4355W        W 8555   9.065   7.342  11.172  0.1438  0.0866  0.1648
 4356W        W 8556   4.662   9.349   0.520  0.0271 -0.1529  0.4832
 4357W        W 8557   2.444   2.474   5.132 -0.0251 -0.0135  0.0867
 4358W        W 8558   4.773   2.889   1.671 -0.0421 -0.0939  0.1208
 4359W        W 8559   7.134  10.317   9.931 -0.1530 -0.1690 -0.2979
 4360W        W 8560   0.617   9.502   3.268 -0.2267 -0.2267 -0.4051
 4361W        W 8561   6.476   9.099   9.795 -0.2265  0.1643  0.0279
 4362W        W 8562   5.210   0.738  10.619  0.1862 -0.3115  0.1781
 4363W        W 8563   1.030   2.405  10.652  0.3012  0.2657 -0.1820
 4364W        W 8564   5.178  10.226  12.848  0.0612 -0.0224  0.2364
 4365W        W 8565   9.767   5.017   0.078  0.1233 -0.2985  0.1319
 4366W        W 8566   5.621   7.595  10.098 -0.3606  0.0483  0.2097
 4367W        W 8567   8.554   0.025   1.216  0.0529 -0.4232  0.2762
 4368W        W 8568   3.781   7.353  11.252 -0.1052 -0.0783 -0.1660
 4369W        W 8569   9.907   5.374   9.919 -0.0761 -0.0080 -0.0197
 4370W        W 8570   0.147   3.627  12.042  0.1120  0.0556  0.1593
 4371W        W 8571   2.423   7.028   4.845  0.2651 -0.2368  0.1185
 4372W        W 8572   6.816   4.634   1.409  0.0566 -0.1949  0.1877
 4373W        W 8573   4.490   3.321   1.187 -0.1465  0.1185  0.0228
 4374W        W 8574   4.090   7.627  12.808 -0.0802  0.0200 -0.4804
 4375W        W 8575   4.191   0.829   9.093 -0.1416  0.1657  0.2146
 4376W        W 8576   5.037   8.154   0.418  0.1369  0.0919  0.1233
 4377W        W 8577   1.959   0.290   9.775  0.0188 -0.0160 -0.0881
 4378W        W 8578   6.105   4.409  12.219  0.2569  0.1145 -0.0022
 4379W        W 8579   9.431   9.116   9.378 -0.1365 -0.1009  0.1113
 4380W        W 8580   3.155   4.606  12.999  0.0083  0.0785 -0.0804
 4381W        W 8581   6.494   3.900   3.125  0.1960 -0.0207  0.2670
 4382W        W 8582   4.880   0.645   3.324  0.1071 -0.0767 -0.0008
 4383W        W 8583  10.131   7.984  11.595 -0.0996  0.2917  0.3463
 4384W        W 8584   3.029   2.665  12.036 -0.0474  0.1128 -0.0474
 4385W        W 8585   6.208   4.142   2.283  0.2688 -0.0745  0.0035
 4386W        W 8586  10.264   9.192  10.678  0.0387 -0.1533 -0.0620
 4387W        W 8587   7.158   5.226  11.426 -0.2717 -0.0687  0.1007
 4388W        W 8588   0.977   1.672  13.301 -0.1669 -0.2574  0.0905
 4389W        W 8589   3.768   5.739  10.623 -0.4868 -0.2098 -0.0573
 4390W        W 8590   4.075   7.527   9.567 -0.2636 -0.0286  0.4039
 4391W        W 8591   6.037   7.885   9.351  0.3304  0.4017 -0.0877
 4392W        W 8592   2.230   3.735   0.497 -0.0736  0.0014 -0.0800
 4393W        W 8593   4.060   6.680   3.616  0.1153 -0.2466  0.0588
 4394W        W 8594   2.373   4.583   9.433 -0.0700 -0.3211 -0.2492
 4395W        W 8595   3.514   3.554   0.567  0.1979 -0.3513  0.1051
 4396W        W 8596   7.800   1.935  12.019  0.2532  0.2199  0.1455
 4397W        W 8597   9.607   9.557  13.244  0.0563 -0.1189  0.0247
 4398W        W 8598   9.398   9.978   1.108  0.0290 -0.2852  0.1948
 4399W        W 8599   0.580   5.045   2.799  0.0987 -0.1795 -0.1164
 4400W        W 8600   9.009   5.384   3.074  0.3135 -0.0377 -0.2665
 4401W        W 8601   9.775   9.844  11.446 -0.1564  0.2382  0.0837
 4402W        W 8602   8.598   0.207  10.088 -0.1048 -0.1650 -0.0365
 4403W        W 8603   6.876   6.077  12.537 -0.1342 -0.1722  0.2002
 4404W        W 8604   5.759   3.117  12.211  0.0706  0.0430 -0.1757
 4405W        W 8605   1.113   4.098   1.014 -0.0581  0.0079  0.0987
 4406W        W 8606   8.414   0.475   1.733  0.4103 -0.1758  0.2073
 4407W        W 8607   0.322   6.620  12.303  0.3175  0.0355  0.1269
 4408W        W 8608   6.640   3.628   2.616  0.0367 -0.0795  0.0756
 4409W        W 8609   6.680   3.334   1.929 -0.2525  0.0216 -0.0623
 4410W        W 8610   3.895   4.379   1.125  0.0333 -0.0663  0.0682
 4411W        W 8611   5.465   9.009   4.217 -0.2732  0.0474  0.0062
 4412W        W 8612   5.104   5.431  11.407 -0.0574  0.3992 -0.2574
 4413W        W 8613  10.447   3.661   2.145 -0.0418 -0.1147  0.1360
 4414W        W 8614   0.460   8.598  12.670 -0.0115  0.0037 -0.0467
 4415W        W 8615   1.322   8.271  12.961  0.2147 -0.1636 -0.0066
 4416W        W 8616   7.381   2.325   1.139 -0.2611 -0.2346 -0.0981
 4417W        W 8617   5.574   5.009  10.929  0.0666 -0.0691 -0.0472
 4418W        W 8618   3.368   2.956  10.971 -0.2645  0.0921 -0.0973
 4419W        W 8619   9.506   6.170   8.437 -0.0029  0.3957  0.2515
 4420W        W 8620   6.654   0.712   1.007 -0.2616  0.1192  0.0171
 4421W        W 8621   9.450   0.691  11.049  0.0706  0.0593  0.0445
 4422W        W 8622   3.121   9.932   1.389  0.0069 -0.0460  0.0852
 4423W        W 8623   3.108   4.712   2.338 -0.0307 -0.2406 -0.0333
 4424W        W 8624   6.910   6.436   4.283  0.0970  0.1174  0.3875
 4425W        W 8625   5.904  10.404  11.335  0.1496 -0.4164  0.2580
 4426W        W 8626   8.154   4.645  11.399 -0.2597 -0.1097 -0.2104
 4427W        W 8627   6.284   7.715   0.808  0.1097 -0.3519  0.1341
 4428W        W 8628   8.826   8.264  12.366 -0.2004 -0.2030 -0.0684
 4429W        W 8629   1.278   6.304   9.132 -0.0547  0.1387 -0.3749
 4430W        W 8630   5.768   8.337  11.311  0.0305  0.0952  0.2013
 4431W        W 8631   6.715   7.221   3.647  0.0291  0.0936  0.2240
 4432W        W 8632   4.136   3.541  11.566 -0.1064  0.0823 -0.2488
 4433W        W 8633   0.790   8.606   3.846 -0.2812 -0.0478 -0.2276
 4434W        W 8634   8.572   8.592  10.460  0.0797 -0.0007  0.2732
 4435W        W 8635   1.867   4.596   9.503  0.0392  0.2274  0.1020
 4436W        W 8636   1.710   4.119   9.757  0.1665 -0.0822  0.2242
 4437W        W 8637   2.383   8.895   0.708 -0.0770 -0.1541  0.0925
 4438W        W 8638   4.195   9.954   3.930 -0.0762 -0.2479 -0.1927
 4439W        W 8639   6.896   2.201  12.247  0.2609  0.3196 -0.0194
 4440W        W 8640   2.489   4.756   1.396  0.3810 -0.0944  0.1123
 4441W        W 8641   3.418   9.093  10.589  0.2927 -0.0181 -0.0898
 4442W        W 8642  10.091   2.425  11.337  0.1675 -0.3474  0.0414
 4443W        W 8643   4.019   6.332  10.108 -0.0020  0.0953 -0.0863
 4444W        W 8644   5.313   3.294   3.206 -0.3210 -0.0264  0.0029
 4445W        W 8645   8.535   3.176   4.154  0.0111  0.0689  0.1373
 4446W        W 8646   1.458   6.119  11.707  0.0120  0.1087 -0.4706
 4447W        W 8647   2.309   3.567  10.380  0.1387  0.3711  0.0278
 4448W        W 8648  10.160   1.797   2.982 -0.2217  0.2703 -0.1558
 4449W        W 8649  10.269   0.028  10.165 -0.1358 -0.1426  0.0642
 4450W        W 8650   8.990   0.280  12.796  0.0697  0.0586 -0.1484
 4451W        W 8651   9.123   2.841   3.414 -0.0799 -0.1796  0.0717
 4452W        W 8652   5.201   4.875  10.554  0.0802  0.1001 -0.2844
 4453W        W 8653   2.857   4.164  11.626  0.1282  0.0946  0.2405
 4454W        W 8654   6.234   3.252   4.673  0.1337  0.2330  0.0793
 4455W        W 8655   6.936   1.081  11.591 -0.0065  0.0482  0.1468
 4456W        W 8656   0.280   3.936   0.274 -0.2231  0.2893 -0.1186
 4457W        W 8657   4.454   0.073  11.462  0.2571  0.2912 -0.1320
 4458W        W 8658   8.420   3.171  10.614  0.1211 -0.0925 -0.1155
 4459W        W 8659   0.943   6.523   2.494 -0.4564  0.2389  0.3304
 4460W        W 8660   7.154   2.152   4.329 -0.0421  0.2980  0.0537
 4461W        W 8661   1.977   5.934   9.549  0.0447 -0.0111  0.1475
 4462W        W 8662   8.260   4.581   9.631 -0.0107 -0.0757 -0.0702
 4463W        W 8663   0.118   6.693   1.378 -0.0140 -0.0217  0.1734
 4464W        W 8664   2.991   3.413   2.047  0.1021  0.0340 -0.1309
 4465W        W 8665   0.601   5.481   0.669  0.0772 -0.3210 -0.1049
 4466W        W 8666   2.797   9.089  11.869  0.2388  0.1348  0.1265
 4467W        W 8667   8.300   9.403   3.634  0.1029 -0.0512  0.1376
 4468W        W 8668   3.514   8.230  12.958 -0.0782  0.0422  0.1872
 4469W        W 8669   5.322   5.543  13.086  0.0304  0.0548 -0.0112
 4470W        W 8670   3.525   3.990   2.808  0.5238 -0.0131  0.0111
 4471W        W 8671   9.733   2.554   4.124 -0.0680 -0.1083 -0.1339
 4472W        W 8672   5.399   6.815   2.506 -0.0532 -0.0714 -0.0068
 4473W        W 8673   5.426   9.110   3.189  0.2130 -0.0909  0.2970
 4474W        W 8674   9.784   7.580   4.106 -0.2457 -0.0287  0.0943
 4475W        W 8675   0.738   1.897   0.641  0.3551  0.1760 -0.0755
 4476W        W 8676   8.781   5.713   0.908  0.1854 -0.2280  0.1841
 4477W        W 8677   5.654   6.336  11.281 -0.0828 -0.0084  0.0188
 4478W        W 8678   0.856   7.088   2.632  0.1253  0.3487  0.1092
 4479W        W 8679   0.727   4.495   2.594 -0.0135 -0.3977 -0.2648
 4480W        W 8680   3.517   6.959   2.880  0.1381 -0.0298  0.3400
 4481W        W 8681   5.706   1.252   1.702 -0.0527 -0.1416  0.0683
 4482W        W 8682   8.784   3.869   9.842 -0.1081  0.1140 -0.0241
 4483W        W 8683   7.244   2.522   3.658  0.1565  0.3557  0.1990
 4484W        W 8684   3.889   3.636   4.622  0.0374  0.0004  0.0542
 4485W        W 8685   1.445   3.059  11.024  0.2509  0.0490 -0.1486
 4486W        W 8686   4.811   6.633  11.279  0.1482  0.0610  0.2442
 4487W        W 8687   3.006   9.337   2.257  0.1183  0.0312 -0.0458
 4488W        W 8688   3.280   2.679   2.339 -0.0826 -0.1219 -0.0919
 4489W        W 8689   3.041   5.806   8.767  0.0683  0.3350 -0.0152
 4490W        W 8690   0.042   6.088   4.438  0.1294 -0.0239  0.1663
 4491W        W 8691   8.886   4.138   1.204  0.1804  0.0763 -0.3118
 4492W        W 8692   7.085   0.781  12.199  0.0577 -0.0316 -0.4744
 4493W        W 8693   8.647   5.813  12.018  0.1754  0.1103  0.2260
 4494W        W 8694   7.336   6.704   1.715  0.0609  0.1424  0.3191
 4495W        W 8695   5.280   3.179   0.718  0.0221 -0.2826 -0.0144
 4496W        W 8696   2.761   5.139  13.171  0.2888 -0.0025 -0.0004
 4497W        W 8697   4.872   0.562  10.250 -0.2189 -0.1284  0.2778
 4498W        W 8698   5.415   2.283  10.328 -0.2832 -0.0124  0.3871
 4499W        W 8699   4.247   2.574   8.433 -0.1875 -0.0188  0.0322
 4500W        W 8700   6.233   4.224  11.754  0.0361 -0.1647 -0.0976
 4501W        W 8701   1.091   0.641  10.312  0.1185  0.0617  0.1248
 4502W        W 8702   4.220   7.764   2.283 -0.0720  0.1787 -0.1918
 4503W        W 8703   1.389   6.470   4.214 -0.3048  0.2123 -0.0503
 4504W        W 8704   3.841   7.093   3.324  0.2971  0.1793  0.2243
 4505W        W 8705   8.879   6.964  12.053  0.0024 -0.0864  0.0290
 4506W        W 8706   2.766   5.745  11.666  0.1797  0.0570  0.0457
 4507W        W 8707   1.589   0.464  10.661 -0.0456 -0.2430  0.0614
 4508W        W 8708   2.572   6.514   0.884  0.4399 -0.3364 -0.1299
 4509W        W 8709   4.766   1.659   2.943 -0.0630 -0.0083 -0.1530
 4510W        W 8710   7.991   9.330   1.992  0.3275 -0.0839  0.1844
 4511W        W 8711   4.508   6.843   9.333  0.0838 -0.0340 -0.2801
 4512W        W 8712   5.488  10.420   1.994  0.1055  0.1073 -0.1330
 4513W        W 8713   5.546   4.323  10.077 -0.1530 -0.2322  0.0124
 4514W        W 8714   2.037   0.433   2.751  0.0336 -0.3576 -0.2053
 4515W        W 8715   4.676   6.336   1.185 -0.1158 -0.0557  0.0617
 4516W        W 8716   5.760   6.767   2.191  0.0120 -0.1355 -0.1350
 4517W        W 8717   7.195   6.466   4.686 -0.0993  0.1306  0.3638
 4518W        W 8718   1.298   2.139   4.771 -0.1737  0.0180 -0.2361
 4519W        W 8719   9.677   7.148   9.705 -0.1991 -0.0830 -0.1241
 4520W        W 8720   6.107   8.879   2.928  0.1286 -0.2007  0.1214
 4521W        W 8721   2.170   7.934   1.530 -0.0489  0.2689 -0.0088
 4522W        W 8722   5.632   1.735   2.874 -0.0809  0.0216 -0.0501
 4523W        W 8723   2.985   0.061   0.923 -0.0124  0.0371  0.1391
 4524W        W 8724   5.473   3.041   3.642  0.2362 -0.0596  0.0863
 4525W        W 8725   3.277   6.957   9.336  0.2882  0.2330  0.0303
 4526W        W 8726   5.725   1.976  10.475 -0.1090 -0.0271 -0.0806
 4527W        W 8727   7.140   6.160  10.237 -0.0928  0.1660  0.2020
 4528W        W 8728   5.593   2.606  11.094 -0.0726  0.1179 -0.1823
 4529W        W 8729   0.142   1.138   3.793  0.3084 -0.2491 -0.0259
 4530W        W 8730   3.995   6.961  13.220 -0.3060  0.2933  0.0609
 4531W        W 8731  10.254   6.135  11.251 -0.0390 -0.2054  0.1317
 4532W        W 8732   0.211   2.736   8.669  0.2410 -0.0111 -0.0052
 4533W        W 8733   6.616   6.254   2.929  0.1771  0.0919  0.1662
 4534W        W 8734   9.372   0.835   1.148  0.2314  0.5263 -0.0382
 4535W        W 8735   6.852   8.644  10.548 -0.1482  0.3010 -0.0465
 4536W        W 8736   2.053   5.684  11.127 -0.0252 -0.1008 -0.0988
 4537W        W 8737   7.683   0.057   0.285  0.0224  0.1696  0.0535
 4538W        W 8738   1.690   8.681   1.300 -0.3667 -0.0908 -0.0102
 4539W        W 8739   1.312   5.266   2.180  0.0471 -0.0144  0.0539
 4540W        W 8740   1.599   7.295  11.964 -0.1072 -0.0441  0.1530
 4541W        W 8741   2.375   3.425  12.797  0.2525  0.2869  0.0106
 4542W        W 8742   8.032   9.343  11.085  0.0520  0.1533  0.1671
 4543W        W 8743   0.832   9.814   2.897 -0.0011  0.2302 -0.2358
 4544W        W 8744   9.897   7.201  10.223  0.0893  0.1240  0.1479
 4545W        W 8745   2.770   2.149   2.947  0.5449  0.1015 -0.1341
 4546W        W 8746   1.817   9.972   0.879 -0.1876  0.0068 -0.2246
 4547W        W 8747   8.836   9.143  11.003  0.0535 -0.1802  0.0598
 4548W        W 8748   6.582   6.879   4.499 -0.4069  0.1713 -0.0540
 4549W        W 8749   1.689   2.522  11.080 -0.1190 -0.5743 -0.0071
 4550W        W 8750   9.322   6.385  13.355  0.1270 -0.0065  0.0607
 4551W        W 8751   3.832   3.990   3.683 -0.3510 -0.0214  0.5800
 4552W        W 8752   2.082   4.247   3.089 -0.1673 -0.1444  0.0537
 4553W        W 8753   5.975   8.745  13.013  0.0739 -0.1478 -0.1575
 4554W        W 8754   4.911   4.199   2.013  0.0500 -0.3499  0.0675
 4555W        W 8755   8.359   7.582  12.556 -0.0417  0.0737 -0.0569
 4556W        W 8756   7.114   5.458   0.456 -0.0759  0.2746 -0.0051
 4557W        W 8757   4.049   4.250   1.629  0.1388  0.1366 -0.0292
 4558W        W 8758   6.969   2.376   2.857  0.0351 -0.1431 -0.0820
 4559W        W 8759   1.337   8.410  11.134 -0.4563 -0.2165  0.2656
 4560W        W 8760   0.295   1.801   0.908 -0.0143  0.1831 -0.3343
 4561W        W 8761   6.836   0.628  11.191 -0.0100 -0.3047  0.2115
 4562W        W 8762   8.221   2.890   9.801 -0.0032 -0.0824 -0.2412
 4563W        W 8763   3.942  10.026  12.698  0.0914 -0.3114 -0.0676
 4564W        W 8764   4.949   5.825  13.280  0.2854 -0.2208  0.2692
 4565W        W 8765   1.601   1.245   0.709 -0.2963  0.0935  0.1476
 4566W        W 8766   3.262   4.698   9.803 -0.0658 -0.2907  0.3225
 4567W        W 8767   8.455   3.837  11.151  0.0532  0.0177  0.0839
 4568W        W 8768  10.157   4.551  12.047  0.5269 -0.1168  0.1195
 4569W        W 8769   0.846   7.493  11.354 -0.0482  0.2342  0.1142
 4570W        W 8770   0.812   5.219   4.250 -0.0778  0.2720 -0.0575
 4571W        W 8771   5.334   9.174   1.092  0.1001  0.1688 -0.0799
 4572W        W 8772   0.234   5.123   3.238  0.0152  0.0278  0.1724
 4573W        W 8773   1.604   2.581   3.477  0.1511  0.0254 -0.3685
 4574W        W 8774   6.409   6.066   2.505 -0.0497 -0.0455  0.1061
 4575W        W 8775   7.681   5.551   4.883  0.1438  0.2998 -0.3138
 4576W        W 8776   9.993   8.441   4.636 -0.2483  0.3531 -0.0826
 4577W        W 8777   3.369   4.396   2.041  0.2245  0.1690  0.2063
 4578W        W 8778   7.570   3.140  10.007  0.2081 -0.2932  0.0566
 4579W        W 8779   3.192   3.144   2.529  0.0237 -0.1802  0.0627
 4580W        W 8780   0.783   2.602   1.300  0.0775 -0.0242 -0.0017
 4581W        W 8781   6.802   6.027   1.359 -0.0869  0.0108 -0.1802
 4582W        W 8782   8.689   4.665  10.015  0.0204  0.0425  0.2393
 4583W        W 8783   3.116  10.129  11.385 -0.1595 -0.1329  0.1179
 4584W        W 8784   1.683   2.974   1.015 -0.0264  0.3024 -0.1669
 4585W        W 8785   2.123   8.360  12.842 -0.0360  0.1849 -0.1570
 4586W        W 8786   8.121   0.626   9.124 -0.0658  0.0325 -0.2278
 4587W        W 8787   5.871   5.684  10.488 -0.2272  0.0404  0.3652
 4588W        W 8788   9.335   8.261  11.529 -0.1234  0.0733  0.1327
 4589W        W 8789   1.183   1.342   3.017 -0.2486  0.1858 -0.1917
 4590W        W 8790   7.538   7.865   2.266 -0.1450  0.1095  0.1490
 4591W        W 8791   6.054  10.070  12.343  0.0693 -0.4774  0.0655
 4592W        W 8792   2.075   2.210   1.589 -0.4227 -0.1183  0.3022
 4593W        W 8793   5.136   6.251   1.534  0.1667 -0.2366 -0.5183
 4594W        W 8794   2.784   8.798   0.405 -0.3772 -0.0781 -0.4676
 4595W        W 8795   4.758   1.275   2.469 -0.0609  0.1227 -0.2681
 4596W        W 8796   1.430  10.435  10.701  0.0772  0.0335  0.0035
 4597W        W 8797   6.287   9.883   9.269  0.4238  0.2711  0.3199
 4598W        W 8798   0.075   9.603   2.346  0.0586  0.2067 -0.0215
 4599W        W 8799   4.514   0.941   0.005 -0.2195  0.0016  0.0277
 4600W        W 8800   7.367   8.408  12.143  0.2959  0.0179  0.0924
 4601W        W 8801   5.908   3.061   0.151 -0.1183 -0.1531  0.3565
 4602W        W 8802   5.278   4.269  12.841  0.2575 -0.1033 -0.0918
 4603W        W 8803   2.160   8.732  12.528 -0.3286 -0.3879 -0.2554
 4604W        W 8804   4.137  10.149  10.154  0.4748  0.0352 -0.0025
 4605W        W 8805   8.537   6.604  12.389 -0.1104  0.0295  0.1052
 4606W        W 8806   0.722   3.153   2.538  0.1135  0.0850  0.0563
 4607W        W 8807   2.276   7.635  11.092  0.0003 -0.1041  0.0055
 4608W        W 8808   8.948   1.620   3.245  0.3090 -0.0284  0.1429
 4609W        W 8809   3.501   9.701   1.118  0.0031 -0.1229 -0.1489
 4610W        W 8810   5.648   2.311   8.797 -0.0335 -0.0183  0.2340
 4611W        W 8811   9.556   1.529   9.434  0.1974  0.2007  0.2043
 4612W        W 8812   5.448   8.657  13.171 -0.0967  0.1787  0.0949
 4613W        W 8813   3.663   6.769   0.670  0.0943 -0.2916  0.3212
 4614W        W 8814   3.355   3.019   1.990 -0.1015 -0.3154  0.2849
 4615W        W 8815   0.295   8.165   0.648 -0.1428  0.2228 -0.1432
 4616W        W 8816   7.590   6.529   0.423  0.0190 -0.1986 -0.2172
 4617W        W 8817   5.216   7.787  11.881 -0.1628  0.0917 -0.0441
 4618W        W 8818   5.599   4.527  11.044  0.6126  0.2209  0.2669
 4619W        W 8819   8.032   5.455   1.493  0.2325  0.0787  0.2209
 4620W        W 8820   5.368   4.552  13.349 -0.1518  0.1965 -0.3126
 4621W        W 8821   9.567   9.574   0.898  0.0512  0.1119 -0.1374
 4622W        W 8822   8.923   3.618  11.137 -0.0971  0.5388 -0.3313
 4623W        W 8823   0.124   5.623   3.099 -0.1285 -0.1052 -0.3569
 4624W        W 8824   8.193   8.830  10.148 -0.3204  0.0957 -0.1238
 4625W        W 8825   8.391   1.469  10.365 -0.0745  0.1253 -0.0396
 4626W        W 8826   2.937   7.271  10.786 -0.1811 -0.1762 -0.0415
 4627W        W 8827   4.363   8.362   3.393 -0.3829  0.1489 -0.0744
 4628W        W 8828  10.199   5.230   2.313  0.0470  0.3709 -0.0048
 4629W        W 8829   8.227   9.609   0.602  0.5275  0.2276  0.2776
 4630W        W 8830   5.209   8.736   0.640  0.2280 -0.3737 -0.2550
 4631W        W 8831   7.326   8.540   1.542  0.0299 -0.1888  0.5273
 4632W        W 8832   3.107   9.553   3.709  0.2498  0.2451  0.1425
 4633W        W 8833   2.685   4.204   9.311  0.0030  0.0201  0.1560
 4634W        W 8834   4.664   3.229   2.160 -0.1460  0.0114  0.0602
 4635W        W 8835   9.153   1.950  10.362  0.0841 -0.2591  0.2179
 4636W        W 8836   0.014   1.882  13.181 -0.0447  0.1205 -0.1813
 4637W        W 8837   7.237   8.605   2.730 -0.1914  0.1002 -0.0146
 4638W        W 8838  10.251   3.192   1.991  0.1006 -0.2837  0.2733
 4639W        W 8839   4.296   2.325  11.330  0.3214  0.3451  0.3987
 4640W        W 8840   3.945  10.459  11.663  0.1840 -0.0294  0.0756
 4641W        W 8841  10.465   5.670  11.277  0.0005 -0.0987  0.3548
 4642W        W 8842   1.797   6.134  10.154 -0.1602  0.1165  0.0000
 4643W        W 8843   4.208   1.837   1.530  0.4555  0.0080  0.1737
 4644W        W 8844   5.954   3.891  11.522 -0.1519 -0.0025 -0.1801
 4645W        W 8845   9.376   8.177   1.427  0.2828  0.3492 -0.1315
 4646W        W 8846   4.187   7.035   9.683 -0.2437 -0.1377  0.0428
 4647W        W 8847   9.285   3.174   2.959  0.0187  0.3641  0.1179
 4648W        W 8848   4.381   7.583   3.729  0.2705  0.2503  0.0496
 4649W        W 8849   0.402   4.677   1.885  0.1170 -0.2125  0.0331
 4650W        W 8850   8.939   5.761  12.918 -0.1967 -0.3307 -0.1509
 4651W        W 8851   6.213   7.045  11.852 -0.1726  0.0298 -0.2640
 4652W        W 8852   3.431   2.567  11.331  0.0110  0.0396 -0.1208
 4653W        W 8853   7.602   2.807  10.975 -0.1693 -0.1872 -0.0876
 4654W        W 8854   2.395   9.368  12.048  0.0893 -0.2411 -0.0981
 4655W        W 8855   8.356  10.363  12.279 -0.0093 -0.0013  0.0025
 4656W        W 8856   1.719   6.722  11.297 -0.0290 -0.0493 -0.2236
 4657W        W 8857   9.861   7.520   0.179  0.1446  0.2684 -0.0835
 4658W        W 8858   6.540   3.179  12.952  0.1458 -0.1606 -0.1910
 4659W        W 8859   0.279   1.335  12.195 -0.2005 -0.3781  0.1513
 4660W        W 8860   3.577   4.412   3.547 -0.1439  0.2274 -0.2229
 4661W        W 8861   8.841   6.559  12.786 -0.0668  0.3357  0.1074
 4662W        W 8862   9.582   4.749  13.038 -0.1693 -0.1900  0.0966
 4663W        W 8863   2.570   9.522  10.556 -0.1771 -0.0966  0.1782
 4664W        W 8864   6.709   9.871   2.278  0.0776  0.2486  0.0027
 4665W        W 8865   5.150   1.599   4.604  0.1581 -0.2808  0.3770
 4666W        W 8866  10.008   3.641  11.957  0.1628 -0.1072 -0.0753
 4667W        W 8867   8.057   3.669  11.455 -0.2425  0.0801  0.0094
 4668W        W 8868   0.270   6.989   8.647 -0.2597  0.1012  0.1453
 4669W        W 8869   5.628   8.800  11.266  0.1658  0.0422  0.2043
 4670W        W 8870   0.392   7.986   1.625 -0.0698  0.2869 -0.0901
 4671W        W 8871   6.785   3.162  10.981  0.2335  0.1144  0.1521
 4672W        W 8872   8.546   7.050  10.307  0.1523  0.0959  0.1520
 4673W        W 8873   5.080   0.663   3.802  0.0568  0.0122 -0.1105
 4674W        W 8874   2.390   8.672   1.841 -0.2043  0.0086  0.0443
 4675W        W 8875   2.890  10.385   1.873 -0.2735  0.0999 -0.1701
 4676W        W 8876   1.213   3.807   3.319 -0.0161 -0.0924 -0.0469
 4677W        W 8877   7.998   8.811  10.597 -0.0587  0.0584 -0.0282
 4678W        W 8878   0.992   9.154   0.136  0.0005 -0.2331 -0.4324
 4679W        W 8879   9.486   8.119   2.227 -0.0042 -0.0412  0.1723
 4680W        W 8880   2.328   6.920   1.163 -0.2309  0.0272  0.0353
 4681W        W 8881   4.085   0.921   2.480  0.1367  0.0671 -0.1862
 4682W        W 8882   0.351   1.381  12.799  0.2158  0.1562  0.2912
 4683W        W 8883   6.524   6.766   9.903 -0.0844 -0.1557  0.1408
 4684W        W 8884   4.194   4.083   9.688 -0.2374  0.3908  0.4040
 4685W        W 8885   3.671   8.185   1.713 -0.1098 -0.1701 -0.0039
 4686W        W 8886  10.072   1.325   9.180 -0.1080 -0.0730 -0.0282
 4687W        W 8887  10.245   8.089   0.915  0.0158  0.1250 -0.1518
 4688W        W 8888   5.214   5.978   1.048 -0.1666 -0.4561 -0.1739
 4689W        W 8889   9.055   4.454   2.782  0.1100  0.0281  0.1663
 4690W        W 8890   1.119   4.850  10.086  0.2707  0.1714 -0.0491
 4691W        W 8891   0.564   6.783   1.157  0.3444  0.0766  0.2045
 4692W        W 8892   5.497   7.881   9.617 -0.0249  0.0702  0.3298
 4693W        W 8893   0.085   0.974   1.790  0.0571  0.4479 -0.1891
 4694W        W 8894   0.002   1.439   4.308  0.0039  0.0426 -0.1620
 4695W        W 8895   4.585   4.915  11.836 -0.2204 -0.0959  0.1120
 4696W        W 8896   4.125   6.301  11.619 -0.0905 -0.3048  0.0992
 4697W        W 8897   3.506   3.382   1.314 -0.3588  0.1635  0.0000
 4698W        W 8898   6.033   6.142   0.117  0.2293  0.0561 -0.3215
 4699W        W 8899   7.262   4.533   0.309 -0.0086  0.3006  0.0087
 4700W        W 8900   8.293   1.387   3.814  0.0851 -0.3946 -0.1412
 4701W        W 8901   1.890   5.840  10.550 -0.1406  0.0699  0.3005
 4702W        W 8902   4.915   4.222   4.321  0.2749 -0.1616 -0.2322
 4703W        W 8903   7.392   5.333   1.757 -0.0675  0.1076 -0.2121
 4704W        W 8904   8.830  10.333  12.426 -0.1257  0.0544  0.0593
 4705W        W 8905   8.768   3.047  10.271 -0.0629 -0.2547  0.0403
 4706W        W 8906   7.268   8.238   9.787  0.3555  0.0399  0.0692
 4707W        W 8907   7.321   4.296  11.816  0.3404  0.0947 -0.0439
 4708W        W 8908   1.334   3.326   0.513  0.0920 -0.1815 -0.3628
 4709W        W 8909   4.082   6.048  12.056  0.0605 -0.1013  0.2805
 4710W        W 8910  10.028   0.267  12.447 -0.0039  0.0922 -0.0282
 4711W        W 8911   5.022   7.142   2.487  0.1323 -0.0016  0.1105
 4712W        W 8912   5.326   5.506  11.902  0.2184 -0.1365  0.1441
 4713W        W 8913   5.403   7.589  11.395  0.1324  0.0195  0.0507
 4714W        W 8914   7.174   1.226   1.672 -0.0659 -0.2976 -0.0369
 4715W        W 8915   6.597  10.014  11.998  0.3313 -0.1566  0.1212
 4716W        W 8916   7.380   8.759  12.558  0.0291  0.2171 -0.3368
 4717W        W 8917   1.353   5.075   1.762 -0.1044  0.3804  0.0881
 4718W        W 8918   6.341   0.288  12.001  0.0079  0.2755 -0.3823
 4719W        W 8919   2.437   7.287   9.026 -0.0820 -0.0958 -0.1581
 4720W        W 8920   4.017   8.772   2.467 -0.0741  0.2114  0.0640
 4721W        W 8921   3.277   6.230   3.973 -0.0034 -0.3817 -0.1660
 4722W        W 8922   9.324   7.430   0.086 -0.0735 -0.0550 -0.1603
 4723W        W 8923   4.863   2.556  12.921  0.4928 -0.0506  0.1019
 4724W        W 8924   6.442   6.749   8.514  0.2060  0.1710 -0.0390
 4725W        W 8925   0.896   1.388   9.546 -0.0089  0.2588 -0.0706
 4726W        W 8926   1.303   6.703   3.688 -0.1070  0.0135 -0.2263
 4727W        W 8927   9.321  10.019   0.643  0.2085 -0.2980 -0.1464
 4728W        W 8928   8.192   5.728  11.876  0.2951 -0.1832 -0.0005
 4729W        W 8929   0.844   0.104  12.368 -0.0237  0.3153  0.3454
 4730W        W 8930   7.981   8.593  12.164 -0.0997 -0.1481  0.1616
 4731W        W 8931   8.907   6.772  13.245 -0.0800  0.0493  0.1176
 4732W        W 8932   5.673   7.598   3.907  0.1423 -0.1147 -0.4306
 4733W        W 8933   1.251   3.860   9.676  0.2149  0.0407 -0.1769
 4734W        W 8934   3.454   6.881  12.790 -0.1311 -0.1148 -0.1752
 4735W        W 8935   7.948   4.588   2.807  0.2385 -0.0279 -0.2137
 4736W        W 8936   3.698   2.402   9.366 -0.1172 -0.1957  0.0878
 4737W        W 8937   4.680   8.014   4.365 -0.1682 -0.1405 -0.2304
 4738W        W 8938   7.992   2.893  10.669 -0.0734  0.3098 -0.0139
 4739W        W 8939   5.337   0.440   0.049 -0.2721  0.0690 -0.0704
 4740W        W 8940  10.290   9.714   9.493  0.0600 -0.3719 -0.0375
 4741W        W 8941   9.481   3.374   4.011 -0.1234 -0.1750  0.0319
 4742W        W 8942   8.810   4.141  10.244  0.3787 -0.1119  0.0320
 4743W        W 8943   4.261   5.606   1.162  0.0584  0.0839 -0.0981
 4744W        W 8944   4.464   9.622  11.995  0.0001  0.0074  0.1774
 4745W        W 8945   8.332   5.891   0.486 -0.3628  0.2048 -0.1564
 4746W        W 8946   3.030   4.047   1.846  0.1772 -0.0406  0.1480
 4747W        W 8947   4.864   0.440   2.636  0.1329  0.0556 -0.0642
 4748W        W 8948   9.007   6.713   4.847  0.2988  0.2011 -0.2620
 4749W        W 8949   3.409   3.600   1.817  0.0187 -0.0118 -0.2160
 4750W        W 8950   6.306   8.715   8.555 -0.3524  0.3193  0.1644
 4751W        W 8951   6.792   7.524  12.997 -0.1275 -0.1093 -0.2141
 4752W        W 8952   9.185   5.943  12.367 -0.2250 -0.0006  0.3962
 4753W        W 8953   9.553   6.587  11.558 -0.1838  0.2323 -0.2010
 4754W        W 8954   2.711   8.098   0.890  0.3275 -0.1423 -0.0886
 4755W        W 8955   0.507   5.873   0.992  0.2573 -0.0215  0.2795
 4756W        W 8956   4.472   2.016   0.274  0.0511 -0.1184 -0.1066
 4757W        W 8957   2.947   4.298   0.293  0.0975 -0.2810 -0.0064
 4758W        W 8958   1.445   0.707   9.971  0.1741 -0.1496  0.0966
 4759W        W 8959   1.286   5.970  13.109 -0.0532 -0.2172 -0.3159
 4760W        W 8960   7.983   5.434   2.072  0.1061 -0.0870  0.0138
 4761W        W 8961   2.770   4.682   9.725 -0.0809  0.1223 -0.1194
 4762W        W 8962   8.111   4.350  13.263 -0.0106 -0.0239  0.2700
 4763W        W 8963   0.590   2.418  10.931  0.1816 -0.1926 -0.2475
 4764W        W 8964   0.360  10.490  13.093  0.1367 -0.0288 -0.3525
 4765W        W 8965   1.133   0.445   9.187  0.0756  0.1435  0.1841
 4766W        W 8966   5.818   2.415   0.482 -0.0632 -0.1032 -0.0219
 4767W        W 8967   6.107   2.066   0.659  0.2399 -0.0011 -0.0545
 4768W        W 8968   5.324   7.100  10.254  0.0436  0.1176  0.2312
 4769W        W 8969   6.801   6.097  13.041  0.1074 -0.2217  0.0808
 4770W        W 8970   2.393   1.373  12.064  0.0581  0.4222  0.0592
 4771W        W 8971   5.203   6.109   9.272 -0.0000 -0.0643 -0.0845
 4772W        W 8972   8.641   5.508  11.616  0.2632 -0.1835 -0.3127
 4773W        W 8973   6.909   1.511   3.240 -0.0333 -0.0946  0.1064
 4774W        W 8974   7.098   9.503   1.182  0.1678 -0.0071 -0.0379
 4775W        W 8975   4.541   6.646  10.769 -0.1430  0.3141  0.0761
 4776W        W 8976   8.337   5.816   1.999 -0.2733 -0.0808  0.0031
 4777W        W 8977   0.147   4.429   1.034 -0.2205 -0.0120  0.1244
 4778W        W 8978   4.014   3.349   0.271 -0.0086  0.1755 -0.0796
 4779W        W 8979   7.485   0.959   0.224  0.1161 -0.0459  0.1903
 4780W        W 8980   6.362   5.230   4.700 -0.1721  0.3708 -0.0588
 4781W        W 8981   9.197   6.521   4.379 -0.1912  0.0190  0.1036
 4782W        W 8982   4.809   9.328  11.692  0.0766  0.3882  0.1827
 4783W        W 8983   6.607   6.794   3.931 -0.0044  0.1099 -0.3299
 4784W        W 8984   9.919   5.103  12.698  0.1738 -0.0344 -0.0431
 4785W        W 8985   8.594   8.158   4.956  0.2658 -0.0260  0.0749
 4786W        W 8986   3.160   0.202  10.210  0.0264 -0.1034  0.2139
 4787W        W 8987   4.956  10.474   1.946  0.0951  0.1654  0.1073
 4788W        W 8988   4.412   4.278   8.761 -0.2219  0.2086 -0.0720
 4789W        W 8989   3.483   3.497   2.812  0.1292  0.2780 -0.1087
 4790W        W 8990   4.031   2.229  10.411 -0.0893  0.0625  0.2265
 4791W        W 8991   6.211   0.134   2.280 -0.2103 -0.1658 -0.2903
 4792W        W 8992   9.980   8.136   9.374  0.0323 -0.1671 -0.1685
 4793W        W 8993   3.290   2.279   2.068  0.1455  0.2392  0.2486
 4794W        W 8994   3.633   4.551   4.248 -0.0809  0.1146  0.1629
 4795W        W 8995   9.038   0.180   0.567  0.4041  0.0219  0.1058
 4796W        W 8996   3.687   0.190  10.228  0.1779  0.1519 -0.1456
 4797W        W 8997   3.555   1.890   9.241 -0.0483  0.1275 -0.2212
 4798W        W 8998   1.110   5.077   1.289 -0.1842 -0.0473  0.0406
 4799W        W 8999   7.182   8.170   4.763  0.0629 -0.2973  0.1050
 4800W        W 9000   2.394   5.141   8.862 -0.1284 -0.2658 -0.0469
 4801W        W 9001   5.158   2.529   1.892  0.1941 -0.2919  0.2320
 4802W        W 9002   5.845   6.807  10.355  0.0255 -0.0148 -0.0487
 4803W        W 9003   7.538   7.028   3.918 -0.0481 -0.1853 -0.1849
 4804W        W 9004   4.179   5.548  12.305 -0.0579 -0.2759  0.2079
 4805W        W 9005  10.414   7.160   1.519  0.0807  0.4509  0.0172
 4806W        W 9006   0.862   6.080   0.601  0.2743 -0.1325 -0.0079
 4807W        W 9007   6.486   3.338   1.003  0.1535  0.0577  0.1560
 4808W        W 9008   3.528   3.839  12.989  0.0360 -0.1544  0.1122
 4809W        W 9009   6.609   2.190  13.259 -0.1080 -0.5017 -0.0242
 4810W        W 9010   5.539   6.792   0.901 -0.3218 -0.3828 -0.0365
 4811W        W 9011   1.864   1.672   1.794 -0.1247 -0.0280 -0.2732
 4812W        W 9012   3.771   6.078   0.726  0.3847 -0.2320  0.0887
 4813W        W 9013   3.718   3.964   9.001 -0.0852  0.0848 -0.2312
 4814W        W 9014   0.362   7.173   9.657  0.0230  0.0968 -0.0674
 4815W        W 9015  10.492   9.190  13.256  0.0842  0.2271 -0.0380
 4816W        W 9016   3.381   6.863   4.661 -0.2313 -0.2220  0.0816
 4817W        W 9017   2.801   3.762   9.537 -0.2224 -0.0720  0.2622
 4818W        W 9018   0.106   4.437  10.223  0.1918  0.2243 -0.3147
 4819W        W 9019   8.348   4.335  10.459  0.3290 -0.1263  0.0487
 4820W        W 9020   0.930   3.853   1.943  0.3224  0.3964  0.0445
 4821W        W 9021   3.985   0.043   2.326 -0.0429 -0.1836 -0.0695
 4822W        W 9022   6.492   7.318   4.196  0.1525  0.0820  0.1932
 4823W        W 9023   6.282   1.989   4.637 -0.0439  0.3418 -0.1120
 4824W        W 9024   0.328   6.806  11.802  0.3096  0.0314 -0.1606
 4825W        W 9025   3.691   6.613   3.319  0.1656  0.0517 -0.1297
 4826W        W 9026  10.010   8.824   0.887  0.0683  0.1425 -0.0926
 4827W        W 9027   1.439   9.435   0.006 -0.1166 -0.3824 -0.0333
 4828W        W 9028   1.807  10.348   2.571  0.2006 -0.1305  0.1489
 4829W        W 9029   8.194   2.984   0.691 -0.1162 -0.0173 -0.3021
 4830W        W 9030   3.931   9.597   2.227  0.0683  0.1991  0.1328
 4831W        W 9031   9.208   5.080  10.661  0.0345  0.1195 -0.1031
 4832W        W 9032   4.131   1.714   3.662  0.1961  0.0893  0.1577
 4833W        W 9033   9.067   6.904  10.514  0.0171  0.2085  0.1491
 4834W        W 9034   5.707   9.335  10.508  0.1741  0.2625 -0.0864
 4835W        W 9035   7.155   9.249   1.629 -0.1329 -0.0955  0.2533
 4836W        W 9036   9.969   7.124  13.306 -0.1960  0.1386 -0.2853
 4837W        W 9037   6.006   2.571   9.719  0.0392  0.1718  0.3553
 4838W        W 9038   7.151   1.642  10.856  0.0540  0.0319  0.0819
 4839W        W 9039   4.553   9.759  10.257 -0.1942 -0.1008 -0.2300
 4840W        W 9040   8.106  10.292   4.590 -0.1991  0.0418  0.1398
 4841W        W 9041   5.108   1.768   9.590 -0.1970  0.0838 -0.1165
 4842W        W 9042   3.096   9.957  12.909 -0.1710  0.1205  0.0176
 4843W        W 9043   2.246   8.840  10.994 -0.0665 -0.2072  0.0612
 4844W        W 9044  10.473   1.832   0.277 -0.1574  0.1816  0.2132
 4845W        W 9045   8.901   8.293  11.278  0.1259  0.0118  0.1245
 4846W        W 9046   3.579   2.989   3.495 -0.0609 -0.0522 -0.1384
 4847W        W 9047   1.533   3.596  13.169  0.0749  0.2734 -0.1296
 4848W        W 9048   9.245   2.820  10.965 -0.1019 -0.3585 -0.1004
 4849W        W 9049   2.944   9.371   0.300  0.2027  0.1195  0.0013
 4850W        W 9050   8.162   7.762   2.914  0.0009  0.3703  0.1660
 4851W        W 9051   8.355   0.142  11.741  0.3002  0.2189 -0.0836
 4852W        W 9052  10.100   4.548   0.980  0.2396  0.1366 -0.0777
 4853W        W 9053   8.224   2.504   2.459  0.1178  0.0675  0.1217
 4854W        W 9054   4.926   0.160   4.002 -0.1568  0.1526  0.1817
 4855W        W 9055   3.637   6.925  12.239 -0.3306 -0.1099 -0.3343
 4856W        W 9056   2.118   5.432  10.262  0.0316  0.1747 -0.1198
 4857W        W 9057   5.518  10.379  11.083  0.0901  0.1080  0.2362
 4858W        W 9058   7.506   1.527  12.256  0.4000 -0.4744  0.2510
 4859W        W 9059   5.357   5.400   8.957 -0.2585  0.0061 -0.1559
 4860W        W 9060   7.839   1.507   9.228 -0.0612  0.3050 -0.1184
 4861W        W 9061   1.116   7.235   0.347  0.0072  0.3152 -0.3502
 4862W        W 9062   2.761   3.349  10.642 -0.0010 -0.4261  0.3076
 4863W        W 9063   2.838   7.525   4.025 -0.0174  0.2257  0.1834
 4864W        W 9064   5.715   4.316   2.079  0.0427 -0.0294 -0.1508
 4865W        W 9065   7.474   9.323   9.863  0.0020 -0.1263 -0.1222
 4866W        W 9066   7.087  10.229   0.974  0.0630  0.3151  0.1360
 4867W        W 9067   2.646   5.146   0.401  0.0243 -0.1002  0.0043
 4868W        W 9068   7.758   4.631  12.707  0.1506  0.0738  0.1732
 4869W        W 9069   9.387   9.136  11.982 -0.2934  0.0746  0.0257
 4870W        W 9070   1.875   3.288   1.363  0.2331 -0.1264  0.1274
 4871W        W 9071   5.542   0.753   3.882  0.0174 -0.0142  0.2701
 4872W        W 9072   8.010   1.843  12.526  0.1393  0.2009 -0.0781
 4873W        W 9073   8.630   3.825   2.244 -0.1967 -0.0294 -0.1540
 4874W        W 9074   6.137   0.642   2.432  0.5739  0.1691 -0.2023
 4875W        W 9075   3.878   1.410   3.237  0.2274 -0.0312  0.1562
 4876W        W 9076  10.060  10.101   9.257  0.0385  0.0152 -0.1494
 4877W        W 9077   7.828   6.615   3.947 -0.2540 -0.0701 -0.2529
 4878W        W 9078   4.535   9.825   3.483 -0.2588 -0.1223  0.0491
 4879W        W 9079   9.287   2.489  12.873 -0.0760  0.0039 -0.0043
 4880W        W 9080   6.667   3.797   9.127 -0.2172  0.1301 -0.1140
 4881W        W 9081   0.362   1.119   2.774  0.1126  0.2549 -0.1555
 4882W        W 9082   7.462   1.343  11.412  0.0965 -0.1726 -0.0024
 4883W        W 9083   8.449   0.831  11.342 -0.2686 -0.2953 -0.0833
 4884W        W 9084   1.622   4.911  10.297  0.1513 -0.2613  0.2820
 4885W        W 9085   0.541   7.698   1.165  0.0206  0.2363 -0.0124
 4886W        W 9086   5.520  10.031   0.308 -0.1123 -0.1888  0.2409
 4887W        W 9087  10.338   1.879  11.064  0.0648 -0.3128 -0.3181
 4888W        W 9088   0.882  10.039   3.646  0.1637  0.0982  0.1462
 4889W        W 9089   3.161   9.285  11.096 -0.0906  0.1921 -0.2290
 4890W        W 9090   5.285   0.553  11.090  0.1409 -0.3268  0.0171
 4891W        W 9091   4.779   5.867  11.174 -0.0254  0.0466 -0.1175
 4892W        W 9092   9.522   4.367  12.308 -0.1398 -0.1026  0.1478
 4893W        W 9093   3.944   6.736  12.772  0.2472  0.3205 -0.2250
 4894W        W 9094   3.405   7.592   0.438 -0.2842 -0.2716 -0.0083
 4895W        W 9095  10.474   1.977   9.412  0.2346  0.0520  0.0016
 4896W        W 9096   6.242   9.557   1.308 -0.3807 -0.1061 -0.1176
 4897W        W 9097   7.510   6.243   2.813  0.0167  0.3449  0.3886
 4898W        W 9098   7.068   1.697   8.204  0.0559 -0.2616  0.3048
 4899W        W 9099   8.158   7.875  11.320  0.1440  0.0310 -0.3079
 4900W        W 9100   2.167   0.876  12.066 -0.0109  0.0005 -0.0568
 4901W        W 9101   3.000   6.800  12.935  0.1494 -0.2773 -0.0974
 4902W        W 9102   6.852   5.614  13.034 -0.3299 -0.0977  0.0035
 4903W        W 9103  10.007   1.949   0.374  0.0303  0.0062  0.0425
 4904W        W 9104  10.042   6.396   3.386  0.0113 -0.0795 -0.1564
 4905W        W 9105   1.652   7.900   2.587 -0.0997  0.3155 -0.0164
 4906W        W 9106   7.042   2.021  10.045  0.4321 -0.0493  0.2339
 4907W        W 9107   3.358   8.595   1.754 -0.3058 -0.0625 -0.0859
 4908W        W 9108   0.656   1.423   0.819 -0.0085  0.0742 -0.1418
 4909W        W 9109   5.933   1.013   4.798 -0.2751  0.0206  0.2091
 4910W        W 9110   9.311   1.899   0.296 -0.3255  0.2585 -0.0370
 4911W        W 9111   5.452   2.162   9.815  0.2934 -0.1608  0.0050
 4912W        W 9112   6.962   3.381  10.005  0.3309  0.3537  0.0954
 4913W        W 9113   9.575   4.519  10.033 -0.1169 -0.1306  0.1057
 4914W        W 9114   7.725   8.509  10.189  0.0743 -0.1043 -0.0673
 4915W        W 9115   2.952   6.331  10.863 -0.1608  0.1163 -0.0859
 4916W        W 9116   4.101   4.757  12.082 -0.1485 -0.0185 -0.0939
 4917W        W 9117   6.524   4.060  12.137  0.2218  0.0181  0.0218
 4918W        W 9118   0.880   3.189   9.252 -0.2259  0.1870  0.1566
 4919W        W 9119   6.107   6.435   3.095  0.2685  0.0935  0.0366
 4920W        W 9120   6.450   9.531  11.181  0.1828  0.1848  0.6688
 4921W        W 9121   0.195   7.657   3.990  0.0776  0.0570 -0.3431
 4922W        W 9122   4.940   4.692  10.085  0.3459  0.1747 -0.1142
 4923W        W 9123   9.788   5.947   2.153  0.1106 -0.0948 -0.2542
 4924W        W 9124  10.106   2.732  11.703  0.0646 -0.2357  0.1999
 4925W        W 9125   8.504   9.487  10.848  0.2314 -0.3051 -0.2065
 4926W        W 9126   8.301   6.955   9.788  0.1016 -0.0067  0.0681
 4927W        W 9127   5.037   8.754  11.441  0.0874 -0.0719  0.0858
 4928W        W 9128   8.981   1.170   2.984 -0.1255  0.1465 -0.0362
 4929W        W 9129   9.635   2.118   0.619  0.2083  0.0553 -0.1990
 4930W        W 9130   1.348   2.932  11.483 -0.2430 -0.1113  0.3363
 4931W        W 9131   1.502   4.325  12.042 -0.1693 -0.0897  0.0357
 4932W        W 9132   0.418   7.617  11.590 -0.0244 -0.0723 -0.0475
 4933W        W 9133   6.040   4.483   0.580  0.0752 -0.2142  0.0414
 4934W        W 9134   5.576   7.608   8.384 -0.3229  0.0207 -0.2960
 4935W        W 9135   7.333   1.194   4.467 -0.0432 -0.6131  0.0665
 4936W        W 9136   4.298   8.302   9.405  0.0749 -0.0237  0.0363
 4937W        W 9137   3.320   9.277  12.493 -0.0857  0.1894 -0.0277
 4938W        W 9138   8.525   7.604  10.350 -0.2121 -0.0596  0.2126
 4939W        W 9139   2.642   6.116   8.280 -0.2138 -0.0849 -0.0627
 4940W        W 9140   9.528   0.182  10.311 -0.0093 -0.0153  0.1549
 4941W        W 9141  10.139  10.238   3.143 -0.1493 -0.0805  0.0680
 4942W        W 9142   0.393   7.319   0.475  0.3327  0.0982  0.0159
 4943W        W 9143   4.515   2.468   1.780  0.2652 -0.0624 -0.0872
 4944W        W 9144   0.578   6.240  10.134  0.0576 -0.0172  0.0389
 4945W        W 9145   8.521   6.649  11.852 -0.2112  0.0012  0.3055
 4946W        W 9146   8.281   9.743  12.971 -0.3825  0.2142 -0.1141
 4947W        W 9147   8.120   9.436   9.992  0.3125  0.1442 -0.3212
 4948W        W 9148   5.531   0.584   0.805 -0.0138  0.1586 -0.2900
 4949W        W 9149   1.622   0.787  13.311 -0.2108  0.1728  0.2002
 4950W        W 9150   7.819   5.190   0.133  0.0438  0.0206  0.3233
 4951W        W 9151   8.055   8.206   3.138  0.4376 -0.0072 -0.1019
 4952W        W 9152   7.764   8.306   5.502 -0.0854  0.4330 -0.1029
 4953W        W 9153   1.724   7.156  12.610 -0.1333 -0.0420 -0.0555
 4954W        W 9154   6.823   7.441   1.692  0.2394  0.1194 -0.1671
 4955W        W 9155   9.955   4.282  11.623  0.0120  0.1954  0.3044
 4956W        W 9156   5.573   9.061  10.021  0.0381 -0.1880  0.1022
 4957W        W 9157   8.498   5.847   1.485  0.0833  0.0906  0.0536
 4958W        W 9158   4.102   6.467  10.619 -0.0278  0.1253  0.0187
 4959W        W 9159   1.910   1.949   0.002 -0.2625 -0.1115  0.0210
 4960W        W 9160   4.856   1.069   8.464 -0.0322 -0.0072  0.1765
 4961W        W 9161   2.907   4.282  10.109 -0.4124 -0.3007 -0.3993
 4962W        W 9162   9.853   8.010   3.845 -0.0692 -0.2534  0.2433
 4963W        W 9163   7.841   4.903  12.177  0.0041  0.0458  0.1732
 4964W        W 9164   9.887   0.831   2.544 -0.3340 -0.1038  0.0191
 4965W        W 9165   3.349   3.634   8.813 -0.2538 -0.0396  0.1486
 4966W        W 9166   3.165   6.803  12.400 -0.1991  0.3264  0.0854
 4967W        W 9167   2.453   8.667   3.003  0.1269 -0.0388  0.0390
 4968W        W 9168   2.552   7.173   3.686  0.2073  0.4374 -0.1023
 4969W        W 9169   7.178   4.177   3.136  0.0563 -0.1282  0.1083
 4970W        W 9170  10.084   6.460   9.220  0.2852  0.0659 -0.0398
 4971W        W 9171   9.670   9.959   0.309 -0.5551  0.0611 -0.2666
 4972W        W 9172   8.900   8.584  12.830  0.0351  0.2177 -0.0357
 4973W        W 9173   1.639   6.619   0.570  0.0811  0.0538 -0.4190
 4974W        W 9174   1.793   6.766  10.675  0.1836 -0.2009  0.1766
 4975W        W 9175   5.423   3.124  11.094  0.0230 -0.2504  0.0416
 4976W        W 9176   5.268   6.463   9.602 -0.0078 -0.2629 -0.0662
 4977W        W 9177   0.482   3.448   2.026  0.0770  0.1511 -0.0631
 4978W        W 9178   4.118  10.063   2.263 -0.1783 -0.0846  0.2398
 4979W        W 9179   7.977   0.200   3.964 -0.0737  0.0984  0.1788
 4980W        W 9180   9.145   3.508   2.597  0.3004  0.3146  0.1214
 4981W        W 9181   5.487   7.261   2.088 -0.3192  0.1914 -0.3868
 4982W        W 9182   3.830   1.030  11.973  0.2617  0.0531 -0.0531
 4983W        W 9183   9.397  10.028   4.315  0.0108  0.2764 -0.3114
 4984W        W 9184   6.080   9.949  11.879  0.0754 -0.0654 -0.1229
 4985W        W 9185   0.799   8.381  13.060  0.0863  0.2079  0.1384
 4986W        W 9186   0.837   0.643   2.243  0.0614  0.1635 -0.1736
 4987W        W 9187   7.401   5.799  12.801 -0.0877 -0.2593 -0.0495
 4988W        W 9188   1.313   8.979   1.488  0.2045  0.0970  0.1577
 4989W        W 9189   1.086   6.711   1.130 -0.3155  0.0408 -0.0278
 4990W        W 9190   5.874   4.838  12.223  0.0813 -0.0545  0.0231
 4991W        W 9191   8.542   5.439   2.846  0.0023  0.1012  0.1035
 4992W        W 9192   3.094   6.797  10.745  0.0962 -0.2945  0.0960
 4993W        W 9193   1.779  10.445  12.284  0.2420 -0.1430 -0.1057
 4994W        W 9194   5.420   9.609   0.879 -0.1970 -0.2750 -0.1504
 4995W        W 9195   7.347   9.493   2.538 -0.3762  0.2163  0.1137
 4996W        W 9196  10.225   1.524  12.039  0.1118  0.2185  0.4139
 4997W        W 9197   2.354   2.140   0.086  0.1665 -0.0184  0.3135
 4998W        W 9198   3.799   1.953  13.260  0.1992 -0.1054 -0.0877
 4999W        W 9199   5.395   5.508   3.278 -0.0074 -0.0330 -0.2680
 5000W        W 9200   4.042   8.548  10.454  0.2248 -0.0351 -0.3932
 5001W        W 9201   0.697   7.894   9.854  0.1761  0.0735 -0.0042
 5002W        W 9202   7.215   5.000  10.858  0.1491 -0.0571  0.1742
 5003W        W 9203   4.831   8.704   0.255 -0.0816 -0.0778  0.0442
 5004W        W 9204   7.597   3.313  10.940 -0.0622  0.0228  0.1061
 5005W        W 9205   7.087   0.881  10.838 -0.1875  0.3692 -0.2413
 5006W        W 9206   3.698   3.995   9.579  0.1105  0.1410  0.2745
 5007W        W 9207   2.270   0.790  11.613  0.3677  0.0720  0.0048
 5008W        W 9208   3.113   5.222   3.724 -0.2336  0.4121 -0.0708
 5009W        W 9209   8.297   0.519  12.124 -0.0505  0.0458  0.1602
 5010W        W 9210   2.397   2.554   2.283  0.0485 -0.0855  0.0552
 5011W        W 9211   4.921   6.523  12.308 -0.1255 -0.1743 -0.0423
 5012W        W 9212   9.572   3.935  11.808  0.1174  0.1542 -0.2785
 5013W        W 9213   0.843   6.225  13.211 -0.3779 -0.0237 -0.0926
 5014W        W 9214   6.561   9.736  12.609 -0.3053  0.4635  0.1011
 5015W        W 9215   9.113   9.884  12.422 -0.0135  0.4184 -0.0232
 5016W        W 9216   7.624   2.333   4.600 -0.0116 -0.0302 -0.1207
 5017W        W 9217   4.293   6.092   0.902 -0.0038  0.1966  0.0333
 5018W        W 9218   0.826   7.954   2.282  0.3381 -0.1572 -0.1517
 5019W        W 9219   3.928   6.898  11.534  0.1867  0.0958 -0.1283
 5020W        W 9220   5.445   0.248  12.068  0.1799 -0.0463  0.0017
 5021W        W 9221   6.882  10.183   2.621 -0.1751  0.1563  0.0827
 5022W        W 9222   7.709   8.181   1.491 -0.0447  0.1780 -0.0487
 5023W        W 9223   5.408   6.598  10.489 -0.5073  0.3071  0.0573
 5024W        W 9224   3.913   4.306   0.381 -0.2249 -0.0575 -0.1832
 5025W        W 9225   8.592   8.183   9.508  0.0683 -0.1346  0.1276
 5026W        W 9226   3.799  10.310   3.225 -0.1934  0.0908 -0.1261
 5027W        W 9227   1.142   2.723   4.155  0.1628  0.0433 -0.1623
 5028W        W 9228   2.334   8.852  11.728 -0.2049 -0.1528 -0.3483
 5029W        W 9229   2.071   9.469   2.579 -0.1055 -0.0036  0.0381
 5030W        W 9230  10.305   1.685   0.721 -0.2342  0.0486 -0.1293
 5031W        W 9231   1.727   6.491   2.857 -0.1833 -0.3525  0.1003
 5032W        W 9232   4.307  10.016   1.741 -0.0791  0.0665 -0.0582
 5033W        W 9233   2.503   0.453   2.419  0.0098  0.1651  0.1110
 5034W        W 9234   4.604   1.544   1.772  0.1918  0.1348 -0.0621
 5035W        W 9235   3.241   8.499   0.422 -0.1445  0.2006  0.0387
 5036W        W 9236   4.142   3.272  11.080 -0.1848  0.3247 -0.1747
 5037W        W 9237   8.777   2.956  12.972 -0.1622  0.1370 -0.1168
 5038W        W 9238   6.361  10.185  12.740  0.2750  0.3178 -0.1804
 5039W        W 9239   4.879   5.757  10.154 -0.1455  0.1082 -0.1419
 5040W        W 9240   9.238   6.943  12.517  0.2169  0.3096 -0.2449
 5041W        W 9241   1.796   4.560   4.740  0.0331 -0.2750  0.1293
 5042W        W 9242   3.196   8.097  11.908  0.0680  0.0795  0.0085
 5043W        W 9243   7.136   8.256   2.261 -0.2996  0.1011  0.1458
 5044W        W 9244   1.287   2.872  10.581 -0.0113 -0.0294  0.1784
 5045W        W 9245   6.281   3.710   8.772  0.0022 -0.0135  0.1573
 5046W        W 9246   2.751   1.903  10.413 -0.0961  0.3012 -0.0741
 5047W        W 9247   0.166   7.319  10.396  0.0069  0.0617  0.1182
 5048W        W 9248   2.856   6.004  13.203  0.1119 -0.1514 -0.1043
 5049W        W 9249   0.050   2.711  11.480 -0.1170  0.0239 -0.1078
 5050W        W 9250   2.006   2.281   3.516  0.0333 -0.0396 -0.3477
 5051W        W 9251   9.920   7.891  12.787 -0.0207 -0.2350 -0.0920
 5052W        W 9252   2.966   4.646   3.351  0.2241  0.1542  0.3072
 5053W        W 9253   4.921   6.246   9.861 -0.0764  0.0463  0.0870
 5054W        W 9254   3.559   1.930  11.564  0.1721 -0.1417 -0.0415
 5055W        W 9255   4.618  10.108   2.099  0.0454  0.2839  0.1112
 5056W        W 9256   2.656   0.459  11.914 -0.0650  0.3698 -0.1290
 5057W        W 9257   2.626   6.678   1.483 -0.2397 -0.0122 -0.2588
 5058W        W 9258   8.611   3.657  10.688  0.4351  0.0821 -0.0067
 5059W        W 9259   3.030   6.564   2.290  0.0954 -0.0339 -0.0341
 5060W        W 9260   1.361   8.155  11.709  0.0411  0.2776 -0.0156
 5061W        W 9261   3.722   8.499  12.591 -0.0323 -0.1909  0.0687
 5062W        W 9262   9.756   8.304  10.888  0.0341  0.0585 -0.0197
 5063W        W 9263   1.006   3.267  11.339 -0.1728  0.0174 -0.0039
 5064W        W 9264   2.758   8.984   2.127  0.2729  0.1028 -0.1447
 5065W        W 9265   6.522   5.392  11.216 -0.1592 -0.1911  0.0636
 5066W        W 9266   7.817   9.461  12.161  0.0496  0.0373 -0.0324
 5067W        W 9267   8.447   4.551   1.116 -0.0943  0.2117  0.0711
 5068W        W 9268   2.934   7.023  11.748  0.3657 -0.3668 -0.0310
 5069W        W 9269   1.220   9.659   3.864 -0.1351 -0.0416  0.1532
 5070W        W 9270   1.858   3.561  11.890 -0.0805 -0.2487  0.0872
 5071W        W 9271   2.520   1.146   3.244  0.0939 -0.0771 -0.0519
 5072W        W 9272   4.323   3.112   1.606  0.0162  0.2624 -0.1933
 5073W        W 9273   3.798   5.637   3.478  0.2719  0.2871  0.0904
 5074W        W 9274  10.375   9.786   3.162  0.1816  0.2183  0.1801
 5075W        W 9275   0.016   9.028   2.174  0.1141 -0.0265 -0.0682
 5076W        W 9276   9.005  10.290   5.268 -0.1190 -0.1511  0.3256
 5077W        W 9277   8.166   1.166   9.957  0.3018  0.0966 -0.2870
 5078W        W 9278   6.929   5.467   1.430  0.1465 -0.4396 -0.0035
 5079W        W 9279   2.259   9.397  10.908  0.1337 -0.2138 -0.0237
 5080W        W 9280   4.731   4.639   2.204  0.0058  0.0967  0.0120
 5081W        W 9281   3.831   7.439   4.789 -0.0154 -0.2445 -0.0020
 5082W        W 9282  10.438  10.237  10.967  0.3460 -0.2263  0.1746
 5083W        W 9283   8.965   7.297   0.494  0.1720 -0.1313 -0.0248
 5084W        W 9284   3.791   7.422   0.729 -0.2017  0.2020 -0.0095
 5085W        W 9285   9.729   4.263   8.822 -0.0503  0.4151 -0.1224
 5086W        W 9286   7.269   4.590  10.455 -0.0232  0.2335  0.0438
 5087W        W 9287   7.854   9.923   2.751  0.2913 -0.1221  0.0150
 5088W        W 9288   5.529   6.323   1.256  0.3838 -0.0271  0.2582
 5089W        W 9289   6.459   3.664  12.680 -0.2499  0.1369 -0.1350
 5090W        W 9290   2.856   6.562  11.970 -0.1652  0.0153 -0.2376
 5091W        W 9291   7.068   7.332   4.327 -0.0732 -0.0816  0.0971
 5092W        W 9292   3.123   2.811   0.588  0.0482  0.1903 -0.0954
 5093W        W 9293   8.731  10.382   2.536  0.1084 -0.2690  0.0267
 5094W        W 9294   6.580   8.555   8.938  0.0376  0.0803 -0.0889
 5095W        W 9295   6.851   2.800  11.553 -0.0107 -0.2917 -0.0691
 5096W        W 9296   3.221   0.466   3.242 -0.0821  0.3319 -0.0156
 5097W        W 9297   9.097   3.870  10.723 -0.1394  0.0224  0.1725
 5098W        W 9298   0.601   9.005   0.983 -0.0152  0.1608 -0.1179
 5099W        W 9299   0.481   1.979  11.646  0.4513 -0.2857  0.1957
 5100W        W 9300   2.080   1.432   3.530 -0.0957 -0.1231  0.0341
 5101W        W 9301   6.433   5.032  10.804 -0.1362  0.0182 -0.1486
 5102W        W 9302   2.704   4.579   2.564 -0.1186 -0.1089  0.1980
 5103W        W 9303   8.228   0.517   3.545 -0.0135  0.1074  0.2936
 5104W        W 9304   3.882   4.730   3.244  0.2540  0.0532 -0.0847
 5105W        W 9305   1.962   2.480   1.989 -0.1287  0.0060 -0.1870
 5106W        W 9306   9.199   4.473   1.051  0.1723  0.1642 -0.1056
 5107W        W 9307   5.759   0.692   1.674  0.2112  0.0706 -0.2511
 5108W        W 9308  10.029   4.343   9.311 -0.0586  0.3254  0.1586
 5109W        W 9309   7.882   7.824   9.938 -0.0216 -0.0410  0.1390
 5110W        W 9310   4.925   3.894   2.522 -0.0947 -0.1448 -0.0368
 5111W        W 9311   9.838   2.696   9.712  0.1346  0.0379 -0.2072
 5112W        W 9312   7.581   4.581   5.247  0.3267 -0.2322 -0.0676
 5113W        W 9313   3.812   0.699   2.811  0.1946 -0.2053  0.0722
 5114W        W 9314   2.744   5.605   3.596 -0.0634 -0.2462 -0.0819
 5115W        W 9315   4.054   4.784   1.437  0.3888 -0.1079  0.0004
 5116W        W 9316   6.529   6.491   2.122  0.0959  0.2131  0.2769
 5117W        W 9317   3.211   3.578   5.187 -0.3139  0.2155 -0.0708
 5118W        W 9318   2.165   9.633   1.172  0.1426  0.0161  0.2048
 5119W        W 9319   4.460   0.142   4.098  0.0200  0.1002  0.3106
 5120W        W 9320   5.032   0.071  11.336  0.0101 -0.1026 -0.4322
 5121W        W 9321   4.681   1.378  13.181  0.2926 -0.0190 -0.1489
 5122W        W 9322   1.563   1.610   0.998 -0.2689 -0.2559 -0.0118
 5123W        W 9323   7.892   2.221   8.314  0.4621 -0.0491  0.1268
 5124W        W 9324   2.274   9.996  11.726 -0.3138 -0.3981 -0.2652
 5125W        W 9325   0.340   0.659  10.801 -0.2526  0.2867  0.1140
 5126W        W 9326   5.647   7.640   3.024  0.0818  0.1265 -0.2638
 5127W        W 9327   9.057   4.015   2.414 -0.3544  0.0135  0.3988
 5128W        W 9328   2.831   0.193  12.326  0.0732 -0.2719  0.1362
 5129W        W 9329   3.767   2.163  11.190  0.1285 -0.0404 -0.1709
 5130W        W 9330   1.003   4.180  10.764 -0.1355 -0.0924  0.0212
 5131W        W 9331   4.827   5.084   2.921  0.3268  0.0894 -0.2270
 5132W        W 9332   6.455   1.936   2.450 -0.2208  0.0475  0.1778
 5133W        W 9333  10.128   3.081   0.486 -0.2241 -0.1788 -0.2307
 5134W        W 9334   0.214   2.574   9.638  0.1476  0.0747 -0.0293
 5135W        W 9335   7.775   2.707  10.102  0.1253 -0.0694  0.2329
 5136W        W 9336   1.324   1.521  11.313  0.1667  0.0214  0.0247
 5137W        W 9337   3.245   6.791   1.900  0.1764 -0.2289  0.3446
 5138W        W 9338   7.170   0.308   9.000 -0.3726  0.0080 -0.0979
 5139W        W 9339   8.557   1.672  11.399 -0.2314  0.1568  0.1835
 5140W        W 9340   2.941   8.314   0.066 -0.4174 -0.2223 -0.1480
 5141W        W 9341   9.615  10.431   1.331 -0.1556  0.2392 -0.2096
 5142W        W 9342   5.388   2.645  12.212 -0.0828  0.2040  0.0056
 5143W        W 9343   1.660   0.956  12.094 -0.0421  0.1277 -0.1786
 5144W        W 9344   7.084   1.006   2.108 -0.3300 -0.2064  0.2869
 5145W        W 9345   6.026   9.112   3.363  0.0957  0.1665 -0.0201
 5146W        W 9346   9.558   3.396  11.950 -0.0721 -0.2351 -0.1677
 5147W        W 9347   9.739   1.198   0.005  0.1000  0.0491  0.0137
 5148W        W 9348   2.136   7.278  12.141  0.0044  0.0083 -0.2115
 5149W        W 9349   7.084   0.211   4.376  0.1524 -0.0551 -0.3381
 5150W        W 9350   9.910   2.551  12.203  0.2117 -0.1747  0.0908
 5151W        W 9351   9.325   5.559  10.449  0.0031 -0.0658 -0.4211
 5152W        W 9352   1.890   1.936  12.240 -0.0762 -0.2192 -0.0567
 5153W        W 9353   1.739   6.855  12.164 -0.1711 -0.2956  0.0138
 5154W        W 9354   7.837   3.220   8.294  0.2865 -0.1149  0.0505
 5155W        W 9355   0.221   5.322  11.887 -0.3727  0.0719  0.0180
 5156W        W 9356   9.800   5.474   3.048  0.0028  0.0899  0.1891
 5157W        W 9357   5.923   2.789   1.233 -0.0157  0.3467 -0.0025
 5158W        W 9358   3.254   4.868  10.782 -0.1621 -0.0750  0.2527
 5159W        W 9359   8.398   5.820  11.302 -0.2983  0.1852  0.0669
 5160W        W 9360   4.061   2.508  10.826 -0.2605 -0.0251  0.2850
 5161W        W 9361   4.328   2.309  11.835 -0.0224  0.2475 -0.1668
 5162W        W 9362   7.051   1.144  12.572 -0.0761 -0.2326  0.4337
 5163W        W 9363   6.282   3.370   0.000  0.0483  0.2642  0.2085
 5164W        W 9364   5.432   6.045  11.764 -0.0765 -0.2422  0.1416
 5165W        W 9365   6.284   5.595   0.393 -0.1751  0.0756 -0.1606
 5166W        W 9366   1.750   5.472   9.446 -0.3768  0.0972  0.0276
 5167W        W 9367  10.043   7.596   5.141  0.1286  0.3368  0.0605
 5168W        W 9368   0.726   7.983  12.716 -0.2632 -0.0696  0.2835
 5169W        W 9369   3.536   0.040   0.771  0.0041 -0.0165 -0.1608
 5170W        W 9370   9.824   2.083   9.676 -0.0004  0.3364 -0.1465
 5171W        W 9371   0.595   8.928  10.081  0.1325  0.2420 -0.3190
 5172W        W 9372   5.997   6.419   1.493  0.0921  0.1276  0.0439
 5173W        W 9373   1.927   0.382   3.248  0.0843  0.1866  0.0322
 5174W        W 9374   9.318   1.389   0.300  0.2166  0.0240 -0.0525
 5175W        W 9375   4.321   7.146  12.889 -0.0709  0.1111 -0.1295
 5176W        W 9376   1.793   3.506   5.074  0.3710 -0.1600  0.2063
 5177W        W 9377   7.223   4.486   9.302 -0.0376  0.3109  0.1613
 5178W        W 9378   1.244   2.189  11.950 -0.0198  0.1748 -0.0774
 5179W        W 9379   7.776   1.931   1.106 -0.2330  0.0518 -0.1961
 5180W        W 9380   4.206   0.958  10.601  0.0819  0.0720 -0.2275
 5181W        W 9381   8.814   3.187   2.088  0.0942 -0.1768  0.3031
 5182W        W 9382   1.082   6.671   1.963  0.2626 -0.1202 -0.1532
 5183W        W 9383   5.345   4.517   4.027 -0.2786  0.1060 -0.1224
 5184W        W 9384   6.389   3.054   3.328  0.1154  0.1764 -0.4107
 5185W        W 9385   1.201  10.313  12.586  0.0516 -0.0036  0.1292
 5186W        W 9386   0.605   7.213   1.936 -0.1072  0.1704 -0.3422
 5187W        W 9387   5.573   8.037   0.587 -0.0815  0.0673  0.2399
 5188W        W 9388   7.865   8.895  11.548  0.0913 -0.0733  0.0029
 5189W        W 9389   8.911   3.144   4.498 -0.1140  0.2212  0.2752
 5190W        W 9390   2.045   3.734  12.405 -0.0959 -0.1313  0.0345
 5191W        W 9391   6.281   1.693  12.377 -0.2749 -0.1527  0.0055
 5192W        W 9392   2.287   1.879   3.770  0.1341 -0.0972  0.1106
 5193W        W 9393   4.091   9.086  13.243 -0.0222  0.2815 -0.0421
 5194W        W 9394  10.423   9.851   1.820  0.0264 -0.0346 -0.0110
 5195W        W 9395   9.672   1.265   1.698 -0.0445  0.0068  0.0385
 5196W        W 9396   0.072   0.307   3.995  0.1553  0.2800  0.1034
 5197W        W 9397   4.937   6.240  10.816  0.3856  0.4841 -0.1387
 5198W        W 9398   9.950   1.454   3.272 -0.0061 -0.4247  0.0103
 5199W        W 9399   5.186   5.435   1.069 -0.1289 -0.0648  0.0137
 5200W        W 9400   5.186   9.914   9.203  0.2488 -0.0132  0.3210
 5201W        W 9401  10.294   6.042  11.796  0.0979  0.3134  0.0683
 5202W        W 9402   7.981  10.259  11.931  0.1014  0.1837 -0.0162
 5203W        W 9403   0.792  10.302  13.361 -0.1258 -0.2846 -0.4370
 5204W        W 9404   0.771   2.075  12.643 -0.1158 -0.1625  0.4003
 5205W        W 9405   7.868   6.015   2.071 -0.0172 -0.1807  0.1382
 5206W        W 9406   4.004   6.546   8.723 -0.0648  0.0586 -0.1806
 5207W        W 9407   5.501   4.874   5.431  0.0648  0.1292  0.0175
 5208W        W 9408   7.823   4.219   1.030 -0.2651  0.3114  0.1346
 5209W        W 9409   6.780   7.547   0.633 -0.1474  0.0929  0.2738
 5210W        W 9410   0.951   2.499  11.706  0.0878 -0.0697 -0.2078
 5211W        W 9411   2.862   8.762   1.687  0.2882 -0.1557  0.0861
 5212W        W 9412   4.191   0.095   1.551  0.0017 -0.1516  0.3315
 5213W        W 9413   0.715   6.474   1.523  0.0444 -0.0690 -0.0791
 5214W        W 9414   3.141   1.660   3.522 -0.0676  0.1425  0.2754
 5215W        W 9415   7.273   9.646   9.050 -0.0210 -0.0375 -0.0166
 5216W        W 9416   7.356   3.764  12.491 -0.1986 -0.2123 -0.1316
 5217W        W 9417   4.291   8.700  10.931 -0.1806  0.1065  0.1270
 5218W        W 9418   8.158   8.367   1.661 -0.0331 -0.0038 -0.1615
 5219W        W 9419   3.574   2.340  10.148 -0.2860  0.2671  0.3122
 5220W        W 9420   9.564   7.147   8.709 -0.0260  0.2228 -0.0561
 5221W        W 9421   1.448   6.881   0.135  0.0493  0.0652  0.0482
 5222W        W 9422   1.619   1.006   2.294 -0.0951 -0.2513  0.0777
 5223W        W 9423   3.850   1.575  12.833 -0.1775 -0.0110 -0.1148
 5224W        W 9424   0.637   2.320   9.887 -0.1879  0.2743  0.2543
 5225W        W 9425   2.645   6.448  12.959 -0.0402  0.1164  0.1019
 5226W        W 9426   1.775   8.946   0.567  0.1546 -0.3346  0.1032
 5227W        W 9427   5.347   1.160  11.783 -0.2595 -0.2549  0.0997
 5228W        W 9428   5.245   9.243  11.285 -0.1872  0.1168  0.0099
 5229W        W 9429   8.107   2.834   1.235  0.1796 -0.0501  0.0680
 5230W        W 9430   7.135   5.115   3.065 -0.0156 -0.1083  0.0622
 5231W        W 9431   3.426   8.317   9.940  0.0901  0.0267 -0.0537
 5232W        W 9432   9.879   9.949   1.259 -0.0125 -0.0563  0.0118
 5233W        W 9433   1.735  10.083   2.998 -0.0197 -0.1016 -0.0413
 5234W        W 9434  10.461   8.691   4.748 -0.2075  0.3200  0.0293
 5235W        W 9435   6.745   3.069   0.026 -0.1420 -0.3320 -0.0454
 5236W        W 9436   7.544   3.938   3.560  0.4968  0.1692  0.0500
 5237W        W 9437   8.969   3.871   3.798  0.4616  0.4357  0.0391
 5238W        W 9438   0.533   1.318   1.885  0.0038  0.2000  0.3438
 5239W        W 9439   2.718   5.531   0.103  0.4217  0.0030  0.5386
 5240W        W 9440   9.091   2.975   2.512 -0.4713  0.1999 -0.1146
 5241W        W 9441   8.588   9.271   0.444  0.0975 -0.3036 -0.2221
 5242W        W 9442   1.987   9.308   0.849 -0.1140  0.1398  0.2699
 5243W        W 9443   3.076   3.830   9.950  0.3088  0.1076 -0.2745
 5244W        W 9444   5.280   2.552  13.278  0.1885  0.1991  0.0622
 5245W        W 9445   1.904   5.703  11.794  0.2879  0.0038 -0.1120
 5246W        W 9446   4.517   5.585   2.803  0.0987  0.0402  0.0236
 5247W        W 9447   4.460   6.738  10.040  0.0438  0.0041  0.0917
 5248W        W 9448   1.364   1.774   1.861 -0.3051  0.0451  0.0990
 5249W        W 9449   8.127   0.900   1.308  0.0358 -0.2627  0.0838
 5250W        W 9450   6.260   3.924   1.782  0.1863 -0.0452  0.0113
 5251W        W 9451   4.101   4.414   3.665  0.2325 -0.0037  0.3640
 5252W        W 9452   6.816   3.149  10.491 -0.3217 -0.0518 -0.0608
 5253W        W 9453   5.853   2.991   4.451  0.2131  0.0219 -0.0796
 5254W        W 9454   9.482   1.071   9.775 -0.0527 -0.0150 -0.2186
 5255W        W 9455   3.068   7.200   4.399  0.0464  0.4062  0.1780
 5256W        W 9456   9.413   0.150   1.922 -0.0220  0.1494 -0.2703
 5257W        W 9457   7.772   9.048  12.484  0.1742 -0.1172 -0.2552
 5258W        W 9458   3.315   0.250  12.962  0.0538  0.0563  0.1599
 5259W        W 9459   6.504   0.288  11.463 -0.2154  0.2487  0.0844
 5260W        W 9460   5.631   9.654  11.908 -0.2504 -0.1765  0.2145
 5261W        W 9461   0.238   8.098  10.014  0.0546 -0.1068  0.0882
 5262W        W 9462   9.672   8.227  11.928  0.0842 -0.1711  0.2907
 5263W        W 9463   1.129   5.137  13.329 -0.0158 -0.5014 -0.2939
 5264W        W 9464   6.800   7.919   1.551  0.0808  0.1594  0.1432
 5265W        W 9465   0.394   9.861   3.664  0.2457 -0.2581  0.0452
 5266W        W 9466   5.843   4.817   9.879 -0.0057 -0.2154  0.2263
 5267W        W 9467   4.878   6.763   9.651 -0.1968 -0.4641  0.0698
 5268W        W 9468   5.967   7.812   2.088 -0.0422 -0.4412 -0.2265
 5269W        W 9469   8.757   4.388   2.379  0.2386 -0.0573  0.0001
 5270W        W 9470  10.145   0.515   3.222  0.1837  0.2274 -0.1091
 5271W        W 9471   5.184   7.429  11.027 -0.0265 -0.0169  0.1815
 5272W        W 9472   1.094   3.719  12.608 -0.1167  0.3016  0.0886
 5273W        W 9473   7.613   1.295  13.234  0.0495  0.1825 -0.0726
 5274W        W 9474   0.858   6.654   2.976 -0.0102  0.0401  0.1091
 5275W        W 9475   3.923   9.769   0.425 -0.3479  0.2560 -0.0228
 5276W        W 9476   0.286  10.406   3.320 -0.1432  0.0734 -0.0682
 5277W        W 9477   9.149   3.672   1.224 -0.0055  0.2176 -0.3056
 5278W        W 9478   3.223   3.693  10.432 -0.0520  0.0102 -0.0173
 5279W        W 9479   5.888   0.983   2.143  0.1004  0.0851  0.1986
 5280W        W 9480   1.486   8.887   4.066 -0.2571 -0.3657  0.1371
 5281W        W 9481   0.910   7.891  12.181 -0.0327 -0.2991 -0.2353
 5282W        W 9482  10.493   2.683   0.729  0.1800 -0.3588 -0.0393
 5283W        W 9483   2.777   2.171  13.130  0.3549  0.1987  0.2821
 5284W        W 9484   6.444   6.825   3.448  0.0471 -0.3051  0.1070
 5285W        W 9485   2.315   2.512   8.625 -0.0908 -0.0667 -0.0458
 5286W        W 9486  10.027   8.927   2.829  0.3543  0.1272 -0.1208
 5287W        W 9487   0.021   7.564  13.301 -0.1982 -0.1770 -0.0609
 5288W        W 9488   5.224   6.909   4.479 -0.2595 -0.1944 -0.3173
 5289W        W 9489   5.756   4.273  12.568  0.2421 -0.1728 -0.0430
 5290W        W 9490   0.764   2.742  11.319 -0.0473  0.0860  0.3806
 5291W        W 9491   5.305   6.092  13.009 -0.1040 -0.0133  0.2020
 5292W        W 9492   9.852   2.022  11.210 -0.0199 -0.0715  0.2014
 5293W        W 9493   0.317   3.159  12.098  0.0760 -0.3453 -0.1245
 5294W        W 9494   3.972   2.429  12.499  0.0679 -0.2374 -0.0259
 5295W        W 9495   0.683  10.124  12.588 -0.2372 -0.1503  0.1678
 5296W        W 9496   7.282   0.718   0.785  0.1433  0.3290 -0.2196
 5297W        W 9497   5.130   5.909   4.020 -0.0490  0.1164  0.0992
 5298W        W 9498   0.894   2.955   1.647 -0.1107 -0.0019 -0.0464
 5299W        W 9499  10.359   1.055  12.556  0.1259 -0.2773  0.1215
 5300W        W 9500   3.978   7.940   2.755 -0.0081 -0.0020 -0.0895
 5301W        W 9501   7.821   1.449  10.420  0.0036  0.0879  0.2667
 5302W        W 9502   7.191   7.011   1.347  0.0900 -0.0128 -0.3351
 5303W        W 9503   3.062   3.029   1.063 -0.0210 -0.1571  0.4310
 5304W        W 9504   3.562   8.687   4.085 -0.0653  0.0207 -0.0966
 5305W        W 9505   7.933   2.398  10.965  0.1745  0.4246  0.0012
 5306W        W 9506   6.680   2.336  11.763 -0.3088 -0.3069  0.3696
 5307W        W 9507   6.885   1.031  13.044 -0.1989  0.1334  0.1477
 5308W        W 9508   0.924   6.265   9.597 -0.3350  0.3398 -0.0182
 5309W        W 9509   2.584   3.377   4.025 -0.1950 -0.5139 -0.1384
 5310W        W 9510   9.501   5.118   0.488  0.0560  0.1953  0.1341
 5311W        W 9511   6.992   7.438   3.286  0.2923 -0.0346  0.1975
 5312W        W 9512   3.559   8.359   9.161 -0.0198 -0.3637  0.2676
 5313W        W 9513   3.102   5.882  10.128 -0.0444 -0.1151 -0.0087
 5314W        W 9514   8.233   4.272   2.478 -0.1349  0.2840  0.1480
 5315W        W 9515   3.676   6.140  10.406 -0.0568  0.0852  0.1808
 5316W        W 9516   1.327   9.981   2.736  0.0460 -0.0749  0.2464
 5317W        W 9517   9.976   4.686   3.663 -0.4331 -0.1793  0.1953
 5318W        W 9518   5.578   4.714  12.854 -0.0077 -0.0506  0.0608
 5319W        W 9519   3.906   1.135  11.041  0.1633 -0.0561  0.0150
 5320W        W 9520   7.801   1.278   3.138 -0.0789  0.4126  0.0769
 5321W        W 9521   6.503   0.567   1.510 -0.0672  0.1102  0.0207
 5322W        W 9522   5.337   6.780   3.063  0.1347 -0.1044 -0.1528
 5323W        W 9523   5.457   3.856   0.419 -0.1944 -0.3628 -0.1514
 5324W        W 9524   6.072   8.377   8.949  0.0074  0.2857  0.0803
 5325W        W 9525   6.363   2.452   9.332 -0.4116  0.0012  0.2240
 5326W        W 9526   3.348   0.199  11.358 -0.1643  0.0284  0.0184
 5327W        W 9527   1.926  10.276  11.401  0.1842  0.0091 -0.0999
 5328W        W 9528   1.798   3.459   0.807  0.0257  0.1094 -0.3154
 5329W        W 9529   1.744   6.214   9.158  0.2501 -0.0982  0.2881
 5330W        W 9530   3.417   3.722   3.722  0.0055  0.0780  0.1265
 5331W        W 9531   8.349   9.357   9.039 -0.0932  0.0440  0.0407
 5332W        W 9532  10.402   5.571   0.190  0.0728  0.2271 -0.2211
 5333W        W 9533   6.929   3.762  10.362 -0.0800  0.2528  0.1692
 5334W        W 9534   4.043   7.656   1.821  0.1272  0.3236 -0.1433
 5335W        W 9535   1.196   5.673  11.785  0.1318 -0.2884  0.0046
 5336W        W 9536   9.353   6.958   0.775 -0.2017  0.0475 -0.1586
 5337W        W 9537   9.950   0.206   4.137 -0.0799 -0.1922 -0.0344
 5338W        W 9538   3.163   4.813   4.970  0.1671 -0.2288  0.1382
 5339W        W 9539   6.458   4.021   0.348 -0.0877  0.0907 -0.0251
 5340W        W 9540   4.673   3.364   3.226  0.1662 -0.1797 -0.2278
 5341W        W 9541   2.608   3.616   9.959  0.1149 -0.1989  0.0044
 5342W        W 9542   3.164   5.019   0.085  0.1602 -0.2845  0.1180
 5343W        W 9543  10.176   7.068  10.586  0.2554  0.1895  0.0888
 5344W        W 9544   1.649   3.414   4.283  0.0088 -0.2246  0.2004
 5345W        W 9545   9.303   3.241  11.234 -0.2185  0.0983  0.0681
 5346W        W 9546   4.972   3.522   8.471 -0.3758 -0.0019 -0.3985
 5347W        W 9547   9.218   8.181   3.216  0.1235 -0.0050 -0.0801
 5348W        W 9548   8.765  10.113   3.169 -0.2154 -0.0554  0.0061
 5349W        W 9549   4.887   0.348  10.755  0.0573 -0.0801  0.0321
 5350W        W 9550   0.556   5.795   9.666  0.1497 -0.0143  0.2275
 5351W        W 9551   5.234   7.360   1.537 -0.0069 -0.1361 -0.1850
 5352W        W 9552   4.893   9.027   1.892  0.2380 -0.0135 -0.2218
 5353W        W 9553   2.032   2.329   2.544 -0.0799 -0.1668  0.0448
 5354W        W 9554   5.916  10.260   2.134  0.0968  0.2764 -0.0367
 5355W        W 9555   0.162   4.383   2.278 -0.0714 -0.3657  0.1196
 5356W        W 9556  10.257   7.029  11.658 -0.0487 -0.0667  0.1988
 5357W        W 9557   9.111   5.388  11.596 -0.0973  0.0038 -0.3815
 5358W        W 9558   1.574   1.635  10.146  0.0755 -0.1790 -0.0090
 5359W        W 9559   5.594   2.477   1.527 -0.0933  0.0201 -0.3684
 5360W        W 9560   1.098   1.133   3.503 -0.2379  0.2758 -0.0248
 5361W        W 9561   6.241   7.169  12.351 -0.1845 -0.0690  0.3120
 5362W        W 9562   3.518   5.228   0.713  0.1648  0.2367 -0.0008
 5363W        W 9563   5.210   7.356   3.239  0.0326  0.0731 -0.3655
 5364W        W 9564   2.202   6.491  11.206  0.0601  0.2041 -0.3226
 5365W        W 9565   2.114   7.869  10.708 -0.2106 -0.2252  0.0523
 5366W        W 9566   7.707   3.893  13.189 -0.2413 -0.1298 -0.1720
 5367W        W 9567   4.344   0.022   2.018 -0.2033 -0.1384  0.0594
 5368W        W 9568   8.678   4.798  12.840 -0.3072 -0.1729  0.1157
 5369W        W 9569   0.853  10.271  11.985 -0.1972  0.2924 -0.0123
 5370W        W 9570   0.935   0.581  12.215 -0.2763 -0.0430  0.1336
 5371W        W 9571   1.851   6.195   2.494  0.1003  0.0386  0.3406
 5372W        W 9572   9.334   1.945  12.626  0.0668 -0.1167 -0.0220
 5373W        W 9573   1.871   2.161  11.407  0.0990 -0.1175  0.2933
 5374W        W 9574   9.466   3.830   3.688 -0.0219  0.2481  0.2040
 5375W        W 9575   5.873   3.410  11.367  0.1970  0.4497 -0.1597
 5376W        W 9576   6.834   4.921  11.196 -0.0452  0.0347  0.0305
 5377W        W 9577   3.860   5.593   0.902 -0.0133  0.3432 -0.1692
 5378W        W 9578   6.499   1.357  13.239 -0.3631 -0.4284 -0.3935
 5379W        W 9579   8.597   7.680   2.612  0.3767 -0.1511  0.0208
 5380W        W 9580   1.065   9.692   3.345  0.0733  0.2361  0.1502
 5381W        W 9581   9.230   4.856  11.469 -0.3033  0.1453 -0.1480
 5382W        W 9582   2.283   9.045   0.143 -0.0031 -0.2094 -0.0805
 5383W        W 9583   9.850   4.276   3.264 -0.3701 -0.2176 -0.1695
 5384W        W 9584   5.961   9.324  12.123 -0.0273 -0.1595 -0.0664
 5385W        W 9585   1.194   2.369   1.043 -0.0848 -0.1573 -0.0811
 5386W        W 9586   5.276   9.575   2.988 -0.1843  0.2917  0.1183
 5387W        W 9587  10.418   5.355  12.747 -0.1789  0.1881  0.2733
 5388W        W 9588   4.287   2.798  11.557  0.0344 -0.1024  0.0667
 5389W        W 9589   8.048   4.528   5.334 -0.1571  0.0753  0.0554
 5390W        W 9590   6.093   8.641  11.069 -0.1249  0.0563 -0.3903
 5391W        W 9591   0.506   2.361   0.955 -0.2973  0.0382  0.0422
 5392W        W 9592   3.570   2.061  12.799 -0.0413  0.0081  0.1733
 5393W        W 9593   8.163   3.144   2.677 -0.1420  0.2231 -0.1314
 5394W        W 9594   5.202   7.406  12.359  0.2931  0.4236  0.0128
 5395W        W 9595   5.836   7.262  13.048  0.2327 -0.0882 -0.3407
 5396W        W 9596   9.856   4.418  11.048 -0.1909 -0.3712 -0.0120
 5397W        W 9597   6.908   7.464  11.070 -0.0566 -0.2071  0.3885
 5398W        W 9598   3.286   9.100  11.636  0.0326  0.1923 -0.0811
 5399W        W 9599   7.299   6.410   9.432  0.3238  0.1829  0.0981
 5400W        W 9600   4.434   5.354  13.103 -0.2519  0.0643 -0.0449
 5401W        W 9601   9.034   4.725   2.154 -0.0087  0.2225  0.1276
 5402W        W 9602   9.134   1.401  12.254  0.0789 -0.1553  0.3211
 5403W        W 9603  10.343   2.999  10.168 -0.1597  0.3269  0.1159
 5404W        W 9604   4.778   1.204   3.176 -0.1771 -0.3764  0.1565
 5405W        W 9605   8.693   0.516  12.434  0.2820 -0.1136  0.2238
 5406W        W 9606   6.053   3.434  11.848 -0.2262  0.0897 -0.0401
 5407W        W 9607   1.811   8.866  11.673 -0.0149  0.3855 -0.1868
 5408W        W 9608  10.022   2.148  13.289  0.0753  0.0360 -0.1024
 5409W        W 9609   4.604   4.725   0.858  0.2092  0.2667 -0.0380
 5410W        W 9610   6.512   6.705  10.972 -0.2457 -0.0313  0.2467
 5411W        W 9611   3.730   6.731   2.045  0.1425 -0.1323 -0.0615
 5412W        W 9612   8.121   8.203   3.635  0.2501  0.4487 -0.1699
 5413W        W 9613   6.928   1.658   9.684 -0.0906  0.0470  0.3154
 5414W        W 9614   7.386   0.331  12.969 -0.0279 -0.1651 -0.2518
 5415W        W 9615   5.486   1.483  13.270 -0.2316  0.2067  0.0524
 5416W        W 9616   1.173   6.566  11.495 -0.2983 -0.1015  0.1500
 5417W        W 9617   7.428   7.672   8.942  0.1895 -0.1605  0.1162
 5418W        W 9618   2.115   5.340  12.901 -0.1026  0.0352 -0.1897
 5419W        W 9619   2.282   7.906  13.080 -0.0349  0.1697 -0.1958
 5420W        W 9620   3.500   3.907   0.891 -0.0857  0.0480  0.0712
 5421W        W 9621   5.591   9.394  12.454 -0.0731  0.0300 -0.2958
 5422W        W 9622   5.324   2.729  10.639  0.0204 -0.3112 -0.0225
 5423W        W 9623   0.377   5.652   1.429  0.0986  0.1231 -0.1161
 5424W        W 9624  10.451   4.809  12.403  0.1718 -0.2032 -0.0959
 5425W        W 9625   1.674   1.215   3.207  0.0782 -0.1489 -0.0240
 5426W        W 9626   7.440   2.212  12.193  0.1894  0.0404  0.0026
 5427W        W 9627   2.158   9.460   1.690  0.3704  0.2461  0.1994
 5428W        W 9628   1.815   9.575   2.992  0.2109 -0.2358  0.1059
 5429W        W 9629   8.105   1.948   9.380  0.0237 -0.0893  0.2734
 5430W        W 9630   2.911   6.080   3.541  0.4624  0.0578  0.2863
 5431W        W 9631   7.234   6.267  12.842 -0.1329 -0.0079  0.2244
 5432W        W 9632   3.064   9.269   1.765 -0.0147  0.0178  0.2081
 5433W        W 9633   6.962   6.501  11.086 -0.1418  0.0278  0.0421
 5434W        W 9634   3.108   1.877   0.260 -0.1502  0.1780  0.1120
 5435W        W 9635   0.307   3.741   3.055  0.0659 -0.0202 -0.0317
 5436W        W 9636   2.232   5.372   0.504  0.1105  0.1343 -0.3358
 5437W        W 9637   9.775   6.435   2.319  0.0168  0.1392 -0.0102
 5438W        W 9638   6.139   3.877   9.874  0.0471 -0.2016 -0.0348
 5439W        W 9639   2.265   5.849  12.077 -0.0697 -0.2207 -0.1350
 5440W        W 9640   7.265   0.325  12.096  0.0635  0.2057  0.3061
 5441W        W 9641   1.823   4.692  12.282  0.1441  0.0771  0.1529
 5442W        W 9642   4.066   2.498   1.971  0.1684 -0.1699 -0.0790
 5443W        W 9643   6.777   8.192   2.787  0.2816 -0.1343 -0.0970
 5444W        W 9644   4.342   1.321   2.149  0.0594  0.2708  0.1455
 5445W        W 9645  10.338   1.720   3.838  0.0570 -0.1874  0.0165
 5446W        W 9646   2.668   6.466   2.635 -0.1879 -0.0053 -0.0489
 5447W        W 9647   4.264  10.210  12.379  0.0191  0.1632  0.1573
 5448W        W 9648   4.681   8.138   1.443 -0.0471  0.0442  0.1028
 5449W        W 9649   5.196   1.358   0.274  0.1501 -0.0164 -0.2891
 5450W        W 9650   4.643   2.456   5.052 -0.0937  0.4360 -0.0413
 5451W        W 9651   3.844   7.764   0.310 -0.3574  0.2541  0.1967
 5452W        W 9652   0.969   0.970   9.823  0.2546 -0.0955 -0.0029
 5453W        W 9653   7.898   7.936  10.896 -0.0480  0.1653 -0.2200
 5454W        W 9654   1.205   8.238   2.579  0.0805  0.2664 -0.1621
 5455W        W 9655   6.916   3.599  12.258  0.0477 -0.0537  0.2179
 5456W        W 9656   9.093   9.848   3.984 -0.0529 -0.2771 -0.1937
 5457W        W 9657   6.353   2.698  11.685 -0.2426  0.2013 -0.0992
 5458W        W 9658   7.374   6.185   1.945 -0.1804 -0.0034 -0.2336
 5459W        W 9659   3.501   8.331  11.208 -0.0410 -0.0133  0.2305
 5460W        W 9660   2.527   2.797  11.810 -0.0434  0.5459 -0.0280
 5461W        W 9661   6.601   9.982  10.447  0.0483 -0.1183 -0.1310
 5462W        W 9662   7.023   1.960  12.992  0.1318 -0.1676  0.2014
 5463W        W 9663   5.731   4.783  10.456 -0.0974  0.0657  0.1604
 5464W        W 9664   9.539   1.069   0.634  0.1998  0.0191 -0.1957
 5465W        W 9665   1.161   4.568   1.623 -0.0876  0.0361 -0.3025
 5466W        W 9666   8.110   5.002   2.300  0.1123  0.1131 -0.0923
 5467W        W 9667   9.205  10.272   8.366 -0.1011 -0.2140 -0.1248
 5468W        W 9668   6.706   4.939   1.002  0.0987  0.0983 -0.1042
 5469W        W 9669   6.147   8.030   0.319  0.1227  0.0340  0.3113
 5470W        W 9670   8.237   5.359  13.071 -0.1882  0.1595 -0.1270
 5471W        W 9671   1.545   4.983   4.965 -0.2130  0.0722 -0.1906
 5472W        W 9672   7.217   3.950  13.046  0.0063  0.1130  0.0449
 5473W        W 9673   9.447   9.482   9.681  0.1476 -0.0154  0.0796
 5474W        W 9674   7.751   1.824   2.240  0.0531 -0.1973  0.1854
 5475W        W 9675   9.010   9.005  13.107  0.3147 -0.2410 -0.2738
 5476W        W 9676   6.700   1.842  10.955 -0.0003  0.3054  0.0742
 5477W        W 9677   0.962   9.004  10.603  0.1529  0.3944  0.1674
 5478W        W 9678   0.536   2.938   9.958  0.1776 -0.0103  0.2802
 5479W        W 9679   5.375   6.083  10.861 -0.2843 -0.1139  0.4334
 5480W        W 9680   8.252   9.084   2.330 -0.1368 -0.0107  0.1847
 5481W        W 9681   6.933  10.130   0.117 -0.1022  0.0917  0.1631
 5482W        W 9682   5.262   7.771   1.134  0.0602  0.0113 -0.2972
 5483W        W 9683   9.790   6.860   2.661  0.1806 -0.1945 -0.3009
 5484W        W 9684   6.620   6.224  11.276  0.2002 -0.1252  0.1405
 5485W        W 9685   4.044   5.394   1.905 -0.1394  0.3072  0.5245
 5486W        W 9686   7.713   6.418   4.711  0.2706  0.0761 -0.0209
 5487W        W 9687   5.541   9.265   1.758 -0.1844 -0.1075 -0.1045
 5488W        W 9688   5.948   7.773  11.242  0.1281  0.1232  0.0596
 5489W        W 9689   1.921   8.671   3.183  0.1439 -0.1964  0.0215
 5490W        W 9690   6.310   5.993  10.631 -0.0231 -0.2137 -0.3610
 5491W        W 9691   4.967   1.186   1.308 -0.3472 -0.1550 -0.2652
 5492W        W 9692   0.911   5.890   9.981 -0.0888 -0.0847  0.0140
 5493W        W 9693   1.180   2.460   0.012  0.0938  0.0896  0.0586
 5494W        W 9694   8.961   8.231   1.880  0.0617 -0.0415 -0.3367
 5495W        W 9695   7.890   3.879   2.560  0.3263 -0.1688  0.0696
 5496W        W 9696   5.676   5.093  11.878 -0.0340 -0.1164 -0.0200
 5497W        W 9697   8.388   0.481   3.088  0.1037 -0.1490  0.0015
 5498W        W 9698   2.041   8.678   2.720  0.0731  0.1416  0.1304
 5499W        W 9699   7.131   9.806   3.336  0.1711  0.0887  0.0887
 5500W        W 9700   8.353   5.172  12.563 -0.7024 -0.0219 -0.2959
 5501W        W 9701   9.103   2.262  10.777  0.0159 -0.4778  0.1055
 5502W        W 9702  10.268   6.817  12.342  0.0911 -0.0437  0.3662
 5503W        W 9703   8.520   0.107  12.738  0.1069  0.2156  0.1124
 5504W        W 9704   6.793   0.817   0.479  0.2147  0.0745 -0.0850
 5505W        W 9705   5.358   7.215  12.898  0.3875 -0.1399 -0.1266
 5506W        W 9706   9.942   0.986  11.231 -0.1745  0.1633  0.0480
 5507W        W 9707   5.926  10.028   4.807 -0.1840 -0.0811 -0.1661
 5508W        W 9708   0.171   2.138   1.313 -0.0666 -0.2310 -0.1055
 5509W        W 9709   2.083   4.875  12.975 -0.0597 -0.1121 -0.2591
 5510W        W 9710   4.135  10.172   1.291 -0.3306 -0.2230 -0.0724
 5511W        W 9711   7.029   3.469  12.758 -0.2323  0.0535 -0.1452
 5512W        W 9712   5.351   0.061   0.528 -0.2553 -0.0644 -0.4134
 5513W        W 9713   5.290   0.699  13.021 -0.1662 -0.2030 -0.2086
 5514W        W 9714   9.087   0.781  10.690 -0.1745 -0.1223 -0.2800
 5515W        W 9715   8.013   3.021   0.056  0.4643 -0.0372  0.1250
 5516W        W 9716   4.856   8.695   9.459  0.2451  0.0480  0.0825
 5517W        W 9717   5.766   7.317  11.055 -0.1837 -0.0690  0.0508
 5518W        W 9718   3.433   0.725   1.788 -0.4030 -0.1524 -0.0241
 5519W        W 9719   0.260   0.413   0.436  0.1476 -0.0398  0.2919
 5520W        W 9720   0.529   3.210   0.009 -0.1043 -0.3099  0.0891
 5521W        W 9721   1.949   2.678   9.554  0.2541 -0.1766 -0.0529
 5522W        W 9722   9.901   4.587  12.642 -0.0584  0.0861 -0.1292
 5523W        W 9723   3.217   2.812   4.701 -0.0572 -0.1557  0.3271
 5524W        W 9724   7.019   5.995   4.523  0.0429  0.2525 -0.1923
 5525W        W 9725   9.324   6.475  10.462 -0.0665  0.3925  0.1966
 5526W        W 9726   7.759   8.576   2.814 -0.0972 -0.1284  0.3526
 5527W        W 9727   0.456   1.044  11.167 -0.0018  0.1791 -0.1768
 5528W        W 9728   8.224   3.055   2.202 -0.3725 -0.3557 -0.0002
 5529W        W 9729   5.738   5.485   1.260 -0.2031  0.2194  0.0440
 5530W        W 9730   8.411   6.792   2.142  0.1494  0.1720  0.0637
 5531W        W 9731   0.910   3.531   2.791  0.1142 -0.2058  0.2985
 5532W        W 9732   6.557   1.321  11.733  0.2104 -0.1238  0.1718
 5533W        W 9733   4.179   6.850   0.239  0.1869  0.0514 -0.2772
 5534W        W 9734   2.047   8.208   2.458  0.2459 -0.2543 -0.0555
 5535W        W 9735   4.833   8.914  13.173  0.1129  0.3209 -0.0558
 5536W        W 9736   8.426   0.092   4.297 -0.0022 -0.1692 -0.1353
 5537W        W 9737   3.028   0.743   1.474 -0.1196  0.0080 -0.3200
 5538W        W 9738   2.829   7.835   2.144 -0.3803  0.1563 -0.0446
 5539W        W 9739   1.291   9.609   1.418 -0.3256 -0.0533 -0.0057
 5540W        W 9740   0.745   4.024   2.917 -0.1784 -0.2217 -0.0619
 5541W        W 9741   4.347   8.621   9.877 -0.0098  0.3137  0.1544
 5542W        W 9742   7.352  10.156   8.229 -0.0660  0.0904  0.2900
 5543W        W 9743   3.089   4.713   9.296  0.0668  0.2547  0.2151
 5544W        W 9744   4.987   0.207  12.351  0.2418  0.3239 -0.1675
 5545W        W 9745   7.533  10.339  12.062  0.1583 -0.0359 -0.1388
 5546W        W 9746   8.581   9.112  11.491  0.0847 -0.0856  0.2300
 5547W        W 9747   6.296   5.815   3.879  0.1834 -0.3169 -0.2094
 5548W        W 9748   2.826   1.755   1.492  0.0852  0.0518  0.1884
 5549W        W 9749   2.401   6.048  10.834 -0.0814 -0.4483  0.2826
 5550W        W 9750   2.154   2.835   2.731 -0.0862 -0.2692 -0.0119
 5551W        W 9751   9.121   4.966  12.941 -0.3424  0.0004  0.1175
 5552W        W 9752   0.995   1.843  12.211 -0.1111  0.0213 -0.1649
 5553W        W 9753   7.111   3.679   4.873 -0.1052  0.1695  0.2558
 5554W        W 9754   2.759   4.823  10.622  0.0887 -0.3478 -0.0334
 5555W        W 9755   4.920   5.239   0.054 -0.1209 -0.0920 -0.0247
 5556W        W 9756   8.615   1.521  10.910  0.0666  0.2243 -0.0749
 5557W        W 9757   7.438   3.504  12.987  0.0400 -0.2922 -0.2576
 5558W        W 9758   7.594   1.283  10.860 -0.1469 -0.0774 -0.0276
 5559W        W 9759   1.171   0.184  11.979 -0.2277 -0.1100  0.1083
 5560W        W 9760   3.720   6.072   1.734 -0.2976  0.1742 -0.3281
 5561W        W 9761   4.066   5.667   0.025 -0.1999  0.1625  0.0250
 5562W        W 9762   4.049   9.550  12.989 -0.0714 -0.0781  0.1728
 5563W        W 9763   2.034   4.640  11.283  0.4852 -0.4228  0.1865
 5564W        W 9764   2.170   0.424  13.032  0.0857  0.1720  0.0798
 5565W        W 9765   0.110   4.099   4.664  0.0702  0.0653  0.3869
 5566W        W 9766   4.734   8.918   0.820 -0.0533 -0.1633  0.2845
 5567W        W 9767   2.162   5.236  11.288 -0.2786 -0.1104 -0.1687
 5568W        W 9768   8.559   1.310  12.090 -0.1181  0.0451  0.0088
 5569W        W 9769   7.700   5.011   1.461  0.1147  0.0967 -0.1040
 5570W        W 9770   3.366   9.072   3.640 -0.2285  0.1275 -0.3103
 5571W        W 9771   9.969   9.027  10.296 -0.0017  0.0512 -0.0538
 5572W        W 9772   8.875   5.719   0.414  0.1007  0.1532  0.1056
 5573W        W 9773   9.817   8.541  10.387  0.2853  0.1442 -0.2896
 5574W        W 9774   7.089   7.295   0.901  0.1964 -0.2840  0.1027
 5575W        W 9775   7.507   2.754  12.216 -0.1534  0.0423  0.0503
 5576W        W 9776  10.472   7.987   1.904 -0.1089 -0.0361 -0.0430
 5577W        W 9777   1.331   3.816   5.204 -0.0118  0.2457  0.3348
 5578W        W 9778  10.466   9.303  12.036  0.0302  0.0727  0.0700
 5579W        W 9779   8.428   7.271   2.962  0.3060  0.0966  0.0738
 5580W        W 9780   4.799   1.320  12.700  0.0480  0.3890 -0.0491
 5581W        W 9781   7.736   3.157   3.070 -0.1169  0.0604  0.2116
 5582W        W 9782  10.002   7.624   1.089  0.0817 -0.1111  0.0021
 5583W        W 9783   0.417   3.750   0.889 -0.1936  0.3071 -0.0144
 5584W        W 9784   0.637   2.070   1.386  0.1692  0.1017  0.0526
 5585W        W 9785   8.316   7.550   2.102  0.0342 -0.0694 -0.3320
 5586W        W 9786   1.299   3.373   9.420 -0.1155 -0.1663 -0.0821
 5587W        W 9787   1.384   5.747   9.844  0.1851 -0.3825  0.1801
 5588W        W 9788   2.891   8.343  12.639 -0.1840  0.2517  0.2869
 5589W        W 9789   8.825   3.939   0.504  0.0627 -0.4370  0.2177
 5590W        W 9790   5.742   1.484   2.468 -0.1155 -0.1630  0.0082
 5591W        W 9791   3.301   1.631  11.241  0.2518  0.0269 -0.2480
 5592W        W 9792   7.364  10.451  10.756  0.0837  0.1268  0.1816
 5593W        W 9793   8.805   7.119  12.895  0.0853  0.0901  0.1017
 5594W        W 9794  10.273   8.915  11.754  0.0861 -0.3639 -0.0774
 5595W        W 9795   8.753   3.748   0.914  0.0775 -0.0723 -0.2507
 5596W        W 9796   7.546   7.184   1.044 -0.0353 -0.1065 -0.3617
 5597W        W 9797   2.562   5.664   4.734  0.1513  0.2358  0.0314
 5598W        W 9798   4.683   1.683  10.833 -0.1267 -0.1050 -0.1475
 5599W        W 9799  10.380   0.489  10.698  0.1207  0.0512  0.5059
 5600W        W 9800   6.333  10.419   3.988  0.0149  0.2515 -0.1462
 5601W        W 9801   3.954   3.764  12.523  0.1391  0.2263 -0.2569
 5602W        W 9802   6.686   4.697  10.187  0.3245 -0.1833  0.1036
 5603W        W 9803   1.702   4.892   2.030 -0.4171 -0.0750  0.3101
 5604W        W 9804   9.448   8.440  10.111 -0.1012 -0.6250 -0.0452
 5605W        W 9805   1.495   2.409   4.326  0.0970  0.1000 -0.1871
 5606W        W 9806   2.517   7.468  12.374  0.1346 -0.1560 -0.2154
 5607W        W 9807   6.263   7.473  11.526  0.2140 -0.0045  0.3055
 5608W        W 9808   6.062   9.819  10.270 -0.2178 -0.2174  0.0203
 5609W        W 9809   5.740   7.146   4.510 -0.1689  0.2963 -0.0718
 5610W        W 9810   6.984  10.173  10.887 -0.1158 -0.0475 -0.2047
 5611W        W 9811   1.721   4.972  11.479 -0.0876 -0.0558 -0.0130
 5612W        W 9812   0.591   2.869   2.058 -0.0730 -0.1303  0.3782
 5613W        W 9813   7.161   5.656  10.395 -0.1522 -0.1728  0.1316
 5614W        W 9814   0.553   7.934   3.256 -0.1972  0.2466 -0.0598
 5615W        W 9815   0.728   9.781  12.253  0.1106 -0.3171  0.1431
 5616W        W 9816   7.486   4.436   2.804 -0.0482  0.0816  0.2053
 5617W        W 9817   1.562   5.830   2.370  0.2397  0.0807 -0.2121
 5618W        W 9818   5.003   2.952  11.546  0.1145 -0.1533  0.2656
 5619W        W 9819   3.855   3.073  11.699 -0.0020  0.1451  0.2554
 5620W        W 9820   6.053   8.819  12.329 -0.0235 -0.0705 -0.2280
 5621W        W 9821  10.355   5.121   0.377 -0.0005 -0.3054 -0.1854
 5622W        W 9822   5.489   2.729   2.750  0.2806 -0.2546 -0.3867
 5623W        W 9823   9.539   3.682   1.632 -0.2247 -0.2858  0.0199
 5624W        W 9824   5.757   7.760   8.954  0.2055  0.1417 -0.1356
 5625W        W 9825   7.167   8.644   4.463  0.0906  0.2799  0.1723
 5626W        W 9826   3.314   1.689  12.529 -0.1160 -0.0186  0.1145
 5627W        W 9827   3.321   0.564   2.740  0.1112  0.0416  0.1237
 5628W        W 9828   3.222  10.108   2.738  0.2931  0.0923  0.0759
 5629W        W 9829   5.442   5.981   0.045  0.1123  0.0413 -0.2204
 5630W        W 9830   7.018   3.408  11.746 -0.0614 -0.2639 -0.1934
 5631W        W 9831   4.353   3.094   4.040  0.0237  0.3641  0.3324
 5632W        W 9832   7.598   9.217   1.077  0.0688 -0.1930  0.4248
 5633W        W 9833   1.538   3.896  12.742  0.0891 -0.1897 -0.0070
 5634W        W 9834   0.942   7.516   2.135  0.0650 -0.1559 -0.0510
 5635W        W 9835   0.079   0.632   3.558  0.1884 -0.2093 -0.0706
 5636W        W 9836   9.588   4.658   1.279  0.0408 -0.0179  0.0251
 5637W        W 9837   5.597   6.364   1.829  0.0403  0.0005  0.1614
 5638W        W 9838   6.338   5.493  10.668  0.2082  0.1090 -0.1383
 5639W        W 9839   0.571   3.778   8.875 -0.1636 -0.1380 -0.0033
 5640W        W 9840   0.859   9.008   1.876  0.3265  0.0276 -0.0360
 5641W        W 9841   2.037   1.427   0.955 -0.0790 -0.0840 -0.1376
 5642W        W 9842   9.459   3.967   2.055 -0.0948 -0.1452  0.2153
 5643W        W 9843   8.461   4.000   3.752  0.0281 -0.0490 -0.1724
 5644W        W 9844   0.813   4.269   3.959 -0.0796 -0.1001  0.0803
 5645W        W 9845   1.282   6.240   2.751  0.1546 -0.0957 -0.0584
 5646W        W 9846   3.412   0.837  11.518 -0.0586 -0.2051  0.1595
 5647W        W 9847   0.365   5.298   5.133 -0.1813  0.1886  0.0235
 5648W        W 9848   7.126   1.180   0.628 -0.0982  0.2934  0.2994
 5649W        W 9849   0.154   2.884   3.278  0.1754 -0.0940  0.1029
 5650W        W 9850   6.038   8.600   1.180  0.0512  0.1715 -0.0870
 5651W        W 9851   7.676   4.482   1.623  0.0816  0.3634  0.0670
 5652W        W 9852   3.868   5.863  11.540 -0.2709  0.0749 -0.3404
 5653W        W 9853   6.671   9.331   1.302 -0.1587 -0.2765  0.0073
 5654W        W 9854   8.142   9.597   8.634 -0.1907  0.0348  0.0487
 5655W        W 9855   8.432   6.715  13.034 -0.1942 -0.1523  0.0718
 5656W        W 9856   4.631   9.193   1.337  0.2406 -0.1898  0.3198
 5657W        W 9857   7.765   2.850   9.631 -0.2186 -0.2158  0.1019
 5658W        W 9858   9.602   9.080   3.268  0.0305 -0.1113 -0.1345
 5659W        W 9859   1.421   5.879  10.386 -0.1202 -0.1360 -0.0345
 5660W        W 9860   4.368   1.061   1.167  0.2790  0.1233 -0.1435
 5661W        W 9861   4.700   0.369   2.161  0.0503  0.2466  0.0622
 5662W        W 9862   0.904   3.681   9.274 -0.1277 -0.0986  0.1458
 5663W        W 9863   3.011   1.077   0.746  0.2601 -0.1244 -0.2831
 5664W        W 9864   9.597   4.671   8.527  0.0612  0.1126 -0.1395
 5665W        W 9865   2.216   9.176   2.105 -0.0033 -0.0294  0.0120
 5666W        W 9866   9.434   0.123   2.761 -0.0092  0.2872  0.0819
 5667W        W 9867   1.929   5.630   4.154 -0.0856 -0.0492 -0.2587
 5668W        W 9868   8.778   2.486  11.194  0.0166  0.1918 -0.1194
 5669W        W 9869   4.512   7.562   1.897 -0.1870 -0.0344  0.1076
 5670W        W 9870   0.477   2.725  11.834  0.2539  0.1225 -0.0980
 5671W        W 9871   8.473  10.437   0.159 -0.1795 -0.2395  0.0499
 5672W        W 9872   7.257   2.069   3.384  0.0657  0.0059  0.0071
 5673W        W 9873   4.889   1.145   1.975 -0.2276  0.1269  0.0259
 5674W        W 9874   8.010   2.452   3.732 -0.1371  0.0329 -0.2054
 5675W        W 9875   7.936   7.246  12.498  0.5318  0.0015 -0.2848
 5676W        W 9876   9.065   2.842  12.565 -0.0671  0.0996 -0.1936
 5677W        W 9877   6.339   5.843  13.260  0.0112 -0.3198  0.1297
 5678W        W 9878   7.734   3.319   4.086 -0.1420 -0.0482  0.3103
 5679W        W 9879   7.858   0.527   3.211 -0.2073  0.1003 -0.0335
 5680W        W 9880   6.769   1.762   0.131  0.4019  0.1434  0.5070
 5681W        W 9881   5.814   3.926   3.852 -0.0578 -0.0205 -0.3154
 5682W        W 9882   0.199   5.472   0.914 -0.0760  0.1755 -0.0630
 5683W        W 9883   8.701   2.080  12.040 -0.1715  0.3184 -0.1616
 5684W        W 9884   5.259   8.830  10.918 -0.0665 -0.1923 -0.1157
 5685W        W 9885   8.627   6.514  11.243  0.2870 -0.1873 -0.2633
 5686W        W 9886   7.174   7.714   1.918  0.2455  0.2615  0.0056
 5687W        W 9887   4.572   5.463   4.673 -0.0802  0.1813 -0.1663
 5688W        W 9888   0.407   4.073   9.351 -0.0810 -0.1472 -0.2808
 5689W        W 9889   9.149   2.813  12.100 -0.0641  0.0935  0.0929
 5690W        W 9890   1.779   8.141  13.238  0.0180  0.3264 -0.1992
 5691W        W 9891   4.123   1.383  12.371 -0.1863 -0.1307  0.0611
 5692W        W 9892   2.832   8.605   0.881  0.3819  0.3609 -0.1559
 5693W        W 9893   9.818   4.788   5.048 -0.1752  0.1861 -0.4369
 5694W        W 9894   4.410  10.363   0.270 -0.0009 -0.2191  0.2744
 5695W        W 9895   7.130   7.239  13.175  0.1022  0.1806 -0.2213
 5696W        W 9896   0.684   3.750  13.395 -0.1804  0.1534 -0.0322
 5697W        W 9897   6.916   6.041   2.109 -0.1046  0.0424 -0.1802
 5698W        W 9898   6.305   9.580   3.498 -0.0609  0.2623  0.3282
 5699W        W 9899  10.157   3.725   4.305 -0.2787 -0.0425 -0.0034
 5700W        W 9900   4.345   2.900   8.845  0.0186 -0.3354 -0.1020
 5701W        W 9901   7.611   0.562  11.436  0.1147  0.1224  0.0510
 5702W        W 9902   1.293   0.884  10.767  0.2873  0.2647  0.2822
 5703W        W 9903   8.324   3.709   1.695  0.0428 -0.0254  0.2807
 5704W        W 9904   1.883   5.499   5.515  0.1478 -0.1227  0.0915
 5705W        W 9905   3.302   5.638  11.661 -0.1314  0.1025  0.3340
 5706W        W 9906   2.672   6.393  10.495  0.0329 -0.1005  0.0401
 5707W        W 9907   0.735   9.939   1.538  0.0003 -0.1726 -0.0138
 5708W        W 9908   9.731   3.098   1.785  0.0355 -0.2826  0.2119
 5709W        W 9909   0.500   9.997   4.185  0.0358 -0.1181  0.1534
 5710W        W 9910   2.375   1.867  13.087  0.0719 -0.2382 -0.0138
 5711W        W 9911   4.412   5.938   0.193  0.0507  0.3022 -0.0479
 5712W        W 9912   2.876   5.248  10.830  0.3382  0.1414  0.2897
 5713W        W 9913   9.277   8.876   3.621  0.2258  0.1352  0.1780
 5714W        W 9914   3.792   7.834   1.394 -0.0730 -0.0170  0.5039
 5715W        W 9915   4.444   7.408   3.209  0.0547  0.1846 -0.1826
 5716W        W 9916   2.843   7.131  12.225  0.2711 -0.1405  0.1297
 5717W        W 9917   4.412   7.327   9.217  0.1041  0.0005 -0.0639
 5718W        W 9918   8.429   1.376   1.267 -0.0076 -0.0732  0.3054
 5719W        W 9919  10.491   1.579  12.545  0.0486 -0.0253  0.0553
 5720W        W 9920   8.806   8.955  12.509  0.1679  0.2041  0.1358
 5721W        W 9921   3.260   2.424  13.022  0.0920 -0.1861  0.0121
 5722W        W 9922   5.983   1.889   2.278 -0.1006 -0.1004 -0.2665
 5723W        W 9923   4.750   4.328   2.852 -0.1143  0.0192 -0.0555
 5724W        W 9924   9.745   1.136   3.623  0.0295  0.1872 -0.2075
 5725W        W 9925   9.623   2.377   0.169  0.4519 -0.0828  0.2315
 5726W        W 9926   2.453   7.780   0.560 -0.1768  0.1790 -0.0310
 5727W        W 9927   1.979   6.746   4.879 -0.1935 -0.1347 -0.1105
 5728W        W 9928   7.512   3.544   5.146 -0.2055 -0.2614  0.0169
 5729W        W 9929   4.168   8.231   1.498 -0.3111  0.0884  0.0438
 5730W        W 9930   6.486   9.421  12.996  0.1925 -0.1828  0.1904
 5731W        W 9931  10.392   7.583  11.783  0.2622  0.3260  0.1433
 5732W        W 9932   0.729   9.560   3.923  0.1035 -0.1281  0.1894
 5733W        W 9933   4.285   7.930   3.186 -0.1397  0.0274  0.3848
 5734W        W 9934   3.685   0.530  12.644 -0.1297 -0.2324 -0.1092
 5735W        W 9935   5.434   5.897   2.578 -0.1573  0.2096  0.1673
 5736W        W 9936   6.469   3.447  10.193 -0.0568  0.0353 -0.2916
 5737W        W 9937   6.753   2.777   4.736  0.2399 -0.1651 -0.1421
 5738W        W 9938   5.159   6.006   4.543 -0.1146 -0.0692 -0.1754
 5739W        W 9939   5.960   2.924  11.507 -0.1634 -0.0846 -0.3333
 5740W        W 9940   4.959  10.446   2.555  0.0994  0.3957  0.4126
 5741W        W 9941   4.355   9.219  12.296  0.1097 -0.0749  0.0053
 5742W        W 9942   0.747   1.622  11.237 -0.0132  0.0652 -0.1882
 5743W        W 9943   9.409  10.494   4.292 -0.0516  0.1506  0.2375
 5744W        W 9944   5.488   2.819   0.429  0.1290 -0.0953 -0.2552
 5745W        W 9945   1.195   5.005   9.159 -0.0569 -0.0490  0.0515
 5746W        W 9946   5.796   7.243  11.619 -0.1802  0.0492 -0.2319
 5747W        W 9947   2.736   7.815   3.507 -0.1583  0.1998 -0.0952
 5748W        W 9948   5.957   9.557  11.438 -0.1039  0.0558  0.0329
 5749W        W 9949   1.877   7.766  10.292 -0.1254 -0.0274  0.0480
 5750W        W 9950   0.445   9.921   2.100  0.0880  0.1498 -0.1564
 5751W        W 9951   3.105   6.747  11.412  0.0287 -0.1342 -0.1575
 5752W        W 9952   7.173   8.727   0.028 -0.2560  0.0688 -0.0179
 5753W        W 9953   0.141   6.789  10.451 -0.0428 -0.1934  0.1305
 5754W        W 9954   8.146   1.164   2.637  0.1601 -0.2091  0.0554
 5755W        W 9955   0.592   3.274  10.859 -0.1298 -0.0458  0.3767
 5756W        W 9956   3.068   3.278   0.506 -0.0460 -0.0796 -0.1210
 5757W        W 9957   5.573   3.035  13.194 -0.1233 -0.2215 -0.0997
 5758W        W 9958   9.756   0.778   1.825 -0.1470  0.0272  0.1536
 5759W        W 9959  10.084   5.784  12.279  0.0300 -0.1640  0.0355
 5760W        W 9960   3.438   7.853   9.042 -0.0324  0.2393 -0.0088
 5761W        W 9961   9.233   4.275   3.402  0.1636  0.2090  0.1135
 5762W        W 9962   1.100   7.309  12.272 -0.1865 -0.1763  0.1707
 5763W        W 9963   9.566   1.021  12.108  0.1950  0.1302 -0.0811
 5764W        W 9964  10.370   7.680  10.928 -0.1246 -0.0212 -0.4437
 5765W        W 9965   9.365   6.821   3.095 -0.1464  0.0530  0.2635
 5766W        W 9966   0.634   5.235   8.361  0.0775 -0.0433 -0.2660
 5767W        W 9967   6.963   7.024   9.938 -0.2651 -0.0781 -0.0433
 5768W        W 9968   7.496   1.021  12.346 -0.3266  0.0468 -0.2079
 5769W        W 9969   2.016   7.363  10.742  0.2180 -0.1758  0.2408
 5770W        W 9970   8.751   2.122   4.770 -0.0774  0.0283  0.0883
 5771W        W 9971   2.107   0.836   3.309 -0.0614  0.0294  0.0229
 5772W        W 9972   6.796   8.358  12.022 -0.1962  0.0525 -0.0909
 5773W        W 9973   1.739   2.131   0.927  0.2104  0.1131 -0.1986
 5774W        W 9974   8.897  10.091   1.356  0.0098  0.0953 -0.0334
 5775W        W 9975   1.626   2.937  12.970 -0.4315  0.3259 -0.1679
 5776W        W 9976   7.788   8.048   2.769  0.1054  0.1477 -0.0934
 5777W        W 9977   3.586   3.463   4.177 -0.1392 -0.0336  0.1822
 5778W        W 9978   1.328   8.872   2.008  0.1084 -0.0418 -0.2464
 5779W        W 9979   4.244   8.419  12.634 -0.3158 -0.1883 -0.2863
 5780W        W 9980   3.589   2.019   0.382 -0.2991  0.3529  0.1069
 5781W        W 9981   0.274   9.066   0.606  0.1848  0.1505 -0.3675
 5782W        W 9982   0.896   2.982  11.773 -0.1479  0.3550 -0.1719
 5783W        W 9983   2.289   2.519   9.906  0.3827 -0.1856  0.0501
 5784W        W 9984   0.230   0.083   2.498  0.2378 -0.0976  0.1792
 5785W        W 9985   7.986   7.527  13.024 -0.3565  0.1239 -0.1029
 5786W        W 9986   0.999   8.790   2.761  0.0602  0.5261  0.2422
 5787W        W 9987   0.360   3.702  12.932 -0.2112  0.4361  0.2106
 5788W        W 9988   0.244   6.226   4.855  0.2070 -0.2511 -0.0300
 5789W        W 9989   9.348   6.248   9.936  0.0200  0.0890 -0.1493
 5790W        W 9990   5.827   0.557  12.772 -0.1079 -0.0609  0.1417
 5791W        W 9991   6.920   3.969  11.779  0.2834  0.0243 -0.1698
 5792W        W 9992   6.591   8.745   2.700 -0.0307  0.2234 -0.2626
 5793W        W 9993   7.029   5.911   3.993  0.2317 -0.2686 -0.1183
 5794W        W 9994   1.005   5.980  12.181  0.0911 -0.1316  0.1289
 5795W        W 9995   9.431   1.642   4.130  0.1031  0.1637  0.3538
 5796W        W 9996   6.660   2.668  12.935 -0.0451  0.2359 -0.0059
 5797W        W 9997   4.513   5.652   1.607 -0.1126  0.2708 -0.3122
 5798W        W 9998   0.709   1.959  10.711 -0.2869 -0.0200 -0.2855
 5799W        W 9999   5.672   0.704  10.806  0.0115 -0.1257 -0.1750
 5800W        W10000   6.721   6.935  12.389 -0.3326 -0.1443  0.0702
 5801W        W10001   7.629   3.305   9.253  0.0141 -0.1532 -0.0747
 5802W        W10002   5.218   1.531   3.661 -0.1852  0.3398 -0.0056
 5803W        W10003   5.191   8.976   0.119 -0.1117 -0.0357 -0.2898
 5804W        W10004   8.381   8.573   3.189  0.2306 -0.2764 -0.2406
 5805W        W10005   1.424   6.149   0.537 -0.1163  0.2320  0.0739
 5806W        W10006   2.865   3.201   3.538  0.1924 -0.1777 -0.0576
 5807W        W10007   0.546   9.132   2.924  0.2317 -0.4038 -0.1531
 5808W        W10008  10.175   1.976   3.444  0.0476  0.1506 -0.1835
 5809W        W10009   6.790   4.318   4.852 -0.2136 -0.2298  0.0336
 5810W        W10010   8.489   8.087   1.930 -0.0035 -0.0347 -0.0879
 5811W        W10011   1.321   7.786  13.236  0.0048  0.2186  0.2050
 5812W        W10012   5.186   9.653  10.426 -0.1066  0.0341 -0.0225
 5813W        W10013  10.254   1.213   0.541 -0.3921 -0.0694  0.1476
 5814W        W10014   4.243   7.306  11.073 -0.0692  0.3627 -0.1118
 5815W        W10015   0.180   0.954   0.283 -0.1879 -0.3141  0.2437
 5816W        W10016   3.514   7.618   3.554  0.0601 -0.1241  0.2392
 5817W        W10017   3.156   4.127  12.793 -0.0037 -0.3325 -0.0467
 5818W        W10018   2.991   6.855   3.293  0.2087  0.0627  0.0224
 5819W        W10019   9.326   4.808   4.897 -0.0615 -0.0153 -0.1244
 5820W        W10020   3.384   8.851  11.166  0.1719 -0.1535 -0.1433
 5821W        W10021   0.813   9.858  11.667  0.0953  0.0620 -0.0082
 5822W        W10022   3.748   0.312   1.860 -0.0529 -0.0903  0.4400
 5823W        W10023  10.036   9.814  12.836 -0.0485  0.0744  0.1192
 5824W        W10024   6.465   7.326  11.101 -0.1619 -0.1951 -0.1453
 5825W        W10025   9.718   8.855  11.722 -0.1555  0.2106 -0.0334
 5826W        W10026   3.763   7.314   9.906  0.3033 -0.2433 -0.3768
 5827W        W10027   1.455   0.456  11.143  0.1598 -0.2903  0.0895
 5828W        W10028   7.145   8.901   1.276 -0.0878  0.0316 -0.1910
 5829W        W10029   4.189   7.004   8.948 -0.3765  0.0324  0.3589
 5830W        W10030   9.516   8.654   1.079  0.3840  0.1054 -0.1261
 5831W        W10031  10.100   6.733   1.447 -0.1139  0.3286  0.1986
 5832W        W10032   9.983   5.701  11.454 -0.1437 -0.1279 -0.0541
 5833W        W10033   2.503   7.391   3.152 -0.0074  0.0742  0.0365
 5834W        W10034   6.131   9.385   2.581  0.1752 -0.0779  0.4053
 5835W        W10035   4.725   7.661   0.391  0.0998 -0.3225 -0.0619
 5836W        W10036   6.019   9.801   2.926 -0.0543  0.1681 -0.2509
 5837W        W10037   3.314   5.245   1.569  0.1056 -0.0077 -0.1754
 5838W        W10038   9.104   4.276   9.839  0.0167 -0.2257 -0.0696
 5839W        W10039   6.912   5.130   1.820  0.2219  0.5113 -0.1319
 5840W        W10040   3.823   3.437   0.927 -0.0252 -0.0610  0.1386
 5841W        W10041   1.652   9.115   2.735 -0.0640  0.0984  0.0770
 5842W        W10042   8.638   3.218   2.582 -0.0138  0.0080  0.0187
 5843W        W10043   2.541   8.256   2.355  0.1487 -0.3935 -0.0362
 5844W        W10044   7.716  10.484  13.183 -0.0637  0.4795  0.1095
 5845W        W10045   1.415   6.874   1.499  0.1616 -0.4051 -0.0006
 5846W        W10046   7.812   5.833   2.587  0.0422  0.0405  0.1390
 5847W        W10047   6.339   4.545   3.566  0.0162 -0.0164  0.4054
 5848W        W10048   2.174   2.575   4.435  0.3034 -0.0862  0.1530
 5849W        W10049   3.384   9.803  11.127  0.0141 -0.0136  0.3270
 5850W        W10050   7.311   8.534  13.005  0.1558  0.3063  0.1077
 5851W        W10051   9.053   0.492   0.157 -0.0889  0.0693 -0.1689
 5852W        W10052   7.164   5.786   1.692  0.4843 -0.0067 -0.2298
 5853W        W10053   2.781   1.833  11.215 -0.2907 -0.2026 -0.2230
 5854W        W10054   1.104   0.430  13.048  0.0129  0.0829  0.0528
 5855W        W10055   6.075   7.730   2.634 -0.2650 -0.2040 -0.3019
 5856W        W10056   1.053   7.769   1.191  0.0023 -0.1023 -0.2053
 5857W        W10057   9.935   3.011   4.105  0.1333 -0.0972  0.0328
 5858W        W10058   7.079   6.233   5.220  0.0070 -0.1947 -0.0307
 5859W        W10059   1.819   4.987   3.503  0.2342 -0.3182 -0.0895
 5860W        W10060   2.215   7.019   2.250 -0.1968  0.0718 -0.2276
 5861W        W10061  10.441   8.889   3.045 -0.4795 -0.1133  0.0089
 5862W        W10062   6.889   9.074   4.590  0.3640 -0.0938 -0.0774
 5863W        W10063   6.884   6.500  11.614 -0.1474 -0.3083  0.0447
 5864W        W10064   9.062   0.804  11.420 -0.0100  0.3057  0.2830
 5865W        W10065   6.972   5.552  12.461  0.3270  0.1950 -0.0545
 5866W        W10066   6.075   2.398   1.508  0.0352  0.0337 -0.0524
 5867W        W10067   8.652   7.161   1.852  0.2662  0.0528  0.0365
 5868W        W10068   3.418   9.202   0.999  0.0660  0.1295  0.0751
 5869W        W10069  10.399   2.334   0.154  0.0511 -0.0833  0.3707
 5870W        W10070   4.614   3.317  10.974  0.0688  0.2019  0.3669
 5871W        W10071   6.681  10.411   2.181 -0.1259 -0.0023  0.0612
 5872W        W10072   4.627   5.572  12.538  0.0647  0.0709  0.1545
 5873W        W10073   9.041   1.317   2.403  0.0438 -0.0510 -0.2370
 5874W        W10074   1.005   9.456  10.863 -0.0019  0.0851 -0.0608
 5875W        W10075   8.764   5.510  10.008 -0.1992  0.1131  0.0986
 5876W        W10076   3.194   1.131   1.912  0.1275  0.5224 -0.1441
 5877W        W10077   6.469   7.620   9.460  0.3323  0.3461  0.2550
 5878W        W10078   2.338   3.176   3.593 -0.1815 -0.1112 -0.0540
 5879W        W10079   4.349   9.158  11.773 -0.1918  0.2032  0.0873
 5880W        W10080   8.617   8.023   0.365  0.3045 -0.1339 -0.0722
 5881W        W10081   3.383   3.930   2.240  0.0758 -0.2387 -0.4884
 5882W        W10082   1.815   3.065   0.498  0.0101 -0.2218 -0.0130
 5883W        W10083   8.696   9.039   1.076  0.0690 -0.2091 -0.2462
 5884W        W10084   5.805   7.873  10.507 -0.0516 -0.0103  0.0550
 5885W        W10085  10.130   1.428  11.176 -0.1047 -0.0356 -0.1282
 5886W        W10086   6.352   9.936   0.952 -0.0155 -0.0797  0.0582
 5887W        W10087   8.592   6.073  10.346  0.4235 -0.3804 -0.3347
 5888W        W10088   3.699   2.957   2.337  0.3242 -0.0176  0.2317
 5889W        W10089   4.744  10.250  13.270 -0.1904  0.0249 -0.0698
 5890W        W10090   6.385   8.436  12.791  0.0773  0.2151 -0.3827
 5891W        W10091   3.301   5.169   2.445  0.0743 -0.1384  0.2285
 5892W        W10092   3.988   5.278   0.537 -0.3060 -0.0911 -0.0767
 5893W        W10093   0.876   6.529  12.429 -0.2572 -0.5149 -0.0223
 5894W        W10094   1.345   8.096   0.778  0.0259  0.2161  0.1195
 5895W        W10095   1.794   5.077  12.643 -0.1313  0.1162 -0.0837
 5896W        W10096   3.257   4.669   3.849  0.2556 -0.0451  0.0957
 5897W        W10097   2.310   4.574   4.499 -0.2835 -0.0359 -0.2614
 5898W        W10098   7.537   9.640  12.526 -0.1186  0.0006  0.0905
 5899W        W10099   6.549   7.960  12.873 -0.0995 -0.0368  0.0504
 5900W        W10100   4.918   1.021  11.352 -0.2342  0.1568  0.0118
 5901W        W10101   0.016   4.058   4.198  0.0677  0.3120  0.2192
 5902W        W10102   2.333   4.199  11.090 -0.0967  0.1289 -0.1807
 5903W        W10103   3.936   3.610   9.709 -0.1158 -0.1639  0.2315
 5904W        W10104   0.286   9.866   0.975 -0.2144  0.1177  0.2445
 5905W        W10105   6.443   9.170  12.400 -0.1123  0.0171  0.1665
 5906W        W10106  10.290   4.873  12.877 -0.1697 -0.0481 -0.0794
 5907W        W10107   4.778   8.593  10.137  0.0599 -0.4245  0.2834
 5908W        W10108   5.114   7.249   9.765 -0.1957  0.3302  0.0524
 5909W        W10109   0.669   0.476  10.494  0.0877 -0.0178  0.2489
 5910W        W10110   6.187   5.196   3.919  0.1221 -0.0900  0.2094
 5911W        W10111   0.930   9.946  12.992 -0.3936  0.0027 -0.1626
 5912W        W10112   9.537   3.882  12.310 -0.0367 -0.3146 -0.1150
 5913W        W10113   8.709   2.908   0.718 -0.1016 -0.4310  0.0238
 5914W        W10114   5.909   6.668  13.072 -0.1601 -0.0562  0.2659
 5915W        W10115   4.429   6.317   3.621  0.0242  0.0810 -0.1870
 5916W        W10116   4.250   0.728  12.943 -0.0402 -0.2336 -0.1129
 5917W        W10117   2.142   8.062   0.176  0.2730 -0.1290 -0.0526
 5918W        W10118   4.032   4.844   9.973 -0.1895 -0.0649  0.2425
 5919W        W10119  10.414   9.179   4.453 -0.2265  0.0655  0.2737
 5920W        W10120   1.224   1.174   0.029  0.0156 -0.0749 -0.0239
 5921W        W10121   2.342   5.301   3.383 -0.1020 -0.2515 -0.2216
 5922W        W10122   0.589  10.405  10.412 -0.3898 -0.0444 -0.3429
 5923W        W10123   5.475   4.608  11.850  0.2734  0.0720 -0.0414
 5924W        W10124   7.963   6.620  10.874  0.0460 -0.2281 -0.0912
 5925W        W10125   5.289   6.843  12.510 -0.1352 -0.1047  0.1020
 5926W        W10126   4.484   3.896   0.616 -0.3466 -0.0069 -0.2221
 5927W        W10127   9.779   4.815   2.292  0.2253  0.0748  0.0577
 5928W        W10128   4.290  10.419  13.131  0.0813  0.0052  0.1937
 5929W        W10129   0.399   5.169   3.720 -0.1416  0.1688  0.0398
 5930W        W10130   0.487   2.727   0.414  0.1337  0.2571 -0.1831
 5931W        W10131   9.691  10.116  13.143  0.0205 -0.0228 -0.0126
 5932W        W10132   5.443   0.742   2.031 -0.2302  0.1366  0.4385
 5933W        W10133   0.246   7.453  12.877  0.2046 -0.1122 -0.1176
 5934W        W10134   4.036   9.556   1.729  0.2436  0.0437 -0.1059
 5935W        W10135   3.121   8.130   2.502  0.0724  0.0127 -0.0274
 5936W        W10136   7.316   3.004  11.767 -0.1286  0.1865  0.1868
 5937W        W10137   4.041   2.817   0.615 -0.1561 -0.0091 -0.0653
 5938W        W10138   7.253   7.790   4.427 -0.0840 -0.0182  0.2478
 5939W        W10139   9.426   5.859   3.066 -0.1474  0.0915 -0.0619
 5940W        W10140  10.307   5.711  13.113 -0.5229  0.3231 -0.1639
 5941W        W10141   5.963   1.980   1.774  0.2757  0.0251  0.2221
 5942W        W10142   5.415   1.202   2.204  0.1127  0.2986 -0.1655
 5943W        W10143   6.610   1.148   0.841 -0.0326  0.0751  0.0955
 5944W        W10144  10.064   1.295   4.748 -0.2337  0.0409 -0.2480
 5945W        W10145   5.320   2.064   3.796 -0.0030 -0.1722 -0.0535
 5946W        W10146   9.356   8.355   2.700 -0.0637  0.2776  0.2139
 5947W        W10147  10.015   3.329   1.386 -0.1174  0.0079 -0.0771
 5948W        W10148   6.597   4.099   3.588 -0.1706 -0.1790 -0.0427
 5949W        W10149   9.845   5.641  10.366 -0.0259 -0.1503  0.2081
 5950W        W10150   7.439   4.242  12.729 -0.2006  0.3222  0.0007
 5951W        W10151   4.762  10.176  11.476  0.1335 -0.3609  0.3585
 5952W        W10152   4.108   6.197  13.267 -0.0134  0.0634 -0.2213
 5953W        W10153   6.941   9.667   2.819 -0.2068 -0.2564  0.0333
 5954W        W10154   3.439   6.993  13.291 -0.1123 -0.1198  0.1457
 5955W        W10155   1.624   4.518   3.363 -0.1478 -0.1985  0.2631
 5956W        W10156   9.791   7.558   9.424 -0.0363  0.1310  0.1970
 5957W        W10157   2.559   7.321   2.615  0.0703 -0.1916 -0.3013
 5958W        W10158   7.857   7.557   8.648 -0.1297  0.4016  0.1551
 5959W        W10159   2.359   5.841   0.655 -0.4492  0.2279 -0.1709
 5960W        W10160   3.274   3.107  11.982 -0.1011  0.0696 -0.0155
 5961W        W10161   6.223   1.556   2.650  0.2228 -0.0370 -0.1271
 5962W        W10162   3.629   4.678  12.253  0.1674  0.0189 -0.2977
 5963W        W10163   2.822   9.171  12.422  0.1326  0.0159 -0.0256
 5964W        W10164   7.766   3.346   3.546 -0.3295 -0.4746 -0.0106
 5965W        W10165   3.845   0.047  12.296 -0.1312  0.4452 -0.2843
 5966W        W10166   4.003   4.919  10.439  0.0313  0.1882  0.0843
 5967W        W10167   0.159   9.605   9.780  0.1345 -0.0965 -0.1418
 5968W        W10168   3.641   0.147   3.598  0.1024 -0.0623  0.0310
 5969W        W10169   0.752   9.197   0.577 -0.3002  0.3983  0.1361
 5970W        W10170   1.928   4.959   1.091  0.2602 -0.1419 -0.0948
 5971W        W10171   4.551   2.169  10.951 -0.2503  0.3897  0.0410
 5972W        W10172   2.038   3.246  12.267 -0.1336  0.0408  0.1075
 5973W        W10173   7.099   7.939  10.177 -0.2479  0.3005 -0.1430
 5974W        W10174   4.835   2.762  12.428  0.1860  0.2289 -0.3152
 5975W        W10175   4.144   3.358   5.355 -0.0540  0.4710  0.3300
 5976W        W10176   2.977   3.322   4.845  0.0262 -0.1512 -0.1619
 5977W        W10177   5.702   1.466   0.361  0.0204 -0.0050 -0.1378
 5978W        W10178   5.268   9.172   2.190  0.1417 -0.2221  0.4007
 5979W        W10179   8.136   0.135   9.775 -0.2451  0.0837  0.3685
 5980W        W10180   6.717   7.036  12.922 -0.0632 -0.0322 -0.0154
 5981W        W10181  10.270   1.033   3.452 -0.0545 -0.0009 -0.1714
 5982W        W10182   3.199   1.417   1.541 -0.3438  0.0185 -0.2638
 5983W        W10183  10.297   5.544   0.706  0.3510  0.0054 -0.1989
 5984W        W10184   8.210   5.059   2.796  0.2451  0.0745  0.0330
 5985W        W10185   6.598   8.823   1.381  0.1706 -0.1836 -0.2139
 5986W        W10186   5.486   0.080  11.577 -0.1448  0.0155 -0.0684
 5987W        W10187   6.809   4.761   2.919 -0.1299 -0.4111  0.0469
 5988W        W10188   1.455   4.957   2.482 -0.2424 -0.0199 -0.1807
 5989W        W10189   0.627   1.689   9.168 -0.5469 -0.3674 -0.0011
 5990W        W10190   2.582   8.303   0.489  0.0706 -0.0968 -0.1492
 5991W        W10191   5.927   5.019   1.098 -0.1921  0.2477 -0.0155
 5992W        W10192   4.230   9.219   2.604 -0.0191  0.0426  0.1731
 5993W        W10193   5.391   2.183  10.811  0.0144 -0.1741  0.0761
 5994W        W10194   1.076   6.038   0.192 -0.1280 -0.1315 -0.1496
 5995W        W10195   4.887   2.072   0.572  0.1834 -0.0612  0.2323
 5996W        W10196   0.605   7.767   0.401  0.1846  0.1607  0.3476
 5997W        W10197   2.085   1.691   2.642 -0.1929 -0.1296  0.0892
 5998W        W10198   4.490   4.940   9.772  0.0678 -0.1849 -0.0378
 5999W        W10199   9.099   5.438  13.247 -0.0100 -0.1533  0.0873
 6000W        W10200   2.687   5.042   2.330 -0.2375 -0.1659  0.2681
 6001W        W10201   6.345   9.788   4.583 -0.0700 -0.1067  0.0601
 6002W        W10202  10.299   4.012  11.840 -0.1499 -0.3100  0.1424
 6003W        W10203  10.422   6.563  11.923 -0.0673  0.1992 -0.0595
 6004W        W10204   9.553   2.970  12.450  0.0103 -0.1183 -0.1080
 6005W        W10205   9.520   3.564   3.083 -0.0441  0.0789  0.0258
 6006W        W10206   2.998   6.477   1.063 -0.1530 -0.1110  0.0352
 6007W        W10207   7.705   1.816  12.969 -0.2738 -0.1198 -0.2369
 6008W        W10208   3.441   7.626  11.750 -0.2123 -0.1244 -0.0888
 6009W        W10209   5.518   4.405   0.480 -0.3697  0.0249  0.0233
 6010W        W10210   0.675   4.501   9.959  0.1575 -0.0758  0.1159
 6011W        W10211   4.753   7.433  11.966  0.3747  0.2336  0.2634
 6012W        W10212   3.430   6.093   3.545  0.4241  0.0481  0.2818
 6013W        W10213   3.391   9.759  12.468  0.0814  0.1311 -0.1706
 6014W        W10214   3.532   6.475  10.074  0.2297  0.0857  0.0021
 6015W        W10215   0.770   5.918   1.396 -0.0059  0.0973  0.1716
 6016W        W10216   1.551   1.295   3.657 -0.0731  0.3138  0.0617
 6017W        W10217   3.403   2.933   8.376 -0.2510  0.4057  0.0355
 6018W        W10218   3.790   5.666   9.600 -0.1878  0.2902  0.1322
 6019W        W10219   1.616   4.069   3.143 -0.2043 -0.2027 -0.0316
 6020W        W10220   6.944   2.470   9.503  0.4588  0.1366 -0.4896
 6021W        W10221   7.450   6.001   4.807  0.2128  0.0457 -0.0813
 6022W        W10222   6.847   5.061   9.836  0.1527 -0.2108  0.3511
 6023W        W10223   5.234   8.456  10.007  0.4951 -0.0654 -0.2068
 6024W        W10224   1.822   2.105   4.567 -0.1885  0.1410 -0.1583
 6025W        W10225   9.364   5.601   2.243 -0.1202 -0.2285 -0.0478
 6026W        W10226   9.256   0.707   3.718  0.0241  0.0203  0.2966
 6027W        W10227   3.403   5.909   9.301  0.0924  0.0034 -0.0063
 6028W        W10228   5.052   5.181   0.617 -0.1614 -0.0902  0.1438
 6029W        W10229   2.142   7.321  12.838 -0.1318  0.0079 -0.1694
 6030W        W10230   8.617   0.442   0.421 -0.0615  0.0740  0.2499
 6031W        W10231   1.559   7.408   0.626  0.1304 -0.0917  0.0909
 6032W        W10232   9.858   4.907   5.549  0.1719 -0.0956 -0.0514
 6033W        W10233  10.386   8.552  11.453 -0.0527  0.1729  0.0689
 6034W        W10234   5.049   3.424  11.365  0.1424  0.0491 -0.0890
 6035W        W10235   9.326   5.563   1.194  0.0057 -0.3493 -0.2483
 6036W        W10236   6.608   7.854  10.113 -0.1354 -0.1710 -0.0771
 6037W        W10237   7.089   3.734   2.848  0.3703 -0.1443 -0.0138
 6038W        W10238   6.405   1.266  10.133  0.2125 -0.0443  0.1936
 6039W        W10239   5.612   0.875   1.231 -0.1238 -0.0740 -0.0415
 6040W        W10240   3.910   6.956  10.797  0.1368  0.2718 -0.0410
 6041W        W10241   2.736   3.895  10.373 -0.0049  0.0470  0.0177
 6042W        W10242   8.478   7.574   8.764  0.4076 -0.1390 -0.0359
 6043W        W10243   3.475   4.513   3.060 -0.2204  0.0298 -0.1313
 6044W        W10244   5.796   4.267  13.121 -0.2118 -0.0476 -0.3509
 6045W        W10245   0.117   8.440  13.020  0.2005 -0.6041 -0.0936
 6046W        W10246   5.649   3.101  10.121 -0.0664 -0.0713  0.0926
 6047W        W10247   5.649   1.813   3.487 -0.1781  0.1099  0.1391
 6048W        W10248   0.077   2.427  11.045  0.2439  0.1209 -0.1159
 6049W        W10249   5.942   2.774  10.237 -0.0093 -0.3035  0.0214
 6050W        W10250   5.903   5.412   4.496  0.2421 -0.0908 -0.1968
 6051W        W10251   3.404   7.127  10.328 -0.2554  0.1822  0.1479
 6052W        W10252  10.202   7.338   9.600 -0.3512  0.1456  0.3169
 6053W        W10253   2.354   5.371   2.549 -0.0664  0.0894 -0.1821
 6054W        W10254   7.908   0.266   0.735  0.1106  0.0898 -0.3400
 6055W        W10255   3.961   0.882  12.419  0.2757  0.3055  0.2181
 6056W        W10256   6.874   6.404   3.370  0.2761  0.0344 -0.0444
 6057W        W10257   5.495   1.262   0.730  0.1615 -0.1631 -0.2184
 6058W        W10258   7.520   3.989   4.580 -0.1147  0.0067 -0.1162
 6059W        W10259   0.458   0.135  10.856 -0.0236 -0.2106  0.0322
 6060W        W10260   4.694   0.993   9.923 -0.1989 -0.1161 -0.1260
 6061W        W10261   6.450   7.049   0.273 -0.2116  0.0315 -0.2049
 6062W        W10262   4.772   6.073   1.883  0.0628 -0.1576  0.1979
 6063W        W10263   9.289   7.756  10.929  0.1392 -0.0620 -0.1256
 6064W        W10264   2.864   8.264   4.367  0.2288 -0.0872  0.0529
 6065W        W10265   1.982   5.014   1.641 -0.1614 -0.3963  0.0567
 6066W        W10266   0.271   4.039  12.257  0.0973  0.0515  0.0322
 6067W        W10267   0.301   5.654  13.336  0.1994  0.2734 -0.0326
 6068W        W10268   8.371   3.971   1.197  0.1082  0.1411  0.0520
 6069W        W10269   0.124   1.333   1.465  0.1730  0.0756  0.1457
 6070W        W10270   2.366   2.951   1.848  0.0884 -0.3056  0.3159
 6071W        W10271   7.144   3.525  10.907  0.0849 -0.3798  0.0616
 6072W        W10272   6.101   1.662  10.884 -0.0628 -0.2389 -0.0367
 6073W        W10273   8.662   9.726   9.146 -0.0936 -0.0628 -0.0012
 6074W        W10274   7.502   0.872   1.949  0.0407  0.1796 -0.1295
 6075W        W10275   0.642   7.125   3.782  0.0276  0.2448  0.0997
 6076W        W10276   3.449   1.544  11.905  0.3096 -0.0847 -0.1150
 6077W        W10277   8.347   3.621   2.572  0.2289 -0.3211 -0.1342
 6078W        W10278  10.321   2.899   4.640 -0.0283 -0.0532 -0.0602
 6079W        W10279   1.884   9.523  11.963  0.1025  0.2296 -0.0471
 6080W        W10280   9.880   2.044   2.547 -0.1919 -0.1194  0.0487
 6081W        W10281   7.658   5.732   1.663  0.1601  0.1084  0.0878
 6082W        W10282   9.480   0.324   0.366  0.1551  0.0612  0.1677
 6083W        W10283   7.829   2.617   0.838  0.0036 -0.1721 -0.2410
 6084W        W10284   0.395  10.021  13.009  0.0784  0.1903  0.3525
 6085W        W10285   6.667   4.352   3.154 -0.0088  0.0244 -0.0000
 6086W        W10286   4.078   7.316   1.170 -0.1697 -0.1603  0.0242
 6087W        W10287   3.165   4.506  12.508 -0.0006 -0.0214  0.0160
 6088W        W10288   2.811  10.400   3.263 -0.2982 -0.3762 -0.2505
 6089W        W10289   2.218   6.379  12.772  0.3510  0.0352 -0.3070
 6090W        W10290   4.799   7.083  10.095 -0.2005 -0.2796 -0.1201
 6091W        W10291   9.195  10.248   2.981 -0.2609  0.0531  0.2270
 6092W        W10292   1.935   3.924  11.432  0.1103 -0.3943 -0.0646
 6093W        W10293  10.335   1.973  10.211  0.1733 -0.0123  0.0295
 6094W        W10294   1.855   0.155   1.890  0.0652 -0.1296 -0.0758
 6095W        W10295   7.251   8.007   1.326  0.2181 -0.3281 -0.1199
 6096W        W10296   3.036   7.467  10.282 -0.0075  0.0315 -0.1386
 6097W        W10297   6.053   4.945   4.418 -0.0008 -0.0590 -0.3948
 6098W        W10298   5.044   8.856   1.395  0.1478 -0.0303 -0.0374
 6099W        W10299   6.440   0.756   8.797  0.1487 -0.1371  0.0111
 6100W        W10300   8.549   2.230   3.656  0.0800  0.0316 -0.0527
 6101W        W10301   6.128   5.880   9.697  0.0241  0.2700 -0.1338
 6102W        W10302   9.114   1.488  12.741  0.0894 -0.3107  0.0449
 6103W        W10303   4.362   2.784  11.057 -0.3015  0.1034 -0.2140
 6104W        W10304   9.676   3.562  10.003  0.0705 -0.1414  0.1540
 6105W        W10305   7.834   3.247   0.948 -0.0634  0.1730 -0.0848
 6106W        W10306  10.405   0.131   3.457 -0.2140 -0.0060  0.1064
 6107W        W10307   1.056   9.232  10.159  0.1640 -0.0598  0.0480
 6108W        W10308   7.480   8.028   5.147 -0.0015 -0.1350  0.1707
 6109W        W10309   9.516   2.230  11.582  0.0362  0.0724 -0.0533
 6110W        W10310   2.557   3.557  12.350  0.2009 -0.0843 -0.2547
 6111W        W10311   6.955   0.993   1.255  0.2676  0.0416  0.1266
 6112W        W10312   4.616   0.661   0.876 -0.1281  0.1306 -0.1829
 6113W        W10313   4.096   8.275  11.395  0.5927  0.0497  0.0419
 6114W        W10314   8.596   8.973   0.030  0.0093  0.0041  0.0119
 6115W        W10315   9.154   2.036   0.735  0.1510 -0.1248 -0.5763
 6116W        W10316   0.355   7.254   4.191  0.2721  0.2356 -0.1531
 6117W        W10317   3.513   2.028   2.647  0.1502 -0.0614  0.0501
 6118W        W10318   4.605   9.532   2.693 -0.4054 -0.1607 -0.3858
 6119W        W10319   5.836   1.226  10.995  0.0639 -0.0288 -0.1846
 6120W        W10320   0.256   4.619  10.675  0.0946 -0.1153 -0.3852
 6121W        W10321   8.778   7.280   2.299 -0.3905 -0.3388 -0.0156
 6122W        W10322   6.935   4.953  13.129  0.1708  0.0068 -0.0495
 6123W        W10323   0.913   8.091   1.813 -0.3373  0.2988  0.0451
 6124W        W10324   1.336   7.952   2.134  0.1402  0.4265  0.2256
 6125W        W10325   5.103   0.478   0.453  0.1075  0.2508  0.0285
 6126W        W10326   3.101   9.722   3.161  0.0002 -0.0979 -0.2985
 6127W        W10327   8.575   3.792   9.297 -0.2469  0.2752  0.1721
 6128W        W10328   9.362   2.451   3.318  0.3649  0.1879  0.0820
 6129W        W10329   2.395   4.286   1.678 -0.1394  0.2775 -0.2951
 6130W        W10330   0.439   2.112   2.552  0.3146  0.3650 -0.1180
 6131W        W10331   8.118   7.985   2.380  0.2217 -0.0898  0.1852
 6132W        W10332   0.005   2.100  10.635  0.2722 -0.2163  0.0975
 6133W        W10333   7.359   2.547   9.882 -0.0227  0.2437  0.1917
 6134W        W10334   7.480   2.216   2.739 -0.0853 -0.2629 -0.0376
 6135W        W10335  10.309   3.328  12.238  0.0614 -0.0018  0.3449
 6136W        W10336   3.685   1.645   1.555 -0.0418 -0.1568 -0.0964
 6137W        W10337   4.899   3.982  12.974 -0.0960 -0.0341  0.0487
 6138W        W10338   8.933   0.307   4.060  0.1390 -0.0918 -0.2760
 6139W        W10339   6.730   9.923  13.046  0.1603  0.0148  0.4520
 6140W        W10340   4.981   9.796   9.964 -0.2575 -0.0343 -0.1957
 6141W        W10341   8.140   6.782   1.456 -0.0186  0.0239 -0.0748
 6142W        W10342   2.972   7.495  11.602  0.3246  0.0384  0.3303
 6143W        W10343   3.208   2.968   9.774 -0.4905 -0.1711 -0.3466
 6144W        W10344   8.196  10.380  10.900 -0.0707 -0.0522  0.0983
 6145W        W10345   2.868   7.383   0.567  0.0189 -0.0480 -0.0038
 6146W        W10346   1.351   6.000   3.345 -0.1794  0.1504 -0.1354
 6147W        W10347   3.063   3.967  10.841  0.2202 -0.1665 -0.0435
 6148W        W10348   5.366   5.473   3.871 -0.0224  0.0825  0.0311
 6149W        W10349   9.246   6.969   0.250 -0.2897  0.0310  0.1393
 6150W        W10350  10.401   9.246   9.340  0.0958 -0.5416  0.0622
 6151W        W10351   9.427   6.653  12.984  0.3380 -0.1463  0.0474
 6152W        W10352   6.318   7.798   1.662 -0.0067  0.0388  0.2662
 6153W        W10353   3.344   6.013  13.095  0.0023 -0.0311 -0.4589
 6154W        W10354   3.600   0.977   2.380 -0.0222  0.5059  0.0757
 6155W        W10355   8.659   4.906   2.531 -0.1829  0.0875 -0.0961
 6156W        W10356   2.815   7.083   1.798  0.1144 -0.1359 -0.0143
 6157W        W10357   3.104   1.430   0.019  0.0082 -0.2502 -0.3718
 6158W        W10358   0.695   7.413   0.063 -0.1788  0.0392  0.1713
 6159W        W10359   9.002   3.283   3.821 -0.1177  0.0017 -0.1907
 6160W        W10360   7.696   6.148   3.756 -0.0322  0.1636 -0.0186
 6161W        W10361   5.058   1.554   0.873 -0.0981 -0.1873 -0.0752
 6162W        W10362   2.914   1.418  12.055  0.1217  0.0362  0.2830
 6163W        W10363   7.298   1.812   1.366 -0.1596  0.0948 -0.1452
 6164W        W10364  10.169   0.432   3.742  0.2237 -0.2547 -0.0738
 6165W        W10365   4.769   3.395   1.634  0.4182  0.1535  0.1340
 6166W        W10366   1.673   1.925   5.038  0.2986 -0.0807  0.3840
 6167W        W10367   7.246   5.177   2.220  0.0030  0.0788  0.1508
 6168W        W10368   1.960   5.046  11.899 -0.0335  0.1983  0.0327
 6169W        W10369   5.124   1.711   2.230  0.0940  0.1670  0.1364
 6170W        W10370   1.062   9.241   1.128 -0.5168 -0.0091 -0.1815
 6171W        W10371   7.968   2.355   5.114  0.0914  0.3429 -0.0454
 6172W        W10372   0.334   2.337  13.243  0.0684  0.0704 -0.0028
 6173W        W10373  10.005   6.716   0.890  0.0031 -0.1961  0.0356
 6174W        W10374   0.960   8.370  11.544 -0.2934  0.1687  0.0929
 6175W        W10375   1.572   0.437  12.868 -0.3735 -0.3187 -0.0809
 6176W        W10376   9.399   2.277   2.656  0.3558  0.0241  0.1239
 6177W        W10377   6.640   9.548  11.639  0.0610  0.3978 -0.1622
 6178W        W10378   4.937   4.359  12.503 -0.2441  0.2862  0.2162
 6179W        W10379   0.177   5.191  10.476  0.1310  0.0176 -0.3015
 6180W        W10380   7.732   7.299   0.041  0.0300 -0.3322  0.0295
 6181W        W10381   3.060   5.416   0.392  0.1740  0.2434 -0.0056
 6182W        W10382   5.053   3.196  12.571  0.2329 -0.0214  0.1602
 6183W        W10383   7.195   7.074  12.032 -0.1085 -0.0305  0.0030
 6184W        W10384   1.061   3.131  10.209 -0.0275 -0.1574 -0.3158
 6185W        W10385   2.194   2.370   1.045 -0.1429  0.2783  0.0020
 6186W        W10386   8.336   3.655   4.714 -0.1005 -0.2840  0.2357
 6187W        W10387   8.250   8.838  11.228 -0.3153 -0.1128  0.1580
 6188W        W10388   4.834   6.661   2.471  0.1370  0.0804  0.1329
 6189W        W10389   2.093   2.745  12.067  0.1396  0.0790 -0.0396
 6190W        W10390   0.062   0.074  10.578  0.1475  0.3177 -0.0309
 6191W        W10391   5.445   7.938  10.935 -0.0983 -0.1588  0.0620
 6192W        W10392   1.311   7.503  11.130 -0.1162  0.0714 -0.0789
 6193W        W10393   5.557   3.149   1.082  0.0536 -0.1112 -0.6075
 6194W        W10394   6.357   0.380  13.200 -0.1293  0.5682 -0.0403
 6195W        W10395   2.068   3.450  11.399 -0.1929  0.2159  0.0668
 6196W        W10396   3.393   0.050   2.115 -0.0826 -0.0874 -0.0850
 6197W        W10397   5.245   1.444   1.803 -0.0157  0.0776 -0.0677
 6198W        W10398   4.044  10.384   3.753 -0.0993  0.2362  0.3445
 6199W        W10399   2.921   7.618   0.974 -0.0821 -0.0325  0.0407
 6200W        W10400   2.444   0.499   3.130  0.1504 -0.0693 -0.4135
 6201W        W10401   9.973   5.428   0.293  0.0636  0.0271 -0.0714
 6202W        W10402   0.922   0.672  11.132  0.3157 -0.1958  0.1989
 6203W        W10403   8.499   2.783   2.816  0.1027 -0.0552 -0.0021
 6204W        W10404   4.023  10.461  10.654 -0.0746 -0.3198 -0.1690
 6205W        W10405   1.993   3.875  12.894 -0.1235  0.3229 -0.3304
 6206W        W10406   3.435   3.095  11.433  0.2696  0.0016  0.1552
 6207W        W10407   9.424   2.800   1.019  0.1998  0.2717 -0.0418
 6208W        W10408   8.521   5.160  10.263  0.1483 -0.0105 -0.1063
 6209W        W10409   6.921   0.131  10.877 -0.0810 -0.3990  0.1651
 6210W        W10410   2.824   6.931   9.712 -0.3668  0.0887  0.1444
 6211W        W10411   1.206   6.425  12.938  0.1753  0.1974 -0.1870
 6212W        W10412   8.056   1.353  12.414  0.0641  0.0836  0.0921
 6213W        W10413   5.888   8.398   8.431  0.1045 -0.0499  0.0700
 6214W        W10414   4.198   8.529   1.964  0.0810  0.1771  0.2767
 6215W        W10415   8.904   8.185   4.003 -0.0576  0.1182 -0.0621
 6216W        W10416   6.676   6.514   0.359  0.1577 -0.1188  0.1136
 6217W        W10417   0.794   5.589  10.399 -0.0025  0.3088  0.0976
 6218W        W10418   4.474   3.278   2.632  0.0344  0.3799  0.1302
 6219W        W10419   1.651   7.627  12.440 -0.2425 -0.0694 -0.1650
 6220W        W10420   3.095   3.456  11.661 -0.0325 -0.1912 -0.0475
 6221W        W10421   7.550   7.348   4.411  0.0074 -0.0484  0.0660
 6222W        W10422   6.929   4.161   9.999 -0.3706  0.0852 -0.3031
 6223W        W10423   8.365   4.180   9.949  0.0458 -0.1462 -0.0291
 6224W        W10424   6.610   2.015   1.014  0.1673 -0.2419  0.1393
 6225W        W10425   0.370   6.858   9.137  0.1546  0.0411 -0.2449
 6226W        W10426   7.643   4.539  10.044 -0.1417 -0.0918 -0.4509
 6227W        W10427   7.394   7.515   5.264  0.0901 -0.0986 -0.2361
 6228W        W10428   2.574   6.665  10.057 -0.2267 -0.0227  0.1961
 6229W        W10429   2.373   9.828  12.194  0.0053  0.0752  0.1436
 6230W        W10430   2.537   3.894   4.063 -0.2190  0.1582 -0.1698
 6231W        W10431   1.944   7.155   9.714 -0.1044 -0.0613 -0.3176
 6232W        W10432   1.726   1.303   1.376  0.1467  0.0041  0.1980
 6233W        W10433   5.387   6.655  12.946 -0.1617 -0.0847  0.1139
 6234W        W10434   7.619   1.921   0.321  0.2897 -0.2535  0.4589
 6235W        W10435   8.059  10.239   0.490 -0.1780 -0.0866  0.0278
 6236W        W10436   4.247   9.601  10.800 -0.0521 -0.0109  0.0241
 6237W        W10437   4.222   5.296  11.818  0.3787 -0.1521 -0.0208
 6238W        W10438   5.622   9.100  12.955  0.2450 -0.1111 -0.2319
 6239W        W10439   4.056   8.023   3.673 -0.2589  0.3906 -0.2345
 6240W        W10440   5.237   4.174   2.965  0.1131 -0.1390 -0.0647
 6241W        W10441   8.156   8.854   4.311 -0.0210 -0.0100  0.0190
 6242W        W10442   5.174   4.664   0.769 -0.0903  0.3375 -0.0405
 6243W        W10443   5.080   2.289   1.383 -0.1588  0.0012 -0.0831
 6244W        W10444   6.226   5.241  13.327 -0.0719 -0.1530  0.1668
 6245W        W10445   0.306   8.496   3.870 -0.1630 -0.0234 -0.0896
 6246W        W10446   4.399   8.883  10.348 -0.0824 -0.3402 -0.2353
 6247W        W10447   7.732   2.784   9.038  0.2152  0.2110  0.1672
 6248W        W10448   5.486   7.321   2.630 -0.1250  0.0803 -0.1720
 6249W        W10449   5.075   6.872  13.283 -0.1747 -0.2136 -0.1197
 6250W        W10450   1.001   5.911   9.164  0.2071 -0.0316 -0.2110
 6251W        W10451   5.549   8.138   3.117  0.1808 -0.0431  0.0685
 6252W        W10452   5.876   7.474  12.528 -0.0725  0.4752 -0.1501
 6253W        W10453   1.872   1.761   0.637 -0.2354 -0.5150  0.4055
 6254W        W10454   4.668   5.430  11.632  0.0318 -0.0225  0.0246
 6255W        W10455   1.503  10.322   3.848  0.0226  0.0200  0.1314
 6256W        W10456   2.571  10.383   3.805 -0.0073 -0.0195 -0.0787
 6257W        W10457   9.641   5.295  10.737  0.2493 -0.0487  0.1630
 6258W        W10458   5.118   8.407  10.575 -0.0804  0.0039  0.1289
 6259W        W10459   9.275   9.916   9.628 -0.1292 -0.0667 -0.1224
 6260W        W10460   4.376   1.988   2.883  0.0054  0.1358 -0.2632
 6261W        W10461   9.156   5.233  11.118 -0.1029 -0.3963  0.0679
 6262W        W10462   9.031   8.171  10.794 -0.3248  0.2685 -0.1274
 6263W        W10463   2.624  10.277   0.744  0.0336 -0.0221 -0.2143
 6264W        W10464  10.461   6.442   0.974 -0.0111 -0.1618  0.1347
 6265W        W10465   1.623   0.616   9.504  0.1114  0.2157 -0.0491
 6266W        W10466   4.636   4.258  10.896  0.1223  0.2420 -0.2302
 6267W        W10467   6.494   1.626  10.525  0.0390  0.1761  0.0404
 6268W        W10468   7.987   8.568  12.650  0.0243 -0.0460 -0.0808
 6269W        W10469   1.794   1.134  10.170 -0.1214  0.1824  0.0513
 6270W        W10470   8.617   1.998   3.198 -0.1022 -0.0171  0.0028
 6271W        W10471   0.761   1.933   3.724 -0.1322 -0.0813  0.0263
 6272W        W10472   6.970   2.246   1.367  0.1530 -0.0412  0.0483
 6273W        W10473   6.460   0.848  11.440  0.0049  0.1725  0.0168
 6274W        W10474  10.414   7.147  10.014 -0.2767 -0.0057 -0.1674
 6275W        W10475   8.552   6.369   3.120 -0.0485  0.1304  0.0457
 6276W        W10476   9.136   4.586  13.325 -0.1129  0.0077  0.1814
 6277W        W10477   9.958   4.909  10.007 -0.3579 -0.1615 -0.0824
 6278W        W10478   1.973  10.147   2.100  0.1557 -0.2481  0.0659
 6279W        W10479   8.011   4.936   0.571  0.2303 -0.1736 -0.1465
 6280W        W10480   1.797   9.476  11.020 -0.1641 -0.1067  0.2766
 6281W        W10481   6.223   8.240  11.398 -0.0504 -0.1738 -0.0807
 6282W        W10482   2.145   6.387   3.569 -0.0961 -0.2555 -0.0313
 6283W        W10483   1.779   0.844  11.436 -0.1926  0.4734 -0.1661
 6284W        W10484   5.178   8.182   2.208 -0.1891  0.1580 -0.0922
 6285W        W10485   7.823   7.833   3.540 -0.0169 -0.1841 -0.3824
 6286W        W10486   3.393   5.367   3.329  0.0151  0.0644 -0.3070
 6287W        W10487   1.707   6.887   1.993  0.1353  0.0290  0.0059
 6288W        W10488   8.001   2.040   2.649  0.0180 -0.0083  0.1481
 6289W        W10489   7.318   5.071   3.602  0.0429  0.0182 -0.1285
 6290W        W10490   7.253   8.087   2.716  0.0908 -0.1924 -0.2107
 6291W        W10491   5.721   1.223   3.899 -0.1064  0.0869 -0.0366
 6292W        W10492   8.852   8.674  10.903 -0.0242 -0.0354 -0.0804
 6293W        W10493   1.934  10.282  10.511  0.1016 -0.3194  0.0341
 6294W        W10494   0.473   5.519   2.698 -0.2139  0.0046  0.2297
 6295W        W10495   4.456   3.873  12.704 -0.3179 -0.1447  0.1586
 6296W        W10496   6.727  10.054   9.521  0.2749  0.0545 -0.0376
 6297W        W10497   5.378   3.620   9.450 -0.0995  0.0925  0.0559
 6298W        W10498   0.849   1.916   4.669  0.0494  0.0098  0.0395
 6299W        W10499   1.313   2.893   0.683 -0.1116 -0.0329 -0.0828
 6300W        W10500   0.417  10.495  12.057 -0.4841 -0.0187 -0.1828
 6301W        W10501   1.297   5.086  11.084  0.0734 -0.1136  0.1457
 6302W        W10502   3.514   3.091   0.738 -0.2926  0.4664 -0.1791
 6303W        W10503   3.559   3.176   0.220 -0.2816  0.2697 -0.1143
 6304W        W10504   7.717   2.032   3.623 -0.0222  0.1731 -0.3955
 6305W        W10505   9.743   9.538  11.890  0.3314 -0.2551  0.2163
 6306W        W10506   6.744   3.065  11.999  0.4509 -0.4586  0.2243
 6307W        W10507   0.368   6.787   1.770  0.1182  0.1093 -0.0822
 6308W        W10508   8.351   4.443   4.019  0.1395  0.0759 -0.1227
 6309W        W10509   8.831   6.283   3.543 -0.1543 -0.1851 -0.1546
 6310W        W10510   1.722   0.141  10.252 -0.0177  0.0786 -0.2599
 6311W        W10511   0.944   2.396   5.099 -0.1416 -0.1335 -0.0149
 6312W        W10512   9.797   0.691   0.401  0.0485 -0.1000 -0.2418
 6313W        W10513   0.969   4.700  11.590 -0.0164 -0.1807 -0.1512
 6314W        W10514  10.180   2.554   3.142  0.3721 -0.1475  0.1082
 6315W        W10515   7.801   9.069  10.145 -0.1467 -0.0793 -0.0596
 6316W        W10516   5.751   7.584   0.385  0.2593 -0.0789 -0.1250
 6317W        W10517   8.830   3.096   3.129  0.3247 -0.1058 -0.4415
 6318W        W10518   1.119   2.519   9.857  0.0924  0.1417 -0.0763
 6319W        W10519   5.521   6.872   9.793  0.0514 -0.3503 -0.2040
 6320W        W10520   3.668   9.205   2.334 -0.1656  0.0274  0.0473
 6321W        W10521   2.966   4.091   4.408  0.0385 -0.0323 -0.1748
 6322W        W10522   6.569   5.738   0.979 -0.1224  0.3621  0.5239
 6323W        W10523   6.234   3.012  12.161  0.2490  0.2203  0.3342
 6324W        W10524   6.378   2.819  12.575  0.0771 -0.0522  0.1376
 6325W        W10525   9.081   1.929   8.429 -0.2363 -0.0403  0.0764
 6326W        W10526   2.669   2.687   2.892 -0.1021 -0.0853  0.1419
 6327W        W10527   4.002   1.989   3.194  0.1161  0.3929 -0.1356
 6328W        W10528   3.659   1.292  12.359  0.1945  0.2646 -0.2351
 6329W        W10529   3.220   4.984   1.944  0.0332 -0.0259  0.2548
 6330W        W10530   7.917   7.674   4.398 -0.1864  0.2609  0.1743
 6331W        W10531   6.265   2.862   4.220 -0.2047  0.0979  0.1878
 6332W        W10532   5.649   5.087  13.223  0.0168 -0.0149  0.1505
 6333W        W10533   1.731   1.808   3.684 -0.0580  0.0472 -0.0678
 6334W        W10534   8.840   1.379   4.027 -0.0157 -0.0130 -0.1121
 6335W        W10535   3.147   0.408   0.550  0.0718  0.1727 -0.4167
 6336W        W10536   1.643   1.251  11.041  0.0298 -0.0707  0.1390
 6337W        W10537   3.977   2.945   4.854  0.0461  0.1294  0.1421
 6338W        W10538   2.952   7.579  12.125 -0.3395 -0.2813 -0.1268
 6339W        W10539   6.099   0.560  11.625  0.0471 -0.1207  0.3017
 6340W        W10540   5.644   9.845  10.561 -0.1793 -0.0065  0.2152
 6341W        W10541   1.288   3.299   1.553 -0.0445  0.0932  0.1917
 6342W        W10542   3.322   1.942   1.391 -0.0427  0.4360 -0.0761
 6343W        W10543   4.994   3.622   9.879  0.0966  0.0450  0.1017
 6344W        W10544   6.991   2.959   2.125 -0.1336 -0.1033  0.1376
 6345W        W10545   7.241   7.689  13.370 -0.2111 -0.0665  0.2010
 6346W        W10546   0.071   8.555   0.814 -0.3639 -0.0769  0.0607
 6347W        W10547   3.295   6.635   0.229  0.0051  0.2833 -0.0509
 6348W        W10548   7.132   6.652   2.953 -0.2724  0.0232  0.0338
 6349W        W10549   2.517   6.179   5.500  0.2862 -0.1039  0.0775
 6350W        W10550   8.236   7.440   8.329  0.1486  0.0515 -0.3580
 6351W        W10551   1.089   7.221   3.745 -0.1244  0.3651 -0.0139
 6352W        W10552   3.757   5.338  11.708 -0.1978  0.1898  0.3397
 6353W        W10553   2.042   1.825   3.206 -0.1787 -0.0820  0.1416
 6354W        W10554   7.436   3.850   8.590 -0.0377  0.3089  0.2325
 6355W        W10555   5.934   5.398   2.370  0.1698  0.3447  0.5868
 6356W        W10556   4.838   7.096   4.044 -0.1267 -0.2818  0.1590
 6357W        W10557   1.831   8.014  12.140  0.1818 -0.0716  0.0444
 6358W        W10558   1.463   5.293   0.972  0.0730  0.0732  0.2025
 6359W        W10559   6.504   4.765  12.971 -0.1378 -0.1215  0.3880
 6360W        W10560   9.237   4.886   2.519 -0.1456  0.1430 -0.0662
 6361W        W10561   7.898  10.247   9.961  0.1773  0.1021 -0.1809
 6362W        W10562   8.533   6.663   3.570  0.1409  0.0310 -0.0773
 6363W        W10563   7.254  10.110   9.366 -0.0132  0.1253 -0.0453
 6364W        W10564   5.795  10.176  12.818  0.1512 -0.1700 -0.0143
 6365W        W10565   9.016   9.842  10.136 -0.0915  0.2606 -0.1695
 6366W        W10566  10.083   3.840   1.372  0.2980  0.0346  0.0999
 6367W        W10567   8.757  10.186  12.907  0.1840 -0.1394 -0.0568
 6368W        W10568   5.334   8.470   0.261  0.0305 -0.1025 -0.0793
 6369W        W10569  10.165   4.381   4.051  0.1446  0.0896  0.2149
 6370W        W10570   2.298   8.982   9.725 -0.1742 -0.0144 -0.3195
 6371W        W10571   3.041  10.060   0.896  0.0929 -0.1027  0.0079
 6372W        W10572   0.032   7.171   1.982 -0.1861 -0.2853 -0.0634
 6373W        W10573   9.809   8.457  11.430  0.1259 -0.1664 -0.0243
 6374W        W10574   7.988   1.630   0.780 -0.3910 -0.4011 -0.3415
 6375W        W10575   8.045   9.760  11.808  0.0953 -0.3504  0.2288
 6376W        W10576   2.503   6.828  11.578 -0.0011 -0.1772  0.0698
 6377W        W10577   2.482   1.400  12.838  0.1224  0.0117  0.1970
 6378W        W10578   6.733   0.608  10.696  0.2779  0.1004  0.2582
 6379W        W10579   9.975   0.174  11.919 -0.1304 -0.1795  0.1731
 6380W        W10580   9.157   2.432   0.367  0.3629 -0.2839 -0.0120
 6381W        W10581   7.314   4.746  11.436  0.0318  0.4025  0.0144
 6382W        W10582   2.833   2.019   4.386 -0.0727  0.0232  0.1149
 6383W        W10583  10.448   0.299  12.944  0.0642 -0.1452 -0.0185
 6384W        W10584   1.924   0.636  10.976  0.0318  0.3309 -0.0180
 6385W        W10585   7.448   3.199   1.988 -0.2616  0.2629 -0.0155
 6386W        W10586   7.574   2.995  10.487  0.0937 -0.0944  0.1849
 6387W        W10587   2.400   8.808  10.492 -0.0480 -0.0165 -0.1225
 6388W        W10588   3.231   5.894  10.741  0.0411 -0.0228 -0.1010
 6389W        W10589   9.287   0.552   9.511  0.2592  0.2355  0.4390
 6390W        W10590   2.235   5.003   3.837 -0.0459  0.1728 -0.1150
 6391W        W10591   0.967   2.882   0.251 -0.2165  0.3454 -0.0227
 6392W        W10592   6.020   5.942   1.755  0.1160 -0.0546 -0.1420
 6393W        W10593   9.364   1.133   2.711 -0.2136 -0.0343 -0.3338
 6394W        W10594   1.055   6.221  10.307  0.2825 -0.0838  0.0092
 6395W        W10595  10.455   5.959   0.919  0.2111 -0.0469 -0.2325
 6396W        W10596   0.626   1.404   1.341  0.1831 -0.0026 -0.0072
 6397W        W10597   6.354   6.523  11.763 -0.1802 -0.2107  0.0223
 6398W        W10598   0.061   0.228  11.121 -0.0137 -0.1028 -0.0852
 6399W        W10599   6.303   5.621  11.581 -0.2679 -0.0183  0.2274
 6400W        W10600   2.986   8.497   2.093  0.1360  0.1357 -0.1087
 6401W        W10601   1.508   1.458  10.583  0.0585  0.0833 -0.3721
 6402W        W10602   1.344   0.912   2.701 -0.5521  0.0983 -0.2539
 6403W        W10603   9.889  10.361  11.245 -0.0021  0.0015 -0.0207
 6404W        W10604  10.052   9.320  13.063  0.1482 -0.0881 -0.2596
 6405W        W10605   4.970   1.785  12.570  0.3182  0.0993  0.0150
 6406W        W10606   9.047   3.942   2.960 -0.0445 -0.1266 -0.0250
 6407W        W10607   9.159   0.198  12.305 -0.3514 -0.3093  0.0924
 6408W        W10608   2.179   7.034   3.386  0.2833  0.1558  0.0063
 6409W        W10609   1.526   3.206   0.057  0.0900 -0.0168 -0.1413
 6410W        W10610   9.067   8.694   0.849  0.1840  0.1664  0.1114
 6411W        W10611   9.187   7.435   9.742  0.3205  0.0958 -0.0889
 6412W        W10612   2.888   2.103  12.078 -0.0552 -0.0877 -0.0765
 6413W        W10613   4.346  10.476   3.326  0.1294 -0.2528 -0.2322
 6414W        W10614   8.517   1.626   4.295 -0.2442 -0.0288  0.1444
 6415W        W10615   6.269   6.560  10.491 -0.1596  0.1411  0.2840
 6416W        W10616   9.953   9.640   0.644 -0.3934 -0.3265  0.0461
 6417W        W10617   8.532   3.690   4.148  0.0269  0.0174  0.0187
 6418W        W10618   9.422   8.657  13.311 -0.0975 -0.1438  0.1055
 6419W        W10619   3.112   5.465  12.444 -0.0319  0.0126  0.0653
 6420W        W10620   9.475   2.406  11.107 -0.1230  0.1925  0.2022
 6421W        W10621   5.569   5.973  12.227 -0.3296  0.0681  0.0329
 6422W        W10622   5.191   0.748   4.314 -0.1364  0.2612  0.0112
 6423W        W10623   7.680   5.944   1.226  0.0638 -0.0970  0.1233
 6424W        W10624   7.547   5.039   0.990 -0.1248 -0.1343  0.2030
 6425W        W10625  10.444   4.003  10.070  0.1262  0.3514  0.1440
 6426W        W10626   2.500   1.282   0.805 -0.0712  0.2078  0.0001
 6427W        W10627   6.392   4.867  12.379 -0.0670 -0.2686  0.1104
 6428W        W10628   1.846   4.325  10.950  0.0921  0.0840  0.2731
 6429W        W10629   0.557   4.394   1.498  0.2590  0.0998 -0.3306
 6430W        W10630   4.454   2.469  12.292 -0.0747  0.1447  0.0729
 6431W        W10631   4.517   0.945   9.431  0.0202 -0.1795  0.0789
 6432W        W10632   3.872   8.100   2.130  0.0659 -0.1001 -0.1812
 6433W        W10633   4.828   4.514   9.661  0.1799 -0.1471 -0.0725
 6434W        W10634   0.178   9.331   3.207  0.3298 -0.1393  0.2729
 6435W        W10635   5.185   5.044   3.355  0.0776 -0.1338 -0.0809
 6436W        W10636   2.832   6.719   4.442 -0.0618  0.0001 -0.1663
 6437W        W10637   6.964   1.579  11.621  0.3357 -0.2964  0.1536
 6438W        W10638   9.094   7.745  12.211  0.2708  0.1920  0.0062
 6439W        W10639   6.513   8.092   1.015 -0.3648 -0.1215 -0.3293
 6440W        W10640   3.400   5.318  12.052  0.3146  0.2498 -0.2600
 6441W        W10641   0.929   9.815   1.097 -0.0837 -0.0834 -0.1342
 6442W        W10642   3.688   3.621  10.595  0.0074  0.1597 -0.0671
 6443W        W10643   6.901   8.630  11.153 -0.0222 -0.1398 -0.0184
 6444W        W10644   6.242   8.947  10.708  0.2031 -0.4291  0.1460
 6445W        W10645   9.028   1.963   2.386 -0.3144  0.1258 -0.2438
 6446W        W10646   9.862   3.186   9.409  0.0707  0.1902 -0.0260
 6447W        W10647   0.425   2.307   2.067 -0.1416  0.3550 -0.1118
 6448W        W10648   2.866   1.695  12.980 -0.0028 -0.4237 -0.1699
 6449W        W10649   4.410   4.516   0.282  0.2918  0.0564 -0.1320
 6450W        W10650   2.355   5.399  11.771  0.0919  0.4689  0.1189
 6451W        W10651   7.244   0.449  10.557 -0.1909 -0.3114  0.1400
 6452W        W10652   2.044   0.414  11.947  0.2186  0.2150  0.2315
 6453W        W10653  10.028   8.189   2.126  0.0183  0.2599  0.0285
 6454W        W10654   8.992   7.995   2.816 -0.0470 -0.3713  0.2297
 6455W        W10655   4.263   8.294   8.917 -0.1559 -0.1401  0.2119
 6456W        W10656   7.683   0.389   2.746  0.0258  0.0557  0.0413
 6457W        W10657   5.112   6.457   2.129  0.2032 -0.0542  0.0953
 6458W        W10658   9.882   1.633   5.058  0.1789  0.0355 -0.1273
 6459W        W10659   8.672   5.035  11.493  0.1834  0.0704 -0.0111
 6460W        W10660   8.627   0.384   2.546 -0.1672  0.1255  0.1255
 6461W        W10661   7.397   7.770   9.823 -0.0765  0.1068  0.1712
 6462W        W10662   4.443   7.656   5.257  0.1030 -0.5246 -0.0227
 6463W        W10663   7.488   6.452  11.030 -0.0738  0.0276  0.2674
 6464W        W10664   1.503   5.012   3.037 -0.0081  0.0921  0.2603
 6465W        W10665   9.831   9.105   0.536 -0.0370 -0.1349 -0.5147
 6466W        W10666   5.716   4.370   3.596 -0.3558 -0.6425 -0.1251
 6467W        W10667   9.596   6.696  10.053 -0.1942  0.1408 -0.1168
 6468W        W10668   9.497   9.074  12.999  0.0050  0.1027  0.0700
 6469W        W10669   4.402   5.114   4.283  0.0132 -0.0440 -0.2222
 6470W        W10670   8.476   0.903   9.660  0.0068 -0.0644 -0.1378
 6471W        W10671   3.687   4.521   8.798 -0.0523 -0.0751  0.0370
 6472W        W10672   7.510   4.255   4.090  0.0204 -0.1355  0.1191
 6473W        W10673   9.857   8.338   0.741  0.0362  0.1465  0.0649
 6474W        W10674   4.318   7.428  10.616 -0.3037 -0.0179 -0.3108
 6475W        W10675  10.118   8.409  11.825 -0.0700 -0.0412 -0.0293
 6476W        W10676   4.916   8.259   3.158 -0.0676 -0.0738  0.3906
 6477W        W10677   2.995   0.197   2.873  0.0057  0.0833  0.3294
 6478W        W10678   7.671   5.365   2.457  0.0015 -0.0058 -0.3481
 6479W        W10679   1.886   1.430   9.714  0.6454 -0.2102  0.1125
 6480W        W10680   6.493   4.588   2.381  0.1977 -0.0186 -0.0171
 6481W        W10681   0.142  10.259   0.635 -0.3387  0.3562 -0.1693
 6482W        W10682   9.158   2.672  10.357  0.1394 -0.0290  0.0843
 6483W        W10683   6.598   1.787   2.937  0.1264 -0.1075  0.0804
 6484W        W10684   3.149   6.278  12.232  0.1415 -0.0570  0.0358
 6485W        W10685   7.551   6.357   9.872 -0.2224  0.1139  0.1379
 6486W        W10686   1.732   9.823   2.413  0.0462 -0.1495 -0.2586
 6487W        W10687   2.314   3.572   9.516  0.1080  0.3480 -0.0075
 6488W        W10688   4.912   3.486   2.801 -0.0711  0.2448  0.0718
 6489W        W10689   4.540   2.552   4.086  0.0355 -0.1833  0.2336
 6490W        W10690   1.727   4.880   0.247 -0.1003  0.0290 -0.1201
 6491W        W10691   2.661   0.392   1.433  0.3366  0.0830 -0.0746
 6492W        W10692   5.324   1.260  10.898 -0.0782  0.4219  0.0594
 6493W        W10693   9.966   4.823  11.338 -0.0686  0.0945  0.1846
 6494W        W10694   2.120   0.597   1.860  0.0025 -0.2859 -0.0205
 6495W        W10695  10.062   6.115   4.390 -0.2290  0.0026 -0.0392
 6496W        W10696   8.789   0.616   1.389 -0.4419  0.2028  0.2741
 6497W        W10697   7.947   1.636  13.383 -0.0923 -0.0743 -0.0717
 6498W        W10698   7.091   9.615   9.519 -0.0960 -0.2066 -0.0194
 6499W        W10699   1.715   0.980  12.862 -0.3038 -0.1864 -0.2941
 6500W        W10700   0.801   4.327   2.035  0.1246 -0.0918  0.1715
 6501W        W10701   2.763   3.582   1.198 -0.1453 -0.0051 -0.4497
 6502W        W10702   2.200   3.855   2.836  0.4506  0.3556 -0.0446
 6503W        W10703   2.953  10.414   9.747 -0.0248 -0.0278 -0.2411
 6504W        W10704   8.823   7.767   9.474  0.4144  0.1333  0.1027
 6505W        W10705   1.884   0.585  10.284 -0.1337  0.2761  0.1692
 6506W        W10706   3.597   2.147   8.846  0.2221 -0.1799 -0.2651
 6507W        W10707   0.581   3.915  11.846 -0.0795  0.1880  0.1922
 6508W        W10708   2.555   7.343  11.884 -0.0101  0.0350 -0.1467
 6509W        W10709   0.488   3.800   1.593  0.0907 -0.0798  0.5527
 6510W        W10710  10.159   1.287   1.106 -0.0588 -0.0165 -0.0483
 6511W        W10711   6.950   9.886  10.077  0.0818 -0.2092  0.0227
 6512W        W10712   6.342   3.110   3.789  0.0194 -0.0764  0.0581
 6513W        W10713   1.501   6.486   1.810 -0.1203  0.1472 -0.1384
 6514W        W10714   4.750   9.109  11.170  0.4366  0.0803 -0.1417
 6515W        W10715   4.053   5.601   4.657 -0.0386  0.2726  0.2148
 6516W        W10716   7.077   6.034  11.792 -0.1926 -0.3878 -0.2261
 6517W        W10717   3.820   0.484  13.147 -0.1182 -0.0348  0.1416
 6518W        W10718   1.822   5.503   3.351  0.1242  0.0718 -0.0802
 6519W        W10719   2.883   5.955  11.222  0.0294 -0.1713  0.1244
 6520W        W10720   5.397   8.661   1.105  0.1557  0.2086  0.1025
 6521W        W10721   3.493   4.319  11.933  0.3257  0.1074  0.2386
 6522W        W10722   7.875   5.084   9.256 -0.2980  0.0743 -0.0465
 6523W        W10723   6.126   3.844   2.733  0.0925  0.4698  0.1508
 6524W        W10724   8.489   5.381   3.314 -0.1614 -0.1750  0.0289
 6525W        W10725   5.179   3.147   1.962  0.0634  0.0976  0.0202
 6526W        W10726   4.825   5.725   9.622 -0.0791  0.0140 -0.3110
 6527W        W10727   8.751   8.021   0.846 -0.2144  0.2329  0.1366
 6528W        W10728   3.239   5.619  13.380 -0.0149 -0.1735  0.0839
 6529W        W10729   7.460   0.318   0.968  0.0221 -0.3317 -0.0445
 6530W        W10730   6.673   2.555   4.255  0.1193 -0.1754 -0.2679
 6531W        W10731   1.743   4.227  12.472  0.3055 -0.1418  0.0294
 6532W        W10732   6.715   0.630   9.320 -0.3816  0.1032 -0.1777
 6533W        W10733   5.810   0.583  12.209  0.0285  0.2081 -0.0457
 6534W        W10734   6.137   2.332   8.815  0.0543 -0.2659  0.0166
 6535W        W10735   9.404   1.422   3.169 -0.1239  0.0115  0.0517
 6536W        W10736   2.068   6.981  11.075  0.0168 -0.2293 -0.3366
 6537W        W10737   5.648   9.720   9.215 -0.0924  0.0244  0.0020
 6538W        W10738   5.864   8.454   0.224  0.0009 -0.0758 -0.0015
 6539W        W10739   1.641   5.554   1.890 -0.4830  0.1293 -0.1989
 6540W        W10740   3.754   1.641  11.060  0.0470 -0.1144 -0.0278
 6541W        W10741   0.637   4.516   3.095  0.1187  0.0499  0.0300
 6542W        W10742   2.689   9.304  13.247  0.2301 -0.4239  0.0506
 6543W        W10743   0.953   8.103   3.476 -0.3663 -0.1149  0.0013
 6544W        W10744   0.081   6.844   0.713  0.0346  0.0587  0.1162
 6545W        W10745   2.291   7.011   1.679 -0.1999  0.0972 -0.0085
 6546W        W10746   6.226   1.541   9.708  0.0228  0.0221  0.0165
 6547W        W10747   7.255   0.386  11.121 -0.0904 -0.0894  0.4045
 6548W        W10748   3.751   3.550   9.206 -0.0119  0.2635  0.0040
 6549W        W10749   9.702  10.357   8.522 -0.0446  0.0040 -0.1268
 6550W        W10750   1.120   0.824   3.097 -0.0817  0.0251 -0.2560
 6551W        W10751   8.904  10.230   0.349 -0.2072  0.1055  0.0174
 6552W        W10752   2.327   5.925   4.338  0.2854 -0.1630 -0.0050
 6553W        W10753   3.941   0.867  11.536  0.2076 -0.0112  0.1968
 6554W        W10754   9.694   9.453   5.049 -0.1839  0.4713 -0.1104
 6555W        W10755   1.303  10.041  11.712 -0.0319  0.3872  0.2970
 6556W        W10756   6.477   1.739  11.457 -0.1123  0.1843 -0.3186
 6557W        W10757   0.122   8.909  12.275 -0.3540 -0.1572  0.1845
 6558W        W10758   7.398   8.950   5.108  0.0080 -0.3512 -0.3062
 6559W        W10759   6.161   4.263   2.966 -0.0924  0.1009  0.1086
 6560W        W10760   4.915   0.639  13.328  0.0653  0.1489  0.0977
 6561W        W10761   4.847   6.894   3.023  0.2405 -0.2413 -0.2034
 6562W        W10762   3.539   7.425  10.787 -0.0324 -0.0359  0.0923
 6563W        W10763   9.954   1.381  12.456  0.1720 -0.0357  0.2649
 6564W        W10764   1.674   7.582   9.767  0.1027  0.0405 -0.0959
 6565W        W10765   4.650   0.143   9.921 -0.0531 -0.1664 -0.0944
 6566W        W10766   2.554   2.165  12.636  0.1162  0.0725  0.3825
 6567W        W10767   9.946   5.613  12.820 -0.0146  0.3665  0.1724
 6568W        W10768   9.060   8.632   8.241  0.1873  0.3301  0.2184
 6569W        W10769  10.277   5.545  11.820 -0.1685 -0.1830 -0.2141
 6570W        W10770   1.387   8.850   0.255  0.1230 -0.0804  0.1840
 6571W        W10771  10.111   0.113  10.786 -0.2952 -0.0217  0.1946
 6572W        W10772   2.262   3.686   4.864 -0.2215  0.0052 -0.0897
 6573W        W10773   3.705   5.862   3.905 -0.0944 -0.0957  0.3110
 6574W        W10774   1.771  10.022  11.986  0.2796  0.0285  0.0890
 6575W        W10775   1.208   1.765   3.837 -0.1658  0.1504  0.1507
 6576W        W10776   5.420   7.055  10.741  0.0216  0.2213 -0.1293
 6577W        W10777   9.747   3.865   4.706 -0.1069  0.0122 -0.1144
 6578W        W10778  10.097   3.298   0.000 -0.1989  0.0722 -0.0035
 6579W        W10779   0.709   7.184   9.353  0.1510 -0.1709 -0.1460
 6580W        W10780   8.059   4.523  12.342 -0.0732 -0.2446 -0.0691
 6581W        W10781   2.420  10.009  10.316 -0.0074 -0.2774 -0.1405
 6582W        W10782   4.995   8.752   2.318  0.1051  0.3048  0.0518
 6583W        W10783   8.283   8.717  11.780 -0.1026 -0.0616 -0.1485
 6584W        W10784   6.033   6.515  10.011 -0.6565 -0.0342  0.1574
 6585W        W10785   6.129   8.203   3.738  0.1024 -0.0688 -0.0027
 6586W        W10786   5.644   6.446   2.883 -0.1993 -0.1604  0.1040
 6587W        W10787   4.258  10.063  11.854 -0.0652  0.1757  0.2921
 6588W        W10788   4.481   9.133   0.135  0.1331  0.2113 -0.1103
 6589W        W10789   9.667   9.698   4.014 -0.1823 -0.2638 -0.0654
 6590W        W10790   0.338   9.675  12.637  0.2128  0.2054 -0.0441
 6591W        W10791   4.769   5.000  11.349  0.1172 -0.0315 -0.2289
 6592W        W10792   8.169   1.630   2.917 -0.0163  0.3347 -0.3681
 6593W        W10793   0.082   7.823  10.427 -0.0804 -0.1246  0.0664
 6594W        W10794   0.898   6.104  12.715  0.2466 -0.2398  0.0249
 6595W        W10795   2.606   7.803  10.679 -0.0117  0.0872  0.0452
 6596W        W10796   4.082   7.712  10.111 -0.1297 -0.1860  0.3827
 6597W        W10797   0.887   6.973  12.732  0.6563 -0.1634 -0.0009
 6598W        W10798   4.515   1.639  11.817  0.2871 -0.1739 -0.1637
 6599W        W10799   9.911   0.795  10.779 -0.1841 -0.0972  0.1605
 6600W        W10800   2.104   6.600  11.725 -0.0368  0.2075 -0.2857
 6601W        W10801   1.197   2.495  11.188 -0.0034  0.0771 -0.3092
 6602W        W10802   7.106   9.532  11.595  0.0166 -0.0378 -0.0912
 6603W        W10803   5.943   9.570   1.823  0.1610 -0.0733 -0.0350
 6604W        W10804   6.094   1.433   2.130 -0.2703  0.3466  0.0229
 6605W        W10805   7.872   6.829   0.124  0.0580  0.0325 -0.1345
 6606W        W10806   9.982   3.598   1.883 -0.0182 -0.3965  0.2512
 6607W        W10807   1.394   6.979   0.786 -0.0801  0.6067 -0.1344
 6608W        W10808   9.370   1.944   9.867  0.2642 -0.3133  0.1035
 6609W        W10809   5.291   7.590  10.520 -0.2843  0.0857 -0.0900
 6610W        W10810   9.900   9.702   3.037 -0.2081 -0.1386 -0.0185
 6611W        W10811   5.431   2.216   0.702  0.1149 -0.2025 -0.0057
 6612W        W10812   7.957   7.114  11.941 -0.0294  0.1624 -0.0428
 6613W        W10813   3.419   4.993   8.895 -0.1431  0.1470  0.0051
 6614W        W10814   8.759   9.050   3.651  0.0527  0.4011  0.3119
 6615W        W10815   3.926   5.748  12.958  0.1890 -0.3371  0.1012
 6616W        W10816   9.855   8.309   2.572  0.0420  0.0083  0.0616
 6617W        W10817   1.517   2.705   0.225 -0.1595  0.0844  0.0015
 6618W        W10818   9.857   5.010   8.869  0.1033  0.1820 -0.0945
 6619W        W10819   2.824   1.444   0.484 -0.3068 -0.3200 -0.1838
 6620W        W10820   4.371   5.769  11.457 -0.0127  0.1148 -0.0430
 6621W        W10821   0.791   6.139   1.935  0.0292 -0.0751 -0.0190
 6622W        W10822   5.146   3.391   1.337  0.1959 -0.0256 -0.0586
 6623W        W10823   6.824   2.870   8.619  0.3409 -0.0969  0.3116
 6624W        W10824   5.949   2.837   2.457 -0.0879 -0.2686  0.2513
 6625W        W10825   0.693   6.950  12.259  0.0908 -0.0509  0.0540
 6626W        W10826   7.813   5.149   3.929 -0.1333  0.0590  0.4351
 6627W        W10827   7.458   6.222   4.330 -0.0254 -0.1854  0.1597
 6628W        W10828   5.765   7.330   3.418 -0.0634  0.0255  0.0198
 6629W        W10829   1.442   0.871   3.909  0.2465  0.3171 -0.3213
 6630W        W10830   8.235   9.245  13.169  0.0770 -0.1599 -0.0540
 6631W        W10831   8.975   7.742  10.516 -0.0348 -0.3001  0.1808
 6632W        W10832   5.483   5.876   1.532  0.0135  0.1575 -0.3046
 6633W        W10833  10.109   3.792  10.414 -0.2129  0.0291 -0.3182
 6634W        W10834   9.970   7.734   2.850  0.1168 -0.0123  0.3879
 6635W        W10835   6.832   6.888   1.748 -0.1975  0.2168  0.0083
 6636W        W10836   8.196   1.770   0.355 -0.1064 -0.1191  0.0513
 6637W        W10837   8.830   1.970  11.073  0.2699 -0.2014  0.2676
 6638W        W10838  10.261   9.194   3.946 -0.1424  0.0131 -0.1674
 6639W        W10839   2.105   0.937   0.770  0.0506  0.0004  0.2353
 6640W        W10840   8.984   5.900   1.410 -0.1655 -0.1174 -0.0071
 6641W        W10841   9.910   7.188   1.281 -0.5786 -0.0700  0.2486
 6642W        W10842   0.944   3.038   3.007  0.1084 -0.2443 -0.2233
 6643W        W10843   0.795   1.545   2.778  0.2039 -0.0742  0.0259
 6644W        W10844   0.792   0.102  12.867  0.1932  0.1927  0.2009
 6645W        W10845   7.714   6.785  11.657 -0.0205  0.1213 -0.0320
 6646W        W10846   5.783   5.312   9.187  0.1216  0.0217 -0.0645
 6647W        W10847   7.418   2.958   1.032 -0.0487  0.0994 -0.5078
 6648W        W10848   5.940   2.595   2.875  0.3503  0.1534 -0.0006
 6649W        W10849   1.869   5.741   0.609 -0.0378  0.0262 -0.2298
 6650W        W10850   8.495   8.860  12.946  0.1793 -0.2270 -0.1278
 6651W        W10851   5.725   1.303   3.424 -0.2545 -0.2545  0.0450
 6652W        W10852   8.450   2.150   1.623  0.3118  0.1435 -0.3223
 6653W        W10853   4.459   4.870   9.179 -0.1713 -0.0851 -0.2497
 6654W        W10854   6.700   7.204  10.629  0.0265 -0.0740  0.1060
 6655W        W10855   0.399   1.552   9.743  0.0744  0.0288 -0.0267
 6656W        W10856   1.626   2.368  13.161 -0.1138  0.2471 -0.2376
 6657W        W10857   7.490   9.554  10.337 -0.0571 -0.0790 -0.3746
 6658W        W10858   3.318   4.633   1.589  0.1712 -0.0629  0.2557
 6659W        W10859   9.707   1.687   8.941 -0.0569  0.1589  0.1606
 6660W        W10860   8.676   7.125   3.421 -0.0288 -0.1192  0.2687
 6661W        W10861  10.265   7.601   3.730  0.2285 -0.0993  0.0597
 6662W        W10862   5.610   7.581  12.069  0.0913  0.2658  0.3441
 6663W        W10863   9.748   4.898   1.706  0.1341 -0.2800  0.1676
 6664W        W10864   5.024  10.336   0.908 -0.1435  0.1097  0.3243
 6665W        W10865   3.026   1.494  10.446 -0.1083  0.0286 -0.2098
 6666W        W10866   8.873   4.805   1.222  0.1948 -0.1179  0.0011
 6667W        W10867   3.066   5.686   4.630 -0.0834 -0.1057  0.0955
 6668W        W10868   8.693   0.406   3.514  0.0047 -0.0518 -0.1392
 6669W        W10869   8.176   9.251  11.676  0.0306  0.3092 -0.1336
 6670W        W10870   5.539   8.684  11.741 -0.1163  0.0767  0.1289
 6671W        W10871   0.721   5.028   3.260 -0.0584  0.1047 -0.1865
 6672W        W10872   6.821   5.376  10.756  0.0078 -0.2110  0.2552
 6673W        W10873   5.451   6.054   3.116 -0.0528  0.3911 -0.1458
 6674W        W10874   4.007   8.273  12.239  0.3438 -0.3867 -0.1151
 6675W        W10875   3.797   2.780   9.706  0.0894 -0.1738  0.0148
 6676W        W10876   3.119   2.272   0.553 -0.3119 -0.2174  0.0067
 6677W        W10877   8.730   9.384  13.076  0.0716 -0.1482 -0.0877
 6678W        W10878   7.320   1.401   2.982 -0.1599 -0.1059  0.1723
 6679W        W10879   7.499   2.673   1.954  0.1379 -0.1918  0.0914
 6680W        W10880   5.462   1.189   4.413  0.4520  0.3600  0.0086
 6681W        W10881   3.274   3.278   3.860 -0.1353 -0.0639  0.0010
 6682W        W10882   8.749   4.748   9.481  0.2931  0.1168  0.2896
 6683W        W10883   5.563   7.705  12.975 -0.3075 -0.2254  0.0584
 6684W        W10884   9.602   6.736   1.756 -0.0456  0.0625  0.3440
 6685W        W10885   4.302   2.541  12.819  0.0718  0.0599 -0.0009
 6686W        W10886   3.729   4.392  13.307  0.2078  0.1263  0.0887
 6687W        W10887   0.506   7.532   2.966  0.1222 -0.2101  0.3387
 6688W        W10888   0.165   7.974  12.709  0.2407  0.2817  0.2134
 6689W        W10889   8.215   4.722  10.165  0.1047  0.2048  0.3061
 6690W        W10890   4.083   3.042   3.561 -0.0799 -0.0363  0.0601
 6691W        W10891   0.430   4.338   0.614  0.2279 -0.0640  0.0336
 6692W        W10892   8.522   2.594   1.436 -0.1756  0.2030  0.1560
 6693W        W10893   3.116   4.617   8.815  0.1008  0.1527  0.0082
 6694W        W10894   2.278   6.233   2.856 -0.1609  0.2212 -0.1180
 6695W        W10895  10.270   0.897   2.884 -0.0481  0.0656 -0.0320
 6696W        W10896   9.618   6.625   9.566 -0.1833  0.1572 -0.2520
 6697W        W10897   8.438   5.361   1.189 -0.2325  0.0335  0.1794
 6698W        W10898   2.042   0.070   0.283 -0.2391 -0.2192  0.1165
 6699W        W10899   0.586   8.818   0.324 -0.4889 -0.1747  0.3463
 6700W        W10900   8.441   9.522   1.311 -0.0842  0.0310 -0.2308
 6701W        W10901   6.442   4.029  10.287 -0.0148  0.0418 -0.0701
 6702W        W10902   4.165   4.738  13.051  0.3899  0.3919 -0.0818
 6703W        W10903   4.333   6.440   4.526 -0.1517  0.2888 -0.0107
 6704W        W10904  10.482   0.216  12.176  0.1047  0.0961 -0.0173
 6705W        W10905   8.847   1.799  10.004 -0.2688 -0.2931  0.1198
 6706W        W10906   5.145   8.687  12.099 -0.1845  0.0197 -0.1198
 6707W        W10907   6.823   3.820   1.886 -0.0621  0.0505  0.0917
 6708W        W10908   3.425   6.234   2.127  0.0435 -0.1958 -0.1283
 6709W        W10909   3.517   3.216   4.645 -0.1415 -0.2070 -0.1183
 6710W        W10910   1.239   0.065   2.433 -0.1399  0.4321  0.3717
 6711W        W10911   9.210   6.117   2.391  0.1258  0.0680 -0.0829
 6712W        W10912  10.006   3.594   2.931 -0.0904  0.1734  0.2944
 6713W        W10913   6.321  10.056   1.459 -0.0274 -0.0054  0.0126
 6714W        W10914   6.556   9.157   3.683  0.1040 -0.0037 -0.0516
 6715W        W10915   8.046   1.515   4.224  0.2835  0.2140  0.1111
 6716W        W10916   8.523   1.077   4.226 -0.1814  0.1534  0.1361
 6717W        W10917   4.112   0.649   0.117 -0.0820 -0.0606 -0.1160
 6718W        W10918  10.293   3.808  12.348 -0.0910 -0.0616 -0.1153
 6719W        W10919  10.457   4.879   1.999  0.1244 -0.0227  0.2692
 6720W        W10920   5.480   9.893   3.614 -0.1907  0.3536  0.0594
 6721W        W10921   1.605   9.322   2.306 -0.1407  0.0897  0.0699
 6722W        W10922   5.092   7.744  12.874 -0.0259 -0.2871 -0.1239
 6723W        W10923   8.402   6.285   9.451 -0.1085  0.0382  0.1173
 6724W        W10924  10.085   9.151   2.392  0.0263 -0.4556 -0.2093
 6725W        W10925   1.565   9.105   0.989  0.2018 -0.1644 -0.0249
 6726W        W10926   5.300   0.896   9.981 -0.2417  0.2259 -0.0061
 6727W        W10927   8.363   9.077  12.149 -0.2860  0.0535 -0.2041
 6728W        W10928  10.235   6.008  10.760 -0.3891 -0.1335 -0.0331
 6729W        W10929   3.494   6.866  11.124 -0.0875 -0.0321 -0.1784
 6730W        W10930   7.816   7.526   1.943 -0.1140  0.1151  0.1361
 6731W        W10931   0.570   5.736  12.083 -0.2035 -0.0617 -0.1181
 6732W        W10932   8.497   0.908   4.883 -0.0558  0.0787  0.1344
 6733W        W10933   8.415   9.262  12.667  0.0857 -0.2835  0.2749
 6734W        W10934   6.640   8.131   0.444  0.1172 -0.0457  0.2808
 6735W        W10935   2.670   5.501   8.511 -0.1299 -0.0187 -0.0050
 6736W        W10936   6.205   2.116  11.952 -0.2274 -0.3769 -0.5679
 6737W        W10937   0.812   3.630   1.164 -0.1262 -0.1196 -0.4058
 6738W        W10938   2.896   4.396  12.042  0.2523 -0.2533 -0.2544
 6739W        W10939   0.370   3.022   9.433 -0.1190  0.0135 -0.0767
 6740W        W10940   9.681   2.491  10.569  0.0642 -0.2365  0.1280
 6741W        W10941   6.042   4.634   2.605 -0.1532  0.1608 -0.0423
 6742W        W10942   7.750   7.784   0.199 -0.2161 -0.0334 -0.1165
 6743W        W10943   1.265   2.362   2.418  0.4004 -0.0743 -0.1929
 6744W        W10944   2.973   1.287   3.206  0.2128  0.1719  0.1185
 6745W        W10945   0.107   7.855   3.434  0.0339 -0.1883  0.0116
 6746W        W10946   3.738   4.966   2.271  0.1270  0.2602  0.2695
 6747W        W10947   8.909   8.583   2.903 -0.1923  0.3176  0.0218
 6748W        W10948   3.183   5.451   9.051  0.0628 -0.0028  0.1031
 6749W        W10949   9.958   1.306  10.745 -0.2000 -0.0191  0.1337
 6750W        W10950   4.565   6.806   3.622  0.1610 -0.1424 -0.1422
 6751W        W10951   4.373   4.134   8.212  0.1610  0.2561 -0.1840
 6752W        W10952   1.316   0.966  11.316 -0.0752  0.2245  0.0647
 6753W        W10953   8.146  10.221   2.412  0.0707 -0.2200 -0.1268
 6754W        W10954   3.926   0.916   1.965 -0.2555  0.2414  0.0318
 6755W        W10955   5.369   6.962   9.321  0.0347  0.5682  0.0520
 6756W        W10956   9.285   4.209   4.028  0.0053  0.1351  0.3764
 6757W        W10957   7.185   5.548  11.053  0.0675 -0.3503 -0.3097
 6758W        W10958   7.708   9.998  12.894 -0.2882  0.0235  0.0484
 6759W        W10959   9.849   3.406  12.393 -0.1287  0.2356 -0.0150
 6760W        W10960   6.864   4.505  12.726 -0.0478 -0.0968  0.3181
 6761W        W10961   6.814   6.388   2.506  0.0514  0.0987 -0.0719
 6762W        W10962   5.645   4.220  12.071 -0.1108  0.1666  0.2093
 6763W        W10963   2.850   9.228   3.420  0.0687  0.0069  0.0136
 6764W        W10964   5.001   7.442   0.829  0.0270  0.0119 -0.0816
 6765W        W10965   7.087   3.448   2.184 -0.1012 -0.0628  0.1523
 6766W        W10966   0.275   5.339   2.196 -0.1558 -0.0792 -0.0651
 6767W        W10967   5.101   9.656   0.373 -0.2567  0.2521 -0.0349
 6768W        W10968   9.431   7.013   1.260 -0.0599  0.2420  0.3096
 6769W        W10969   9.689   4.726  10.507  0.1191  0.2110 -0.0014
 6770W        W10970   5.248   5.950   2.106  0.0268 -0.0836  0.0393
 6771W        W10971   7.872   6.268  11.897 -0.1554 -0.1115  0.0973
 6772W        W10972   5.885   4.388   9.599  0.0872  0.2703  0.1440
 6773W        W10973   7.850   8.037   4.089 -0.1326 -0.0974  0.0096
 6774W        W10974   9.068  10.389   9.470  0.0934  0.0618 -0.1323
 6775W        W10975   0.517   7.082  11.224 -0.2751  0.6238  0.1478
 6776W        W10976   4.630   6.140  12.436 -0.0240  0.0437 -0.0989
 6777W        W10977   5.391   5.022   0.275 -0.2872 -0.3385 -0.2209
 6778W        W10978   6.380   9.424   8.993 -0.0057  0.0107 -0.2032
 6779W        W10979   6.821   9.816   9.093 -0.0531  0.1113 -0.0166
 6780W        W10980   4.156   3.814   9.203  0.0623 -0.0762  0.0003
 6781W        W10981   8.997   2.509   9.304 -0.0059 -0.0541  0.1003
 6782W        W10982   3.458   4.322   4.653  0.0674 -0.2581 -0.0326
 6783W        W10983   6.071   0.617   8.426  0.0549 -0.0398  0.2048
 6784W        W10984   3.602   2.621   1.891  0.1407  0.0558 -0.2713
 6785W        W10985   4.228   0.519   3.088 -0.2097  0.1208  0.3796
 6786W        W10986   1.286   7.477  10.096 -0.3074  0.1530  0.2265
 6787W        W10987   4.182   1.300  11.490 -0.0851  0.2315  0.0168
 6788W        W10988   3.068   1.424   4.197  0.0143 -0.0829  0.1965
 6789W        W10989   3.089  10.311   0.465  0.0980 -0.0407  0.0674
 6790W        W10990   4.448   7.799  13.344  0.0868  0.1445 -0.0082
 6791W        W10991   1.562   4.742   9.038 -0.1332 -0.1450  0.0130
 6792W        W10992   7.586   9.077   3.232  0.0624 -0.3100  0.0420
 6793W        W10993  10.094   9.580   2.054 -0.0432  0.1133  0.1073
 6794W        W10994   2.556   4.603   0.539  0.1474 -0.2315 -0.1478
 6795W        W10995   2.019   9.174   4.228  0.2522 -0.1736  0.0760
 6796W        W10996   6.458   6.102  12.226 -0.2974 -0.1298  0.0629
 6797W        W10997   3.530   6.433   9.266  0.1081 -0.0395 -0.0616
 6798W        W10998   2.963   0.543  11.059  0.0762  0.0909 -0.0316
 6799W        W10999   6.439   9.661   0.015 -0.1109  0.1433 -0.0169
 6800W        W11000   0.433   6.918   2.868  0.1015 -0.4202 -0.1999
 6801W        W11001   8.373   0.905   0.162  0.0158 -0.0452  0.4438
 6802W        W11002   7.032   0.524   2.171 -0.2797  0.0483 -0.1202
 6803W        W11003  10.081   2.931  12.502  0.1975  0.1536 -0.2914
 6804W        W11004   3.678   9.631   9.601 -0.0777  0.0867  0.0235
 6805W        W11005   9.965   0.342   2.635  0.1092 -0.1639  0.1546
 6806W        W11006   9.290   7.067   2.640  0.2073 -0.0277 -0.0408
 6807W        W11007   2.547   9.109   1.633  0.0665 -0.0308 -0.2863
 6808W        W11008   0.143   7.274   2.714  0.1094 -0.0432 -0.2284
 6809W        W11009   1.978   1.178   1.965  0.2952  0.0603  0.0017
 6810W        W11010   7.911   9.462  12.830  0.1260  0.1699  0.0129
 6811W        W11011   2.581   1.432  11.564  0.2380  0.0243 -0.1539
 6812W        W11012   7.026   6.714   2.179 -0.0091 -0.2839 -0.1584
 6813W        W11013   3.883   8.397   1.041  0.2259  0.2259 -0.0525
 6814W        W11014   4.655   1.455  12.264  0.2926  0.0334 -0.1389
 6815W        W11015   3.771   6.370   4.391  0.1460  0.3496  0.2687
 6816W        W11016   5.085   1.689  13.165  0.2617  0.3787 -0.4108
 6817W        W11017   4.182   0.408  12.510  0.2005 -0.0657  0.0089
 6818W        W11018  10.156   2.528   5.291  0.3324  0.2389  0.1827
 6819W        W11019   6.028   9.172   2.099  0.1244 -0.0016  0.2807
 6820W        W11020   6.991   2.698   1.158  0.1619  0.0139  0.1053
 6821W        W11021   7.930   9.640   3.139 -0.1326 -0.0040 -0.1782
 6822W        W11022   0.727   8.232  10.889 -0.1941  0.0590  0.1209
 6823W        W11023   7.500   9.022   2.643 -0.2277  0.0733 -0.0458
 6824W        W11024   3.557   6.662  10.543 -0.0929 -0.1255  0.2264
 6825W        W11025   0.199   1.276   0.970 -0.1138 -0.0635 -0.1967
 6826W        W11026   9.022   7.817   0.241 -0.3104 -0.0021 -0.2688
 6827W        W11027   9.174   6.450  12.450 -0.3022 -0.0017 -0.2784
 6828W        W11028   9.622   9.252   1.331 -0.0118  0.1476  0.0670
 6829W        W11029   4.327   8.156   1.016  0.1727 -0.0876  0.0630
 6830W        W11030   7.421   8.572   3.171  0.1518 -0.0949 -0.2768
 6831W        W11031   0.840   6.956   1.588  0.0702  0.0504  0.0639
 6832W        W11032   5.081   5.924   3.494 -0.1203  0.1805  0.0956
 6833W        W11033   6.078   9.561  10.741  0.2692  0.1149  0.2944
 6834W        W11034   0.119   3.715   5.495 -0.1246 -0.2980 -0.1170
 6835W        W11035   6.313   6.914   9.117 -0.0505 -0.1191  0.3593
 6836W        W11036   3.810   5.625   1.493 -0.2461 -0.1257  0.0452
 6837W        W11037   5.962   7.173   9.998  0.0332 -0.1285 -0.0153
 6838W        W11038   1.080   2.702   9.008 -0.2437 -0.0980 -0.1711
 6839W        W11039   4.150   9.564   3.129 -0.1649 -0.0434 -0.2165
 6840W        W11040   4.705   8.997   9.828 -0.0560  0.2079  0.1900
 6841W        W11041   8.367   2.881  11.514 -0.0017  0.0833  0.1481
 6842W        W11042   6.767   5.183  12.134 -0.1163 -0.0168  0.2225
 6843W        W11043   6.484  10.402  12.281 -0.2888 -0.5694 -0.0872
 6844W        W11044   4.897   0.228  11.837  0.1986 -0.2519 -0.2570
 6845W        W11045   5.281   9.240  11.847  0.1177 -0.0911 -0.1447
 6846W        W11046   9.906   6.758  11.950 -0.1190 -0.0268  0.2941
 6847W        W11047   6.056   1.101   2.612 -0.1281 -0.1683 -0.1432
 6848W        W11048   5.561   5.137   9.612 -0.1698  0.3007 -0.1969
 6849W        W11049   1.372   0.851  12.529 -0.3440 -0.0915 -0.2897
 6850W        W11050   7.076   5.092  10.307 -0.0838 -0.4202  0.1169
 6851W        W11051   5.797   9.364   1.254  0.1368 -0.0851 -0.0396
 6852W        W11052   9.898   6.295   1.746 -0.2302 -0.1215 -0.4130
 6853W        W11053   9.891   4.042   2.828 -0.0171  0.1363 -0.2619
 6854W        W11054   7.164   8.842   0.773 -0.3670 -0.0352  0.1604
 6855W        W11055   0.873   3.615  10.026 -0.1773 -0.1696 -0.0221
 6856W        W11056   9.234   8.231  12.085  0.1469 -0.0441 -0.2131
 6857W        W11057   6.588   6.011   9.214  0.0595 -0.1954  0.3378
 6858W        W11058   5.942   8.393  11.857 -0.2296 -0.2317 -0.1255
 6859W        W11059   0.397   5.973   3.438 -0.3225 -0.1350  0.3820
 6860W        W11060   1.798   2.768  10.525  0.2314 -0.2356  0.1853
 6861W        W11061   8.318   2.800  11.012 -0.3162  0.1232  0.2563
 6862W        W11062   8.397   4.226   1.983 -0.2339  0.1006 -0.2895
 6863W        W11063   9.640   4.519   0.782 -0.1286 -0.1250  0.0067
 6864W        W11064   3.565   4.060   1.692 -0.1509  0.0743 -0.0549
 6865W        W11065   7.626   8.696   0.229  0.1704  0.2155  0.0033
 6866W        W11066   3.943   2.302   2.789 -0.0536 -0.1021  0.0220
 6867W        W11067  10.262  10.052   0.943 -0.1257 -0.0958  0.0129
 6868W        W11068   3.154  10.355  13.232 -0.0649  0.0687 -0.1166
 6869W        W11069   4.171   4.774   8.755 -0.3089 -0.1192  0.3773
 6870W        W11070   1.750   7.186  13.168  0.0477 -0.0935 -0.1715
 6871W        W11071   6.281   2.548   3.310  0.0248 -0.1545  0.0469
 6872W        W11072   2.047   0.437   0.827 -0.1188 -0.3698 -0.0240
 6873W        W11073   2.769  10.407  10.190  0.4386 -0.0008  0.1084
 6874W        W11074   3.937   4.558   4.626 -0.1567 -0.1397 -0.0827
 6875W        W11075  10.022   1.720  13.003 -0.0677 -0.2427  0.2641
 6876W        W11076   5.216   4.714   2.923  0.0544  0.2538 -0.0503
 6877W        W11077   2.423   9.819  12.747  0.2443 -0.2363  0.0554
 6878W        W11078   8.051  10.468   1.082 -0.2705 -0.0468 -0.3964
 6879W        W11079   0.375   0.049   0.184  0.0383 -0.1589  0.1605
 6880W        W11080   7.046   2.804   3.159  0.2898  0.0814  0.1552
 6881W        W11081   2.538  10.182   0.214 -0.1892  0.0931 -0.0795
 6882W        W11082   5.306   8.549   4.011 -0.0585 -0.3524 -0.2145
 6883W        W11083   7.281   8.251  11.301  0.2669  0.2271  0.1594
 6884W        W11084   7.680   4.015   2.024 -0.0332  0.1344  0.1352
 6885W        W11085   3.045   7.920   1.405 -0.1401 -0.2359 -0.0704
 6886W        W11086   5.016   5.280  12.854  0.3168 -0.5051  0.1081
 6887W        W11087   3.619  10.337  13.142  0.2142 -0.1447 -0.2420
 6888W        W11088   2.188   1.358   1.562  0.0196 -0.2149 -0.1506
 6889W        W11089   7.240   0.475   0.356  0.1130  0.3876  0.4847
 6890W        W11090   7.662  10.021   3.308  0.1123  0.2964 -0.0415
 6891W        W11091   3.065   9.494  12.134  0.3118 -0.4393  0.1193
 6892W        W11092   6.223   9.000   0.658 -0.2193 -0.1999  0.1894
 6893W        W11093   4.407   6.267  11.052 -0.4292 -0.2170 -0.0717
 6894W        W11094   0.029   7.843   0.343 -0.3597  0.1264  0.0145
 6895W        W11095   3.349   3.658  12.585  0.0049 -0.2525  0.1119
 6896W        W11096   7.885   9.835  10.278  0.0823  0.3625  0.0618
 6897W        W11097   6.445   7.668   8.480 -0.0076 -0.1417 -0.1176
 6898W        W11098   8.724   4.522   1.607 -0.1679 -0.0961  0.1488
 6899W        W11099   2.009   5.776   2.102  0.0463  0.1030  0.0921
 6900W        W11100   4.692   5.814  10.614 -0.0959  0.1077 -0.1083
 6901W        W11101   1.109   1.003   0.528  0.2208  0.3524  0.0368
 6902W        W11102   3.493   4.077   0.332  0.0825  0.2762 -0.0842
 6903W        W11103   5.433   7.822   3.490  0.1312  0.2289  0.2123
 6904W        W11104   8.831  10.016   0.856  0.1030  0.2880 -0.1370
 6905W        W11105   5.744   5.729   8.911  0.2326  0.1417  0.0927
 6906W        W11106   5.778   0.680   9.997  0.0153  0.0471  0.1978
 6907W        W11107   5.526   1.892   2.456  0.1070 -0.0947  0.0974
 6908W        W11108   3.233   2.435   9.784  0.3081 -0.3034  0.3158
 6909W        W11109   9.570   5.261  13.036  0.1285 -0.0298 -0.2758
 6910W        W11110   5.676   8.837   8.191  0.3299 -0.0649  0.0327
 6911W        W11111   1.758   3.084  11.889  0.1927 -0.2959 -0.0416
 6912W        W11112   4.639   2.822   2.684 -0.2971  0.1651 -0.2638
 6913W        W11113   4.642   7.568  11.022 -0.0553 -0.1232  0.1566
 6914W        W11114   9.109   3.769  12.046 -0.1026  0.3516  0.2428
 6915W        W11115   7.947   5.440   3.077  0.1364  0.1791  0.0327
 6916W        W11116   4.871   9.205  12.195  0.3762  0.1466  0.1061
 6917W        W11117   2.783   2.209  10.822 -0.2309 -0.1164  0.1699
 6918W        W11118   5.695   5.055   2.665 -0.1596  0.0460 -0.5250
 6919W        W11119   3.770   4.708   5.080  0.3977 -0.1459 -0.3857
 6920W        W11120   9.816   2.746  11.057 -0.0343 -0.5519 -0.0070
 6921W        W11121   3.813   2.489  13.051 -0.2337  0.1367 -0.2420
 6922W        W11122   3.644   6.025   0.083  0.4813  0.3347  0.0006
 6923W        W11123   0.714   2.539   9.448 -0.2723 -0.0715 -0.2932
 6924W        W11124   9.662   9.329   1.870 -0.3769 -0.2083  0.1593
 6925W        W11125   7.558   3.450   4.501 -0.0989 -0.4269 -0.0518
 6926W        W11126   5.812   2.260   9.406  0.0112 -0.2593  0.1186
 6927W        W11127   1.728   8.163   1.193 -0.1007  0.0206  0.0360
 6928W        W11128   2.382   7.503  10.376  0.0719  0.0613 -0.0960
 6929W        W11129   1.090   4.734   9.586  0.3131 -0.2526  0.1695
 6930W        W11130   6.796   9.144  10.373  0.1156 -0.4265 -0.0385
 6931W        W11131   4.099   9.396   9.410 -0.0014  0.2278  0.1488
 6932W        W11132   1.345   8.200  12.286  0.2685 -0.2610  0.1305
 6933W        W11133   7.443   6.423   3.307  0.0767  0.1145 -0.0578
 6934W        W11134  10.136   7.536   1.804 -0.0803 -0.1496  0.1186
 6935W        W11135   9.113   1.581   9.562  0.2206  0.0019  0.0058
 6936W        W11136   4.814   2.313   0.032 -0.2241  0.1139  0.1011
 6937W        W11137   9.061   4.545  10.996 -0.4400 -0.0252 -0.1422
 6938W        W11138   2.100   0.973   1.269 -0.0468  0.1664  0.1684
 6939W        W11139   4.588   7.104  13.328 -0.4558 -0.2533 -0.1904
 6940W        W11140   9.275   1.552   1.537  0.1489 -0.1046 -0.1682
 6941W        W11141   3.485   7.997   0.096 -0.0957 -0.0808 -0.0530
 6942W        W11142   0.459   2.768  10.558 -0.0217 -0.1673 -0.0642
 6943W        W11143   7.323   9.855  11.316 -0.1615 -0.4141  0.1524
 6944W        W11144   7.004   9.137   0.218 -0.1564 -0.2595  0.0084
 6945W        W11145   7.894   5.675  12.757  0.0311  0.0319 -0.2480
 6946W        W11146   6.281   0.312   1.086  0.0457 -0.0811  0.1700
 6947W        W11147   8.330   2.402  11.344  0.0614  0.1509  0.0833
 6948W        W11148   4.072   5.744   2.622  0.2706 -0.3580  0.0582
 6949W        W11149   0.309   5.455   4.247  0.0008 -0.0700  0.1219
 6950W        W11150   0.959   9.744  10.016  0.1267 -0.1442 -0.0565
 6951W        W11151   0.022   8.040  12.059  0.0100 -0.1665  0.0961
 6952W        W11152   8.511   6.506   9.915 -0.0410  0.0433  0.4389
 6953W        W11153   4.255   7.206   1.627 -0.1940 -0.1044 -0.0135
 6954W        W11154   2.098   6.427  10.496 -0.0838  0.1580 -0.1094
 6955W        W11155   8.887   1.339  10.452 -0.2500 -0.3831 -0.0665
 6956W        W11156   5.658   9.550   0.424 -0.1606  0.0913  0.4678
 6957W        W11157   7.804   5.909   0.632 -0.0506 -0.4807 -0.1108
 6958W        W11158   3.050   6.350  12.686 -0.2856  0.0076 -0.2720
 6959W        W11159   6.090   5.351   2.988  0.1675  0.3620  0.1124
 6960W        W11160   4.983   1.992  11.099  0.2383 -0.0259  0.2355
 6961W        W11161   7.322   4.509   8.433  0.2787  0.3224 -0.0103
 6962W        W11162   8.808   2.348  10.338 -0.1315 -0.1604  0.0274
 6963W        W11163   2.369   1.936  12.140 -0.1077  0.0336  0.1650
 6964W        W11164   6.370   8.396   2.953  0.2058  0.3157 -0.0257
 6965W        W11165   9.299   3.529   0.756 -0.1977 -0.0377  0.0798
 6966W        W11166   8.681   6.056   2.727 -0.2379 -0.1531 -0.0452
 6967W        W11167   4.830   1.597  10.372  0.1955 -0.0299 -0.1669
 6968W        W11168   3.387   1.541   3.077 -0.1758  0.2593 -0.0760
 6969W        W11169   1.447   6.390  12.161  0.3075  0.1056 -0.0315
 6970W        W11170   2.637   5.119   9.348 -0.2021 -0.4211  0.0552
 6971W        W11171   3.884   9.458  12.503  0.0357 -0.0401  0.0953
 6972W        W11172   8.119   9.599   4.044  0.1166 -0.2218  0.2381
 6973W        W11173   9.795   1.651   2.010  0.1283  0.0096  0.0155
 6974W        W11174   3.167   7.742   3.174 -0.0653  0.1294 -0.2255
 6975W        W11175  10.242   5.603   2.742  0.2592 -0.3722  0.0505
 6976W        W11176   4.214   9.590   0.051  0.0397 -0.0477  0.1091
 6977W        W11177   0.489   9.271  12.268 -0.0324 -0.0190  0.1497
 6978W        W11178   3.346  10.198  10.057 -0.1809  0.0177  0.1948
 6979W        W11179   9.587   6.540   0.671  0.0826  0.2418  0.1159
 6980W        W11180   0.859   7.564   0.755 -0.0973 -0.3961  0.0106
 6981W        W11181   1.116   4.246   0.069 -0.2852 -0.0082  0.0034
 6982W        W11182   6.399   5.283   1.902 -0.3288  0.0178 -0.2309
 6983W        W11183   5.195   9.008  12.574 -0.1461 -0.0305  0.0397
 6984W        W11184   4.134   4.849   1.907 -0.2132 -0.1016 -0.3694
 6985W        W11185   6.402   7.304   2.625 -0.2338  0.3194 -0.1178
 6986W        W11186   0.468   1.889   0.050  0.0018 -0.3687  0.0219
 6987W        W11187   6.212   7.180   3.773 -0.0624  0.1040 -0.0168
 6988W        W11188   2.639   5.062   2.873 -0.3712  0.0884  0.1275
 6989W        W11189   4.437   4.401  12.743  0.0701 -0.1326 -0.3157
 6990W        W11190   6.926   4.023   0.061  0.0532 -0.4459  0.2148
 6991W        W11191   7.852   9.776   9.647  0.0488  0.1047  0.4470
 6992W        W11192   4.718   5.188   3.744  0.2656 -0.1541  0.1082
 6993W        W11193   1.770   1.909  12.815  0.0446 -0.2506  0.3959
 6994W        W11194   5.755   5.934   0.964 -0.2703 -0.0151 -0.1757
 6995W        W11195   6.206   5.981   1.223 -0.3145  0.0831 -0.3096
 6996W        W11196   0.535   8.091  10.404  0.2356  0.1570  0.1057
 6997W        W11197   5.104   9.334   9.919  0.0055  0.2074 -0.0806
 6998W        W11198  10.118   7.184   2.927 -0.5871 -0.2197  0.0499
 6999W        W11199   5.074   6.170  10.332 -0.0345 -0.0949 -0.0649
 7000W        W11200   2.972   7.350   2.178 -0.0492 -0.0812 -0.0093
 7001W        W11201   0.581   7.571  10.635 -0.0692  0.1456  0.0713
 7002W        W11202   4.393   3.776   2.557  0.1566 -0.0095  0.2431
 7003W        W11203   3.868   3.221   1.828 -0.0671 -0.0031 -0.0402
 7004W        W11204   2.206   6.280   9.806 -0.2218 -0.1094  0.0662
 7005W        W11205   6.483   2.823   1.035  0.0712 -0.0517  0.0263
 7006W        W11206   9.127   4.376   0.406  0.1718 -0.0423  0.0286
 7007W        W11207   2.442   9.233   1.145 -0.1455  0.1590  0.0880
 7008W        W11208   7.695   0.865   2.884 -0.0203 -0.2110 -0.0869
 7009W        W11209   0.844   6.293   1.070  0.1736 -0.2549  0.1303
 7010W        W11210   4.992   0.366   0.958  0.0911  0.2309 -0.1338
 7011W        W11211   4.266   0.458  10.552  0.1119  0.1729  0.0966
 7012W        W11212   2.554   2.085   1.311  0.0686 -0.0006  0.1389
 7013W        W11213   4.704   1.189   0.819 -0.1269 -0.3208 -0.1033
 7014W        W11214   3.010   9.461   1.210 -0.0036  0.0430  0.0478
 7015W        W11215   3.020   4.201   2.486  0.4601  0.3716  0.3592
 7016W        W11216   2.541   4.676  12.995  0.1760  0.1316  0.0133
 7017W        W11217   7.700   0.217  10.977  0.0783 -0.2846 -0.1374
 7018W        W11218   7.200   7.119  10.403  0.0002  0.0794 -0.2680
 7019W        W11219   2.029   4.576   1.418 -0.0472  0.1094  0.3303
 7020W        W11220   7.359   4.133  10.246  0.0306 -0.3354  0.4577
 7021W        W11221   4.288   6.099   9.208  0.1176  0.1420 -0.0386
 7022W        W11222  10.248   0.889   9.513 -0.0781  0.1988  0.0941
 7023W        W11223   5.796   5.075   1.587  0.0600  0.0374  0.0006
 7024W        W11224   8.591   3.096  12.552  0.0241 -0.2537 -0.0060
 7025W        W11225   9.084   2.429   2.272 -0.2555  0.1538 -0.1990
 7026W        W11226   9.210   4.684   1.640 -0.1839  0.4210  0.0928
 7027W        W11227   7.715   2.330   2.337  0.2142 -0.1859 -0.1402
 7028W        W11228   2.968   5.556  12.956  0.1580  0.1035 -0.0342
 7029W        W11229   8.254   9.631  12.377  0.1997 -0.1659  0.1797
 7030W        W11230   1.138   7.335  11.707  0.1016 -0.1524 -0.0515
 7031W        W11231   2.401   3.103   9.999  0.1983 -0.2482  0.2470
 7032W        W11232   8.717   5.053  13.286 -0.3354  0.0689  0.0481
 7033W        W11233   9.861   6.633  11.122 -0.0963  0.0977 -0.3423
 7034W        W11234   8.649   9.924   2.261 -0.2688 -0.1240  0.0296
 7035W        W11235   4.185   7.459   2.700 -0.2168  0.0811 -0.3439
 7036W        W11236   6.501   8.501   9.457 -0.0630  0.1634  0.2023
 7037W        W11237   3.650   5.046  12.724 -0.0461  0.0971  0.1315
 7038W        W11238   5.972   9.020   1.577 -0.0164  0.3299 -0.1307
 7039W        W11239   8.703   7.296   9.781 -0.0898 -0.0362 -0.1021
 7040W        W11240   5.698   3.647  13.401  0.1242 -0.0612  0.3682
 7041W        W11241   1.539   3.322  12.296 -0.0286  0.0250 -0.1770
 7042W        W11242   5.602   6.469   9.207  0.0381 -0.1268 -0.1771
 7043W        W11243   4.212   9.189   1.036 -0.1908 -0.0532  0.2257
 7044W        W11244   2.364   0.634  10.169 -0.0701  0.1395  0.4358
 7045W        W11245   1.723   3.651   9.537 -0.0670  0.2300  0.0643
 7046W        W11246   2.259   6.277   1.200  0.1296 -0.2101  0.0107
 7047W        W11247   7.219   7.945   3.851  0.0718  0.0005 -0.1091
 7048W        W11248   0.559   9.471  11.389 -0.0122 -0.3322  0.0487
 7049W        W11249   6.326   7.009  10.287 -0.0629  0.0611  0.2326
 7050W        W11250   4.446   2.327   0.735  0.1889 -0.0199 -0.1537
 7051W        W11251   7.281  10.023   2.878 -0.0877 -0.0387  0.0211
 7052W        W11252   8.667   3.915   3.277 -0.2599  0.1558  0.1892
 7053W        W11253   2.567   0.271   1.931 -0.0101  0.0374  0.4583
 7054W        W11254   0.502   0.136   1.507  0.1917  0.2170 -0.0182
 7055W        W11255   2.976   3.324   2.897 -0.1632 -0.3270 -0.2210
 7056W        W11256  10.454   2.837  12.033 -0.1471  0.2430  0.0310
 7057W        W11257   7.877   8.006   1.949 -0.2123  0.0109 -0.0996
 7058W        W11258   3.953   4.331  12.205 -0.2046  0.4975  0.0597
 7059W        W11259   2.479   4.217   0.176 -0.2410 -0.1014 -0.0872
 7060W        W11260   9.426   0.640  12.907  0.0781  0.0433  0.1204
 7061W        W11261   6.663   5.524   8.972 -0.2064  0.1462  0.1126
 7062W        W11262   4.788   6.766   0.255 -0.0328  0.4012 -0.3440
 7063W        W11263   3.159   1.756   0.715 -0.0848  0.2931 -0.2651
 7064W        W11264   5.637   5.315  11.436 -0.1389 -0.3377  0.3287
 7065W        W11265   4.057   5.673   8.627 -0.0693 -0.1779  0.0202
 7066W        W11266   5.474   7.856  12.503 -0.1434  0.0842 -0.2235
 7067W        W11267   7.468   5.430  10.667  0.2874  0.1444 -0.2545
 7068W        W11268   7.343   9.748   0.891  0.0953 -0.0589 -0.2705
 7069W        W11269   7.524   5.904  11.102 -0.1593  0.1542 -0.1738
 7070W        W11270   1.578   7.365   2.818 -0.0183  0.1525  0.0708
 7071W        W11271   9.377   8.624  12.801 -0.1863 -0.1147 -0.0967
 7072W        W11272   6.741   7.616  11.562  0.0631  0.1065  0.1836
 7073W        W11273   5.018   7.882  13.396 -0.0030 -0.0797 -0.0935
 7074W        W11274   2.655   2.503   0.767  0.1207 -0.4318  0.0229
 7075W        W11275  10.059   4.058  12.683  0.1186 -0.0859 -0.0994
 7076W        W11276   8.335   3.979   0.678 -0.1737 -0.3190  0.1828
 7077W        W11277   8.964  10.489   3.573  0.3950  0.0048 -0.1515
 7078W        W11278   0.068   7.697   4.496  0.0785  0.0067  0.0148
 7079W        W11279   2.802   6.126   4.566  0.4004  0.2622  0.0841
 7080W        W11280   8.348   2.328   2.897 -0.0517 -0.1986 -0.1841
 7081W        W11281   5.629   1.689   1.992  0.1229  0.1085 -0.1053
 7082W        W11282   4.760   3.420   4.113  0.1009  0.2108 -0.3525
 7083W        W11283   4.183   0.604  11.939 -0.1134 -0.0501 -0.0923
 7084W        W11284   7.279   6.873   0.195  0.2028 -0.0171  0.2713
 7085W        W11285   3.864   7.747  10.689  0.0608 -0.1278  0.0729
 7086W        W11286   5.920   7.348   1.810  0.1190 -0.1507 -0.0294
 7087W        W11287   2.944   3.217  10.148  0.1326  0.1286 -0.0276
 7088W        W11288   1.299   0.080   1.861 -0.0125 -0.2343 -0.2294
 7089W        W11289   8.634   7.103   1.351  0.0338  0.1099 -0.1689
 7090W        W11290   9.767   4.670   2.780  0.2150 -0.3311  0.3061
 7091W        W11291   5.673   5.127   4.132  0.0169  0.3153  0.1807
 7092W        W11292   2.264   0.942  10.542 -0.2842 -0.0818  0.2580
 7093W        W11293   7.768   7.528  11.269  0.2064  0.1837  0.0804
 7094W        W11294  10.106   6.061  12.718 -0.0020 -0.2259  0.2062
 7095W        W11295   5.629   5.722   9.405  0.2549 -0.0967  0.2337
 7096W        W11296   9.388   6.881   4.061 -0.1065 -0.2635  0.1375
 7097W        W11297   3.815   7.086   2.482 -0.0394  0.0312  0.1501
 7098W        W11298   5.551   3.740  11.899  0.0384  0.1153  0.0659
 7099W        W11299   1.829   6.191   0.876  0.1390  0.0550 -0.3214
 7100W        W11300   8.495   0.004   3.322  0.1072 -0.2413  0.1545
 7101W        W11301   4.200   8.803   2.961 -0.0898 -0.3375 -0.0293
 7102W        W11302   2.580   6.285  12.435 -0.3323 -0.1885  0.0872
 7103W        W11303   9.497   2.946   8.876  0.0129  0.2141  0.0364
 7104W        W11304   7.983  10.462  11.401  0.1450 -0.4167 -0.1653
 7105W        W11305  10.135   5.248  13.169  0.0043 -0.4268  0.1639
 7106W        W11306   4.919   5.034   9.012 -0.0465 -0.0153 -0.0908
 7107W        W11307   1.923   2.063   4.082  0.1035 -0.2502 -0.0716
 7108W        W11308   7.612  10.433   1.348  0.2864 -0.1007  0.1498
 7109W        W11309   9.881   3.176  12.881 -0.1984 -0.0496  0.0516
 7110W        W11310   2.567   5.227  10.300  0.0339  0.1002 -0.0143
 7111W        W11311   0.285   5.170   1.720 -0.2636  0.1144 -0.1929
 7112W        W11312   6.506   5.779  12.758  0.0693  0.2092 -0.0719
 7113W        W11313   6.210   0.834   1.215 -0.1053  0.0304 -0.1283
 7114W        W11314   9.150   5.931   9.602  0.0478 -0.0155  0.3152
 7115W        W11315   1.445   3.113   2.054  0.2283 -0.3237 -0.4182
 7116W        W11316   0.322   4.786  11.299  0.0238  0.1723  0.4121
 7117W        W11317   8.422   3.362  10.134  0.2847  0.3698  0.2526
 7118W        W11318  10.450   6.421   4.095  0.1521 -0.0096  0.2325
 7119W        W11319   4.342   0.208  10.973 -0.3856  0.1619  0.3752
 7120W        W11320   0.030   8.318   4.412  0.6235  0.0870 -0.2213
 7121W        W11321   4.441   8.727  11.436 -0.0625 -0.0516  0.2615
 7122W        W11322   9.417   6.923  11.012 -0.2321  0.0815  0.1314
 7123W        W11323   9.006   1.617   4.470 -0.0129 -0.0447 -0.0456
 7124W        W11324   5.376   0.506  12.551 -0.1743 -0.0286  0.1872
 7125W        W11325   2.228   6.924  12.516 -0.2415  0.1250  0.1487
 7126W        W11326   4.162   0.590   1.530 -0.0376  0.2743 -0.2888
 7127W        W11327   6.938   8.408   1.197 -0.1680  0.1770 -0.0172
 7128W        W11328   5.022   0.102   3.478  0.1746 -0.0670  0.1509
 7129W        W11329   0.161   2.338  11.985 -0.0728 -0.1612  0.1765
 7130W        W11330   9.487   1.068  12.602  0.2227  0.2670  0.2254
 7131W        W11331   2.313   1.896  11.393  0.1770  0.2679 -0.0136
 7132W        W11332   8.576   6.610   0.523 -0.3269 -0.0663 -0.1086
 7133W        W11333   6.140   7.554  11.975 -0.1309 -0.1128 -0.0160
 7134W        W11334   9.347   6.036   0.388 -0.0983  0.1681  0.2380
 7135W        W11335   7.604   4.178   0.585  0.0798 -0.1647 -0.1032
 7136W        W11336   2.039   5.691   4.696  0.2657  0.2806 -0.0089
 7137W        W11337   1.014   3.813   4.365 -0.2513  0.1501 -0.1126
 7138W        W11338   6.124   4.005  12.825  0.1722  0.0765  0.1262
 7139W        W11339   3.887   6.026  11.033  0.1222  0.1387 -0.2902
 7140W        W11340   6.145   4.698  11.851  0.1229  0.0565  0.1536
 7141W        W11341   3.114   4.443  10.550 -0.2180  0.1344  0.1055
 7142W        W11342   0.761   4.876   1.528  0.1580  0.0553  0.2530
 7143W        W11343   0.136   5.864   2.569 -0.1060  0.2061  0.0066
 7144W        W11344   5.823   2.728  12.604  0.2485 -0.0053 -0.2195
 7145W        W11345   5.855   2.360   4.580  0.3068 -0.0750 -0.0608
 7146W        W11346   3.819   8.157  10.268  0.2573 -0.0476 -0.0484
 7147W        W11347   5.421   0.205  10.741 -0.2236 -0.0248  0.1936
 7148W        W11348   6.077   8.502   4.683  0.6036  0.2790  0.3137
 7149W        W11349   6.954   5.435   8.574 -0.0686 -0.1755 -0.3255
 7150W        W11350   9.607   5.940   2.638 -0.1542 -0.0575 -0.0438
 7151W        W11351   2.256   6.747   9.681  0.2892 -0.3189 -0.3128
 7152W        W11352   8.133   0.447   0.208 -0.0356  0.1339  0.0411
 7153W        W11353   5.599   0.095  12.990  0.2269 -0.0606 -0.1359
 7154W        W11354   3.745   0.425  10.664 -0.1658 -0.0015 -0.1066
 7155W        W11355   7.014   2.484  13.263 -0.1737 -0.0811  0.1820
 7156W        W11356  10.060   6.833   8.700  0.1056  0.1484 -0.0748
 7157W        W11357   8.143   8.336   9.288  0.0937  0.0639 -0.1579
 7158W        W11358   8.671   1.349   9.284  0.0602  0.0106 -0.6689
 7159W        W11359   0.336   4.137   2.670 -0.1716  0.1941 -0.3727
 7160W        W11360   2.536   7.787  11.686 -0.1450  0.0244  0.0235
 7161W        W11361   8.576   6.651   1.693 -0.6152 -0.1554 -0.1569
 7162W        W11362  10.315   8.511   1.265  0.2007  0.1120 -0.0609
 7163W        W11363   8.036   4.136  11.303 -0.0503 -0.0314  0.0404
 7164W        W11364   0.684   2.305   0.212 -0.1091 -0.0460 -0.0236
 7165W        W11365   1.201   2.929  13.208 -0.0471 -0.3250  0.1123
 7166W        W11366   3.099   8.774   3.039 -0.0997  0.2641 -0.1348
 7167W        W11367   3.029   6.530   9.103  0.1626  0.1799 -0.1352
 7168W        W11368  10.083   1.050  12.093 -0.0051 -0.1096 -0.0748
 7169W        W11369   9.822   5.380   1.942 -0.3141  0.0111  0.2187
 7170W        W11370   2.052   5.650   1.609  0.2652 -0.2374  0.0985
 7171W        W11371   7.794   2.035   4.226 -0.2190  0.2354 -0.1130
 7172W        W11372   1.272   9.928  13.398  0.0831  0.1642 -0.3060
 7173W        W11373   4.017   2.628   4.182  0.1881  0.2747  0.0101
 7174W        W11374   5.919   7.977   4.185  0.1517  0.0691  0.2472
 7175W        W11375   9.791  10.116   0.770 -0.3065 -0.0321  0.0086
 7176W        W11376   5.108   0.059  10.270  0.0610  0.3857  0.0606
 7177W        W11377   3.463   9.451   0.375  0.0177 -0.0173  0.0666
 7178W        W11378  10.185   4.262  10.645  0.2507 -0.0230  0.1123
 7179W        W11379   5.527   8.828   1.533 -0.0154 -0.0203  0.1503
 7180W        W11380   7.684   3.638  10.571 -0.0611 -0.3451 -0.2790
 7181W        W11381   8.224   6.101   2.444 -0.0045 -0.2009  0.1087
 7182W        W11382   3.100   5.392  10.347  0.0102 -0.1571 -0.0489
 7183W        W11383   4.418   5.407   0.237  0.3430 -0.1146 -0.1895
 7184W        W11384   3.794  10.123   2.702 -0.0868  0.0856  0.0864
 7185W        W11385   4.858   4.299   0.523 -0.0101  0.1382  0.5484
 7186W        W11386   5.248   4.946   2.480  0.0026 -0.3445 -0.2198
 7187W        W11387   0.966   5.015   2.404 -0.3060 -0.3606  0.0225
 7188W        W11388   0.330  10.464  12.591 -0.2210 -0.3231  0.1006
 7189W        W11389   1.349  10.230  12.140  0.1107 -0.0131 -0.2317
 7190W        W11390   6.699   9.040  10.871 -0.2546  0.0784  0.0949
 7191W        W11391  10.092   9.083   1.872  0.1322 -0.0510 -0.0459
 7192W        W11392   2.289   0.062  12.219 -0.0659 -0.0322 -0.3565
 7193W        W11393   5.292   3.263   0.164 -0.0911 -0.0556 -0.1757
 7194W        W11394   8.662   5.398   4.997  0.0685 -0.2300  0.0997
 7195W        W11395   2.177   9.664   9.940 -0.0182 -0.0087 -0.1363
 7196W        W11396  10.156   0.588  12.096 -0.2351 -0.0058  0.1586
 7197W        W11397  10.406   1.463  10.703  0.0348  0.3483 -0.0979
 7198W        W11398   8.731   2.113   1.149 -0.1067 -0.1100  0.1081
 7199W        W11399   9.886   8.762  13.015 -0.1104  0.2573 -0.1894
 7200W        W11400   8.925   3.431  12.812  0.0231  0.4741 -0.0468
 7201W        W11401   7.203   3.161  12.237  0.3128  0.1029 -0.1990
 7202W        W11402   6.239   0.687   0.262  0.0121 -0.1781 -0.0097
 7203W        W11403   1.878   6.062  12.552 -0.2585 -0.0774  0.3098
 7204W        W11404   9.270   4.832   3.014 -0.3306 -0.0472  0.0056
 7205W        W11405   9.198   8.653  12.370 -0.0737 -0.1899  0.6376
 7206W        W11406   4.336   0.927   0.554  0.0450  0.2317 -0.0296
 7207W        W11407   8.826   7.688   1.894  0.1585 -0.0190  0.0098
 7208W        W11408   1.836   6.058   1.386 -0.0636  0.1086  0.0859
 7209W        W11409   6.643   8.617  11.601 -0.1830  0.2273  0.1441
 7210W        W11410   0.339   4.421   4.281  0.0105  0.0645  0.1414
 7211W        W11411   5.270   6.606   0.412 -0.0845 -0.1222  0.0714
 7212W        W11412   1.399   9.619  11.900 -0.2472  0.0976  0.1332
 7213W        W11413   8.338   5.432  10.635  0.3028  0.0312  0.0831
 7214W        W11414   0.488   5.568  11.007  0.1078 -0.4184 -0.0010
 7215W        W11415   9.429   4.188  10.909  0.1473  0.0768  0.0753
 7216W        W11416   9.726   6.878  10.537  0.3366  0.1749  0.2094
 7217W        W11417   3.483   4.794   1.139 -0.0204 -0.0471 -0.0160
 7218W        W11418   0.903   1.028   1.025 -0.0074  0.0695  0.1016
 7219W        W11419  10.304   6.470   0.396  0.2251 -0.0176 -0.1128
 7220W        W11420   3.981   6.330   2.133 -0.0169  0.0508 -0.2141
 7221W        W11421   2.589  10.243  12.495 -0.5025 -0.2559 -0.2804
 7222W        W11422   6.922   2.858   2.646  0.1594 -0.1843  0.4070
 7223W        W11423   5.013   7.918  10.778  0.1282 -0.0606 -0.0124
 7224W        W11424   6.026   7.682  13.311 -0.0564 -0.1011  0.1885
 7225W        W11425   9.100   7.524   2.721  0.1554  0.3062  0.2214
 7226W        W11426   6.163   7.025  10.812  0.0108 -0.0683 -0.0674
 7227W        W11427   7.089   9.751   4.060 -0.2564 -0.0887 -0.2413
 7228W        W11428   8.411   4.094   4.522  0.0263 -0.0432  0.0802
 7229W        W11429   1.497   2.296  10.699  0.4166  0.0584 -0.2485
 7230W        W11430  10.336   1.328  13.007 -0.2086  0.0555 -0.1370
 7231W        W11431   8.018   6.965   1.996 -0.1240  0.1135  0.0954
 7232W        W11432   4.795   8.196   9.744  0.0409  0.0132 -0.1200
 7233W        W11433   9.080   9.126   3.215 -0.0963  0.1494 -0.0691
 7234W        W11434   6.257   6.253  12.650 -0.1051  0.2075 -0.0766
 7235W        W11435   2.438   6.882  12.065 -0.1148  0.1384 -0.2650
 7236W        W11436  10.034   0.012   9.055 -0.0558 -0.3828  0.0487
 7237W        W11437   0.238   0.290  10.123 -0.2663  0.1634  0.0080
 7238W        W11438   3.768   6.938   1.169 -0.2082  0.1835 -0.1348
 7239W        W11439   5.157   6.520   0.947  0.2082 -0.1235  0.1194
 7240W        W11440   3.586   2.790  12.683  0.1823  0.3301 -0.2507
 7241W        W11441   9.888   4.643   4.575  0.0626  0.0490 -0.1942
 7242W        W11442   2.102   2.980   8.630 -0.0128  0.0880  0.1209
 7243W        W11443   7.333   1.676   2.492  0.1390 -0.0124 -0.0243
 7244W        W11444   0.190   3.597   3.925 -0.0458 -0.0445  0.0593
 7245W        W11445   0.099   8.360   3.322  0.2429  0.1718 -0.0471
 7246W        W11446   2.401   6.278   1.791  0.2040  0.1898 -0.0808
 7247W        W11447   2.916   7.013   4.845  0.2079 -0.0173  0.0106
 7248W        W11448   3.775   9.055  11.664  0.1852 -0.2586  0.1012
 7249W        W11449   4.872   2.040   9.062 -0.1907 -0.0887 -0.0911
 7250W        W11450   1.644   1.529   2.850 -0.0053  0.0692 -0.0999
 7251W        W11451   5.860   2.529  13.348 -0.3242  0.0431  0.0658
 7252W        W11452   7.268   1.390   9.454 -0.2861  0.1650 -0.0820
 7253W        W11453   8.269   7.761   4.776  0.0938  0.3335 -0.0053
 7254W        W11454   6.962   7.761  11.963  0.0486  0.0089 -0.2046
 7255W        W11455   3.931   9.761  12.178 -0.2149 -0.1050 -0.1401
 7256W        W11456   9.193   1.681   9.018  0.1261  0.1872  0.3665
 7257W        W11457   9.594   5.512   9.513 -0.1269 -0.3736  0.1119
 7258W        W11458   5.742   0.374  11.217 -0.0004  0.0221  0.2185
 7259W        W11459   1.298   8.809  11.632 -0.2302 -0.0970 -0.3466
 7260W        W11460   1.345   4.591  12.411 -0.1466  0.1892  0.1016
 7261W        W11461   0.496   5.615   3.803  0.1435 -0.4082  0.1274
 7262W        W11462   1.376   2.808   9.468  0.0454 -0.2496  0.3274
 7263W        W11463   8.325   6.042  13.317  0.0464  0.1433 -0.0835
 7264W        W11464   7.791   0.707   0.982 -0.2532 -0.1647 -0.0933
 7265W        W11465   8.697   9.271   2.658  0.1986 -0.0883  0.4501
 7266W        W11466   1.458   0.486   2.975  0.2377 -0.1289 -0.0593
 7267W        W11467  10.473  10.175  12.749  0.0921  0.2474  0.1600
 7268W        W11468   2.176   4.603   0.107  0.3651  0.0763 -0.0831
 7269W        W11469   6.918   7.502   8.568 -0.0149 -0.1407  0.0069
 7270W        W11470   9.908   2.982   2.274 -0.1972 -0.2362 -0.2120
 7271W        W11471   8.996   8.156   9.219  0.1105 -0.1578 -0.0996
 7272W        W11472   0.136   7.175   3.751  0.0435 -0.1199  0.1814
 7273W        W11473   8.340   4.429   3.526 -0.0416 -0.1557 -0.0471
 7274W        W11474   7.131   1.676   0.464 -0.0875 -0.1960  0.0844
 7275W        W11475  10.462   2.659  10.567 -0.1995  0.2713 -0.3061
 7276W        W11476   3.539   0.594  11.080 -0.0120  0.1893 -0.0215
 7277W        W11477   4.128   3.484  10.592 -0.2154  0.2126 -0.0306
 7278W        W11478   5.862   0.436   1.301 -0.0224  0.2290  0.2205
 7279W        W11479  10.459   1.538   4.830 -0.1540  0.0422 -0.1546
 7280W        W11480   0.686   4.742   8.208 -0.0032  0.2262  0.2077
 7281W        W11481   0.470   8.721  13.244  0.1046  0.2790  0.0064
 7282W        W11482   7.993   9.085   2.838 -0.0257 -0.1168 -0.0756
 7283W        W11483   2.304   1.227   9.341  0.0899  0.0115 -0.0690
 7284W        W11484   5.803   3.954   4.726 -0.0932 -0.2105  0.1280
 7285W        W11485   7.397   5.927   9.354 -0.1265  0.3793  0.1161
 7286W        W11486   2.864  10.487  11.073 -0.2444 -0.1149  0.1282
 7287W        W11487  10.237   8.593   3.666 -0.1000  0.3754 -0.2612
 7288W        W11488   3.714   0.386  11.604  0.1851 -0.1053 -0.1607
 7289W        W11489   7.297   9.046  11.666 -0.2565 -0.1641  0.0894
 7290W        W11490   9.119   4.746   3.508  0.0531 -0.0280  0.0330
 7291W        W11491   7.544   6.936   2.055  0.1467  0.1745 -0.1886
 7292W        W11492  10.064   5.812   1.721 -0.3680  0.0492  0.1786
 7293W        W11493   2.378   7.642   3.882 -0.0265 -0.0656  0.2644
 7294W        W11494   3.559   9.877  12.990  0.0664 -0.0275 -0.1002
 7295W        W11495   7.839   3.474   2.238 -0.0483  0.0662  0.1435
 7296W        W11496   7.077   9.021   4.122 -0.3335  0.3152 -0.0353
 7297W        W11497   0.145   5.808  12.665 -0.0957  0.1483 -0.4814
 7298W        W11498   3.533   7.575   9.430  0.1245  0.3555  0.1392
 7299W        W11499   7.695   2.916   0.422  0.2455 -0.0165 -0.2776
 7300W        W11500   5.255   8.334  11.146  0.1496  0.1070 -0.4358
 7301W        W11501  10.295   0.289  11.585  0.1918  0.1759  0.0402
 7302W        W11502   1.532   3.625  10.839 -0.4956  0.0251  0.0399
 7303W        W11503   3.850   4.453   2.058 -0.0093 -0.0231  0.1816
 7304W        W11504   3.673   7.836   9.835  0.3006  0.0992  0.4298
 7305W        W11505   4.286   2.527   2.397  0.1772 -0.1713 -0.1460
 7306W        W11506   6.801   1.181   3.607  0.0809 -0.0908  0.1226
 7307W        W11507   1.982   7.359   3.794 -0.0312 -0.0124 -0.1181
 7308W        W11508   8.972   8.968  10.549  0.1704 -0.1797  0.1803
 7309W        W11509   4.525   8.538  13.029 -0.1358 -0.1660  0.1596
 7310W        W11510   7.518  10.496   9.132 -0.0527 -0.2985 -0.0355
 7311W        W11511  10.182   4.053  11.167  0.0606  0.0483  0.1964
 7312W        W11512   7.751   6.143  12.782  0.0403 -0.1139  0.1084
 7313W        W11513   9.024   5.820   4.030  0.3080  0.1058  0.2229
 7314W        W11514   0.186   3.155   2.297 -0.0327 -0.1341 -0.1577
 7315W        W11515   1.255   8.563   1.123 -0.0612  0.0091  0.1020
 7316W        W11516   4.946   9.402   0.971  0.1134 -0.0611 -0.0959
 7317W        W11517   7.401   0.283   1.670  0.0510 -0.0755 -0.0505
 7318W        W11518   3.725   0.459   0.363  0.0723  0.2972  0.0499
 7319W        W11519   3.918   5.169   3.437 -0.0272  0.2762  0.0929
 7320W        W11520   8.067   2.550   9.446 -0.4118 -0.1028 -0.0843
 7321W        W11521   4.659   7.502   2.438 -0.0790 -0.0497  0.0869
 7322W        W11522   0.416   4.394   8.469  0.0722  0.1750  0.1972
 7323W        W11523   1.507   4.013  11.169 -0.0008  0.1476  0.0082
 7324W        W11524   7.171   1.880   2.942 -0.0132 -0.0796  0.0914
 7325W        W11525   7.524   1.439   0.330 -0.0457  0.1828  0.0589
 7326W        W11526   7.812   6.144   0.155  0.1778  0.1964  0.0312
 7327W        W11527   7.423   5.695   2.126  0.0452  0.0265 -0.1931
 7328W        W11528   4.323   1.600   3.211 -0.3395 -0.0788 -0.1800
 7329W        W11529   4.607   2.808  10.132 -0.0436 -0.3035  0.1286
 7330W        W11530   2.119   1.709  11.800  0.2387 -0.1433 -0.2743
 7331W        W11531   7.873   3.674  12.006  0.0055 -0.1501  0.0754
 7332W        W11532  10.224   8.122  11.125  0.1317  0.2447 -0.2585
 7333W        W11533  10.275   9.287   9.918 -0.1781  0.1765  0.0315
 7334W        W11534   2.008   9.582  12.537  0.4140  0.3303 -0.2201
 7335W        W11535   3.669  10.191  10.417  0.1047 -0.0999  0.0327
 7336W        W11536   9.085   4.082  12.445 -0.1279 -0.1143 -0.3521
 7337W        W11537   8.322  10.086  12.649 -0.2233 -0.1896 -0.0562
 7338W        W11538  10.186  10.246  12.347  0.1914 -0.0120  0.3929
 7339W        W11539   7.773   4.974  11.587  0.1541  0.0023  0.0313
 7340W        W11540   3.342   5.264  13.035  0.1189 -0.0035 -0.0437
 7341W        W11541   0.081   3.523  13.359 -0.5284  0.0226 -0.3036
 7342W        W11542   7.163   2.659   4.387 -0.0360 -0.0560  0.1940
 7343W        W11543   7.802   0.418  10.027 -0.0097  0.0697 -0.0911
 7344W        W11544   9.699   8.615  12.201  0.0381  0.1189  0.0006
 7345W        W11545   3.527   8.633  10.325  0.2535  0.0587  0.5427
 7346W        W11546   6.687   8.044   2.053 -0.2725  0.0673 -0.2413
 7347W        W11547   3.567   7.252   1.985 -0.1475 -0.1060  0.0357
 7348W        W11548   6.693   7.239   4.820 -0.0763  0.0254  0.0706
 7349W        W11549   0.241   9.372   3.672 -0.3503 -0.3690 -0.1331
 7350W        W11550   0.218   5.755   0.496  0.1230 -0.0837  0.1317
 7351W        W11551   4.471   6.364  12.020  0.1156 -0.0188  0.2837
 7352W        W11552   9.258   1.489  10.133 -0.1852  0.0198 -0.0017
 7353W        W11553   3.315   8.127  12.487 -0.3133  0.3950  0.0942
 7354W        W11554   6.078   7.922   1.215  0.2627  0.2329 -0.0639
 7355W        W11555   6.671   6.272   3.857 -0.0855 -0.0319 -0.0258
 7356W        W11556   1.204   6.193   2.221 -0.4393 -0.0963 -0.0420
 7357W        W11557   3.766   3.477   5.056  0.0095 -0.1027 -0.0190
 7358W        W11558   1.556   1.747  11.877  0.0324  0.1852 -0.0732
 7359W        W11559   9.409   2.897   9.347  0.0873 -0.0377  0.2469
 7360W        W11560   0.846   7.364   9.825  0.2513  0.2712 -0.0733
 7361W        W11561   7.279   9.366   8.613 -0.2449  0.0050 -0.2570
 7362W        W11562   9.430   5.522   3.885  0.0614  0.0076  0.0089
 7363W        W11563   9.462   8.357   9.381  0.0714 -0.0664 -0.0189
 7364W        W11564   6.500   5.545   9.532  0.1394  0.1294 -0.0359
 7365W        W11565   1.984   9.443   0.344 -0.2567 -0.0150 -0.3697
 7366W        W11566   1.834   9.989  10.880  0.0191 -0.0331  0.0182
 7367W        W11567   2.478   5.029   0.914 -0.3365  0.0586 -0.2551
 7368W        W11568   4.158   0.163  10.157  0.3437  0.1332  0.1507
 7369W        W11569   6.405   7.474   3.340  0.1058  0.4116  0.1963
 7370W        W11570   6.837   9.374  12.126 -0.1802  0.1945  0.2944
 7371W        W11571   8.444   9.728   3.267 -0.2781  0.1167 -0.2228
 7372W        W11572   5.511   8.051  11.641  0.2060 -0.0223  0.3200
 7373W        W11573   7.407   1.345   2.123  0.1059 -0.0291  0.1012
 7374W        W11574   5.220   1.418   3.137 -0.0572  0.3568 -0.1487
 7375W        W11575   3.808   3.441   3.635  0.0916 -0.2165 -0.0886
 7376W        W11576   3.002   4.884  10.230 -0.0587 -0.2457 -0.1281
 7377W        W11577   8.023   0.214   2.406 -0.1540 -0.2754 -0.0365
 7378W        W11578   4.596   3.911   4.081  0.2259 -0.1728  0.1447
 7379W        W11579   5.435   8.112  10.358  0.0091 -0.1999  0.2303
 7380W        W11580   7.537   0.145   3.334 -0.1382 -0.0144  0.3941
 7381W        W11581   1.784   0.926  10.643  0.1316 -0.2343  0.1815
 7382W        W11582   8.399   6.521   0.087 -0.1244 -0.2085  0.0189
 7383W        W11583   3.149   1.843  10.798  0.1068  0.2103 -0.0165
 7384W        W11584   5.574   0.062  10.026 -0.0879 -0.1465  0.0484
 7385W        W11585  10.372   0.094   0.193  0.0608 -0.4482  0.0650
 7386W        W11586   9.871   1.897  12.544  0.1666 -0.1604  0.0038
 7387W        W11587   3.909   1.047   1.008 -0.0359  0.2191  0.2591
 7388W        W11588   0.184   9.107   2.620  0.1731  0.2639  0.2040
 7389W        W11589   9.686   2.726  13.058  0.0530  0.2786 -0.2624
 7390W        W11590   1.347   9.479   2.911  0.2517 -0.0426  0.1735
 7391W        W11591   4.496   7.074   2.644 -0.2345 -0.1556 -0.1593
 7392W        W11592  10.087   8.572   1.725  0.0083  0.1712 -0.1665
 7393W        W11593   8.582   7.576   3.633 -0.4216  0.2682 -0.2468
 7394W        W11594   5.625   8.137   1.167  0.0960 -0.0761  0.1447
 7395W        W11595   6.852   0.067  11.719 -0.2780 -0.2394  0.0540
 7396W        W11596   8.888   2.118  11.559  0.0917  0.0173  0.0280
 7397W        W11597   9.204   3.664  11.552  0.1214  0.1636  0.0249
 7398W        W11598   7.573   8.281  12.666 -0.0377  0.0681 -0.0018
 7399W        W11599   2.478   5.720   2.207 -0.0507 -0.2653  0.4742
 7400W        W11600   6.576   8.569   3.571 -0.1630  0.0103 -0.3798
 7401W        W11601   3.540   6.441  11.495  0.0270 -0.0014  0.0250
 7402W        W11602  10.034   5.515  10.949  0.0983  0.0528 -0.2229
 7403W        W11603   6.833   7.668   4.069  0.0111 -0.0980  0.0625
 7404W        W11604   4.575   2.164   9.407  0.0180  0.0177 -0.2981
 7405W        W11605   8.910   1.954   4.042  0.2933 -0.0856  0.0267
 7406W        W11606   2.385   0.878   2.723  0.0363 -0.0155  0.0038
 7407W        W11607   0.834   2.145  11.320 -0.0589  0.1522 -0.3515
 7408W        W11608   9.530   0.809  11.693  0.0108  0.0859  0.3532
 7409W        W11609   5.299   3.981   2.220 -0.0997  0.0883  0.2453
 7410W        W11610  10.491   9.716  13.022  0.0393 -0.0873  0.0702
 7411W        W11611   4.948   3.955  11.669 -0.0602  0.2980  0.0797
 7412W        W11612   8.881   4.409   3.843 -0.0484 -0.1409  0.0283
 7413W        W11613   3.571   7.797  11.117 -0.0983  0.2606 -0.0068
 7414W        W11614   6.190   6.974  11.339  0.2251 -0.1645 -0.3268
 7415W        W11615   4.905   4.543  11.497 -0.0769  0.2238  0.1858
 7416W        W11616   2.918   7.243   2.977 -0.1561  0.0862 -0.1524
 7417W        W11617   8.398   9.999   1.374 -0.0270 -0.4354 -0.0318
 7418W        W11618   4.969   8.256   8.082  0.2537 -0.2243  0.0192
 7419W        W11619   2.610   6.679   3.525  0.3298 -0.0443  0.0890
 7420W        W11620   6.431   6.765   5.363 -0.3161 -0.0102 -0.0008
 7421W        W11621   6.350   2.362  10.104 -0.1422  0.0077  0.1308
 7422W        W11622   0.710   2.290   8.984 -0.1863 -0.0554  0.2121
 7423W        W11623   3.072   0.799   3.525  0.0471 -0.1474 -0.1334
 7424W        W11624   7.893   1.552   3.517 -0.0815 -0.1745 -0.0646
 7425W        W11625   9.186   4.246  11.850  0.1664 -0.1697  0.2082
 7426W        W11626   6.524   6.435   8.974  0.1446 -0.1587 -0.1928
 7427W        W11627   7.278   5.340   9.896 -0.1588 -0.0467  0.2702
 7428W        W11628   9.126   0.542  11.853  0.0619 -0.3762  0.2503
 7429W        W11629   9.414   2.913   2.094 -0.0485 -0.1616  0.1830
 7430W        W11630   8.140   6.871   0.538 -0.0740  0.0013  0.3122
 7431W        W11631   3.816   3.810   0.075  0.0099  0.1978  0.1326
 7432W        W11632   5.098   7.795   9.960 -0.0854  0.4220  0.0536
 7433W        W11633   9.659   1.269   1.163  0.4307  0.1330 -0.1412
 7434W        W11634   3.225   5.683   3.705  0.0109  0.0751  0.3838
 7435W        W11635   1.354   9.620  11.238 -0.2334 -0.1578 -0.0893
 7436W        W11636   6.973   3.256   1.055  0.0091  0.1674 -0.0679
 7437W        W11637   7.826  10.459   2.039  0.3397 -0.2831  0.0805
 7438W        W11638   2.822   4.479   4.789 -0.1578 -0.0233  0.2199
 7439W        W11639   8.532   1.248   0.604 -0.1954 -0.1502 -0.2977
 7440W        W11640   0.224   2.643   2.352 -0.1250  0.0727  0.1269
 7441W        W11641  10.076   6.450   2.829  0.0537  0.1388  0.2342
 7442W        W11642   7.280  10.043   0.509  0.1347  0.2063 -0.1246
 7443W        W11643   8.714   2.717   9.856  0.0865 -0.0393 -0.3431
 7444W        W11644   0.742  10.314   3.283 -0.1114 -0.0997 -0.1416
 7445W        W11645   7.989   5.496   0.498 -0.1763  0.0021 -0.0602
 7446W        W11646   0.639   8.843   2.424 -0.3412  0.0929 -0.4452
 7447W        W11647   6.105   7.633   9.810 -0.0474 -0.1360  0.0004
 7448W        W11648   1.816  10.117   3.483  0.2650  0.2890  0.1857
 7449W        W11649   9.661   3.343   2.665  0.0082 -0.2005 -0.0431
 7450W        W11650   0.067   0.661  11.301  0.2045  0.3862  0.0644
 7451W        W11651   7.364   4.793  11.918 -0.1101  0.2359  0.0237
 7452W        W11652   1.386   4.035   1.767  0.2275  0.0134 -0.0560
 7453W        W11653   8.426   1.386   0.053 -0.1006 -0.1415 -0.0995
 7454W        W11654   0.453   4.139   7.998  0.0260  0.2051  0.0965
 7455W        W11655   2.466   1.072   2.222  0.1806  0.0823  0.2071
 7456W        W11656   1.080   0.054   3.642  0.1791  0.5630 -0.0610
 7457W        W11657   4.049   4.782   0.696  0.2338 -0.0738 -0.2702
 7458W        W11658   2.923   6.393   1.772  0.2572 -0.0156 -0.0495
 7459W        W11659   6.129   1.522   1.640 -0.1035 -0.3123 -0.0291
 7460W        W11660   0.801   0.594   3.993  0.0409  0.1150 -0.2392
 7461W        W11661   9.702   8.321  12.648  0.0603  0.0341 -0.1935
 7462W        W11662   7.698   1.006   9.201  0.1173 -0.0618  0.3707
 7463W        W11663   7.399   3.073   3.565  0.5211 -0.2854 -0.2059
 7464W        W11664   6.136   1.605  11.919  0.2339 -0.1430  0.2190
 7465W        W11665   1.511   3.946  11.767  0.3273  0.1098  0.0601
 7466W        W11666   7.465   5.509   2.895 -0.3020 -0.2167 -0.1384
 7467W        W11667   7.647   7.331   3.479 -0.1637  0.0217  0.0281
 7468W        W11668   2.297   1.736   0.459 -0.1730 -0.0823  0.0497
 7469W        W11669   6.595   3.582  10.740 -0.2675  0.3110  0.1348
 7470W        W11670   5.890   8.205   2.763  0.1265  0.0539 -0.1222
 7471W        W11671   6.233   5.561  10.132  0.1167  0.1017  0.0920
 7472W        W11672   7.341   3.708   1.818 -0.0746  0.1278 -0.1549
 7473W        W11673   9.706   6.763   3.608  0.3048 -0.0324  0.2930
 7474W        W11674   5.111   0.200  13.048  0.1618  0.3238  0.1457
 7475W        W11675   0.312   4.418  12.607  0.1307  0.1349  0.0868
 7476W        W11676   9.897   8.510   9.853  0.2199 -0.0019  0.1824
 7477W        W11677   2.677   3.457   2.432  0.0741 -0.1832  0.2319
 7478W        W11678   2.045   2.336  10.742  0.4654  0.0395 -0.0305
 7479W        W11679   3.848   7.211   3.807 -0.0928 -0.0028 -0.1560
 7480W        W11680   9.684   0.399   0.935  0.0787 -0.6726  0.1047
 7481W        W11681   4.591  10.015   2.613 -0.1631 -0.0030 -0.0701
 7482W        W11682   8.899   1.613   0.558  0.3650 -0.2751 -0.1485
 7483W        W11683   4.587   6.106   2.909  0.3726  0.0913  0.0043
 7484W        W11684   3.071   0.341   1.827  0.1357  0.2633 -0.2247
 7485W        W11685   0.421   9.963   3.156 -0.0911 -0.1178 -0.2559
 7486W        W11686   9.075   8.666   4.045  0.2281  0.0775  0.3150
 7487W        W11687   9.927   0.384  12.908 -0.0620 -0.0838  0.3917
 7488W        W11688   4.137   0.896   3.927 -0.0628  0.3610 -0.0394
 7489W        W11689   0.989   8.704   3.307  0.3018 -0.0739  0.2819
 7490W        W11690   6.350   2.530   3.794  0.1098  0.0388 -0.0166
 7491W        W11691   3.874   5.329   9.953 -0.1526 -0.1038  0.1579
 7492W        W11692   2.562   4.321   2.175  0.0610  0.0424 -0.0256
 7493W        W11693   0.001   7.683   2.348  0.0135  0.0967  0.2569
 7494W        W11694   9.370   8.702   3.092  0.1652  0.3042  0.1883
 7495W        W11695   1.044   1.566  10.029 -0.1736  0.0135 -0.2920
 7496W        W11696   1.321   5.094  12.411 -0.3716 -0.0744 -0.0456
 7497W        W11697   4.999   5.630   2.522  0.1229  0.1209 -0.0610
 7498W        W11698   1.676   9.888   1.342  0.0147 -0.1941  0.2151
 7499W        W11699   3.457   8.493  12.122 -0.3002  0.0425  0.0249
 7500W        W11700   5.648   2.086  13.207 -0.3056  0.0238  0.4382
 7501W        W11701   3.462   0.031   0.227  0.1122  0.2086  0.1113
 7502W        W11702   0.726   5.206  12.184  0.1013 -0.3572 -0.1376
 7503W        W11703   4.654   7.112  11.477 -0.1244  0.0353 -0.0020
 7504W        W11704   4.327   2.974   3.127 -0.1035  0.5258 -0.2273
 7505W        W11705   4.267   6.806   1.275  0.0004  0.2149 -0.2790
 7506W        W11706   6.775  10.203   1.700 -0.0417  0.3740  0.2080
 7507W        W11707   0.772   9.057  13.095  0.0796 -0.4144 -0.3430
 7508W        W11708   1.411   3.954  10.153 -0.2295 -0.3038 -0.1628
 7509W        W11709   2.335   3.110   9.380  0.1540  0.1279  0.4266
 7510W        W11710   4.885   0.986   0.356 -0.3534 -0.1775  0.2633
 7511W        W11711   4.038   8.228  10.831  0.0259  0.0532 -0.2256
 7512W        W11712   6.568   0.065   3.313  0.0777 -0.0480  0.0468
 7513W        W11713   2.069   6.893   9.249  0.1076  0.0297 -0.1245
 7514W        W11714   8.714   5.560   8.849  0.1629 -0.2460 -0.0084
 7515W        W11715  10.007   9.354   1.090  0.0473 -0.2319 -0.0517
 7516W        W11716   8.807   9.948  11.474  0.0166 -0.0874  0.0554
 7517W        W11717   2.864   5.497   2.018  0.1115 -0.0298 -0.1828
 7518W        W11718   1.035   7.055  11.139 -0.0542  0.1576  0.4816
 7519W        W11719   4.371   7.953   0.467 -0.0133  0.1606  0.1401
 7520W        W11720   5.371   4.552  12.347 -0.2259 -0.1615 -0.2482
 7521W        W11721   8.733   6.110  12.539  0.0741  0.2612 -0.2124
 7522W        W11722   5.457   4.880   3.710 -0.2140 -0.2500 -0.0104
 7523W        W11723   0.865   2.364   3.961 -0.0513  0.3130 -0.2164
 7524W        W11724   7.339   9.322  12.246  0.1126 -0.1792 -0.0508
 7525W        W11725   2.128   8.098   9.919 -0.1838 -0.0058 -0.2458
 7526W        W11726   5.332   1.937   1.105 -0.1922 -0.1478  0.0820
 7527W        W11727   8.303   1.473   1.807  0.4616 -0.0692 -0.0456
 7528W        W11728   8.050   7.459   9.124 -0.0941  0.1183  0.1622
 7529W        W11729   2.803   4.691  11.657  0.1758 -0.3160  0.0157
 7530W        W11730   7.404   9.868   9.907  0.0702  0.3511 -0.3500
 7531W        W11731   9.499   4.843  10.988  0.0626 -0.2576  0.1549
 7532W        W11732   6.072   1.041  10.427 -0.1366  0.1223 -0.1317
 7533W        W11733   8.643   8.131   2.373  0.0305 -0.1308 -0.0169
 7534W        W11734   5.951   6.140   9.137 -0.1296 -0.0771  0.1337
 7535W        W11735   3.974   3.865  11.980 -0.2493  0.0556  0.3717
 7536W        W11736   9.554   9.772   9.203  0.0200  0.4400 -0.1690
 7537W        W11737   2.436   2.320  11.176  0.3136  0.0536 -0.0829
 7538W        W11738   4.255   8.104  13.063  0.2090 -0.3855 -0.0187
 7539W        W11739   1.445   5.475   2.743  0.0475 -0.1638 -0.2213
 7540W        W11740   8.546   1.014  10.208 -0.2458 -0.3864 -0.1225
 7541W        W11741   9.306   9.997  11.540 -0.0525  0.1038  0.3825
 7542W        W11742   2.659   8.220  13.057 -0.1943 -0.3179 -0.0378
 7543W        W11743   6.824   4.285   0.963 -0.1016  0.0267 -0.0666
 7544W        W11744   4.824   5.358  12.104 -0.0732 -0.2103  0.4158
 7545W        W11745   1.671   6.674   1.106 -0.3062 -0.1002  0.2584
 7546W        W11746   0.472   1.816  12.976 -0.0029 -0.1469  0.1625
 7547W        W11747   2.278   5.783  12.586  0.1479 -0.0326  0.1508
 7548W        W11748   4.589   8.458   0.640  0.1887  0.2446 -0.2460
 7549W        W11749   8.616   5.655  13.366 -0.0952  0.1327 -0.0278
 7550W        W11750   3.038   3.559  12.195  0.0649 -0.1083 -0.3255
 7551W        W11751   6.885   7.980  10.984  0.1973  0.0912  0.0621
 7552W        W11752   5.589   4.549   2.502  0.3817  0.0629  0.2365
 7553W        W11753   7.214   7.031   2.570 -0.2602  0.1216  0.1370
 7554W        W11754   1.886   6.176  11.985  0.1305  0.2000  0.2079
 7555W        W11755   5.113   5.801   2.943 -0.0620  0.0873 -0.0012
 7556W        W11756   8.651   8.807   0.573  0.1555  0.1046  0.0775
 7557W        W11757   1.929   7.248  10.214  0.1855  0.1120  0.0553
 7558W        W11758   7.558   0.839  10.406  0.2905 -0.5271 -0.1392
 7559W        W11759   9.766   7.792  10.845 -0.1289  0.0681 -0.2201
 7560W        W11760   8.683   9.705  12.644  0.1522 -0.0251 -0.1450
 7561W        W11761   7.867   8.505   4.489  0.2592  0.1022 -0.1563
 7562W        W11762   0.014   2.417   3.469  0.1701  0.1505  0.0804
 7563W        W11763  10.215   9.689  11.262  0.1743 -0.2819 -0.1620
 7564W        W11764   3.626   9.314  11.173 -0.2957  0.1335 -0.2488
 7565W        W11765   3.275   4.649  11.507  0.3118 -0.0282 -0.0710
 7566W        W11766   6.333   7.672   3.776 -0.0571 -0.1526 -0.1594
 7567W        W11767   9.346   7.347   4.236 -0.0503 -0.2688 -0.1135
 7568W        W11768   6.619   9.540  10.694 -0.0992  0.0670  0.0170
 7569W        W11769   0.080   4.418   9.297  0.1626  0.0122 -0.1119
 7570W        W11770   9.501   0.410   8.692 -0.2785 -0.3707  0.2234
 7571W        W11771   8.582   3.069   0.018  0.2346  0.4093 -0.0487
 7572W        W11772   6.908   0.227   0.854 -0.2418 -0.0525  0.1002
 7573W        W11773   0.464   4.772  12.321  0.1679  0.1238  0.2136
 7574W        W11774   6.054   5.529   0.866  0.0474 -0.1380  0.0767
 7575W        W11775   8.110   1.391  10.793 -0.2498 -0.1779  0.1127
 7576W        W11776   9.019   0.178   4.549 -0.1885 -0.1962 -0.2665
 7577W        W11777   1.854   3.489   8.375 -0.0187  0.1708 -0.1205
 7578W        W11778   2.202   6.417   9.348  0.3417 -0.1687  0.1596
 7579W        W11779   7.952   4.068   1.551 -0.1802 -0.2898 -0.0695
 7580W        W11780   5.220   1.884   3.323  0.0834  0.1030 -0.1160
 7581W        W11781   1.198   0.134   0.085  0.0269 -0.3165  0.1667
 7582W        W11782   7.165   7.429   4.808 -0.0858  0.1753 -0.0650
 7583W        W11783  10.165   4.906   4.191  0.0166  0.0251  0.1670
 7584W        W11784   9.838  10.212   2.712  0.0036  0.1313 -0.0795
 7585W        W11785   6.870   9.784   0.801 -0.3105 -0.1265  0.1713
 7586W        W11786   6.743   2.132   3.297 -0.3546  0.0363 -0.0098
 7587W        W11787  10.443   3.499  10.238 -0.0591 -0.3757  0.1204
 7588W        W11788   5.234   0.709  12.095  0.0133  0.1666  0.2650
 7589W        W11789   1.197   2.175   1.580 -0.1491  0.0061 -0.0280
 7590W        W11790   7.756   1.256   9.666 -0.3009  0.0538 -0.1153
 7591W        W11791  10.302   4.605  11.010 -0.1758 -0.0557  0.0331
 7592W        W11792   3.542   9.444  12.060 -0.1289 -0.2134  0.0887
 7593W        W11793   8.377   6.653   0.986 -0.1806 -0.0026  0.2680
 7594W        W11794   2.976   3.791  13.186  0.0714  0.1066 -0.2037
 7595W        W11795   7.215   5.885   1.069 -0.0821 -0.0824  0.1844
 7596W        W11796   6.269   4.051   9.391  0.1062  0.0552  0.2595
 7597W        W11797   2.925   8.821  10.401 -0.1282  0.0018 -0.2419
 7598W        W11798   6.335   2.189   2.012  0.1023  0.3986  0.1849
 7599W        W11799   3.173   5.162   9.455  0.1691  0.0562 -0.0439
 7600W        W11800   5.285   9.257   8.184 -0.2435  0.6903  0.2579
 7601W        W11801   5.492   2.496   3.732  0.3491  0.2097  0.0275
 7602W        W11802  10.240   6.017   0.382  0.1856  0.2633 -0.2623
 7603W        W11803   6.644   2.052   0.490 -0.0661 -0.1126  0.1408
 7604W        W11804   5.943   2.524  12.132  0.2699 -0.0430 -0.0631
 7605W        W11805  10.231   1.703   2.465  0.1162 -0.0412  0.2890
 7606W        W11806   9.446   4.976  12.570  0.1111 -0.0286 -0.1907
 7607W        W11807   9.496   7.201  12.934  0.2858 -0.0415 -0.0428
 7608W        W11808   7.381   9.286  12.782  0.0388  0.1820  0.1559
 7609W        W11809   6.308   6.052  10.138 -0.0348  0.0558  0.0022
 7610W        W11810   8.457   1.411   3.275 -0.1782 -0.0466 -0.0435
 7611W        W11811   8.274   3.145   3.180  0.0851 -0.1202  0.1854
 7612W        W11812   9.597   2.661  11.832 -0.3430 -0.2507 -0.4592
 7613W        W11813   2.803   2.672  13.162 -0.3028 -0.3963 -0.0231
 7614W        W11814   6.500   2.885  10.186 -0.2362  0.0732 -0.0191
 7615W        W11815   2.734   7.891   3.030 -0.1292  0.1228 -0.1364
 7616W        W11816   6.368   9.554   2.110 -0.0535 -0.0009  0.0173
 7617W        W11817   9.004   0.991   9.668  0.1191 -0.1072  0.0571
 7618W        W11818   0.720   0.194  11.675 -0.0286 -0.0644 -0.0661
 7619W        W11819   9.799   0.143   3.125  0.3225 -0.1303 -0.1737
 7620W        W11820   9.334   1.108  13.116 -0.2917 -0.2119 -0.2031
 7621W        W11821   8.698   3.701   8.341 -0.1357  0.3843  0.2528
 7622W        W11822   6.463   6.210   9.662 -0.0216 -0.0760 -0.2110
 7623W        W11823   4.895   9.842  12.832  0.0530 -0.1141  0.3041
 7624W        W11824  10.227   8.132   8.963 -0.1402 -0.0221  0.1025
 7625W        W11825   3.118   8.529  13.040 -0.1487 -0.0690  0.0385
 7626W        W11826   5.448   5.490   2.272  0.1262  0.4064  0.0931
 7627W        W11827   1.807   6.628   3.876  0.0798 -0.0791  0.1121
 7628W        W11828   7.913   0.418   1.396  0.2539 -0.3695  0.0810
 7629W        W11829   5.478  10.478  12.492  0.0694 -0.3192  0.0609
 7630W        W11830   2.327  10.095   1.132  0.0909  0.0737  0.3199
 7631W        W11831   8.765   7.839  12.635  0.1992  0.1807  0.2103
 7632W        W11832  10.308   8.428   0.393 -0.1311  0.0761  0.2076
 7633W        W11833   3.923   6.621  11.967  0.1641 -0.0008  0.1445
 7634W        W11834   2.846   9.554  12.832 -0.0670 -0.1655  0.1878
 7635W        W11835   1.887   2.612   3.998 -0.0544 -0.1132  0.0807
 7636W        W11836   3.245   5.855  12.655 -0.3747 -0.0097  0.0872
 7637W        W11837  10.205   3.971  13.128 -0.1746 -0.0177  0.0403
 7638W        W11838   9.347   6.183  10.971  0.1936 -0.1284 -0.1139
 7639W        W11839   1.098   4.177  12.372 -0.2844  0.0087 -0.3299
 7640W        W11840  10.428   6.142   3.015 -0.3950 -0.0414  0.1214
 7641W        W11841  10.386   4.581   4.564  0.1574 -0.4005  0.1498
 7642W        W11842   1.267   7.126   2.335 -0.0492  0.0890  0.0200
 7643W        W11843   1.096   8.903   0.810 -0.0572  0.1342 -0.1206
 7644W        W11844   3.706   4.496   9.760 -0.3965  0.0371 -0.2068
 7645W        W11845   7.521   2.403   4.121  0.2736 -0.3734 -0.0455
 7646W        W11846   4.083   9.105   2.105  0.0721  0.1501 -0.0431
 7647W        W11847   8.114   6.123  10.426 -0.0421  0.2148  0.3920
 7648W        W11848   1.251   8.487   1.757  0.1502  0.1047  0.0483
 7649W        W11849   9.039   7.360   1.601  0.4703  0.0111 -0.0125
 7650W        W11850   6.552   5.722   1.672 -0.0016 -0.0183  0.2550
 7651W        W11851   3.139   4.654   4.389  0.0748  0.1776  0.1247
 7652W        W11852   8.734   3.992   1.646  0.0388 -0.2507  0.2544
 7653W        W11853   1.131   5.738   3.641 -0.1910 -0.2918 -0.1471
 7654W        W11854   6.071   8.788  11.556  0.0280 -0.1999  0.1243
 7655W        W11855   8.112   1.211   0.375 -0.0013 -0.2269  0.3002
 7656W        W11856   9.510   4.465   1.957 -0.0161  0.2036 -0.0540
 7657W        W11857   8.610   4.874   3.605 -0.0390 -0.1539 -0.3756
 7658W        W11858   7.195   3.059   4.665 -0.1973  0.0292  0.0048
 7659W        W11859   8.901   5.752   2.016  0.2436 -0.2149 -0.2525
 7660W        W11860   4.682   9.782   0.203  0.1227  0.2499 -0.2837
 7661W        W11861  10.163   3.385  10.851 -0.0106 -0.0446  0.1646
 7662W        W11862   7.723   5.519   3.626 -0.0736  0.0020 -0.0766
 7663W        W11863   5.810  10.086   9.970  0.1678  0.0593  0.1904
 7664W        W11864   4.969  10.160   0.394  0.1280  0.4236  0.1673
 7665W        W11865   9.466   3.222   3.494  0.2166 -0.6076 -0.2469
 7666W        W11866   3.855   0.863   3.456  0.0159  0.1339 -0.0296
 7667W        W11867   1.852   7.451  11.252  0.2205 -0.1218 -0.2105
 7668W        W11868   2.954   1.207  12.905 -0.1505  0.1685  0.0318
 7669W        W11869   7.257   0.042   2.953 -0.0748  0.1939 -0.2419
 7670W        W11870   5.771   9.215   9.022 -0.0103 -0.2615 -0.2332
 7671W        W11871   6.434   0.826   2.907  0.1061  0.0459 -0.5489
 7672W        W11872   2.769   2.852   4.931 -0.0490  0.1120  0.0332
 7673W        W11873   4.228   1.670  13.261  0.0360 -0.2490 -0.1267
 7674W        W11874   9.619   2.959  11.470 -0.2637 -0.0577  0.2914
 7675W        W11875   5.586   1.186   2.920  0.0332 -0.1016 -0.1631
 7676W        W11876   9.918   9.119  12.093  0.1379  0.1779  0.1847
 7677W        W11877   9.478   1.156  10.658  0.0706 -0.0472 -0.2852
 7678W        W11878   1.656   3.974   0.982  0.1789 -0.0550 -0.3759
 7679W        W11879   6.214   0.151   0.252  0.0975  0.1659 -0.0522
 7680W        W11880  10.341   7.394   0.345  0.0839  0.2143  0.1136
 7681W        W11881   8.850   3.632  10.266 -0.2715 -0.1019  0.0046
 7682W        W11882   4.568   5.152   8.655  0.2822 -0.4131  0.2075
 7683W        W11883  10.071   3.818   0.243 -0.2053 -0.3782  0.1235
 7684W        W11884   9.319   4.103   1.420 -0.0106  0.2821 -0.1053
 7685W        W11885   7.098   4.720   0.749 -0.3437  0.3338 -0.0348
 7686W        W11886   9.458   5.058   5.288  0.3119  0.1962  0.1499
 7687W        W11887   6.645   1.703  10.052  0.2918  0.0791  0.4537
 7688W        W11888   8.401   3.677   0.235  0.2803  0.1922  0.4453
 7689W        W11889   7.214  10.411   1.960  0.1511 -0.1215  0.2043
 7690W        W11890   3.889  10.041  10.864  0.1711 -0.0674 -0.3013
 7691W        W11891   9.966   9.970  10.965 -0.0637  0.0054  0.1471
 7692W        W11892   2.520   5.563   2.971 -0.1040  0.2042  0.1354
 7693W        W11893   7.316   0.911  11.263 -0.0733  0.0610 -0.2233
 7694W        W11894   9.218   7.672   0.686  0.5673 -0.3460 -0.3331
 7695W        W11895   6.244   5.362   1.437  0.1640  0.0832 -0.0900
 7696W        W11896   9.936  10.461   3.576  0.1984 -0.1128  0.0183
 7697W        W11897   1.004   8.587   2.191 -0.0097  0.2441  0.1773
 7698W        W11898   6.274   2.462   2.481 -0.2469  0.0176  0.1562
 7699W        W11899   0.395   5.327  10.031 -0.1356 -0.0765  0.1166
 7700W        W11900   7.486   6.280   0.915  0.1692 -0.5192  0.3101
 7701W        W11901   5.662   8.844   2.029 -0.0979  0.0937 -0.1023
 7702W        W11902   7.154   7.094  12.642  0.1270  0.2024  0.2625
 7703W        W11903   0.663   3.438   9.598 -0.0618 -0.2372 -0.2366
 7704W        W11904  10.033   9.642  10.455 -0.3129 -0.0362 -0.1581
 7705W        W11905   3.921   1.466  11.894 -0.0901 -0.1819 -0.0803
 7706W        W11906   9.475   4.423  11.373  0.0495 -0.2170  0.2447
 7707W        W11907   7.481   9.617   1.881 -0.0348  0.3233 -0.0432
 7708W        W11908   4.096   5.011   2.584 -0.0588 -0.2964 -0.0108
 7709W        W11909   2.590   2.499  12.233  0.0016 -0.2848  0.1154
 7710W        W11910   1.160   9.773  12.475 -0.1361 -0.1486 -0.0833
 7711W        W11911   7.604   6.844   3.467 -0.2469 -0.0540 -0.3069
 7712W        W11912   6.576   3.913   1.223 -0.0774 -0.0684 -0.4042
 7713W        W11913   9.253   4.694   9.487 -0.0118  0.1968  0.0334
 7714W        W11914   5.145   7.987   9.086 -0.1529 -0.1529 -0.1673
 7715W        W11915   8.967   7.693   8.972  0.1999 -0.1249 -0.0675
 7716W        W11916   9.494   0.207  13.200 -0.1282 -0.1892  0.0683
 7717W        W11917   3.923  10.313   1.895  0.2942 -0.3764 -0.4588
 7718W        W11918   8.882   5.086   1.821 -0.0556 -0.0812 -0.1126
 7719W        W11919   2.213   4.506   4.013 -0.1465 -0.2044  0.3805
 7720W        W11920   6.207   2.228  12.517  0.2008  0.3247  0.2373
 7721W        W11921   1.381   0.044  11.523  0.0197 -0.1563  0.1028
 7722W        W11922   9.272   6.171  11.596  0.2041 -0.2169  0.0991
 7723W        W11923   0.661   7.137   3.230 -0.0696  0.0673 -0.2147
 7724W        W11924   6.670   0.687   0.010 -0.0086  0.2264 -0.4468
 7725W        W11925   5.167   0.918   2.933 -0.2250 -0.1140 -0.0286
 7726W        W11926   3.502   0.572   3.738 -0.1081  0.1289  0.3963
 7727W        W11927   5.675   0.999  13.394 -0.2704  0.0396 -0.3561
 7728W        W11928   3.608   0.503   0.913  0.0733  0.2025  0.0825
 7729W        W11929   7.444   0.552   9.474  0.0430  0.0141 -0.3737
 7730W        W11930   0.632   4.126   1.070  0.1567 -0.1200  0.2165
 7731W        W11931   4.140   3.532   3.274 -0.0749  0.0440 -0.2244
 7732W        W11932   5.975   9.398  10.042  0.2863  0.1609  0.0097
 7733W        W11933   7.652   3.761  11.115 -0.0130  0.0168 -0.2567
 7734W        W11934   7.591   6.652   1.301  0.4597 -0.0947 -0.1063
 7735W        W11935   2.703   6.444   9.497 -0.0115 -0.0272 -0.0646
 7736W        W11936   9.935   2.849   1.410  0.4335 -0.1393 -0.1764
 7737W        W11937   4.165   1.321   1.637  0.4651 -0.0584  0.1602
 7738W        W11938   0.510   0.442  11.247 -0.0561  0.1501  0.3204
 7739W        W11939   5.139   3.031  12.014 -0.1765  0.1592  0.1858
 7740W        W11940   9.799   9.061   9.796  0.3698 -0.2160 -0.2510
 7741W        W11941   2.729   5.879  12.707  0.0386  0.1914  0.1986
 7742W        W11942   1.121   6.683   0.429 -0.1404  0.1424  0.0733
 7743W        W11943   0.314   4.780   0.190  0.3504 -0.2882 -0.1110
 7744W        W11944   2.642   2.931  10.356  0.0127 -0.1768 -0.1857
 7745W        W11945   5.959   4.114   5.246  0.0417  0.3304 -0.3902
 7746W        W11946   7.675  10.062   1.715  0.1833 -0.1209 -0.2162
 7747W        W11947   3.092   3.657   2.511  0.1847 -0.0549  0.2452
 7748W        W11948   9.162   9.785  12.950  0.3282 -0.0318 -0.0433
 7749W        W11949   9.527   2.517   4.630 -0.0731  0.0343 -0.0044
 7750W        W11950   8.301   1.887  11.072  0.0277 -0.0734 -0.0782
 7751W        W11951  10.323   0.289   2.129 -0.0062 -0.5635  0.2723
 7752W        W11952   4.463   1.021  11.114  0.0597  0.2882  0.0854
 7753W        W11953   0.488   0.998  12.561 -0.1787  0.2957  0.0866
 7754W        W11954   0.158   3.687   4.453 -0.1630  0.4364  0.2056
 7755W        W11955   5.525   0.994   9.075  0.0798  0.3065 -0.1035
 7756W        W11956   8.223   7.199   2.471 -0.1335 -0.1862 -0.0006
 7757W        W11957   6.005   1.882  11.458  0.2317  0.0579 -0.0703
 7758W        W11958   1.507   3.337  10.411 -0.2025 -0.1062 -0.0697
 7759W        W11959   0.239   1.966   3.565 -0.0510  0.0946 -0.1545
 7760W        W11960   6.287  10.373   0.666  0.0137  0.3038  0.1864
 7761W        W11961   2.042   4.703   9.014 -0.2929  0.1032 -0.1234
 7762W        W11962   2.053   8.418   1.496  0.0866  0.2187  0.0318
 7763W        W11963   5.568   4.044   1.204 -0.1650  0.1627  0.1042
 7764W        W11964   6.764   1.777   4.709 -0.3791 -0.1965 -0.1065
 7765W        W11965   3.477   2.406  12.422  0.0113  0.0549 -0.0544
 7766W        W11966   1.811   0.028  11.800  0.0086 -0.0314  0.3240
 7767W        W11967   2.315   6.928   0.066 -0.0177  0.1120  0.2873
 7768W        W11968   3.796   5.455   2.962  0.1033 -0.3234  0.1744
 7769W        W11969   5.355   0.907   0.430 -0.3304  0.3742  0.0669
 7770W        W11970   2.455   2.181   3.393  0.3535  0.0163 -0.0702
 7771W        W11971   7.924   0.437  12.422  0.0961 -0.1315  0.1320
 7772W        W11972   2.798   3.284   9.636  0.0809  0.2391  0.2445
 7773W        W11973   3.442   8.637  11.619  0.1935  0.1693 -0.2559
 7774W        W11974   0.993   6.756  13.309  0.1652 -0.0660 -0.2778
 7775W        W11975   2.255   5.563   9.296  0.0830  0.2148  0.1217
 7776W        W11976   0.539   6.004  10.667 -0.2631  0.1721  0.0420
 7777W        W11977   8.288   7.995  12.345 -0.0661 -0.2965 -0.0057
 7778W        W11978   0.904   5.629  13.102 -0.1896 -0.0826 -0.0023
 7779W        W11979  10.375   8.877  12.838  0.1924 -0.3314 -0.0315
 7780W        W11980   9.701   1.594   9.935 -0.1431 -0.2484  0.0019
 7781W        W11981   3.541   0.120   2.700  0.0598 -0.1183 -0.3956
 7782W        W11982   2.616   8.356  10.463  0.0161 -0.0657 -0.2986
 7783W        W11983   2.709   0.337  10.620  0.0691  0.0395 -0.3587
 7784W        W11984   5.115   2.984  10.238 -0.0861 -0.2522 -0.1731
 7785W        W11985   6.471   8.901  13.045  0.1336 -0.0989 -0.1235
 7786W        W11986   5.940   1.366   4.370 -0.0687 -0.0736 -0.1029
 7787W        W11987   1.617   6.035   1.834  0.1470  0.2796 -0.0718
 7788W        W11988  10.352   5.585   4.372  0.0846  0.3562  0.0426
 7789W        W11989   6.093   9.118  11.132  0.0078 -0.1912  0.3481
 7790W        W11990   6.841   6.896   0.005  0.0766  0.3174 -0.1479
 7791W        W11991   7.033   7.459   9.723  0.2606 -0.0333  0.2048
 7792W        W11992   9.722   4.160   1.083  0.1201 -0.4094 -0.0902
 7793W        W11993   4.323   5.473   3.349 -0.0907 -0.0760  0.0705
 7794W        W11994  10.022   2.265  11.822  0.0079 -0.0620  0.1151
 7795W        W11995   3.198   8.596  10.749 -0.0444 -0.0078  0.1981
 7796W        W11996   7.881   2.372   1.748 -0.0840  0.2157  0.3234
 7797W        W11997   3.542   9.583  11.578 -0.1463 -0.1476 -0.0227
 7798W        W11998  10.149   2.422  10.309  0.2618  0.1085 -0.1060
 7799W        W11999   5.421   1.286   9.665 -0.0808  0.1945 -0.1495
 7800W        W12000   4.171   3.845   8.685 -0.2838  0.0482  0.2502
 7801W        W12001   9.296   8.092  13.267 -0.1326 -0.2396  0.4047
 7802W        W12002  10.347   4.054   9.566 -0.2754  0.0319  0.0352
 7803W        W12003   1.164   9.132   2.481  0.2261  0.1806  0.0587
 7804W        W12004   5.475  10.048   3.064 -0.2180  0.2028 -0.0308
 7805W        W12005   7.083   6.315   0.061  0.1830 -0.0275  0.1488
 7806W        W12006   4.790   7.858   2.200 -0.3161 -0.0994  0.0428
 7807W        W12007   6.902   2.278  11.295  0.1075  0.0222 -0.4022
 7808W        W12008   1.569   6.690  11.767 -0.0218 -0.0244  0.2558
 7809W        W12009   7.344   1.263   8.430 -0.1056 -0.1950 -0.2803
 7810W        W12010   0.382   4.807  10.184 -0.0662  0.0154  0.0118
 7811W        W12011   8.748   6.263   4.124 -0.1823 -0.0054 -0.4035
 7812W        W12012   9.088   1.235   0.813  0.0832  0.0023  0.1469
 7813W        W12013   0.940   8.663  10.965 -0.0432 -0.0407 -0.3847
 7814W        W12014   0.839   0.963   2.696  0.2130 -0.1680 -0.0930
 7815W        W12015   9.050   9.204   9.680 -0.1782  0.2588 -0.1437
 7816W        W12016   7.435   5.473   1.271  0.1028  0.0781 -0.2728
 7817W        W12017   6.413   3.539   1.534  0.1181 -0.0113 -0.1033
 7818W        W12018   1.242   4.869   3.435 -0.3188 -0.0431  0.0990
 7819W        W12019   7.024   3.496   4.388 -0.0327 -0.5511 -0.0069
 7820W        W12020   6.986   4.571   2.165  0.1946 -0.1247 -0.0865
 7821W        W12021   7.065   1.541   1.052  0.3372  0.0689  0.2116
 7822W        W12022   8.514   5.139   9.741  0.1266 -0.0088 -0.0165
 7823W        W12023   1.612   9.472  12.893  0.0065 -0.1011  0.1711
 7824W        W12024   2.153   7.582   9.842 -0.0098  0.2137 -0.1973
 7825W        W12025   9.758   0.016   2.267  0.0605  0.0950 -0.0908
 7826W        W12026   2.157  10.354   0.715 -0.0919  0.0738 -0.3535
 7827W        W12027   7.911   4.379   3.391 -0.0760 -0.1545  0.2988
 7828W        W12028   3.960   3.803   2.870 -0.2353 -0.0453 -0.0616
 7829W        W12029   4.140   0.546   1.025 -0.1724 -0.1543  0.0194
 7830W        W12030   2.187   4.863   2.428  0.0733 -0.2857  0.0394
 7831W        W12031   8.395   3.575  12.771 -0.1304 -0.1176  0.1266
 7832W        W12032   3.583   9.386  10.182  0.0574 -0.0454  0.2684
 7833W        W12033   9.887   5.782  13.380  0.0984 -0.1272  0.1826
 7834W        W12034   8.593   3.001   3.613 -0.0485  0.0793 -0.2141
 7835W        W12035  10.386   4.936  11.839 -0.1360 -0.2229  0.1111
 7836W        W12036   3.438   0.095  10.872 -0.2548 -0.1095  0.3216
 7837W        W12037   3.006   8.607  11.936 -0.0115 -0.0588 -0.0700
 7838W        W12038   6.318   8.150   9.743 -0.1244 -0.1679  0.0261
 7839W        W12039   9.503   5.978   3.721 -0.0888 -0.2215  0.0724
 7840W        W12040   0.949   9.328  11.710 -0.4157 -0.0849  0.2511
 7841W        W12041   9.773   6.365  10.723 -0.0105 -0.0479 -0.2850
 7842W        W12042   5.553   2.055  11.341 -0.1679 -0.0515  0.0475
 7843W        W12043   5.418   0.139   1.045  0.1878  0.1264  0.0257
 7844W        W12044   5.014   2.437   9.305  0.1329  0.0798  0.1350
 7845W        W12045   4.687   8.673  11.870  0.0481  0.2136  0.0360
 7846W        W12046   7.403   1.580   3.511  0.0103  0.0471  0.1872
 7847W        W12047   8.558   3.014   1.157  0.0180  0.1661 -0.0086
 7848W        W12048   8.157   3.363   1.336  0.0144  0.0070 -0.0061
 7849W        W12049   8.386   6.015   5.173  0.2518  0.2476 -0.0012
 7850W        W12050   5.494   8.268  12.176  0.1245  0.1381  0.0702
 7851W        W12051   3.225   2.125  11.208  0.1803  0.3620 -0.2255
 7852W        W12052   5.776   9.147  11.639 -0.1616 -0.1803  0.1158
 7853W        W12053   5.489  10.263   1.424 -0.2032  0.1367 -0.1191
 7854W        W12054   4.455   3.083   0.305  0.4438  0.2030 -0.0430
 7855W        W12055   5.533   6.326   2.364  0.0596 -0.1972  0.1528
 7856W        W12056   4.218   0.301   0.561 -0.0624 -0.4151  0.1315
 7857W        W12057   0.583   0.848   3.649 -0.2734 -0.2595  0.1130
 7858W        W12058   4.419   5.193   5.232  0.0300 -0.2162  0.2033
 7859W        W12059   6.852   0.276   1.785 -0.0412 -0.2301 -0.1677
 7860W        W12060   5.703   8.810   3.627  0.0492 -0.2764  0.2695
 7861W        W12061   6.740   4.921   9.353  0.4343 -0.1174 -0.0884
 7862W        W12062   1.412   4.270   5.073  0.2471  0.2387  0.3298
 7863W        W12063   3.812   1.709   2.852 -0.1039 -0.3275 -0.2516
 7864W        W12064   0.978   5.361   2.754  0.1143 -0.2782 -0.2075
 7865W        W12065   6.627   3.052   9.304 -0.2522  0.0888 -0.1309
 7866W        W12066   5.047   5.073  11.766  0.0029  0.0800  0.0054
 7867W        W12067   1.424   7.916  10.313 -0.0231 -0.2552  0.3321
 7868W        W12068   3.897   4.214   3.211 -0.0616 -0.1706  0.0431
 7869W        W12069   9.912   0.815   9.908  0.0631 -0.0991 -0.1434
 7870W        W12070   0.856   2.131  13.156  0.0233 -0.0142 -0.0292
 7871W        W12071  10.044   3.553   0.685 -0.1753 -0.0589 -0.0962
 7872W        W12072   3.507   6.761   8.941  0.0512  0.0030 -0.0375
 7873W        W12073   6.701   6.912  11.348  0.0265 -0.2754  0.0146
 7874W        W12074   3.212   3.356  12.960  0.0199  0.0675 -0.2501
 7875W        W12075   7.380   4.228   9.746 -0.3343 -0.0399 -0.3136
 7876W        W12076   0.095   0.824  12.102  0.0580  0.0139 -0.1134
 7877W        W12077   3.699   1.228   2.819  0.0281  0.1751 -0.4612
 7878W        W12078   3.684   9.959   1.533 -0.1246 -0.1267 -0.0212
 7879W        W12079   3.944   0.347   4.044  0.0375 -0.1502 -0.0642
 7880W        W12080   4.386   1.356   9.157  0.1395  0.1654  0.0778
 7881W        W12081   8.915   1.170   1.953  0.3260 -0.0244 -0.1167
 7882W        W12082   2.339   5.423   9.771 -0.1786 -0.2000 -0.2139
 7883W        W12083   5.362   3.664   0.917 -0.0222 -0.0915  0.2454
 7884W        W12084   4.861   8.303   2.588  0.3301 -0.2391 -0.3189
 7885W        W12085   7.895   8.711   5.279 -0.1475 -0.2085 -0.0101
 7886W        W12086   4.776   9.806  12.331  0.2365  0.2130 -0.1640
 7887W        W12087   4.773   8.504   1.099  0.3583  0.3494 -0.5184
 7888W        W12088   8.016   2.866   1.804  0.2762  0.1166  0.2719
 7889W        W12089   7.312   4.465   4.865  0.4119 -0.4899  0.2659
 7890W        W12090   5.838   0.862   9.467 -0.1355  0.0822  0.2708
 7891W        W12091   1.304   7.340  12.796 -0.0909 -0.0049 -0.3111
 7892W        W12092   9.991   2.094   2.058 -0.1157 -0.0372 -0.0878
 7893W        W12093   5.555   9.695  12.851 -0.1358 -0.4545  0.0186
 7894W        W12094   9.301   7.846   1.800  0.1939 -0.0565  0.2942
 7895W        W12095   7.570   5.229  11.155  0.0496  0.1506  0.2009
 7896W        W12096   5.911   4.870   9.375 -0.2146  0.3730 -0.1227
 7897W        W12097   3.614   3.474  11.706  0.1050  0.1360 -0.1222
 7898W        W12098   0.707   3.692   3.324 -0.0502  0.0863 -0.2822
 7899W        W12099   8.642   1.354   9.779 -0.0136 -0.0026 -0.0253
 7900W        W12100   1.614   1.830  10.962  0.1888 -0.3042  0.0482
 7901W        W12101   3.687  10.069   4.018  0.2224  0.0978  0.0122
 7902W        W12102   7.647   5.851  11.915 -0.0831  0.1405 -0.2253
 7903W        W12103   2.258   5.011  12.402  0.3781  0.2295  0.1284
 7904W        W12104   8.783   4.055   4.857 -0.0537 -0.0834  0.0186
 7905W        W12105   9.608   5.910  12.615 -0.2370  0.0156  0.0626
 7906W        W12106   5.585   3.415  10.736 -0.1589 -0.0907  0.3730
 7907W        W12107   9.819   9.692   4.570 -0.0570  0.2115 -0.2324
 7908W        W12108   0.198   8.093   1.169  0.0133  0.0861  0.4572
 7909W        W12109   5.750   8.899  10.795 -0.4054  0.0309  0.0608
 7910W        W12110   0.374   9.075  12.745 -0.2129 -0.2165  0.1537
 7911W        W12111   0.675   4.303  12.123 -0.1330  0.3553 -0.0842
 7912W        W12112   5.345   1.956  12.258 -0.0277 -0.1366 -0.0179
 7913W        W12113   3.969   2.639   3.226 -0.0323  0.1708  0.1531
 7914W        W12114   4.031   2.935  12.964 -0.0776 -0.1883 -0.0330
 7915W        W12115   0.709   3.424  11.880 -0.0168  0.1507 -0.0992
 7916W        W12116   5.845   6.621   4.582 -0.0103  0.3618  0.0207
 7917W        W12117   5.721   3.609   4.265 -0.1204 -0.0282 -0.1745
 7918W        W12118   9.307   5.452   9.910 -0.0247 -0.2844 -0.0864
 7919W        W12119   5.349   5.850  11.287 -0.1438 -0.0976  0.0803
 7920W        W12120   8.554   8.494   9.110  0.0413  0.0286  0.4926
 7921W        W12121   3.497   3.811  12.010  0.1405 -0.1143  0.0636
 7922W        W12122   7.930   6.444   3.416  0.0181  0.2617 -0.3104
 7923W        W12123   9.681   0.534   3.502 -0.0575 -0.2781 -0.1794
 7924W        W12124   5.279   5.574  12.442  0.3022  0.2176 -0.1922
 7925W        W12125   3.806   9.443   0.811  0.1376  0.0658  0.0758
 7926W        W12126   9.667   3.519   0.329 -0.0394 -0.0428 -0.1185
 7927W        W12127   7.291   3.505   3.797 -0.0777  0.0542 -0.0006
 7928W        W12128   9.563   9.972  12.594 -0.2618 -0.3285 -0.1079
 7929W        W12129  10.370   9.722  10.794 -0.2857 -0.0668  0.1055
 7930W        W12130   3.610   0.946  10.635  0.0869  0.2148  0.4092
 7931W        W12131   5.885   1.374   9.306  0.0437  0.0819  0.2172
 7932W        W12132   1.507   4.673   9.875 -0.0857  0.3071  0.0126
 7933W        W12133   0.203   6.194   0.089  0.2038  0.0424  0.2943
 7934W        W12134   9.971   6.287   9.830 -0.0251 -0.1945  0.3056
 7935W        W12135   7.216   0.725  13.290  0.0226 -0.1861 -0.1502
 7936W        W12136   8.609   6.992   0.200  0.3796 -0.1473 -0.1683
 7937W        W12137   5.047   7.889   1.707  0.1430  0.2355  0.0511
 7938W        W12138   8.015   3.343   9.727 -0.3576  0.1357  0.1314
 7939W        W12139   6.399   1.334  11.030  0.0573  0.0539  0.2665
 7940W        W12140   0.222   3.608  10.934 -0.1078  0.2964  0.1948
 7941W        W12141   9.743   2.269   3.029 -0.0139 -0.0087  0.2606
 7942W        W12142   7.756  10.380   2.970  0.1786 -0.1847  0.2647
 7943W        W12143   2.220   9.777   0.654  0.0049  0.2234 -0.0981
 7944W        W12144   4.497   5.006  10.261  0.1770 -0.0404  0.0103
 7945W        W12145   0.707   5.681  12.562 -0.3095  0.0205  0.3860
 7946W        W12146   1.723   4.627   3.898 -0.0042 -0.3025 -0.0853
 7947W        W12147   5.436   4.975   1.190  0.1250 -0.0838 -0.0988
 7948W        W12148   9.140   9.461   0.051  0.4636 -0.1534  0.2382
 7949W        W12149   7.588   6.953  10.771  0.1618  0.2178  0.1943
 7950W        W12150   8.688   9.409   2.142 -0.0953  0.1272 -0.1997
 7951W        W12151   9.531   6.415   2.842  0.2761 -0.2778  0.2245
 7952W        W12152   2.186   6.241   8.485  0.1563  0.2210 -0.0890
 7953W        W12153   4.408   2.260   1.315  0.3347 -0.1161  0.4066
 7954W        W12154   5.824   0.909   0.493  0.1971  0.2154 -0.1614
 7955W        W12155   6.439   6.998   2.205 -0.0430 -0.1689 -0.2422
 7956W        W12156   7.878   0.490   1.919  0.1549  0.1953  0.3499
 7957W        W12157   9.003   9.754   1.941 -0.0352 -0.0222  0.0268
 7958W        W12158   7.526   9.844  12.044 -0.3754  0.0259 -0.1205
 7959W        W12159   5.751   8.809   8.772 -0.3450 -0.1942 -0.2391
 7960W        W12160   6.817   5.612  11.562  0.0862  0.1615 -0.2183
 7961W        W12161   2.777   7.613  11.075  0.3424 -0.0732  0.1087
 7962W        W12162   2.808   5.999   0.892 -0.0908 -0.2740 -0.2835
 7963W        W12163   1.167   0.681   0.098  0.1313  0.1343  0.1044
 7964W        W12164  10.037   2.401   0.517 -0.3560 -0.2696 -0.0735
 7965W        W12165   9.309   3.732   9.675 -0.1995 -0.0181 -0.0608
 7966W        W12166   8.691   3.526  11.645 -0.0047  0.0381  0.0835
 7967W        W12167   7.914   6.004  12.342  0.0008 -0.0350  0.1504
 7968W        W12168   5.819   6.933  12.661  0.1736 -0.3168  0.1990
 7969W        W12169   5.741   3.628   2.364 -0.4325 -0.0180 -0.0759
 7970W        W12170   4.238   5.939  12.577 -0.0547 -0.1671  0.0622
 7971W        W12171   8.995   5.307   2.343  0.0240 -0.0354 -0.0405
 7972W        W12172   7.310   7.968  12.281  0.2807 -0.2995 -0.2063
 7973W        W12173   6.594   7.362  11.982 -0.0497 -0.0204 -0.1135
 7974W        W12174   8.194   8.215   0.636 -0.1142 -0.0464  0.1576
 7975W        W12175   5.567   2.209   1.981  0.0003  0.2784 -0.1835
 7976W        W12176   8.692   4.201  12.128  0.1058  0.2856 -0.2180
 7977W        W12177   6.835   4.807  10.661  0.1477 -0.0016  0.1547
 7978W        W12178   3.941   3.126   4.405 -0.0018 -0.1268  0.0358
 7979W        W12179   8.853   9.616   3.017 -0.0101  0.2109  0.0962
 7980W        W12180   8.318   5.719  12.363  0.3336 -0.1170  0.0929
 7981W        W12181   0.827   2.936   4.526  0.2349 -0.0375 -0.0038
 7982W        W12182   1.385   6.521  11.044  0.0539 -0.0550  0.1551
 7983W        W12183   8.469   0.965  12.918 -0.1140 -0.3349 -0.0423
 7984W        W12184   9.963  10.020   1.731 -0.0268 -0.3028  0.1037
 7985W        W12185   9.620  10.240   9.008  0.0870  0.4229  0.1838
 7986W        W12186   4.401  10.285   0.740 -0.0799  0.3384  0.0214
 7987W        W12187   9.305   3.432   4.639  0.0640 -0.2008 -0.1952
 7988W        W12188   4.988   2.760   9.778  0.0713 -0.1903  0.2137
 7989W        W12189   7.449   4.566   1.156 -0.1342  0.0316 -0.0638
 7990W        W12190   0.711   0.562   1.364 -0.2914  0.1786 -0.0768
 7991W        W12191   3.583   7.700   1.787  0.1814  0.3821  0.4052
 7992W        W12192   4.020   4.334   9.108  0.1666  0.0444  0.2473
 7993W        W12193   4.109   2.041  12.854  0.0529  0.2112  0.2178
 7994W        W12194   5.688   1.407   8.834 -0.1845 -0.3153  0.3518
 7995W        W12195   6.703   2.024   9.284  0.2243 -0.3585 -0.1623
 7996W        W12196   4.746   3.747   4.496 -0.0688 -0.1247 -0.0979
 7997W        W12197   0.465   7.490   3.541  0.1194 -0.2146  0.3243
 7998W        W12198   3.816   9.319   2.861 -0.3051  0.0148  0.0651
 7999W        W12199   6.706   2.673   3.483  0.2295 -0.0260  0.3444
 8000W        W12200   4.358   3.935   2.074  0.1307  0.1259  0.0703
 8001W        W12201   9.793   1.037   3.090  0.0780  0.0690  0.0081
 8002W        W12202   1.792   5.472   0.128  0.0275 -0.0835 -0.2208
 8003W        W12203   2.144   2.222   9.508  0.0399 -0.0053 -0.0010
 8004W        W12204   5.257   4.433   1.251  0.1675 -0.1527 -0.3303
 8005W        W12205   6.144   1.025   1.691  0.0390 -0.1839  0.3668
 8006W        W12206   2.135   0.388   1.346  0.0013  0.1921 -0.0844
 8007W        W12207   4.653   4.348  11.876 -0.4617  0.0015 -0.1687
 8008W        W12208   9.696   3.915   0.665  0.0834 -0.4316 -0.0629
 8009W        W12209   9.066   0.351  10.302 -0.0091 -0.2526 -0.4012
 8010W        W12210   9.728   7.313  10.860 -0.0822 -0.0633  0.1772
 8011W        W12211   7.745   8.726   9.325  0.2509  0.1231 -0.3453
 8012W        W12212   3.480   4.678  10.296 -0.1127 -0.0176 -0.1062
 8013W        W12213   3.292   9.000   0.503  0.0759 -0.0438  0.0032
 8014W        W12214   7.040   5.299   0.917 -0.0269  0.0341  0.0070
 8015W        W12215   3.613   3.159   9.979  0.3666  0.2490  0.0746
 8016W        W12216  10.373   9.374  12.650 -0.2279 -0.0996  0.0523
 8017W        W12217   8.331   1.814  13.119 -0.1603 -0.0844  0.0727
 8018W        W12218   4.221  10.160  11.298  0.0786  0.1311 -0.4704
 8019W        W12219   5.207   9.563  12.249 -0.0829 -0.0050  0.1427
 8020W        W12220   4.918   4.786  13.024  0.1652 -0.1255  0.1147
 8021W        W12221   9.875   8.372   1.277  0.6537 -0.2586  0.2124
 8022W        W12222   0.888   0.724  12.675 -0.2264  0.5114 -0.3594
 8023W        W12223   2.894   0.097  11.589 -0.3040  0.0042  0.2035
 8024W        W12224   9.110   8.320   5.035 -0.2747  0.1385 -0.0953
 8025W        W12225   3.169   2.732  10.243 -0.2381 -0.0408 -0.0813
 8026W        W12226   5.731   4.539   1.520  0.1013  0.3670  0.0715
 8027W        W12227   2.709  10.378   1.426 -0.0414  0.1779  0.0174
 8028W        W12228   2.624   9.770   2.371  0.0814 -0.2932 -0.1458
 8029W        W12229   7.135   4.845   2.589  0.0676  0.1264  0.1319
 8030W        W12230   0.283   1.412   0.467 -0.1181  0.2148 -0.0903
 8031W        W12231   5.268   7.246  11.832 -0.1356  0.0317  0.0912
 8032W        W12232   8.905   5.123  12.465  0.0140 -0.1841  0.0768
 8033W        W12233   8.376   2.168  10.231 -0.1708  0.3411  0.0374
 8034W        W12234   6.714   6.776   0.896  0.1049  0.0048 -0.0059
 8035W        W12235   3.414   6.702  11.878 -0.1325  0.0335 -0.3252
 8036W        W12236   2.515   0.050   2.814 -0.0728 -0.0283 -0.0710
 8037W        W12237   9.480   8.925  10.272  0.2931  0.0418  0.1408
 8038W        W12238   3.142   8.924  13.397 -0.2714  0.1498  0.0008
 8039W        W12239   8.988   9.902   2.598 -0.0600  0.0138 -0.3501
 8040W        W12240   4.729   3.276  10.311  0.0678 -0.1403  0.0081
 8041W        W12241   7.242   7.182   1.789 -0.0144 -0.1441  0.1559
 8042W        W12242   2.246   6.874   3.921 -0.0506  0.1566  0.1083
 8043W        W12243   9.851   2.328   3.593  0.1936  0.0588  0.2764
 8044W        W12244   5.871   0.083   1.675 -0.0690 -0.1797  0.2012
 8045W        W12245   0.694   0.205   2.392 -0.1362  0.3881 -0.2386
 8046W        W12246   6.249   3.698  11.162 -0.3168 -0.1663  0.3127
 8047W        W12247   6.529   3.679  11.682 -0.0109  0.3035 -0.0177
 8048W        W12248   5.873   3.521  10.230  0.0662 -0.1308  0.0568
 8049W        W12249   2.766   6.993   0.946 -0.1141  0.0651 -0.3362
 8050W        W12250   7.110   5.547  11.955 -0.1650 -0.3714  0.1123
 8051W        W12251   2.390   7.138  10.019  0.2540  0.1692  0.0354
 8052W        W12252   1.343  10.171  11.139 -0.3354  0.1335 -0.0573
 8053W        W12253   0.675   5.086   9.201 -0.1219 -0.1344 -0.0615
 8054W        W12254   9.662   0.290  11.456  0.1093 -0.3372  0.1732
 8055W        W12255   3.365   3.597  13.400 -0.1329 -0.2066  0.0293
 8056W        W12256   6.990   2.143  10.726 -0.2485 -0.0197  0.1030
 8057W        W12257   3.993   6.848   4.107 -0.2949  0.3500  0.1283
 8058W        W12258   2.550   2.676  10.792  0.0839 -0.0810 -0.1629
 8059W        W12259   6.752  10.250   0.595  0.1149  0.1352 -0.1862
 8060W        W12260   2.469   2.865  11.311  0.3024 -0.0610  0.0219
 8061W        W12261   4.405   6.595   0.606  0.0338 -0.2131 -0.0823
 8062W        W12262   0.721   4.038  12.604  0.3107  0.0360 -0.1345
 8063W        W12263   9.847   8.911  10.732  0.4677 -0.0625 -0.0691
 8064W        W12264   9.931   9.408   0.150 -0.0469  0.2436 -0.3205
 8065W        W12265   5.718   6.327   3.432 -0.2916  0.2208 -0.1130
 8066W        W12266   4.829   4.357   1.478  0.2169 -0.3056  0.1662
 8067W        W12267   9.319   8.657  11.154  0.0740 -0.1906  0.0217
 8068W        W12268   0.738   6.540  11.948 -0.0878  0.1551 -0.2541
 8069W        W12269   8.401   8.479  10.903  0.1195  0.0410  0.0699
 8070W        W12270   5.112   0.599  11.575 -0.0840 -0.2043  0.1473
 8071W        W12271   1.881   5.129   9.904 -0.1084 -0.1044  0.1601
 8072W        W12272   8.800   3.568   4.677  0.0993 -0.2103 -0.1164
 8073W        W12273   2.849   6.556  13.395 -0.0668 -0.0964  0.4329
 8074W        W12274   7.741   8.254   9.610 -0.1477 -0.1765 -0.0128
 8075W        W12275  10.447   0.928   9.976  0.2324  0.0452 -0.0842
 8076W        W12276  10.132   5.108   4.678 -0.1850 -0.2673 -0.1183
 8077W        W12277   5.819   0.170   9.159  0.0702 -0.0313  0.2396
 8078W        W12278   2.185   3.671   1.799 -0.1730 -0.9222  0.0273
 8079W        W12279  10.132   2.183   1.392  0.0995 -0.1959 -0.1143
 8080W        W12280   6.216   5.419   5.264  0.2377  0.2661  0.1932
 8081W        W12281   5.747   1.443  12.430 -0.1485  0.1852  0.0828
 8082W        W12282   8.246   3.028  13.055  0.0420 -0.1210  0.3793
 8083W        W12283   1.377   6.125  12.582  0.0844  0.1946  0.2537
 8084W        W12284   5.922   2.149   3.747 -0.0871  0.3546 -0.0992
 8085W        W12285   1.318   3.285  12.792 -0.0141  0.0458  0.0082
 8086W        W12286   3.368  10.468   3.108 -0.0096  0.2613 -0.0776
 8087W        W12287   5.255   4.146   0.840 -0.4347  0.0977 -0.0939
 8088W        W12288   3.000   1.250  11.440 -0.1514 -0.1171 -0.0421
 8089W        W12289   2.702   5.439   4.279  0.2023  0.0709  0.1760
 8090W        W12290   6.520   8.779  12.093  0.0827  0.2923  0.1602
 8091W        W12291   4.772   1.694   3.509  0.1665  0.0737 -0.0427
 8092W        W12292   9.481   5.772  13.103 -0.4173  0.0196 -0.0326
 8093W        W12293   9.359   8.817   2.118  0.0994 -0.2272 -0.0510
 8094W        W12294  10.385   4.299   0.167 -0.0061  0.0744 -0.0803
 8095W        W12295   9.200  10.012   3.445  0.1657  0.3148 -0.2356
 8096W        W12296   9.481   6.063   0.921  0.2649 -0.1723 -0.2070
 8097W        W12297   7.647   5.885   8.546  0.0299 -0.1012 -0.2474
 8098W        W12298   2.415   8.991   3.394 -0.1904  0.1079 -0.1222
 8099W        W12299   4.487   7.802  11.476 -0.0220 -0.0662  0.0277
 8100W        W12300   9.433   4.992   3.860 -0.2109  0.2992  0.3703
 8101W        W12301  10.278   5.047   0.847 -0.0520 -0.0482  0.1494
 8102W        W12302   8.421   0.016   3.804  0.2016  0.1664  0.0574
 8103W        W12303   5.411   3.748  11.344 -0.1594 -0.2494  0.2458
 8104W        W12304   5.979   8.936   4.343 -0.1636  0.1715  0.1892
 8105W        W12305   3.258   0.313  11.874 -0.1491 -0.3187  0.1672
 8106W        W12306   5.514   6.312  10.049 -0.1520 -0.0700 -0.0407
 8107W        W12307  10.294   8.650  10.117  0.0906 -0.1516 -0.1824
 8108W        W12308   1.287   8.778  12.442  0.3191 -0.2638 -0.0715
 8109W        W12309   4.685   4.624  10.506 -0.1369  0.1337  0.1497
 8110W        W12310  10.383   3.554   1.086  0.0612  0.0321  0.0437
 8111W        W12311   4.568   3.658   9.618 -0.1261 -0.0679  0.2871
 8112W        W12312   4.750   9.263  10.320 -0.2357  0.0246 -0.0187
 8113W        W12313   1.814   1.610  11.423  0.3816  0.0470  0.1124
 8114W        W12314   3.848   7.901  13.162 -0.0293 -0.0052  0.0567
 8115W        W12315   1.557   9.456  12.372  0.1786 -0.1987  0.2552
 8116W        W12316   4.286   7.625  11.961  0.2243  0.1222 -0.1258
 8117W        W12317   8.669   0.501  11.624  0.1746 -0.0535  0.0725
 8118W        W12318   6.692   6.892  11.878 -0.3403  0.0255  0.3765
 8119W        W12319   4.982   5.841  11.638  0.2620 -0.1614 -0.1984
 8120W        W12320   9.566   5.060   9.782  0.4223  0.0053  0.4433
 8121W        W12321   1.592   8.440  10.273 -0.1780  0.0314 -0.1310
 8122W        W12322   5.022   8.304  12.379  0.0323 -0.0658  0.1821
 8123W        W12323   7.356   6.032   0.438 -0.1382 -0.0967  0.1275
 8124W        W12324   4.723   6.430   3.236 -0.0494 -0.2034  0.2726
 8125W        W12325   9.647   5.862  12.102 -0.1531  0.1003 -0.1490
 8126W        W12326   7.679   6.652   2.991 -0.0275 -0.5315  0.1073
 8127W        W12327   3.276   9.245   3.117  0.0059 -0.0720 -0.2159
 8128W        W12328   0.253   1.038   3.273 -0.1485 -0.2242  0.3060
 8129W        W12329   7.366   1.472  12.787  0.0970  0.3070  0.1423
 8130W        W12330   7.139   1.256   3.959  0.0080  0.0184 -0.0356
 8131W        W12331   0.507   8.049  11.839 -0.1951 -0.0470 -0.3021
 8132W        W12332  10.261   8.562  10.924  0.1268  0.3266 -0.0138
 8133W        W12333   5.569   9.827   8.458  0.0653 -0.0380 -0.0198
 8134W        W12334   7.629  10.134  11.579 -0.2640  0.0937 -0.0548
 8135W        W12335   6.806   9.050  11.762 -0.2611 -0.1076  0.0002
 8136W        W12336   2.125   6.644   2.547 -0.0418 -0.0489  0.1624
 8137W        W12337   2.456   1.963   9.891 -0.1728 -0.2311 -0.0200
 8138W        W12338   9.528   7.467   1.166 -0.0858 -0.1012  0.0725
 8139W        W12339   4.517  10.101   9.859 -0.0747  0.1060  0.0575
 8140W        W12340   5.380   9.075   2.650 -0.1307 -0.1052 -0.1492
 8141W        W12341  10.206   8.484  13.322 -0.0050 -0.1575 -0.3200
 8142W        W12342  10.408   0.188   0.759  0.2678  0.1865 -0.2680
 8143W        W12343   0.351   3.117   1.695  0.5567 -0.1990  0.0991
 8144W        W12344   1.868   5.671   9.956 -0.1345  0.0826 -0.1021
 8145W        W12345   7.270   6.614  11.934  0.1628  0.2338  0.1601
 8146W        W12346   2.850   5.238   3.295 -0.1744  0.4985 -0.2010
 8147W        W12347   0.531   9.269  10.423 -0.2752  0.2949 -0.3288
 8148W        W12348   8.230   4.526   1.582  0.1238 -0.1461  0.0028
 8149W        W12349   6.645  10.439   4.394  0.2036  0.0661  0.0022
 8150W        W12350   9.420   2.499  12.345  0.0786  0.0162  0.1369
 8151W        W12351   7.879   2.267   3.098  0.1739  0.0327  0.0615
 8152W        W12352   6.487   8.337  10.945  0.0600  0.0677 -0.5264
 8153W        W12353   3.671   3.511  11.164  0.1506 -0.1761 -0.1937
 8154W        W12354   2.165   4.424   9.905 -0.0392 -0.1498  0.0144
 8155W        W12355   6.387   8.327  13.398 -0.1647 -0.1245 -0.0429
 8156W        W12356   8.213   1.070   9.296 -0.2694 -0.2008  0.1691
 8157W        W12357   0.999   5.763   3.035  0.0281  0.1527  0.1968
 8158W        W12358   7.467   1.742  11.698  0.0243 -0.1741 -0.2660
 8159W        W12359   8.760   7.936   4.503  0.0076 -0.2434 -0.3334
 8160W        W12360   9.909   7.294   4.502 -0.0047  0.1771 -0.0183
 8161W        W12361   4.548   4.227   2.397 -0.1764 -0.1207  0.3602
 8162W        W12362   5.627   3.584   1.375 -0.0308  0.1911  0.3155
 8163W        W12363   8.067   1.334  12.946 -0.1570  0.0878 -0.5073
 8164W        W12364   4.740   1.210   3.657  0.0958  0.3597  0.2496
 8165W        W12365   7.400   8.151   1.850 -0.1077  0.2296  0.0934
 8166W        W12366   5.071   7.757   4.495  0.2621 -0.0949 -0.1107
 8167W        W12367   0.527   9.600  10.859 -0.0109  0.0364 -0.0931
 8168W        W12368   2.220   0.096   2.257 -0.1196  0.1917 -0.2925
 8169W        W12369   7.544   6.542  13.349 -0.3469 -0.1383  0.1965
 8170W        W12370   8.080   5.439   4.218  0.3047  0.0416 -0.3316
 8171W        W12371   4.551   1.728   3.986 -0.2371 -0.0123 -0.0394
 8172W        W12372   1.616   8.137  10.725  0.1779  0.2101 -0.3227
 8173W        W12373   4.618   8.787   2.711  0.1928 -0.3017 -0.1249
 8174W        W12374   5.358   3.997  12.424  0.1556  0.0564 -0.1364
 8175W        W12375   3.176  10.289  10.574  0.0912  0.1667  0.0580
 8176W        W12376   7.792   7.788  12.546 -0.0950  0.3043  0.1351
 8177W        W12377   6.974   7.920   3.124  0.0894 -0.1619  0.2192
 8178W        W12378   6.296   0.863  10.867 -0.0802  0.1075 -0.2063
 8179W        W12379   3.115   8.522   3.898  0.0415  0.2874 -0.1075
 8180W        W12380   7.006   5.831   0.099 -0.0931 -0.1853  0.0251
 8181W        W12381   4.384   5.502   2.275 -0.1793  0.3647  0.2198
 8182W        W12382   0.059   4.000  12.721  0.4514 -0.1745 -0.3573
 8183W        W12383   5.892   0.127  11.819 -0.3017  0.2693  0.1483
 8184W        W12384   5.600   9.983  13.231  0.2082  0.0006  0.2229
 8185W        W12385   9.490   2.468   9.060  0.5829 -0.2458 -0.1829
 8186W        W12386   0.262   6.624   0.335 -0.2380  0.0080  0.0444
 8187W        W12387   1.769   0.250  13.322 -0.0828  0.1418  0.4034
 8188W        W12388   0.649   6.561  10.476 -0.2915  0.2103  0.1650
 8189W        W12389   8.611   0.880   2.708 -0.1879  0.1164  0.1057
 8190W        W12390   4.358   4.648   5.086 -0.0423  0.3119  0.3355
 8191W        W12391   3.562   2.375   1.381 -0.1150 -0.0549  0.0317
 8192W        W12392   2.227   9.735  11.292 -0.0391  0.1165  0.2122
 8193W        W12393   4.159   9.086   1.557  0.3931 -0.1857 -0.1300
 8194W        W12394   3.642   1.317  11.479 -0.0524 -0.1187  0.0674
 8195W        W12395   1.648   8.517   0.791  0.0636 -0.0642 -0.0082
 8196W        W12396  10.104   1.780  11.553  0.0702  0.1785 -0.1101
 8197W        W12397   8.903   0.036  13.259 -0.0404  0.1487  0.0873
 8198W        W12398   0.319   5.337   9.500 -0.2538  0.2160 -0.0163
 8199W        W12399   5.732   6.822  11.230  0.0043  0.1770 -0.1500
 8200W        W12400   9.974   3.649   2.406 -0.0902 -0.3620 -0.3938
 8201W        W12401   1.387   4.520  10.940 -0.2834 -0.1218  0.3940
 8202W        W12402   2.490   1.712   2.934  0.0778  0.2126 -0.1887
 8203W        W12403   6.974   0.351   4.868 -0.1429  0.0457  0.0874
 8204W        W12404   1.679   7.862   0.398  0.2169 -0.1530  0.0846
 8205W        W12405   7.711  10.190  11.074  0.4547 -0.2033  0.3256
 8206W        W12406   3.809   1.814   4.097  0.3668  0.2294 -0.1063
 8207W        W12407   5.291   4.139   1.708 -0.2545  0.2860 -0.0700
 8208W        W12408   2.350   5.794   1.179  0.3299 -0.1799 -0.0651
 8209W        W12409   4.572   0.082  10.447 -0.0205 -0.0565 -0.1759
 8210W        W12410   2.131   4.876  10.342 -0.3930 -0.0956  0.0711
 8211W        W12411   6.131   0.885  13.161  0.0651 -0.1274 -0.1137
 8212W        W12412   4.188   3.750  13.053  0.1377 -0.3036 -0.1589
 8213W        W12413   4.233   6.688   2.404  0.4068  0.3516 -0.2507
 8214W        W12414   2.961   8.187  10.926  0.1484  0.1049  0.1255
 8215W        W12415   4.035   5.996   4.296 -0.2791  0.1476  0.2925
 8216W        W12416   5.473   9.751   4.105  0.1392  0.0464  0.4367
 8217W        W12417   1.436   4.865  11.956 -0.1249  0.0678  0.0627
 8218W        W12418   2.600   2.206  11.638  0.0712 -0.1197  0.0848
 8219W        W12419   5.709   9.075   4.764 -0.3792 -0.3665  0.0731
 8220W        W12420   5.243   2.141   0.176  0.1768 -0.0545 -0.0136
 8221W        W12421   4.812   2.694   2.195  0.1073 -0.2540  0.1210
 8222W        W12422   2.114   2.817  10.975  0.2375 -0.2017 -0.2172
 8223W        W12423  10.483   5.501  10.800  0.1142 -0.0082  0.5056
 8224W        W12424   2.916   0.623  10.280  0.0783 -0.1627 -0.1849
 8225W        W12425   7.874   9.697  11.378  0.0487  0.1225 -0.1808
 8226W        W12426   8.058   9.833   3.596 -0.1310  0.1775  0.0680
 8227W        W12427   5.217   5.474   9.410 -0.0662 -0.0206 -0.0103
 8228W        W12428   5.684   6.378  12.599 -0.0716 -0.0108  0.2716
 8229W        W12429   0.557   7.138  10.163 -0.0713  0.1925  0.0106
 8230W        W12430   7.658   0.496   9.024  0.2854 -0.3431  0.1617
 8231W        W12431   4.181   3.042   9.630 -0.0141 -0.0854  0.0523
 8232W        W12432   9.953   1.345   2.714  0.0280  0.0480 -0.1997
 8233W        W12433   0.937   1.438   0.354 -0.1048  0.1019 -0.0297
 8234W        W12434   0.009   3.720   0.576 -0.2465  0.0173  0.1296
 8235W        W12435   9.884   1.971   1.003 -0.0760  0.0353  0.1818
 8236W        W12436   2.246  10.039  13.236 -0.1854  0.0236 -0.1514
 8237W        W12437   6.368  10.132   0.239 -0.1558  0.1889  0.1733
 8238W        W12438   2.193   2.669   3.259 -0.1786  0.0702  0.0398
 8239W        W12439   2.672   4.300  10.698 -0.0850  0.0624  0.0744
 8240W        W12440   3.896   4.851   9.128  0.1287  0.2068  0.3603
 8241W        W12441   9.869   3.888  10.833  0.0856  0.2513  0.3189
 8242W        W12442  10.332  10.248  11.474  0.1338  0.0360  0.0404
 8243W        W12443   3.116   1.163   9.983  0.0035 -0.0315  0.0480
 8244W        W12444   6.450   1.947   8.749  0.1707 -0.2874  0.2904
 8245W        W12445   2.262   2.633  10.420  0.2942 -0.0856 -0.3694
 8246W        W12446   2.252   3.396   2.205 -0.3231  0.3393 -0.1040
 8247W        W12447   4.746   0.715   1.382  0.1984 -0.0039  0.1154
 8248W        W12448   4.791   7.369  10.505 -0.0210  0.1036 -0.0762
 8249W        W12449   2.170   4.100   9.412  0.0315  0.0012 -0.0879
 8250W        W12450   3.128   7.947  13.121  0.1782 -0.4028 -0.0286
 8251W        W12451   4.306   3.225  11.951  0.1783 -0.2929 -0.0369
 8252W        W12452   5.171   9.346  12.961 -0.0002 -0.1862 -0.3214
 8253W        W12453   8.336   4.826   3.206  0.1085 -0.1813  0.0856
 8254W        W12454   4.611   2.985  12.834  0.0519  0.0122  0.0829
 8255W        W12455   5.718   5.592   2.797  0.1839  0.0382 -0.1179
 8256W        W12456   5.004   0.103   1.411 -0.0997 -0.1034 -0.2383
 8257W        W12457  10.460   6.419   2.483  0.1809  0.1855  0.1154
 8258W        W12458   6.719   2.504   5.165  0.2089  0.0365 -0.3656
 8259W        W12459   0.586   1.018   0.625  0.1541 -0.1553 -0.0246
 8260W        W12460   8.015   5.407   9.695 -0.1587  0.0785 -0.1932
 8261W        W12461   4.184   5.796   3.745  0.2066  0.1369 -0.0666
 8262W        W12462   9.798   8.703   9.399 -0.0617  0.2216  0.1082
 8263W        W12463   9.261   9.366  10.141  0.0835  0.1002  0.0808
 8264W        W12464   2.600   0.782   3.634 -0.0900 -0.3063  0.0789
 8265W        W12465   4.413   8.994  12.804  0.1767 -0.1525  0.0480
 8266W        W12466   4.177   9.664   9.895 -0.3333  0.0304 -0.0055
 8267W        W12467   0.937  10.173   2.355 -0.0522  0.3167  0.1060
 8268W        W12468   8.802   9.969   9.633 -0.0782  0.2255  0.1546
 8269W        W12469   5.859   1.126  11.902 -0.1494  0.2252 -0.1274
 8270W        W12470   8.846  10.308  10.181  0.2049  0.1280  0.3082
 8271W        W12471   3.060   2.539   1.055 -0.0083 -0.1002 -0.0916
 8272W        W12472   7.685   4.009   3.098  0.2404  0.0567  0.0167
 8273W        W12473   6.332  10.160   2.431  0.3664 -0.0783  0.0418
 8274W        W12474   8.547   8.660   2.359 -0.0043  0.0799 -0.1030
 8275W        W12475   9.508   0.222   3.855 -0.1234 -0.0173 -0.0307
 8276W        W12476   9.907   3.162   8.615  0.2918  0.1329 -0.4003
 8277W        W12477   3.163   7.868   3.879 -0.1306  0.2533 -0.0843
 8278W        W12478   9.598   9.215   2.351  0.0540  0.2041  0.1655
 8279W        W12479   4.818   3.707   2.044  0.2790 -0.1607 -0.1553
 8280W        W12480   1.753   2.038   2.798 -0.2484 -0.4015  0.1331
 8281W        W12481   1.511   7.145  10.885 -0.3065  0.1488  0.0600
 8282W        W12482   4.887   4.159   8.987 -0.1572 -0.3226 -0.1969
 8283W        W12483   8.501   3.324   9.448  0.2890 -0.3372 -0.2397
 8284W        W12484   7.027   7.760   9.224 -0.1356  0.1726 -0.1390
 8285W        W12485   4.509   6.406   0.100 -0.1338 -0.4172  0.1239
 8286W        W12486  10.429   3.366   2.980  0.0339 -0.0626  0.5238
 8287W        W12487   3.656   7.780   4.003 -0.0232 -0.0252 -0.1530
 8288W        W12488   8.633   2.622  12.230  0.0661 -0.0603 -0.2011
 8289W        W12489   9.225   6.384   3.852 -0.0242 -0.2960 -0.2708
 8290W        W12490  10.426   0.550   2.499 -0.1746  0.2049  0.1131
 8291W        W12491   1.718   0.819   1.526  0.2395  0.0931 -0.1795
 8292W        W12492   7.400   3.496   1.299  0.0580 -0.0612 -0.0767
 8293W        W12493   1.196   1.848   2.881  0.1305  0.2132 -0.2082
 8294W        W12494   8.511   9.102   9.796 -0.1668 -0.0190  0.0200
 8295W        W12495   0.306   9.522   4.129  0.3766  0.1439 -0.1794
 8296W        W12496   1.238   9.107  11.129  0.0828 -0.1934  0.1340
 8297W        W12497   4.413   8.358   2.900  0.0122 -0.0345  0.3980
 8298W        W12498   7.766   3.748   9.531  0.1137  0.2625 -0.2915
 8299W        W12499   5.221   3.505  12.158  0.1541  0.3706 -0.3844
 8300W        W12500   3.041   9.857   1.844  0.0082 -0.2134 -0.2939
 8301W        W12501   0.682   2.918   3.390 -0.1590 -0.0099 -0.1066
 8302W        W12502   5.433   1.768  12.837  0.3723  0.0014 -0.1117
 8303W        W12503   3.000   9.626   2.710  0.0360  0.2919  0.0583
 8304W        W12504   7.120   9.392   0.641 -0.2512 -0.2508 -0.1121
 8305W        W12505   6.734   5.064   2.351  0.1716 -0.1683 -0.3016
 8306W        W12506   6.493   5.491   2.555  0.0006  0.1628 -0.3169
 8307W        W12507   5.007   7.945   5.343  0.1608 -0.0079  0.4607
 8308W        W12508   4.760   7.287   3.573 -0.2491  0.2169  0.1718
 8309W        W12509   2.763   2.422   3.774  0.0422  0.2915  0.4475
 8310W        W12510   9.676   5.874  10.725  0.1345 -0.0080 -0.0211
 8311W        W12511   2.481   3.102   3.038  0.2547  0.0860  0.0276
 8312W        W12512   9.225   3.224   1.716  0.0903  0.1177 -0.1865
 8313W        W12513  10.128   7.050  11.089  0.1689 -0.1806  0.1078
 8314W        W12514   6.588  10.457  10.542 -0.2385  0.0384 -0.0658
 8315W        W12515   8.370   7.116  12.694 -0.0807  0.0282 -0.1514
 8316W        W12516   9.064   6.246   3.028  0.0775 -0.1233 -0.2036
 8317W        W12517   9.932   4.097  12.116 -0.0907  0.1060 -0.2164
 8318W        W12518   0.721   5.736   8.470 -0.2020  0.1553  0.0397
 8319W        W12519   4.456   6.699  13.110 -0.1628 -0.2154 -0.1097
 8320W        W12520   3.764   5.666  12.092  0.0407 -0.1940 -0.0258
 8321W        W12521   5.814   3.448   9.741 -0.0174  0.1217  0.1026
 8322W        W12522   5.216  10.145  11.756 -0.0171 -0.3015 -0.1911
 8323W        W12523   4.485   0.900   1.845  0.2100  0.1631 -0.0761
 8324W        W12524   6.767   0.131   0.248  0.0463  0.0499  0.1895
 8325W        W12525   9.593   1.547   2.465  0.0061  0.0038  0.0747
 8326W        W12526   0.083   3.136  10.600 -0.5134 -0.1982  0.1230
 8327W        W12527   1.907   4.083   1.959  0.1150  0.1851  0.2461
 8328W        W12528   5.723   3.610  12.430 -0.2937 -0.1091 -0.1101
 8329W        W12529   2.956   5.414  11.950 -0.0277  0.0416  0.1902
 8330W        W12530   1.354   4.197   4.599  0.0449 -0.2012 -0.0204
 8331W        W12531   8.502   0.078   2.139 -0.0406  0.0108  0.1141
 8332W        W12532   7.305   5.845   9.819  0.1731  0.0485 -0.0371
 8333W        W12533   8.464   9.982   2.759  0.0303  0.2799  0.0890
 8334W        W12534   0.583   9.565   2.513 -0.0728  0.0330  0.1768
 8335W        W12535   2.686   6.881   0.452 -0.0704  0.1528 -0.1539
 8336W        W12536   2.950   9.034   3.944 -0.1999  0.0019  0.0070
 8337W        W12537   5.930   1.799  12.746  0.2429  0.0606 -0.1972
 8338W        W12538   8.517   2.698   4.424  0.0611 -0.3867  0.1426
 8339W        W12539   6.311   1.186   3.590  0.0913 -0.0898  0.1202
 8340W        W12540   8.171   2.128   2.098 -0.1541  0.2422 -0.1424
 8341W        W12541   5.371   9.874   9.631  0.2277  0.3802  0.2851
 8342W        W12542   8.161   4.012  12.310  0.1892 -0.1128  0.1095
 8343W        W12543   2.324   8.240  12.404  0.0544 -0.0883 -0.0043
 8344W        W12544   9.078   6.901   3.517 -0.0638 -0.0795  0.2174
 8345W        W12545   0.560   4.721   3.920  0.3659 -0.2877  0.0088
 8346W        W12546   0.118   5.995   9.875 -0.0729  0.0920 -0.1280
 8347W        W12547   9.504   7.763  11.721 -0.1892  0.1295 -0.1871
 8348W        W12548   6.767   1.768  12.506 -0.0276 -0.1007  0.3052
 8349W        W12549   6.325   3.642   2.180 -0.0087 -0.0703  0.0412
 8350W        W12550   0.717   0.848   1.810 -0.1164  0.2446  0.1468
 8351W        W12551   5.264   9.777  11.011  0.0338 -0.2786  0.3682
 8352W        W12552   9.466   3.881   2.650 -0.1525  0.0828  0.3027
 8353W        W12553   7.121   6.934   3.531  0.1141  0.2888 -0.1522
 8354W        W12554   3.647   7.479   2.953  0.0216 -0.1822 -0.2755
 8355W        W12555   9.090   4.566  12.206 -0.1791  0.1567 -0.1449
 8356W        W12556   2.043   1.201   2.533  0.1827  0.0739  0.1025
 8357W        W12557   4.241   0.506  11.415 -0.0321 -0.0398 -0.0433
 8358W        W12558   9.483   7.482  11.311 -0.1178  0.2254  0.2258
 8359W        W12559   5.565   3.928  10.400 -0.0966  0.3306  0.0306
 8360W        W12560  10.034   2.641   0.013  0.1215 -0.2373  0.0534
 8361W        W12561   5.491   3.306  11.662 -0.0829 -0.3872  0.2514
 8362W        W12562   2.553   0.620  12.411  0.0071  0.0027 -0.2030
 8363W        W12563   5.156   8.941   3.706 -0.0047  0.1352 -0.0911
 8364W        W12564   0.788   1.639   4.137 -0.1032 -0.0846 -0.1390
 8365W        W12565   8.046   4.875   1.049  0.1839  0.1729 -0.0509
 8366W        W12566   4.009   9.961   3.484  0.0785 -0.2668  0.2777
 8367W        W12567   0.477   3.551   0.442 -0.1126  0.0444 -0.5887
 8368W        W12568   7.821   3.687   1.234  0.1818  0.1077  0.0710
 8369W        W12569   6.919   3.983  10.965  0.2730 -0.0461 -0.1362
 8370W        W12570   3.434   4.873   3.435  0.1862  0.0152  0.4606
 8371W        W12571   9.332   8.628  10.632 -0.0247  0.2217 -0.0582
 8372W        W12572   4.543   7.854   2.746 -0.2341 -0.2688 -0.1718
 8373W        W12573  10.085   0.729  11.655 -0.1609 -0.0731 -0.1302
 8374W        W12574   2.105   4.848   0.610  0.1885 -0.2207  0.0094
 8375W        W12575   2.971   0.229   2.383  0.3209  0.1938 -0.0611
 8376W        W12576   8.530   5.841  10.789  0.1483 -0.4743  0.1808
 8377W        W12577  10.063   5.480   9.155 -0.3959  0.1638 -0.2445
 8378W        W12578   1.974  10.219   4.042 -0.1956 -0.1579  0.2862
 8379W        W12579   3.879   7.319  10.386  0.0660 -0.1675  0.3962
 8380W        W12580   7.855   5.694  10.525 -0.2839 -0.1498 -0.1682
 8381W        W12581   6.008   5.844  12.490 -0.0854  0.1197  0.0246
 8382W        W12582   0.375   2.623  12.369  0.1485  0.1261  0.3412
 8383W        W12583   1.243   5.808   4.612  0.2178 -0.0597  0.1507
 8384W        W12584  10.240  10.292   1.419  0.2123 -0.0603  0.0332
 8385W        W12585   4.669   0.805   2.896  0.1934  0.4712 -0.0226
 8386W        W12586  10.430   9.336   1.389  0.1003  0.1652  0.0136
 8387W        W12587   4.237   7.011  11.962 -0.3487 -0.0072  0.0121
 8388W        W12588   2.752   2.396  10.392 -0.0428  0.1096 -0.0803
 8389W        W12589   6.791   9.311   3.234 -0.0527 -0.1827  0.1970
 8390W        W12590   1.280  10.208   1.302  0.2849  0.0928 -0.2701
 8391W        W12591   9.114   9.534   9.314 -0.1508  0.0696 -0.0766
 8392W        W12592   9.290   1.145   3.938  0.2367 -0.1083  0.1009
 8393W        W12593   8.928   3.563   8.864  0.1022 -0.1381  0.1306
 8394W        W12594   1.902   6.622   0.190  0.1429  0.0804  0.3807
 8395W        W12595   6.309   2.257  11.432 -0.4335 -0.0078  0.0923
 8396W        W12596   7.244  10.258   3.560  0.1786 -0.2657 -0.0575
 8397W        W12597   5.502   0.767   4.693  0.3283  0.3303 -0.0817
 8398W        W12598   5.107   4.290  10.654 -0.2588 -0.3169  0.0093
 8399W        W12599   3.926   0.143  11.205  0.0010 -0.0800  0.0967
 8400W        W12600   1.678   3.618   1.808 -0.2688  0.2178 -0.1064
 8401W        W12601   0.342   4.865   2.348  0.2028  0.0636  0.3888
 8402W        W12602   5.500   7.730   1.889 -0.3212  0.1032 -0.0006
 8403W        W12603   1.079   5.544  11.290  0.0256 -0.1554  0.1425
 8404W        W12604   0.501   5.968   2.945 -0.3105  0.2371  0.1490
 8405W        W12605   2.902   8.398   1.340 -0.2263 -0.1370 -0.3861
 8406W        W12606   0.724   2.666  13.240 -0.1483  0.1406 -0.1247
 8407W        W12607   7.921   5.069   3.429 -0.1607  0.2725  0.1146
 8408W        W12608   6.917   8.111   4.326  0.1491  0.1554  0.2271
 8409W        W12609  10.437   2.597   1.257 -0.0276 -0.1876  0.0307
 8410W        W12610   8.300   0.443   1.075 -0.1096 -0.0391  0.1706
 8411W        W12611   6.975   9.017  13.070 -0.2464 -0.2502  0.2046
 8412W        W12612   2.599   2.987   2.424  0.0926  0.0311  0.0568
 8413W        W12613   3.709   0.467   2.344 -0.0094  0.1264  0.0339
 8414W        W12614  10.372   2.455  12.987  0.1810  0.4207  0.0701
 8415W        W12615   1.622   9.959  12.479 -0.0150  0.1849  0.4567
 8416W        W12616   9.673   7.945  11.314 -0.1169 -0.0605 -0.0339
 8417W        W12617   5.445   3.776   9.930  0.1823 -0.1884  0.0583
 8418W        W12618   8.029   9.627   1.586 -0.2779 -0.1506  0.4485
 8419W        W12619   3.555   4.168  12.465 -0.1153 -0.1761 -0.2284
 8420W        W12620   5.027   2.524   0.476 -0.0465 -0.0478 -0.0476
 8421W        W12621   7.333   7.731   3.424 -0.1832  0.3413 -0.3644
 8422W        W12622   2.930   7.135  13.349 -0.0472 -0.0341  0.0445
 8423W        W12623   8.937   2.849   4.047  0.3206  0.3153  0.1205
 8424W        W12624   7.590   0.718  10.868  0.0161 -0.0753 -0.0611
 8425W        W12625   9.776   7.976   8.555  0.1248 -0.0516 -0.0716
 8426W        W12626   0.350   3.211  12.977  0.2243 -0.1059 -0.3620
 8427W        W12627   0.114   2.366   4.511  0.2599 -0.2879 -0.1867
 8428W        W12628   3.448   8.298   2.176  0.2274  0.0491  0.2534
 8429W        W12629   5.042   9.540   9.466  0.0809 -0.2470 -0.3381
 8430W        W12630   9.805   8.211  13.136 -0.0030 -0.0894 -0.2130
 8431W        W12631   1.968   7.476   3.285  0.1725  0.0405 -0.0093
 8432W        W12632   5.190  10.360   9.763  0.0147 -0.0476  0.2643
 8433W        W12633   0.123   8.085  11.514 -0.2702  0.3306 -0.4409
 8434W        W12634   7.850   4.134  10.303 -0.0943  0.0723  0.1473
 8435W        W12635   2.950   2.235   1.560 -0.2851  0.0166 -0.0974
 8436W        W12636   8.924   1.946  12.914  0.1484  0.0164 -0.1047
 8437W        W12637   9.644   2.448   5.212 -0.1512  0.3960 -0.1176
 8438W        W12638   2.796   7.117  11.278 -0.2681  0.3639  0.0003
 8439W        W12639   1.529   9.286  11.554  0.1447 -0.0303  0.0405
 8440W        W12640   6.314   5.406  12.427 -0.1164  0.1327 -0.0243
 8441W        W12641   0.211   0.465   3.104  0.0464  0.2424  0.2877
 8442W        W12642   1.501   3.817  12.254  0.1028 -0.1022  0.0620
 8443W        W12643   7.687   5.486  10.085  0.2815  0.3175 -0.3214
 8444W        W12644  10.419   7.136  13.032 -0.0446  0.0149 -0.4090
 8445W        W12645   9.780   7.659   3.532  0.2761 -0.1307  0.1646
 8446W        W12646   5.781   5.653   4.027  0.0664  0.1769 -0.2828
 8447W        W12647   7.326   6.244   1.492 -0.0480  0.0798  0.1066
 8448W        W12648   4.211   6.000  10.477  0.0807  0.0317 -0.0726
 8449W        W12649   9.745   7.144   2.227 -0.2299  0.0135 -0.2177
 8450W        W12650   4.949   5.847  12.779  0.1594  0.1753  0.1918
 8451W        W12651   1.312   3.436   2.513 -0.0522 -0.2072 -0.1028
 8452W        W12652   8.902   9.465  12.281 -0.2692  0.2246  0.3637
 8453W        W12653   8.960   0.820  12.963 -0.0718  0.0145  0.2965
 8454W        W12654   3.633   8.156  11.768  0.0593  0.1839 -0.1007
 8455W        W12655  10.494   2.539   4.957  0.0309  0.0072 -0.1950
 8456W        W12656   5.902   2.847   3.503 -0.0725 -0.0540  0.0026
 8457W        W12657   3.263   5.842   1.540  0.0558 -0.0107 -0.1451
 8458W        W12658   7.449   4.152   0.099  0.0129  0.0739 -0.2216
 8459W        W12659   6.624   3.206  12.446  0.0788  0.1505 -0.2240
 8460W        W12660   3.515   6.489   1.101 -0.0462 -0.2071  0.0119
 8461W        W12661   3.825   3.038   3.942 -0.3033 -0.0443  0.0698
 8462W        W12662   5.930   9.717   9.635  0.0669 -0.2442 -0.0100
 8463W        W12663   1.883   8.512   9.868  0.1736 -0.0758  0.1254
 8464W        W12664   2.732   9.589  11.094  0.1898 -0.1380 -0.0088
 8465W        W12665   4.239   1.514  11.016  0.3199 -0.2314 -0.1492
 8466W        W12666   5.005   1.557  11.858  0.1345  0.0715  0.0385
 8467W        W12667   0.645   0.584   3.229  0.1817  0.0532  0.3817
 8468W        W12668   1.692   1.501   2.263 -0.1628  0.3571  0.1791
 8469W        W12669   2.328   6.472  13.334 -0.0556  0.0502 -0.2274
 8470W        W12670   0.263   1.113  10.651  0.1974  0.2704  0.0410
 8471W        W12671   6.442   2.493  12.198  0.0781 -0.4029 -0.2181
 8472W        W12672   3.614   1.501   4.482 -0.0551 -0.2194  0.0600
 8473W        W12673   7.077  10.453  10.391  0.2056  0.5029  0.1973
 8474W        W12674   0.199   4.134  11.526  0.3286  0.0392 -0.0557
 8475W        W12675  10.415   4.423  12.946  0.0476 -0.2939 -0.1471
 8476W        W12676   4.991   3.800   0.232 -0.0683  0.0640  0.1811
 8477W        W12677   9.723   3.975  11.325  0.2035 -0.4541 -0.0800
 8478W        W12678   8.667  10.320   4.709 -0.0759  0.1803  0.1522
 8479W        W12679   2.182   1.489   0.004  0.0399  0.2968  0.0650
 8480W        W12680   7.608   4.648   0.657  0.2820  0.1856  0.0154
 8481W        W12681   2.982   1.476   1.086 -0.0212  0.3191  0.1053
 8482W        W12682   8.130   7.830   1.550  0.1546 -0.4491 -0.3421
 8483W        W12683   8.582   7.574  11.361 -0.0688 -0.1293 -0.0057
 8484W        W12684   2.324   6.541   0.412  0.1305 -0.1271 -0.0357
 8485W        W12685   7.722   6.574  10.386 -0.0840 -0.1806  0.2263
 8486W        W12686   5.650   8.181   4.524 -0.2344  0.3006  0.0021
 8487W        W12687   2.557   4.846  11.190  0.1929  0.1437 -0.1588
 8488W        W12688   1.176   8.356  10.608 -0.0089 -0.0516 -0.1010
 8489W        W12689  10.190   5.255  11.347  0.0292  0.0683 -0.0508
 8490W        W12690   3.339   4.160   4.008  0.1579 -0.0151  0.0994
 8491W        W12691   5.060   3.766   3.190 -0.2651 -0.3506  0.0317
 8492W        W12692   4.594   3.822   2.996 -0.3916 -0.0507 -0.3730
 8493W        W12693   2.787   6.096   2.165  0.0007  0.4421  0.2115
 8494W        W12694   5.146   2.168  12.928  0.1394  0.0973 -0.0038
 8495W        W12695   2.574   2.670  12.697  0.1043  0.0494 -0.0892
 8496W        W12696   5.764   2.463  10.652 -0.1482  0.2456 -0.0399
 8497W        W12697   2.829   0.705   2.020  0.0746  0.1970 -0.1728
 8498W        W12698   7.975   3.138  11.301 -0.2090  0.2668 -0.2766
 8499W        W12699   2.630   1.300   2.733  0.1729 -0.4157 -0.2614
 8500W        W12700   5.779   5.800   0.369 -0.0203 -0.3107 -0.1503
 8501W        W12701   8.543   1.038  10.690 -0.1731 -0.2238  0.3446
 8502W        W12702   9.255   6.138  12.860  0.1236 -0.0484  0.1588
 8503W        W12703   5.428   5.572   4.364  0.2284 -0.2145  0.0830
 8504W        W12704   9.416   5.277   2.816  0.0437  0.0685  0.3670
 8505W        W12705   8.212   8.164   4.506  0.1423  0.2590  0.1366
 8506W        W12706   8.785   1.571   1.610  0.1289  0.1681 -0.1741
 8507W        W12707   9.422   4.379   2.460 -0.2069  0.0205 -0.2730
 8508W        W12708   0.981   2.160  10.172 -0.2835  0.1401  0.1002
 8509W        W12709   0.320   8.185   2.887 -0.4969  0.3155 -0.3315
 8510W        W12710   4.046   4.198   4.997  0.3205  0.0022  0.0306
 8511W        W12711   6.002   0.485   4.514 -0.1237  0.0856 -0.0812
 8512W        W12712   2.189   9.699   2.153 -0.0165 -0.2549  0.2648
 8513W        W12713   8.090   0.912  10.928  0.1645 -0.1554  0.0121
 8514W        W12714   1.013   9.656   0.590  0.0000 -0.1132 -0.4098
 8515W        W12715   6.294   5.693   2.143 -0.0749 -0.1329 -0.0755
 8516W        W12716   6.997   1.577   2.056 -0.3691 -0.2778  0.2013
 8517W        W12717   1.845   3.562   0.240 -0.0266  0.0265  0.1531
 8518W        W12718   7.148   2.020   0.876 -0.1867  0.0534 -0.2415
 8519W        W12719  10.374   2.823   1.729  0.0158  0.0619 -0.0248
 8520W        W12720  10.260   4.798   0.059 -0.0826 -0.0183  0.1735
 8521W        W12721   6.214   0.190   2.793  0.1162  0.1332  0.0399
 8522W        W12722   6.108   1.815   4.141  0.1379 -0.2500 -0.1489
 8523W        W12723   8.569   2.255   9.131 -0.2474  0.0299  0.3091
 8524W        W12724   4.449   5.891  13.041  0.0597  0.0801 -0.0212
 8525W        W12725   6.608   8.121   3.849  0.0299  0.0802 -0.2198
 8526W        W12726   1.580   4.807   0.726 -0.2575 -0.0236  0.0400
 8527W        W12727   5.819   5.764  11.414  0.0365  0.1268 -0.0701
 8528W        W12728   8.350   3.785  11.926 -0.2219 -0.0963 -0.4952
 8529W        W12729   1.514   0.772   3.371 -0.1535  0.0221  0.2875
 8530W        W12730   0.624   4.322   0.163  0.0632 -0.0049  0.1084
 8531W        W12731   5.520   2.658   0.982  0.3503  0.1060  0.2329
 8532W        W12732   2.752   7.031  10.395  0.1302 -0.2221  0.3472
 8533W        W12733   6.503   4.980   8.911  0.0598  0.1279  0.2080
 8534W        W12734   1.780   7.648  12.926 -0.1312 -0.1131  0.2685
 8535ION    NA+12735   7.468   0.350   2.230  0.3196  0.0945 -0.0604
 8536ION    NA+12736   3.467   2.327   0.057 -0.2666  0.1607  0.2760
 8537ION    NA+12737   6.988   1.048   2.990  0.0876 -0.1890  0.2700
 8538ION    NA+12738   7.006   4.335  11.411 -0.0624  0.0137 -0.1478
 8539ION    NA+12739   7.300   3.925  10.658  0.0913 -0.0142  0.0627
 8540ION    NA+12740   1.951   7.107  11.715 -0.0164  0.1813 -0.2250
 8541ION    NA+12741   6.873   4.603   9.677 -0.3405  0.2073  0.0617
 8542ION    NA+12742   4.365   7.065   4.395 -0.0720  0.1368 -0.1124
 8543ION    NA+12743   2.725   1.967   0.529 -0.0637 -0.2742 -0.0743
 8544ION    NA+12744   1.041   4.203  11.785 -0.0400  0.1004 -0.1412
 8545ION    NA+12745   8.990   7.323   0.999  0.0775 -0.2362  0.2880
 8546ION    NA+12746   6.058   4.810  13.125  0.3018 -0.1160 -0.1499
 8547ION    NA+12747   2.543   1.682   9.457  0.1974 -0.3802  0.3264
 8548ION    NA+12748   3.614   7.130   4.300  0.0101  0.3243 -0.1596
 8549ION    NA+12749   6.198   8.886   9.054  0.0699  0.2422 -0.0153
 8550ION    NA+12750   7.319   1.263   8.946 -0.0449 -0.0170 -0.1572
 8551ION    NA+12751   6.861   2.297   3.890  0.1230 -0.0528 -0.1948
 8552ION    NA+12752   8.326   6.285  11.569 -0.1835 -0.1420  0.0743
 8553ION    NA+12753   8.223   3.998   8.859 -0.0248 -0.0574 -0.2535
 8554ION    NA+12754   6.729   6.888   2.603  0.0094  0.0926 -0.0805
 8555ION    NA+12755   5.873   8.257   2.274 -0.1674 -0.2476 -0.1790
 8556ION    NA+12756   3.596   2.779   2.822 -0.1709  0.0187 -0.1933
 8557ION    NA+12757  10.019   9.515   9.040 -0.0467 -0.1818  0.0708
 8558ION    NA+12758  10.290   4.729   2.438  0.1270 -0.4005 -0.0284
 8559ION    NA+12759  10.383   6.656   1.882 -0.1606 -0.2200 -0.4822
 8560ION    NA+12760   8.104   4.495  10.936 -0.2655  0.1286 -0.0141
 8561ION    NA+12761   7.937   8.564   3.979 -0.1860 -0.4044  0.0655
 8562ION    NA+12762   0.509   6.407   3.625 -0.0567  0.0252 -0.4727
 8563ION    NA+12763   2.677   5.182  12.690 -0.3637 -0.0892  0.0463
 8564ION    NA+12764   9.344   1.533   8.596 -0.1206 -0.4014  0.0526
 8565ION    NA+12765   0.765   0.776  13.166 -0.1213 -0.0071  0.0717
 8566ION    NA+12766   9.671   4.036   9.820  0.0530 -0.1683 -0.3103
 8567ION    NA+12767   4.479   2.540   0.323  0.2842  0.5094 -0.1051
 8568ION    NA+12768   1.972   8.904  10.128  0.0661 -0.1905  0.0457
 8569ION    NA+12769   2.716   5.835  10.506 -0.1342  0.0017  0.0902
 8570ION    NA+12770   7.898   1.015  11.455  0.0454  0.3069 -0.0738
 8571ION    NA+12771   6.920   4.950   3.890  0.2502  0.4247  0.0074
 8572ION    NA+12772   3.321   8.078   9.528 -0.0964 -0.2665 -0.0121
 8573ION    NA+12773   3.876   9.085   3.286 -0.1413  0.1731 -0.1757
 8574ION    NA+12774   1.058   6.817  10.677 -0.3193 -0.2875 -0.2100
 8575ION    NA+12775   7.986   6.142   1.558 -0.0571  0.0859  0.1031
 8576ION    NA+12776   1.498   4.079  10.665  0.2000 -0.0999  0.1668
 8577ION    NA+12777   4.443   3.218   4.923 -0.4727  0.2006  0.1663
 8578ION    NA+12778   1.208  10.358  13.052 -0.0930 -0.1823 -0.4326
 8579ION    NA+12779   0.913   5.381   8.821  0.2605 -0.2432  0.1131
 8580ION    NA+12780   9.873   3.300  10.400  0.0927 -0.1542 -0.0408
 8581ION    NA+12781   0.050   6.755  11.343 -0.0633  0.0220 -0.0708
 8582ION    NA+12782   9.625   5.263  11.322  0.0446 -0.2052  0.1289
 8583ION    NA+12783   2.033  10.218  10.040 -0.1703 -0.1596  0.3208
 8584ION    NA+12784   5.299   7.915   4.905 -0.2721 -0.1856  0.2130
 8585ION    NA+12785   7.592   8.822   3.661  0.0770 -0.4258 -0.0024
 8586ION    NA+12786   9.886   9.260   4.252  0.2764  0.2442  0.0308
 8587ION    NA+12787   0.179   3.616   5.009  0.1013 -0.0886  0.0740
 8588ION    NA+12788   0.465   5.299   0.245 -0.0509  0.0958 -0.2214
 8589ION    NA+12789   1.912   3.940   8.700 -0.0243 -0.0205  0.0928
 8590ION    NA+12790   1.076   6.749   4.530  0.3722  0.2335  0.2122
 8591ION    NA+12791   4.016   3.397   8.830  0.0207 -0.3132 -0.1188
 8592ION    NA+12792  10.033   1.447   8.632 -0.2452 -0.2726 -0.1890
 8593ION    NA+12793   5.714   7.064   3.938  0.1744  0.2467  0.0237
 8594ION    NA+12794   4.994   8.291   8.567 -0.2369 -0.0045 -0.0289
 8595ION    NA+12795   0.049   1.509   2.057  0.1168  0.1843  0.2656
 8596ION    NA+12796   0.169   6.688  12.811  0.1721  0.0884  0.2057
 8597ION    NA+12797   8.707   3.189  12.084  0.1827  0.0416  0.1244
 8598ION    NA+12798   1.443   6.854  13.032  0.1926 -0.1393  0.1963
 8599ION    NA+12799   0.914   1.278   9.059  0.0223 -0.3849 -0.3263
 8600ION    NA+12800   2.721   8.619  10.918  0.1359  0.3220 -0.1999
 8601ION    NA+12801   4.359   2.133   2.134 -0.1245 -0.0185 -0.1027
 8602ION    NA+12802   9.421   1.940   1.147  0.0395 -0.1396  0.2889
 8603ION    NA+12803   7.730   0.625   0.491  0.1235 -0.1556 -0.1969
 8604ION    NA+12804   0.921   1.756   1.094 -0.2182  0.2881 -0.2389
 8605ION    NA+12805   2.755   4.259  13.141  0.0682  0.0440  0.2402
 8606ION    NA+12806   4.191   2.541   3.651  0.0174  0.2826  0.1414
 8607ION    NA+12807   2.286   4.596  12.056 -0.0725  0.1311 -0.3431
 8608ION    NA+12808   7.608   7.882  13.044 -0.2303 -0.0285 -0.0613
 8609ION    NA+12809   2.215   5.722   0.126  0.2760  0.0750 -0.2241
 8610ION    NA+12810   2.630   1.471   1.884  0.3465 -0.0480  0.1340
 8611ION    NA+12811   0.147   8.478  11.938 -0.1728 -0.2755  0.0902
 8612ION    NA+12812   6.748   8.191  10.549  0.2269  0.3062  0.0808
 8613ION    NA+12813   6.103   4.458   1.833 -0.3198  0.1526 -0.0698
 8614ION    NA+12814   0.577   9.432   9.932 -0.2708 -0.2363  0.0115
 8615ION    NA+12815   7.019   2.600   1.732 -0.0676 -0.1906 -0.2999
 8616ION    NA+12816   9.576   0.601   2.929  0.3529  0.0851 -0.1875
 8617ION    NA+12817   5.894  10.208   2.712 -0.1989 -0.3800 -0.1249
 8618ION    NA+12818   6.927   4.814   5.048  0.0793 -0.1570  0.2114
 8619ION    NA+12819   8.616   9.396   8.596 -0.2678 -0.0222 -0.4487
 8620ION    NA+12820   7.010   9.210   9.085 -0.1064 -0.0805  0.0480
 8621ION    NA+12821   4.473  10.405   9.409 -0.2958 -0.2295 -0.2990
 8622ION    NA+12822   7.233   5.294  12.832  0.0616 -0.2195 -0.0058
 8623ION    NA+12823   1.350   4.349   0.623 -0.1952 -0.0035 -0.2261
 8624ION    NA+12824   7.250   8.401   0.406 -0.2961  0.0774  0.0007
 8625ION    CL-12825   0.413   6.307   9.643 -0.1606  0.2823 -0.1387
 8626ION    CL-12826  10.011   7.051   1.794  0.0083 -0.0616 -0.0493
 8627ION    CL-12827   3.249   6.675   4.224 -0.0533  0.0373 -0.4362
 8628ION    CL-12828   6.883   5.233   3.473 -0.0902 -0.1133  0.0315
 8629ION    CL-12829  10.207   1.731   1.741  0.1881 -0.1384 -0.3048
 8630ION    CL-12830   1.310   1.491   1.490  0.2156 -0.4793  0.1700
 8631ION    CL-12831   0.952   4.061   1.485 -0.1408 -0.2299  0.0742
 8632ION    CL-12832   3.984   7.437   4.253 -0.2028 -0.2958  0.0821
 8633ION    CL-12833   5.113   8.189   3.634 -0.1288  0.4033 -0.1279
 8634ION    CL-12834   6.250   8.255   1.956  0.0183  0.2541  0.1205
 8635ION    CL-12835   7.669   4.249  10.871  0.0569  0.0505  0.1970
 8636ION    CL-12836   6.439   4.342   9.820 -0.1558  0.2118 -0.1482
 8637ION    CL-12837   1.179   3.440   4.053 -0.0832  0.1206 -0.0584
 8638ION    CL-12838   6.910   7.349   2.764 -0.1477 -0.2539  0.5370
 8639ION    CL-12839   1.440   7.521   3.869  0.0049 -0.0120  0.0359
 8640ION    CL-12840   2.690   7.548   9.905  0.1038  0.2483  0.1900
 8641ION    CL-12841   8.151  10.122   3.986  0.2937 -0.1295  0.1164
 8642ION    CL-12842   0.074   9.482  10.360  0.1292 -0.2390 -0.0896
 8643ION    CL-12843   1.009   4.239  11.260 -0.3004 -0.0776 -0.0363
 8644ION    CL-12844   0.319   0.960  13.107  0.4535  0.3312 -0.3752
 8645ION    CL-12845   0.858   9.376   1.522  0.3827  0.0668 -0.1422
 8646ION    CL-12846   6.600   2.560   1.444  0.0583 -0.4876 -0.1817
 8647ION    CL-12847   8.900   1.137  11.071 -0.2450 -0.0079 -0.0648
 8648ION    CL-12848   7.399   8.191   0.009  0.0613  0.2164 -0.0061
 8649ION    CL-12849   3.854   6.902  10.161 -0.0802  0.0150 -0.1546
 8650ION    CL-12850   7.799   6.488   1.806 -0.2019 -0.0300 -0.4829
 8651ION    CL-12851   8.582   1.394   2.735  0.1708 -0.0193  0.0037
 8652ION    CL-12852   1.090   0.409  10.755  0.1547  0.0914  0.0008
 8653ION    CL-12853   5.967   8.356   9.503 -0.2548 -0.0949  0.0417
 8654ION    CL-12854  10.059   3.104  11.342 -0.1044 -0.3258  0.1282
 8655ION    CL-12855   2.426   9.216  10.188  0.2589 -0.2083  0.0910
 8656ION    CL-12856  10.183   1.232   3.927  0.0552 -0.2414  0.0664
 8657ION    CL-12857  10.136   3.652   9.882 -0.0422 -0.0926 -0.4102
 8658ION    CL-12858   1.030   3.759  12.084 -0.2141 -0.1208 -0.0769
 8659ION    CL-12859   0.822   6.730   3.504  0.1019 -0.0604 -0.1713
 8660ION    CL-12860   8.513   8.500   4.194  0.0031  0.1585  0.0101
 8661ION    CL-12861   3.839   2.149   3.705 -0.0809 -0.0241 -0.1267
 8662ION    CL-12862   9.511   4.182   9.416 -0.2576  0.0415  0.4781
 8663ION    CL-12863   8.948   1.176   3.543 -0.0127 -0.0603  0.0792
 8664ION    CL-12864   6.813   4.967  12.615  0.3257 -0.0398 -0.1632
 8665ION    CL-12865   2.602   8.737  12.211 -0.1388 -0.2228 -0.2422
 8666ION    CL-12866   4.906   2.856   0.130  0.0931 -0.0019  0.2737
 8667ION    CL-12867   9.406   3.266   9.683 -0.3794  0.1791  0.1525
 8668ION    CL-12868   6.551  10.398  13.227 -0.0800 -0.0603  0.1176
 8669ION    CL-12869   7.617   8.840   4.185  0.0151 -0.1493 -0.1553
 8670ION    CL-12870   7.023   4.465   4.154  0.0437  0.0256  0.0275
 8671ION    CL-12871   9.419   2.919   3.877  0.1000 -0.1391  0.0196
 8672ION    CL-12872   0.627   5.069  13.181  0.0764 -0.0836 -0.1274
 8673ION    CL-12873   2.540   6.046   0.221 -0.2786 -0.0685  0.1220
 8674ION    CL-12874   4.848   2.176   2.108 -0.4946  0.3364 -0.2530
 8675ION    CL-12875   6.165   6.941   4.232  0.0735 -0.0689  0.0749
 8676ION    CL-12876   2.715   4.738   0.061 -0.0063 -0.1070  0.0352
 8677ION    CL-12877   7.228   0.659   2.661  0.0626 -0.0180 -0.2099
 8678ION    CL-12878   3.134   3.291   9.191  0.3178  0.2461  0.2434
 8679ION    CL-12879   4.300   3.366   9.250 -0.0838 -0.2913 -0.2742
 8680ION    CL-12880   5.104   6.940   2.022 -0.2088 -0.2523  0.1702
 8681ION    CL-12881  10.333   5.232   9.549 -0.0572  0.1294 -0.4198
 8682ION    CL-12882   7.708   1.294  11.900 -0.3600  0.2680  0.1520
 8683ION    CL-12883   9.472   3.597  10.508 -0.0813  0.3074 -0.3744
 8684ION    CL-12884   0.858   6.154   3.851  0.4145  0.1277  0.3558
 8685ION    CL-12885   8.012   4.884   4.342 -0.2627 -0.2202 -0.2729
 8686ION    CL-12886   0.912   5.025   0.795 -0.0268 -0.0978 -0.4317
 8687ION    CL-12887  10.414   4.541  11.478 -0.0427  0.2250  0.0715
 8688ION    CL-12888   0.451   0.267   3.586 -0.2357 -0.0171  0.2542
 8689ION    CL-12889   8.308   3.407  12.267  0.1651  0.2030  0.1199
 8690ION    CL-12890   7.502   9.180   9.386  0.1590 -0.0437  0.1398
 8691ION    CL-12891   2.222   3.575   4.297  0.1009 -0.2271 -0.0346
 8692ION    CL-12892  10.121   0.440  13.357  0.0839  0.0293  0.2500
 8693ION    CL-12893   9.848   0.479   2.153 -0.3071 -0.2147  0.2281
 8694ION    CL-12894   2.853   9.148   0.791  0.0010  0.0060 -0.0046
 8695ION    CL-12895   0.249   0.914   2.239  0.0716  0.1861 -0.1255
 8696ION    CL-12896   6.608   1.990   4.255  0.1209  0.0194  0.0472
 8697ION    CL-12897   5.849   0.026   3.083 -0.1163  0.0979 -0.0431
 8698ION    CL-12898   6.845   8.472   0.706 -0.1249 -0.1910  0.2715
 8699ION    CL-12899   8.236   6.816  11.442 -0.1717  0.3006 -0.0274
 8700ION    CL-12900   9.462   4.977   4.447  0.0039 -0.2950 -0.0678
 8701ION    CL-12901   7.949   9.111   3.910 -0.2857  0.2840  0.0473
 8702ION    CL-12902   4.894   2.917   4.075  0.0748 -0.1474  0.1973
 8703ION    CL-12903   3.029   3.768   3.071 -0.0852  0.0371  0.0704
 8704ION    CL-12904   6.196   4.832   1.518  0.1035 -0.2003  0.0585
 8705ION    CL-12905   4.187   0.472   2.050 -0.4242 -0.2812 -0.1132
 8706ION    CL-12906   2.560   5.458  12.273 -0.0159  0.0105 -0.0994
 8707ION    CL-12907   1.485   8.688   2.506  0.2300 -0.2035  0.2203
 8708ION    CL-12908   3.570   2.695   0.367 -0.0996  0.1802  0.0324
 8709ION    CL-12909   7.623   8.344   3.649  0.0291 -0.1611 -0.0046
 8710ION    CL-12910   8.989   1.626   1.068 -0.2541  0.0982  0.0250
 8711ION    CL-12911   5.150  10.319  10.741 -0.0765 -0.3399 -0.1422
 8712ION    CL-12912   3.543   4.926   4.666 -0.4375 -0.0494 -0.1279
 8713ION    CL-12913   3.340   8.348   3.001 -0.1146 -0.1792 -0.1693
 8714ION    CL-12914   7.909   7.839   9.450  0.2265 -0.2080 -0.1253
  10.49616  10.49616  13.40152
