Protein in INSANE! Membrane UpperLeaflet>POPC=1.0 LowerLeaflet>POPC=1.0
10365
    1AU     AUC    1   5.047   5.076   5.956
    1AU     AUC    2   5.291   4.858   5.816
    1AU     AUC    3   5.370   5.126   5.941
    1AU     AUC    4   4.725   5.046   5.916
    1AU     AUC    5   4.822   5.314   6.098
    1AU     AUC    6   4.881   5.289   5.792
    1AU     AUC    7   5.203   5.175   5.758
    1AU     AUC    8   4.894   4.990   6.191
    1AU     AUC    9   5.230   4.903   6.124
    1AU     AUC   10   5.110   5.210   6.213
    1AU     AUC   11   5.096   5.349   6.000
    1AU     AUC   12   4.998   4.762   5.961
    1AU     AUC   13   4.998   4.946   5.708
    1AU     AUC   14   5.569   4.675   5.650
    1AU     AUC   15   5.679   4.967   5.734
    1AU     AUC   16   5.735   5.197   5.958
    1AU     AUC   17   4.387   5.011   5.829
    1AU     AUC   18   4.493   5.316   6.011
    1AU     AUC   19   4.629   5.535   6.297
    1AU     AUC   20   4.748   5.497   5.647
    1AU     AUC   21   5.018   5.366   5.509
    1AU     AUC   22   5.356   5.286   5.454
    1AU     AUC   23   4.707   4.866   6.345
    1AU     AUC   24   5.084   4.799   6.397
    1AU     AUC   25   5.454   4.829   6.303
    1AU     AUC   26   5.246   5.412   6.475
    1AU     AUC   27   5.238   5.513   6.282
    1AU     AUC   28   5.209   5.626   6.080
    1AU     AUC   29   4.925   4.383   5.959
    1AU     AUC   30   4.856   4.571   5.750
    1AU     AUC   31   4.855   4.794   5.540
    1AU     AUC   32   5.474   5.283   6.233
    1AU     AUC   33   5.492   5.389   6.050
    1AU     AUC   34   5.233   4.495   5.825
    1AU     AUC   35   5.216   4.677   5.566
    1AU     AUC   36   4.893   5.464   6.423
    1AU     AUC   37   4.894   5.631   6.248
    1AU     AUC   38   4.689   4.717   5.918
    1AU     AUC   39   4.620   4.903   5.703
    1AU     AUC   40   5.523   4.982   5.526
    1AU     AUC   41   5.569   5.293   5.689
    1AU     AUC   42   4.516   5.298   5.743
    1AU     AUC   43   4.683   5.569   6.002
    1AU     AUC   44   5.487   4.677   5.983
    1AU     AUC   45   5.622   4.999   6.070
    1AU     AUC   46   4.505   4.976   6.079
    1AU     AUC   47   4.630   5.228   6.307
    1AU     AUC   48   5.015   5.636   5.873
    1AU     AUC   49   5.272   5.504   5.701
    1AU     AUC   50   4.969   5.120   6.453
    1AU     AUC   51   5.338   5.103   6.379
    1AU     AUC   52   4.791   5.150   5.492
    1AU     AUC   53   5.121   5.012   5.443
    1AU     AUC   54   4.819   4.645   6.163
    1AU     AUC   55   5.159   4.564   6.168
    1AU    AUSL   56   5.910   5.071   6.359
    1AU    AUSL   57   5.548   5.624   6.585
    1AU     AUL   58   6.022   5.401   6.738
    1AU       S   59   5.959   5.884   6.559
    1AU     LIG   60   5.955   5.771   7.063
    1AU     LIG   61   5.812   5.375   7.288
    1AU     LIG   62   5.678   5.165   7.780
    1AU       S   63   6.322   5.278   6.373
    1AU     LIG   64   6.630   5.549   6.181
    1AU     LIG   65   6.648   5.868   5.839
    1AU     LIG   66   6.252   6.101   5.659
    1AU    AUSL   67   5.581   5.783   6.197
    1AU    AUSL   68   4.880   5.889   6.240
    1AU     AUL   69   5.095   6.259   6.131
    1AU       S   70   6.201   5.669   5.930
    1AU     LIG   71   6.316   5.711   5.307
    1AU     LIG   72   6.235   5.426   4.766
    1AU     LIG   73   5.782   5.199   4.672
    1AU       S   74   4.515   5.402   7.058
    1AU     LIG   75   3.829   5.159   6.922
    1AU     LIG   76   3.389   5.159   7.120
    1AU     LIG   77   3.255   4.978   7.540
    1AU    AUSL   78   5.639   5.236   6.616
    1AU    AUSL   79   5.665   5.444   5.909
    1AU     AUL   80   5.789   5.078   6.487
    1AU       S   81   6.347   5.061   6.294
    1AU     LIG   82   6.180   4.267   5.781
    1AU     LIG   83   6.095   4.040   5.309
    1AU     LIG   84   5.848   4.003   4.858
    1AU       S   85   5.428   5.656   5.072
    1AU     LIG   86   5.585   5.643   4.546
    1AU     LIG   87   5.989   5.842   4.488
    1AU     LIG   88   6.183   6.047   4.852
    1AU    AUSL   89   5.474   4.330   5.474
    1AU    AUSL   90   5.212   4.642   5.386
    1AU     AUL   91   5.668   4.258   5.398
    1AU       S   92   5.572   4.405   4.979
    1AU     LIG   93   6.088   4.494   5.054
    1AU     LIG   94   6.527   4.831   5.225
    1AU     LIG   95   6.904   4.940   5.519
    1AU       S   96   5.881   4.642   6.453
    1AU     LIG   97   4.936   5.545   7.142
    1AU     LIG   98   4.113   5.546   6.938
    1AU     LIG   99   3.656   5.569   6.672
    1AU    AUSL  100   5.090   4.263   5.668
    1AU    AUSL  101   5.432   4.433   5.873
    1AU     AUL  102   5.182   4.194   5.457
    1AU       S  103   5.108   4.063   6.515
    1AU     LIG  104   5.512   3.928   6.686
    1AU     LIG  105   5.840   4.248   6.847
    1AU     LIG  106   6.230   4.515   6.806
    1AU       S  107   5.348   4.239   5.035
    1AU     LIG  108   5.607   3.790   5.241
    1AU     LIG  109   5.644   3.448   5.671
    1AU     LIG  110   5.460   3.246   6.121
    1AU    AUSL  111   4.822   4.543   5.501
    1AU    AUSL  112   4.727   4.155   5.821
    1AU     AUL  113   4.705   4.216   5.486
    1AU       S  114   4.230   4.384   6.542
    1AU     LIG  115   3.844   4.694   6.783
    1AU     LIG  116   3.822   4.996   7.369
    1AU     LIG  117   4.101   5.458   7.433
    1AU       S  118   5.397   4.562   4.970
    1AU     LIG  119   5.872   5.619   4.952
    1AU     LIG  120   5.888   6.032   5.301
    1AU     LIG  121   5.691   6.324   5.631
    1AU    AUSL  122   4.791   5.794   6.635
    1AU    AUSL  123   5.250   5.935   6.366
    1AU     AUL  124   4.906   6.156   6.520
    1AU       S  125   4.524   5.259   7.037
    1AU     LIG  126   4.590   4.335   6.860
    1AU     LIG  127   4.390   3.944   7.002
    1AU     LIG  128   4.016   3.907   7.215
    1AU       S  129   5.358   5.369   7.013
    1AU     LIG  130   5.458   4.478   7.262
    1AU     LIG  131   5.163   3.962   7.384
    1AU     LIG  132   4.844   3.530   7.179
    1AU    AUSL  133   5.144   5.592   6.590
    1AU    AUSL  134   4.483   5.782   6.355
    1AU     AUL  135   4.924   5.791   6.765
    1AU       S  136   4.397   6.031   6.683
    1AU     LIG  137   4.270   6.281   6.283
    1AU     LIG  138   4.175   6.575   5.857
    1AU     LIG  139   4.433   6.652   5.484
    1AU       S  140   4.529   5.185   7.029
    1AU     LIG  141   4.145   4.417   7.024
    1AU     LIG  142   4.021   3.980   6.683
    1AU     LIG  143   4.237   3.667   6.332
    1AU    AUSL  144   4.193   4.746   5.897
    1AU    AUSL  145   4.545   4.219   6.194
    1AU     AUL  146   4.312   4.053   5.757
    1AU       S  147   4.298   4.615   6.628
    1AU     LIG  148   4.927   4.405   7.183
    1AU     LIG  149   5.213   4.727   7.614
    1AU     LIG  150   5.564   4.493   7.781
    1AU       S  151   4.329   4.129   6.185
    1AU     LIG  152   5.363   4.366   6.795
    1AU     LIG  153   5.777   4.731   6.926
    1AU     LIG  154   6.142   4.923   7.155
    1AU    AUSL  155   4.410   4.606   6.204
    1AU    AUSL  156   4.227   5.045   5.597
    1AU     AUL  157   4.059   4.664   6.044
    1AU       S  158   4.011   4.964   5.440
    1AU     LIG  159   3.567   4.754   6.008
    1AU     LIG  160   3.428   4.863   6.576
    1AU     LIG  161   3.490   4.682   7.115
    1AU       S  162   4.361   4.702   6.686
    1AU     LIG  163   4.714   4.728   7.465
    1AU     LIG  164   4.800   4.807   7.905
    1AU     LIG  165   5.229   4.971   8.078
    1AU    AUSL  166   5.692   5.241   5.255
    1AU    AUSL  167   5.629   4.705   5.346
    1AU     AUL  168   5.778   4.864   5.026
    1AU       S  169   6.310   5.047   5.721
    1AU     LIG  170   6.571   5.330   5.529
    1AU     LIG  171   6.629   5.357   5.051
    1AU     LIG  172   6.659   5.549   4.574
    1AU       S  173   5.732   5.294   5.178
    1AU     LIG  174   5.647   6.015   4.873
    1AU     LIG  175   5.794   6.323   4.587
    1AU     LIG  176   6.111   6.640   4.689
    1AU    AUSL  177   5.952   4.927   5.441
    1AU    AUSL  178   5.906   4.933   5.854
    1AU     AUL  179   6.135   4.701   5.485
    1AU       S  180   6.153   5.253   5.247
    1AU     LIG  181   6.222   4.946   4.849
    1AU     LIG  182   5.923   4.664   4.590
    1AU     LIG  183   5.588   4.333   4.491
    1AU       S  184   6.463   4.632   5.810
    1AU     LIG  185   6.492   4.357   5.376
    1AU     LIG  186   6.537   4.389   4.869
    1AU     LIG  187   6.446   4.650   4.468
    1AU    AUSL  188   5.918   5.307   5.623
    1AU    AUSL  189   5.570   5.572   5.498
    1AU     AUL  190   5.906   5.557   5.496
    1AU       S  191   5.294   5.685   4.928
    1AU     LIG  192   4.603   5.450   4.670
    1AU     LIG  193   4.173   5.014   4.679
    1AU     LIG  194   4.147   4.657   5.057
    1AU       S  195   5.757   5.833   5.797
    1AU     LIG  196   4.241   5.156   6.716
    1AU     LIG  197   3.709   5.534   7.162
    1AU     LIG  198   3.577   5.412   7.555
    1AU    AUSL  199   4.167   5.642   6.019
    1AU    AUSL  200   4.508   5.497   6.633
    1AU     AUL  201   4.064   5.757   6.478
    1AU       S  202   4.879   5.149   7.310
    1AU     LIG  203   4.251   4.696   7.541
    1AU     LIG  204   3.879   4.394   7.433
    1AU     LIG  205   3.675   4.221   7.012
    1AU       S  206   3.967   5.735   5.937
    1AU     LIG  207   3.437   5.308   5.900
    1AU     LIG  208   3.127   4.972   6.111
    1AU     LIG  209   3.154   4.548   6.285
    1AU    AUSL  210   4.355   5.406   5.752
    1AU    AUSL  211   4.437   5.375   5.354
    1AU     AUL  212   4.054   5.395   5.592
    1AU       S  213   3.754   5.649   5.815
    1AU     LIG  214   3.467   5.202   5.430
    1AU     LIG  215   3.258   4.775   5.098
    1AU     LIG  216   3.606   4.579   4.739
    1AU       S  217   4.264   5.313   5.198
    1AU     LIG  218   4.119   5.460   4.814
    1AU     LIG  219   3.715   5.048   4.545
    1AU     LIG  220   3.267   5.221   4.499
    1AU    AUSL  221   4.550   5.755   5.941
    1AU    AUSL  222   4.101   5.191   5.982
    1AU     AUL  223   4.340   5.716   5.636
    1AU       S  224   3.793   5.375   6.182
    1AU     LIG  225   3.910   5.838   5.451
    1AU     LIG  226   3.931   5.920   4.964
    1AU     LIG  227   4.169   5.881   4.534
    1AU       S  228   4.152   6.071   5.855
    1AU     LIG  229   4.202   6.220   5.351
    1AU     LIG  230   4.658   6.211   5.073
    1AU     LIG  231   5.172   6.174   5.070
    1AU    AUSL  232   5.648   4.758   6.126
    1AU    AUSL  233   6.033   5.280   6.030
    1AU     AUL  234   6.052   4.868   6.011
    1AU       S  235   6.419   4.618   6.145
    1AU     LIG  236   6.936   4.636   5.959
    1AU     LIG  237   7.241   4.993   6.007
    1AU     LIG  238   7.246   5.331   6.343
    1AU       S  239   6.207   5.734   6.395
    1AU     LIG  240   6.507   5.612   6.701
    1AU     LIG  241   6.924   5.709   6.580
    1AU     LIG  242   6.833   6.035   6.306
    1AU    AUSL  243   5.812   4.546   5.741
    1AU    AUSL  244   5.555   4.387   6.287
    1AU     AUL  245   5.688   4.270   5.926
    1AU       S  246   6.420   4.617   5.932
    1AU     LIG  247   6.720   5.075   5.979
    1AU     LIG  248   7.022   5.447   5.882
    1AU     LIG  249   7.237   5.799   6.125
    1AU       S  250   5.055   4.150   6.579
    1AU     LIG  251   4.651   4.752   7.024
    1AU     LIG  252   4.436   5.113   7.490
    1AU     LIG  253   4.165   5.177   7.843
    1AU    AUSL  254   4.266   4.980   6.307
    1AU    AUSL  255   4.340   4.656   5.531
    1AU     AUL  256   3.890   5.039   5.877
    1AU       S  257   4.096   4.424   5.553
    1AU     LIG  258   3.616   4.642   5.515
    1AU     LIG  259   3.195   4.844   5.625
    1AU     LIG  260   2.984   5.299   5.668
    1AU       S  261   3.760   5.256   6.318
    1AU     LIG  262   3.669   5.911   6.253
    1AU     LIG  263   3.710   6.253   5.785
    1AU     LIG  264   3.876   6.605   5.411
    1AU    AUSL  265   4.398   5.370   6.249
    1AU    AUSL  266   4.621   5.087   6.533
    1AU     AUL  267   4.207   5.365   6.365
    1AU       S  268   4.407   5.864   6.868
    1AU     LIG  269   3.874   5.976   6.919
    1AU     LIG  270   3.355   5.849   6.964
    1AU     LIG  271   3.059   5.464   6.879
    1AU       S  272   3.848   5.107   6.450
    1AU     LIG  273   4.180   4.871   7.088
    1AU     LIG  274   4.481   4.319   7.328
    1AU     LIG  275   4.872   3.973   6.998
    1AU    AUSL  276   5.295   5.683   5.853
    1AU    AUSL  277   4.930   5.885   5.833
    1AU     AUL  278   5.359   6.027   5.906
    1AU       S  279   5.308   5.430   6.976
    1AU     LIG  280   5.685   4.913   7.364
    1AU     LIG  281   5.938   4.412   7.330
    1AU     LIG  282   6.185   4.003   7.108
    1AU       S  283   4.636   4.663   5.142
    1AU     LIG  284   5.428   3.911   5.668
    1AU     LIG  285   5.908   3.832   5.904
    1AU     LIG  286   6.348   3.959   6.121
    1AU    AUSL  287   4.778   5.659   5.504
    1AU    AUSL  288   5.216   5.270   5.087
    1AU     AUL  289   4.932   5.765   5.190
    1AU       S  290   4.549   5.011   4.967
    1AU     LIG  291   4.578   5.012   4.408
    1AU     LIG  292   4.198   4.659   4.301
    1AU     LIG  293   3.825   4.310   4.329
    1AU       S  294   5.045   4.925   4.700
    1AU     LIG  295   4.854   4.367   4.620
    1AU     LIG  296   4.425   4.212   5.005
    1AU     LIG  297   4.106   3.934   5.306
    1AU    AUSL  298   5.172   5.469   5.448
    1AU    AUSL  299   5.229   5.873   5.514
    1AU     AUL  300   5.452   5.856   5.468
    1AU       S  301   5.045   5.561   4.803
    1AU     LIG  302   4.490   4.653   4.695
    1AU     LIG  303   3.949   4.251   4.927
    1AU     LIG  304   3.656   4.140   5.374
    1AU       S  305   4.542   4.979   5.021
    1AU     LIG  306   3.815   5.434   5.192
    1AU     LIG  307   3.409   5.695   5.474
    1AU     LIG  308   3.310   5.804   5.940
    1AU    AUSL  309   5.240   5.182   6.628
    1AU    AUSL  310   5.824   5.467   6.327
    1AU     AUL  311   5.617   5.646   6.747
    1AU       S  312   5.268   4.952   7.176
    1AU     LIG  313   4.974   5.244   7.739
    1AU     LIG  314   4.611   5.551   7.552
    1AU     LIG  315   4.345   5.925   7.497
    1AU       S  316   5.997   5.668   6.356
    1AU     LIG  317   6.008   6.107   6.123
    1AU     LIG  318   6.061   6.507   5.949
    1AU     LIG  319   6.086   6.732   5.550
    1AU    AUSL  320   4.969   4.867   6.672
    1AU    AUSL  321   4.877   5.335   6.757
    1AU     AUL  322   4.936   5.093   6.872
    1AU       S  323   5.308   4.892   7.053
    1AU     LIG  324   5.345   5.345   7.465
    1AU     LIG  325   5.368   5.819   7.262
    1AU     LIG  326   5.352   6.056   6.843
    1AU       S  327   4.560   5.855   7.042
    1AU     LIG  328   4.871   5.956   7.422
    1AU     LIG  329   4.900   5.770   7.884
    1AU     LIG  330   4.612   5.421   8.064
    1AU    AUSL  331   5.427   4.805   6.624
    1AU    AUSL  332   4.752   4.569   6.477
    1AU     AUL  333   4.990   4.593   6.783
    1AU       S  334   4.657   3.887   6.555
    1AU     LIG  335   5.187   3.594   6.483
    1AU     LIG  336   5.718   3.598   6.354
    1AU     LIG  337   6.214   3.612   6.476
    1AU       S  338   5.174   4.800   7.147
    1AU     LIG  339   4.944   4.337   7.646
    1AU     LIG  340   4.638   3.953   7.617
    1AU     LIG  341   4.388   3.606   7.412
    1AU    AUSL  342   4.971   4.930   5.196
    1AU    AUSL  343   5.370   5.035   5.400
    1AU     AUL  344   5.335   4.984   5.061
    1AU       S  345   4.981   4.753   4.870
    1AU     LIG  346   4.891   4.177   5.059
    1AU     LIG  347   4.577   3.792   5.326
    1AU     LIG  348   4.232   3.473   5.539
    1AU       S  349   5.994   4.476   6.160
    1AU     LIG  350   5.938   4.047   6.414
    1AU     LIG  351   5.892   3.661   6.832
    1AU     LIG  352   5.836   3.174   6.830
    1AU    AUSL  353   4.832   5.320   5.257
    1AU    AUSL  354   4.629   4.985   5.448
    1AU     AUL  355   4.726   5.375   5.110
    1AU       S  356   4.946   5.100   4.748
    1AU     LIG  357   4.979   5.339   4.353
    1AU     LIG  358   4.795   5.778   4.334
    1AU     LIG  359   4.615   6.144   4.566
    1AU       S  360   4.128   5.112   5.161
    1AU     LIG  361   4.378   5.778   5.146
    1AU     LIG  362   4.621   6.112   5.549
    1AU     LIG  363   4.645   6.387   5.913
    1AU    AUSL  364   4.936   4.350   6.155
    1AU    AUSL  365   4.437   4.429   5.860
    1AU     AUL  366   4.679   4.303   6.384
    1AU       S  367   3.984   4.372   5.689
    1AU     LIG  368   3.714   4.897   5.102
    1AU     LIG  369   3.632   5.454   4.759
    1AU     LIG  370   3.984   5.415   4.352
    1AU       S  371   4.754   3.823   6.193
    1AU     LIG  372   4.570   3.628   5.864
    1AU     LIG  373   4.718   3.332   5.483
    1AU     LIG  374   4.724   3.444   5.015
    1AU    AUSL  375   5.195   4.549   6.401
    1AU    AUSL  376   5.244   4.103   6.052
    1AU     AUL  377   5.431   4.246   6.311
    1AU       S  378   4.782   3.840   6.316
    1AU     LIG  379   5.013   3.450   6.030
    1AU     LIG  380   5.195   3.214   5.677
    1AU     LIG  381   5.536   2.951   5.454
    1AU       S  382   5.194   3.924   6.104
    1AU     LIG  383   4.987   3.749   5.627
    1AU     LIG  384   5.200   3.490   5.257
    1AU     LIG  385   5.628   3.303   5.059
    2POPC   NC3  386   3.509   1.399   8.104
    2POPC   PO4  387   3.115   0.806   8.202
    2POPC   GL1  388   3.295   0.822   7.767
    2POPC   GL2  389   3.553   1.066   7.692
    2POPC   C1A  390   3.132   0.878   7.318
    2POPC   D2A  391   3.084   0.892   6.840
    2POPC   C3A  392   3.354   0.969   6.453
    2POPC   C4A  393   3.276   0.909   5.968
    2POPC   C1B  394   3.498   1.240   7.269
    2POPC   C2B  395   3.430   1.345   6.824
    2POPC   C3B  396   3.682   1.375   6.450
    2POPC   C4B  397   3.708   1.127   6.084
    3POPC   NC3  398   7.268   0.325   8.116
    3POPC   PO4  399   7.854   9.952   8.004
    3POPC   GL1  400   7.577   0.205   7.716
    3POPC   GL2  401   7.374   0.540   7.673
    3POPC   C1A  402   7.426   0.172   7.303
    3POPC   D2A  403   7.557   0.417   6.933
    3POPC   C3A  404   7.374   0.376   6.531
    3POPC   C4A  405   7.411   0.089   6.173
    3POPC   C1B  406   7.195   0.634   7.281
    3POPC   C2B  407   7.238   0.782   6.882
    3POPC   C3B  408   7.127   0.846   6.457
    3POPC   C4B  409   7.279   0.741   6.051
    4POPC   NC3  410   1.120   1.420   8.152
    4POPC   PO4  411   0.742   0.807   8.073
    4POPC   GL1  412   0.888   1.112   7.783
    4POPC   GL2  413   1.217   1.019   7.838
    4POPC   C1A  414   1.128   1.294   7.405
    4POPC   D2A  415   1.370   1.404   7.005
    4POPC   C3A  416   1.209   1.306   6.574
    4POPC   C4A  417   1.014   1.440   6.157
    4POPC   C1B  418   1.335   0.822   7.482
    4POPC   C2B  419   1.272   0.888   7.066
    4POPC   C3B  420   1.468   0.782   6.693
    4POPC   C4B  421   1.376   0.921   6.296
    5POPC   NC3  422   0.675   5.121   8.075
    5POPC   PO4  423   0.120   4.643   7.944
    5POPC   GL1  424   0.501   4.778   7.647
    5POPC   GL2  425   0.643   5.110   7.583
    5POPC   C1A  426   0.647   4.851   7.161
    5POPC   D2A  427   0.479   4.992   6.732
    5POPC   C3A  428   0.707   4.941   6.327
    5POPC   C4A  429   0.830   4.832   5.904
    5POPC   C1B  430   0.376   5.277   7.269
    5POPC   C2B  431   0.096   5.377   6.966
    5POPC   C3B  432   0.052   5.352   6.556
    5POPC   C4B  433   0.222   5.070   6.242
    6POPC   NC3  434   6.267   7.548   8.611
    6POPC   PO4  435   5.752   7.729   8.145
    6POPC   GL1  436   5.644   8.023   7.735
    6POPC   GL2  437   5.639   8.387   7.804
    6POPC   C1A  438   5.689   8.053   7.247
    6POPC   D2A  439   5.500   8.024   6.819
    6POPC   C3A  440   5.782   7.899   6.464
    6POPC   C4A  441   6.214   7.763   6.421
    6POPC   C1B  442   5.445   8.494   7.403
    6POPC   C2B  443   5.634   8.487   6.970
    6POPC   C3B  444   5.651   8.384   6.485
    6POPC   C4B  445   5.639   8.416   5.985
    7POPC   NC3  446   0.320   8.148   8.222
    7POPC   PO4  447   0.852   7.698   8.140
    7POPC   GL1  448   0.478   7.883   7.822
    7POPC   GL2  449   0.376   8.283   7.737
    7POPC   C1A  450   0.218   7.912   7.429
    7POPC   D2A  451   0.384   7.872   7.005
    7POPC   C3A  452   0.118   7.935   6.627
    7POPC   C4A  453   0.150   7.755   6.201
    7POPC   C1B  454   0.512   8.310   7.278
    7POPC   C2B  455   0.440   8.332   6.804
    7POPC   C3B  456   0.534   8.166   6.398
    7POPC   C4B  457   0.839   8.276   6.050
    8POPC   NC3  458   8.565   6.435   8.170
    8POPC   PO4  459   9.242   6.299   8.341
    8POPC   GL1  460   9.041   6.414   7.937
    8POPC   GL2  461   9.010   6.733   7.769
    8POPC   C1A  462   8.848   6.331   7.508
    8POPC   D2A  463   8.714   6.480   7.095
    8POPC   C3A  464   8.784   6.553   6.671
    8POPC   C4A  465   9.020   6.438   6.299
    8POPC   C1B  466   8.957   6.898   7.305
    8POPC   C2B  467   9.098   6.936   6.825
    8POPC   C3B  468   8.882   6.968   6.403
    8POPC   C4B  469   8.675   6.764   6.046
    9POPC   NC3  470   2.581   6.275   8.095
    9POPC   PO4  471   2.703   6.907   8.168
    9POPC   GL1  472   2.583   6.689   7.772
    9POPC   GL2  473   2.866   6.460   7.702
    9POPC   C1A  474   2.400   6.708   7.350
    9POPC   D2A  475   2.519   6.486   6.968
    9POPC   C3A  476   2.424   6.765   6.637
    9POPC   C4A  477   2.541   6.838   6.240
    9POPC   C1B  478   2.905   6.632   7.268
    9POPC   C2B  479   2.960   6.694   6.798
    9POPC   C3B  480   3.013   6.700   6.336
    9POPC   C4B  481   2.808   6.488   5.966
   10POPC   NC3  482   7.533   9.606   7.990
   10POPC   PO4  483   6.945   9.905   8.135
   10POPC   GL1  484   7.153   9.860   7.708
   10POPC   GL2  485   7.195   9.490   7.629
   10POPC   C1A  486   7.041   9.821   7.255
   10POPC   D2A  487   7.124   0.093   6.891
   10POPC   C3A  488   7.056   9.931   6.507
   10POPC   C4A  489   6.851   9.956   6.117
   10POPC   C1B  490   7.497   9.606   7.289
   10POPC   C2B  491   7.344   9.608   6.850
   10POPC   C3B  492   7.455   9.583   6.409
   10POPC   C4B  493   7.689   9.680   6.001
   11POPC   NC3  494   7.994   4.824   8.040
   11POPC   PO4  495   8.012   4.174   8.321
   11POPC   GL1  496   8.175   4.339   7.880
   11POPC   GL2  497   8.504   4.371   7.795
   11POPC   C1A  498   8.219   4.161   7.423
   11POPC   D2A  499   8.197   3.990   6.974
   11POPC   C3A  500   8.141   4.168   6.522
   11POPC   C4A  501   7.894   4.215   6.120
   11POPC   C1B  502   8.594   4.524   7.376
   11POPC   C2B  503   8.656   4.386   6.956
   11POPC   C3B  504   8.576   4.551   6.548
   11POPC   C4B  505   8.326   4.503   6.161
   12POPC   NC3  506   3.351   2.067   8.199
   12POPC   PO4  507   3.780   2.545   8.146
   12POPC   GL1  508   3.651   2.239   7.834
   12POPC   GL2  509   3.541   1.883   7.753
   12POPC   C1A  510   3.510   2.308   7.435
   12POPC   D2A  511   3.400   2.452   7.054
   12POPC   C3A  512   3.233   2.172   6.782
   12POPC   C4A  513   3.314   2.197   6.334
   12POPC   C1B  514   3.766   1.675   7.384
   12POPC   C2B  515   3.894   1.622   6.920
   12POPC   C3B  516   3.644   1.854   6.593
   12POPC   C4B  517   3.227   1.731   6.498
   13POPC   NC3  518   9.237   5.940   8.059
   13POPC   PO4  519   9.521   5.356   8.156
   13POPC   GL1  520   9.257   5.473   7.833
   13POPC   GL2  521   9.491   5.700   7.667
   13POPC   C1A  522   8.967   5.492   7.479
   13POPC   D2A  523   9.055   5.320   7.055
   13POPC   C3A  524   9.033   5.617   6.713
   13POPC   C4A  525   9.179   5.905   6.351
   13POPC   C1B  526   9.282   5.812   7.255
   13POPC   C2B  527   8.860   5.943   7.091
   13POPC   C3B  528   8.771   6.046   6.649
   13POPC   C4B  529   8.539   6.233   6.326
   14POPC   NC3  530   2.010   4.423   8.332
   14POPC   PO4  531   1.431   4.239   8.027
   14POPC   GL1  532   1.725   4.334   7.734
   14POPC   GL2  533   1.976   4.541   7.833
   14POPC   C1A  534   1.750   4.341   7.290
   14POPC   D2A  535   1.708   4.089   6.897
   14POPC   C3A  536   1.739   4.348   6.540
   14POPC   C4A  537   1.861   4.217   6.083
   14POPC   C1B  538   2.186   4.222   7.557
   14POPC   C2B  539   2.179   4.048   7.111
   14POPC   C3B  540   2.171   4.091   6.630
   14POPC   C4B  541   2.186   4.499   6.377
   15POPC   NC3  542   4.344   9.057   8.123
   15POPC   PO4  543   3.883   8.550   8.232
   15POPC   GL1  544   3.897   8.797   7.776
   15POPC   GL2  545   4.053   9.136   7.697
   15POPC   C1A  546   3.747   8.964   7.337
   15POPC   D2A  547   3.916   8.815   6.924
   15POPC   C3A  548   4.091   9.008   6.531
   15POPC   C4A  549   4.176   9.247   6.083
   15POPC   C1B  550   4.247   8.889   7.348
   15POPC   C2B  551   4.478   8.649   7.072
   15POPC   C3B  552   4.554   8.842   6.680
   15POPC   C4B  553   4.479   8.862   6.222
   16POPC   NC3  554   0.371   1.153   7.907
   16POPC   PO4  555   0.704   1.661   8.062
   16POPC   GL1  556   0.461   1.617   7.663
   16POPC   GL2  557   0.155   1.417   7.540
   16POPC   C1A  558   0.624   1.385   7.291
   16POPC   D2A  559   0.884   1.212   6.954
   16POPC   C3A  560   0.707   1.188   6.524
   16POPC   C4A  561   0.422   1.429   6.284
   16POPC   C1B  562   0.232   1.025   7.290
   16POPC   C2B  563   0.363   1.130   6.897
   16POPC   C3B  564   0.189   1.036   6.505
   16POPC   C4B  565   0.190   0.989   6.053
   17POPC   NC3  566   7.957   5.769   8.087
   17POPC   PO4  567   8.621   5.903   8.064
   17POPC   GL1  568   8.352   5.779   7.730
   17POPC   GL2  569   8.173   6.119   7.752
   17POPC   C1A  570   8.483   5.608   7.307
   17POPC   D2A  571   8.505   5.638   6.845
   17POPC   C3A  572   8.185   5.427   6.586
   17POPC   C4A  573   8.093   5.522   6.152
   17POPC   C1B  574   8.389   6.140   7.322
   17POPC   C2B  575   8.325   6.158   6.851
   17POPC   C3B  576   8.165   5.924   6.475
   17POPC   C4B  577   7.920   6.010   6.089
   18POPC   NC3  578   5.751   0.427   8.322
   18POPC   PO4  579   6.215   9.919   8.329
   18POPC   GL1  580   6.037   0.300   7.921
   18POPC   GL2  581   5.718   0.524   7.835
   18POPC   C1A  582   5.867   0.269   7.437
   18POPC   D2A  583   5.993   9.993   7.095
   18POPC   C3A  584   6.083   0.073   6.663
   18POPC   C4A  585   5.925   0.040   6.277
   18POPC   C1B  586   5.546   0.672   7.417
   18POPC   C2B  587   5.772   0.738   7.015
   18POPC   C3B  588   5.777   0.506   6.603
   18POPC   C4B  589   5.964   0.545   6.201
   19POPC   NC3  590   9.542   6.590   8.115
   19POPC   PO4  591   0.226   6.255   8.165
   19POPC   GL1  592   9.962   6.476   7.797
   19POPC   GL2  593   9.839   6.783   7.738
   19POPC   C1A  594   9.815   6.536   7.285
   19POPC   D2A  595   9.898   6.427   6.818
   19POPC   C3A  596   9.889   6.591   6.365
   19POPC   C4A  597   9.961   6.395   5.903
   19POPC   C1B  598   9.434   6.798   7.488
   19POPC   C2B  599   9.309   6.551   7.095
   19POPC   C3B  600   9.421   6.587   6.626
   19POPC   C4B  601   9.365   6.890   6.270
   20POPC   NC3  602   9.607   0.944   8.448
   20POPC   PO4  603   9.989   1.395   8.034
   20POPC   GL1  604   9.668   1.330   7.715
   20POPC   GL2  605   9.334   1.265   7.859
   20POPC   C1A  606   9.725   1.217   7.287
   20POPC   D2A  607   9.848   0.975   6.921
   20POPC   C3A  608   9.696   1.114   6.503
   20POPC   C4A  609   9.714   0.823   6.152
   20POPC   C1B  610   9.219   1.164   7.412
   20POPC   C2B  611   9.323   1.152   6.941
   20POPC   C3B  612   9.375   1.496   6.604
   20POPC   C4B  613   9.499   1.555   6.156
   21POPC   NC3  614   1.890   8.052   8.037
   21POPC   PO4  615   2.363   7.565   8.047
   21POPC   GL1  616   2.189   7.787   7.646
   21POPC   GL2  617   1.862   8.036   7.537
   21POPC   C1A  618   2.263   7.967   7.238
   21POPC   D2A  619   2.060   7.917   6.854
   21POPC   C3A  620   2.353   7.934   6.490
   21POPC   C4A  621   2.473   8.001   6.050
   21POPC   C1B  622   1.496   8.315   7.375
   21POPC   C2B  623   1.366   8.298   6.925
   21POPC   C3B  624   1.675   8.154   6.600
   21POPC   C4B  625   1.989   8.190   6.268
   22POPC   NC3  626   4.166   1.497   8.187
   22POPC   PO4  627   4.716   1.104   8.386
   22POPC   GL1  628   4.605   1.360   7.958
   22POPC   GL2  629   4.288   1.194   7.800
   22POPC   C1A  630   4.610   1.338   7.439
   22POPC   D2A  631   4.421   1.168   7.003
   22POPC   C3A  632   4.470   0.946   6.561
   22POPC   C4A  633   4.591   1.059   6.102
   22POPC   C1B  634   4.063   1.256   7.400
   22POPC   C2B  635   3.903   1.122   6.967
   22POPC   C3B  636   3.942   0.943   6.566
   22POPC   C4B  637   4.149   1.212   6.269
   23POPC   NC3  638   7.711   7.019   8.077
   23POPC   PO4  639   8.301   7.507   8.154
   23POPC   GL1  640   8.032   7.328   7.843
   23POPC   GL2  641   8.264   7.384   7.648
   23POPC   C1A  642   7.929   7.108   7.413
   23POPC   D2A  643   8.098   7.145   6.974
   23POPC   C3A  644   7.905   7.055   6.562
   23POPC   C4A  645   7.684   7.020   6.175
   23POPC   C1B  646   8.232   7.586   7.273
   23POPC   C2B  647   8.431   7.599   6.886
   23POPC   C3B  648   8.286   7.650   6.452
   23POPC   C4B  649   8.220   7.394   6.072
   24POPC   NC3  650   9.233   3.516   8.030
   24POPC   PO4  651   8.751   3.968   8.029
   24POPC   GL1  652   8.863   3.673   7.706
   24POPC   GL2  653   8.804   3.295   7.823
   24POPC   C1A  654   9.164   3.742   7.338
   24POPC   D2A  655   9.327   3.608   6.915
   24POPC   C3A  656   9.065   3.763   6.564
   24POPC   C4A  657   8.720   3.609   6.313
   24POPC   C1B  658   9.052   3.268   7.438
   24POPC   C2B  659   8.906   3.335   7.009
   24POPC   C3B  660   9.011   3.234   6.572
   24POPC   C4B  661   8.770   3.106   6.217
   25POPC   NC3  662   0.218   1.788   8.118
   25POPC   PO4  663   0.469   2.223   8.446
   25POPC   GL1  664   0.417   2.154   7.864
   25POPC   GL2  665   0.705   2.079   7.665
   25POPC   C1A  666   0.205   2.088   7.451
   25POPC   D2A  667   9.957   2.189   7.065
   25POPC   C3A  668   0.110   2.045   6.662
   25POPC   C4A  669   0.169   2.076   6.215
   25POPC   C1B  670   0.643   1.937   7.249
   25POPC   C2B  671   0.598   2.103   6.834
   25POPC   C3B  672   0.646   2.009   6.403
   25POPC   C4B  673   0.542   1.815   5.990
   26POPC   NC3  674   9.879   4.363   8.222
   26POPC   PO4  675   9.370   4.726   7.910
   26POPC   GL1  676   9.700   4.533   7.682
   26POPC   GL2  677   9.813   4.165   7.751
   26POPC   C1A  678   9.680   4.640   7.251
   26POPC   D2A  679   9.436   4.590   6.867
   26POPC   C3A  680   9.601   4.491   6.455
   26POPC   C4A  681   9.578   4.649   6.036
   26POPC   C1B  682   9.912   4.196   7.316
   26POPC   C2B  683   9.920   4.372   6.888
   26POPC   C3B  684   0.022   4.169   6.517
   26POPC   C4B  685   9.940   3.802   6.271
   27POPC   NC3  686   7.297   0.971   8.113
   27POPC   PO4  687   7.710   1.433   7.800
   27POPC   GL1  688   7.267   1.357   7.661
   27POPC   GL2  689   7.129   1.015   7.643
   27POPC   C1A  690   7.161   1.268   7.211
   27POPC   D2A  691   7.348   1.262   6.782
   27POPC   C3A  692   7.036   1.341   6.449
   27POPC   C4A  693   7.014   1.176   5.997
   27POPC   C1B  694   7.551   0.963   7.393
   27POPC   C2B  695   7.746   0.927   6.977
   27POPC   C3B  696   7.632   0.867   6.549
   27POPC   C4B  697   7.476   1.188   6.258
   28POPC   NC3  698   9.299   4.969   8.292
   28POPC   PO4  699   8.619   4.931   8.081
   28POPC   GL1  700   8.891   4.763   7.706
   28POPC   GL2  701   9.110   5.022   7.587
   28POPC   C1A  702   9.068   4.646   7.241
   28POPC   D2A  703   8.954   4.819   6.795
   28POPC   C3A  704   9.161   4.775   6.360
   28POPC   C4A  705   9.117   4.719   5.880
   28POPC   C1B  706   8.703   5.060   7.355
   28POPC   C2B  707   8.569   5.135   6.950
   28POPC   C3B  708   8.685   5.242   6.516
   28POPC   C4B  709   8.599   5.646   6.328
   29POPC   NC3  710   6.004   8.869   8.431
   29POPC   PO4  711   5.461   9.262   8.258
   29POPC   GL1  712   5.684   9.240   7.859
   29POPC   GL2  713   5.847   8.899   7.831
   29POPC   C1A  714   5.795   9.206   7.422
   29POPC   D2A  715   5.970   9.127   7.015
   29POPC   C3A  716   5.749   9.210   6.623
   29POPC   C4A  717   5.422   9.177   6.301
   29POPC   C1B  718   5.926   8.696   7.414
   29POPC   C2B  719   6.151   8.647   7.033
   29POPC   C3B  720   5.955   8.739   6.665
   29POPC   C4B  721   5.768   8.818   6.270
   30POPC   NC3  722   5.037   8.890   8.177
   30POPC   PO4  723   4.442   8.668   7.909
   30POPC   GL1  724   4.834   8.758   7.705
   30POPC   GL2  725   4.889   9.142   7.718
   30POPC   C1A  726   4.943   8.826   7.269
   30POPC   D2A  727   4.915   9.254   7.153
   30POPC   C3A  728   4.853   9.292   6.725
   30POPC   C4A  729   4.954   8.993   6.427
   30POPC   C1B  730   5.314   9.038   7.539
   30POPC   C2B  731   5.469   8.946   7.105
   30POPC   C3B  732   5.400   8.816   6.661
   30POPC   C4B  733   5.269   8.654   6.242
   31POPC   NC3  734   5.886   9.666   8.084
   31POPC   PO4  735   5.382   0.078   8.289
   31POPC   GL1  736   5.608   0.003   7.819
   31POPC   GL2  737   5.780   9.718   7.571
   31POPC   C1A  738   5.410   0.019   7.380
   31POPC   D2A  739   5.540   0.237   6.988
   31POPC   C3A  740   5.485   0.038   6.567
   31POPC   C4A  741   5.585   9.660   6.309
   31POPC   C1B  742   6.143   9.543   7.265
   31POPC   C2B  743   6.265   9.583   6.838
   31POPC   C3B  744   6.061   9.571   6.435
   31POPC   C4B  745   5.906   9.286   6.117
   32POPC   NC3  746   7.155   2.443   8.164
   32POPC   PO4  747   7.216   3.124   8.192
   32POPC   GL1  748   7.368   2.849   7.892
   32POPC   GL2  749   7.633   3.009   7.749
   32POPC   C1A  750   7.288   2.755   7.454
   32POPC   D2A  751   7.206   2.660   7.003
   32POPC   C3A  752   7.135   3.001   6.690
   32POPC   C4A  753   7.232   3.050   6.270
   32POPC   C1B  754   7.794   2.798   7.355
   32POPC   C2B  755   7.733   2.614   6.933
   32POPC   C3B  756   7.565   2.730   6.521
   32POPC   C4B  757   7.665   2.894   6.066
   33POPC   NC3  758   8.978   9.271   8.356
   33POPC   PO4  759   9.217   8.569   8.283
   33POPC   GL1  760   9.069   8.813   7.888
   33POPC   GL2  761   8.727   8.826   8.009
   33POPC   C1A  762   9.104   8.943   7.390
   33POPC   D2A  763   9.171   8.754   6.978
   33POPC   C3A  764   9.156   9.008   6.625
   33POPC   C4A  765   8.969   8.988   6.245
   33POPC   C1B  766   8.610   8.890   7.566
   33POPC   C2B  767   8.684   8.900   7.095
   33POPC   C3B  768   8.709   8.749   6.652
   33POPC   C4B  769   8.463   8.661   6.259
   34POPC   NC3  770   5.041   0.394   8.190
   34POPC   PO4  771   4.654   0.868   7.902
   34POPC   GL1  772   4.873   0.512   7.692
   34POPC   GL2  773   4.718   0.186   7.602
   34POPC   C1A  774   5.080   0.436   7.279
   34POPC   D2A  775   5.278   0.662   6.929
   34POPC   C3A  776   5.234   0.542   6.478
   34POPC   C4A  777   5.092   0.562   6.017
   34POPC   C1B  778   4.692   0.114   7.143
   34POPC   C2B  779   5.017   0.204   6.794
   34POPC   C3B  780   5.032   0.103   6.312
   34POPC   C4B  781   4.868   0.129   5.852
   35POPC   NC3  782   0.321   6.766   8.232
   35POPC   PO4  783   0.863   6.611   8.121
   35POPC   GL1  784   0.788   6.439   7.729
   35POPC   GL2  785   0.470   6.502   7.788
   35POPC   C1A  786   0.764   6.594   7.325
   35POPC   D2A  787   0.684   6.903   7.003
   35POPC   C3A  788   0.783   6.727   6.602
   35POPC   C4A  789   0.669   6.794   6.178
   35POPC   C1B  790   0.286   6.471   7.406
   35POPC   C2B  791   0.420   6.428   6.965
   35POPC   C3B  792   0.346   6.453   6.532
   35POPC   C4B  793   0.170   6.131   6.274
   36POPC   NC3  794   7.619   8.630   7.960
   36POPC   PO4  795   7.836   9.259   8.058
   36POPC   GL1  796   7.540   9.115   7.756
   36POPC   GL2  797   7.209   8.985   7.888
   36POPC   C1A  798   7.633   9.092   7.301
   36POPC   D2A  799   7.847   9.101   6.895
   36POPC   C3A  800   7.635   9.051   6.500
   36POPC   C4A  801   7.544   9.192   6.055
   36POPC   C1B  802   7.244   8.809   7.466
   36POPC   C2B  803   7.300   8.737   7.032
   36POPC   C3B  804   7.045   8.678   6.653
   36POPC   C4B  805   7.214   8.855   6.294
   37POPC   NC3  806   1.950   8.738   8.143
   37POPC   PO4  807   2.254   8.241   7.822
   37POPC   GL1  808   1.948   8.541   7.672
   37POPC   GL2  809   2.025   8.929   7.680
   37POPC   C1A  810   1.897   8.648   7.254
   37POPC   D2A  811   2.042   8.942   6.957
   37POPC   C3A  812   2.073   8.719   6.557
   37POPC   C4A  813   1.687   8.620   6.315
   37POPC   C1B  814   2.197   9.269   7.381
   37POPC   C2B  815   2.407   9.311   6.956
   37POPC   C3B  816   2.250   9.216   6.538
   37POPC   C4B  817   1.923   9.095   6.230
   38POPC   NC3  818   0.707   6.188   8.165
   38POPC   PO4  819   0.483   5.573   7.991
   38POPC   GL1  820   0.502   5.971   7.758
   38POPC   GL2  821   0.840   5.920   7.713
   38POPC   C1A  822   0.564   6.078   7.322
   38POPC   D2A  823   0.434   5.803   6.978
   38POPC   C3A  824   0.544   5.949   6.571
   38POPC   C4A  825   0.744   6.252   6.282
   38POPC   C1B  826   0.721   5.614   7.370
   38POPC   C2B  827   0.725   5.403   6.924
   38POPC   C3B  828   0.602   5.430   6.488
   38POPC   C4B  829   0.303   5.632   6.213
   39POPC   NC3  830   2.127   7.165   8.141
   39POPC   PO4  831   1.542   7.676   8.121
   39POPC   GL1  832   1.737   7.571   7.711
   39POPC   GL2  833   1.989   7.316   7.682
   39POPC   C1A  834   1.890   7.595   7.250
   39POPC   D2A  835   1.769   7.426   6.824
   39POPC   C3A  836   1.928   7.645   6.458
   39POPC   C4A  837   2.073   7.651   6.021
   39POPC   C1B  838   2.236   7.192   7.350
   39POPC   C2B  839   2.140   7.082   6.921
   39POPC   C3B  840   2.246   7.235   6.497
   39POPC   C4B  841   2.233   7.171   6.037
   40POPC   NC3  842   6.521   0.123   8.015
   40POPC   PO4  843   6.962   0.663   7.990
   40POPC   GL1  844   6.904   0.321   7.715
   40POPC   GL2  845   6.596   0.480   7.654
   40POPC   C1A  846   6.847   0.284   7.267
   40POPC   D2A  847   6.768   0.552   6.903
   40POPC   C3A  848   6.858   0.420   6.456
   40POPC   C4A  849   6.738   0.678   6.105
   40POPC   C1B  850   6.350   0.333   7.345
   40POPC   C2B  851   6.210   0.459   6.964
   40POPC   C3B  852   6.360   0.547   6.562
   40POPC   C4B  853   6.399   0.285   6.237
   41POPC   NC3  854   8.919   7.370   8.163
   41POPC   PO4  855   8.456   6.880   8.203
   41POPC   GL1  856   8.671   7.110   7.792
   41POPC   GL2  857   9.058   7.256   7.683
   41POPC   C1A  858   8.697   7.380   7.371
   41POPC   D2A  859   8.973   7.374   7.034
   41POPC   C3A  860   8.833   7.413   6.641
   41POPC   C4A  861   8.731   7.482   6.217
   41POPC   C1B  862   9.216   7.626   7.387
   41POPC   C2B  863   9.388   7.693   6.923
   41POPC   C3B  864   9.195   7.729   6.460
   41POPC   C4B  865   9.211   7.710   5.964
   42POPC   NC3  866   2.440   3.727   8.186
   42POPC   PO4  867   1.834   4.002   8.377
   42POPC   GL1  868   1.818   3.859   7.917
   42POPC   GL2  869   1.845   3.478   7.838
   42POPC   C1A  870   1.752   3.850   7.457
   42POPC   D2A  871   1.965   3.589   7.150
   42POPC   C3A  872   1.894   3.624   6.705
   42POPC   C4A  873   1.673   3.838   6.376
   42POPC   C1B  874   1.704   3.258   7.432
   42POPC   C2B  875   1.562   3.169   6.989
   42POPC   C3B  876   1.720   3.130   6.548
   42POPC   C4B  877   1.977   3.352   6.259
   43POPC   NC3  878   1.031   3.080   8.082
   43POPC   PO4  879   0.744   2.510   7.965
   43POPC   GL1  880   0.964   2.753   7.675
   43POPC   GL2  881   1.327   2.775   7.755
   43POPC   C1A  882   0.881   2.744   7.254
   43POPC   D2A  883   0.782   2.578   6.864
   43POPC   C3A  884   0.938   2.786   6.541
   43POPC   C4A  885   1.045   2.676   6.117
   43POPC   C1B  886   1.516   2.746   7.338
   43POPC   C2B  887   1.306   2.709   6.937
   43POPC   C3B  888   1.448   2.687   6.528
   43POPC   C4B  889   1.500   2.891   6.145
   44POPC   NC3  890   9.417   1.847   7.953
   44POPC   PO4  891   9.969   2.254   8.053
   44POPC   GL1  892   9.747   2.169   7.672
   44POPC   GL2  893   9.872   1.817   7.715
   44POPC   C1A  894   9.501   2.286   7.268
   44POPC   D2A  895   9.496   2.494   6.833
   44POPC   C3A  896   9.832   2.446   6.468
   44POPC   C4A  897   9.773   2.306   5.978
   44POPC   C1B  898   9.829   1.730   7.271
   44POPC   C2B  899   9.881   1.489   6.864
   44POPC   C3B  900   9.928   1.601   6.432
   44POPC   C4B  901   9.683   1.978   6.360
   45POPC   NC3  902   0.324   2.557   8.177
   45POPC   PO4  903   0.513   3.185   8.117
   45POPC   GL1  904   0.371   2.922   7.753
   45POPC   GL2  905   0.134   2.617   7.697
   45POPC   C1A  906   0.231   3.035   7.329
   45POPC   D2A  907   0.502   2.980   6.987
   45POPC   C3A  908   0.512   3.055   6.572
   45POPC   C4A  909   0.575   2.866   6.171
   45POPC   C1B  910   0.379   2.545   7.298
   45POPC   C2B  911   0.270   2.531   6.852
   45POPC   C3B  912   0.397   2.478   6.441
   45POPC   C4B  913   0.210   2.556   6.016
   46POPC   NC3  914   8.149   7.153   8.386
   46POPC   PO4  915   7.893   6.588   8.106
   46POPC   GL1  916   8.150   6.841   7.800
   46POPC   GL2  917   8.407   6.604   7.728
   46POPC   C1A  918   8.412   6.961   7.376
   46POPC   D2A  919   8.603   7.018   6.931
   46POPC   C3A  920   8.406   7.138   6.516
   46POPC   C4A  921   8.189   6.885   6.162
   46POPC   C1B  922   8.083   6.555   7.403
   46POPC   C2B  923   8.247   6.645   7.021
   46POPC   C3B  924   8.281   6.652   6.616
   46POPC   C4B  925   8.048   6.411   6.373
   47POPC   NC3  926   5.007   1.468   8.387
   47POPC   PO4  927   4.492   1.843   8.151
   47POPC   GL1  928   4.760   1.830   7.808
   47POPC   GL2  929   5.062   1.841   8.011
   47POPC   C1A  930   4.798   1.812   7.341
   47POPC   D2A  931   4.995   1.893   6.919
   47POPC   C3A  932   4.705   2.005   6.566
   47POPC   C4A  933   4.781   2.374   6.296
   47POPC   C1B  934   5.243   1.975   7.595
   47POPC   C2B  935   5.472   2.079   7.193
   47POPC   C3B  936   5.474   2.134   6.724
   47POPC   C4B  937   5.190   1.929   6.406
   48POPC   NC3  938   2.651   4.585   7.993
   48POPC   PO4  939   2.762   5.229   8.098
   48POPC   GL1  940   2.567   5.154   7.700
   48POPC   GL2  941   2.439   4.822   7.568
   48POPC   C1A  942   2.681   5.221   7.256
   48POPC   D2A  943   2.556   5.302   6.822
   48POPC   C3A  944   2.726   5.147   6.437
   48POPC   C4A  945   2.635   5.115   6.000
   48POPC   C1B  946   2.293   4.909   7.123
   48POPC   C2B  947   2.463   4.793   6.695
   48POPC   C3B  948   2.655   4.663   6.276
   48POPC   C4B  949   2.803   4.613   5.856
   49POPC   NC3  950   4.305   2.274   8.198
   49POPC   PO4  951   3.771   1.768   8.204
   49POPC   GL1  952   4.054   1.936   7.883
   49POPC   GL2  953   4.250   1.699   7.712
   49POPC   C1A  954   3.996   2.122   7.456
   49POPC   D2A  955   3.865   2.114   6.990
   49POPC   C3A  956   4.159   1.958   6.605
   49POPC   C4A  957   4.329   2.140   6.184
   49POPC   C1B  958   4.276   1.723   7.274
   49POPC   C2B  959   4.495   1.676   6.909
   49POPC   C3B  960   4.495   1.507   6.508
   49POPC   C4B  961   4.373   1.636   6.107
   50POPC   NC3  962   6.383   7.320   7.987
   50POPC   PO4  963   6.853   7.107   8.432
   50POPC   GL1  964   6.828   7.177   7.815
   50POPC   GL2  965   7.043   7.432   7.673
   50POPC   C1A  966   6.730   7.179   7.344
   50POPC   D2A  967   6.478   7.208   6.944
   50POPC   C3A  968   6.596   7.404   6.543
   50POPC   C4A  969   6.704   7.250   6.115
   50POPC   C1B  970   7.084   7.510   7.238
   50POPC   C2B  971   7.026   7.291   6.855
   50POPC   C3B  972   7.079   7.499   6.454
   50POPC   C4B  973   6.850   7.718   6.097
   51POPC   NC3  974   9.716   2.640   8.047
   51POPC   PO4  975   9.178   3.082   8.207
   51POPC   GL1  976   9.378   2.957   7.745
   51POPC   GL2  977   9.616   2.681   7.577
   51POPC   C1A  978   9.315   2.878   7.254
   51POPC   D2A  979   9.471   3.105   6.909
   51POPC   C3A  980   9.532   2.909   6.526
   51POPC   C4A  981   9.280   2.972   6.178
   51POPC   C1B  982   9.857   2.690   7.192
   51POPC   C2B  983   9.983   2.957   6.836
   51POPC   C3B  984   0.052   2.893   6.395
   51POPC   C4B  985   9.762   2.803   6.065
   52POPC   NC3  986   6.685   1.866   8.310
   52POPC   PO4  987   7.097   1.391   8.152
   52POPC   GL1  988   6.820   1.584   7.886
   52POPC   GL2  989   6.787   1.957   7.804
   52POPC   C1A  990   6.794   1.574   7.451
   52POPC   D2A  991   6.577   1.386   7.143
   52POPC   C3A  992   6.623   1.527   6.706
   52POPC   C4A  993   6.820   1.800   6.365
   52POPC   C1B  994   6.489   2.023   7.444
   52POPC   C2B  995   6.350   1.856   7.018
   52POPC   C3B  996   6.372   1.982   6.564
   52POPC   C4B  997   6.498   2.267   6.177
   53POPC   NC3  998   0.226   3.493   7.916
   53POPC   PO4  999   9.883   3.013   8.265
   53POPC   GL1 1000   9.874   3.091   7.804
   53POPC   GL2 1001   9.697   3.424   7.780
   53POPC   C1A 1002   9.748   3.175   7.350
   53POPC   D2A 1003   9.989   3.435   7.035
   53POPC   C3A 1004   9.767   3.460   6.632
   53POPC   C4A 1005   9.719   3.293   6.211
   53POPC   C1B 1006   9.698   3.713   7.382
   53POPC   C2B 1007   9.748   3.892   6.941
   53POPC   C3B 1008   9.534   3.983   6.552
   53POPC   C4B 1009   9.431   3.716   6.199
   54POPC   NC3 1010   6.997   8.761   8.478
   54POPC   PO4 1011   6.427   9.026   8.332
   54POPC   GL1 1012   6.445   8.930   7.856
   54POPC   GL2 1013   6.760   8.708   7.780
   54POPC   C1A 1014   6.340   9.055   7.391
   54POPC   D2A 1015   6.534   9.129   6.957
   54POPC   C3A 1016   6.274   9.127   6.607
   54POPC   C4A 1017   6.265   8.862   6.280
   54POPC   C1B 1018   6.846   9.108   7.550
   54POPC   C2B 1019   7.110   9.249   7.169
   54POPC   C3B 1020   7.096   9.178   6.705
   54POPC   C4B 1021   6.740   9.008   6.428
   55POPC   NC3 1022   9.674   0.340   7.810
   55POPC   PO4 1023   9.266   0.725   8.199
   55POPC   GL1 1024   9.544   0.818   7.772
   55POPC   GL2 1025   9.918   0.823   7.683
   55POPC   C1A 1026   9.500   0.752   7.298
   55POPC   D2A 1027   9.599   0.530   6.896
   55POPC   C3A 1028   9.382   0.719   6.551
   55POPC   C4A 1029   9.236   0.636   6.141
   55POPC   C1B 1030   9.964   0.545   7.281
   55POPC   C2B 1031   0.014   0.216   6.936
   55POPC   C3B 1032   9.958   0.402   6.529
   55POPC   C4B 1033   9.602   0.310   6.310
   56POPC   NC3 1034   0.090   5.821   8.032
   56POPC   PO4 1035   9.547   6.186   7.816
   56POPC   GL1 1036   9.947   6.017   7.584
   56POPC   GL2 1037   0.160   5.696   7.507
   56POPC   C1A 1038   0.057   6.077   7.160
   56POPC   D2A 1039   9.986   5.883   6.745
   56POPC   C3A 1040   9.682   6.091   6.489
   56POPC   C4A 1041   9.703   5.979   6.082
   56POPC   C1B 1042   9.778   5.650   7.245
   56POPC   C2B 1043   9.562   5.574   6.843
   56POPC   C3B 1044   9.605   5.583   6.391
   56POPC   C4B 1045   9.363   5.615   5.966
   57POPC   NC3 1046   8.157   9.587   8.104
   57POPC   PO4 1047   8.644   0.020   7.964
   57POPC   GL1 1048   8.282   9.851   7.661
   57POPC   GL2 1049   8.285   9.445   7.627
   57POPC   C1A 1050   7.918   9.979   7.349
   57POPC   D2A 1051   7.716   9.943   6.913
   57POPC   C3A 1052   7.849   9.939   6.450
   57POPC   C4A 1053   8.170   9.847   6.128
   57POPC   C1B 1054   8.021   9.480   7.238
   57POPC   C2B 1055   8.052   9.567   6.774
   57POPC   C3B 1056   7.954   9.429   6.353
   57POPC   C4B 1057   8.098   9.386   5.905
   58POPC   NC3 1058   3.804   7.538   8.039
   58POPC   PO4 1059   3.696   6.964   8.067
   58POPC   GL1 1060   3.738   7.259   7.616
   58POPC   GL2 1061   3.563   7.586   7.512
   58POPC   C1A 1062   3.839   7.426   7.139
   58POPC   D2A 1063   3.614   7.551   6.752
   58POPC   C3A 1064   3.376   7.226   6.582
   58POPC   C4A 1065   3.462   6.978   6.229
   58POPC   C1B 1066   3.259   7.631   7.162
   58POPC   C2B 1067   3.114   7.687   6.720
   58POPC   C3B 1068   3.321   7.664   6.317
   58POPC   C4B 1069   3.712   7.540   6.238
   59POPC   NC3 1070   8.823   2.233   7.856
   59POPC   PO4 1071   9.014   1.616   8.052
   59POPC   GL1 1072   9.079   1.633   7.598
   59POPC   GL2 1073   8.771   1.756   7.503
   59POPC   C1A 1074   9.327   1.636   7.189
   59POPC   D2A 1075   9.496   1.945   6.861
   59POPC   C3A 1076   9.198   1.985   6.489
   59POPC   C4A 1077   9.024   1.698   6.201
   59POPC   C1B 1078   9.031   2.065   7.263
   59POPC   C2B 1079   8.989   2.257   6.867
   59POPC   C3B 1080   8.679   2.039   6.618
   59POPC   C4B 1081   8.542   1.748   6.313
   60POPC   NC3 1082   6.726   1.072   8.173
   60POPC   PO4 1083   6.095   0.776   8.226
   60POPC   GL1 1084   6.352   0.883   7.844
   60POPC   GL2 1085   6.598   1.125   7.680
   60POPC   C1A 1086   6.259   0.822   7.386
   60POPC   D2A 1087   6.359   0.941   6.959
   60POPC   C3A 1088   6.065   0.952   6.619
   60POPC   C4A 1089   6.240   0.963   6.197
   60POPC   C1B 1090   6.765   0.921   7.295
   60POPC   C2B 1091   6.842   1.066   6.860
   60POPC   C3B 1092   6.634   1.018   6.502
   60POPC   C4B 1093   6.572   1.351   6.214
   61POPC   NC3 1094   1.051   4.056   7.866
   61POPC   PO4 1095   0.930   4.679   7.949
   61POPC   GL1 1096   0.921   4.469   7.565
   61POPC   GL2 1097   1.264   4.347   7.522
   61POPC   C1A 1098   0.929   4.432   7.097
   61POPC   D2A 1099   0.848   4.615   6.707
   61POPC   C3A 1100   0.917   4.481   6.313
   61POPC   C4A 1101   1.055   4.368   5.874
   61POPC   C1B 1102   1.284   4.081   7.165
   61POPC   C2B 1103   1.201   4.178   6.700
   61POPC   C3B 1104   1.354   4.238   6.263
   61POPC   C4B 1105   1.378   3.967   5.936
   62POPC   NC3 1106   7.625   3.325   8.187
   62POPC   PO4 1107   7.149   3.786   7.997
   62POPC   GL1 1108   7.398   3.485   7.761
   62POPC   GL2 1109   7.169   3.250   7.653
   62POPC   C1A 1110   7.638   3.330   7.390
   62POPC   D2A 1111   7.509   3.093   7.026
   62POPC   C3A 1112   7.581   3.261   6.583
   62POPC   C4A 1113   7.777   3.369   6.177
   62POPC   C1B 1114   7.169   3.456   7.266
   62POPC   C2B 1115   7.215   3.498   6.851
   62POPC   C3B 1116   7.085   3.490   6.441
   62POPC   C4B 1117   7.259   3.513   6.038
   63POPC   NC3 1118   1.924   2.870   8.188
   63POPC   PO4 1119   2.490   3.261   8.238
   63POPC   GL1 1120   2.300   3.061   7.820
   63POPC   GL2 1121   2.139   2.728   7.735
   63POPC   C1A 1122   2.170   3.064   7.340
   63POPC   D2A 1123   2.074   3.160   6.905
   63POPC   C3A 1124   2.240   2.964   6.519
   63POPC   C4A 1125   2.151   2.911   6.061
   63POPC   C1B 1126   2.022   2.572   7.304
   63POPC   C2B 1127   1.865   2.688   6.874
   63POPC   C3B 1128   1.964   2.540   6.453
   63POPC   C4B 1129   1.844   2.508   6.014
   64POPC   NC3 1130   8.063   7.832   7.929
   64POPC   PO4 1131   8.263   8.416   8.277
   64POPC   GL1 1132   8.393   8.473   7.817
   64POPC   GL2 1133   8.337   8.141   7.645
   64POPC   C1A 1134   8.394   8.490   7.317
   64POPC   D2A 1135   8.416   8.126   7.027
   64POPC   C3A 1136   8.428   8.319   6.649
   64POPC   C4A 1137   8.345   8.152   6.271
   64POPC   C1B 1138   7.996   8.074   7.298
   64POPC   C2B 1139   7.959   7.824   6.892
   64POPC   C3B 1140   7.843   7.959   6.477
   64POPC   C4B 1141   7.983   7.861   6.074
   65POPC   NC3 1142   4.243   9.792   8.181
   65POPC   PO4 1143   4.759   9.299   8.215
   65POPC   GL1 1144   4.470   9.453   7.843
   65POPC   GL2 1145   4.384   9.800   7.706
   65POPC   C1A 1146   4.465   9.350   7.410
   65POPC   D2A 1147   4.470   9.611   7.026
   65POPC   C3A 1148   4.382   9.430   6.586
   65POPC   C4A 1149   4.642   9.359   6.231
   65POPC   C1B 1150   4.060   9.660   7.453
   65POPC   C2B 1151   3.966   9.808   7.042
   65POPC   C3B 1152   4.175   9.898   6.618
   65POPC   C4B 1153   4.047   9.851   6.151
   66POPC   NC3 1154   2.083   1.243   8.087
   66POPC   PO4 1155   1.566   0.819   8.144
   66POPC   GL1 1156   1.763   0.976   7.774
   66POPC   GL2 1157   2.132   0.980   7.641
   66POPC   C1A 1158   1.667   1.195   7.399
   66POPC   D2A 1159   1.751   1.061   6.996
   66POPC   C3A 1160   1.718   1.209   6.559
   66POPC   C4A 1161   1.983   1.060   6.213
   66POPC   C1B 1162   2.165   1.264   7.268
   66POPC   C2B 1163   2.135   1.351   6.813
   66POPC   C3B 1164   2.036   1.589   6.418
   66POPC   C4B 1165   1.966   1.609   5.950
   67POPC   NC3 1166   7.346   4.206   7.998
   67POPC   PO4 1167   7.537   4.786   7.947
   67POPC   GL1 1168   7.726   4.444   7.658
   67POPC   GL2 1169   7.785   4.047   7.729
   67POPC   C1A 1170   7.756   4.277   7.219
   67POPC   D2A 1171   7.711   4.085   6.806
   67POPC   C3A 1172   7.524   4.302   6.467
   67POPC   C4A 1173   7.407   4.520   6.114
   67POPC   C1B 1174   7.517   3.847   7.408
   67POPC   C2B 1175   7.247   3.963   7.076
   67POPC   C3B 1176   7.192   3.959   6.633
   67POPC   C4B 1177   7.529   3.762   6.428
   68POPC   NC3 1178   2.094   5.401   8.142
   68POPC   PO4 1179   2.268   4.784   8.196
   68POPC   GL1 1180   2.063   5.038   7.815
   68POPC   GL2 1181   1.736   4.991   7.705
   68POPC   C1A 1182   2.144   5.312   7.448
   68POPC   D2A 1183   2.126   5.465   7.030
   68POPC   C3A 1184   2.068   5.146   6.715
   68POPC   C4A 1185   2.197   5.024   6.298
   68POPC   C1B 1186   1.756   4.961   7.258
   68POPC   C2B 1187   1.563   5.102   6.870
   68POPC   C3B 1188   1.635   5.063   6.429
   68POPC   C4B 1189   1.794   4.733   6.146
   69POPC   NC3 1190   7.945   2.772   8.039
   69POPC   PO4 1191   8.481   2.462   8.036
   69POPC   GL1 1192   8.392   2.733   7.715
   69POPC   GL2 1193   8.180   3.013   7.662
   69POPC   C1A 1194   8.300   2.657   7.287
   69POPC   D2A 1195   8.435   2.448   6.899
   69POPC   C3A 1196   8.124   2.510   6.588
   69POPC   C4A 1197   7.884   2.482   6.210
   69POPC   C1B 1198   8.128   3.202   7.280
   69POPC   C2B 1199   7.994   3.135   6.867
   69POPC   C3B 1200   8.010   2.993   6.448
   69POPC   C4B 1201   8.261   2.812   6.141
   70POPC   NC3 1202   1.147   7.327   8.177
   70POPC   PO4 1203   1.708   6.805   8.166
   70POPC   GL1 1204   1.537   7.100   7.753
   70POPC   GL2 1205   1.256   7.380   7.690
   70POPC   C1A 1206   1.504   7.269   7.273
   70POPC   D2A 1207   1.244   7.176   6.893
   70POPC   C3A 1208   1.396   7.274   6.465
   70POPC   C4A 1209   1.756   7.251   6.199
   70POPC   C1B 1210   1.008   7.492   7.283
   70POPC   C2B 1211   0.920   7.539   6.830
   70POPC   C3B 1212   0.864   7.246   6.466
   70POPC   C4B 1213   0.958   7.275   6.005
   71POPC   NC3 1214   0.660   9.655   8.225
   71POPC   PO4 1215   1.254   9.263   8.130
   71POPC   GL1 1216   1.327   9.413   7.709
   71POPC   GL2 1217   1.018   9.609   7.736
   71POPC   C1A 1218   1.240   9.340   7.250
   71POPC   D2A 1219   0.953   9.101   6.949
   71POPC   C3A 1220   0.936   9.236   6.493
   71POPC   C4A 1221   0.923   9.292   6.030
   71POPC   C1B 1222   1.289   9.837   7.441
   71POPC   C2B 1223   1.328   9.924   7.001
   71POPC   C3B 1224   0.997   9.983   6.697
   71POPC   C4B 1225   0.879   9.851   6.307
   72POPC   NC3 1226   6.734   6.812   8.120
   72POPC   PO4 1227   6.236   6.956   7.735
   72POPC   GL1 1228   6.639   6.740   7.585
   72POPC   GL2 1229   6.927   6.523   7.730
   72POPC   C1A 1230   6.627   6.721   7.116
   72POPC   D2A 1231   6.800   6.842   6.711
   72POPC   C3A 1232   6.470   6.911   6.423
   72POPC   C4A 1233   6.404   6.882   5.943
   72POPC   C1B 1234   6.980   6.387   7.270
   72POPC   C2B 1235   6.791   6.322   6.816
   72POPC   C3B 1236   6.539   6.416   6.422
   72POPC   C4B 1237   6.570   6.373   5.960
   73POPC   NC3 1238   7.534   6.332   7.964
   73POPC   PO4 1239   7.196   6.888   8.007
   73POPC   GL1 1240   7.229   6.905   7.595
   73POPC   GL2 1241   7.584   6.781   7.649
   73POPC   C1A 1242   7.107   6.866   7.152
   73POPC   D2A 1243   7.254   6.571   6.837
   73POPC   C3A 1244   7.076   6.496   6.420
   73POPC   C4A 1245   6.861   6.749   6.151
   73POPC   C1B 1246   7.608   6.703   7.228
   73POPC   C2B 1247   7.785   6.638   6.832
   73POPC   C3B 1248   7.595   6.611   6.448
   73POPC   C4B 1249   7.494   6.245   6.231
   74POPC   NC3 1250   6.200   2.671   7.972
   74POPC   PO4 1251   6.700   2.308   8.171
   74POPC   GL1 1252   6.759   2.510   7.762
   74POPC   GL2 1253   6.860   2.857   7.758
   74POPC   C1A 1254   6.565   2.584   7.341
   74POPC   D2A 1255   6.521   2.344   6.936
   74POPC   C3A 1256   6.311   2.539   6.555
   74POPC   C4A 1257   6.052   2.607   6.170
   74POPC   C1B 1258   6.875   2.998   7.281
   74POPC   C2B 1259   6.703   2.817   6.875
   74POPC   C3B 1260   6.721   2.822   6.390
   74POPC   C4B 1261   6.416   2.935   6.036
   75POPC   NC3 1262   3.569   0.538   8.143
   75POPC   PO4 1263   3.907   1.093   8.131
   75POPC   GL1 1264   3.965   0.776   7.783
   75POPC   GL2 1265   3.740   0.491   7.677
   75POPC   C1A 1266   3.938   0.762   7.321
   75POPC   D2A 1267   3.559   0.757   7.047
   75POPC   C3A 1268   3.581   0.553   6.653
   75POPC   C4A 1269   3.701   0.648   6.220
   75POPC   C1B 1270   3.370   0.428   7.422
   75POPC   C2B 1271   3.177   0.402   7.021
   75POPC   C3B 1272   3.199   0.206   6.630
   75POPC   C4B 1273   3.215   0.503   6.276
   76POPC   NC3 1274   2.525   2.071   8.211
   76POPC   PO4 1275   3.092   2.497   8.289
   76POPC   GL1 1276   3.064   2.319   7.815
   76POPC   GL2 1277   2.852   2.020   7.791
   76POPC   C1A 1278   3.005   2.205   7.323
   76POPC   D2A 1279   2.704   2.098   6.953
   76POPC   C3A 1280   2.815   2.087   6.497
   76POPC   C4A 1281   2.867   2.116   6.038
   76POPC   C1B 1282   2.692   1.806   7.410
   76POPC   C2B 1283   2.470   1.649   7.054
   76POPC   C3B 1284   2.532   1.623   6.594
   76POPC   C4B 1285   2.811   1.644   6.223
   77POPC   NC3 1286   1.417   4.690   7.952
   77POPC   PO4 1287   1.432   5.258   8.039
   77POPC   GL1 1288   1.184   5.085   7.727
   77POPC   GL2 1289   1.025   5.419   7.729
   77POPC   C1A 1290   1.250   4.801   7.325
   77POPC   D2A 1291   1.424   4.571   6.970
   77POPC   C3A 1292   1.329   4.684   6.553
   77POPC   C4A 1293   1.284   4.807   6.120
   77POPC   C1B 1294   1.045   5.244   7.284
   77POPC   C2B 1295   1.064   5.025   6.887
   77POPC   C3B 1296   1.123   5.191   6.474
   77POPC   C4B 1297   1.317   5.333   6.085
   78POPC   NC3 1298   8.040   0.874   8.122
   78POPC   PO4 1299   8.033   1.542   8.230
   78POPC   GL1 1300   8.186   1.262   7.827
   78POPC   GL2 1301   8.508   1.361   7.719
   78POPC   C1A 1302   8.093   1.060   7.375
   78POPC   D2A 1303   8.308   1.074   6.947
   78POPC   C3A 1304   8.153   0.892   6.533
   78POPC   C4A 1305   7.912   0.974   6.111
   78POPC   C1B 1306   8.298   1.523   7.329
   78POPC   C2B 1307   7.923   1.432   7.032
   78POPC   C3B 1308   7.875   1.332   6.582
   78POPC   C4B 1309   8.214   1.347   6.255
   79POPC   NC3 1310   1.950   0.575   8.097
   79POPC   PO4 1311   1.941   9.921   8.091
   79POPC   GL1 1312   1.669   0.082   7.748
   79POPC   GL2 1313   1.607   0.466   7.733
   79POPC   C1A 1314   1.838   0.149   7.334
   79POPC   D2A 1315   2.185   0.258   7.026
   79POPC   C3A 1316   2.056   0.225   6.601
   79POPC   C4A 1317   2.033   0.174   6.175
   79POPC   C1B 1318   1.848   0.672   7.361
   79POPC   C2B 1319   2.174   0.798   7.029
   79POPC   C3B 1320   2.000   0.771   6.629
   79POPC   C4B 1321   1.737   0.566   6.291
   80POPC   NC3 1322   5.146   9.623   8.316
   80POPC   PO4 1323   4.630   0.105   8.202
   80POPC   GL1 1324   4.836   9.799   7.939
   80POPC   GL2 1325   5.110   9.955   7.849
   80POPC   C1A 1326   4.837   9.698   7.462
   80POPC   D2A 1327   5.011   9.741   7.024
   80POPC   C3A 1328   4.749   9.795   6.640
   80POPC   C4A 1329   4.572   9.874   6.231
   80POPC   C1B 1330   5.294   9.564   7.642
   80POPC   C2B 1331   5.401   9.453   7.198
   80POPC   C3B 1332   5.327   9.477   6.724
   80POPC   C4B 1333   5.088   9.571   6.323
   81POPC   NC3 1334   1.037   8.837   8.119
   81POPC   PO4 1335   1.563   8.399   8.071
   81POPC   GL1 1336   1.522   8.851   7.842
   81POPC   GL2 1337   1.189   8.935   7.652
   81POPC   C1A 1338   1.615   9.043   7.417
   81POPC   D2A 1339   1.377   8.799   7.087
   81POPC   C3A 1340   1.276   8.799   6.623
   81POPC   C4A 1341   1.359   9.031   6.207
   81POPC   C1B 1342   1.016   8.613   7.405
   81POPC   C2B 1343   0.886   8.560   6.991
   81POPC   C3B 1344   0.735   8.748   6.629
   81POPC   C4B 1345   0.929   8.751   6.242
   82POPC   NC3 1346   9.520   8.918   8.194
   82POPC   PO4 1347   9.959   8.448   8.150
   82POPC   GL1 1348   9.829   8.689   7.809
   82POPC   GL2 1349   9.511   8.538   7.830
   82POPC   C1A 1350   9.990   8.864   7.390
   82POPC   D2A 1351   9.975   9.191   7.030
   82POPC   C3A 1352   9.846   8.999   6.613
   82POPC   C4A 1353   9.851   8.743   6.166
   82POPC   C1B 1354   9.505   8.637   7.389
   82POPC   C2B 1355   9.670   8.675   6.975
   82POPC   C3B 1356   9.485   8.652   6.515
   82POPC   C4B 1357   9.483   9.083   6.225
   83POPC   NC3 1358   2.532   5.616   7.978
   83POPC   PO4 1359   1.938   5.722   8.414
   83POPC   GL1 1360   1.825   5.793   7.905
   83POPC   GL2 1361   1.751   5.504   7.729
   83POPC   C1A 1362   2.026   5.862   7.465
   83POPC   D2A 1363   2.201   6.076   7.078
   83POPC   C3A 1364   2.087   5.875   6.695
   83POPC   C4A 1365   1.773   5.997   6.391
   83POPC   C1B 1366   1.659   5.476   7.265
   83POPC   C2B 1367   1.694   5.595   6.806
   83POPC   C3B 1368   1.883   5.506   6.405
   83POPC   C4B 1369   2.333   5.498   6.394
   84POPC   NC3 1370   7.471   5.234   8.012
   84POPC   PO4 1371   7.533   5.875   7.970
   84POPC   GL1 1372   7.767   5.518   7.654
   84POPC   GL2 1373   7.777   5.111   7.622
   84POPC   C1A 1374   7.734   5.371   7.185
   84POPC   D2A 1375   7.679   5.297   6.709
   84POPC   C3A 1376   7.667   5.642   6.388
   84POPC   C4A 1377   7.645   5.597   5.910
   84POPC   C1B 1378   7.641   4.831   7.282
   84POPC   C2B 1379   7.610   4.658   6.859
   84POPC   C3B 1380   7.484   4.872   6.472
   84POPC   C4B 1381   7.708   5.154   6.199
   85POPC   NC3 1382   1.276   6.661   8.291
   85POPC   PO4 1383   0.761   7.085   8.323
   85POPC   GL1 1384   0.927   7.008   7.829
   85POPC   GL2 1385   1.197   6.743   7.791
   85POPC   C1A 1386   1.097   6.975   7.361
   85POPC   D2A 1387   1.166   6.671   6.995
   85POPC   C3A 1388   1.292   6.768   6.555
   85POPC   C4A 1389   1.134   6.574   6.182
   85POPC   C1B 1390   1.485   6.579   7.530
   85POPC   C2B 1391   1.577   6.419   7.134
   85POPC   C3B 1392   1.633   6.407   6.704
   85POPC   C4B 1393   1.625   6.476   6.270
   86POPC   NC3 1394   0.307   8.731   8.040
   86POPC   PO4 1395   0.301   9.348   8.120
   86POPC   GL1 1396   0.708   9.182   7.893
   86POPC   GL2 1397   0.685   8.837   7.723
   86POPC   C1A 1398   0.777   9.248   7.436
   86POPC   D2A 1399   0.486   9.285   7.066
   86POPC   C3A 1400   0.416   9.164   6.643
   86POPC   C4A 1401   0.530   9.054   6.226
   86POPC   C1B 1402   0.523   8.820   7.285
   86POPC   C2B 1403   0.234   8.770   6.925
   86POPC   C3B 1404   0.256   8.706   6.469
   86POPC   C4B 1405   0.435   8.569   6.095
   87POPC   NC3 1406   0.462   7.422   8.219
   87POPC   PO4 1407   9.923   7.021   8.217
   87POPC   GL1 1408   0.135   7.182   7.840
   87POPC   GL2 1409   0.051   7.525   7.763
   87POPC   C1A 1410   0.224   6.969   7.420
   87POPC   D2A 1411   0.133   6.859   6.979
   87POPC   C3A 1412   0.324   6.986   6.576
   87POPC   C4A 1413   0.387   7.264   6.231
   87POPC   C1B 1414   0.379   7.444   7.406
   87POPC   C2B 1415   0.437   7.360   6.938
   87POPC   C3B 1416   0.512   7.630   6.556
   87POPC   C4B 1417   0.842   7.763   6.271
   88POPC   NC3 1418   8.227   0.282   7.975
   88POPC   PO4 1419   7.644   0.628   8.115
   88POPC   GL1 1420   7.860   0.666   7.709
   88POPC   GL2 1421   8.218   0.661   7.638
   88POPC   C1A 1422   7.846   0.518   7.323
   88POPC   D2A 1423   8.103   0.562   6.953
   88POPC   C3A 1424   7.926   0.422   6.585
   88POPC   C4A 1425   7.728   0.505   6.188
   88POPC   C1B 1426   8.329   0.310   7.344
   88POPC   C2B 1427   8.249   0.036   6.966
   88POPC   C3B 1428   8.356   0.087   6.534
   88POPC   C4B 1429   8.235   0.376   6.186
   89POPC   NC3 1430   5.045   1.046   8.045
   89POPC   PO4 1431   5.450   1.562   8.210
   89POPC   GL1 1432   5.409   1.521   7.747
   89POPC   GL2 1433   5.066   1.425   7.708
   89POPC   C1A 1434   5.260   1.572   7.275
   89POPC   D2A 1435   4.909   1.401   7.024
   89POPC   C3A 1436   4.991   1.471   6.600
   89POPC   C4A 1437   5.362   1.423   6.386
   89POPC   C1B 1438   5.109   1.085   7.412
   89POPC   C2B 1439   4.868   0.903   7.130
   89POPC   C3B 1440   4.951   0.963   6.694
   89POPC   C4B 1441   5.080   1.003   6.277
   90POPC   NC3 1442   5.333   7.924   8.129
   90POPC   PO4 1443   4.878   8.448   8.250
   90POPC   GL1 1444   4.787   8.258   7.839
   90POPC   GL2 1445   5.137   8.250   7.773
   90POPC   C1A 1446   4.840   8.330   7.376
   90POPC   D2A 1447   5.131   8.355   7.026
   90POPC   C3A 1448   4.961   8.526   6.676
   90POPC   C4A 1449   4.676   8.413   6.362
   90POPC   C1B 1450   5.215   7.969   7.421
   90POPC   C2B 1451   5.047   7.853   7.013
   90POPC   C3B 1452   4.923   7.987   6.628
   90POPC   C4B 1453   5.216   8.172   6.399
   91POPC   NC3 1454   9.659   7.450   8.259
   91POPC   PO4 1455   9.227   7.036   8.116
   91POPC   GL1 1456   9.561   7.194   7.835
   91POPC   GL2 1457   9.510   7.536   7.782
   91POPC   C1A 1458   9.756   7.207   7.420
   91POPC   D2A 1459   9.623   6.967   7.035
   91POPC   C3A 1460   9.571   7.172   6.646
   91POPC   C4A 1461   9.852   7.118   6.283
   91POPC   C1B 1462   9.723   7.738   7.408
   91POPC   C2B 1463   9.975   7.571   7.071
   91POPC   C3B 1464   0.015   7.445   6.634
   91POPC   C4B 1465   9.679   7.600   6.337
   92POPC   NC3 1466   7.906   1.837   7.900
   92POPC   PO4 1467   7.636   2.425   7.981
   92POPC   GL1 1468   7.981   2.413   7.650
   92POPC   GL2 1469   8.326   2.217   7.608
   92POPC   C1A 1470   7.998   2.259   7.219
   92POPC   D2A 1471   7.846   1.967   6.934
   92POPC   C3A 1472   7.719   2.182   6.581
   92POPC   C4A 1473   7.594   2.044   6.203
   92POPC   C1B 1474   8.468   2.017   7.187
   92POPC   C2B 1475   8.313   1.723   6.838
   92POPC   C3B 1476   8.058   1.805   6.470
   92POPC   C4B 1477   8.231   2.133   6.237
   93POPC   NC3 1478   1.238   8.037   8.104
   93POPC   PO4 1479   0.692   8.489   8.113
   93POPC   GL1 1480   0.892   8.227   7.728
   93POPC   GL2 1481   1.009   7.854   7.686
   93POPC   C1A 1482   0.997   8.114   7.259
   93POPC   D2A 1483   0.861   8.041   6.836
   93POPC   C3A 1484   1.010   8.316   6.543
   93POPC   C4A 1485   1.316   8.278   6.264
   93POPC   C1B 1486   1.391   7.806   7.412
   93POPC   C2B 1487   1.385   7.756   6.957
   93POPC   C3B 1488   1.318   7.794   6.498
   93POPC   C4B 1489   1.613   7.869   6.140
   94POPC   NC3 1490   0.812   2.107   8.166
   94POPC   PO4 1491   1.406   1.798   8.213
   94POPC   GL1 1492   1.154   1.878   7.834
   94POPC   GL2 1493   1.177   2.252   7.811
   94POPC   C1A 1494   1.130   1.821   7.350
   94POPC   D2A 1495   0.960   1.709   6.904
   94POPC   C3A 1496   1.165   1.818   6.494
   94POPC   C4A 1497   1.025   1.982   6.069
   94POPC   C1B 1498   1.163   2.343   7.370
   94POPC   C2B 1499   1.112   2.200   6.934
   94POPC   C3B 1500   1.083   2.309   6.494
   94POPC   C4B 1501   1.407   2.316   6.167
   95POPC   NC3 1502   8.301   3.874   8.092
   95POPC   PO4 1503   8.070   3.222   8.112
   95POPC   GL1 1504   7.978   3.500   7.776
   95POPC   GL2 1505   8.336   3.521   7.717
   95POPC   C1A 1506   8.000   3.692   7.352
   95POPC   D2A 1507   7.733   3.605   6.977
   95POPC   C3A 1508   7.978   3.611   6.621
   95POPC   C4A 1509   8.107   3.758   6.236
   95POPC   C1B 1510   8.531   3.550   7.334
   95POPC   C2B 1511   8.388   3.515   6.929
   95POPC   C3B 1512   8.396   3.313   6.551
   95POPC   C4B 1513   8.306   3.314   6.124
   96POPC   NC3 1514   8.208   8.887   8.158
   96POPC   PO4 1515   7.897   8.272   7.911
   96POPC   GL1 1516   7.956   8.595   7.582
   96POPC   GL2 1517   8.024   8.935   7.687
   96POPC   C1A 1518   7.813   8.600   7.166
   96POPC   D2A 1519   7.944   8.332   6.832
   96POPC   C3A 1520   7.954   8.502   6.410
   96POPC   C4A 1521   7.656   8.692   6.105
   96POPC   C1B 1522   8.180   8.967   7.281
   96POPC   C2B 1523   8.239   8.762   6.885
   96POPC   C3B 1524   8.247   9.030   6.542
   96POPC   C4B 1525   8.056   8.967   6.177
   97POPC   NC3 1526   3.415   8.276   8.184
   97POPC   PO4 1527   3.359   7.611   7.962
   97POPC   GL1 1528   3.671   7.978   7.835
   97POPC   GL2 1529   3.589   8.324   7.721
   97POPC   C1A 1530   3.869   7.991   7.434
   97POPC   D2A 1531   3.671   7.949   7.047
   97POPC   C3A 1532   3.855   8.021   6.645
   97POPC   C4A 1533   3.702   8.040   6.247
   97POPC   C1B 1534   3.364   8.089   7.431
   97POPC   C2B 1535   3.191   8.113   7.015
   97POPC   C3B 1536   3.329   8.136   6.586
   97POPC   C4B 1537   3.267   8.311   6.184
   98POPC   NC3 1538   2.298   9.638   8.071
   98POPC   PO4 1539   2.940   9.942   8.125
   98POPC   GL1 1540   2.941   9.581   7.807
   98POPC   GL2 1541   2.596   9.509   7.676
   98POPC   C1A 1542   3.074   9.617   7.371
   98POPC   D2A 1543   2.817   9.633   6.983
   98POPC   C3A 1544   2.815   9.833   6.570
   98POPC   C4A 1545   2.476   9.957   6.288
   98POPC   C1B 1546   2.732   9.224   7.352
   98POPC   C2B 1547   2.915   9.120   6.949
   98POPC   C3B 1548   2.906   9.328   6.561
   98POPC   C4B 1549   2.597   9.462   6.257
   99POPC   NC3 1550   3.263   9.597   8.210
   99POPC   PO4 1551   3.946   9.380   8.125
   99POPC   GL1 1552   3.800   9.752   7.889
   99POPC   GL2 1553   3.481   9.625   7.764
   99POPC   C1A 1554   3.648   9.992   7.486
   99POPC   D2A 1555   3.438   9.949   7.069
   99POPC   C3A 1556   3.683   0.042   6.680
   99POPC   C4A 1557   3.593   0.166   6.266
   99POPC   C1B 1558   3.586   9.488   7.344
   99POPC   C2B 1559   3.333   9.446   6.958
   99POPC   C3B 1560   3.306   9.676   6.598
   99POPC   C4B 1561   3.568   9.675   6.244
  100POPC   NC3 1562   8.891   4.453   8.098
  100POPC   PO4 1563   9.483   4.542   8.394
  100POPC   GL1 1564   9.333   4.233   7.932
  100POPC   GL2 1565   9.008   4.241   7.672
  100POPC   C1A 1566   9.411   4.209   7.408
  100POPC   D2A 1567   9.236   4.109   6.983
  100POPC   C3A 1568   9.075   4.312   6.613
  100POPC   C4A 1569   9.194   4.303   6.169
  100POPC   C1B 1570   8.738   4.040   7.369
  100POPC   C2B 1571   8.777   3.852   6.993
  100POPC   C3B 1572   8.590   3.965   6.642
  100POPC   C4B 1573   8.700   4.159   6.283
  101POPC   NC3 1574   7.553   1.529   8.220
  101POPC   PO4 1575   7.146   2.023   8.362
  101POPC   GL1 1576   7.287   1.906   7.902
  101POPC   GL2 1577   7.233   2.237   7.704
  101POPC   C1A 1578   7.252   1.814   7.401
  101POPC   D2A 1579   7.084   1.697   6.938
  101POPC   C3A 1580   7.381   1.719   6.551
  101POPC   C4A 1581   7.257   1.647   6.100
  101POPC   C1B 1582   7.485   2.296   7.316
  101POPC   C2B 1583   7.346   2.147   6.915
  101POPC   C3B 1584   7.184   2.195   6.488
  101POPC   C4B 1585   7.175   2.547   6.221
  102POPC   NC3 1586   1.164   0.589   8.137
  102POPC   PO4 1587   0.955   0.007   8.086
  102POPC   GL1 1588   1.131   0.238   7.742
  102POPC   GL2 1589   0.946   0.549   7.671
  102POPC   C1A 1590   1.322   0.337   7.330
  102POPC   D2A 1591   1.138   0.415   6.929
  102POPC   C3A 1592   1.318   0.335   6.509
  102POPC   C4A 1593   1.312   0.081   6.145
  102POPC   C1B 1594   0.826   0.856   7.350
  102POPC   C2B 1595   0.749   0.742   6.923
  102POPC   C3B 1596   0.978   0.765   6.586
  102POPC   C4B 1597   0.888   0.837   6.183
  103POPC   NC3 1598   1.810   2.067   8.216
  103POPC   PO4 1599   2.317   1.643   8.143
  103POPC   GL1 1600   2.329   1.932   7.755
  103POPC   GL2 1601   2.075   2.198   7.760
  103POPC   C1A 1602   2.267   2.083   7.301
  103POPC   D2A 1603   2.039   2.093   6.908
  103POPC   C3A 1604   2.299   2.113   6.561
  103POPC   C4A 1605   2.388   1.910   6.192
  103POPC   C1B 1606   1.673   2.273   7.536
  103POPC   C2B 1607   1.595   2.301   7.081
  103POPC   C3B 1608   1.598   2.194   6.630
  103POPC   C4B 1609   1.880   2.064   6.266
  104POPC   NC3 1610   7.767   8.053   8.305
  104POPC   PO4 1611   7.216   8.484   8.183
  104POPC   GL1 1612   7.313   8.182   7.836
  104POPC   GL2 1613   7.501   8.355   7.555
  104POPC   C1A 1614   7.316   7.905   7.453
  104POPC   D2A 1615   7.528   8.048   7.050
  104POPC   C3A 1616   7.340   7.925   6.615
  104POPC   C4A 1617   7.336   7.834   6.178
  104POPC   C1B 1618   7.079   8.342   7.377
  104POPC   C2B 1619   7.094   8.264   6.937
  104POPC   C3B 1620   7.461   8.405   6.642
  104POPC   C4B 1621   7.215   8.338   6.285
  105POPC   NC3 1622   3.062   7.266   8.102
  105POPC   PO4 1623   3.066   7.975   8.191
  105POPC   GL1 1624   2.866   7.643   7.808
  105POPC   GL2 1625   3.056   7.422   7.596
  105POPC   C1A 1626   2.577   7.567   7.407
  105POPC   D2A 1627   2.370   7.529   6.992
  105POPC   C3A 1628   2.629   7.566   6.650
  105POPC   C4A 1629   2.588   7.515   6.211
  105POPC   C1B 1630   2.752   7.095   7.457
  105POPC   C2B 1631   2.639   7.048   7.013
  105POPC   C3B 1632   2.804   7.116   6.573
  105POPC   C4B 1633   3.028   7.240   6.209
  106POPC   NC3 1634   3.162   5.443   8.042
  106POPC   PO4 1635   2.848   5.942   7.948
  106POPC   GL1 1636   2.521   5.976   7.641
  106POPC   GL2 1637   2.461   6.239   7.493
  106POPC   C1A 1638   2.499   5.707   7.277
  106POPC   D2A 1639   2.566   5.821   6.827
  106POPC   C3A 1640   2.801   5.662   6.494
  106POPC   C4A 1641   3.037   5.457   6.180
  106POPC   C1B 1642   2.799   6.122   7.215
  106POPC   C2B 1643   2.926   6.187   6.784
  106POPC   C3B 1644   2.646   6.341   6.476
  106POPC   C4B 1645   2.414   6.006   6.328
  107POPC   NC3 1646   0.531   4.497   8.110
  107POPC   PO4 1647   0.220   3.907   8.161
  107POPC   GL1 1648   0.517   4.073   7.829
  107POPC   GL2 1649   0.311   4.266   7.672
  107POPC   C1A 1650   0.665   4.078   7.356
  107POPC   D2A 1651   0.819   3.924   6.979
  107POPC   C3A 1652   0.653   4.095   6.617
  107POPC   C4A 1653   0.419   3.983   6.259
  107POPC   C1B 1654   0.332   4.463   7.296
  107POPC   C2B 1655   0.421   4.453   6.893
  107POPC   C3B 1656   0.378   4.551   6.464
  107POPC   C4B 1657   0.056   4.553   6.155
  108POPC   NC3 1658   7.137   7.333   8.166
  108POPC   PO4 1659   7.733   7.571   8.201
  108POPC   GL1 1660   7.604   7.630   7.780
  108POPC   GL2 1661   7.531   7.308   7.698
  108POPC   C1A 1662   7.722   7.622   7.320
  108POPC   D2A 1663   7.486   7.553   6.909
  108POPC   C3A 1664   7.609   7.473   6.461
  108POPC   C4A 1665   7.658   7.481   5.989
  108POPC   C1B 1666   7.465   7.193   7.267
  108POPC   C2B 1667   7.482   7.046   6.845
  108POPC   C3B 1668   7.247   6.987   6.486
  108POPC   C4B 1669   7.201   7.164   6.114
  109POPC   NC3 1670   6.576   9.623   8.279
  109POPC   PO4 1671   6.207   9.850   7.809
  109POPC   GL1 1672   6.567   9.909   7.558
  109POPC   GL2 1673   6.699   9.622   7.735
  109POPC   C1A 1674   6.522   9.931   7.110
  109POPC   D2A 1675   6.600   0.095   6.746
  109POPC   C3A 1676   6.489   9.832   6.442
  109POPC   C4A 1677   6.315   9.815   6.024
  109POPC   C1B 1678   6.660   9.489   7.283
  109POPC   C2B 1679   6.812   9.595   6.834
  109POPC   C3B 1680   6.849   9.490   6.369
  109POPC   C4B 1681   6.449   9.360   6.195
  110POPC   NC3 1682   3.795   2.976   7.981
  110POPC   PO4 1683   4.313   2.741   8.218
  110POPC   GL1 1684   4.176   2.550   7.800
  110POPC   GL2 1685   3.901   2.624   7.612
  110POPC   C1A 1686   4.386   2.428   7.411
  110POPC   D2A 1687   4.387   2.174   7.026
  110POPC   C3A 1688   4.377   2.422   6.631
  110POPC   C4A 1689   4.336   2.665   6.230
  110POPC   C1B 1690   3.933   2.579   7.155
  110POPC   C2B 1691   3.925   2.689   6.688
  110POPC   C3B 1692   3.985   3.036   6.356
  110POPC   C4B 1693   3.824   3.368   6.060
  111POPC   NC3 1694   1.556   9.656   8.095
  111POPC   PO4 1695   2.162   9.199   8.095
  111POPC   GL1 1696   1.896   9.443   7.764
  111POPC   GL2 1697   2.081   9.744   7.621
  111POPC   C1A 1698   1.723   9.569   7.320
  111POPC   D2A 1699   1.849   9.835   6.926
  111POPC   C3A 1700   1.628   9.891   6.500
  111POPC   C4A 1701   1.716   9.809   6.016
  111POPC   C1B 1702   2.327   9.771   7.226
  111POPC   C2B 1703   2.338   9.797   6.766
  111POPC   C3B 1704   2.078   9.677   6.396
  111POPC   C4B 1705   2.159   9.513   5.979
  112POPC   NC3 1706   9.499   8.180   8.252
  112POPC   PO4 1707   0.033   7.751   8.256
  112POPC   GL1 1708   9.930   8.020   7.876
  112POPC   GL2 1709   9.591   8.030   7.797
  112POPC   C1A 1710   9.885   8.291   7.477
  112POPC   D2A 1711   9.879   8.139   7.045
  112POPC   C3A 1712   9.923   8.393   6.651
  112POPC   C4A 1713   9.905   8.227   6.217
  112POPC   C1B 1714   9.352   8.140   7.448
  112POPC   C2B 1715   9.357   8.247   7.026
  112POPC   C3B 1716   9.505   8.113   6.622
  112POPC   C4B 1717   9.358   8.163   6.208
  113POPC   NC3 1718   0.044   9.694   7.976
  113POPC   PO4 1719   0.455   0.050   8.387
  113POPC   GL1 1720   0.476   9.935   7.852
  113POPC   GL2 1721   0.493   9.611   7.717
  113POPC   C1A 1722   0.753   9.971   7.454
  113POPC   D2A 1723   0.864   9.670   7.116
  113POPC   C3A 1724   0.638   9.622   6.708
  113POPC   C4A 1725   0.460   9.569   6.287
  113POPC   C1B 1726   0.203   9.558   7.370
  113POPC   C2B 1727   0.197   9.712   6.948
  113POPC   C3B 1728   0.028   9.508   6.598
  113POPC   C4B 1729   0.069   9.229   6.232
  114POPC   NC3 1730   3.665   8.976   8.180
  114POPC   PO4 1731   3.118   8.590   8.045
  114POPC   GL1 1732   3.365   8.773   7.728
  114POPC   GL2 1733   3.453   9.122   7.746
  114POPC   C1A 1734   3.404   8.590   7.308
  114POPC   D2A 1735   3.577   8.433   6.919
  114POPC   C3A 1736   3.657   8.611   6.499
  114POPC   C4A 1737   3.452   8.787   6.133
  114POPC   C1B 1738   3.254   9.105   7.342
  114POPC   C2B 1739   3.386   8.931   6.925
  114POPC   C3B 1740   3.390   9.132   6.525
  114POPC   C4B 1741   3.718   9.198   6.257
  115POPC   NC3 1742   3.463   2.764   8.392
  115POPC   PO4 1743   3.472   3.309   8.056
  115POPC   GL1 1744   3.206   2.958   7.831
  115POPC   GL2 1745   3.415   2.691   7.784
  115POPC   C1A 1746   3.069   2.702   7.407
  115POPC   D2A 1747   2.894   2.588   6.966
  115POPC   C3A 1748   3.088   2.620   6.544
  115POPC   C4A 1749   3.124   2.579   6.076
  115POPC   C1B 1750   3.536   2.864   7.332
  115POPC   C2B 1751   3.453   2.902   6.830
  115POPC   C3B 1752   3.518   2.821   6.345
  115POPC   C4B 1753   3.554   2.923   5.878
  116POPC   NC3 1754   3.237   3.700   8.098
  116POPC   PO4 1755   2.698   4.110   8.057
  116POPC   GL1 1756   2.809   3.692   7.806
  116POPC   GL2 1757   2.784   3.305   7.838
  116POPC   C1A 1758   2.925   3.478   7.379
  116POPC   D2A 1759   2.961   3.266   6.957
  116POPC   C3A 1760   2.919   3.498   6.511
  116POPC   C4A 1761   3.094   3.593   6.066
  116POPC   C1B 1762   2.435   3.463   7.536
  116POPC   C2B 1763   2.464   3.462   7.077
  116POPC   C3B 1764   2.393   3.454   6.617
  116POPC   C4B 1765   2.519   3.305   6.207
  117POPC   NC3 1766   5.694   1.973   8.128
  117POPC   PO4 1767   6.275   1.551   8.140
  117POPC   GL1 1768   5.937   1.627   7.824
  117POPC   GL2 1769   6.019   1.991   7.731
  117POPC   C1A 1770   5.755   1.673   7.387
  117POPC   D2A 1771   5.818   1.797   6.933
  117POPC   C3A 1772   5.726   1.737   6.500
  117POPC   C4A 1773   5.820   1.705   6.059
  117POPC   C1B 1774   5.994   2.117   7.294
  117POPC   C2B 1775   6.029   2.248   6.868
  117POPC   C3B 1776   5.929   2.200   6.444
  117POPC   C4B 1777   5.600   2.147   6.181
  118POPC   NC3 1778   2.734   2.851   8.258
  118POPC   PO4 1779   2.175   2.415   8.206
  118POPC   GL1 1780   2.536   2.437   7.845
  118POPC   GL2 1781   2.718   2.749   7.770
  118POPC   C1A 1782   2.561   2.497   7.358
  118POPC   D2A 1783   2.358   2.492   6.923
  118POPC   C3A 1784   2.573   2.552   6.522
  118POPC   C4A 1785   2.660   2.803   6.123
  118POPC   C1B 1786   2.668   3.015   7.396
  118POPC   C2B 1787   2.544   2.966   6.958
  118POPC   C3B 1788   2.759   3.020   6.565
  118POPC   C4B 1789   3.077   3.087   6.207
  119POPC   NC3 1790   2.753   1.110   8.058
  119POPC   PO4 1791   3.121   1.683   8.076
  119POPC   GL1 1792   2.902   1.466   7.722
  119POPC   GL2 1793   2.510   1.402   7.712
  119POPC   C1A 1794   2.977   1.383   7.277
  119POPC   D2A 1795   2.950   1.572   6.885
  119POPC   C3A 1796   2.935   1.272   6.533
  119POPC   C4A 1797   2.855   0.866   6.313
  119POPC   C1B 1798   2.605   1.063   7.403
  119POPC   C2B 1799   2.605   1.145   6.931
  119POPC   C3B 1800   2.434   1.117   6.479
  119POPC   C4B 1801   2.387   1.378   6.117
  120POPC   NC3 1802   1.511   5.635   8.265
  120POPC   PO4 1803   1.222   6.201   8.239
  120POPC   GL1 1804   1.255   6.212   7.810
  120POPC   GL2 1805   1.347   5.862   7.748
  120POPC   C1A 1806   1.131   6.231   7.353
  120POPC   D2A 1807   1.297   6.043   6.929
  120POPC   C3A 1808   1.213   6.189   6.509
  120POPC   C4A 1809   1.358   6.080   6.095
  120POPC   C1B 1810   1.216   5.723   7.332
  120POPC   C2B 1811   1.218   5.529   6.899
  120POPC   C3B 1812   1.321   5.676   6.473
  120POPC   C4B 1813   0.949   5.777   6.279
  121POPC   NC3 1814   4.540   7.323   8.228
  121POPC   PO4 1815   5.144   7.491   8.134
  121POPC   GL1 1816   4.812   7.738   7.870
  121POPC   GL2 1817   4.528   7.528   7.759
  121POPC   C1A 1818   4.712   7.813   7.384
  121POPC   D2A 1819   4.601   7.624   6.926
  121POPC   C3A 1820   4.647   7.573   6.450
  121POPC   C4A 1821   4.716   7.406   6.015
  121POPC   C1B 1822   4.226   7.640   7.435
  121POPC   C2B 1823   4.157   7.820   7.023
  121POPC   C3B 1824   4.115   7.553   6.650
  121POPC   C4B 1825   3.905   7.148   6.489
  122POPC   NC3 1826   1.676   6.310   8.149
  122POPC   PO4 1827   2.240   5.962   8.088
  122POPC   GL1 1828   2.103   6.349   7.840
  122POPC   GL2 1829   2.052   6.753   7.768
  122POPC   C1A 1830   1.987   6.396   7.415
  122POPC   D2A 1831   2.037   6.581   6.990
  122POPC   C3A 1832   2.130   6.362   6.614
  122POPC   C4A 1833   2.196   6.457   6.201
  122POPC   C1B 1834   1.836   6.890   7.350
  122POPC   C2B 1835   1.666   6.901   6.897
  122POPC   C3B 1836   1.905   6.839   6.479
  122POPC   C4B 1837   1.881   6.793   5.973
  123POPC   NC3 1838   4.415   8.314   8.197
  123POPC   PO4 1839   4.247   7.665   8.166
  123POPC   GL1 1840   4.282   7.991   7.811
  123POPC   GL2 1841   4.087   8.308   7.799
  123POPC   C1A 1842   4.355   8.168   7.384
  123POPC   D2A 1843   4.574   8.154   6.965
  123POPC   C3A 1844   4.391   7.998   6.572
  123POPC   C4A 1845   4.535   7.993   6.121
  123POPC   C1B 1846   3.936   8.481   7.380
  123POPC   C2B 1847   4.065   8.326   7.003
  123POPC   C3B 1848   4.201   8.478   6.644
  123POPC   C4B 1849   4.116   8.331   6.290
  124POPC   NC3 1850   0.641   0.340   8.066
  124POPC   PO4 1851  10.000   0.140   8.059
  124POPC   GL1 1852   0.196   0.339   7.707
  124POPC   GL2 1853   0.425   0.649   7.696
  124POPC   C1A 1854   0.261   0.068   7.354
  124POPC   D2A 1855   0.558   0.099   6.979
  124POPC   C3A 1856   0.391   0.061   6.560
  124POPC   C4A 1857   0.027   9.945   6.328
  124POPC   C1B 1858   0.459   0.524   7.275
  124POPC   C2B 1859   0.262   0.641   6.868
  124POPC   C3B 1860   0.459   0.608   6.469
  124POPC   C4B 1861   0.797   0.347   6.361
  125POPC   NC3 1862   5.945   1.212   8.155
  125POPC   PO4 1863   5.397   0.746   8.171
  125POPC   GL1 1864   5.538   1.030   7.809
  125POPC   GL2 1865   5.882   0.998   7.703
  125POPC   C1A 1866   5.601   1.181   7.339
  125POPC   D2A 1867   5.369   1.190   6.934
  125POPC   C3A 1868   5.526   0.965   6.583
  125POPC   C4A 1869   5.538   0.805   6.165
  125POPC   C1B 1870   6.120   1.306   7.425
  125POPC   C2B 1871   6.111   1.390   6.956
  125POPC   C3B 1872   6.148   1.448   6.496
  125POPC   C4B 1873   5.823   1.241   6.252
  126POPC   NC3 1874   4.298   0.790   8.191
  126POPC   PO4 1875   3.841   0.261   8.413
  126POPC   GL1 1876   4.082   0.228   7.963
  126POPC   GL2 1877   4.352   0.444   7.827
  126POPC   C1A 1878   4.112   0.187   7.473
  126POPC   D2A 1879   3.828   0.308   7.116
  126POPC   C3A 1880   4.068   0.446   6.763
  126POPC   C4A 1881   4.103   0.324   6.338
  126POPC   C1B 1882   4.442   0.579   7.363
  126POPC   C2B 1883   4.563   0.558   6.926
  126POPC   C3B 1884   4.547   0.271   6.609
  126POPC   C4B 1885   4.634   0.424   6.240
  127POPC   NC3 1886   9.762   4.940   8.035
  127POPC   PO4 1887   0.383   4.878   8.341
  127POPC   GL1 1888   0.205   5.138   7.881
  127POPC   GL2 1889   9.906   5.378   7.814
  127POPC   C1A 1890   0.013   5.002   7.442
  127POPC   D2A 1891   0.118   4.847   7.046
  127POPC   C3A 1892   9.907   4.854   6.662
  127POPC   C4A 1893   9.704   5.059   6.322
  127POPC   C1B 1894   9.575   5.242   7.482
  127POPC   C2B 1895   9.644   5.113   7.066
  127POPC   C3B 1896   9.397   5.084   6.722
  127POPC   C4B 1897   9.211   5.280   6.389
  128POPC   NC3 1898   9.714   9.947   8.370
  128POPC   PO4 1899   9.374   9.366   8.160
  128POPC   GL1 1900   9.598   9.515   7.833
  128POPC   GL2 1901   9.847   9.232   7.830
  128POPC   C1A 1902   9.717   9.746   7.436
  128POPC   D2A 1903   9.705   9.635   7.022
  128POPC   C3A 1904   9.651   9.918   6.684
  128POPC   C4A 1905   9.321   9.843   6.405
  128POPC   C1B 1906   9.585   9.172   7.450
  128POPC   C2B 1907   9.466   9.170   7.014
  128POPC   C3B 1908   9.490   9.407   6.620
  128POPC   C4B 1909   9.686   9.563   6.220
  129POPC   NC3 1910   2.632   8.018   8.014
  129POPC   PO4 1911   2.322   8.525   8.323
  129POPC   GL1 1912   2.655   8.504   7.787
  129POPC   GL2 1913   2.956   8.272   7.701
  129POPC   C1A 1914   2.617   8.363   7.279
  129POPC   D2A 1915   2.358   8.330   6.853
  129POPC   C3A 1916   2.458   8.423   6.387
  129POPC   C4A 1917   2.806   8.533   6.131
  129POPC   C1B 1918   2.887   7.950   7.402
  129POPC   C2B 1919   2.711   7.932   7.000
  129POPC   C3B 1920   2.813   8.151   6.643
  129POPC   C4B 1921   2.909   7.941   6.284
  130POPC   NC3 1922   9.045   9.726   7.935
  130POPC   PO4 1923   8.538   9.294   8.198
  130POPC   GL1 1924   8.780   9.304   7.813
  130POPC   GL2 1925   9.143   9.293   7.720
  130POPC   C1A 1926   8.763   9.356   7.366
  130POPC   D2A 1927   8.977   9.327   6.969
  130POPC   C3A 1928   8.706   9.265   6.620
  130POPC   C4A 1929   8.449   9.550   6.406
  130POPC   C1B 1930   9.258   9.556   7.333
  130POPC   C2B 1931   9.187   9.826   6.952
  130POPC   C3B 1932   8.871   9.775   6.624
  130POPC   C4B 1933   8.944   9.520   6.230
  131POPC   NC3 1934   8.762   2.819   8.138
  131POPC   PO4 1935   9.272   2.307   7.905
  131POPC   GL1 1936   9.111   2.524   7.558
  131POPC   GL2 1937   8.904   2.804   7.657
  131POPC   C1A 1938   8.826   2.582   7.220
  131POPC   D2A 1939   8.959   2.831   6.890
  131POPC   C3A 1940   9.058   2.649   6.519
  131POPC   C4A 1941   9.359   2.434   6.274
  131POPC   C1B 1942   8.619   3.040   7.378
  131POPC   C2B 1943   8.487   3.008   6.961
  131POPC   C3B 1944   8.546   2.828   6.572
  131POPC   C4B 1945   8.595   2.457   6.356
  132POPC   NC3 1946   2.712   8.739   8.212
  132POPC   PO4 1947   3.222   9.142   8.231
  132POPC   GL1 1948   2.932   9.037   7.815
  132POPC   GL2 1949   2.548   9.010   7.794
  132POPC   C1A 1950   2.917   8.750   7.414
  132POPC   D2A 1951   2.992   8.569   6.970
  132POPC   C3A 1952   3.113   8.693   6.538
  132POPC   C4A 1953   2.999   9.001   6.183
  132POPC   C1B 1954   2.410   8.807   7.397
  132POPC   C2B 1955   2.529   8.794   6.968
  132POPC   C3B 1956   2.630   8.883   6.534
  132POPC   C4B 1957   2.480   8.981   6.097
  133POPC   NC3 1958   2.874   0.408   8.121
  133POPC   PO4 1959   2.343   0.852   8.087
  133POPC   GL1 1960   2.471   0.585   7.809
  133POPC   GL2 1961   2.817   0.646   7.665
  133POPC   C1A 1962   2.394   0.548   7.402
  133POPC   D2A 1963   2.701   0.665   7.102
  133POPC   C3A 1964   2.560   0.678   6.703
  133POPC   C4A 1965   2.345   0.583   6.323
  133POPC   C1B 1966   2.823   0.252   7.368
  133POPC   C2B 1967   2.700   0.201   6.890
  133POPC   C3B 1968   2.770   0.328   6.408
  133POPC   C4B 1969   2.955   0.160   5.994
  134POPC   NC3 1970   5.816   3.062   8.269
  134POPC   PO4 1971   5.808   2.431   8.050
  134POPC   GL1 1972   5.797   2.737   7.683
  134POPC   GL2 1973   6.071   2.559   7.497
  134POPC   C1A 1974   5.953   3.000   7.320
  134POPC   D2A 1975   6.194   2.766   7.000
  134POPC   C3A 1976   6.290   3.035   6.647
  134POPC   C4A 1977   6.010   3.142   6.317
  134POPC   C1B 1978   5.747   2.561   7.143
  134POPC   C2B 1979   5.794   2.661   6.664
  134POPC   C3B 1980   5.550   2.655   6.266
  134POPC   C4B 1981   5.272   2.775   5.920
  135POPC   NC3 1982   8.602   5.409   8.052
  135POPC   PO4 1983   7.929   5.294   8.090
  135POPC   GL1 1984   8.248   5.210   7.756
  135POPC   GL2 1985   8.335   4.851   7.671
  135POPC   C1A 1986   8.197   5.180   7.313
  135POPC   D2A 1987   8.018   5.002   6.953
  135POPC   C3A 1988   8.264   4.932   6.611
  135POPC   C4A 1989   8.206   5.022   6.211
  135POPC   C1B 1990   8.109   4.655   7.334
  135POPC   C2B 1991   8.108   4.507   6.888
  135POPC   C3B 1992   7.919   4.622   6.440
  135POPC   C4B 1993   7.862   4.711   5.971
  136POPC   NC3 1994   6.815   8.260   8.061
  136POPC   PO4 1995   6.742   7.615   8.070
  136POPC   GL1 1996   6.828   7.908   7.687
  136POPC   GL2 1997   6.579   8.206   7.602
  136POPC   C1A 1998   6.797   7.935   7.234
  136POPC   D2A 1999   6.897   7.782   6.835
  136POPC   C3A 2000   6.842   8.046   6.483
  136POPC   C4A 2001   6.508   8.085   6.176
  136POPC   C1B 2002   6.197   8.175   7.288
  136POPC   C2B 2003   6.012   8.173   6.841
  136POPC   C3B 2004   6.156   8.322   6.448
  136POPC   C4B 2005   6.568   8.502   6.503
  137POPC   NC3 2006   8.886   0.431   8.088
  137POPC   PO4 2007   9.430   9.985   8.006
  137POPC   GL1 2008   9.194   0.252   7.690
  137POPC   GL2 2009   8.847   0.311   7.596
  137POPC   C1A 2010   9.289   0.270   7.239
  137POPC   D2A 2011   9.094   0.434   6.857
  137POPC   C3A 2012   9.060   0.272   6.453
  137POPC   C4A 2013   9.225   0.135   6.024
  137POPC   C1B 2014   8.791   0.152   7.185
  137POPC   C2B 2015   8.589   0.410   6.888
  137POPC   C3B 2016   8.590   0.559   6.492
  137POPC   C4B 2017   8.755   0.476   6.078
  138POPC   NC3 2018   5.553   7.308   8.096
  138POPC   PO4 2019   6.100   7.207   8.339
  138POPC   GL1 2020   5.941   7.366   7.802
  138POPC   GL2 2021   6.041   7.701   7.719
  138POPC   C1A 2022   6.081   7.430   7.305
  138POPC   D2A 2023   5.942   7.669   6.920
  138POPC   C3A 2024   5.876   7.398   6.544
  138POPC   C4A 2025   6.205   7.278   6.224
  138POPC   C1B 2026   5.624   7.595   7.459
  138POPC   C2B 2027   5.456   7.552   7.011
  138POPC   C3B 2028   5.339   7.631   6.539
  138POPC   C4B 2029   5.373   7.428   6.114
  139POPC   NC3 2030   0.402   3.531   8.407
  139POPC   PO4 2031   0.984   3.676   8.108
  139POPC   GL1 2032   0.840   3.433   7.770
  139POPC   GL2 2033   0.609   3.639   7.607
  139POPC   C1A 2034   0.705   3.204   7.410
  139POPC   D2A 2035   0.531   3.481   7.084
  139POPC   C3A 2036   0.759   3.498   6.702
  139POPC   C4A 2037   0.674   3.539   6.293
  139POPC   C1B 2038   0.240   3.811   7.369
  139POPC   C2B 2039   0.264   3.967   6.973
  139POPC   C3B 2040   0.274   3.685   6.648
  139POPC   C4B 2041   0.199   3.369   6.342
  140POPC   NC3 2042   8.735   8.304   8.276
  140POPC   PO4 2043   9.240   7.757   8.226
  140POPC   GL1 2044   9.077   7.909   7.830
  140POPC   GL2 2045   9.075   8.270   7.874
  140POPC   C1A 2046   8.824   7.976   7.419
  140POPC   D2A 2047   8.917   7.885   6.973
  140POPC   C3A 2048   8.715   7.912   6.576
  140POPC   C4A 2049   8.838   7.989   6.156
  140POPC   C1B 2050   8.934   8.476   7.489
  140POPC   C2B 2051   8.840   8.391   7.053
  140POPC   C3B 2052   9.020   8.328   6.640
  140POPC   C4B 2053   8.928   8.473   6.241
  141POPC   NC3 2054   6.875   3.404   8.059
  141POPC   PO4 2055   6.224   3.125   8.072
  141POPC   GL1 2056   6.376   3.027   7.620
  141POPC   GL2 2057   6.627   3.294   7.615
  141POPC   C1A 2058   6.417   3.187   7.152
  141POPC   D2A 2059   6.723   3.321   6.811
  141POPC   C3A 2060   6.599   3.320   6.366
  141POPC   C4A 2061   6.310   3.450   6.009
  141POPC   C1B 2062   6.687   3.604   7.286
  141POPC   C2B 2063   6.769   3.821   6.903
  141POPC   C3B 2064   6.701   3.813   6.471
  141POPC   C4B 2065   6.786   3.700   6.043
  142POPC   NC3 2066   1.443   3.772   8.254
  142POPC   PO4 2067   1.508   3.090   8.152
  142POPC   GL1 2068   1.349   3.312   7.777
  142POPC   GL2 2069   1.349   3.660   7.733
  142POPC   C1A 2070   1.206   3.140   7.383
  142POPC   D2A 2071   1.005   3.150   6.979
  142POPC   C3A 2072   1.216   3.208   6.592
  142POPC   C4A 2073   1.024   3.172   6.212
  142POPC   C1B 2074   1.086   3.629   7.336
  142POPC   C2B 2075   1.247   3.627   6.893
  142POPC   C3B 2076   1.159   3.721   6.445
  142POPC   C4B 2077   0.916   3.997   6.197
  143POPC   NC3 2078   8.709   1.297   8.186
  143POPC   PO4 2079   8.469   0.689   8.074
  143POPC   GL1 2080   8.694   0.851   7.710
  143POPC   GL2 2081   9.040   0.786   7.725
  143POPC   C1A 2082   8.695   1.125   7.325
  143POPC   D2A 2083   8.737   1.457   7.018
  143POPC   C3A 2084   8.612   1.318   6.591
  143POPC   C4A 2085   8.715   1.303   6.127
  143POPC   C1B 2086   8.975   0.699   7.277
  143POPC   C2B 2087   8.821   0.885   6.869
  143POPC   C3B 2088   8.919   0.931   6.425
  143POPC   C4B 2089   9.246   1.133   6.223
  144POPC   NC3 2090   2.026   3.841   3.779
  144POPC   PO4 2091   1.971   3.111   3.884
  144POPC   GL1 2092   2.008   3.458   4.158
  144POPC   GL2 2093   1.681   3.652   4.155
  144POPC   C1A 2094   2.231   3.453   4.567
  144POPC   D2A 2095   2.355   3.571   4.993
  144POPC   C3A 2096   2.325   3.307   5.341
  144POPC   C4A 2097   2.237   3.370   5.794
  144POPC   C1B 2098   1.773   3.684   4.619
  144POPC   C2B 2099   1.851   3.425   5.001
  144POPC   C3B 2100   1.866   3.498   5.455
  144POPC   C4B 2101   1.810   3.680   5.891
  145POPC   NC3 2102   2.482   2.069   4.041
  145POPC   PO4 2103   2.553   1.462   3.767
  145POPC   GL1 2104   2.432   1.563   4.185
  145POPC   GL2 2105   2.750   1.749   4.314
  145POPC   C1A 2106   2.381   1.710   4.626
  145POPC   D2A 2107   2.731   1.622   4.916
  145POPC   C3A 2108   2.703   1.596   5.361
  145POPC   C4A 2109   2.531   1.700   5.753
  145POPC   C1B 2110   2.953   1.992   4.643
  145POPC   C2B 2111   3.059   2.004   5.102
  145POPC   C3B 2112   2.949   2.019   5.527
  145POPC   C4B 2113   3.050   1.681   5.780
  146POPC   NC3 2114   7.370   7.058   3.864
  146POPC   PO4 2115   7.698   6.631   4.060
  146POPC   GL1 2116   7.424   6.720   4.390
  146POPC   GL2 2117   7.126   6.948   4.305
  146POPC   C1A 2118   7.475   6.641   4.846
  146POPC   D2A 2119   7.589   6.877   5.223
  146POPC   C3A 2120   7.482   6.614   5.566
  146POPC   C4A 2121   7.329   6.686   5.992
  146POPC   C1B 2122   7.009   6.853   4.746
  146POPC   C2B 2123   7.083   6.767   5.216
  146POPC   C3B 2124   6.972   6.513   5.603
  146POPC   C4B 2125   7.081   6.248   5.928
  147POPC   NC3 2126   5.660   9.233   4.036
  147POPC   PO4 2127   5.395   8.635   3.944
  147POPC   GL1 2128   5.677   8.777   4.282
  147POPC   GL2 2129   5.991   8.854   4.402
  147POPC   C1A 2130   5.654   8.881   4.749
  147POPC   D2A 2131   5.871   8.990   5.118
  147POPC   C3A 2132   5.688   8.767   5.459
  147POPC   C4A 2133   5.489   8.898   5.847
  147POPC   C1B 2134   6.108   8.629   4.725
  147POPC   C2B 2135   6.261   8.673   5.093
  147POPC   C3B 2136   6.267   8.718   5.499
  147POPC   C4B 2137   6.015   8.884   5.825
  148POPC   NC3 2138   0.980   5.101   3.815
  148POPC   PO4 2139   1.591   5.351   4.010
  148POPC   GL1 2140   1.158   5.282   4.283
  148POPC   GL2 2141   1.228   4.969   4.437
  148POPC   C1A 2142   0.904   5.245   4.737
  148POPC   D2A 2143   0.964   5.029   5.157
  148POPC   C3A 2144   1.007   5.192   5.595
  148POPC   C4A 2145   0.803   5.351   6.001
  148POPC   C1B 2146   1.384   5.128   4.834
  148POPC   C2B 2147   1.447   5.106   5.269
  148POPC   C3B 2148   1.495   5.051   5.700
  148POPC   C4B 2149   1.815   5.226   5.982
  149POPC   NC3 2150   6.527   8.137   3.942
  149POPC   PO4 2151   6.158   8.637   4.002
  149POPC   GL1 2152   6.324   8.332   4.373
  149POPC   GL2 2153   6.445   7.944   4.410
  149POPC   C1A 2154   6.491   8.256   4.815
  149POPC   D2A 2155   6.301   8.198   5.229
  149POPC   C3A 2156   6.464   8.230   5.625
  149POPC   C4A 2157   6.327   8.490   5.953
  149POPC   C1B 2158   6.796   7.867   4.748
  149POPC   C2B 2159   6.792   8.018   5.164
  149POPC   C3B 2160   6.841   7.882   5.586
  149POPC   C4B 2161   6.900   8.189   5.906
  150POPC   NC3 2162   9.020   2.464   3.946
  150POPC   PO4 2163   8.936   3.108   3.946
  150POPC   GL1 2164   8.988   3.020   4.352
  150POPC   GL2 2165   9.048   2.666   4.407
  150POPC   C1A 2166   8.781   3.188   4.687
  150POPC   D2A 2167   8.555   2.971   5.006
  150POPC   C3A 2168   8.769   2.984   5.388
  150POPC   C4A 2169   8.563   2.986   5.773
  150POPC   C1B 2170   9.059   2.777   4.850
  150POPC   C2B 2171   8.920   2.516   5.187
  150POPC   C3B 2172   8.892   2.530   5.625
  150POPC   C4B 2173   8.905   2.658   6.024
  151POPC   NC3 2174   8.056   2.204   4.003
  151POPC   PO4 2175   8.691   2.153   4.114
  151POPC   GL1 2176   8.491   1.828   4.376
  151POPC   GL2 2177   8.134   1.895   4.400
  151POPC   C1A 2178   8.462   1.752   4.804
  151POPC   D2A 2179   8.619   1.720   5.204
  151POPC   C3A 2180   8.278   1.735   5.486
  151POPC   C4A 2181   8.227   1.736   5.912
  151POPC   C1B 2182   8.012   2.224   4.692
  151POPC   C2B 2183   7.991   2.107   5.110
  151POPC   C3B 2184   8.126   2.207   5.482
  151POPC   C4B 2185   7.927   2.137   5.839
  152POPC   NC3 2186   8.792   4.153   4.031
  152POPC   PO4 2187   8.987   4.798   3.814
  152POPC   GL1 2188   9.007   4.579   4.256
  152POPC   GL2 2189   9.152   4.274   4.367
  152POPC   C1A 2190   9.134   4.621   4.724
  152POPC   D2A 2191   9.314   4.599   5.136
  152POPC   C3A 2192   8.963   4.512   5.428
  152POPC   C4A 2193   8.710   4.424   5.825
  152POPC   C1B 2194   8.875   4.121   4.700
  152POPC   C2B 2195   8.815   3.978   5.131
  152POPC   C3B 2196   8.909   4.006   5.582
  152POPC   C4B 2197   8.983   3.887   5.992
  153POPC   NC3 2198   7.353   7.799   4.206
  153POPC   PO4 2199   7.669   7.356   3.696
  153POPC   GL1 2200   7.568   7.232   4.273
  153POPC   GL2 2201   7.616   7.554   4.570
  153POPC   C1A 2202   7.445   7.121   4.694
  153POPC   D2A 2203   7.491   7.363   5.045
  153POPC   C3A 2204   7.203   7.254   5.341
  153POPC   C4A 2205   7.446   7.101   5.684
  153POPC   C1B 2206   7.294   7.790   4.829
  153POPC   C2B 2207   7.243   7.792   5.236
  153POPC   C3B 2208   7.520   7.617   5.510
  153POPC   C4B 2209   7.185   7.530   5.778
  154POPC   NC3 2210   1.130   3.509   3.849
  154POPC   PO4 2211   0.597   3.719   4.095
  154POPC   GL1 2212   0.838   3.686   4.439
  154POPC   GL2 2213   1.101   3.440   4.385
  154POPC   C1A 2214   0.917   3.670   4.877
  154POPC   D2A 2215   1.031   3.354   5.176
  154POPC   C3A 2216   0.885   3.541   5.517
  154POPC   C4A 2217   1.008   3.601   5.925
  154POPC   C1B 2218   1.354   3.446   4.783
  154POPC   C2B 2219   1.429   3.684   5.178
  154POPC   C3B 2220   1.399   3.569   5.625
  154POPC   C4B 2221   1.446   3.432   6.122
  155POPC   NC3 2222   0.214   4.937   4.198
  155POPC   PO4 2223   0.744   4.645   3.851
  155POPC   GL1 2224   0.824   4.696   4.272
  155POPC   GL2 2225   0.692   5.022   4.346
  155POPC   C1A 2226   0.850   4.754   4.721
  155POPC   D2A 2227   0.495   4.953   4.995
  155POPC   C3A 2228   0.543   4.992   5.449
  155POPC   C4A 2229   0.340   4.799   5.798
  155POPC   C1B 2230   0.399   5.302   4.644
  155POPC   C2B 2231   0.086   5.376   4.995
  155POPC   C3B 2232   0.149   5.529   5.420
  155POPC   C4B 2233   0.332   5.335   5.789
  156POPC   NC3 2234   9.076   8.158   3.758
  156POPC   PO4 2235   8.615   7.772   3.850
  156POPC   GL1 2236   8.732   7.937   4.237
  156POPC   GL2 2237   9.073   7.883   4.239
  156POPC   C1A 2238   8.523   8.067   4.649
  156POPC   D2A 2239   8.399   8.323   5.046
  156POPC   C3A 2240   8.714   8.338   5.411
  156POPC   C4A 2241   8.580   8.329   5.851
  156POPC   C1B 2242   9.062   8.193   4.566
  156POPC   C2B 2243   9.310   8.323   4.930
  156POPC   C3B 2244   9.262   8.377   5.373
  156POPC   C4B 2245   9.085   8.262   5.779
  157POPC   NC3 2246   7.594   2.659   3.902
  157POPC   PO4 2247   7.041   2.248   3.871
  157POPC   GL1 2248   7.208   2.395   4.257
  157POPC   GL2 2249   7.247   2.713   4.254
  157POPC   C1A 2250   7.140   2.470   4.693
  157POPC   D2A 2251   7.051   2.379   5.107
  157POPC   C3A 2252   7.186   2.587   5.465
  157POPC   C4A 2253   7.221   2.863   5.801
  157POPC   C1B 2254   7.613   2.596   4.566
  157POPC   C2B 2255   7.581   2.451   5.004
  157POPC   C3B 2256   7.634   2.322   5.434
  157POPC   C4B 2257   7.513   2.448   5.853
  158POPC   NC3 2258   5.026   0.548   4.080
  158POPC   PO4 2259   5.152   9.931   3.951
  158POPC   GL1 2260   5.225   0.148   4.406
  158POPC   GL2 2261   5.295   0.530   4.523
  158POPC   C1A 2262   5.129   0.212   4.874
  158POPC   D2A 2263   5.321   0.473   5.220
  158POPC   C3A 2264   5.351   0.274   5.639
  158POPC   C4A 2265   5.528   0.299   6.085
  158POPC   C1B 2266   4.978   0.756   4.744
  158POPC   C2B 2267   4.822   0.600   5.107
  158POPC   C3B 2268   4.907   0.542   5.520
  158POPC   C4B 2269   4.617   0.631   5.796
  159POPC   NC3 2270   1.365   6.728   4.020
  159POPC   PO4 2271   0.881   6.213   3.889
  159POPC   GL1 2272   1.040   6.388   4.229
  159POPC   GL2 2273   1.376   6.353   4.404
  159POPC   C1A 2274   0.920   6.600   4.595
  159POPC   D2A 2275   0.986   6.835   4.981
  159POPC   C3A 2276   1.148   6.626   5.356
  159POPC   C4A 2277   0.948   6.748   5.748
  159POPC   C1B 2278   1.415   6.732   4.694
  159POPC   C2B 2279   1.489   6.952   5.093
  159POPC   C3B 2280   1.626   6.831   5.512
  159POPC   C4B 2281   1.450   6.489   5.773
  160POPC   NC3 2282   0.588   5.819   3.768
  160POPC   PO4 2283   0.513   5.153   3.895
  160POPC   GL1 2284   0.625   5.486   4.166
  160POPC   GL2 2285   0.335   5.651   4.246
  160POPC   C1A 2286   0.715   5.685   4.602
  160POPC   D2A 2287   0.586   5.534   5.056
  160POPC   C3A 2288   0.728   5.608   5.487
  160POPC   C4A 2289   0.635   5.847   5.884
  160POPC   C1B 2290   0.206   5.776   4.680
  160POPC   C2B 2291   0.329   6.009   5.035
  160POPC   C3B 2292   0.398   6.001   5.456
  160POPC   C4B 2293   0.130   5.905   5.802
  161POPC   NC3 2294   0.551   7.537   3.888
  161POPC   PO4 2295   0.026   7.059   3.855
  161POPC   GL1 2296   0.208   7.302   4.183
  161POPC   GL2 2297   0.513   7.099   4.234
  161POPC   C1A 2298   0.289   7.492   4.592
  161POPC   D2A 2299   0.144   7.671   5.020
  161POPC   C3A 2300   0.305   7.515   5.444
  161POPC   C4A 2301   0.530   7.597   5.869
  161POPC   C1B 2302   0.697   7.184   4.668
  161POPC   C2B 2303   0.656   7.485   5.035
  161POPC   C3B 2304   0.791   7.401   5.484
  161POPC   C4B 2305   0.549   7.095   5.753
  162POPC   NC3 2306   3.993   3.617   3.897
  162POPC   PO4 2307   4.273   4.091   3.890
  162POPC   GL1 2308   4.289   3.740   4.283
  162POPC   GL2 2309   4.467   3.399   4.210
  162POPC   C1A 2310   4.182   3.419   4.647
  162POPC   D2A 2311   4.185   3.230   5.089
  162POPC   C3A 2312   3.815   3.196   5.436
  162POPC   C4A 2313   3.452   3.387   5.692
  162POPC   C1B 2314   4.624   3.145   4.626
  162POPC   C2B 2315   4.621   2.955   5.081
  162POPC   C3B 2316   4.326   2.896   5.457
  162POPC   C4B 2317   4.086   2.988   5.840
  163POPC   NC3 2318   8.135   7.063   3.887
  163POPC   PO4 2319   7.775   7.632   4.115
  163POPC   GL1 2320   8.132   7.371   4.286
  163POPC   GL2 2321   8.450   7.529   4.341
  163POPC   C1A 2322   8.355   7.111   4.649
  163POPC   D2A 2323   8.448   6.948   5.083
  163POPC   C3A 2324   8.093   6.909   5.371
  163POPC   C4A 2325   7.949   7.091   5.744
  163POPC   C1B 2326   8.179   7.602   4.720
  163POPC   C2B 2327   8.102   7.337   5.068
  163POPC   C3B 2328   8.320   7.361   5.461
  163POPC   C4B 2329   8.026   7.612   5.643
  164POPC   NC3 2330   8.170   7.793   3.973
  164POPC   PO4 2331   7.552   8.152   3.928
  164POPC   GL1 2332   7.778   8.092   4.318
  164POPC   GL2 2333   8.096   8.252   4.238
  164POPC   C1A 2334   8.000   8.084   4.734
  164POPC   D2A 2335   8.025   7.890   5.162
  164POPC   C3A 2336   8.300   8.038   5.503
  164POPC   C4A 2337   8.446   7.830   5.879
  164POPC   C1B 2338   7.859   8.546   4.520
  164POPC   C2B 2339   7.896   8.526   4.990
  164POPC   C3B 2340   8.031   8.489   5.431
  164POPC   C4B 2341   8.072   8.396   5.901
  165POPC   NC3 2342   6.382   0.533   3.921
  165POPC   PO4 2343   6.085   1.067   4.082
  165POPC   GL1 2344   6.398   0.852   4.340
  165POPC   GL2 2345   6.665   0.581   4.342
  165POPC   C1A 2346   6.518   0.836   4.762
  165POPC   D2A 2347   6.395   0.578   5.073
  165POPC   C3A 2348   6.276   0.771   5.433
  165POPC   C4A 2349   6.299   0.622   5.827
  165POPC   C1B 2350   6.628   0.306   4.690
  165POPC   C2B 2351   6.616   0.091   5.094
  165POPC   C3B 2352   6.679   0.321   5.424
  165POPC   C4B 2353   6.557   0.193   5.781
  166POPC   NC3 2354   3.171   8.746   3.970
  166POPC   PO4 2355   3.807   8.951   4.015
  166POPC   GL1 2356   3.446   8.923   4.373
  166POPC   GL2 2357   3.391   9.248   4.558
  166POPC   C1A 2358   3.272   8.835   4.812
  166POPC   D2A 2359   3.396   9.155   5.121
  166POPC   C3A 2360   3.250   9.150   5.564
  166POPC   C4A 2361   3.336   9.324   5.960
  166POPC   C1B 2362   3.795   9.135   4.726
  166POPC   C2B 2363   3.840   8.899   5.091
  166POPC   C3B 2364   3.650   8.774   5.450
  166POPC   C4B 2365   3.703   9.033   5.769
  167POPC   NC3 2366   7.169   9.321   3.855
  167POPC   PO4 2367   6.941   9.929   3.906
  167POPC   GL1 2368   7.077   9.670   4.280
  167POPC   GL2 2369   7.432   9.543   4.233
  167POPC   C1A 2370   7.129   9.422   4.712
  167POPC   D2A 2371   7.331   9.312   5.115
  167POPC   C3A 2372   7.130   9.444   5.519
  167POPC   C4A 2373   7.187   9.586   5.974
  167POPC   C1B 2374   7.431   9.825   4.599
  167POPC   C2B 2375   7.571   9.803   5.021
  167POPC   C3B 2376   7.587   9.664   5.423
  167POPC   C4B 2377   7.396   9.950   5.689
  168POPC   NC3 2378   9.030   7.507   3.906
  168POPC   PO4 2379   8.575   7.111   4.042
  168POPC   GL1 2380   8.812   7.078   4.383
  168POPC   GL2 2381   8.948   7.387   4.377
  168POPC   C1A 2382   8.831   7.199   4.827
  168POPC   D2A 2383   8.801   7.347   5.222
  168POPC   C3A 2384   8.831   7.021   5.541
  168POPC   C4A 2385   9.047   7.133   5.941
  168POPC   C1B 2386   8.897   7.710   4.693
  168POPC   C2B 2387   8.904   8.007   5.049
  168POPC   C3B 2388   8.935   7.863   5.487
  168POPC   C4B 2389   8.784   7.504   5.712
  169POPC   NC3 2390   3.903   8.074   4.085
  169POPC   PO4 2391   3.246   7.870   3.856
  169POPC   GL1 2392   3.414   8.112   4.254
  169POPC   GL2 2393   3.600   8.454   4.244
  169POPC   C1A 2394   3.425   8.212   4.711
  169POPC   D2A 2395   3.224   8.073   5.092
  169POPC   C3A 2396   3.389   8.145   5.490
  169POPC   C4A 2397   3.397   7.914   5.868
  169POPC   C1B 2398   3.714   8.619   4.672
  169POPC   C2B 2399   3.794   8.374   5.078
  169POPC   C3B 2400   3.935   8.362   5.524
  169POPC   C4B 2401   3.694   8.399   5.889
  170POPC   NC3 2402   7.277   0.923   3.935
  170POPC   PO4 2403   7.412   1.559   3.894
  170POPC   GL1 2404   7.389   1.246   4.291
  170POPC   GL2 2405   7.712   1.227   4.435
  170POPC   C1A 2406   7.406   1.013   4.764
  170POPC   D2A 2407   7.471   1.188   5.213
  170POPC   C3A 2408   7.287   0.907   5.532
  170POPC   C4A 2409   6.895   0.728   5.622
  170POPC   C1B 2410   7.360   1.507   4.706
  170POPC   C2B 2411   7.095   1.515   5.076
  170POPC   C3B 2412   7.202   1.553   5.516
  170POPC   C4B 2413   7.479   1.317   5.756
  171POPC   NC3 2414   2.271   6.260   3.915
  171POPC   PO4 2415   1.624   6.350   3.977
  171POPC   GL1 2416   1.928   6.140   4.287
  171POPC   GL2 2417   1.904   5.775   4.311
  171POPC   C1A 2418   2.119   6.020   4.710
  171POPC   D2A 2419   1.905   6.003   5.135
  171POPC   C3A 2420   2.064   5.888   5.554
  171POPC   C4A 2421   2.116   5.750   6.001
  171POPC   C1B 2422   1.626   5.922   4.675
  171POPC   C2B 2423   1.393   6.010   5.068
  171POPC   C3B 2424   1.535   6.024   5.533
  171POPC   C4B 2425   1.634   5.707   5.881
  172POPC   NC3 2426   0.705   4.124   3.884
  172POPC   PO4 2427   1.347   3.866   3.680
  172POPC   GL1 2428   1.213   3.915   4.153
  172POPC   GL2 2429   0.985   4.184   4.296
  172POPC   C1A 2430   1.286   3.928   4.627
  172POPC   D2A 2431   1.117   4.140   5.017
  172POPC   C3A 2432   1.081   4.019   5.470
  172POPC   C4A 2433   0.684   3.972   5.734
  172POPC   C1B 2434   1.235   4.446   4.593
  172POPC   C2B 2435   1.265   4.637   5.012
  172POPC   C3B 2436   1.216   4.652   5.462
  172POPC   C4B 2437   1.537   4.514   5.769
  173POPC   NC3 2438   2.142   7.326   3.822
  173POPC   PO4 2439   2.418   6.680   3.793
  173POPC   GL1 2440   2.190   6.632   4.269
  173POPC   GL2 2441   1.812   6.640   4.362
  173POPC   C1A 2442   2.095   6.790   4.740
  173POPC   D2A 2443   1.993   7.013   5.150
  173POPC   C3A 2444   2.323   7.042   5.472
  173POPC   C4A 2445   2.361   6.716   5.786
  173POPC   C1B 2446   1.783   6.395   4.738
  173POPC   C2B 2447   1.683   6.464   5.159
  173POPC   C3B 2448   1.916   6.405   5.543
  173POPC   C4B 2449   1.862   6.188   5.922
  174POPC   NC3 2450   7.134   4.602   4.009
  174POPC   PO4 2451   7.501   4.066   3.972
  174POPC   GL1 2452   7.402   4.164   4.364
  174POPC   GL2 2453   7.598   3.927   4.496
  174POPC   C1A 2454   7.294   4.171   4.822
  174POPC   D2A 2455   7.346   4.131   5.271
  174POPC   C3A 2456   7.111   3.921   5.642
  174POPC   C4A 2457   7.192   4.020   6.103
  174POPC   C1B 2458   7.811   4.285   4.678
  174POPC   C2B 2459   7.935   4.418   5.100
  174POPC   C3B 2460   7.696   4.474   5.452
  174POPC   C4B 2461   7.521   4.223   5.736
  175POPC   NC3 2462   4.078   7.339   4.185
  175POPC   PO4 2463   3.933   6.753   4.161
  175POPC   GL1 2464   3.880   7.025   4.569
  175POPC   GL2 2465   3.855   7.405   4.644
  175POPC   C1A 2466   4.018   7.001   5.014
  175POPC   D2A 2467   4.373   7.113   5.263
  175POPC   C3A 2468   4.345   7.132   5.723
  175POPC   C4A 2469   4.344   7.100   6.200
  175POPC   C1B 2470   4.076   7.521   4.999
  175POPC   C2B 2471   4.205   7.567   5.401
  175POPC   C3B 2472   4.373   7.661   5.753
  175POPC   C4B 2473   4.211   7.599   6.156
  176POPC   NC3 2474   8.652   4.911   4.117
  176POPC   PO4 2475   8.295   5.407   3.705
  176POPC   GL1 2476   8.277   5.275   4.125
  176POPC   GL2 2477   8.121   4.925   4.162
  176POPC   C1A 2478   8.373   5.265   4.575
  176POPC   D2A 2479   8.282   5.196   5.009
  176POPC   C3A 2480   8.372   5.242   5.456
  176POPC   C4A 2481   8.461   5.321   5.889
  176POPC   C1B 2482   7.953   4.892   4.607
  176POPC   C2B 2483   7.852   4.934   5.073
  176POPC   C3B 2484   8.071   4.820   5.424
  176POPC   C4B 2485   8.329   4.822   5.763
  177POPC   NC3 2486   0.289   4.776   3.734
  177POPC   PO4 2487   0.225   4.100   3.879
  177POPC   GL1 2488   0.400   4.411   4.196
  177POPC   GL2 2489   0.456   4.119   4.371
  177POPC   C1A 2490   0.405   4.520   4.695
  177POPC   D2A 2491   0.721   4.490   5.110
  177POPC   C3A 2492   0.689   4.487   5.551
  177POPC   C4A 2493   0.544   4.390   5.991
  177POPC   C1B 2494   0.719   4.121   4.725
  177POPC   C2B 2495   0.631   3.995   5.176
  177POPC   C3B 2496   0.291   4.207   5.432
  177POPC   C4B 2497   0.141   4.094   5.858
  178POPC   NC3 2498   8.674   9.706   4.096
  178POPC   PO4 2499   9.279   9.416   3.854
  178POPC   GL1 2500   9.127   9.566   4.257
  178POPC   GL2 2501   9.094   9.941   4.341
  178POPC   C1A 2502   8.993   9.529   4.673
  178POPC   D2A 2503   9.146   9.363   5.041
  178POPC   C3A 2504   8.973   9.511   5.445
  178POPC   C4A 2505   8.971   9.251   5.799
  178POPC   C1B 2506   8.841   0.009   4.746
  178POPC   C2B 2507   8.952   9.973   5.204
  178POPC   C3B 2508   8.902   9.975   5.686
  178POPC   C4B 2509   8.735   9.987   6.169
  179POPC   NC3 2510   3.470   7.486   3.668
  179POPC   PO4 2511   4.013   7.684   3.837
  179POPC   GL1 2512   3.631   7.634   4.167
  179POPC   GL2 2513   3.557   7.301   4.258
  179POPC   C1A 2514   3.369   7.703   4.599
  179POPC   D2A 2515   3.186   7.565   5.035
  179POPC   C3A 2516   3.405   7.585   5.453
  179POPC   C4A 2517   3.422   7.341   5.848
  179POPC   C1B 2518   3.393   7.197   4.675
  179POPC   C2B 2519   3.609   7.289   5.089
  179POPC   C3B 2520   3.840   7.207   5.493
  179POPC   C4B 2521   3.899   7.173   5.955
  180POPC   NC3 2522   9.907   2.640   3.850
  180POPC   PO4 2523   9.954   3.245   4.197
  180POPC   GL1 2524   9.703   3.127   4.445
  180POPC   GL2 2525   9.504   2.882   4.320
  180POPC   C1A 2526   9.737   2.952   4.814
  180POPC   D2A 2527   9.594   3.087   5.165
  180POPC   C3A 2528   9.755   2.879   5.521
  180POPC   C4A 2529   9.521   3.157   5.767
  180POPC   C1B 2530   9.487   2.537   4.652
  180POPC   C2B 2531   9.465   2.553   5.096
  180POPC   C3B 2532   9.264   2.807   5.420
  180POPC   C4B 2533   9.368   2.628   5.803
  181POPC   NC3 2534   1.031   1.247   4.012
  181POPC   PO4 2535   0.869   0.694   3.658
  181POPC   GL1 2536   1.183   0.780   4.130
  181POPC   GL2 2537   1.435   1.006   4.291
  181POPC   C1A 2538   1.043   0.972   4.606
  181POPC   D2A 2539   1.207   1.252   4.942
  181POPC   C3A 2540   1.179   1.166   5.382
  181POPC   C4A 2541   1.172   1.071   5.822
  181POPC   C1B 2542   1.613   1.323   4.652
  181POPC   C2B 2543   1.650   1.512   5.116
  181POPC   C3B 2544   1.619   1.369   5.585
  181POPC   C4B 2545   1.557   1.322   6.060
  182POPC   NC3 2546   2.196   1.636   3.528
  182POPC   PO4 2547   2.003   1.923   4.108
  182POPC   GL1 2548   1.833   2.076   4.454
  182POPC   GL2 2549   1.650   2.333   4.297
  182POPC   C1A 2550   1.940   1.901   4.864
  182POPC   D2A 2551   2.346   1.914   5.097
  182POPC   C3A 2552   2.421   2.117   5.462
  182POPC   C4A 2553   2.117   2.062   5.801
  182POPC   C1B 2554   1.740   2.531   4.709
  182POPC   C2B 2555   1.955   2.365   5.106
  182POPC   C3B 2556   1.868   2.013   5.368
  182POPC   C4B 2557   1.606   2.142   5.715
  183POPC   NC3 2558   7.775   1.248   3.918
  183POPC   PO4 2559   8.372   1.527   3.691
  183POPC   GL1 2560   8.182   1.439   4.174
  183POPC   GL2 2561   8.420   1.260   4.349
  183POPC   C1A 2562   8.111   1.398   4.706
  183POPC   D2A 2563   8.259   1.336   5.183
  183POPC   C3A 2564   7.995   1.333   5.642
  183POPC   C4A 2565   7.784   1.566   6.064
  183POPC   C1B 2566   8.521   1.059   4.774
  183POPC   C2B 2567   8.520   0.904   5.216
  183POPC   C3B 2568   8.479   1.125   5.657
  183POPC   C4B 2569   8.425   0.885   6.088
  184POPC   NC3 2570   8.242   8.936   3.842
  184POPC   PO4 2571   7.597   9.124   3.860
  184POPC   GL1 2572   7.946   9.127   4.211
  184POPC   GL2 2573   8.207   8.882   4.326
  184POPC   C1A 2574   8.077   9.254   4.645
  184POPC   D2A 2575   7.836   9.355   5.007
  184POPC   C3A 2576   7.988   9.287   5.412
  184POPC   C4A 2577   7.861   8.957   5.704
  184POPC   C1B 2578   8.279   8.760   4.722
  184POPC   C2B 2579   8.218   8.932   5.100
  184POPC   C3B 2580   8.447   8.762   5.416
  184POPC   C4B 2581   8.334   8.798   5.792
  185POPC   NC3 2582   8.139   9.493   3.707
  185POPC   PO4 2583   8.361   0.105   3.963
  185POPC   GL1 2584   8.225   9.814   4.273
  185POPC   GL2 2585   7.946   9.633   4.205
  185POPC   C1A 2586   8.424   9.660   4.686
  185POPC   D2A 2587   8.640   9.601   5.053
  185POPC   C3A 2588   8.513   9.764   5.435
  185POPC   C4A 2589   8.558   9.635   5.871
  185POPC   C1B 2590   7.938   9.769   4.680
  185POPC   C2B 2591   8.085   9.767   5.146
  185POPC   C3B 2592   8.036   9.805   5.612
  185POPC   C4B 2593   7.869   0.136   5.872
  186POPC   NC3 2594   4.997   2.129   3.887
  186POPC   PO4 2595   5.165   1.457   4.072
  186POPC   GL1 2596   5.095   1.708   4.418
  186POPC   GL2 2597   5.119   2.047   4.369
  186POPC   C1A 2598   4.955   1.800   4.848
  186POPC   D2A 2599   5.184   1.853   5.245
  186POPC   C3A 2600   4.944   1.943   5.624
  186POPC   C4A 2601   4.793   1.921   6.048
  186POPC   C1B 2602   4.971   2.301   4.729
  186POPC   C2B 2603   4.918   2.289   5.178
  186POPC   C3B 2604   5.156   2.406   5.553
  186POPC   C4B 2605   5.170   2.268   5.971
  187POPC   NC3 2606   3.386   2.879   3.812
  187POPC   PO4 2607   4.026   3.154   3.960
  187POPC   GL1 2608   3.762   2.959   4.258
  187POPC   GL2 2609   3.492   2.699   4.285
  187POPC   C1A 2610   3.579   3.056   4.657
  187POPC   D2A 2611   3.293   2.852   4.938
  187POPC   C3A 2612   3.349   2.943   5.370
  187POPC   C4A 2613   3.059   2.903   5.704
  187POPC   C1B 2614   3.649   2.546   4.694
  187POPC   C2B 2615   3.501   2.446   5.156
  187POPC   C3B 2616   3.362   2.475   5.601
  187POPC   C4B 2617   3.623   2.430   5.982
  188POPC   NC3 2618   2.848   8.097   3.760
  188POPC   PO4 2619   2.247   7.864   3.899
  188POPC   GL1 2620   2.526   8.068   4.240
  188POPC   GL2 2621   2.890   8.224   4.235
  188POPC   C1A 2622   2.424   8.136   4.699
  188POPC   D2A 2623   2.203   8.010   5.088
  188POPC   C3A 2624   2.458   8.053   5.463
  188POPC   C4A 2625   2.494   8.416   5.745
  188POPC   C1B 2626   2.937   8.098   4.629
  188POPC   C2B 2627   2.857   8.400   4.962
  188POPC   C3B 2628   2.875   8.323   5.406
  188POPC   C4B 2629   2.929   8.141   5.815
  189POPC   NC3 2630   9.332   5.094   3.927
  189POPC   PO4 2631   9.978   5.302   4.051
  189POPC   GL1 2632   9.685   5.014   4.295
  189POPC   GL2 2633   9.519   4.660   4.295
  189POPC   C1A 2634   9.553   4.973   4.729
  189POPC   D2A 2635   9.634   5.111   5.124
  189POPC   C3A 2636   9.501   4.888   5.530
  189POPC   C4A 2637   9.412   5.118   5.924
  189POPC   C1B 2638   9.651   4.485   4.722
  189POPC   C2B 2639   9.851   4.633   5.127
  189POPC   C3B 2640   0.020   4.966   5.418
  189POPC   C4B 2641   9.897   5.006   5.845
  190POPC   NC3 2642   8.750   1.172   3.707
  190POPC   PO4 2643   9.334   1.408   3.935
  190POPC   GL1 2644   8.921   1.300   4.187
  190POPC   GL2 2645   8.763   0.927   4.199
  190POPC   C1A 2646   8.846   1.429   4.626
  190POPC   D2A 2647   9.067   1.524   5.027
  190POPC   C3A 2648   8.911   1.360   5.416
  190POPC   C4A 2649   9.149   1.396   5.796
  190POPC   C1B 2650   8.984   0.897   4.573
  190POPC   C2B 2651   9.005   1.018   4.996
  190POPC   C3B 2652   8.985   0.866   5.416
  190POPC   C4B 2653   8.901   0.920   5.866
  191POPC   NC3 2654   0.735   2.761   4.069
  191POPC   PO4 2655   1.351   2.429   3.890
  191POPC   GL1 2656   1.249   2.716   4.210
  191POPC   GL2 2657   1.240   3.040   4.048
  191POPC   C1A 2658   1.085   2.910   4.611
  191POPC   D2A 2659   0.946   2.859   5.052
  191POPC   C3A 2660   1.218   2.698   5.348
  191POPC   C4A 2661   1.548   2.698   5.654
  191POPC   C1B 2662   1.519   3.112   4.433
  191POPC   C2B 2663   1.518   2.983   4.904
  191POPC   C3B 2664   1.491   3.144   5.340
  191POPC   C4B 2665   1.210   3.105   5.732
  192POPC   NC3 2666   1.906   9.751   3.822
  192POPC   PO4 2667   1.328   9.653   4.097
  192POPC   GL1 2668   1.746   9.609   4.281
  192POPC   GL2 2669   2.081   9.781   4.298
  192POPC   C1A 2670   1.835   9.467   4.679
  192POPC   D2A 2671   1.990   9.493   5.094
  192POPC   C3A 2672   1.863   9.536   5.535
  192POPC   C4A 2673   1.641   9.327   5.862
  192POPC   C1B 2674   2.256   9.725   4.695
  192POPC   C2B 2675   2.387   9.952   5.002
  192POPC   C3B 2676   2.227   0.130   5.360
  192POPC   C4B 2677   2.109   9.967   5.727
  193POPC   NC3 2678   7.957   6.257   4.084
  193POPC   PO4 2679   8.372   6.663   3.772
  193POPC   GL1 2680   8.273   6.710   4.237
  193POPC   GL2 2681   7.973   6.903   4.375
  193POPC   C1A 2682   8.294   6.573   4.685
  193POPC   D2A 2683   8.492   6.441   5.110
  193POPC   C3A 2684   8.481   6.614   5.544
  193POPC   C4A 2685   8.295   6.423   5.925
  193POPC   C1B 2686   7.922   6.899   4.827
  193POPC   C2B 2687   7.955   6.517   5.090
  193POPC   C3B 2688   7.973   6.410   5.533
  193POPC   C4B 2689   7.817   6.567   5.948
  194POPC   NC3 2690   7.826   5.393   3.827
  194POPC   PO4 2691   7.525   4.809   3.928
  194POPC   GL1 2692   7.520   4.660   4.386
  194POPC   GL2 2693   7.151   4.601   4.524
  194POPC   C1A 2694   7.507   4.635   4.874
  194POPC   D2A 2695   7.341   4.782   5.284
  194POPC   C3A 2696   7.596   4.969   5.614
  194POPC   C4A 2697   7.965   5.203   5.763
  194POPC   C1B 2698   6.993   4.565   4.994
  194POPC   C2B 2699   6.980   4.430   5.467
  194POPC   C3B 2700   6.730   4.200   5.820
  194POPC   C4B 2701   6.766   4.266   6.268
  195POPC   NC3 2702   3.605   1.838   4.026
  195POPC   PO4 2703   3.688   2.503   3.848
  195POPC   GL1 2704   3.739   2.244   4.287
  195POPC   GL2 2705   3.375   2.164   4.344
  195POPC   C1A 2706   3.876   1.860   4.619
  195POPC   D2A 2707   4.067   1.739   5.048
  195POPC   C3A 2708   3.838   1.638   5.459
  195POPC   C4A 2709   3.918   1.541   5.905
  195POPC   C1B 2710   3.448   2.077   4.767
  195POPC   C2B 2711   3.574   1.947   5.158
  195POPC   C3B 2712   3.468   1.968   5.608
  195POPC   C4B 2713   3.492   1.817   6.046
  196POPC   NC3 2714   4.713   1.390   4.023
  196POPC   PO4 2715   4.009   1.559   3.922
  196POPC   GL1 2716   3.923   1.412   4.339
  196POPC   GL2 2717   4.112   1.120   4.301
  196POPC   C1A 2718   4.049   1.284   4.783
  196POPC   D2A 2719   4.057   1.197   5.229
  196POPC   C3A 2720   4.319   1.487   5.430
  196POPC   C4A 2721   4.627   1.481   5.705
  196POPC   C1B 2722   4.481   1.027   4.593
  196POPC   C2B 2723   4.582   1.051   5.034
  196POPC   C3B 2724   4.524   1.013   5.469
  196POPC   C4B 2725   4.169   1.124   5.752
  197POPC   NC3 2726   7.408   7.733   3.738
  197POPC   PO4 2727   6.911   7.978   4.121
  197POPC   GL1 2728   7.099   8.172   4.442
  197POPC   GL2 2729   7.355   8.426   4.357
  197POPC   C1A 2730   7.019   8.371   4.803
  197POPC   D2A 2731   7.242   8.569   5.119
  197POPC   C3A 2732   7.129   8.300   5.435
  197POPC   C4A 2733   7.315   8.030   5.705
  197POPC   C1B 2734   7.512   8.251   4.765
  197POPC   C2B 2735   7.592   8.171   5.217
  197POPC   C3B 2736   7.794   8.076   5.620
  197POPC   C4B 2737   7.637   8.207   6.051
  198POPC   NC3 2738   8.969   3.470   3.661
  198POPC   PO4 2739   9.266   3.883   4.059
  198POPC   GL1 2740   9.104   3.721   4.400
  198POPC   GL2 2741   8.838   3.524   4.244
  198POPC   C1A 2742   9.080   3.613   4.840
  198POPC   D2A 2743   9.103   3.270   5.117
  198POPC   C3A 2744   8.989   3.438   5.519
  198POPC   C4A 2745   9.100   3.398   5.958
  198POPC   C1B 2746   8.625   3.681   4.625
  198POPC   C2B 2747   8.622   3.503   5.062
  198POPC   C3B 2748   8.456   3.397   5.460
  198POPC   C4B 2749   8.609   3.576   5.823
  199POPC   NC3 2750   1.876   9.098   3.788
  199POPC   PO4 2751   2.347   9.485   3.967
  199POPC   GL1 2752   2.150   9.272   4.297
  199POPC   GL2 2753   2.127   8.923   4.233
  199POPC   C1A 2754   2.274   9.184   4.720
  199POPC   D2A 2755   2.111   8.898   5.032
  199POPC   C3A 2756   1.916   9.044   5.375
  199POPC   C4A 2757   2.099   9.061   5.753
  199POPC   C1B 2758   1.837   8.926   4.599
  199POPC   C2B 2759   1.585   8.825   4.996
  199POPC   C3B 2760   1.524   8.711   5.446
  199POPC   C4B 2761   1.665   8.825   5.844
  200POPC   NC3 2762   7.924   0.366   4.138
  200POPC   PO4 2763   7.689   0.820   3.753
  200POPC   GL1 2764   8.043   0.869   4.132
  200POPC   GL2 2765   8.335   0.613   4.272
  200POPC   C1A 2766   8.069   0.895   4.595
  200POPC   D2A 2767   7.906   1.008   5.003
  200POPC   C3A 2768   7.931   0.677   5.336
  200POPC   C4A 2769   8.045   0.605   5.771
  200POPC   C1B 2770   8.318   0.196   4.607
  200POPC   C2B 2771   8.430   0.126   5.028
  200POPC   C3B 2772   8.232   0.232   5.410
  200POPC   C4B 2773   8.417   0.139   5.788
  201POPC   NC3 2774   8.929   9.228   3.610
  201POPC   PO4 2775   8.403   9.331   4.051
  201POPC   GL1 2776   8.684   9.242   4.345
  201POPC   GL2 2777   8.963   9.099   4.139
  201POPC   C1A 2778   8.615   9.161   4.784
  201POPC   D2A 2779   8.733   9.120   5.218
  201POPC   C3A 2780   8.497   9.237   5.584
  201POPC   C4A 2781   8.530   9.166   6.076
  201POPC   C1B 2782   9.105   9.034   4.591
  201POPC   C2B 2783   9.100   8.823   5.015
  201POPC   C3B 2784   9.106   8.860   5.474
  201POPC   C4B 2785   8.836   8.758   5.808
  202POPC   NC3 2786   7.370   3.631   3.990
  202POPC   PO4 2787   7.628   3.097   3.759
  202POPC   GL1 2788   7.464   3.163   4.206
  202POPC   GL2 2789   7.398   3.436   4.439
  202POPC   C1A 2790   7.299   3.002   4.648
  202POPC   D2A 2791   7.170   2.870   5.031
  202POPC   C3A 2792   7.275   3.119   5.363
  202POPC   C4A 2793   7.532   3.244   5.723
  202POPC   C1B 2794   7.252   3.657   4.791
  202POPC   C2B 2795   7.317   3.609   5.215
  202POPC   C3B 2796   7.553   3.703   5.545
  202POPC   C4B 2797   7.663   3.801   5.948
  203POPC   NC3 2798   5.592   0.065   3.526
  203POPC   PO4 2799   5.495   0.513   4.077
  203POPC   GL1 2800   5.915   0.584   4.268
  203POPC   GL2 2801   5.889   0.874   4.496
  203POPC   C1A 2802   6.153   0.459   4.633
  203POPC   D2A 2803   6.142   0.121   4.954
  203POPC   C3A 2804   6.185   0.234   5.403
  203POPC   C4A 2805   6.025   0.197   5.814
  203POPC   C1B 2806   5.708   0.648   4.787
  203POPC   C2B 2807   5.863   0.516   5.135
  203POPC   C3B 2808   5.772   0.546   5.540
  203POPC   C4B 2809   5.412   0.791   5.657
  204POPC   NC3 2810   4.391   7.906   3.715
  204POPC   PO4 2811   4.111   7.756   4.346
  204POPC   GL1 2812   3.820   7.923   4.576
  204POPC   GL2 2813   3.989   8.219   4.573
  204POPC   C1A 2814   3.659   7.820   4.988
  204POPC   D2A 2815   3.816   7.890   5.367
  204POPC   C3A 2816   3.842   7.684   5.752
  204POPC   C4A 2817   4.070   8.031   5.898
  204POPC   C1B 2818   4.468   8.261   4.639
  204POPC   C2B 2819   4.567   8.332   5.087
  204POPC   C3B 2820   4.450   8.201   5.529
  204POPC   C4B 2821   4.398   8.455   5.894
  205POPC   NC3 2822   5.779   8.362   3.938
  205POPC   PO4 2823   6.167   7.821   3.961
  205POPC   GL1 2824   5.930   7.970   4.336
  205POPC   GL2 2825   5.793   8.308   4.422
  205POPC   C1A 2826   6.020   8.131   4.798
  205POPC   D2A 2827   5.829   8.402   5.124
  205POPC   C3A 2828   5.946   8.304   5.582
  205POPC   C4A 2829   6.022   8.068   5.996
  205POPC   C1B 2830   5.539   8.001   4.677
  205POPC   C2B 2831   5.425   8.090   5.125
  205POPC   C3B 2832   5.485   8.066   5.585
  205POPC   C4B 2833   5.499   7.929   6.032
  206POPC   NC3 2834   9.621   9.163   4.025
  206POPC   PO4 2835   0.016   8.670   3.903
  206POPC   GL1 2836   9.995   8.952   4.268
  206POPC   GL2 2837   9.705   8.774   4.367
  206POPC   C1A 2838   9.981   9.116   4.692
  206POPC   D2A 2839   0.203   9.194   5.070
  206POPC   C3A 2840   0.054   9.342   5.461
  206POPC   C4A 2841   9.787   9.263   5.821
  206POPC   C1B 2842   9.560   8.842   4.787
  206POPC   C2B 2843   9.571   8.798   5.235
  206POPC   C3B 2844   9.599   8.807   5.678
  206POPC   C4B 2845   9.321   8.670   6.002
  207POPC   NC3 2846   2.898   1.334   4.058
  207POPC   PO4 2847   2.299   0.981   3.951
  207POPC   GL1 2848   2.633   0.975   4.313
  207POPC   GL2 2849   2.747   1.274   4.523
  207POPC   C1A 2850   2.591   0.870   4.788
  207POPC   D2A 2851   2.697   1.142   5.117
  207POPC   C3A 2852   2.528   1.118   5.537
  207POPC   C4A 2853   2.464   0.909   5.953
  207POPC   C1B 2854   3.099   1.279   4.780
  207POPC   C2B 2855   3.206   1.092   5.144
  207POPC   C3B 2856   3.045   1.165   5.554
  207POPC   C4B 2857   2.845   1.227   5.934
  208POPC   NC3 2858   6.391   9.039   4.151
  208POPC   PO4 2859   6.932   8.927   3.805
  208POPC   GL1 2860   6.789   8.790   4.311
  208POPC   GL2 2861   6.701   9.138   4.561
  208POPC   C1A 2862   6.648   8.715   4.773
  208POPC   D2A 2863   6.721   8.518   5.206
  208POPC   C3A 2864   6.776   8.639   5.627
  208POPC   C4A 2865   6.803   8.639   6.088
  208POPC   C1B 2866   6.324   9.125   4.817
  208POPC   C2B 2867   6.389   9.148   5.228
  208POPC   C3B 2868   6.664   9.142   5.523
  208POPC   C4B 2869   6.519   8.993   5.875
  209POPC   NC3 2870   2.974   5.769   4.017
  209POPC   PO4 2871   2.314   5.784   3.951
  209POPC   GL1 2872   2.469   5.957   4.323
  209POPC   GL2 2873   2.819   6.076   4.415
  209POPC   C1A 2874   2.560   5.783   4.742
  209POPC   D2A 2875   2.419   5.925   5.153
  209POPC   C3A 2876   2.556   5.726   5.546
  209POPC   C4A 2877   2.618   5.657   5.989
  209POPC   C1B 2878   2.826   6.200   4.887
  209POPC   C2B 2879   2.861   6.142   5.341
  209POPC   C3B 2880   2.916   6.026   5.756
  209POPC   C4B 2881   2.946   6.047   6.205
  210POPC   NC3 2882   1.224   7.475   3.913
  210POPC   PO4 2883   0.924   6.875   3.975
  210POPC   GL1 2884   1.048   7.155   4.279
  210POPC   GL2 2885   0.860   7.487   4.292
  210POPC   C1A 2886   1.217   7.200   4.688
  210POPC   D2A 2887   1.130   7.318   5.121
  210POPC   C3A 2888   1.223   7.128   5.538
  210POPC   C4A 2889   1.386   6.970   5.967
  210POPC   C1B 2890   0.987   7.669   4.686
  210POPC   C2B 2891   1.200   7.823   5.071
  210POPC   C3B 2892   1.250   7.678   5.483
  210POPC   C4B 2893   1.433   7.475   5.860
  211POPC   NC3 2894   2.131   7.653   4.295
  211POPC   PO4 2895   1.668   7.331   3.907
  211POPC   GL1 2896   1.819   7.160   4.278
  211POPC   GL2 2897   2.150   7.134   4.345
  211POPC   C1A 2898   1.746   7.165   4.695
  211POPC   D2A 2899   1.570   7.476   4.936
  211POPC   C3A 2900   1.644   7.381   5.360
  211POPC   C4A 2901   1.876   7.245   5.694
  211POPC   C1B 2902   2.258   7.276   4.780
  211POPC   C2B 2903   2.056   7.523   5.065
  211POPC   C3B 2904   2.145   7.626   5.468
  211POPC   C4B 2905   2.498   7.590   5.712
  212POPC   NC3 2906   9.446   1.854   3.930
  212POPC   PO4 2907   9.503   2.485   4.013
  212POPC   GL1 2908   9.694   2.174   4.322
  212POPC   GL2 2909   9.876   1.835   4.263
  212POPC   C1A 2910   9.708   2.088   4.791
  212POPC   D2A 2911   9.812   2.163   5.224
  212POPC   C3A 2912   9.487   2.188   5.544
  212POPC   C4A 2913   9.345   2.012   5.949
  212POPC   C1B 2914   9.717   1.598   4.656
  212POPC   C2B 2915   9.559   1.668   5.118
  212POPC   C3B 2916   9.569   1.663   5.583
  212POPC   C4B 2917   9.867   1.795   5.914
  213POPC   NC3 2918   2.052   5.383   4.005
  213POPC   PO4 2919   2.488   4.913   4.075
  213POPC   GL1 2920   2.122   5.038   4.400
  213POPC   GL2 2921   1.755   4.955   4.365
  213POPC   C1A 2922   1.826   5.370   4.660
  213POPC   D2A 2923   1.644   5.549   5.064
  213POPC   C3A 2924   1.833   5.416   5.489
  213POPC   C4A 2925   2.244   5.329   5.735
  213POPC   C1B 2926   1.725   4.764   4.808
  213POPC   C2B 2927   1.725   4.674   5.282
  213POPC   C3B 2928   1.951   4.847   5.647
  213POPC   C4B 2929   2.295   4.727   5.907
  214POPC   NC3 2930   1.320   8.464   4.011
  214POPC   PO4 2931   0.923   7.875   3.954
  214POPC   GL1 2932   1.087   8.097   4.324
  214POPC   GL2 2933   1.472   8.106   4.345
  214POPC   C1A 2934   0.987   8.175   4.776
  214POPC   D2A 2935   0.725   7.995   5.161
  214POPC   C3A 2936   0.866   8.042   5.584
  214POPC   C4A 2937   1.174   7.929   5.912
  214POPC   C1B 2938   1.463   8.410   4.689
  214POPC   C2B 2939   1.316   8.364   5.115
  214POPC   C3B 2940   1.390   8.205   5.521
  214POPC   C4B 2941   1.651   8.319   5.879
  215POPC   NC3 2942   5.167   8.516   3.558
  215POPC   PO4 2943   4.805   8.993   3.970
  215POPC   GL1 2944   4.886   8.901   4.368
  215POPC   GL2 2945   5.190   8.801   4.387
  215POPC   C1A 2946   4.834   8.648   4.728
  215POPC   D2A 2947   4.715   8.833   5.099
  215POPC   C3A 2948   4.737   8.635   5.503
  215POPC   C4A 2949   4.858   8.687   5.934
  215POPC   C1B 2950   5.206   9.108   4.721
  215POPC   C2B 2951   5.076   9.212   5.130
  215POPC   C3B 2952   5.069   9.035   5.541
  215POPC   C4B 2953   5.046   9.147   5.969
  216POPC   NC3 2954   2.860   6.661   3.871
  216POPC   PO4 2955   3.322   7.097   3.885
  216POPC   GL1 2956   3.092   6.913   4.295
  216POPC   GL2 2957   2.847   6.581   4.376
  216POPC   C1A 2958   3.048   6.813   4.772
  216POPC   D2A 2959   2.686   6.659   5.080
  216POPC   C3A 2960   2.805   6.733   5.513
  216POPC   C4A 2961   3.126   6.881   5.834
  216POPC   C1B 2962   2.458   6.409   4.619
  216POPC   C2B 2963   2.237   6.401   5.037
  216POPC   C3B 2964   2.412   6.349   5.443
  216POPC   C4B 2965   2.423   6.151   5.841
  217POPC   NC3 2966   2.907   3.717   3.490
  217POPC   PO4 2967   2.828   4.100   4.079
  217POPC   GL1 2968   2.737   4.314   4.485
  217POPC   GL2 2969   2.535   4.639   4.511
  217POPC   C1A 2970   2.894   4.275   4.918
  217POPC   D2A 2971   3.167   4.063   5.229
  217POPC   C3A 2972   3.053   3.931   5.654
  217POPC   C4A 2973   2.930   4.142   6.055
  217POPC   C1B 2974   2.405   4.427   4.881
  217POPC   C2B 2975   2.474   4.119   5.201
  217POPC   C3B 2976   2.603   4.190   5.620
  217POPC   C4B 2977   2.420   4.235   6.020
  218POPC   NC3 2978   3.094   7.486   4.082
  218POPC   PO4 2979   2.487   7.457   4.105
  218POPC   GL1 2980   2.708   7.284   4.367
  218POPC   GL2 2981   2.595   6.966   4.191
  218POPC   C1A 2982   2.803   7.574   4.707
  218POPC   D2A 2983   2.731   7.882   5.054
  218POPC   C3A 2984   2.934   7.793   5.447
  218POPC   C4A 2985   2.982   7.615   5.869
  218POPC   C1B 2986   2.572   6.911   4.648
  218POPC   C2B 2987   2.720   7.170   5.028
  218POPC   C3B 2988   2.885   7.259   5.456
  218POPC   C4B 2989   2.694   7.135   5.845
  219POPC   NC3 2990   2.519   4.454   4.042
  219POPC   PO4 2991   1.947   4.118   4.125
  219POPC   GL1 2992   2.226   4.203   4.412
  219POPC   GL2 2993   2.036   4.472   4.539
  219POPC   C1A 2994   2.147   4.001   4.807
  219POPC   D2A 2995   1.996   3.907   5.205
  219POPC   C3A 2996   2.205   3.863   5.652
  219POPC   C4A 2997   2.198   3.804   6.175
  219POPC   C1B 2998   1.688   4.244   4.797
  219POPC   C2B 2999   1.550   4.189   5.235
  219POPC   C3B 3000   1.731   4.084   5.591
  219POPC   C4B 3001   2.087   4.350   5.630
  220POPC   NC3 3002   5.594   9.979   4.088
  220POPC   PO4 3003   6.253   0.099   3.894
  220POPC   GL1 3004   6.043   0.064   4.335
  220POPC   GL2 3005   5.874   9.758   4.435
  220POPC   C1A 3006   5.706   0.156   4.691
  220POPC   D2A 3007   5.568   0.046   5.105
  220POPC   C3A 3008   5.803   9.890   5.444
  220POPC   C4A 3009   5.835   9.726   5.859
  220POPC   C1B 3010   5.904   9.681   4.862
  220POPC   C2B 3011   6.017   9.480   5.232
  220POPC   C3B 3012   5.759   9.280   5.554
  220POPC   C4B 3013   5.446   9.405   5.836
  221POPC   NC3 3014   9.749   4.043   3.911
  221POPC   PO4 3015   9.948   4.614   4.020
  221POPC   GL1 3016   9.936   4.265   4.325
  221POPC   GL2 3017   9.621   4.104   4.399
  221POPC   C1A 3018   0.057   4.140   4.733
  221POPC   D2A 3019   9.772   4.114   5.066
  221POPC   C3A 3020   9.798   4.066   5.485
  221POPC   C4A 3021   9.889   4.499   5.659
  221POPC   C1B 3022   9.367   4.043   4.782
  221POPC   C2B 3023   9.300   4.090   5.251
  221POPC   C3B 3024   9.384   4.318   5.663
  221POPC   C4B 3025   9.659   4.150   6.018
  222POPC   NC3 3026   9.331   3.315   4.115
  222POPC   PO4 3027   9.876   3.366   3.722
  222POPC   GL1 3028   9.689   3.642   4.194
  222POPC   GL2 3029   9.965   3.725   4.456
  222POPC   C1A 3030   9.549   3.573   4.663
  222POPC   D2A 3031   9.689   3.610   5.085
  222POPC   C3A 3032   9.475   3.537   5.411
  222POPC   C4A 3033   9.369   3.810   5.698
  222POPC   C1B 3034   0.032   3.401   4.793
  222POPC   C2B 3035   0.082   3.194   5.157
  222POPC   C3B 3036   9.951   3.345   5.525
  222POPC   C4B 3037   9.824   3.641   5.813
  223POPC   NC3 3038   1.230   0.128   4.077
  223POPC   PO4 3039   0.726   0.633   4.170
  223POPC   GL1 3040   1.088   0.416   4.484
  223POPC   GL2 3041   1.456   0.441   4.420
  223POPC   C1A 3042   1.371   0.264   4.877
  223POPC   D2A 3043   1.147   0.212   5.235
  223POPC   C3A 3044   1.243   0.132   5.636
  223POPC   C4A 3045   0.893   0.219   5.888
  223POPC   C1B 3046   1.466   0.744   4.728
  223POPC   C2B 3047   1.222   0.729   5.098
  223POPC   C3B 3048   1.273   0.644   5.536
  223POPC   C4B 3049   1.259   0.551   5.982
  224POPC   NC3 3050   8.057   3.066   3.591
  224POPC   PO4 3051   8.539   3.506   3.819
  224POPC   GL1 3052   8.274   3.542   4.256
  224POPC   GL2 3053   7.901   3.543   4.350
  224POPC   C1A 3054   8.236   3.370   4.709
  224POPC   D2A 3055   8.127   3.586   5.116
  224POPC   C3A 3056   7.889   3.331   5.367
  224POPC   C4A 3057   8.030   3.129   5.752
  224POPC   C1B 3058   7.749   3.550   4.789
  224POPC   C2B 3059   7.736   3.913   5.037
  224POPC   C3B 3060   7.929   3.991   5.424
  224POPC   C4B 3061   8.087   3.650   5.727
  225POPC   NC3 3062   6.546   9.692   3.975
  225POPC   PO4 3063   6.043   9.330   4.256
  225POPC   GL1 3064   6.385   9.541   4.441
  225POPC   GL2 3065   6.540   9.895   4.425
  225POPC   C1A 3066   6.449   9.642   4.861
  225POPC   D2A 3067   6.656   9.593   5.233
  225POPC   C3A 3068   6.366   9.759   5.509
  225POPC   C4A 3069   6.222   9.390   5.724
  225POPC   C1B 3070   6.909   9.878   4.726
  225POPC   C2B 3071   7.090   9.849   5.160
  225POPC   C3B 3072   6.903   9.888   5.576
  225POPC   C4B 3073   6.713   9.555   5.818
  226POPC   NC3 3074   9.942   5.794   3.955
  226POPC   PO4 3075   9.364   5.517   3.735
  226POPC   GL1 3076   9.528   5.510   4.165
  226POPC   GL2 3077   9.482   5.821   4.252
  226POPC   C1A 3078   9.665   5.485   4.642
  226POPC   D2A 3079   9.618   5.637   5.117
  226POPC   C3A 3080   9.665   5.389   5.545
  226POPC   C4A 3081   9.863   5.489   5.961
  226POPC   C1B 3082   9.482   5.972   4.675
  226POPC   C2B 3083   9.830   6.096   4.924
  226POPC   C3B 3084   9.899   6.028   5.341
  226POPC   C4B 3085   9.631   5.884   5.603
  227POPC   NC3 3086   9.027   5.769   3.974
  227POPC   PO4 3087   9.283   6.393   3.915
  227POPC   GL1 3088   9.131   6.180   4.335
  227POPC   GL2 3089   8.978   5.862   4.460
  227POPC   C1A 3090   9.041   6.217   4.805
  227POPC   D2A 3091   9.135   5.824   5.035
  227POPC   C3A 3092   9.138   5.857   5.476
  227POPC   C4A 3093   9.239   6.106   5.843
  227POPC   C1B 3094   8.763   5.573   4.748
  227POPC   C2B 3095   8.752   5.443   5.164
  227POPC   C3B 3096   8.688   5.635   5.563
  227POPC   C4B 3097   8.873   5.788   5.932
  228POPC   NC3 3098   8.470   3.113   4.065
  228POPC   PO4 3099   8.059   2.644   3.817
  228POPC   GL1 3100   7.992   2.746   4.232
  228POPC   GL2 3101   7.968   3.080   4.149
  228POPC   C1A 3102   8.137   2.734   4.689
  228POPC   D2A 3103   8.061   2.628   5.137
  228POPC   C3A 3104   8.418   2.613   5.423
  228POPC   C4A 3105   8.432   2.435   5.857
  228POPC   C1B 3106   7.800   3.092   4.576
  228POPC   C2B 3107   7.679   2.992   5.012
  228POPC   C3B 3108   7.684   2.829   5.450
  228POPC   C4B 3109   7.979   2.633   5.721
  229POPC   NC3 3110   5.952   2.875   3.955
  229POPC   PO4 3111   5.355   3.089   4.159
  229POPC   GL1 3112   5.704   2.916   4.414
  229POPC   GL2 3113   5.659   2.594   4.281
  229POPC   C1A 3114   5.921   2.852   4.855
  229POPC   D2A 3115   6.201   2.709   5.213
  229POPC   C3A 3116   6.085   2.928   5.602
  229POPC   C4A 3117   5.786   2.955   5.900
  229POPC   C1B 3118   5.755   2.410   4.659
  229POPC   C2B 3119   6.002   2.296   4.989
  229POPC   C3B 3120   5.950   2.310   5.444
  229POPC   C4B 3121   5.668   2.478   5.772
  230POPC   NC3 3122   1.312   6.043   3.877
  230POPC   PO4 3123   0.981   5.571   3.704
  230POPC   GL1 3124   1.023   5.788   4.183
  230POPC   GL2 3125   1.378   5.758   4.277
  230POPC   C1A 3126   1.063   6.044   4.614
  230POPC   D2A 3127   0.843   5.990   5.020
  230POPC   C3A 3128   1.017   6.040   5.422
  230POPC   C4A 3129   0.976   6.238   5.813
  230POPC   C1B 3130   1.258   5.590   4.678
  230POPC   C2B 3131   1.122   5.538   5.099
  230POPC   C3B 3132   1.318   5.568   5.475
  230POPC   C4B 3133   1.127   5.723   5.813
  231POPC   NC3 3134   4.938   8.542   4.017
  231POPC   PO4 3135   5.455   8.034   3.885
  231POPC   GL1 3136   5.308   8.271   4.282
  231POPC   GL2 3137   4.977   8.242   4.420
  231POPC   C1A 3138   5.363   8.468   4.723
  231POPC   D2A 3139   5.174   8.613   5.133
  231POPC   C3A 3140   5.249   8.527   5.581
  231POPC   C4A 3141   5.119   8.259   5.913
  231POPC   C1B 3142   4.988   8.160   4.874
  231POPC   C2B 3143   4.965   8.156   5.361
  231POPC   C3B 3144   4.852   7.875   5.719
  231POPC   C4B 3145   5.009   7.794   6.147
  232POPC   NC3 3146   7.182   1.874   3.626
  232POPC   PO4 3147   7.608   2.141   4.049
  232POPC   GL1 3148   7.591   2.063   4.431
  232POPC   GL2 3149   7.660   1.715   4.333
  232POPC   C1A 3150   7.324   2.012   4.803
  232POPC   D2A 3151   7.340   1.956   5.233
  232POPC   C3A 3152   6.986   2.091   5.524
  232POPC   C4A 3153   6.966   2.114   5.982
  232POPC   C1B 3154   7.787   1.768   4.777
  232POPC   C2B 3155   7.817   1.597   5.176
  232POPC   C3B 3156   7.735   1.763   5.558
  232POPC   C4B 3157   7.417   1.965   5.745
  233POPC   NC3 3158   0.482   0.913   3.891
  233POPC   PO4 3159   0.730   1.610   3.957
  233POPC   GL1 3160   0.536   1.279   4.250
  233POPC   GL2 3161   0.173   1.218   4.205
  233POPC   C1A 3162   0.496   1.012   4.659
  233POPC   D2A 3163   0.769   0.987   5.062
  233POPC   C3A 3164   0.744   0.870   5.518
  233POPC   C4A 3165   0.651   1.154   5.878
  233POPC   C1B 3166   0.202   1.432   4.617
  233POPC   C2B 3167   0.470   1.412   4.980
  233POPC   C3B 3168   0.437   1.300   5.412
  233POPC   C4B 3169   0.237   1.446   5.801
  234POPC   NC3 3170   3.000   3.670   3.996
  234POPC   PO4 3171   2.485   3.920   3.601
  234POPC   GL1 3172   2.423   3.800   4.100
  234POPC   GL2 3173   2.548   3.461   4.159
  234POPC   C1A 3174   2.566   3.838   4.590
  234POPC   D2A 3175   2.820   3.762   4.999
  234POPC   C3A 3176   2.638   3.699   5.438
  234POPC   C4A 3177   2.625   3.756   5.914
  234POPC   C1B 3178   2.786   3.382   4.566
  234POPC   C2B 3179   3.003   3.280   4.964
  234POPC   C3B 3180   3.039   3.391   5.401
  234POPC   C4B 3181   2.783   3.312   5.766
  235POPC   NC3 3182   0.301   3.209   3.896
  235POPC   PO4 3183   0.364   2.509   3.889
  235POPC   GL1 3184   0.228   2.820   4.234
  235POPC   GL2 3185   9.951   2.648   4.397
  235POPC   C1A 3186   0.249   2.955   4.703
  235POPC   D2A 3187   0.441   2.828   5.110
  235POPC   C3A 3188   0.264   2.771   5.541
  235POPC   C4A 3189   0.166   3.076   5.904
  235POPC   C1B 3190   0.013   2.498   4.847
  235POPC   C2B 3191   0.325   2.290   5.146
  235POPC   C3B 3192   0.704   2.460   5.372
  235POPC   C4B 3193   0.797   2.784   5.668
  236POPC   NC3 3194   1.901   1.255   4.039
  236POPC   PO4 3195   1.667   0.590   4.006
  236POPC   GL1 3196   1.894   0.816   4.350
  236POPC   GL2 3197   2.212   0.739   4.438
  236POPC   C1A 3198   1.918   0.946   4.810
  236POPC   D2A 3199   1.653   1.003   5.151
  236POPC   C3A 3200   1.778   0.766   5.486
  236POPC   C4A 3201   1.641   0.863   5.868
  236POPC   C1B 3202   2.259   1.211   4.581
  236POPC   C2B 3203   2.228   1.414   5.005
  236POPC   C3B 3204   2.141   1.505   5.442
  236POPC   C4B 3205   2.058   1.146   5.727
  237POPC   NC3 3206   2.713   9.792   3.935
  237POPC   PO4 3207   3.101   9.202   4.116
  237POPC   GL1 3208   2.911   9.413   4.496
  237POPC   GL2 3209   2.623   9.596   4.397
  237POPC   C1A 3210   2.702   9.509   4.915
  237POPC   D2A 3211   2.428   9.288   5.202
  237POPC   C3A 3212   2.511   9.309   5.621
  237POPC   C4A 3213   2.850   9.341   5.834
  237POPC   C1B 3214   2.868   9.908   4.634
  237POPC   C2B 3215   2.900   9.984   5.077
  237POPC   C3B 3216   2.647   9.756   5.396
  237POPC   C4B 3217   2.593   9.791   5.832
  238POPC   NC3 3218   7.798   4.419   3.951
  238POPC   PO4 3219   8.463   4.479   4.037
  238POPC   GL1 3220   8.156   4.394   4.322
  238POPC   GL2 3221   8.020   4.044   4.224
  238POPC   C1A 3222   8.287   4.506   4.732
  238POPC   D2A 3223   8.638   4.457   5.001
  238POPC   C3A 3224   8.446   4.456   5.390
  238POPC   C4A 3225   8.126   4.370   5.687
  238POPC   C1B 3226   8.140   3.896   4.655
  238POPC   C2B 3227   8.303   4.057   5.046
  238POPC   C3B 3228   8.425   3.938   5.469
  238POPC   C4B 3229   8.392   4.023   5.919
  239POPC   NC3 3230   9.622   6.701   3.937
  239POPC   PO4 3231   9.945   6.159   4.237
  239POPC   GL1 3232   9.714   6.520   4.416
  239POPC   GL2 3233   9.900   6.867   4.330
  239POPC   C1A 3234   9.491   6.483   4.822
  239POPC   D2A 3235   9.408   6.236   5.211
  239POPC   C3A 3236   9.552   6.423   5.606
  239POPC   C4A 3237   9.493   6.428   6.112
  239POPC   C1B 3238   9.723   6.949   4.725
  239POPC   C2B 3239   9.719   6.822   5.149
  239POPC   C3B 3240   9.825   7.005   5.533
  239POPC   C4B 3241   9.699   6.832   5.895
  240POPC   NC3 3242   5.623   0.979   4.080
  240POPC   PO4 3243   5.916   1.464   3.676
  240POPC   GL1 3244   5.847   1.484   4.202
  240POPC   GL2 3245   5.557   1.404   4.356
  240POPC   C1A 3246   5.929   1.341   4.678
  240POPC   D2A 3247   6.061   1.004   4.983
  240POPC   C3A 3248   5.839   1.041   5.385
  240POPC   C4A 3249   5.886   0.952   5.823
  240POPC   C1B 3250   5.447   1.543   4.769
  240POPC   C2B 3251   5.466   1.431   5.200
  240POPC   C3B 3252   5.640   1.469   5.614
  240POPC   C4B 3253   5.433   1.237   5.925
  241POPC   NC3 3254   2.132   0.542   3.955
  241POPC   PO4 3255   1.713   0.163   3.594
  241POPC   GL1 3256   1.729   0.110   4.111
  241POPC   GL2 3257   1.964   0.289   4.332
  241POPC   C1A 3258   1.681   9.992   4.578
  241POPC   D2A 3259   1.846   9.980   5.004
  241POPC   C3A 3260   1.681   0.269   5.331
  241POPC   C4A 3261   1.685   0.314   5.801
  241POPC   C1B 3262   1.881   0.435   4.748
  241POPC   C2B 3263   2.105   0.574   5.115
  241POPC   C3B 3264   2.312   0.629   5.518
  241POPC   C4B 3265   2.073   0.617   5.899
  242POPC   NC3 3266   6.485   3.255   3.487
  242POPC   PO4 3267   6.290   3.375   4.042
  242POPC   GL1 3268   6.554   3.192   4.380
  242POPC   GL2 3269   6.931   3.154   4.313
  242POPC   C1A 3270   6.368   3.113   4.785
  242POPC   D2A 3271   6.160   3.213   5.183
  242POPC   C3A 3272   6.440   3.319   5.534
  242POPC   C4A 3273   6.519   3.774   5.620
  242POPC   C1B 3274   6.891   3.292   4.768
  242POPC   C2B 3275   6.845   3.378   5.204
  242POPC   C3B 3276   6.958   3.421   5.626
  242POPC   C4B 3277   6.854   3.181   5.968
  243POPC   NC3 3278   3.489   0.402   3.775
  243POPC   PO4 3279   3.194   0.988   3.940
  243POPC   GL1 3280   3.467   0.719   4.234
  243POPC   GL2 3281   3.618   0.360   4.250
  243POPC   C1A 3282   3.472   0.563   4.687
  243POPC   D2A 3283   3.388   0.166   4.956
  243POPC   C3A 3284   3.232   0.231   5.401
  243POPC   C4A 3285   3.363   0.423   5.797
  243POPC   C1B 3286   3.857   0.250   4.633
  243POPC   C2B 3287   3.814   0.448   5.056
  243POPC   C3B 3288   3.755   0.291   5.457
  243POPC   C4B 3289   3.881   0.312   5.873
  244POPC   NC3 3290   8.720   1.724   3.940
  244POPC   PO4 3291   9.173   2.125   3.694
  244POPC   GL1 3292   9.176   2.123   4.261
  244POPC   GL2 3293   9.068   1.786   4.305
  244POPC   C1A 3294   8.931   2.245   4.715
  244POPC   D2A 3295   8.529   2.219   5.048
  244POPC   C3A 3296   8.633   2.122   5.511
  244POPC   C4A 3297   8.829   2.132   5.972
  244POPC   C1B 3298   9.267   1.855   4.695
  244POPC   C2B 3299   9.211   2.048   5.120
  244POPC   C3B 3300   9.072   1.852   5.523
  244POPC   C4B 3301   8.712   1.673   5.770
  245POPC   NC3 3302   0.339   9.858   4.005
  245POPC   PO4 3303   0.733   9.340   3.862
  245POPC   GL1 3304   0.625   9.466   4.275
  245POPC   GL2 3305   0.324   9.354   4.404
  245POPC   C1A 3306   0.661   9.539   4.745
  245POPC   D2A 3307   0.523   9.571   5.172
  245POPC   C3A 3308   0.798   9.369   5.485
  245POPC   C4A 3309   0.473   9.318   5.790
  245POPC   C1B 3310   0.162   9.614   4.775
  245POPC   C2B 3311   0.089   9.856   5.155
  245POPC   C3B 3312   0.280   9.806   5.564
  245POPC   C4B 3313   0.112   9.649   5.925
  246POPC   NC3 3314   7.321   8.744   3.933
  246POPC   PO4 3315   6.784   9.307   4.115
  246POPC   GL1 3316   7.158   9.114   4.313
  246POPC   GL2 3317   7.476   9.016   4.354
  246POPC   C1A 3318   7.137   8.889   4.713
  246POPC   D2A 3319   6.922   8.994   5.101
  246POPC   C3A 3320   7.163   8.940   5.484
  246POPC   C4A 3321   7.021   9.097   5.903
  246POPC   C1B 3322   7.649   8.942   4.776
  246POPC   C2B 3323   7.650   8.895   5.236
  246POPC   C3B 3324   7.550   8.572   5.560
  246POPC   C4B 3325   7.241   8.575   5.846
  247POPC   NC3 3326   5.706   7.643   3.949
  247POPC   PO4 3327   6.150   7.116   3.973
  247POPC   GL1 3328   6.081   7.450   4.307
  247POPC   GL2 3329   5.762   7.349   4.389
  247POPC   C1A 3330   5.932   7.644   4.754
  247POPC   D2A 3331   5.891   7.873   5.205
  247POPC   C3A 3332   5.884   7.722   5.632
  247POPC   C4A 3333   5.861   7.578   6.049
  247POPC   C1B 3334   6.067   7.162   4.740
  247POPC   C2B 3335   6.245   7.300   5.183
  247POPC   C3B 3336   6.171   7.263   5.659
  247POPC   C4B 3337   5.874   7.023   5.940
  248POPC   NC3 3338   2.738   0.904   3.813
  248POPC   PO4 3339   2.598   0.241   3.903
  248POPC   GL1 3340   2.926   0.546   4.151
  248POPC   GL2 3341   3.121   0.313   4.378
  248POPC   C1A 3342   3.047   0.803   4.560
  248POPC   D2A 3343   3.079   0.606   5.001
  248POPC   C3A 3344   2.875   0.721   5.389
  248POPC   C4A 3345   2.873   0.640   5.836
  248POPC   C1B 3346   2.736   0.398   4.645
  248POPC   C2B 3347   2.600   0.411   5.090
  248POPC   C3B 3348   2.704   0.250   5.520
  248POPC   C4B 3349   2.475   0.304   5.908
  249POPC   NC3 3350   8.822   6.733   3.918
  249POPC   PO4 3351   8.647   6.115   4.093
  249POPC   GL1 3352   8.749   6.511   4.363
  249POPC   GL2 3353   9.126   6.681   4.329
  249POPC   C1A 3354   8.779   6.684   4.764
  249POPC   D2A 3355   9.033   6.636   5.142
  249POPC   C3A 3356   8.927   6.332   5.449
  249POPC   C4A 3357   8.769   6.280   5.870
  249POPC   C1B 3358   9.223   6.897   4.703
  249POPC   C2B 3359   9.269   7.085   5.126
  249POPC   C3B 3360   9.328   6.902   5.530
  249POPC   C4B 3361   9.131   6.641   5.828
  250POPC   NC3 3362   4.837   9.530   3.904
  250POPC   PO4 3363   5.549   9.612   3.799
  250POPC   GL1 3364   5.349   9.571   4.263
  250POPC   GL2 3365   5.037   9.385   4.335
  250POPC   C1A 3366   5.381   9.681   4.717
  250POPC   D2A 3367   5.490   9.532   5.156
  250POPC   C3A 3368   5.279   9.766   5.495
  250POPC   C4A 3369   5.308   9.872   5.944
  250POPC   C1B 3370   4.765   9.369   4.717
  250POPC   C2B 3371   4.835   9.682   5.037
  250POPC   C3B 3372   4.737   9.776   5.456
  250POPC   C4B 3373   4.881   9.608   5.845
  251POPC   NC3 3374   7.194   1.898   4.144
  251POPC   PO4 3375   6.530   1.845   3.868
  251POPC   GL1 3376   6.624   1.822   4.265
  251POPC   GL2 3377   6.292   1.713   4.363
  251POPC   C1A 3378   6.823   1.698   4.660
  251POPC   D2A 3379   6.823   1.937   5.043
  251POPC   C3A 3380   6.703   1.683   5.392
  251POPC   C4A 3381   6.796   1.624   5.839
  251POPC   C1B 3382   6.385   1.961   4.756
  251POPC   C2B 3383   6.351   2.025   5.239
  251POPC   C3B 3384   6.490   2.028   5.701
  251POPC   C4B 3385   6.357   1.788   6.087
  252POPC   NC3 3386   1.574   2.024   3.845
  252POPC   PO4 3387   1.464   1.418   4.007
  252POPC   GL1 3388   1.427   1.769   4.327
  252POPC   GL2 3389   1.200   2.036   4.210
  252POPC   C1A 3390   1.311   1.819   4.805
  252POPC   D2A 3391   1.076   1.682   5.217
  252POPC   C3A 3392   1.246   1.733   5.664
  252POPC   C4A 3393   1.490   1.808   6.072
  252POPC   C1B 3394   1.205   2.312   4.565
  252POPC   C2B 3395   1.017   2.283   4.971
  252POPC   C3B 3396   1.200   2.173   5.356
  252POPC   C4B 3397   1.137   2.366   5.736
  253POPC   NC3 3398   0.154   3.654   4.010
  253POPC   PO4 3399   0.761   3.236   3.875
  253POPC   GL1 3400   0.641   3.200   4.310
  253POPC   GL2 3401   0.380   3.395   4.412
  253POPC   C1A 3402   0.695   3.223   4.765
  253POPC   D2A 3403   0.527   3.438   5.120
  253POPC   C3A 3404   0.481   3.224   5.487
  253POPC   C4A 3405   0.666   3.237   5.864
  253POPC   C1B 3406   0.400   3.732   4.725
  253POPC   C2B 3407   0.166   3.795   5.110
  253POPC   C3B 3408   0.296   3.712   5.510
  253POPC   C4B 3409   0.325   3.605   5.917
  254POPC   NC3 3410   3.912   9.729   3.580
  254POPC   PO4 3411   4.380   9.411   3.792
  254POPC   GL1 3412   4.484   9.351   4.239
  254POPC   GL2 3413   4.594   9.696   4.362
  254POPC   C1A 3414   4.240   9.442   4.641
  254POPC   D2A 3415   4.324   9.602   5.093
  254POPC   C3A 3416   4.095   9.361   5.451
  254POPC   C4A 3417   3.828   9.519   5.806
  254POPC   C1B 3418   4.280   9.946   4.662
  254POPC   C2B 3419   4.036   0.005   5.076
  254POPC   C3B 3420   4.083   9.890   5.528
  254POPC   C4B 3421   4.369   9.637   5.801
  255POPC   NC3 3422   2.640   9.155   4.148
  255POPC   PO4 3423   2.699   8.543   3.872
  255POPC   GL1 3424   2.584   8.644   4.282
  255POPC   GL2 3425   2.902   8.781   4.419
  255POPC   C1A 3426   2.442   8.647   4.709
  255POPC   D2A 3427   2.380   8.484   5.150
  255POPC   C3A 3428   2.460   8.819   5.432
  255POPC   C4A 3429   2.810   8.853   5.706
  255POPC   C1B 3430   2.773   9.021   4.791
  255POPC   C2B 3431   2.886   9.050   5.201
  255POPC   C3B 3432   3.156   8.721   5.317
  255POPC   C4B 3433   3.231   8.566   5.732
  256POPC   NC3 3434   0.322   9.070   3.891
  256POPC   PO4 3435   0.944   8.731   4.055
  256POPC   GL1 3436   0.648   8.939   4.262
  256POPC   GL2 3437   0.417   8.685   4.231
  256POPC   C1A 3438   0.511   8.973   4.674
  256POPC   D2A 3439   0.702   9.103   5.027
  256POPC   C3A 3440   0.550   8.941   5.394
  256POPC   C4A 3441   0.726   8.864   5.789
  256POPC   C1B 3442   0.134   8.622   4.607
  256POPC   C2B 3443   0.228   8.693   5.033
  256POPC   C3B 3444   0.053   8.811   5.414
  256POPC   C4B 3445   0.182   8.926   5.822
  257POPC   NC3 3446   6.358   1.348   3.835
  257POPC   PO4 3447   6.790   0.775   3.889
  257POPC   GL1 3448   6.876   1.069   4.231
  257POPC   GL2 3449   6.625   1.307   4.264
  257POPC   C1A 3450   6.930   1.183   4.680
  257POPC   D2A 3451   6.984   1.011   5.116
  257POPC   C3A 3452   6.831   1.207   5.486
  257POPC   C4A 3453   6.548   1.067   5.794
  257POPC   C1B 3454   6.438   1.326   4.646
  257POPC   C2B 3455   6.537   1.296   5.065
  257POPC   C3B 3456   6.284   1.342   5.441
  257POPC   C4B 3457   6.153   1.378   5.871
  258POPC   NC3 3458   5.185   1.421   3.620
  258POPC   PO4 3459   4.787   0.916   3.902
  258POPC   GL1 3460   5.130   0.995   4.265
  258POPC   GL2 3461   4.951   1.204   4.459
  258POPC   C1A 3462   5.401   1.033   4.663
  258POPC   D2A 3463   5.430   0.944   5.088
  258POPC   C3A 3464   5.067   0.999   5.328
  258POPC   C4A 3465   4.961   1.014   5.765
  258POPC   C1B 3466   5.012   1.280   4.879
  258POPC   C2B 3467   4.860   1.456   5.243
  258POPC   C3B 3468   5.115   1.466   5.602
  258POPC   C4B 3469   4.963   1.446   6.071
  259POPC   NC3 3470   6.459   7.462   3.941
  259POPC   PO4 3471   7.100   7.428   3.975
  259POPC   GL1 3472   7.084   7.437   4.418
  259POPC   GL2 3473   6.767   7.539   4.360
  259POPC   C1A 3474   6.993   7.367   4.849
  259POPC   D2A 3475   6.759   7.524   5.191
  259POPC   C3A 3476   6.716   7.366   5.601
  259POPC   C4A 3477   6.934   7.001   5.715
  259POPC   C1B 3478   6.462   7.489   4.670
  259POPC   C2B 3479   6.357   7.763   4.995
  259POPC   C3B 3480   6.363   7.741   5.455
  259POPC   C4B 3481   6.371   7.665   5.909
  260POPC   NC3 3482   6.053   1.828   3.906
  260POPC   PO4 3483   6.063   2.402   4.007
  260POPC   GL1 3484   5.924   2.077   4.329
  260POPC   GL2 3485   5.603   1.918   4.357
  260POPC   C1A 3486   5.898   1.847   4.751
  260POPC   D2A 3487   5.787   1.828   5.198
  260POPC   C3A 3488   6.029   1.820   5.596
  260POPC   C4A 3489   6.039   2.146   5.929
  260POPC   C1B 3490   5.423   2.048   4.788
  260POPC   C2B 3491   5.498   2.249   5.197
  260POPC   C3B 3492   5.524   2.014   5.619
  260POPC   C4B 3493   5.332   1.768   5.945
  261POPC   NC3 3494   0.691   8.299   4.016
  261POPC   PO4 3495   0.184   7.821   3.906
  261POPC   GL1 3496   0.453   7.884   4.252
  261POPC   GL2 3497   0.295   8.200   4.337
  261POPC   C1A 3498   0.515   7.931   4.705
  261POPC   D2A 3499   0.261   8.179   5.011
  261POPC   C3A 3500   0.223   8.024   5.452
  261POPC   C4A 3501   0.402   8.079   5.889
  261POPC   C1B 3502   0.590   8.445   4.657
  261POPC   C2B 3503   0.697   8.506   5.101
  261POPC   C3B 3504   0.489   8.457   5.531
  261POPC   C4B 3505   0.078   8.439   5.769
  262POPC   NC3 3506   9.932   8.219   3.914
  262POPC   PO4 3507   9.392   7.831   3.807
  262POPC   GL1 3508   9.566   7.993   4.194
  262POPC   GL2 3509   9.879   7.838   4.301
  262POPC   C1A 3510   9.455   7.871   4.645
  262POPC   D2A 3511   9.670   7.918   5.057
  262POPC   C3A 3512   9.470   7.908   5.486
  262POPC   C4A 3513   9.719   7.826   5.883
  262POPC   C1B 3514   9.849   8.192   4.593
  262POPC   C2B 3515   9.807   8.421   4.960
  262POPC   C3B 3516   9.786   8.332   5.374
  262POPC   C4B 3517   9.596   8.308   5.783
  263POPC   NC3 3518   9.615   0.596   4.033
  263POPC   PO4 3519   0.054   0.118   3.726
  263POPC   GL1 3520   9.884   0.174   4.201
  263POPC   GL2 3521   9.570   0.277   4.421
  263POPC   C1A 3522   9.978   0.129   4.662
  263POPC   D2A 3523   9.826   0.321   5.077
  263POPC   C3A 3524   9.977   0.245   5.534
  263POPC   C4A 3525   0.042   0.413   6.000
  263POPC   C1B 3526   9.514   0.703   4.661
  263POPC   C2B 3527   9.408   0.713   5.088
  263POPC   C3B 3528   9.691   0.694   5.430
  263POPC   C4B 3529   9.589   0.464   5.803
  264POPC   NC3 3530   4.329   8.956   3.882
  264POPC   PO4 3531   4.562   8.333   3.796
  264POPC   GL1 3532   4.476   8.604   4.233
  264POPC   GL2 3533   4.117   8.659   4.336
  264POPC   C1A 3534   4.447   8.969   4.581
  264POPC   D2A 3535   4.301   9.109   5.011
  264POPC   C3A 3536   4.599   9.258   5.353
  264POPC   C4A 3537   4.585   9.129   5.773
  264POPC   C1B 3538   4.193   8.627   4.835
  264POPC   C2B 3539   4.259   8.678   5.291
  264POPC   C3B 3540   4.164   8.856   5.676
  264POPC   C4B 3541   3.984   8.768   6.092
  265POPC   NC3 3542   8.391   5.833   3.851
  265POPC   PO4 3543   7.797   5.829   3.965
  265POPC   GL1 3544   8.106   5.738   4.315
  265POPC   GL2 3545   8.475   5.721   4.352
  265POPC   C1A 3546   8.199   5.692   4.793
  265POPC   D2A 3547   8.265   5.690   5.256
  265POPC   C3A 3548   7.971   5.876   5.591
  265POPC   C4A 3549   7.571   6.120   5.736
  265POPC   C1B 3550   8.558   6.048   4.720
  265POPC   C2B 3551   8.675   5.978   5.151
  265POPC   C3B 3552   8.447   6.095   5.525
  265POPC   C4B 3553   8.381   5.899   5.929
  266POPC   NC3 3554   8.755   0.380   3.781
  266POPC   PO4 3555   9.344   0.237   3.970
  266POPC   GL1 3556   9.071   0.475   4.210
  266POPC   GL2 3557   8.739   0.311   4.293
  266POPC   C1A 3558   9.123   0.405   4.624
  266POPC   D2A 3559   9.350   0.173   4.917
  266POPC   C3A 3560   9.354   0.267   5.369
  266POPC   C4A 3561   9.102   0.472   5.683
  266POPC   C1B 3562   8.650   0.550   4.694
  266POPC   C2B 3563   8.895   0.492   5.061
  266POPC   C3B 3564   8.713   0.373   5.399
  266POPC   C4B 3565   8.530   0.623   5.655
  267POPC   NC3 3566   6.541   2.329   3.893
  267POPC   PO4 3567   6.286   2.856   3.629
  267POPC   GL1 3568   6.413   2.779   4.119
  267POPC   GL2 3569   6.735   2.662   4.245
  267POPC   C1A 3570   6.310   2.628   4.584
  267POPC   D2A 3571   6.563   2.409   4.930
  267POPC   C3A 3572   6.613   2.444   5.390
  267POPC   C4A 3573   6.328   2.514   5.733
  267POPC   C1B 3574   6.778   2.812   4.677
  267POPC   C2B 3575   6.673   2.895   5.120
  267POPC   C3B 3576   6.770   2.912   5.543
  267POPC   C4B 3577   6.797   2.602   5.885
  268POPC   NC3 3578   1.093   9.209   4.118
  268POPC   PO4 3579   1.581   9.436   3.669
  268POPC   GL1 3580   1.581   9.156   4.183
  268POPC   GL2 3581   1.391   8.836   4.339
  268POPC   C1A 3582   1.420   9.206   4.659
  268POPC   D2A 3583   1.182   9.280   5.000
  268POPC   C3A 3584   1.416   9.238   5.368
  268POPC   C4A 3585   1.212   9.051   5.697
  268POPC   C1B 3586   1.099   8.796   4.730
  268POPC   C2B 3587   1.087   8.823   5.194
  268POPC   C3B 3588   1.011   8.553   5.512
  268POPC   C4B 3589   1.219   8.575   5.874
  269POPC   NC3 3590   1.727   2.713   3.949
  269POPC   PO4 3591   2.348   2.446   3.816
  269POPC   GL1 3592   2.195   2.463   4.260
  269POPC   GL2 3593   2.165   2.807   4.246
  269POPC   C1A 3594   2.254   2.560   4.749
  269POPC   D2A 3595   2.388   2.628   5.229
  269POPC   C3A 3596   2.181   2.529   5.633
  269POPC   C4A 3597   2.342   2.413   6.082
  269POPC   C1B 3598   1.989   2.998   4.624
  269POPC   C2B 3599   2.002   2.924   5.071
  269POPC   C3B 3600   1.973   2.978   5.511
  269POPC   C4B 3601   1.748   3.169   5.818
  270POPC   NC3 3602   0.563   6.577   3.930
  270POPC   PO4 3603   0.212   6.088   3.707
  270POPC   GL1 3604   0.438   6.151   4.158
  270POPC   GL2 3605   0.295   6.507   4.347
  270POPC   C1A 3606   0.566   6.179   4.608
  270POPC   D2A 3607   0.591   6.472   4.976
  270POPC   C3A 3608   0.660   6.430   5.432
  270POPC   C4A 3609   0.472   6.351   5.865
  270POPC   C1B 3610   0.093   6.526   4.776
  270POPC   C2B 3611   0.124   6.468   5.229
  270POPC   C3B 3612   0.236   6.709   5.591
  270POPC   C4B 3613   0.193   6.836   6.026
  271POPC   NC3 3614   9.807   7.475   3.891
  271POPC   PO4 3615   9.281   7.035   3.961
  271POPC   GL1 3616   9.428   7.166   4.326
  271POPC   GL2 3617   9.446   7.505   4.251
  271POPC   C1A 3618   9.302   7.391   4.728
  271POPC   D2A 3619   9.240   7.623   5.108
  271POPC   C3A 3620   9.265   7.420   5.524
  271POPC   C4A 3621   9.528   7.310   5.895
  271POPC   C1B 3622   9.777   7.447   4.595
  271POPC   C2B 3623   9.709   7.372   5.055
  271POPC   C3B 3624   9.792   7.511   5.476
  271POPC   C4B 3625   0.037   7.367   5.863
  272POPC   NC3 3626   7.021   0.373   3.978
  272POPC   PO4 3627   7.561   0.645   4.227
  272POPC   GL1 3628   7.177   0.661   4.374
  272POPC   GL2 3629   7.116   0.277   4.464
  272POPC   C1A 3630   7.001   0.671   4.747
  272POPC   D2A 3631   7.039   0.332   5.000
  272POPC   C3A 3632   7.185   0.321   5.401
  272POPC   C4A 3633   7.068   0.317   5.851
  272POPC   C1B 3634   7.491   0.304   4.758
  272POPC   C2B 3635   7.882   0.218   4.975
  272POPC   C3B 3636   7.730   0.181   5.384
  272POPC   C4B 3637   7.550   0.483   5.701
  273POPC   NC3 3638   9.627   9.897   3.866
  273POPC   PO4 3639   0.014   9.416   4.019
  273POPC   GL1 3640   9.884   9.675   4.374
  273POPC   GL2 3641   9.576   9.757   4.351
  273POPC   C1A 3642   9.676   9.778   4.840
  273POPC   D2A 3643   9.443   9.752   5.224
  273POPC   C3A 3644   9.737   9.749   5.553
  273POPC   C4A 3645   9.720   9.986   5.925
  273POPC   C1B 3646   9.513   9.361   4.631
  273POPC   C2B 3647   9.662   9.286   5.076
  273POPC   C3B 3648   9.430   9.292   5.481
  273POPC   C4B 3649   9.322   9.625   5.838
  274POPC   NC3 3650   0.580   2.067   3.946
  274POPC   PO4 3651   0.577   2.491   4.406
  274POPC   GL1 3652   0.712   2.057   4.450
  274POPC   GL2 3653   0.450   1.796   4.356
  274POPC   C1A 3654   0.734   1.836   4.839
  274POPC   D2A 3655   0.557   1.825   5.270
  274POPC   C3A 3656   0.777   2.021   5.607
  274POPC   C4A 3657   0.669   2.338   5.965
  274POPC   C1B 3658   0.212   1.950   4.701
  274POPC   C2B 3659   0.058   1.718   5.042
  274POPC   C3B 3660   0.077   1.786   5.455
  274POPC   C4B 3661   0.248   2.144   5.692
  275POPC   NC3 3662   9.566   1.061   3.745
  275POPC   PO4 3663   8.986   0.788   3.773
  275POPC   GL1 3664   9.286   0.952   4.175
  275POPC   GL2 3665   9.656   1.062   4.244
  275POPC   C1A 3666   9.340   1.241   4.588
  275POPC   D2A 3667   9.592   1.182   4.958
  275POPC   C3A 3668   9.399   1.189   5.365
  275POPC   C4A 3669   9.386   0.940   5.751
  275POPC   C1B 3670   9.940   0.988   4.601
  275POPC   C2B 3671   0.094   1.058   5.035
  275POPC   C3B 3672   9.912   1.279   5.406
  275POPC   C4B 3673   9.769   1.254   5.853
  276POPC   NC3 3674   3.668   1.160   3.944
  276POPC   PO4 3675   3.191   1.673   4.102
  276POPC   GL1 3676   3.437   1.557   4.453
  276POPC   GL2 3677   3.348   1.232   4.350
  276POPC   C1A 3678   3.559   1.489   4.911
  276POPC   D2A 3679   3.296   1.560   5.317
  276POPC   C3A 3680   3.461   1.391   5.721
  276POPC   C4A 3681   3.269   1.378   6.148
  276POPC   C1B 3682   3.634   1.051   4.598
  276POPC   C2B 3683   3.671   0.933   5.004
  276POPC   C3B 3684   3.477   0.720   5.362
  276POPC   C4B 3685   3.721   0.782   5.724
  277POPC   NC3 3686   2.387   2.912   3.776
  277POPC   PO4 3687   3.016   3.187   3.882
  277POPC   GL1 3688   2.715   2.973   4.153
  277POPC   GL2 3689   2.698   2.619   4.132
  277POPC   C1A 3690   2.530   2.949   4.562
  277POPC   D2A 3691   2.768   2.809   4.912
  277POPC   C3A 3692   2.739   2.990   5.314
  277POPC   C4A 3693   2.477   2.932   5.664
  277POPC   C1B 3694   2.700   2.441   4.534
  277POPC   C2B 3695   2.673   2.302   4.959
  277POPC   C3B 3696   2.899   2.486   5.312
  277POPC   C4B 3697   2.728   2.488   5.717
  278POPC   NC3 3698   0.526   0.403   3.821
  278POPC   PO4 3699   9.978   0.874   3.866
  278POPC   GL1 3700   0.167   0.638   4.250
  278POPC   GL2 3701   0.365   0.293   4.296
  278POPC   C1A 3702   0.215   0.574   4.728
  278POPC   D2A 3703   0.397   0.627   5.158
  278POPC   C3A 3704   0.233   0.729   5.584
  278POPC   C4A 3705   0.514   0.606   5.947
  278POPC   C1B 3706   0.473   0.037   4.670
  278POPC   C2B 3707   0.550   0.104   5.123
  278POPC   C3B 3708   0.493   0.266   5.566
  278POPC   C4B 3709   0.421   0.084   6.023
  279POPC   NC3 3710   4.093   2.707   3.945
  279POPC   PO4 3711   4.568   2.283   3.911
  279POPC   GL1 3712   4.549   2.627   4.199
  279POPC   GL2 3713   4.345   2.914   4.301
  279POPC   C1A 3714   4.557   2.624   4.669
  279POPC   D2A 3715   4.287   2.584   5.033
  279POPC   C3A 3716   4.445   2.379   5.386
  279POPC   C4A 3717   4.673   2.370   5.789
  279POPC   C1B 3718   4.084   2.892   4.674
  279POPC   C2B 3719   3.835   2.838   5.072
  279POPC   C3B 3720   3.843   2.667   5.498
  279POPC   C4B 3721   4.147   2.478   5.793
  280POPC   NC3 3722   4.274   1.942   3.797
  280POPC   PO4 3723   4.851   1.725   3.720
  280POPC   GL1 3724   4.651   1.855   4.174
  280POPC   GL2 3725   4.626   2.167   4.391
  280POPC   C1A 3726   4.400   1.772   4.575
  280POPC   D2A 3727   4.482   2.087   4.909
  280POPC   C3A 3728   4.576   1.896   5.280
  280POPC   C4A 3729   4.393   1.947   5.691
  280POPC   C1B 3730   4.183   2.293   4.549
  280POPC   C2B 3731   3.948   2.234   4.961
  280POPC   C3B 3732   3.964   2.158   5.417
  280POPC   C4B 3733   3.919   2.035   5.860
  281POPC   NC3 3734   3.577   9.337   4.101
  281POPC   PO4 3735   3.536   9.936   3.740
  281POPC   GL1 3736   3.596   9.847   4.206
  281POPC   GL2 3737   3.297   9.739   4.382
  281POPC   C1A 3738   3.770   9.715   4.641
  281POPC   D2A 3739   3.784   9.533   5.063
  281POPC   C3A 3740   3.569   9.795   5.371
  281POPC   C4A 3741   3.541   9.943   5.801
  281POPC   C1B 3742   3.271   9.644   4.853
  281POPC   C2B 3743   3.104   9.552   5.270
  281POPC   C3B 3744   3.091   9.760   5.673
  281POPC   C4B 3745   3.051   9.694   6.145
  282POPC   NC3 3746   8.698   5.009   3.524
  282POPC   PO4 3747   8.913   5.321   4.078
  282POPC   GL1 3748   9.128   5.368   4.430
  282POPC   GL2 3749   9.160   5.036   4.433
  282POPC   C1A 3750   9.221   5.345   4.868
  282POPC   D2A 3751   9.137   5.092   5.217
  282POPC   C3A 3752   9.126   5.348   5.571
  282POPC   C4A 3753   8.943   5.299   5.982
  282POPC   C1B 3754   8.814   5.040   4.775
  282POPC   C2B 3755   8.665   4.914   5.202
  282POPC   C3B 3756   8.777   4.974   5.628
  282POPC   C4B 3757   8.694   4.876   6.120
  283POPC   NC3 3758   3.561   6.610   3.956
  283POPC   PO4 3759   3.033   6.230   3.968
  283POPC   GL1 3760   3.300   6.377   4.345
  283POPC   GL2 3761   3.503   6.688   4.470
  283POPC   C1A 3762   3.311   6.345   4.797
  283POPC   D2A 3763   3.160   6.527   5.185
  283POPC   C3A 3764   3.236   6.420   5.621
  283POPC   C4A 3765   3.322   6.400   6.070
  283POPC   C1B 3766   3.548   6.787   4.943
  283POPC   C2B 3767   3.430   6.903   5.395
  283POPC   C3B 3768   3.620   6.777   5.799
  283POPC   C4B 3769   3.803   6.595   6.194
  284POPC   NC3 3770   1.119   9.540   3.693
  284POPC   PO4 3771   0.788   0.046   3.954
  284POPC   GL1 3772   0.896   9.889   4.377
  284POPC   GL2 3773   1.096   9.576   4.521
  284POPC   C1A 3774   0.960   9.980   4.798
  284POPC   D2A 3775   0.989   9.729   5.142
  284POPC   C3A 3776   0.824   9.880   5.490
  284POPC   C4A 3777   0.734   9.732   5.853
  284POPC   C1B 3778   1.405   9.706   4.861
  284POPC   C2B 3779   1.460   9.772   5.318
  284POPC   C3B 3780   1.241   9.619   5.720
  284POPC   C4B 3781   1.304   9.566   6.198
  285POPC   NC3 3782   4.399   0.805   3.672
  285POPC   PO4 3783   3.809   0.733   3.806
  285POPC   GL1 3784   4.042   0.631   4.214
  285POPC   GL2 3785   4.422   0.681   4.220
  285POPC   C1A 3786   4.063   0.731   4.690
  285POPC   D2A 3787   4.302   0.616   5.102
  285POPC   C3A 3788   4.166   0.624   5.552
  285POPC   C4A 3789   4.179   0.718   6.039
  285POPC   C1B 3790   4.536   0.470   4.647
  285POPC   C2B 3791   4.573   0.161   5.020
  285POPC   C3B 3792   4.488   0.230   5.454
  285POPC   C4B 3793   4.358   0.180   5.880
  286POPC   NC3 3794   2.277   8.316   3.845
  286POPC   PO4 3795   1.716   8.701   3.963
  286POPC   GL1 3796   1.854   8.482   4.338
  286POPC   GL2 3797   2.016   8.156   4.364
  286POPC   C1A 3798   1.978   8.455   4.788
  286POPC   D2A 3799   1.834   8.376   5.203
  286POPC   C3A 3800   2.025   8.566   5.563
  286POPC   C4A 3801   2.113   8.618   6.021
  286POPC   C1B 3802   1.781   7.982   4.768
  286POPC   C2B 3803   1.685   7.884   5.213
  286POPC   C3B 3804   1.730   7.845   5.640
  286POPC   C4B 3805   2.071   8.090   5.769
  287W        W 3806   8.802   1.885   0.252
  288W        W 3807   4.554   0.976  10.751
  289W        W 3808   8.962   1.364   2.258
  290W        W 3809   0.014   7.993   1.677
  291W        W 3810   8.846   3.426   9.149
  292W        W 3811   7.144   7.379   9.527
  293W        W 3812   0.703   0.182   0.937
  294W        W 3813   3.481   7.661  11.200
  295W        W 3814   1.669   8.398   1.937
  296W        W 3815   8.635   1.744   3.318
  297W        W 3816   6.933   2.020  11.727
  298W        W 3817   2.167   0.761   8.948
  299W        W 3818   7.887   3.973   3.649
  300W        W 3819   4.567   3.672   8.935
  301W        W 3820   1.211   0.970   9.538
  302W        W 3821   5.614   6.328   2.434
  303W        W 3822   6.731   9.080  11.841
  304W        W 3823   8.690   2.638   2.448
  305W        W 3824   6.200   8.222   9.241
  306W        W 3825   4.653   6.797   9.492
  307W        W 3826   4.004   6.734   3.644
  308W        W 3827   5.137   4.624   0.944
  309W        W 3828   0.435   8.534   2.599
  310W        W 3829   7.292   5.994   1.942
  311W        W 3830   8.098   6.344  10.497
  312W        W 3831   4.491   1.860   0.438
  313W        W 3832   6.144   2.709  10.919
  314W        W 3833   2.718   3.214   3.478
  315W        W 3834   6.469   3.014  11.848
  316W        W 3835   7.020   6.959   2.737
  317W        W 3836   8.266   2.022   3.559
  318W        W 3837   5.485   0.551   1.683
  319W        W 3838   4.926   5.206  10.484
  320W        W 3839   2.762   4.717   9.487
  321W        W 3840   5.450   2.274  11.424
  322W        W 3841   2.276   9.325  10.381
  323W        W 3842   9.289   8.880   3.742
  324W        W 3843   3.687   0.536   3.305
  325W        W 3844   6.376   8.388   1.270
  326W        W 3845   8.750   4.498  11.072
  327W        W 3846   4.576   4.167  11.807
  328W        W 3847   9.510   0.670   9.546
  329W        W 3848   5.231   6.598  11.824
  330W        W 3849   8.674   2.277   3.294
  331W        W 3850   6.976   9.235   9.984
  332W        W 3851   3.339   4.622   0.928
  333W        W 3852   9.280   5.202   9.607
  334W        W 3853   5.870   7.987   3.591
  335W        W 3854   2.668   6.927   3.338
  336W        W 3855   2.645   6.661   9.562
  337W        W 3856   5.248   1.244   2.328
  338W        W 3857   1.410   2.097  10.570
  339W        W 3858   4.594   5.097   9.501
  340W        W 3859   0.453   5.928   1.679
  341W        W 3860   8.337   8.499   8.791
  342W        W 3861   6.902   2.793   0.118
  343W        W 3862   3.560   9.101   0.332
  344W        W 3863   4.057   1.872   9.466
  345W        W 3864   1.573   5.178   3.485
  346W        W 3865   0.362   3.430   2.231
  347W        W 3866   9.462   6.265   0.280
  348W        W 3867   3.098   4.746   8.648
  349W        W 3868   3.389   4.232   2.871
  350W        W 3869   2.901   0.432  11.523
  351W        W 3870   5.374   9.885   9.680
  352W        W 3871   8.017   2.397   0.487
  353W        W 3872   4.690   7.745   8.491
  354W        W 3873   4.723   0.917   0.695
  355W        W 3874   9.933   3.327  10.443
  356W        W 3875   9.362   0.603  10.043
  357W        W 3876   5.079   3.314   9.539
  358W        W 3877   7.285   3.626   9.718
  359W        W 3878   0.868   7.486   0.188
  360W        W 3879   3.066   4.139   1.744
  361W        W 3880   8.971   7.372  10.007
  362W        W 3881   0.343   0.879   8.863
  363W        W 3882   3.559   2.370  10.910
  364W        W 3883   4.718   5.189   2.969
  365W        W 3884   9.385   8.504   1.289
  366W        W 3885   1.410   3.572  11.541
  367W        W 3886   4.894   7.069   9.128
  368W        W 3887   0.128   1.072   8.433
  369W        W 3888   4.740   7.844   1.876
  370W        W 3889   9.491   9.653  11.207
  371W        W 3890   5.998   3.268   2.418
  372W        W 3891   5.522   1.741  10.786
  373W        W 3892   5.478   9.862   1.448
  374W        W 3893   2.274   3.975  11.471
  375W        W 3894   4.524   5.070   0.061
  376W        W 3895   2.639   2.204   9.247
  377W        W 3896   2.590   1.084   2.437
  378W        W 3897   5.992   8.131   1.027
  379W        W 3898   2.197   7.928  11.592
  380W        W 3899   4.608   6.128   0.304
  381W        W 3900   8.433   0.195   0.203
  382W        W 3901   3.671   3.400   2.650
  383W        W 3902   2.344   8.088   1.317
  384W        W 3903   3.947   6.380   1.342
  385W        W 3904   7.129   4.692  11.045
  386W        W 3905   9.636   2.389   9.694
  387W        W 3906   4.184   9.916   8.675
  388W        W 3907   6.889   1.486   2.733
  389W        W 3908   4.752   2.655   8.481
  390W        W 3909   3.554   8.093   9.808
  391W        W 3910   9.298   7.594   1.301
  392W        W 3911   1.167   7.313   1.492
  393W        W 3912   3.960   2.785   8.573
  394W        W 3913   2.415   1.560  11.306
  395W        W 3914   8.724   4.837   0.485
  396W        W 3915   2.515   2.489   8.775
  397W        W 3916   0.583   9.594  11.545
  398W        W 3917   7.923   9.891  11.403
  399W        W 3918   1.873   2.973   9.918
  400W        W 3919   5.246   2.678  11.199
  401W        W 3920   0.400   8.653  11.159
  402W        W 3921   5.025   5.628   8.793
  403W        W 3922   2.691   8.080   3.007
  404W        W 3923   0.359   3.239   1.110
  405W        W 3924   3.853   4.610  11.083
  406W        W 3925   1.672   0.471  10.589
  407W        W 3926   6.733   4.748   8.696
  408W        W 3927   4.816   2.417   1.093
  409W        W 3928   7.960   5.167   2.485
  410W        W 3929   4.113   6.139   0.173
  411W        W 3930   8.484   2.110   9.250
  412W        W 3931   6.057   7.469   3.584
  413W        W 3932   5.568   7.338  10.222
  414W        W 3933   2.733   6.630   9.004
  415W        W 3934   8.020   2.390  11.970
  416W        W 3935   3.224   3.083   9.535
  417W        W 3936   5.079   4.495   0.368
  418W        W 3937   8.790   1.649   1.265
  419W        W 3938   0.282   4.572   3.177
  420W        W 3939   1.892   5.356   2.707
  421W        W 3940   2.900   2.570   0.700
  422W        W 3941   3.671   3.977   9.027
  423W        W 3942   0.376   5.505   9.465
  424W        W 3943   4.256   2.842   2.594
  425W        W 3944   1.787   2.541   0.165
  426W        W 3945   5.468   0.117   9.224
  427W        W 3946   1.907   4.245   8.825
  428W        W 3947   2.860   7.652   3.243
  429W        W 3948   3.265   8.587   9.044
  430W        W 3949   6.553   5.164   8.439
  431W        W 3950   9.459   2.948   3.751
  432W        W 3951   9.776   7.781   0.690
  433W        W 3952   3.051   2.256   2.022
  434W        W 3953   0.471   7.466  11.850
  435W        W 3954   8.361   0.697   8.971
  436W        W 3955   4.946   3.571   0.302
  437W        W 3956   8.801   8.979  11.190
  438W        W 3957   4.214   9.975   3.222
  439W        W 3958   6.162   7.572   2.579
  440W        W 3959   3.579   3.662   1.185
  441W        W 3960   2.081   7.420   1.969
  442W        W 3961   6.175   1.428   1.862
  443W        W 3962   8.128   7.388   9.717
  444W        W 3963   9.698   2.934   0.931
  445W        W 3964   2.869   0.936   2.826
  446W        W 3965   8.039   5.569  11.463
  447W        W 3966   7.107   6.725   0.863
  448W        W 3967   9.202   7.418  11.484
  449W        W 3968   7.966   1.650   0.839
  450W        W 3969   6.878   9.532   0.174
  451W        W 3970   0.705   6.624   0.009
  452W        W 3971   4.242   2.056   0.894
  453W        W 3972   8.474   1.469   2.907
  454W        W 3973   2.241   8.079   2.295
  455W        W 3974   1.785   4.946   8.248
  456W        W 3975   9.801   3.657   3.105
  457W        W 3976   6.474   8.347  10.758
  458W        W 3977   3.997   6.189   0.856
  459W        W 3978   4.013   5.139   1.554
  460W        W 3979   8.497   4.631  10.091
  461W        W 3980   8.330   3.626   9.106
  462W        W 3981   3.299   1.999   0.883
  463W        W 3982   5.465   7.490  11.618
  464W        W 3983   0.850   4.526   9.198
  465W        W 3984   6.955   1.271  11.898
  466W        W 3985   0.543   4.423   0.905
  467W        W 3986   9.564   1.879   9.554
  468W        W 3987   8.926   7.042  10.439
  469W        W 3988   0.013   1.213   9.046
  470W        W 3989   5.187   3.501  11.870
  471W        W 3990   9.053   9.067   8.968
  472W        W 3991   3.197   7.372  11.508
  473W        W 3992   1.390   1.387  11.407
  474W        W 3993   1.766   6.021   3.309
  475W        W 3994   4.464   4.534   2.758
  476W        W 3995   9.398   7.704   9.960
  477W        W 3996   9.853   6.084   8.916
  478W        W 3997   6.622   2.143  10.407
  479W        W 3998   7.080   7.958  11.312
  480W        W 3999   7.538   2.589  11.889
  481W        W 4000   6.644   4.305   3.638
  482W        W 4001   7.295   5.666   2.609
  483W        W 4002   4.134   5.708   1.000
  484W        W 4003   0.533   2.717  10.758
  485W        W 4004   6.132   3.201   0.729
  486W        W 4005   8.581   1.080   0.072
  487W        W 4006   6.454   6.821   2.075
  488W        W 4007   6.649   9.756   0.932
  489W        W 4008   8.565   0.587  10.510
  490W        W 4009   0.735   8.423   8.931
  491W        W 4010   1.632   1.461   1.763
  492W        W 4011   5.444   6.625  11.329
  493W        W 4012   5.244   3.000   1.661
  494W        W 4013   6.673   0.003   9.950
  495W        W 4014   3.967   7.929   0.226
  496W        W 4015   4.142   1.692  11.635
  497W        W 4016   7.307   0.357   9.179
  498W        W 4017   6.939   4.147   9.346
  499W        W 4018   3.872   1.762   1.400
  500W        W 4019   2.305   4.632   8.706
  501W        W 4020   2.883   4.154  10.546
  502W        W 4021   5.482   5.179  11.815
  503W        W 4022   2.913   1.167   0.015
  504W        W 4023   9.535   5.112   9.176
  505W        W 4024   4.921   4.202  10.508
  506W        W 4025   4.156   1.525  10.765
  507W        W 4026   2.644   3.941   0.939
  508W        W 4027   3.743   8.817  11.953
  509W        W 4028   6.271   6.205   9.795
  510W        W 4029   9.727   4.544   3.127
  511W        W 4030   4.747   4.897   2.562
  512W        W 4031   2.969   0.788   0.406
  513W        W 4032   4.964   3.676   3.609
  514W        W 4033   8.344   3.933   1.816
  515W        W 4034   1.577   5.013   2.989
  516W        W 4035   2.958   1.411   2.275
  517W        W 4036   9.133   0.831   1.578
  518W        W 4037   2.462   5.292   0.697
  519W        W 4038   3.161   7.494   8.944
  520W        W 4039   3.319   2.082  11.916
  521W        W 4040   8.880   6.353   1.568
  522W        W 4041   0.415   5.426   1.655
  523W        W 4042   8.471   9.809  11.143
  524W        W 4043   3.226   0.980  10.872
  525W        W 4044   6.915   2.487   3.034
  526W        W 4045   4.547   5.594  10.540
  527W        W 4046   3.691   5.400   8.926
  528W        W 4047   1.355   1.637   3.521
  529W        W 4048   0.314   9.706  11.997
  530W        W 4049   5.061   2.955  10.212
  531W        W 4050   5.809   2.563   3.556
  532W        W 4051   9.553   9.784   8.848
  533W        W 4052   9.220   3.759   9.328
  534W        W 4053   7.357   7.185  11.928
  535W        W 4054   2.342   7.393   3.352
  536W        W 4055   1.234   6.440  11.397
  537W        W 4056   0.554   0.311   9.908
  538W        W 4057   1.250   5.379  11.674
  539W        W 4058   5.573   8.637   0.231
  540W        W 4059   4.157   3.890   8.367
  541W        W 4060   1.394   3.494   1.460
  542W        W 4061   1.426   8.662   3.544
  543W        W 4062   2.620   5.399   4.051
  544W        W 4063   2.698   2.670  10.791
  545W        W 4064   8.392   2.683   1.612
  546W        W 4065   6.155   6.362   1.315
  547W        W 4066   6.753   5.727   1.338
  548W        W 4067   4.964   9.610   1.745
  549W        W 4068   8.054   0.185  11.854
  550W        W 4069   7.954   9.674   0.981
  551W        W 4070   1.466   3.529  11.003
  552W        W 4071   1.622   3.317   1.873
  553W        W 4072   7.598   2.318   1.293
  554W        W 4073   7.092   5.558   2.155
  555W        W 4074   9.658   5.321   1.960
  556W        W 4075   1.683   2.752  11.702
  557W        W 4076   8.499   1.490  10.012
  558W        W 4077   3.673   8.850   2.117
  559W        W 4078   5.066   8.059   0.093
  560W        W 4079   7.627   4.646   1.303
  561W        W 4080   2.403   7.018   2.050
  562W        W 4081   7.040   0.647   0.793
  563W        W 4082   5.946   9.961  10.435
  564W        W 4083   8.095   5.116   9.064
  565W        W 4084   5.828   7.551   9.824
  566W        W 4085   0.953   9.520   1.890
  567W        W 4086   1.936   3.078   2.803
  568W        W 4087   9.488   3.411   9.725
  569W        W 4088   6.584   8.844   1.205
  570W        W 4089   7.774   6.153   2.030
  571W        W 4090   5.092   6.992   1.396
  572W        W 4091   0.436   0.812   9.847
  573W        W 4092   4.504   3.022   3.768
  574W        W 4093   1.372   6.082   2.524
  575W        W 4094   6.993   4.540   1.833
  576W        W 4095   9.585   2.966  11.063
  577W        W 4096   1.131   4.640   9.633
  578W        W 4097   0.343   9.590  11.073
  579W        W 4098   6.571   4.342   9.033
  580W        W 4099   4.311   1.143   2.451
  581W        W 4100   9.465   2.938   1.470
  582W        W 4101   9.732   9.380   1.269
  583W        W 4102   9.638   6.101  11.046
  584W        W 4103   0.261   0.500  11.754
  585W        W 4104   6.943   5.105  11.260
  586W        W 4105   4.976   2.350   2.098
  587W        W 4106   1.378   6.430   1.455
  588W        W 4107   5.782   0.189   9.951
  589W        W 4108   6.080   0.883   2.811
  590W        W 4109   5.103   3.170  11.480
  591W        W 4110   8.200   7.206  11.491
  592W        W 4111   1.674   4.527   2.658
  593W        W 4112   3.662   6.372   2.221
  594W        W 4113   2.264   2.418  11.066
  595W        W 4114   8.991   4.707   0.917
  596W        W 4115   6.557   5.188   4.195
  597W        W 4116   1.198   5.304   8.513
  598W        W 4117   3.616   7.305  10.353
  599W        W 4118   2.852   0.919   1.744
  600W        W 4119   8.398   2.203   2.458
  601W        W 4120   2.248   8.833   0.734
  602W        W 4121   9.948   6.190   1.914
  603W        W 4122   5.770   5.895   1.278
  604W        W 4123   6.970   3.866   3.300
  605W        W 4124   4.712   3.311   3.330
  606W        W 4125   4.283   2.755   1.926
  607W        W 4126   9.991   4.640  10.479
  608W        W 4127   3.248   5.542   0.823
  609W        W 4128   4.167   0.553   8.648
  610W        W 4129   0.450   4.187   2.882
  611W        W 4130   0.828   4.280  11.730
  612W        W 4131   1.667   2.268  11.449
  613W        W 4132   1.209   8.035  11.237
  614W        W 4133   3.980   0.321  10.939
  615W        W 4134   5.585   7.975   2.895
  616W        W 4135   0.191   0.053   2.202
  617W        W 4136   1.284   1.169   2.012
  618W        W 4137   2.132   3.720  10.413
  619W        W 4138   8.420   2.913   2.098
  620W        W 4139   5.568   5.699   3.236
  621W        W 4140   8.286   8.478  10.619
  622W        W 4141   6.426   2.523   3.267
  623W        W 4142   9.917   5.727   1.001
  624W        W 4143   6.744   1.839  11.062
  625W        W 4144   5.389   2.068   2.033
  626W        W 4145   5.865   5.972   9.980
  627W        W 4146   7.604   8.255   9.390
  628W        W 4147   2.234   5.984   9.243
  629W        W 4148   7.275   0.749  11.782
  630W        W 4149   4.942   4.030   1.970
  631W        W 4150   3.847   5.528   0.138
  632W        W 4151   7.866   4.994   2.946
  633W        W 4152   7.172   0.002  10.982
  634W        W 4153   6.131   6.896   3.087
  635W        W 4154   5.036   7.442  10.265
  636W        W 4155   0.770   7.405   0.691
  637W        W 4156   9.439   9.994  10.798
  638W        W 4157   8.004   1.159  10.128
  639W        W 4158   5.295   6.833   3.675
  640W        W 4159   4.746   3.840   9.885
  641W        W 4160   5.253   5.464   0.686
  642W        W 4161   7.438   1.224  11.017
  643W        W 4162   2.102   7.987   0.472
  644W        W 4163   9.850   1.497  10.489
  645W        W 4164   5.290   1.000   1.880
  646W        W 4165   2.917   8.304  10.911
  647W        W 4166   6.108   8.543  10.420
  648W        W 4167   0.030   9.397   9.545
  649W        W 4168   9.344   6.061   0.739
  650W        W 4169   7.022   0.904   1.233
  651W        W 4170   4.674   4.568   1.214
  652W        W 4171   8.409   2.003   2.940
  653W        W 4172   9.467   8.484   9.743
  654W        W 4173   1.767   3.672   0.230
  655W        W 4174   7.194   3.530  11.982
  656W        W 4175   6.952   0.441   0.336
  657W        W 4176   4.228   3.497  11.958
  658W        W 4177   9.308   3.551   0.307
  659W        W 4178   8.783   6.627   9.181
  660W        W 4179   3.660   5.429   1.257
  661W        W 4180   2.896   9.370   3.250
  662W        W 4181   9.721   1.899   9.034
  663W        W 4182   2.324   7.649  11.052
  664W        W 4183   7.044   5.123   4.033
  665W        W 4184   5.537   9.456   1.146
  666W        W 4185   9.211   3.279   1.802
  667W        W 4186   4.540   6.135   3.111
  668W        W 4187   0.364   7.080   9.756
  669W        W 4188   1.993   6.362   1.720
  670W        W 4189   2.042   0.391  10.963
  671W        W 4190   2.705   0.394   1.168
  672W        W 4191   3.857   2.933  11.255
  673W        W 4192   5.702   9.113   9.237
  674W        W 4193   5.514   7.196   0.424
  675W        W 4194   8.053   6.648  11.871
  676W        W 4195   6.052   7.580  10.323
  677W        W 4196   7.625   6.099   0.277
  678W        W 4197   3.023   1.300   3.578
  679W        W 4198   6.595   1.510   0.908
  680W        W 4199   3.641   3.290   3.674
  681W        W 4200   9.458   5.310   1.439
  682W        W 4201   3.614   0.749   1.314
  683W        W 4202   5.036   2.396   1.575
  684W        W 4203   5.712   7.166   3.139
  685W        W 4204   9.885   0.854  11.757
  686W        W 4205   5.212   7.509   0.081
  687W        W 4206   6.557   5.552   9.241
  688W        W 4207   2.318   9.106   0.284
  689W        W 4208   2.169   5.515  11.674
  690W        W 4209   8.805   9.067   2.792
  691W        W 4210   6.783   4.485  10.032
  692W        W 4211   4.022   9.279   2.794
  693W        W 4212   8.378   8.468   3.289
  694W        W 4213   2.306   7.576   2.393
  695W        W 4214   6.421   2.203  10.934
  696W        W 4215   4.271   1.414  10.248
  697W        W 4216   6.399   1.579   2.898
  698W        W 4217   4.637   0.749   1.181
  699W        W 4218   4.156   9.816   1.415
  700W        W 4219   5.425   7.056  11.922
  701W        W 4220   5.168   2.800  10.695
  702W        W 4221   0.075   9.562  11.535
  703W        W 4222   7.951   5.083   0.009
  704W        W 4223   4.283   5.100   2.697
  705W        W 4224   4.486   6.665   3.140
  706W        W 4225   3.902   3.928  10.362
  707W        W 4226   3.939   4.565   3.907
  708W        W 4227   0.874   9.886   9.742
  709W        W 4228   9.405   1.342   0.294
  710W        W 4229   9.776   3.785   0.670
  711W        W 4230   2.758   0.046  10.509
  712W        W 4231   3.187   4.920   8.159
  713W        W 4232   9.960   6.995   9.007
  714W        W 4233   2.341   8.384   9.038
  715W        W 4234   8.846   7.891   3.399
  716W        W 4235   4.243   3.847  11.591
  717W        W 4236   9.377   7.000  10.697
  718W        W 4237   5.679   6.454   1.098
  719W        W 4238   3.399   5.397   0.357
  720W        W 4239   5.618   7.831  10.406
  721W        W 4240   8.953   7.444   2.351
  722W        W 4241   8.561   4.793   3.071
  723W        W 4242   9.848   1.500   3.082
  724W        W 4243   2.816   1.462  11.615
  725W        W 4244   7.707   3.107   3.207
  726W        W 4245   5.145   5.451   3.099
  727W        W 4246   4.436   0.098   2.424
  728W        W 4247   9.481   0.202   9.729
  729W        W 4248   9.764   2.379  10.870
  730W        W 4249   7.622   5.299  11.666
  731W        W 4250   3.120   6.931   1.205
  732W        W 4251   8.863   6.251   0.816
  733W        W 4252   5.121   2.038   1.200
  734W        W 4253   4.307   5.825   3.451
  735W        W 4254   6.688   1.218   3.136
  736W        W 4255   3.826   4.604   0.048
  737W        W 4256   8.374   3.832   2.325
  738W        W 4257   8.137   5.888   1.150
  739W        W 4258   4.477   2.594   1.445
  740W        W 4259   7.174   7.240   0.805
  741W        W 4260   3.879   3.628   9.875
  742W        W 4261   8.940   4.604   0.053
  743W        W 4262   3.573   7.878  10.311
  744W        W 4263   4.031   8.247   1.520
  745W        W 4264   9.047   8.320   2.123
  746W        W 4265   7.527   8.938  10.506
  747W        W 4266   9.062   4.194   0.874
  748W        W 4267   0.441   2.870   3.551
  749W        W 4268   4.788   2.761  11.409
  750W        W 4269   1.765   0.730   2.258
  751W        W 4270   7.808   1.238  10.627
  752W        W 4271   2.807   3.306   2.966
  753W        W 4272   4.113   0.861  11.036
  754W        W 4273   2.785   8.030   1.643
  755W        W 4274   3.645   4.442   9.346
  756W        W 4275   7.512   4.440   3.083
  757W        W 4276   7.882   4.657   0.309
  758W        W 4277   9.791   7.670   2.011
  759W        W 4278   8.367   4.571  11.461
  760W        W 4279   1.502   0.552   9.392
  761W        W 4280   5.175   2.716   2.650
  762W        W 4281   8.711   6.109  11.947
  763W        W 4282   0.091   5.637   9.045
  764W        W 4283   8.973   7.039   9.463
  765W        W 4284   3.295   9.241   1.411
  766W        W 4285   0.454   6.607   9.915
  767W        W 4286   4.539   5.762   2.199
  768W        W 4287   7.884   1.863   1.334
  769W        W 4288   3.208   3.554  11.946
  770W        W 4289   7.074   6.451   8.274
  771W        W 4290   2.320   2.117  10.119
  772W        W 4291   6.991   6.367   8.775
  773W        W 4292   5.026   9.861   9.205
  774W        W 4293   2.321   1.908  10.915
  775W        W 4294   8.801   6.215  10.583
  776W        W 4295   7.350   3.166   2.730
  777W        W 4296   5.194   3.934  10.151
  778W        W 4297   2.623   7.986  11.288
  779W        W 4298   5.913   2.260  11.031
  780W        W 4299   9.152   9.262  11.536
  781W        W 4300   7.172   6.572   3.968
  782W        W 4301   8.461   7.927  11.036
  783W        W 4302   9.877   1.226  10.053
  784W        W 4303   1.689   3.769   0.725
  785W        W 4304   0.939   8.866   3.564
  786W        W 4305   2.020   3.411   3.272
  787W        W 4306   9.530   8.132   1.989
  788W        W 4307   9.401   4.854  11.820
  789W        W 4308   3.108   3.704   0.892
  790W        W 4309   2.325   3.716   1.810
  791W        W 4310   8.339   8.791   0.204
  792W        W 4311   5.152   8.718  10.944
  793W        W 4312   6.201   9.883   0.294
  794W        W 4313   5.890   1.633   8.462
  795W        W 4314   2.768   4.411   2.145
  796W        W 4315   2.764   2.098   0.944
  797W        W 4316   0.344   6.180   3.202
  798W        W 4317   6.601   9.269   2.355
  799W        W 4318   9.612   7.514  11.778
  800W        W 4319   4.128   8.915   8.868
  801W        W 4320   2.912   0.439   9.340
  802W        W 4321   8.727   6.421  11.220
  803W        W 4322   2.719   3.680  10.627
  804W        W 4323   5.428   0.856  11.068
  805W        W 4324   5.623   1.661   2.328
  806W        W 4325   5.149   8.868  10.446
  807W        W 4326   1.401   0.284   8.942
  808W        W 4327   6.060   7.944   3.125
  809W        W 4328   6.973   2.549   9.812
  810W        W 4329   3.441   4.492   3.845
  811W        W 4330   3.838   1.451   8.684
  812W        W 4331   9.885   6.839   9.964
  813W        W 4332   3.912   8.059   9.066
  814W        W 4333   6.826   2.799  10.216
  815W        W 4334   1.844   5.657   9.525
  816W        W 4335   8.866   0.867   8.956
  817W        W 4336   0.486   1.680   9.835
  818W        W 4337   3.317   8.458  10.628
  819W        W 4338   4.746   7.520   2.339
  820W        W 4339   3.835   9.793  11.840
  821W        W 4340   2.691   3.632   0.076
  822W        W 4341   5.061   6.367   0.240
  823W        W 4342   3.498   0.634   2.230
  824W        W 4343   5.206   5.670   1.160
  825W        W 4344   8.260   4.332   2.359
  826W        W 4345   6.657   8.498   1.774
  827W        W 4346   3.413   9.377   8.630
  828W        W 4347   7.227   1.975   1.452
  829W        W 4348   3.748   9.019   1.633
  830W        W 4349   8.964   9.896  10.927
  831W        W 4350   3.129   8.316   3.099
  832W        W 4351   0.059   1.771   2.700
  833W        W 4352   6.808   5.923   8.954
  834W        W 4353   0.315   0.026  11.598
  835W        W 4354   4.965   1.908   1.770
  836W        W 4355   6.577   8.754  10.451
  837W        W 4356   1.173   0.380  10.728
  838W        W 4357   6.430   2.751  10.513
  839W        W 4358   2.774   9.214  10.648
  840W        W 4359   6.234   3.705   0.805
  841W        W 4360   0.448   1.358  11.264
  842W        W 4361   4.517   9.210   2.783
  843W        W 4362   6.419   9.291   2.823
  844W        W 4363   5.846   4.606  10.460
  845W        W 4364   9.640   1.762   0.106
  846W        W 4365   6.104   9.060  11.168
  847W        W 4366   2.213   3.856   8.999
  848W        W 4367   7.628   2.565  11.375
  849W        W 4368   2.732   6.903   2.794
  850W        W 4369   1.361   3.856   9.286
  851W        W 4370   0.866   2.884  11.523
  852W        W 4371   2.129   0.992   0.822
  853W        W 4372   6.152   5.960   1.640
  854W        W 4373   0.623   2.840   9.535
  855W        W 4374   4.238   2.807   9.522
  856W        W 4375   9.609   0.558   3.543
  857W        W 4376   7.953   7.404   0.404
  858W        W 4377   9.433   8.615  10.259
  859W        W 4378   5.251   5.510   0.166
  860W        W 4379   2.811   3.372   9.657
  861W        W 4380   8.641   3.431   3.277
  862W        W 4381   8.287   1.977   1.699
  863W        W 4382   3.882   8.498   3.780
  864W        W 4383   8.304   3.216  11.454
  865W        W 4384   9.563   3.039   0.253
  866W        W 4385   3.956   2.396  11.267
  867W        W 4386   8.039   5.989   9.553
  868W        W 4387   3.345   4.045   4.097
  869W        W 4388   7.398   4.799   0.418
  870W        W 4389   5.211   2.276   0.183
  871W        W 4390   3.964   7.885   9.555
  872W        W 4391   7.788   1.637  10.288
  873W        W 4392   0.967   9.244   9.541
  874W        W 4393   4.975   5.969   8.364
  875W        W 4394   9.487   1.563   9.978
  876W        W 4395   6.565   2.418   0.927
  877W        W 4396   7.063   6.552   1.382
  878W        W 4397   7.565   3.738   1.976
  879W        W 4398   9.081   9.775  10.409
  880W        W 4399   9.914   4.753   0.883
  881W        W 4400   2.155   9.632   2.169
  882W        W 4401   0.363   4.536   1.751
  883W        W 4402   7.264   2.159   3.213
  884W        W 4403   2.182   3.018  11.440
  885W        W 4404   7.792   3.651   9.558
  886W        W 4405   1.353   9.472   2.636
  887W        W 4406   6.381   6.216   4.142
  888W        W 4407   8.635   5.059  10.378
  889W        W 4408   9.032   4.302  10.641
  890W        W 4409   4.504   7.671  11.372
  891W        W 4410   6.495   1.143   2.663
  892W        W 4411   7.962   0.192   0.971
  893W        W 4412   8.377   3.636  10.216
  894W        W 4413   8.978   4.701  10.280
  895W        W 4414   3.202   6.679  10.872
  896W        W 4415   6.411   7.075   3.511
  897W        W 4416   9.300   2.572  10.831
  898W        W 4417   9.941   9.795   9.226
  899W        W 4418   0.680   4.653  10.885
  900W        W 4419   4.199   4.303  10.609
  901W        W 4420   4.732   2.312   9.014
  902W        W 4421   0.300   3.940   2.215
  903W        W 4422   7.090   2.792  10.668
  904W        W 4423   1.786   6.164   1.243
  905W        W 4424   0.143   5.373   8.342
  906W        W 4425   2.467   3.173   0.194
  907W        W 4426   4.784   6.632   1.977
  908W        W 4427   1.511   8.596   2.790
  909W        W 4428   5.116   0.969   3.319
  910W        W 4429   0.782   7.970   0.016
  911W        W 4430   9.305   7.541   2.721
  912W        W 4431   6.558   7.121   2.940
  913W        W 4432   5.046   4.007  11.973
  914W        W 4433   3.023   7.378   2.851
  915W        W 4434   6.891   2.992   2.877
  916W        W 4435   7.586   1.219   0.492
  917W        W 4436   7.703   9.979   0.372
  918W        W 4437   3.214   7.854   2.846
  919W        W 4438   4.196   6.814   1.426
  920W        W 4439   6.047   3.359   9.177
  921W        W 4440   2.574   8.714   2.412
  922W        W 4441   0.940   7.600  11.675
  923W        W 4442   5.133   8.868   9.103
  924W        W 4443   1.029   5.651  10.849
  925W        W 4444   4.431   4.091   1.953
  926W        W 4445   6.135   5.242   9.308
  927W        W 4446   3.827   9.864   1.016
  928W        W 4447   5.613   0.620   0.769
  929W        W 4448   0.597   7.453  10.892
  930W        W 4449   6.680   9.945   0.461
  931W        W 4450   6.717   0.287   3.600
  932W        W 4451   6.193   4.220   8.262
  933W        W 4452   6.470   4.612   0.484
  934W        W 4453   0.520   3.527  11.767
  935W        W 4454   2.598   0.723   0.779
  936W        W 4455   2.009   2.662   9.542
  937W        W 4456   0.179   0.577  10.751
  938W        W 4457   3.357   2.133   3.543
  939W        W 4458   5.723   2.092  10.451
  940W        W 4459   9.992   2.154  11.478
  941W        W 4460   9.760   1.418   8.651
  942W        W 4461   3.283   3.677  11.068
  943W        W 4462   1.317   3.807   1.908
  944W        W 4463   4.763   2.824   0.803
  945W        W 4464   5.003   9.824   1.266
  946W        W 4465   3.988   3.415  10.409
  947W        W 4466   2.578   3.340  11.606
  948W        W 4467   0.115   6.530   8.870
  949W        W 4468   3.316   1.366   9.983
  950W        W 4469   5.297   6.453   0.718
  951W        W 4470   9.386   2.600  11.361
  952W        W 4471   9.618   7.041   3.546
  953W        W 4472   1.787   2.227   2.310
  954W        W 4473   3.341   3.058   2.411
  955W        W 4474   5.776   1.883   2.775
  956W        W 4475   0.309   0.931   3.381
  957W        W 4476   4.773   5.558   2.630
  958W        W 4477   4.375   7.696   1.104
  959W        W 4478   6.163   7.210  11.430
  960W        W 4479   8.656   2.408   9.648
  961W        W 4480   1.405   9.333   9.805
  962W        W 4481   4.954   9.381  10.498
  963W        W 4482   5.835   0.910   1.753
  964W        W 4483   6.563   3.762   3.592
  965W        W 4484   2.731   0.861  10.626
  966W        W 4485   1.876   6.989   0.853
  967W        W 4486   3.182   7.062   2.511
  968W        W 4487   9.838   4.364   1.265
  969W        W 4488   8.501   4.672   1.428
  970W        W 4489   2.254   1.313  10.898
  971W        W 4490   5.790   4.997   1.325
  972W        W 4491   7.549   6.305   1.598
  973W        W 4492   0.686   5.796   3.180
  974W        W 4493   2.891   0.652  11.062
  975W        W 4494   4.133   1.375   1.629
  976W        W 4495   7.338   6.180   9.553
  977W        W 4496   8.991   6.216   2.688
  978W        W 4497   0.543   7.666   3.172
  979W        W 4498   9.782   0.340   2.174
  980W        W 4499   1.951   9.905  11.996
  981W        W 4500   2.196   5.057   1.844
  982W        W 4501   9.112   7.208   3.528
  983W        W 4502   5.786   6.663   2.782
  984W        W 4503   1.740   2.257   1.428
  985W        W 4504   1.663   5.194   1.073
  986W        W 4505   7.428   2.997  11.560
  987W        W 4506   9.417   5.746   1.142
  988W        W 4507   0.811   7.893   8.848
  989W        W 4508   1.756   5.246  11.770
  990W        W 4509   3.247   8.253   0.455
  991W        W 4510   3.034   7.817  11.023
  992W        W 4511   9.574   5.030  10.437
  993W        W 4512   1.837   8.180   2.921
  994W        W 4513   6.095   1.446   2.376
  995W        W 4514   3.356   3.836  11.539
  996W        W 4515   8.854   3.303  10.485
  997W        W 4516   2.916   2.840   3.151
  998W        W 4517   3.085   9.451   2.371
  999W        W 4518   2.771   1.237  10.992
 1000W        W 4519   1.306   3.322   9.313
 1001W        W 4520   7.012   7.980   0.206
 1002W        W 4521   2.401   8.948  11.345
 1003W        W 4522   3.067   6.603   9.869
 1004W        W 4523   6.679   1.261   1.733
 1005W        W 4524   6.955   4.240   2.260
 1006W        W 4525   9.880   8.273   0.840
 1007W        W 4526   5.044   3.681   8.681
 1008W        W 4527   2.097   1.793   0.397
 1009W        W 4528   4.260   8.436   8.921
 1010W        W 4529   7.894   1.747   3.823
 1011W        W 4530   0.626   0.755   1.167
 1012W        W 4531   6.042   8.507   8.838
 1013W        W 4532   3.111   8.550   2.597
 1014W        W 4533   2.999   1.860   0.489
 1015W        W 4534   9.340   7.912   0.022
 1016W        W 4535   9.940   8.431  11.546
 1017W        W 4536   5.693   8.065   1.828
 1018W        W 4537   1.256   4.050  11.488
 1019W        W 4538   9.110   5.199  10.301
 1020W        W 4539   1.285   0.239   2.590
 1021W        W 4540   2.384   6.685   1.682
 1022W        W 4541   4.123   1.863  11.169
 1023W        W 4542   3.949   8.045   3.469
 1024W        W 4543   8.436   1.199   0.545
 1025W        W 4544   9.839   4.581  11.810
 1026W        W 4545   5.677   0.765  11.914
 1027W        W 4546   3.965   4.902   8.818
 1028W        W 4547   6.505   4.752   2.860
 1029W        W 4548   6.221   5.242   3.811
 1030W        W 4549   8.940   6.466   9.646
 1031W        W 4550   9.054   8.568  10.975
 1032W        W 4551   2.745   2.697   0.211
 1033W        W 4552   9.444   4.739   2.752
 1034W        W 4553   8.626   6.054   1.228
 1035W        W 4554   3.023   6.858  11.434
 1036W        W 4555   7.965   2.738   2.941
 1037W        W 4556   2.167   4.531   1.314
 1038W        W 4557   5.548   3.201   0.058
 1039W        W 4558   5.559   2.264   0.552
 1040W        W 4559   9.817   5.247   0.960
 1041W        W 4560   1.150   5.558   3.192
 1042W        W 4561   6.048   3.510  11.388
 1043W        W 4562   2.245   2.842   9.115
 1044W        W 4563   5.495   4.366  10.764
 1045W        W 4564   4.651   8.235   8.663
 1046W        W 4565   0.774   8.572   1.807
 1047W        W 4566   8.711   9.940   2.005
 1048W        W 4567   1.262   9.990   0.818
 1049W        W 4568   3.562   2.034  11.314
 1050W        W 4569   5.633   5.204   3.125
 1051W        W 4570   4.146   8.608  11.180
 1052W        W 4571   6.782   9.397   1.896
 1053W        W 4572   3.460   2.595   0.612
 1054W        W 4573   0.212   4.310  11.531
 1055W        W 4574   5.178   7.975   2.111
 1056W        W 4575   7.498   7.547   2.275
 1057W        W 4576   7.871   0.629   0.742
 1058W        W 4577   4.203   4.255   2.376
 1059W        W 4578   4.255   3.674   1.689
 1060W        W 4579   4.157   9.882  10.689
 1061W        W 4580   7.872   2.973  10.241
 1062W        W 4581   3.181   9.063   9.778
 1063W        W 4582   6.885   6.964   3.279
 1064W        W 4583   8.258   6.397  11.011
 1065W        W 4584   9.423   4.121   0.534
 1066W        W 4585   5.338   4.417  10.279
 1067W        W 4586   7.042   9.538   0.651
 1068W        W 4587   3.828   9.281   2.332
 1069W        W 4588   3.574   1.893   8.661
 1070W        W 4589   9.834   3.884  11.086
 1071W        W 4590   4.870   5.378  11.856
 1072W        W 4591   6.976   8.606  10.780
 1073W        W 4592   9.680   3.878   0.157
 1074W        W 4593   4.201   2.685  10.890
 1075W        W 4594   1.221   6.695  10.587
 1076W        W 4595   0.964   3.277   0.442
 1077W        W 4596   1.725   8.476  11.804
 1078W        W 4597   1.298   9.719   9.517
 1079W        W 4598   5.630   8.980   0.944
 1080W        W 4599   0.192   7.276  11.165
 1081W        W 4600   0.230   5.909  11.760
 1082W        W 4601   7.563   4.680   1.815
 1083W        W 4602   9.774   5.627  11.790
 1084W        W 4603   4.497   2.250  11.636
 1085W        W 4604   8.269   4.647  10.992
 1086W        W 4605   3.548   5.953   3.000
 1087W        W 4606   4.188   6.874   9.693
 1088W        W 4607   5.192   0.575  11.445
 1089W        W 4608   1.042   1.537   1.730
 1090W        W 4609   5.321   1.198   9.261
 1091W        W 4610   6.776   8.347  11.167
 1092W        W 4611   1.878   2.296   9.918
 1093W        W 4612   8.875   5.695  10.432
 1094W        W 4613   7.116   3.550   0.869
 1095W        W 4614   9.453   8.384  10.718
 1096W        W 4615   8.028   5.001  11.483
 1097W        W 4616   5.587   0.679  10.076
 1098W        W 4617   2.477   3.614   3.201
 1099W        W 4618   7.638   3.900  10.807
 1100W        W 4619   6.154   4.734   9.515
 1101W        W 4620   9.324   9.505   0.893
 1102W        W 4621   4.697   8.639  10.473
 1103W        W 4622   6.995   7.988   2.700
 1104W        W 4623   9.777   7.363   1.054
 1105W        W 4624   6.959   5.322   0.233
 1106W        W 4625   0.671   6.577   2.141
 1107W        W 4626   3.708   2.431   2.725
 1108W        W 4627   7.518   1.557   1.503
 1109W        W 4628   1.952   9.562   3.351
 1110W        W 4629   3.647   8.500   1.744
 1111W        W 4630   3.748   4.187  10.811
 1112W        W 4631   3.716   8.881   2.632
 1113W        W 4632   6.454   6.584   3.320
 1114W        W 4633   8.903   6.483  11.696
 1115W        W 4634   0.389   8.497   9.329
 1116W        W 4635   3.178   9.878   2.677
 1117W        W 4636   0.531   0.452   3.320
 1118W        W 4637   1.150   8.855   0.352
 1119W        W 4638   8.508   5.446  10.747
 1120W        W 4639   6.081   5.530   3.202
 1121W        W 4640   3.728   9.613   8.965
 1122W        W 4641   0.835   8.820  11.447
 1123W        W 4642   4.207   0.632  10.571
 1124W        W 4643   2.055   6.490  11.404
 1125W        W 4644   1.028   4.967  10.529
 1126W        W 4645   6.475   8.153  11.515
 1127W        W 4646   3.768   5.931  10.727
 1128W        W 4647   9.793   4.064  11.678
 1129W        W 4648   0.591   7.584   2.680
 1130W        W 4649   3.183   7.341   0.898
 1131W        W 4650   0.058   5.413   2.915
 1132W        W 4651   1.465   2.953   0.176
 1133W        W 4652   3.707   5.981   0.462
 1134W        W 4653   8.536   8.923   9.020
 1135W        W 4654   9.763   6.496   9.231
 1136W        W 4655   9.122   5.730   2.818
 1137W        W 4656   8.486   2.741  11.476
 1138W        W 4657   6.851   4.977  10.236
 1139W        W 4658   1.644   3.500  10.532
 1140W        W 4659   8.615   3.947   0.913
 1141W        W 4660   7.411   9.455  11.731
 1142W        W 4661   0.351   2.600   9.958
 1143W        W 4662   5.563   7.095   1.156
 1144W        W 4663   8.892   1.297   3.233
 1145W        W 4664   9.951   0.109   8.794
 1146W        W 4665   4.911   3.425   1.538
 1147W        W 4666   4.846   3.031   4.165
 1148W        W 4667   3.086   6.246   2.233
 1149W        W 4668   7.962   3.928   1.412
 1150W        W 4669   3.108   3.288   2.016
 1151W        W 4670   0.623   9.779   2.207
 1152W        W 4671   1.368   9.330   2.159
 1153W        W 4672   1.176   4.582  10.837
 1154W        W 4673   2.304   9.221   3.531
 1155W        W 4674   4.782   3.725  10.386
 1156W        W 4675   2.136   7.110  10.404
 1157W        W 4676   6.173   6.440   2.333
 1158W        W 4677   1.116   7.137  10.352
 1159W        W 4678   6.893   9.520  11.666
 1160W        W 4679   8.560   7.615   9.846
 1161W        W 4680   2.735   7.888   2.148
 1162W        W 4681   6.217   3.180   1.392
 1163W        W 4682   3.015   9.321   1.874
 1164W        W 4683   4.922   2.190  10.805
 1165W        W 4684   8.949   6.682   1.139
 1166W        W 4685   1.179   6.131  10.990
 1167W        W 4686   6.487   2.712   9.581
 1168W        W 4687   1.864   5.240   9.205
 1169W        W 4688   3.209   5.185   2.395
 1170W        W 4689   6.846   7.182  11.885
 1171W        W 4690   7.413   9.864  11.412
 1172W        W 4691   0.600   6.183  10.171
 1173W        W 4692   6.068   0.022   2.602
 1174W        W 4693   9.242   3.670   0.821
 1175W        W 4694   7.556   7.634   0.162
 1176W        W 4695   3.041   2.856   1.390
 1177W        W 4696   0.827   2.606   0.784
 1178W        W 4697   3.757   6.727   8.881
 1179W        W 4698   5.531   4.542   0.600
 1180W        W 4699   3.865   4.015   0.830
 1181W        W 4700   4.642   8.209   0.364
 1182W        W 4701   9.870   9.136   0.294
 1183W        W 4702   1.940   8.685   3.033
 1184W        W 4703   8.836   3.937   3.151
 1185W        W 4704   7.690   1.495   2.875
 1186W        W 4705   4.660   3.988  11.339
 1187W        W 4706   4.885   2.224   2.578
 1188W        W 4707   3.605   3.418   2.137
 1189W        W 4708   3.213   3.265   3.399
 1190W        W 4709   9.787   1.509   3.624
 1191W        W 4710   0.396   9.433   9.168
 1192W        W 4711   2.619   0.582   2.560
 1193W        W 4712   3.113   7.579  11.964
 1194W        W 4713   2.571   6.198   1.642
 1195W        W 4714   7.237   8.953   9.625
 1196W        W 4715   5.629   8.341  10.343
 1197W        W 4716   6.897   4.634  11.505
 1198W        W 4717   8.488   3.494   0.186
 1199W        W 4718   4.484   8.292   2.735
 1200W        W 4719   3.723   8.265  11.919
 1201W        W 4720   7.107   8.699  11.825
 1202W        W 4721   7.776   9.162   8.741
 1203W        W 4722   2.099   6.528  10.050
 1204W        W 4723   3.744   8.121   0.640
 1205W        W 4724   1.635   4.659   1.261
 1206W        W 4725   1.807   1.683   8.582
 1207W        W 4726   5.284   3.206   2.420
 1208W        W 4727   3.748   6.443   7.925
 1209W        W 4728   5.172   8.000  10.186
 1210W        W 4729   9.588   3.325   0.658
 1211W        W 4730   8.172   5.360   1.883
 1212W        W 4731   1.268   0.772  10.376
 1213W        W 4732   8.745   6.453   3.463
 1214W        W 4733   8.780   3.791   9.943
 1215W        W 4734   9.422   8.031   0.990
 1216W        W 4735   6.448   6.016  11.980
 1217W        W 4736   4.126   4.904  11.423
 1218W        W 4737   0.404   6.224   2.692
 1219W        W 4738   3.586   4.049   0.276
 1220W        W 4739   0.817   2.589   9.122
 1221W        W 4740   8.648   7.431  11.915
 1222W        W 4741   8.403   1.383   1.021
 1223W        W 4742   6.033   0.048  11.306
 1224W        W 4743   2.724   9.680  10.850
 1225W        W 4744   9.127   4.214   9.082
 1226W        W 4745   9.254   7.387   8.619
 1227W        W 4746   6.327   1.712   0.306
 1228W        W 4747   6.642   1.660  10.079
 1229W        W 4748   1.035   4.172   0.202
 1230W        W 4749   2.698   0.411   1.688
 1231W        W 4750   1.845   1.292  11.893
 1232W        W 4751   8.534   7.108   2.500
 1233W        W 4752   1.440   1.805   1.462
 1234W        W 4753   8.548   4.980   1.834
 1235W        W 4754   0.479   2.939   2.330
 1236W        W 4755   9.842   8.010  11.294
 1237W        W 4756   3.502   6.308   0.842
 1238W        W 4757   4.986   0.264  11.850
 1239W        W 4758   7.857   4.514  11.369
 1240W        W 4759   4.176   6.998   0.476
 1241W        W 4760   9.034   2.408  10.427
 1242W        W 4761   6.470   9.771   2.380
 1243W        W 4762   7.479   1.925   0.991
 1244W        W 4763   0.115   2.410  10.445
 1245W        W 4764   2.188   2.464   2.537
 1246W        W 4765   5.813   6.483  10.003
 1247W        W 4766   7.372   8.831   1.392
 1248W        W 4767   2.730   1.667  10.691
 1249W        W 4768   0.712   2.582  10.319
 1250W        W 4769   9.051   1.705  10.877
 1251W        W 4770   4.939   7.046   2.305
 1252W        W 4771   5.730   6.469  11.749
 1253W        W 4772   9.063   5.530   0.328
 1254W        W 4773   6.999   7.676   1.642
 1255W        W 4774   4.573   6.792   8.401
 1256W        W 4775   5.520   3.327   9.045
 1257W        W 4776   8.870   4.950   9.384
 1258W        W 4777   7.402   0.301   1.916
 1259W        W 4778   5.626   8.890  11.064
 1260W        W 4779   3.038   6.065   2.726
 1261W        W 4780   1.642   6.745  11.990
 1262W        W 4781   7.581   3.574   2.507
 1263W        W 4782   2.000   7.783   3.237
 1264W        W 4783   9.200   6.716   3.536
 1265W        W 4784   3.203   8.965   2.281
 1266W        W 4785   8.682   8.412   0.289
 1267W        W 4786   2.612   0.884   1.275
 1268W        W 4787   4.756   8.756   2.666
 1269W        W 4788   4.014   8.035  10.960
 1270W        W 4789   2.688   6.221   9.311
 1271W        W 4790   5.418   5.922   9.048
 1272W        W 4791   0.413   9.001   9.471
 1273W        W 4792   9.112   0.940   9.404
 1274W        W 4793   7.666   6.249   3.674
 1275W        W 4794   3.791   3.912   2.121
 1276W        W 4795   0.395   5.139   2.606
 1277W        W 4796   8.963   8.491  10.454
 1278W        W 4797   9.843   0.429  11.483
 1279W        W 4798   2.738   1.328   8.884
 1280W        W 4799   2.692   8.799   9.125
 1281W        W 4800   8.673   9.452  11.437
 1282W        W 4801   8.735   0.340   9.101
 1283W        W 4802   5.577   3.176   0.560
 1284W        W 4803   8.049   7.102  10.957
 1285W        W 4804   6.212   4.504  10.836
 1286W        W 4805   9.705   8.157  10.210
 1287W        W 4806   3.045   9.064   2.763
 1288W        W 4807   1.438   1.763  11.046
 1289W        W 4808   0.405   3.367  11.284
 1290W        W 4809   9.734   1.242   0.942
 1291W        W 4810   6.919   0.414   1.269
 1292W        W 4811   2.025   5.164   3.180
 1293W        W 4812   2.138   2.303   0.457
 1294W        W 4813   4.370   9.418   8.535
 1295W        W 4814   0.263   1.483   3.391
 1296W        W 4815   1.833   5.203   9.764
 1297W        W 4816   9.995   5.107  10.722
 1298W        W 4817   6.964   2.077   1.033
 1299W        W 4818   2.235   6.496   9.152
 1300W        W 4819   3.908   4.246   2.947
 1301W        W 4820   3.820   2.123   9.065
 1302W        W 4821   0.631   7.199  10.444
 1303W        W 4822   7.485   7.170   0.401
 1304W        W 4823   8.106   3.311   9.906
 1305W        W 4824   0.229   2.913  10.370
 1306W        W 4825   5.235   0.723   2.474
 1307W        W 4826   8.966   0.168   0.928
 1308W        W 4827   3.777   8.563   9.061
 1309W        W 4828   7.144   3.997   1.769
 1310W        W 4829   2.807   1.796   1.965
 1311W        W 4830   8.365   7.128   2.991
 1312W        W 4831   7.335   9.841  10.534
 1313W        W 4832   3.785   0.600   2.664
 1314W        W 4833   9.395   0.613  11.687
 1315W        W 4834   3.146   4.903  11.633
 1316W        W 4835   4.677   3.107   8.153
 1317W        W 4836   3.086   4.163   3.656
 1318W        W 4837   6.964   3.686  10.120
 1319W        W 4838   6.445   9.007   9.945
 1320W        W 4839   9.982   6.496  10.903
 1321W        W 4840   5.099   2.709   9.757
 1322W        W 4841   7.851   8.537   3.555
 1323W        W 4842   6.927   3.327   2.452
 1324W        W 4843   3.840   7.176   3.779
 1325W        W 4844   1.775   9.637  10.522
 1326W        W 4845   6.696   1.691   1.402
 1327W        W 4846   2.167   7.474   8.845
 1328W        W 4847   4.937   9.035   0.423
 1329W        W 4848   9.849   0.388   0.581
 1330W        W 4849   8.878   7.682  11.193
 1331W        W 4850   5.628   9.818  11.508
 1332W        W 4851   5.064   3.019  11.973
 1333W        W 4852   7.583   0.700   3.248
 1334W        W 4853   4.004   3.228   1.847
 1335W        W 4854   7.395   3.061   0.070
 1336W        W 4855   0.732   0.566   9.010
 1337W        W 4856   2.544   1.357   9.371
 1338W        W 4857   9.255   1.450   9.543
 1339W        W 4858   0.830   1.796  11.735
 1340W        W 4859   7.042   9.751   9.708
 1341W        W 4860   0.283   9.907   9.584
 1342W        W 4861   6.124   8.060   9.715
 1343W        W 4862   3.249   9.012  10.752
 1344W        W 4863   1.582   0.782   1.347
 1345W        W 4864   8.460   3.534   2.795
 1346W        W 4865   1.399   7.058   9.101
 1347W        W 4866   0.660   7.472   2.183
 1348W        W 4867   8.495   3.623  11.220
 1349W        W 4868   3.503   5.508  11.697
 1350W        W 4869   2.305   3.170  10.102
 1351W        W 4870   0.847   6.357   1.448
 1352W        W 4871   3.497   5.753   9.754
 1353W        W 4872   8.944   1.394   2.749
 1354W        W 4873   2.619   8.486  11.312
 1355W        W 4874   1.818   9.321   2.424
 1356W        W 4875   4.528   2.394  10.111
 1357W        W 4876   7.867   3.179   2.704
 1358W        W 4877   2.261   3.795  10.920
 1359W        W 4878   1.415   9.326  11.889
 1360W        W 4879   7.338   7.959  11.812
 1361W        W 4880   4.714   1.390   0.206
 1362W        W 4881   7.463   8.396   1.632
 1363W        W 4882   4.069   2.900  10.425
 1364W        W 4883   5.644   4.183   1.546
 1365W        W 4884   3.687   0.377   0.740
 1366W        W 4885   1.705   0.017  10.853
 1367W        W 4886   9.019   6.983   8.901
 1368W        W 4887   1.008   4.077   9.000
 1369W        W 4888   9.423   0.401   0.887
 1370W        W 4889   6.512   8.045   2.525
 1371W        W 4890   2.143   0.366  10.451
 1372W        W 4891   5.208   8.973  11.424
 1373W        W 4892   2.887   3.838   8.445
 1374W        W 4893   1.867   5.414  10.789
 1375W        W 4894   2.259   3.519   1.336
 1376W        W 4895   4.355   4.012   0.637
 1377W        W 4896   4.017   6.092   3.115
 1378W        W 4897   9.095   4.990  11.217
 1379W        W 4898   1.952   7.004   9.039
 1380W        W 4899   6.577   5.474   2.160
 1381W        W 4900   8.542   3.783  11.710
 1382W        W 4901   7.018   1.881  10.609
 1383W        W 4902   5.797   2.660  11.328
 1384W        W 4903   7.444   8.149   2.930
 1385W        W 4904   6.262   6.165  10.303
 1386W        W 4905   6.460   5.764  11.071
 1387W        W 4906   3.078   2.163  11.444
 1388W        W 4907   4.325   7.591   3.206
 1389W        W 4908   7.707   4.620   0.792
 1390W        W 4909   6.675   4.161   1.665
 1391W        W 4910   4.026   2.318   1.812
 1392W        W 4911   4.738   9.605   2.484
 1393W        W 4912   0.980   1.220  10.391
 1394W        W 4913   4.450   7.433   1.923
 1395W        W 4914   4.762   7.558   3.907
 1396W        W 4915   9.387   9.683  11.753
 1397W        W 4916   4.695   2.316   0.623
 1398W        W 4917   5.349   3.451   1.834
 1399W        W 4918   1.211   0.960   0.485
 1400W        W 4919   8.290   5.634   2.516
 1401W        W 4920   0.021   0.213   1.717
 1402W        W 4921   3.616   6.812   2.509
 1403W        W 4922   1.343   4.598   0.323
 1404W        W 4923   2.969   4.683  10.530
 1405W        W 4924   8.725   7.244  11.444
 1406W        W 4925   0.752   2.113  11.110
 1407W        W 4926   1.114   2.980   3.123
 1408W        W 4927   1.036   8.395   9.351
 1409W        W 4928   1.860   7.073   2.294
 1410W        W 4929   4.572   4.137   9.162
 1411W        W 4930   6.047   7.145   0.891
 1412W        W 4931   9.240   5.211   2.777
 1413W        W 4932   4.131   6.363   9.583
 1414W        W 4933   2.466   1.685   1.140
 1415W        W 4934   4.299   3.752   9.607
 1416W        W 4935   5.943   9.451   2.988
 1417W        W 4936   8.476   6.569   1.320
 1418W        W 4937   1.384   7.150   9.909
 1419W        W 4938   3.130   9.500  10.030
 1420W        W 4939   4.176   0.409   9.156
 1421W        W 4940   3.259   1.127   1.350
 1422W        W 4941   3.128   6.518   9.375
 1423W        W 4942   8.910   4.631   9.778
 1424W        W 4943   2.195   0.125   0.431
 1425W        W 4944   3.233   1.755   2.693
 1426W        W 4945   0.415   4.003  11.883
 1427W        W 4946   5.483   5.750  10.264
 1428W        W 4947   8.852   7.925   0.208
 1429W        W 4948   2.555   9.949   1.338
 1430W        W 4949   5.456   3.990   3.290
 1431W        W 4950   3.498   0.867   0.780
 1432W        W 4951   0.181   3.328   3.298
 1433W        W 4952   5.541   1.204  10.681
 1434W        W 4953   7.770   7.471   1.279
 1435W        W 4954   4.711   3.916   1.545
 1436W        W 4955   4.031   8.163   9.987
 1437W        W 4956   8.605   5.369   0.630
 1438W        W 4957   5.063   4.650  10.711
 1439W        W 4958   9.782   8.628   2.849
 1440W        W 4959   9.015   5.487  11.343
 1441W        W 4960   9.999   3.088  11.969
 1442W        W 4961   2.277   1.262   1.463
 1443W        W 4962   6.903   6.842  10.203
 1444W        W 4963   7.641   8.846   1.834
 1445W        W 4964   2.036   1.287   0.393
 1446W        W 4965   1.580   2.725   3.083
 1447W        W 4966   5.873   0.491   8.954
 1448W        W 4967   7.874   0.791   1.221
 1449W        W 4968   1.875   5.711   0.426
 1450W        W 4969   1.763   9.864   8.797
 1451W        W 4970   2.275   2.127   1.339
 1452W        W 4971   4.907   2.784   8.948
 1453W        W 4972   2.202   1.688   9.872
 1454W        W 4973   9.323   3.153   2.891
 1455W        W 4974   2.667   9.482   9.793
 1456W        W 4975   6.976   6.033   2.340
 1457W        W 4976   6.390   6.768  11.019
 1458W        W 4977   8.336   2.876  10.051
 1459W        W 4978   0.169   9.142   1.142
 1460W        W 4979   8.178   9.306   9.132
 1461W        W 4980   3.647   1.601   2.430
 1462W        W 4981   3.686   9.041   9.839
 1463W        W 4982   1.994   8.648   3.543
 1464W        W 4983   3.946   9.204   3.588
 1465W        W 4984   6.014   5.992   2.527
 1466W        W 4985   7.479   6.105   2.431
 1467W        W 4986   5.678   7.005   9.823
 1468W        W 4987   1.760   1.818  10.123
 1469W        W 4988   9.776   9.857   2.012
 1470W        W 4989   7.832   1.600  11.886
 1471W        W 4990   8.564   5.552   1.117
 1472W        W 4991   4.913   2.666   0.309
 1473W        W 4992   2.582   1.952   8.796
 1474W        W 4993   6.236   5.918   0.447
 1475W        W 4994   8.448   3.127   9.029
 1476W        W 4995   6.104   5.452   0.270
 1477W        W 4996   9.303   3.717   3.201
 1478W        W 4997   3.032   1.072   0.890
 1479W        W 4998   8.584   8.384   1.918
 1480W        W 4999   8.475   0.046   9.670
 1481W        W 5000   9.436   1.407  11.255
 1482W        W 5001   6.842   0.225   9.520
 1483W        W 5002   7.048   4.854   3.588
 1484W        W 5003   1.405   1.491   1.053
 1485W        W 5004   8.496   0.315  11.658
 1486W        W 5005   2.322   6.036  10.096
 1487W        W 5006   5.797   7.292  10.676
 1488W        W 5007   2.714   8.875   0.547
 1489W        W 5008   6.654   4.138   0.353
 1490W        W 5009   3.732   4.688   1.678
 1491W        W 5010   6.970   3.445   3.646
 1492W        W 5011   3.214   4.159   9.619
 1493W        W 5012   0.908   9.353   2.381
 1494W        W 5013   7.396   6.525   2.060
 1495W        W 5014   9.298   3.183   9.308
 1496W        W 5015   7.166   6.124   3.700
 1497W        W 5016   2.207   4.977  11.533
 1498W        W 5017   6.487   4.865  11.218
 1499W        W 5018   9.462   8.998   0.577
 1500W        W 5019   5.022   6.758   8.674
 1501W        W 5020   1.244   2.880   0.659
 1502W        W 5021   7.097   2.496   1.335
 1503W        W 5022   1.039   7.462   3.031
 1504W        W 5023   8.116   3.805   0.946
 1505W        W 5024   7.550   0.763  10.824
 1506W        W 5025   8.518   9.831   3.041
 1507W        W 5026   7.739   4.706   2.376
 1508W        W 5027   9.409   0.471  10.635
 1509W        W 5028   9.974   3.060   2.158
 1510W        W 5029   8.531   2.309  10.528
 1511W        W 5030   3.055   5.037   3.262
 1512W        W 5031   4.837   6.076   1.446
 1513W        W 5032   4.023   3.909   1.301
 1514W        W 5033   3.615   3.734   8.487
 1515W        W 5034   3.671   0.028   1.498
 1516W        W 5035   8.480   7.045  10.108
 1517W        W 5036   5.093   5.278   1.819
 1518W        W 5037   3.353   0.869   1.784
 1519W        W 5038   9.485   2.428   1.753
 1520W        W 5039   8.293   6.669   9.068
 1521W        W 5040   8.879   3.076   2.661
 1522W        W 5041   1.728   6.325   2.836
 1523W        W 5042   4.967   0.667  10.964
 1524W        W 5043   8.938   7.099   0.798
 1525W        W 5044   3.998   4.331   0.465
 1526W        W 5045   1.537   6.951   3.578
 1527W        W 5046   9.202   6.068   1.861
 1528W        W 5047   1.317   6.678   0.373
 1529W        W 5048   7.462   0.908   0.866
 1530W        W 5049   9.835   3.183   2.926
 1531W        W 5050   4.056   3.218  10.876
 1532W        W 5051   5.446   2.323   9.928
 1533W        W 5052   8.105   8.412   9.424
 1534W        W 5053   7.638   2.347   2.216
 1535W        W 5054   7.546   1.111   8.539
 1536W        W 5055   6.098   6.707   9.630
 1537W        W 5056   7.423   8.533   9.864
 1538W        W 5057   9.251   4.484  11.108
 1539W        W 5058   3.334   7.970   0.889
 1540W        W 5059   4.191   2.565   3.034
 1541W        W 5060   0.226   1.810  10.278
 1542W        W 5061   9.170   3.143   0.825
 1543W        W 5062   3.482   1.220  10.475
 1544W        W 5063   5.932   2.737  10.322
 1545W        W 5064   4.295   4.422   8.550
 1546W        W 5065   7.398   9.567   0.234
 1547W        W 5066   4.988   6.602  10.612
 1548W        W 5067   7.901   6.322   3.208
 1549W        W 5068   1.700   5.782   9.051
 1550W        W 5069   6.393   1.365  11.515
 1551W        W 5070   0.006   5.872   0.187
 1552W        W 5071   1.853   9.206   9.591
 1553W        W 5072   5.397   8.503  11.351
 1554W        W 5073   1.863   4.699  11.262
 1555W        W 5074   4.719   1.430   0.712
 1556W        W 5075   9.503   7.511   3.383
 1557W        W 5076   5.520   2.182   1.544
 1558W        W 5077   6.936   5.553   8.454
 1559W        W 5078   9.645   6.466   8.646
 1560W        W 5079   1.350   8.451   0.118
 1561W        W 5080   6.507   7.829   9.474
 1562W        W 5081   8.484   6.973   1.014
 1563W        W 5082   9.564   4.086   2.886
 1564W        W 5083   5.045   6.411  11.085
 1565W        W 5084   5.865   1.856   1.294
 1566W        W 5085   4.592   3.544   8.453
 1567W        W 5086   8.085   9.458  11.193
 1568W        W 5087   4.052   3.284   9.530
 1569W        W 5088   9.869   1.304  11.466
 1570W        W 5089   0.223   1.040   1.019
 1571W        W 5090   6.361   3.737   0.311
 1572W        W 5091   2.615   1.949  11.571
 1573W        W 5092   7.691   2.111  11.708
 1574W        W 5093   5.185   6.976  10.010
 1575W        W 5094   3.768   1.729   0.900
 1576W        W 5095   4.177   3.181  10.000
 1577W        W 5096   0.318   3.750  10.942
 1578W        W 5097   8.528   6.607   0.077
 1579W        W 5098   1.257   1.594  11.912
 1580W        W 5099   9.483   3.152   2.406
 1581W        W 5100   2.859   0.149  11.052
 1582W        W 5101   7.529   1.176  11.974
 1583W        W 5102   2.908   4.361   0.854
 1584W        W 5103   0.889   0.089   8.906
 1585W        W 5104   7.065   5.489   1.647
 1586W        W 5105   8.835   6.933   3.225
 1587W        W 5106   8.080   0.062  10.923
 1588W        W 5107   7.233   4.637  10.186
 1589W        W 5108   4.758   3.708   9.398
 1590W        W 5109   6.745   5.209   8.918
 1591W        W 5110   5.449   7.606   1.858
 1592W        W 5111   5.746   6.176  10.425
 1593W        W 5112   7.825   6.629  10.864
 1594W        W 5113   7.460   1.872   1.980
 1595W        W 5114   9.133   3.045   9.899
 1596W        W 5115   1.114   5.730   2.223
 1597W        W 5116   2.122   2.604   1.379
 1598W        W 5117   8.765   4.315   0.492
 1599W        W 5118   8.083   2.800   8.879
 1600W        W 5119   3.576   3.641   0.672
 1601W        W 5120   3.391   0.339  11.065
 1602W        W 5121   9.681   8.596   8.556
 1603W        W 5122   0.220   0.010   0.836
 1604W        W 5123   7.024   9.032  10.473
 1605W        W 5124   4.961   3.979   3.210
 1606W        W 5125   7.121   5.963  11.499
 1607W        W 5126   3.282   0.762  11.388
 1608W        W 5127   5.202   0.060  11.344
 1609W        W 5128   3.823   8.307  10.516
 1610W        W 5129   1.805   3.128   9.393
 1611W        W 5130   9.854   8.027  10.704
 1612W        W 5131   7.380   7.492   9.986
 1613W        W 5132   4.881   5.341   1.357
 1614W        W 5133   7.520   5.597  10.245
 1615W        W 5134   4.954   7.517  11.620
 1616W        W 5135   5.167   0.722  11.947
 1617W        W 5136   9.040   3.170   8.727
 1618W        W 5137   3.064   7.869  11.530
 1619W        W 5138   4.025   2.186  10.796
 1620W        W 5139   9.353   9.960   0.656
 1621W        W 5140   9.510   6.493   2.727
 1622W        W 5141   2.283   0.137   1.891
 1623W        W 5142   8.699   1.835  11.715
 1624W        W 5143   3.846   3.657   8.034
 1625W        W 5144   8.490   0.327   0.776
 1626W        W 5145   6.634   3.226  10.449
 1627W        W 5146   7.835   6.096  10.867
 1628W        W 5147   3.211   2.893   0.294
 1629W        W 5148   2.779   6.430  11.050
 1630W        W 5149   3.642   0.969   3.027
 1631W        W 5150   7.739   8.479  11.301
 1632W        W 5151   3.685   8.800  10.575
 1633W        W 5152   9.816   9.983  11.753
 1634W        W 5153   4.614   3.266  10.250
 1635W        W 5154   1.042   9.676   0.476
 1636W        W 5155   6.629   7.493   3.301
 1637W        W 5156   1.066   2.837  10.705
 1638W        W 5157   5.436   2.744   0.286
 1639W        W 5158   3.229   8.283  10.151
 1640W        W 5159   3.562   4.239  11.279
 1641W        W 5160   0.675   4.923   0.925
 1642W        W 5161   3.583   5.891   9.176
 1643W        W 5162   4.169   0.071   1.852
 1644W        W 5163   1.823   5.853   2.703
 1645W        W 5164   0.448   9.311   8.643
 1646W        W 5165   4.164   2.192   2.666
 1647W        W 5166   3.742   6.350  10.426
 1648W        W 5167   3.825   6.102   9.978
 1649W        W 5168   2.054   1.502   0.884
 1650W        W 5169   9.627   1.006   1.411
 1651W        W 5170   4.612   7.165   3.197
 1652W        W 5171   2.692   8.975   9.628
 1653W        W 5172   6.769   9.954   1.389
 1654W        W 5173   5.212   4.959   3.294
 1655W        W 5174   3.363   1.092   0.315
 1656W        W 5175   4.304   9.101  11.239
 1657W        W 5176   3.759   9.213   1.139
 1658W        W 5177   0.469   4.163   9.542
 1659W        W 5178   1.941   2.735   2.179
 1660W        W 5179   2.306   8.853   8.776
 1661W        W 5180   1.303   7.640   9.958
 1662W        W 5181   9.992   8.077   2.221
 1663W        W 5182   8.131   5.401   0.857
 1664W        W 5183   0.927   0.874   9.993
 1665W        W 5184   1.346   4.930  11.944
 1666W        W 5185   4.188   8.556   0.683
 1667W        W 5186   5.215   5.939   0.448
 1668W        W 5187   2.611   6.448  10.052
 1669W        W 5188   0.872   7.215   9.524
 1670W        W 5189   7.938   6.870   2.092
 1671W        W 5190   0.019   2.170   9.399
 1672W        W 5191   1.674   0.019   9.306
 1673W        W 5192   8.836   0.896   2.575
 1674W        W 5193   4.529   5.152   1.759
 1675W        W 5194   7.486   9.426   0.909
 1676W        W 5195   5.577   3.845  11.834
 1677W        W 5196   6.474   5.966   2.309
 1678W        W 5197   7.448   0.314   0.070
 1679W        W 5198   6.339   0.476   9.235
 1680W        W 5199   0.588   9.048   9.974
 1681W        W 5200   7.944   0.202   2.543
 1682W        W 5201   2.899   5.557   3.222
 1683W        W 5202   7.267   1.798   2.846
 1684W        W 5203   6.094   4.551   3.106
 1685W        W 5204   0.906   2.496   9.867
 1686W        W 5205   2.893   9.580   1.445
 1687W        W 5206   5.103   4.970   0.078
 1688W        W 5207   9.508   0.064   3.394
 1689W        W 5208   5.593   2.594   9.531
 1690W        W 5209   7.418   8.862  11.048
 1691W        W 5210   6.734   4.297   4.146
 1692W        W 5211   6.919   8.226  11.748
 1693W        W 5212   6.128   7.650  10.823
 1694W        W 5213   6.393   6.958   8.716
 1695W        W 5214   3.529   7.586   0.595
 1696W        W 5215   8.003   9.529   1.629
 1697W        W 5216   7.219   6.133  10.076
 1698W        W 5217   0.906   3.978   2.941
 1699W        W 5218   4.549   6.614   2.406
 1700W        W 5219   6.675   0.563  10.460
 1701W        W 5220   8.606   9.058   9.847
 1702W        W 5221   4.281   8.734   2.915
 1703W        W 5222   7.885   8.867   0.452
 1704W        W 5223   3.357   9.179   3.187
 1705W        W 5224   9.806   6.704  10.471
 1706W        W 5225   8.658   3.151  11.831
 1707W        W 5226   2.097   1.494   1.929
 1708W        W 5227   7.193   7.056  11.469
 1709W        W 5228   0.086   7.035   3.305
 1710W        W 5229   3.232   6.429   8.444
 1711W        W 5230   0.700   7.945  10.959
 1712W        W 5231   1.214   3.112  11.163
 1713W        W 5232   1.582   1.222   8.750
 1714W        W 5233   9.781   7.497   8.975
 1715W        W 5234   5.930   9.503  11.791
 1716W        W 5235   4.040   7.169  10.633
 1717W        W 5236   3.348   0.421  10.117
 1718W        W 5237   0.848   8.496   1.280
 1719W        W 5238   8.076   0.189   9.982
 1720W        W 5239   9.583   9.243   3.477
 1721W        W 5240   4.901   8.445  11.350
 1722W        W 5241   2.687   8.300  10.388
 1723W        W 5242   5.991   9.263   1.265
 1724W        W 5243   8.163   7.473   2.652
 1725W        W 5244   0.873   4.076   1.210
 1726W        W 5245   2.085   0.794   1.285
 1727W        W 5246   9.808   8.333   3.274
 1728W        W 5247   5.248   8.000   9.569
 1729W        W 5248   8.373   1.742   0.548
 1730W        W 5249   0.474   5.668   0.328
 1731W        W 5250   0.280   7.972   0.737
 1732W        W 5251   6.297   5.888   1.169
 1733W        W 5252   8.683   8.846  10.708
 1734W        W 5253   4.374   9.734   0.598
 1735W        W 5254   5.336   7.493  10.682
 1736W        W 5255   6.533   0.237   2.130
 1737W        W 5256   3.929   5.105  10.962
 1738W        W 5257   1.738   2.660   9.105
 1739W        W 5258   7.599   0.358  10.119
 1740W        W 5259   1.620   8.028  10.489
 1741W        W 5260   4.794   6.232   4.080
 1742W        W 5261   2.137   2.527  11.563
 1743W        W 5262   0.183   7.496   3.505
 1744W        W 5263   1.428   5.367   0.176
 1745W        W 5264   7.103   7.835   3.232
 1746W        W 5265   2.277   7.404  11.557
 1747W        W 5266   5.800   9.594   8.580
 1748W        W 5267   8.664   3.265  10.008
 1749W        W 5268   4.401   7.831   9.995
 1750W        W 5269   4.590   9.530   1.365
 1751W        W 5270   3.018   1.837   9.940
 1752W        W 5271   6.331   5.060   1.466
 1753W        W 5272   4.453   5.127  10.780
 1754W        W 5273   3.402   6.806   0.800
 1755W        W 5274   9.594   1.806  11.536
 1756W        W 5275   5.067   5.441   8.318
 1757W        W 5276   3.140   5.965   1.070
 1758W        W 5277   5.125   0.131   1.706
 1759W        W 5278   1.379   0.209   2.072
 1760W        W 5279   9.081   6.695   2.524
 1761W        W 5280   7.176   0.804   2.139
 1762W        W 5281   7.711   4.550   9.499
 1763W        W 5282   3.784   4.438  10.349
 1764W        W 5283   8.453   2.633   0.501
 1765W        W 5284   1.220   3.362   2.168
 1766W        W 5285   2.785   8.875   1.976
 1767W        W 5286   1.403   9.401  10.863
 1768W        W 5287   3.288   3.166   2.906
 1769W        W 5288   2.842   5.540   8.892
 1770W        W 5289   8.412   4.503   8.312
 1771W        W 5290   1.331   6.153   2.027
 1772W        W 5291   1.991   0.492   9.475
 1773W        W 5292   1.880   9.166  10.658
 1774W        W 5293   0.001   6.513   1.399
 1775W        W 5294   9.111   6.545   3.053
 1776W        W 5295   8.810   3.130  11.333
 1777W        W 5296   5.800   4.118   3.643
 1778W        W 5297   7.268   9.049   8.793
 1779W        W 5298   0.447   5.690   2.689
 1780W        W 5299   7.667   9.866   1.830
 1781W        W 5300   0.675   5.180   2.016
 1782W        W 5301   6.410   9.793   2.914
 1783W        W 5302   7.087   1.416   1.247
 1784W        W 5303   6.850   0.074  10.567
 1785W        W 5304   1.149   3.317  10.656
 1786W        W 5305   5.437   8.927   1.893
 1787W        W 5306   1.355   3.986   1.394
 1788W        W 5307   5.125   1.767   2.384
 1789W        W 5308   7.906   9.810   3.275
 1790W        W 5309   3.262   0.865   9.875
 1791W        W 5310   6.141   0.210   0.679
 1792W        W 5311   9.869   2.749   1.765
 1793W        W 5312   5.947   6.447   3.252
 1794W        W 5313   6.359   9.047   0.188
 1795W        W 5314   4.203   7.991   8.614
 1796W        W 5315   3.134   6.006   9.472
 1797W        W 5316   8.013   1.429   0.356
 1798W        W 5317   7.532   9.843   9.498
 1799W        W 5318   1.705   7.469   0.809
 1800W        W 5319   6.089   3.697  11.863
 1801W        W 5320   5.867   0.555   3.747
 1802W        W 5321   4.649   1.384   9.871
 1803W        W 5322   2.902   1.722  11.188
 1804W        W 5323   8.046   6.968   2.582
 1805W        W 5324   3.018   5.568   9.724
 1806W        W 5325   2.793   3.059   0.552
 1807W        W 5326   4.022   1.802   9.970
 1808W        W 5327   2.703   9.319   8.199
 1809W        W 5328   5.202   6.251   8.721
 1810W        W 5329   8.040   8.892  10.415
 1811W        W 5330   1.328   4.066  10.982
 1812W        W 5331   5.009   4.595   3.609
 1813W        W 5332   8.198   4.378   3.601
 1814W        W 5333   5.680   6.244   8.320
 1815W        W 5334   8.638   0.822  11.649
 1816W        W 5335   1.255   6.509   2.820
 1817W        W 5336   3.593   5.296  10.526
 1818W        W 5337   6.658   8.127   0.536
 1819W        W 5338   6.570   6.516   8.531
 1820W        W 5339   4.495   9.267  10.778
 1821W        W 5340   0.001   8.998   8.616
 1822W        W 5341   8.864   7.389   1.822
 1823W        W 5342   8.432   4.729   9.579
 1824W        W 5343   8.821   5.784  10.953
 1825W        W 5344   3.726   5.538   2.759
 1826W        W 5345   1.256   2.222  11.107
 1827W        W 5346   6.508   2.057   9.153
 1828W        W 5347   0.989   1.717   1.235
 1829W        W 5348   1.467   4.974  11.451
 1830W        W 5349   2.768   3.139   2.471
 1831W        W 5350   9.996   3.878   1.142
 1832W        W 5351   3.401   0.258   1.139
 1833W        W 5352   3.821   1.231   1.241
 1834W        W 5353   9.126   3.697   8.812
 1835W        W 5354   3.738   7.040   1.409
 1836W        W 5355   0.452   1.864   9.367
 1837W        W 5356   4.547   8.716   0.344
 1838W        W 5357   4.669   6.887   9.993
 1839W        W 5358   3.701   0.765  11.834
 1840W        W 5359   0.172   8.036   0.249
 1841W        W 5360   3.991   0.336   2.254
 1842W        W 5361   7.589   9.779   2.734
 1843W        W 5362   4.995   6.080   0.917
 1844W        W 5363   4.793   8.331  10.881
 1845W        W 5364   6.070   1.355  10.770
 1846W        W 5365   5.987   2.262   3.144
 1847W        W 5366   5.952   4.122   8.702
 1848W        W 5367   0.692   3.590  10.624
 1849W        W 5368   4.725   6.939   2.753
 1850W        W 5369   7.557   4.881   9.873
 1851W        W 5370   5.099   6.063  10.290
 1852W        W 5371   7.304   1.161  10.514
 1853W        W 5372   9.812   7.155   1.963
 1854W        W 5373   2.532   5.972  11.674
 1855W        W 5374   6.383   7.900   3.510
 1856W        W 5375   8.643   3.503   8.681
 1857W        W 5376   2.622   4.049   0.420
 1858W        W 5377   8.247   1.467  10.463
 1859W        W 5378   8.874   5.462   9.482
 1860W        W 5379   1.207   3.746   0.472
 1861W        W 5380   8.364   5.204   2.810
 1862W        W 5381   2.736   4.022   8.893
 1863W        W 5382   0.586   0.205   0.047
 1864W        W 5383   6.843   2.854   8.892
 1865W        W 5384   1.289   5.489   9.049
 1866W        W 5385   3.702   4.282   2.473
 1867W        W 5386   0.028   1.957  10.721
 1868W        W 5387   6.039   6.517   8.627
 1869W        W 5388   5.754   8.452   0.687
 1870W        W 5389   9.720   3.267   1.751
 1871W        W 5390   4.043   9.571   1.917
 1872W        W 5391   9.333   5.694  10.995
 1873W        W 5392   2.600   8.555   0.980
 1874W        W 5393   2.421   0.355   9.236
 1875W        W 5394   8.511   6.101   2.499
 1876W        W 5395   6.827   2.031   2.751
 1877W        W 5396   0.652   3.546   0.748
 1878W        W 5397   9.015   5.331  10.802
 1879W        W 5398   5.838   5.165  10.273
 1880W        W 5399   8.900   0.188   0.412
 1881W        W 5400   2.691   3.421   1.068
 1882W        W 5401   1.960   2.606  10.713
 1883W        W 5402   7.492   1.275  10.037
 1884W        W 5403   9.477   3.656   3.673
 1885W        W 5404   6.796   5.609   2.603
 1886W        W 5405   3.305   9.008   0.914
 1887W        W 5406   7.281   5.491  11.320
 1888W        W 5407   3.836   2.463   9.499
 1889W        W 5408   9.884   9.318  11.067
 1890W        W 5409   0.034   3.624  11.865
 1891W        W 5410   6.325   9.682   1.349
 1892W        W 5411   4.706   1.467  10.540
 1893W        W 5412   5.565   4.705   2.918
 1894W        W 5413   1.818   7.811   2.551
 1895W        W 5414   2.383   4.655   2.393
 1896W        W 5415   0.892   6.546  10.978
 1897W        W 5416   9.933   5.225  11.204
 1898W        W 5417   2.223   9.667   9.984
 1899W        W 5418   3.787   2.626   1.036
 1900W        W 5419   2.374   7.031   0.690
 1901W        W 5420   8.535   6.222   0.410
 1902W        W 5421   3.899   6.697   0.920
 1903W        W 5422   0.493   4.092   9.041
 1904W        W 5423   4.226   8.856  10.683
 1905W        W 5424   3.209   0.701   3.197
 1906W        W 5425   0.344   2.086   1.318
 1907W        W 5426   9.455   9.341  10.773
 1908W        W 5427   8.012   2.007   2.183
 1909W        W 5428   6.455   9.301   1.030
 1910W        W 5429   8.506   6.812  11.603
 1911W        W 5430   2.366   8.448   0.430
 1912W        W 5431   6.797   9.788   9.254
 1913W        W 5432   7.467   2.031  10.362
 1914W        W 5433   2.565   6.996  11.308
 1915W        W 5434   4.602   4.716   9.856
 1916W        W 5435   4.597   1.310   2.946
 1917W        W 5436   0.242   0.411   9.092
 1918W        W 5437   9.436   5.852  11.469
 1919W        W 5438   1.355   9.216   1.665
 1920W        W 5439   3.569   9.255  10.292
 1921W        W 5440   4.752   9.493   0.873
 1922W        W 5441   8.583   8.168  11.504
 1923W        W 5442   0.137   3.727   9.795
 1924W        W 5443   8.531   8.554   9.733
 1925W        W 5444   8.777   5.611  11.781
 1926W        W 5445   8.972   2.599   2.004
 1927W        W 5446   4.141   7.600   9.169
 1928W        W 5447   8.484   8.011  10.519
 1929W        W 5448   7.904   5.908   1.607
 1930W        W 5449   3.214   4.207   9.090
 1931W        W 5450   8.147   6.662   8.552
 1932W        W 5451   2.661   5.265   1.166
 1933W        W 5452   5.404   9.766   1.947
 1934W        W 5453   8.016   0.674   2.334
 1935W        W 5454   0.279   5.927   8.605
 1936W        W 5455   4.640   8.520   1.435
 1937W        W 5456   8.579   8.415   9.241
 1938W        W 5457   1.607   6.770   8.706
 1939W        W 5458   2.353   3.251   0.719
 1940W        W 5459   6.661   4.532  11.981
 1941W        W 5460   0.762   2.518   2.503
 1942W        W 5461   5.044   0.858   8.987
 1943W        W 5462   4.694   2.802   3.261
 1944W        W 5463   8.068   7.676   3.125
 1945W        W 5464   8.444   4.168   1.346
 1946W        W 5465   9.974   6.847   0.518
 1947W        W 5466   1.306   6.326   9.529
 1948W        W 5467   6.404   1.004   0.842
 1949W        W 5468   1.562   7.481   2.265
 1950W        W 5469   4.228   3.667   2.206
 1951W        W 5470   1.214   8.516   9.976
 1952W        W 5471   4.770   2.016   9.446
 1953W        W 5472   5.674   9.697  10.065
 1954W        W 5473   1.926   3.929   9.816
 1955W        W 5474   9.120   6.178  10.979
 1956W        W 5475   5.981   4.423   0.377
 1957W        W 5476   8.828   7.768   1.455
 1958W        W 5477   7.381   0.796   9.869
 1959W        W 5478   0.044   9.652   0.457
 1960W        W 5479   5.160   6.583   2.334
 1961W        W 5480   7.147   1.087   1.708
 1962W        W 5481   1.204   7.089   8.621
 1963W        W 5482   4.698   7.995   1.378
 1964W        W 5483   0.693   3.894  11.397
 1965W        W 5484   0.467   2.378  11.450
 1966W        W 5485   5.865   9.399  10.811
 1967W        W 5486   5.573   1.874   0.886
 1968W        W 5487   7.391   7.663   2.781
 1969W        W 5488   4.395   3.183   2.186
 1970W        W 5489   8.885   9.218   0.931
 1971W        W 5490   0.964   5.785   2.750
 1972W        W 5491   1.608   5.002   2.479
 1973W        W 5492   5.073   2.540   4.209
 1974W        W 5493   4.636   6.984   1.200
 1975W        W 5494   2.086   3.509  11.402
 1976W        W 5495   8.332   3.810   3.208
 1977W        W 5496   6.438   8.905   3.608
 1978W        W 5497   1.382   8.108   2.727
 1979W        W 5498   3.553   4.106   8.137
 1980W        W 5499   6.422   5.656   3.551
 1981W        W 5500   8.381   4.530   0.236
 1982W        W 5501   0.024   9.814  10.253
 1983W        W 5502   5.237   3.535   0.758
 1984W        W 5503   5.617   7.898   2.358
 1985W        W 5504   5.779   7.394   0.027
 1986W        W 5505   2.688   8.584   2.896
 1987W        W 5506   2.921   1.814   3.613
 1988W        W 5507   4.479   2.332  10.611
 1989W        W 5508   5.236   9.370   3.062
 1990W        W 5509   6.890   8.983   1.577
 1991W        W 5510   8.460   7.149  10.637
 1992W        W 5511   0.121   4.068   1.724
 1993W        W 5512   9.789   1.009   3.281
 1994W        W 5513   5.014   9.215   2.639
 1995W        W 5514   1.161   8.492  10.495
 1996W        W 5515   9.616   2.378   3.516
 1997W        W 5516   0.886   0.619   0.262
 1998W        W 5517   1.582   9.050   1.247
 1999W        W 5518   5.573   7.272   3.615
 2000W        W 5519   7.488   1.080   1.343
 2001W        W 5520   6.199   0.758   0.025
 2002W        W 5521   7.807   0.374  10.584
 2003W        W 5522   0.497   1.596   1.371
 2004W        W 5523   5.493   5.072  11.308
 2005W        W 5524   2.359   4.371   0.783
 2006W        W 5525   7.647   7.614  10.417
 2007W        W 5526   4.831   9.961   0.622
 2008W        W 5527   7.289   2.128   9.044
 2009W        W 5528   7.250   5.685   3.988
 2010W        W 5529   1.212   2.236   1.330
 2011W        W 5530   4.320   5.268   3.278
 2012W        W 5531   3.504   5.797   7.906
 2013W        W 5532   1.032   7.076   3.523
 2014W        W 5533   0.477   3.627   3.615
 2015W        W 5534   8.914   7.795  11.690
 2016W        W 5535   5.489   4.229  11.493
 2017W        W 5536   2.607   7.936  10.749
 2018W        W 5537   5.609   1.050   3.583
 2019W        W 5538   4.275   4.687   1.785
 2020W        W 5539   5.005   6.832   3.170
 2021W        W 5540   9.421   7.966  11.013
 2022W        W 5541   9.329   8.976  11.154
 2023W        W 5542   6.001   8.811   0.446
 2024W        W 5543   0.396   7.595   0.409
 2025W        W 5544   8.202   2.897   9.570
 2026W        W 5545   6.175   7.936   0.585
 2027W        W 5546   2.747   7.475  11.288
 2028W        W 5547   0.320   2.637   1.959
 2029W        W 5548   6.872   6.278  11.848
 2030W        W 5549   6.827   7.330   9.058
 2031W        W 5550   2.726   9.756   8.979
 2032W        W 5551   6.732   3.570   8.526
 2033W        W 5552   1.756   8.771   9.332
 2034W        W 5553   5.642   3.837   9.917
 2035W        W 5554   5.949   7.554   1.794
 2036W        W 5555   6.267   4.071   3.895
 2037W        W 5556   6.639   7.353   9.527
 2038W        W 5557   2.278   2.792   0.475
 2039W        W 5558   8.020   2.267   9.069
 2040W        W 5559   9.106   8.169   1.655
 2041W        W 5560   0.778   5.181  11.518
 2042W        W 5561   4.968   0.544   2.970
 2043W        W 5562   6.097   7.409   0.434
 2044W        W 5563   6.332   0.850  11.543
 2045W        W 5564   3.023   6.456   0.911
 2046W        W 5565   9.953   2.160   2.127
 2047W        W 5566   8.702   3.822   9.440
 2048W        W 5567   0.850   7.105  11.830
 2049W        W 5568   2.530   3.590   2.329
 2050W        W 5569   0.891   7.011   9.033
 2051W        W 5570   1.342   7.455   9.463
 2052W        W 5571   2.966   7.031   9.230
 2053W        W 5572   2.812   3.865   9.762
 2054W        W 5573   7.204   3.163   3.253
 2055W        W 5574   5.186   7.087  11.446
 2056W        W 5575   7.182   8.703   0.690
 2057W        W 5576   6.599   3.878   2.949
 2058W        W 5577   0.004   9.517   8.811
 2059W        W 5578   0.259   7.207   2.832
 2060W        W 5579   9.728   7.726   2.512
 2061W        W 5580   2.817   3.694   1.907
 2062W        W 5581   9.251   1.810   0.489
 2063W        W 5582   9.342   2.079  10.653
 2064W        W 5583   0.174   6.587   2.136
 2065W        W 5584   3.264   4.206   8.575
 2066W        W 5585   2.882   5.972  11.303
 2067W        W 5586   8.202   5.407   0.318
 2068W        W 5587   4.558   8.513   2.277
 2069W        W 5588   4.176   7.206  11.385
 2070W        W 5589   9.672   9.096   2.998
 2071W        W 5590   5.045   8.332   1.203
 2072W        W 5591   5.280   5.166   8.721
 2073W        W 5592   1.633   8.214   1.029
 2074W        W 5593   2.652   9.063   1.020
 2075W        W 5594   9.349   5.504   2.386
 2076W        W 5595   1.776   1.316   3.545
 2077W        W 5596   0.929   6.750   3.135
 2078W        W 5597   7.077   0.855   3.108
 2079W        W 5598   0.296   2.779   3.075
 2080W        W 5599   7.972   2.148   0.919
 2081W        W 5600   1.553   7.638   1.288
 2082W        W 5601   9.205   0.387   1.352
 2083W        W 5602   6.277   3.588   3.182
 2084W        W 5603   5.169   4.471   2.011
 2085W        W 5604   5.572   3.125   3.133
 2086W        W 5605   4.901   7.389   1.013
 2087W        W 5606   6.470   9.852   3.478
 2088W        W 5607   5.223   7.280   3.243
 2089W        W 5608   3.309   2.975  11.206
 2090W        W 5609   1.172   5.815   8.631
 2091W        W 5610   0.810   1.147   0.806
 2092W        W 5611   5.443   1.383  11.147
 2093W        W 5612   9.276   7.090   1.208
 2094W        W 5613   3.617   3.428   0.222
 2095W        W 5614   2.648   4.343   1.289
 2096W        W 5615   7.759   8.440   2.644
 2097W        W 5616   9.016   2.233  11.515
 2098W        W 5617   0.716   2.413   3.542
 2099W        W 5618   6.448   7.622   1.762
 2100W        W 5619   8.306   1.256   8.568
 2101W        W 5620   0.658   4.124   1.744
 2102W        W 5621   7.451   4.916  11.373
 2103W        W 5622   9.030   1.342  10.108
 2104W        W 5623   3.245   2.485   1.063
 2105W        W 5624   6.007   8.132  10.715
 2106W        W 5625   0.452   1.385   9.230
 2107W        W 5626   2.848   6.442  10.551
 2108W        W 5627   7.161   7.352   3.486
 2109W        W 5628   7.480   1.810   9.911
 2110W        W 5629   4.938   8.404   1.901
 2111W        W 5630   7.902   8.856   2.304
 2112W        W 5631   4.015   3.116   9.002
 2113W        W 5632   9.583   4.839  11.342
 2114W        W 5633   1.801   2.159  10.958
 2115W        W 5634   0.497   1.250  10.110
 2116W        W 5635   0.076   9.301   3.230
 2117W        W 5636   4.094   4.137   0.003
 2118W        W 5637   7.338   2.693   0.413
 2119W        W 5638   9.412   6.919  10.195
 2120W        W 5639   2.161   6.128   2.989
 2121W        W 5640   5.392   7.119   8.537
 2122W        W 5641   7.198   2.108   0.564
 2123W        W 5642   8.261   3.095   0.415
 2124W        W 5643   3.545   4.068   1.537
 2125W        W 5644   9.920   2.226   1.590
 2126W        W 5645   0.708   2.850   1.700
 2127W        W 5646   5.139   3.828  11.497
 2128W        W 5647   2.486   2.774   2.273
 2129W        W 5648   5.114   8.236   0.699
 2130W        W 5649   2.784   1.357   1.385
 2131W        W 5650   6.409   7.525   0.814
 2132W        W 5651   5.713   5.609  11.972
 2133W        W 5652   8.902   2.205  10.889
 2134W        W 5653   1.682   6.578   9.749
 2135W        W 5654   6.460   3.700  10.508
 2136W        W 5655   0.827   5.382   2.457
 2137W        W 5656   0.826   1.260  11.749
 2138W        W 5657   0.339   5.065   3.119
 2139W        W 5658   9.077   5.662   9.064
 2140W        W 5659   5.656   9.857  10.995
 2141W        W 5660   5.219   4.955   0.557
 2142W        W 5661   4.269   7.811   1.614
 2143W        W 5662   2.038   4.861   2.770
 2144W        W 5663   1.782   6.951   2.820
 2145W        W 5664   8.097   8.701   0.896
 2146W        W 5665   8.284   9.179   8.633
 2147W        W 5666   1.869   5.211  11.245
 2148W        W 5667   5.421   8.434   2.108
 2149W        W 5668   3.506   2.411   8.759
 2150W        W 5669   4.765   8.470   9.095
 2151W        W 5670   1.869   9.586  11.080
 2152W        W 5671   8.961   7.136   2.771
 2153W        W 5672   2.789   3.041  10.441
 2154W        W 5673   6.627   4.344   3.140
 2155W        W 5674   9.077   4.863   3.126
 2156W        W 5675   5.851   6.169   4.057
 2157W        W 5676   8.804   7.879   1.951
 2158W        W 5677   0.805   6.103   0.857
 2159W        W 5678   1.234   2.557  10.310
 2160W        W 5679   7.262   9.869   9.016
 2161W        W 5680   0.259   9.270   1.620
 2162W        W 5681   1.577   8.902  10.949
 2163W        W 5682   3.244   5.664   1.489
 2164W        W 5683   3.343   0.396   9.050
 2165W        W 5684   3.310   9.696   3.132
 2166W        W 5685   7.221   1.553   8.633
 2167W        W 5686   2.356   4.867   9.199
 2168W        W 5687   8.529   4.848   9.017
 2169W        W 5688   0.257   8.841   0.170
 2170W        W 5689   9.824   4.134   9.802
 2171W        W 5690   5.908   1.899   0.510
 2172W        W 5691   3.561   0.166   2.455
 2173W        W 5692   4.183   0.222   0.794
 2174W        W 5693   9.358   9.031   1.069
 2175W        W 5694   3.620   9.566   9.874
 2176W        W 5695   1.040   4.738  11.571
 2177W        W 5696   7.990   6.375   1.251
 2178W        W 5697   1.341   4.246  10.504
 2179W        W 5698   9.360   2.684   0.554
 2180W        W 5699   3.859   1.230   0.734
 2181W        W 5700   2.342   5.413   1.535
 2182W        W 5701   0.566   8.130   2.918
 2183W        W 5702   4.134   1.917   8.529
 2184W        W 5703   9.503   0.600   3.060
 2185W        W 5704   0.937   6.394   9.864
 2186W        W 5705   6.159   9.970  11.796
 2187W        W 5706   6.244   6.673  10.172
 2188W        W 5707   9.254   7.126   0.392
 2189W        W 5708   2.241   9.627   0.350
 2190W        W 5709   6.589   3.348   1.705
 2191W        W 5710   8.229   4.792   0.656
 2192W        W 5711   4.530   7.659   9.502
 2193W        W 5712   7.954   1.395   9.210
 2194W        W 5713   7.089   2.613  11.662
 2195W        W 5714   3.418   6.482   3.078
 2196W        W 5715   6.982   5.156   2.777
 2197W        W 5716   7.131   2.644  11.162
 2198W        W 5717   9.835   9.411   8.345
 2199W        W 5718   8.896   4.562   8.758
 2200W        W 5719   6.201   8.287   1.816
 2201W        W 5720   3.525   7.451   2.635
 2202W        W 5721   6.478   3.186   2.233
 2203W        W 5722   6.538   5.014   0.185
 2204W        W 5723   5.960   5.659  10.391
 2205W        W 5724   9.907   0.767   9.848
 2206W        W 5725   2.178   0.633   0.475
 2207W        W 5726   2.598   8.233  11.764
 2208W        W 5727   1.238   6.830   9.546
 2209W        W 5728   2.672   9.100   1.523
 2210W        W 5729   7.536   4.275  10.463
 2211W        W 5730   8.297   1.002   1.390
 2212W        W 5731   6.309   7.403  11.913
 2213W        W 5732   0.950   2.189   0.042
 2214W        W 5733   2.743   5.069   3.665
 2215W        W 5734   5.068   8.513  10.060
 2216W        W 5735   0.278   7.399   8.869
 2217W        W 5736   7.425   2.318   9.943
 2218W        W 5737   9.213   3.779   1.754
 2219W        W 5738   0.078   1.754   1.654
 2220W        W 5739   2.468   7.917   3.446
 2221W        W 5740   9.884   2.139   1.047
 2222W        W 5741   5.503   8.776  10.067
 2223W        W 5742   5.375   4.215   2.858
 2224W        W 5743   1.152   6.941  11.280
 2225W        W 5744   3.757   5.015   0.382
 2226W        W 5745   3.564   3.087  10.358
 2227W        W 5746   8.389   0.915   9.892
 2228W        W 5747   7.592   6.068   1.150
 2229W        W 5748   2.575   6.475  11.508
 2230W        W 5749   8.939   7.931   9.748
 2231W        W 5750   7.154   9.710   1.705
 2232W        W 5751   4.665   9.733  10.807
 2233W        W 5752   4.850   9.877   9.680
 2234W        W 5753   5.510   6.714   3.237
 2235W        W 5754   9.432   7.385   2.218
 2236W        W 5755   0.005   2.990   0.519
 2237W        W 5756   4.562   6.517  10.902
 2238W        W 5757   5.317   6.200  10.712
 2239W        W 5758   3.012   2.180   3.963
 2240W        W 5759   4.487   5.032   1.271
 2241W        W 5760   1.022   5.637   0.895
 2242W        W 5761   9.432   7.031  11.754
 2243W        W 5762   2.257   0.754  11.552
 2244W        W 5763   6.850   7.755   3.674
 2245W        W 5764   4.430   8.207  11.338
 2246W        W 5765   1.662   3.933  10.241
 2247W        W 5766   3.615   9.386  10.787
 2248W        W 5767   0.968   0.878  10.785
 2249W        W 5768   5.872   9.809   9.555
 2250W        W 5769   9.562   8.889   8.957
 2251W        W 5770   7.584   6.774   9.503
 2252W        W 5771   5.506   8.500   1.108
 2253W        W 5772   7.489   2.788   1.112
 2254W        W 5773   7.380   1.854   0.040
 2255W        W 5774   8.858   3.771   0.485
 2256W        W 5775   3.543   5.001   3.915
 2257W        W 5776   0.536   9.473   9.675
 2258W        W 5777   7.373   9.347  10.790
 2259W        W 5778   7.996   3.574   1.789
 2260W        W 5779   8.042   8.209  10.977
 2261W        W 5780   7.842   9.372  10.359
 2262W        W 5781   2.791   0.971  11.448
 2263W        W 5782   0.425   8.857   8.940
 2264W        W 5783   3.617   3.108   0.637
 2265W        W 5784   1.716   5.133   2.012
 2266W        W 5785   6.692   7.115   0.799
 2267W        W 5786   9.873   8.945   2.007
 2268W        W 5787   0.816   9.721   9.272
 2269W        W 5788   2.049   4.234  11.077
 2270W        W 5789   9.477   0.141  10.253
 2271W        W 5790   4.822   4.850   2.053
 2272W        W 5791   5.985   3.199   3.428
 2273W        W 5792   1.087   3.572   8.927
 2274W        W 5793   8.201   8.018   8.610
 2275W        W 5794   2.204   9.143  11.774
 2276W        W 5795   1.235   8.855   2.046
 2277W        W 5796   1.174   8.888   3.084
 2278W        W 5797   9.829   9.291   0.787
 2279W        W 5798   8.627   1.637  11.215
 2280W        W 5799   8.683   5.228   0.147
 2281W        W 5800   5.788   1.556  10.396
 2282W        W 5801   1.003   8.992  10.494
 2283W        W 5802   7.159   4.590   9.660
 2284W        W 5803   1.393   5.326   9.531
 2285W        W 5804   0.999   1.818  10.757
 2286W        W 5805   4.644   4.784   3.256
 2287W        W 5806   2.737   3.806   2.805
 2288W        W 5807   2.331   6.843  11.755
 2289W        W 5808   8.332   8.430   1.303
 2290W        W 5809   4.219   7.612   2.340
 2291W        W 5810   2.822   2.319  11.882
 2292W        W 5811   0.912   3.145   0.940
 2293W        W 5812   6.052   2.260   8.957
 2294W        W 5813   9.270   5.515  11.853
 2295W        W 5814   1.756   0.784  11.743
 2296W        W 5815   0.966   9.285   0.159
 2297W        W 5816   8.981   2.653   3.468
 2298W        W 5817   6.232   1.251   8.578
 2299W        W 5818   5.795   5.450   3.623
 2300W        W 5819   3.554   4.592   8.347
 2301W        W 5820   8.024   9.187   0.834
 2302W        W 5821   2.344   4.433   0.242
 2303W        W 5822   9.071   8.337   2.610
 2304W        W 5823   4.137   6.284  11.132
 2305W        W 5824   5.588   7.983  11.425
 2306W        W 5825   2.676   7.312  10.222
 2307W        W 5826   6.728   0.526   9.929
 2308W        W 5827   7.738   7.832   9.064
 2309W        W 5828   2.467   8.525   9.537
 2310W        W 5829   1.056   6.032   3.436
 2311W        W 5830   7.914   3.764  10.056
 2312W        W 5831   6.789   8.294  10.359
 2313W        W 5832   3.277   7.039  10.061
 2314W        W 5833   0.205   8.983   0.657
 2315W        W 5834   8.291   3.766   9.719
 2316W        W 5835   8.488   4.301   3.181
 2317W        W 5836   8.508   6.642  10.614
 2318W        W 5837   5.304   7.457   9.802
 2319W        W 5838   9.035   7.941   2.911
 2320W        W 5839   4.178   2.511  11.989
 2321W        W 5840   7.851   9.164  10.839
 2322W        W 5841   1.301   4.043   0.897
 2323W        W 5842   3.314   5.808   3.621
 2324W        W 5843   6.056   8.609  10.924
 2325W        W 5844   6.496   2.946   1.035
 2326W        W 5845   8.931   6.726   8.402
 2327W        W 5846   6.674   3.650  11.050
 2328W        W 5847   9.772   3.949   2.390
 2329W        W 5848   8.452   3.143  10.952
 2330W        W 5849   1.389   6.996   2.115
 2331W        W 5850   3.175   3.665   3.052
 2332W        W 5851   2.399   6.184  10.651
 2333W        W 5852   0.271   7.503   0.933
 2334W        W 5853   7.847   6.978   9.885
 2335W        W 5854   9.892   8.563   9.995
 2336W        W 5855   3.252   6.135  10.004
 2337W        W 5856   5.976   8.971  10.167
 2338W        W 5857   3.834   3.820  11.310
 2339W        W 5858   7.411   4.947   9.391
 2340W        W 5859   0.357   0.233   1.331
 2341W        W 5860   3.287   0.367   8.533
 2342W        W 5861   5.445   5.811   8.533
 2343W        W 5862   7.481   1.337   9.019
 2344W        W 5863   5.650   5.482   8.884
 2345W        W 5864   9.433   7.052   2.603
 2346W        W 5865   9.902   3.450   2.466
 2347W        W 5866   7.129   6.927   1.718
 2348W        W 5867   3.699   1.268  10.932
 2349W        W 5868   7.910   6.154  11.860
 2350W        W 5869   4.427   5.346  11.250
 2351W        W 5870   6.939   6.908   9.485
 2352W        W 5871   8.459   7.479   8.807
 2353W        W 5872   4.444   2.284  11.130
 2354W        W 5873   9.537   8.749   0.136
 2355W        W 5874   4.612   9.027   1.410
 2356W        W 5875   2.834   5.266   1.637
 2357W        W 5876   1.538   0.423  11.105
 2358W        W 5877   0.236   4.575   0.517
 2359W        W 5878   3.391   5.835   0.080
 2360W        W 5879   6.073   3.713   2.714
 2361W        W 5880   1.728   8.228   3.410
 2362W        W 5881   1.971   4.885  10.792
 2363W        W 5882   3.278   1.805   2.165
 2364W        W 5883   8.424   9.226  10.445
 2365W        W 5884   4.247   8.516   3.420
 2366W        W 5885   1.903   4.200   0.983
 2367W        W 5886   8.822   1.094   0.895
 2368W        W 5887   1.597   8.890   9.940
 2369W        W 5888   5.868   0.732   3.256
 2370W        W 5889   5.549   5.359  10.635
 2371W        W 5890   7.604   9.728   1.341
 2372W        W 5891   9.411   8.021   9.528
 2373W        W 5892   0.718   5.724  10.434
 2374W        W 5893   2.069   4.161   1.936
 2375W        W 5894   3.795   1.209  10.075
 2376W        W 5895   7.358   5.120  10.299
 2377W        W 5896   7.891   0.702   9.841
 2378W        W 5897   0.627   0.202   9.372
 2379W        W 5898   9.889   8.364   1.336
 2380W        W 5899   9.451   9.851   9.358
 2381W        W 5900   8.120   7.548  11.916
 2382W        W 5901   9.471   4.510   0.921
 2383W        W 5902   0.089   3.509   1.474
 2384W        W 5903   9.870   7.875   9.799
 2385W        W 5904   8.033   5.823   9.072
 2386W        W 5905   0.443   0.169  10.418
 2387W        W 5906   5.637   4.591   9.440
 2388W        W 5907   5.643   3.530  10.798
 2389W        W 5908   9.109   7.539   9.500
 2390W        W 5909   6.634   4.763   3.902
 2391W        W 5910   1.621   1.371   3.061
 2392W        W 5911   2.598   2.292   2.249
 2393W        W 5912   0.100   6.385  10.200
 2394W        W 5913   4.940   3.206   2.020
 2395W        W 5914   8.629   0.742   1.684
 2396W        W 5915   2.053   1.363   9.497
 2397W        W 5916   5.076   4.707   9.672
 2398W        W 5917   7.297   6.565   9.149
 2399W        W 5918   2.984   1.319  10.386
 2400W        W 5919   3.640   4.684  11.571
 2401W        W 5920   3.721   1.536   9.660
 2402W        W 5921   1.966   2.144  11.872
 2403W        W 5922   4.016   4.974   3.575
 2404W        W 5923   8.058   4.103  11.078
 2405W        W 5924   7.538   3.981   2.812
 2406W        W 5925   6.198   2.972  11.392
 2407W        W 5926   9.732   7.522  10.748
 2408W        W 5927   8.745   1.722   1.785
 2409W        W 5928   7.491   5.669   1.440
 2410W        W 5929   3.007   8.278   1.131
 2411W        W 5930   4.522   1.556   8.568
 2412W        W 5931   3.119   9.948   2.169
 2413W        W 5932   0.950   2.865   2.144
 2414W        W 5933   7.016   3.979   3.801
 2415W        W 5934   5.522   1.734   3.868
 2416W        W 5935   6.937   5.577  10.925
 2417W        W 5936   7.202   5.716   3.118
 2418W        W 5937   9.244   4.151   8.595
 2419W        W 5938   7.243   3.719   9.216
 2420W        W 5939   8.582   9.799   9.230
 2421W        W 5940   9.757   5.222   2.526
 2422W        W 5941   5.145   0.999  10.404
 2423W        W 5942   8.989   6.048   3.206
 2424W        W 5943   5.125   9.627   3.499
 2425W        W 5944   1.285   8.354   3.173
 2426W        W 5945   8.579   5.695   9.840
 2427W        W 5946   7.443   7.795   9.534
 2428W        W 5947   9.296   9.303  10.225
 2429W        W 5948   3.694   7.263  11.576
 2430W        W 5949   4.576   3.595   7.957
 2431W        W 5950   4.436   8.008   9.115
 2432W        W 5951   5.933   5.992   3.020
 2433W        W 5952   6.602   9.825   8.755
 2434W        W 5953   1.515   5.779  10.896
 2435W        W 5954   0.909   1.979   9.768
 2436W        W 5955   3.601   5.750  10.276
 2437W        W 5956   2.353   9.343   0.739
 2438W        W 5957   1.142   1.089   2.491
 2439W        W 5958   1.813   3.571   2.785
 2440W        W 5959   1.872   0.820  11.201
 2441W        W 5960   4.662   4.615   9.354
 2442W        W 5961   0.771   9.307   3.358
 2443W        W 5962   6.520   7.137   0.301
 2444W        W 5963   1.406   7.084   0.652
 2445W        W 5964   1.811   7.629  11.772
 2446W        W 5965   2.062   6.996  11.301
 2447W        W 5966   3.789   1.812   1.914
 2448W        W 5967   3.084   7.658   1.858
 2449W        W 5968   2.174   8.398  10.393
 2450W        W 5969   7.465   8.996   8.323
 2451W        W 5970   7.433   9.869  10.024
 2452W        W 5971   1.484   6.634  11.003
 2453W        W 5972   7.718   9.315   2.540
 2454W        W 5973   1.654   9.770   2.246
 2455W        W 5974   8.169   6.609  10.031
 2456W        W 5975   7.620   6.976   0.840
 2457W        W 5976   8.425   5.222   9.469
 2458W        W 5977   6.099   1.018   1.324
 2459W        W 5978   5.905   7.633   0.894
 2460W        W 5979   4.090   4.144   9.358
 2461W        W 5980   7.693   9.366   2.028
 2462W        W 5981   9.356   0.423   0.360
 2463W        W 5982   5.451   3.369   8.537
 2464W        W 5983   1.455   2.194  11.917
 2465W        W 5984   6.905   1.855   0.230
 2466W        W 5985   7.211   4.065   0.710
 2467W        W 5986   6.980   7.946   9.325
 2468W        W 5987   9.399   2.199   1.317
 2469W        W 5988   1.750   3.856  11.241
 2470W        W 5989   3.663   9.747  10.410
 2471W        W 5990   2.223   6.135   2.486
 2472W        W 5991   7.449   8.695   0.223
 2473W        W 5992   1.237   4.606   2.940
 2474W        W 5993   9.344   3.840  11.776
 2475W        W 5994   6.264   0.495   2.486
 2476W        W 5995   4.783   7.609   3.393
 2477W        W 5996   3.707   2.908   0.170
 2478W        W 5997   9.461   1.077  10.337
 2479W        W 5998   7.294   7.065   9.163
 2480W        W 5999   3.560   6.247   9.565
 2481W        W 6000   5.494   6.195   3.274
 2482W        W 6001   1.486   3.920   8.780
 2483W        W 6002   6.473   4.341  11.522
 2484W        W 6003   5.986   0.521   1.495
 2485W        W 6004   6.298   4.373   9.882
 2486W        W 6005   1.888   7.002   9.975
 2487W        W 6006   2.727   5.735   1.423
 2488W        W 6007   3.351   6.965   9.568
 2489W        W 6008   2.701   9.585  10.308
 2490W        W 6009   8.423   8.958   3.117
 2491W        W 6010   9.753   6.966   9.476
 2492W        W 6011   6.207   9.354   3.782
 2493W        W 6012   5.651   8.694   3.499
 2494W        W 6013   4.942   5.892  11.984
 2495W        W 6014   4.587   1.179   1.482
 2496W        W 6015   7.114   4.359   3.437
 2497W        W 6016   3.491   4.103   3.353
 2498W        W 6017   8.817   3.474   1.041
 2499W        W 6018   5.473   8.458   9.673
 2500W        W 6019   2.638   2.225   0.446
 2501W        W 6020   3.170   0.721  11.905
 2502W        W 6021   6.064   6.902   0.412
 2503W        W 6022   8.704   9.127   0.213
 2504W        W 6023   8.477   7.546   2.258
 2505W        W 6024   0.256   6.892  10.312
 2506W        W 6025   1.448   2.884   2.096
 2507W        W 6026   0.005   3.813   3.531
 2508W        W 6027   8.588   1.217   1.903
 2509W        W 6028   9.009   6.036   0.360
 2510W        W 6029   1.115   6.556   9.117
 2511W        W 6030   5.901   3.573   8.717
 2512W        W 6031   4.077   8.925   0.319
 2513W        W 6032   8.358   1.895   1.155
 2514W        W 6033   8.719   8.242  10.083
 2515W        W 6034   8.055   2.284   3.178
 2516W        W 6035   6.900   3.405   9.463
 2517W        W 6036   0.916   6.663   8.646
 2518W        W 6037   7.941   5.000   9.539
 2519W        W 6038   8.148   0.848  11.509
 2520W        W 6039   2.725   3.569   0.580
 2521W        W 6040   0.661   8.854   0.464
 2522W        W 6041   7.403   2.191  10.832
 2523W        W 6042   4.669   3.609   1.967
 2524W        W 6043   7.245   5.998   8.505
 2525W        W 6044   1.180   7.427   0.991
 2526W        W 6045   0.562   0.842  11.969
 2527W        W 6046   1.480   3.397   8.624
 2528W        W 6047   8.960   8.185   1.177
 2529W        W 6048   3.954   3.834   2.594
 2530W        W 6049   7.250   7.546   1.198
 2531W        W 6050   9.477   8.361  11.802
 2532W        W 6051   4.935   7.984   9.039
 2533W        W 6052   4.702   3.667   0.747
 2534W        W 6053   6.325   5.719  10.043
 2535W        W 6054   5.228   1.819  11.369
 2536W        W 6055   0.749   8.093   1.592
 2537W        W 6056   3.457   7.709   9.402
 2538W        W 6057   5.881   2.457   2.709
 2539W        W 6058   7.997   4.412  10.660
 2540W        W 6059   2.689   6.113   0.628
 2541W        W 6060   7.743   9.374   3.055
 2542W        W 6061   4.522   5.254   2.258
 2543W        W 6062   3.101   1.393   1.785
 2544W        W 6063   4.963   0.051   8.608
 2545W        W 6064   7.504   2.935  11.031
 2546W        W 6065   2.335   6.659  10.998
 2547W        W 6066   1.360   7.185  11.679
 2548W        W 6067   9.507   6.946   8.748
 2549W        W 6068   6.488   1.174   2.173
 2550W        W 6069   0.647   7.134  11.340
 2551W        W 6070   2.112   8.792  10.955
 2552W        W 6071   4.462   7.390   2.749
 2553W        W 6072   5.639   4.034  10.402
 2554W        W 6073   8.031   7.324  10.232
 2555W        W 6074   0.613   8.997   0.946
 2556W        W 6075   2.694   3.127   9.224
 2557W        W 6076   5.447   0.693   2.947
 2558W        W 6077   6.027   2.770   1.127
 2559W        W 6078   7.368   3.254   2.191
 2560W        W 6079   9.255   0.919   3.383
 2561W        W 6080   5.463   4.113   9.302
 2562W        W 6081   1.057   4.521   1.008
 2563W        W 6082   6.957   2.073   1.882
 2564W        W 6083   4.222   2.303   0.450
 2565W        W 6084   6.470   5.305   0.594
 2566W        W 6085   6.508   7.981   1.002
 2567W        W 6086   5.986   8.290   0.256
 2568W        W 6087   2.556   1.251   0.883
 2569W        W 6088   6.499   6.683   3.860
 2570W        W 6089   5.901   4.850   9.046
 2571W        W 6090   5.409   0.336   8.752
 2572W        W 6091   8.376   6.329  11.618
 2573W        W 6092   6.469   9.768  10.444
 2574W        W 6093   7.182   5.659   0.536
 2575W        W 6094   0.347   6.952  11.759
 2576W        W 6095   7.077   1.592   1.759
 2577W        W 6096   8.116   1.131   2.116
 2578W        W 6097   5.715   3.099   9.481
 2579W        W 6098   8.844   9.581   2.714
 2580W        W 6099   4.139   3.624   3.061
 2581W        W 6100   9.354   4.011  10.313
 2582W        W 6101   4.148   3.333  11.454
 2583W        W 6102   6.641   7.144   2.435
 2584W        W 6103   1.839   3.097   8.862
 2585W        W 6104   8.174   2.235  10.919
 2586W        W 6105   2.259   6.971   3.025
 2587W        W 6106   7.794   1.233  11.509
 2588W        W 6107   0.402   1.155   2.026
 2589W        W 6108   8.978   1.263  11.127
 2590W        W 6109   3.653   3.174   9.855
 2591W        W 6110   3.488   4.320   1.987
 2592W        W 6111   1.311   6.678  10.088
 2593W        W 6112   2.129   8.924   2.609
 2594W        W 6113   4.355   1.145   1.004
 2595W        W 6114   1.292   2.910   8.998
 2596W        W 6115   7.136   6.572   3.070
 2597W        W 6116   5.476   6.112  11.182
 2598W        W 6117   8.516   5.944   3.376
 2599W        W 6118   7.544   3.420  10.936
 2600W        W 6119   7.068   2.546   0.828
 2601W        W 6120   3.703   2.107   2.314
 2602W        W 6121   5.649   3.635   9.437
 2603W        W 6122   4.324   3.672  10.116
 2604W        W 6123   0.777   7.900   0.524
 2605W        W 6124   6.644   2.139   2.290
 2606W        W 6125   6.538   7.903  11.032
 2607W        W 6126   9.836   4.180  10.306
 2608W        W 6127   9.744   1.174   9.536
 2609W        W 6128   9.427   2.219   0.798
 2610W        W 6129   5.211   9.244   0.810
 2611W        W 6130   1.138   0.183   9.374
 2612W        W 6131   1.173   4.742   1.447
 2613W        W 6132   9.910   8.296   9.496
 2614W        W 6133   9.919   2.624  11.310
 2615W        W 6134   3.887   5.112   3.027
 2616W        W 6135   7.022   6.003   8.031
 2617W        W 6136   9.398   7.911  11.523
 2618W        W 6137   4.702   6.138   3.594
 2619W        W 6138   4.616   2.068   1.393
 2620W        W 6139   7.574   1.746   0.514
 2621W        W 6140   3.016   5.722  11.743
 2622W        W 6141   2.102   7.903   9.149
 2623W        W 6142   6.903   1.501   3.886
 2624W        W 6143   2.555   2.832  11.741
 2625W        W 6144   3.179   3.321   1.207
 2626W        W 6145   1.846   5.930   3.817
 2627W        W 6146   1.588   4.831   9.479
 2628W        W 6147   9.911   1.479   0.461
 2629W        W 6148   1.349   9.786  10.041
 2630W        W 6149   1.374   5.835   9.579
 2631W        W 6150   9.567   3.937   8.989
 2632W        W 6151   0.982   8.466   2.757
 2633W        W 6152   7.853   5.205  10.147
 2634W        W 6153   8.268   6.092   8.403
 2635W        W 6154   7.068   6.534   9.795
 2636W        W 6155   7.395   7.034   3.140
 2637W        W 6156   0.512   7.047   3.703
 2638W        W 6157   9.760   0.652  10.333
 2639W        W 6158   2.620   7.450   1.904
 2640W        W 6159   1.720   6.150   0.193
 2641W        W 6160   2.636   5.524  11.476
 2642W        W 6161   3.164   9.474   9.041
 2643W        W 6162   1.988   5.933  10.864
 2644W        W 6163   9.021   8.375   9.517
 2645W        W 6164   3.034   7.781   0.484
 2646W        W 6165   1.294   8.813   9.537
 2647W        W 6166   9.379   3.971  11.270
 2648W        W 6167   0.269   9.395  10.118
 2649W        W 6168   1.774   3.955  10.736
 2650W        W 6169   0.233   6.601   9.424
 2651W        W 6170   7.645   0.833  10.317
 2652W        W 6171   7.763   5.093   2.037
 2653W        W 6172   5.561   1.152   3.096
 2654W        W 6173   9.913   0.765   9.260
 2655W        W 6174   3.309   2.197   3.000
 2656W        W 6175   7.588   1.656   3.382
 2657W        W 6176   2.686   0.064   2.681
 2658W        W 6177   7.783   5.349   3.328
 2659W        W 6178   8.092   8.069  11.459
 2660W        W 6179   5.318   6.159   1.301
 2661W        W 6180   4.103   7.085   3.270
 2662W        W 6181   0.355   7.702   1.422
 2663W        W 6182   5.034   3.173   3.717
 2664W        W 6183   7.491   3.167   0.732
 2665W        W 6184   2.216   7.392   1.051
 2666W        W 6185   6.754   9.330   9.543
 2667W        W 6186   1.435   1.486   2.590
 2668W        W 6187   3.556   7.809  11.685
 2669W        W 6188   9.889   9.687   3.499
 2670W        W 6189   5.582   8.778   8.846
 2671W        W 6190   4.945   6.494  10.124
 2672W        W 6191   0.530   0.190   1.856
 2673W        W 6192   2.098   8.722   0.054
 2674W        W 6193   9.747   4.967   9.650
 2675W        W 6194   9.887   7.350   9.858
 2676W        W 6195   5.678   2.642   9.030
 2677W        W 6196   7.465   1.625  10.681
 2678W        W 6197   9.260   7.496  10.902
 2679W        W 6198   7.565   5.762   9.350
 2680W        W 6199   7.781   6.524   2.406
 2681W        W 6200   0.844   6.137   1.912
 2682W        W 6201   1.694   1.942   1.029
 2683W        W 6202   2.335   7.556  10.528
 2684W        W 6203   1.007   5.370  10.182
 2685W        W 6204   6.971   7.790  10.308
 2686W        W 6205   0.965   1.770   8.495
 2687W        W 6206   5.897   1.056   0.850
 2688W        W 6207   6.524   9.826   1.817
 2689W        W 6208   2.656   9.809  11.366
 2690W        W 6209   0.922   9.989  10.242
 2691W        W 6210   6.133   6.638   0.879
 2692W        W 6211   9.399   4.394  11.576
 2693W        W 6212   8.085   3.911  10.561
 2694W        W 6213   7.972   3.674   2.821
 2695W        W 6214   0.585   3.755   2.595
 2696W        W 6215   9.307   9.749   9.940
 2697W        W 6216   0.286   1.172  11.704
 2698W        W 6217   6.726   7.019  10.659
 2699W        W 6218   8.938   4.234  10.111
 2700W        W 6219   3.145   2.389  10.566
 2701W        W 6220   4.220   0.643   0.001
 2702W        W 6221   4.358   4.026   2.812
 2703W        W 6222   0.011   9.348  10.554
 2704W        W 6223   2.123   8.583   2.189
 2705W        W 6224   0.531   3.063   9.979
 2706W        W 6225   0.594   4.967   1.545
 2707W        W 6226   5.321   5.283  10.131
 2708W        W 6227   1.168   6.539   3.593
 2709W        W 6228   1.057   5.165   1.678
 2710W        W 6229   3.402   0.298   2.912
 2711W        W 6230   8.879   6.932   1.593
 2712W        W 6231   4.490   9.522  11.786
 2713W        W 6232   0.753   5.331   2.952
 2714W        W 6233   9.647   1.728   0.813
 2715W        W 6234   7.046   7.432   2.509
 2716W        W 6235   8.306   1.915  10.262
 2717W        W 6236   6.217   2.856   2.625
 2718W        W 6237   5.601   9.014   3.072
 2719W        W 6238   6.486   9.444   0.519
 2720W        W 6239   5.658   1.418   1.109
 2721W        W 6240   0.621   2.822   1.195
 2722W        W 6241   2.440   7.005   9.238
 2723W        W 6242   5.473   9.282   8.807
 2724W        W 6243   3.902   1.265  11.813
 2725W        W 6244   7.705   7.136  11.340
 2726W        W 6245   7.294   1.151   9.459
 2727W        W 6246   6.452   5.621  10.555
 2728W        W 6247   6.235   0.827   8.859
 2729W        W 6248   2.767   0.963   3.313
 2730W        W 6249   3.036   8.077  11.998
 2731W        W 6250   2.809   7.447  10.723
 2732W        W 6251   1.124   2.756   1.221
 2733W        W 6252   8.919   4.940   1.375
 2734W        W 6253   2.602   5.991   8.856
 2735W        W 6254   4.073   7.510  10.238
 2736W        W 6255   1.179   8.296   1.890
 2737W        W 6256   6.962   8.499   1.381
 2738W        W 6257   9.569   7.803   8.619
 2739W        W 6258   0.862   0.233   2.283
 2740W        W 6259   6.693   7.193   1.676
 2741W        W 6260   1.065   8.875  10.981
 2742W        W 6261   3.738   0.629   9.281
 2743W        W 6262   5.665   4.478   1.951
 2744W        W 6263   0.078   0.861  11.276
 2745W        W 6264   1.967   3.373  10.918
 2746W        W 6265   0.170   7.752  11.000
 2747W        W 6266   4.481   5.021  10.274
 2748W        W 6267   5.478   9.688  10.528
 2749W        W 6268   9.804   5.446   9.482
 2750W        W 6269   4.687   2.079   8.559
 2751W        W 6270   5.103   0.766   1.432
 2752W        W 6271   3.218   5.556   9.264
 2753W        W 6272   0.601   6.573   0.904
 2754W        W 6273   3.658   1.651   9.160
 2755W        W 6274   9.108   0.418   3.369
 2756W        W 6275   0.773   1.194   0.287
 2757W        W 6276   6.129   4.993  10.675
 2758W        W 6277   0.409   1.448   2.469
 2759W        W 6278   5.516   0.686  10.589
 2760W        W 6279   9.982   6.419   2.940
 2761W        W 6280   9.182   5.557   1.911
 2762W        W 6281   2.820   8.479   0.210
 2763W        W 6282   9.018   6.548   0.204
 2764W        W 6283   0.844   4.111  10.771
 2765W        W 6284   4.953   0.402   0.354
 2766W        W 6285   3.473   5.092   0.794
 2767W        W 6286   4.949   6.926  10.998
 2768W        W 6287   0.247   5.925  10.420
 2769W        W 6288   8.777   2.987   1.719
 2770W        W 6289   7.655   4.274  11.783
 2771W        W 6290   3.088   2.529  11.082
 2772W        W 6291   9.825   7.991  11.833
 2773W        W 6292   6.552   6.497   9.044
 2774W        W 6293   6.149   4.180  10.414
 2775W        W 6294   0.732   8.183  10.484
 2776W        W 6295   2.035   5.528   1.945
 2777W        W 6296   1.505   8.876  10.443
 2778W        W 6297   2.215   7.706   0.058
 2779W        W 6298   9.044   8.761   0.007
 2780W        W 6299   0.889   3.878   3.442
 2781W        W 6300   9.817   7.882   3.538
 2782W        W 6301   1.784   4.227   1.508
 2783W        W 6302   8.361   0.820   0.898
 2784W        W 6303   4.013   5.955   2.625
 2785W        W 6304   4.366   6.027   1.780
 2786W        W 6305   4.568   0.820   8.805
 2787W        W 6306   3.638   5.844   0.973
 2788W        W 6307   0.375   1.360   0.645
 2789W        W 6308   7.525   6.580   1.151
 2790W        W 6309   2.662   6.148   1.129
 2791W        W 6310   0.175   8.967   2.863
 2792W        W 6311   0.601   5.716   8.981
 2793W        W 6312   8.796   1.258   9.660
 2794W        W 6313   2.639   0.203   0.699
 2795W        W 6314   6.726   7.534   1.225
 2796W        W 6315   2.707   6.647   1.292
 2797W        W 6316   6.241   8.757   1.587
 2798W        W 6317   1.786   2.854   1.697
 2799W        W 6318   4.761   2.933   9.421
 2800W        W 6319   0.637   7.541   9.209
 2801W        W 6320   3.391   3.858  10.613
 2802W        W 6321   4.253   5.833  11.396
 2803W        W 6322   6.067   9.361   9.837
 2804W        W 6323   6.234   4.600   1.282
 2805W        W 6324   8.195   5.028   3.356
 2806W        W 6325   7.880   4.362   2.714
 2807W        W 6326   9.295   0.166  11.902
 2808W        W 6327   1.310   6.024   1.082
 2809W        W 6328   4.845   6.120   1.970
 2810W        W 6329   8.874   2.748   0.744
 2811W        W 6330   5.162   6.950   0.859
 2812W        W 6331   8.561   6.948   8.698
 2813W        W 6332   9.914   8.508  10.520
 2814W        W 6333   9.031   6.822  11.341
 2815W        W 6334   6.255   1.952   1.616
 2816W        W 6335   8.133   0.704   1.799
 2817W        W 6336   8.273   0.159  10.454
 2818W        W 6337   8.211   9.264   0.341
 2819W        W 6338   5.756   0.472   2.600
 2820W        W 6339   6.555   6.688   0.587
 2821W        W 6340   4.528   1.870  10.835
 2822W        W 6341   4.483   6.084   0.797
 2823W        W 6342   0.748   4.816   2.916
 2824W        W 6343   2.416   8.856  10.545
 2825W        W 6344   9.790   6.123  10.539
 2826W        W 6345   9.804   4.924   1.356
 2827W        W 6346   9.589   2.759   2.738
 2828W        W 6347   6.891   4.586  10.570
 2829W        W 6348   2.128   2.118   8.629
 2830W        W 6349   1.238   7.731   8.549
 2831W        W 6350   2.151   2.331   9.115
 2832W        W 6351   5.766   6.878  10.360
 2833W        W 6352   9.492   0.519   2.559
 2834W        W 6353   4.154   4.609   9.581
 2835W        W 6354   3.787   1.361   3.424
 2836W        W 6355   2.270   4.869   0.006
 2837W        W 6356   3.747   6.371   2.722
 2838W        W 6357   1.531   4.139   0.419
 2839W        W 6358   2.092   2.650   2.997
 2840W        W 6359   2.320   3.434   3.692
 2841W        W 6360   1.423   8.991   0.760
 2842W        W 6361   2.731   9.293   8.734
 2843W        W 6362   3.376   8.165  11.276
 2844W        W 6363   6.406   9.228   1.569
 2845W        W 6364   2.755   5.977   3.601
 2846W        W 6365   3.793   2.232  11.732
 2847W        W 6366   7.564   2.404   0.773
 2848W        W 6367   5.619   4.462   2.453
 2849W        W 6368   8.594   1.642   9.385
 2850W        W 6369   8.924   2.371   9.200
 2851W        W 6370   8.952   1.361   9.139
 2852W        W 6371   2.210   9.694   1.662
 2853W        W 6372   9.268   1.341   0.781
 2854W        W 6373   5.510   7.486   2.768
 2855W        W 6374   6.594   4.288   2.626
 2856W        W 6375   2.140   0.019   9.577
 2857W        W 6376   2.582   8.012   0.240
 2858W        W 6377   6.478   3.385   2.717
 2859W        W 6378   5.703   5.723   0.474
 2860W        W 6379   3.179   9.494  10.522
 2861W        W 6380   4.656   4.058   8.614
 2862W        W 6381   2.398   4.102   2.332
 2863W        W 6382   0.876   4.534   0.543
 2864W        W 6383   6.444   8.845   2.602
 2865W        W 6384   8.835   8.840   9.434
 2866W        W 6385   0.646   5.601  11.836
 2867W        W 6386   4.046   6.078   8.672
 2868W        W 6387   8.101   7.486   9.198
 2869W        W 6388   6.891   3.364   8.967
 2870W        W 6389   2.880   1.814  11.987
 2871W        W 6390   5.976   6.842   1.318
 2872W        W 6391   6.899   4.098  11.340
 2873W        W 6392   5.389   6.913   9.006
 2874W        W 6393   2.744   9.301  11.192
 2875W        W 6394   5.089   0.539   2.002
 2876W        W 6395   3.770   0.559  11.346
 2877W        W 6396   1.782   8.303   2.431
 2878W        W 6397   7.247   7.643  10.749
 2879W        W 6398   0.853   1.048   1.781
 2880W        W 6399   2.022   4.493   9.539
 2881W        W 6400   3.699   1.051  11.386
 2882W        W 6401   9.572   1.898   2.908
 2883W        W 6402   8.105   1.746   2.636
 2884W        W 6403   0.882   3.466   2.925
 2885W        W 6404   6.873   1.904   8.802
 2886W        W 6405   6.597   1.658  11.873
 2887W        W 6406   2.906   8.734  10.479
 2888W        W 6407   0.648   8.050   9.322
 2889W        W 6408   7.159   4.400  11.884
 2890W        W 6409   8.948   1.443   0.070
 2891W        W 6410   7.572   0.760   0.304
 2892W        W 6411   8.655   7.556   2.774
 2893W        W 6412   5.624   7.864  10.917
 2894W        W 6413   7.865   7.846   3.578
 2895W        W 6414   9.359   5.448   8.665
 2896W        W 6415   9.280   1.169   8.782
 2897W        W 6416   8.906   8.772   2.414
 2898W        W 6417   8.258   9.665  10.222
 2899W        W 6418   8.452   3.166   1.361
 2900W        W 6419   8.592   3.031   3.579
 2901W        W 6420   6.181   6.338   3.684
 2902W        W 6421   1.407   3.152   9.783
 2903W        W 6422   3.957   6.607   3.137
 2904W        W 6423   0.936   3.721   1.587
 2905W        W 6424   1.180   7.912   9.230
 2906W        W 6425   6.938   7.048   1.246
 2907W        W 6426   9.941   5.495   0.518
 2908W        W 6427   6.070   0.918   2.280
 2909W        W 6428   5.310   6.463   2.836
 2910W        W 6429   6.981   9.125   0.974
 2911W        W 6430   5.442   9.360   1.640
 2912W        W 6431   3.802   4.211   8.584
 2913W        W 6432   1.757   1.003   9.213
 2914W        W 6433   6.212   7.500   1.300
 2915W        W 6434   7.061   5.292   9.317
 2916W        W 6435   6.985   1.421  10.830
 2917W        W 6436   9.799   9.900   2.521
 2918W        W 6437   3.962   5.811   1.472
 2919W        W 6438   6.164   3.606  10.907
 2920W        W 6439   1.295   5.911  11.475
 2921W        W 6440   6.489   5.453  11.928
 2922W        W 6441   7.751   8.492  10.281
 2923W        W 6442   3.744   2.353   0.232
 2924W        W 6443   4.877   0.564   3.535
 2925W        W 6444   9.931   6.235   2.452
 2926W        W 6445   3.247   2.213   2.488
 2927W        W 6446   0.280   0.074  10.880
 2928W        W 6447   1.124   2.842   2.619
 2929W        W 6448   0.206   6.910   1.751
 2930W        W 6449   8.570   8.440  11.057
 2931W        W 6450   8.658   4.429   2.698
 2932W        W 6451   9.284   6.055  10.514
 2933W        W 6452   9.748   0.278   9.257
 2934W        W 6453   3.581   3.461   9.409
 2935W        W 6454   8.049   7.234   0.906
 2936W        W 6455   5.564   3.399  11.528
 2937W        W 6456   0.892   5.192   9.677
 2938W        W 6457   4.608   0.039  10.085
 2939W        W 6458   5.667   5.501   9.388
 2940W        W 6459   6.202   6.119   8.347
 2941W        W 6460   6.680   6.599   2.859
 2942W        W 6461   8.566   2.187  11.266
 2943W        W 6462   0.987   0.516   1.878
 2944W        W 6463   0.224   1.256   9.670
 2945W        W 6464   3.097   3.502   2.544
 2946W        W 6465   6.239   6.721   8.200
 2947W        W 6466   3.539   7.645   2.127
 2948W        W 6467   9.408   8.505   0.752
 2949W        W 6468   5.197   4.636   8.665
 2950W        W 6469   8.949   8.886   3.240
 2951W        W 6470   7.986   1.929   0.252
 2952W        W 6471   1.466   5.562  10.007
 2953W        W 6472   6.475   8.127   0.050
 2954W        W 6473   0.903   0.626   0.770
 2955W        W 6474   5.787   9.198   3.522
 2956W        W 6475   6.084   5.706   9.064
 2957W        W 6476   1.851   0.918   9.719
 2958W        W 6477   0.371   6.152   9.677
 2959W        W 6478   5.711   1.233   2.100
 2960W        W 6479   5.413   2.233  10.903
 2961W        W 6480   1.380   2.434   0.881
 2962W        W 6481   5.278   8.985   0.013
 2963W        W 6482   2.698   0.249   2.177
 2964W        W 6483   1.646   5.675   2.251
 2965W        W 6484   9.022   6.503   2.047
 2966W        W 6485   7.028   3.034   0.968
 2967W        W 6486   7.068   9.544  11.187
 2968W        W 6487   6.503   0.221  11.276
 2969W        W 6488   3.743   1.428   0.290
 2970W        W 6489   3.921   5.586   3.217
 2971W        W 6490   8.995   8.625  11.491
 2972W        W 6491   4.451   3.057  11.153
 2973W        W 6492   8.165   5.956   2.977
 2974W        W 6493   0.730   1.157   9.605
 2975W        W 6494   6.982   6.849   2.198
 2976W        W 6495   0.519   9.303   2.058
 2977W        W 6496   2.142   2.038  11.394
 2978W        W 6497   2.635   2.435  11.401
 2979W        W 6498   7.120   4.213  10.849
 2980W        W 6499   7.841   7.110  11.859
 2981W        W 6500   6.002   4.081  11.496
 2982W        W 6501   8.750   1.791   8.910
 2983W        W 6502   1.743   1.822   2.825
 2984W        W 6503   0.240   1.149   0.210
 2985W        W 6504   7.466   3.514   3.520
 2986W        W 6505   1.488   1.238  10.487
 2987W        W 6506   6.652   3.905   8.143
 2988W        W 6507   6.074   8.767   1.072
 2989W        W 6508   8.429   7.678  11.512
 2990W        W 6509   0.256   4.682   1.267
 2991W        W 6510   9.069   1.636   3.576
 2992W        W 6511   4.217   1.128   8.560
 2993W        W 6512   0.465   9.350   2.633
 2994W        W 6513   5.787   1.816   1.829
 2995W        W 6514   7.213   9.464   9.321
 2996W        W 6515   9.773   9.398  10.049
 2997W        W 6516   1.337   5.400  11.178
 2998W        W 6517   2.327   7.173  10.881
 2999W        W 6518   9.651   6.496   0.692
 3000W        W 6519   5.647   9.841   2.854
 3001W        W 6520   4.909   4.320   9.983
 3002W        W 6521   8.399   9.546   9.731
 3003W        W 6522   0.764   3.296   1.933
 3004W        W 6523   0.345   4.821   2.163
 3005W        W 6524   6.605   6.012  11.494
 3006W        W 6525   2.278   7.206   0.104
 3007W        W 6526   3.969   7.679  11.324
 3008W        W 6527   6.045   1.698  11.665
 3009W        W 6528   7.632   6.588  10.374
 3010W        W 6529   7.592   4.204   1.625
 3011W        W 6530   3.299   2.016   9.074
 3012W        W 6531   2.292   5.272   9.513
 3013W        W 6532   9.994   6.247  11.382
 3014W        W 6533   2.148   8.220   0.011
 3015W        W 6534   0.294   9.822   2.629
 3016W        W 6535   9.735   7.372   2.949
 3017W        W 6536   2.550   3.012   8.724
 3018W        W 6537   8.594   6.417   8.714
 3019W        W 6538   9.978   4.860   2.804
 3020W        W 6539   1.286   2.451   0.361
 3021W        W 6540   1.800   4.999   0.217
 3022W        W 6541   3.886   8.042   1.979
 3023W        W 6542   3.224   1.491  10.842
 3024W        W 6543   1.121   4.987   9.246
 3025W        W 6544   7.574   6.724  11.621
 3026W        W 6545   7.356   3.189   9.263
 3027W        W 6546   0.856   5.277   8.898
 3028W        W 6547   2.594   3.670   9.298
 3029W        W 6548   7.273   3.947  11.687
 3030W        W 6549   9.604   1.921   1.849
 3031W        W 6550   0.609   7.167   3.226
 3032W        W 6551   3.064   5.282  11.995
 3033W        W 6552   5.406   7.472   0.861
 3034W        W 6553   4.194   1.789   2.998
 3035W        W 6554   7.451   7.410   1.709
 3036W        W 6555   5.794   2.120   2.332
 3037W        W 6556   1.946   5.266   0.660
 3038W        W 6557   5.758   1.030   9.028
 3039W        W 6558   2.492   2.058   3.436
 3040W        W 6559   5.558   2.772   1.326
 3041W        W 6560   2.262   0.551   2.198
 3042W        W 6561   2.663   7.368   8.948
 3043W        W 6562   4.534   9.953   1.064
 3044W        W 6563   5.179   5.050   2.790
 3045W        W 6564   7.458   5.316   2.936
 3046W        W 6565   2.717   7.810  10.263
 3047W        W 6566   6.298   0.280   8.731
 3048W        W 6567   9.218   9.763   8.451
 3049W        W 6568   0.012   1.719  11.203
 3050W        W 6569   9.931   8.825   3.397
 3051W        W 6570   7.000   4.735   3.101
 3052W        W 6571   5.576   7.877  11.938
 3053W        W 6572   7.737   8.753   9.527
 3054W        W 6573   3.505   9.318   1.955
 3055W        W 6574   8.668   4.968  10.881
 3056W        W 6575   8.747   9.483  10.128
 3057W        W 6576   8.473   4.137  10.278
 3058W        W 6577   0.325   4.603   9.178
 3059W        W 6578   9.086   9.315   0.460
 3060W        W 6579   8.811   5.125   9.880
 3061W        W 6580   1.928   0.384  11.462
 3062W        W 6581   7.545   9.098   9.222
 3063W        W 6582   7.223   0.365  11.348
 3064W        W 6583   2.147   9.932  11.493
 3065W        W 6584   4.656   6.938   0.695
 3066W        W 6585   2.787   6.013  10.296
 3067W        W 6586   6.898   1.748   3.193
 3068W        W 6587   5.273   7.015  10.520
 3069W        W 6588   8.168   9.298   2.298
 3070W        W 6589   0.513   9.972   3.496
 3071W        W 6590   8.381   7.532   1.761
 3072W        W 6591   9.011   9.828  11.441
 3073W        W 6592   4.349   8.246   1.102
 3074W        W 6593   9.163   1.834   2.575
 3075W        W 6594   1.407   7.645  11.476
 3076W        W 6595   8.396   1.171   3.322
 3077W        W 6596   3.236   0.179   3.371
 3078W        W 6597   8.391   9.348   2.747
 3079W        W 6598   7.471   7.929   1.925
 3080W        W 6599   8.180   2.682  10.536
 3081W        W 6600   6.914   1.574  11.463
 3082W        W 6601   2.228   9.892   2.882
 3083W        W 6602   9.343   7.756   9.080
 3084W        W 6603   9.886   3.278   9.404
 3085W        W 6604   7.989   5.486   9.437
 3086W        W 6605   7.920   4.352   2.001
 3087W        W 6606   6.129   2.327   9.473
 3088W        W 6607   9.500   2.272  11.739
 3089W        W 6608   0.970   9.225   0.684
 3090W        W 6609   2.010   2.194   3.186
 3091W        W 6610   2.522   6.328   0.028
 3092W        W 6611   5.587   6.560   9.549
 3093W        W 6612   7.640   0.292  11.597
 3094W        W 6613   8.238   0.208   9.182
 3095W        W 6614   4.189   3.285   8.215
 3096W        W 6615   5.364   9.798   8.785
 3097W        W 6616   0.278   9.125  11.342
 3098W        W 6617   6.356   1.970   1.099
 3099W        W 6618   1.396   4.385   9.234
 3100W        W 6619   2.264   0.349   1.436
 3101W        W 6620   7.060   5.032   8.384
 3102W        W 6621   4.060   9.410  10.518
 3103W        W 6622   3.668   6.071   8.302
 3104W        W 6623   1.356   9.023  11.385
 3105W        W 6624   5.989   1.045   9.882
 3106W        W 6625   1.839   7.886   2.000
 3107W        W 6626   0.183   6.777  11.312
 3108W        W 6627   4.220   7.011  10.194
 3109W        W 6628   7.034   5.252   3.261
 3110W        W 6629   7.126   6.045   1.467
 3111W        W 6630   1.788   8.486  10.711
 3112W        W 6631   7.442   9.409   9.776
 3113W        W 6632   6.144   4.267   1.671
 3114W        W 6633   4.299   9.421   2.343
 3115W        W 6634   7.167   5.910  10.583
 3116W        W 6635   3.372   6.372   1.796
 3117W        W 6636   3.999   2.519   2.290
 3118W        W 6637   0.297   8.151   8.934
 3119W        W 6638   0.743   6.696  10.386
 3120W        W 6639   1.284   4.619   3.467
 3121W        W 6640   0.816   9.975  10.736
 3122W        W 6641   1.059   7.778   1.337
 3123W        W 6642   7.798   0.704  11.858
 3124W        W 6643   9.512   8.969   9.891
 3125W        W 6644   3.299   8.957  11.744
 3126W        W 6645   3.158   2.785  10.185
 3127W        W 6646   9.453   4.529  10.395
 3128W        W 6647   5.232   2.036  10.425
 3129W        W 6648   9.069   5.101   8.939
 3130W        W 6649   4.004   9.834   2.362
 3131W        W 6650   5.703   7.545   1.356
 3132W        W 6651   0.522   5.654   2.143
 3133W        W 6652   4.664   7.875  11.841
 3134W        W 6653   5.093   1.165   9.827
 3135W        W 6654   4.064   9.438  11.543
 3136W        W 6655   7.423   5.208   2.412
 3137W        W 6656   4.580   2.812  10.459
 3138W        W 6657   2.386   6.492   3.281
 3139W        W 6658   0.243   9.744   1.795
 3140W        W 6659   7.833   7.896   2.735
 3141W        W 6660   1.403   2.172  10.027
 3142W        W 6661   8.562   8.566  11.812
 3143W        W 6662   3.533   4.538   0.465
 3144W        W 6663   1.552   6.554   3.249
 3145W        W 6664   8.290   7.953   2.553
 3146W        W 6665   9.216   6.047  11.884
 3147W        W 6666   9.223   0.997   2.900
 3148W        W 6667   0.350   7.802  10.528
 3149W        W 6668   1.904   2.412   0.939
 3150W        W 6669   3.592   2.585  10.343
 3151W        W 6670   6.210   2.699   0.667
 3152W        W 6671   7.612   5.321   9.102
 3153W        W 6672   9.862   7.104   0.051
 3154W        W 6673   7.919   1.632   1.809
 3155W        W 6674   2.936   8.619   9.913
 3156W        W 6675   4.984   1.370  11.361
 3157W        W 6676   4.623   6.531   1.495
 3158W        W 6677   5.664   6.813   0.730
 3159W        W 6678   5.872   0.318   9.451
 3160W        W 6679   2.229   7.920  10.191
 3161W        W 6680   0.026   4.218  10.780
 3162W        W 6681   9.880   3.439   0.292
 3163W        W 6682   8.014   5.764  10.443
 3164W        W 6683   4.702   6.317   9.428
 3165W        W 6684   8.570   0.573  11.221
 3166W        W 6685   8.941   5.736   0.796
 3167W        W 6686   6.089   6.694   9.095
 3168W        W 6687   1.296   3.095  11.678
 3169W        W 6688   4.219   5.540   1.868
 3170W        W 6689   4.120   1.332  11.244
 3171W        W 6690   9.214   4.598   0.478
 3172W        W 6691   4.822   0.924   2.180
 3173W        W 6692   6.917   2.305  10.831
 3174W        W 6693   4.877   1.597   1.371
 3175W        W 6694   5.268   0.237   0.735
 3176W        W 6695   2.228   5.054   3.642
 3177W        W 6696   3.334   6.591  11.734
 3178W        W 6697   4.617   1.777   2.692
 3179W        W 6698   3.598   1.119   9.086
 3180W        W 6699   3.550   4.548   7.835
 3181W        W 6700   2.778   3.774  11.120
 3182W        W 6701   2.638   4.339   9.813
 3183W        W 6702   1.324   2.661  11.358
 3184W        W 6703   3.268   0.806   9.379
 3185W        W 6704   6.148   5.750   3.971
 3186W        W 6705   0.836   6.989   0.365
 3187W        W 6706   1.585   3.040  10.822
 3188W        W 6707   9.220   8.361   0.277
 3189W        W 6708   6.912   5.089   2.289
 3190W        W 6709   5.433   7.114  11.011
 3191W        W 6710   6.013   9.539  11.286
 3192W        W 6711   8.130   2.657   2.447
 3193W        W 6712   5.244   9.977   0.289
 3194W        W 6713   6.927   9.827   2.175
 3195W        W 6714   5.203   5.102  10.902
 3196W        W 6715   3.846   8.923   3.154
 3197W        W 6716   9.378   3.443  11.115
 3198W        W 6717   4.427   7.101   2.317
 3199W        W 6718   0.409   6.430   1.711
 3200W        W 6719   5.498   4.493   3.387
 3201W        W 6720   0.803   1.069   9.085
 3202W        W 6721   5.062   1.452   3.138
 3203W        W 6722   6.596   9.236  11.347
 3204W        W 6723   1.773   4.267  11.529
 3205W        W 6724   8.316   7.073   0.023
 3206W        W 6725   4.518   6.419   9.885
 3207W        W 6726   6.693   3.807   9.690
 3208W        W 6727   8.632   1.081  10.316
 3209W        W 6728   3.385   2.576  11.930
 3210W        W 6729   0.425   9.673  10.559
 3211W        W 6730   1.353   6.002   3.019
 3212W        W 6731   7.341   4.435   9.194
 3213W        W 6732   5.219   1.520  10.416
 3214W        W 6733   3.608   4.959   9.188
 3215W        W 6734   8.582   4.306  11.823
 3216W        W 6735   4.338   4.275   1.459
 3217W        W 6736   9.516   1.877   3.409
 3218W        W 6737   3.072   3.810  10.211
 3219W        W 6738   6.406   6.273  11.082
 3220W        W 6739   5.234   7.667   3.620
 3221W        W 6740   0.426   4.364  10.514
 3222W        W 6741   1.371   0.304   1.572
 3223W        W 6742   1.246   2.435   2.282
 3224W        W 6743   9.964   1.697   9.860
 3225W        W 6744   1.768   7.492   9.777
 3226W        W 6745   2.345   3.380   2.757
 3227W        W 6746   5.258   3.522   3.226
 3228W        W 6747   0.528   2.147  10.059
 3229W        W 6748   1.627   1.022   2.685
 3230W        W 6749   7.542   4.774  11.887
 3231W        W 6750   6.553   7.663   0.326
 3232W        W 6751   6.564   4.782   3.391
 3233W        W 6752   6.845   9.273   3.131
 3234W        W 6753   2.086   9.179   3.048
 3235W        W 6754   0.433   6.385  11.138
 3236W        W 6755   4.168   3.075   3.076
 3237W        W 6756   2.227   5.603  11.164
 3238W        W 6757   5.684   3.575   2.191
 3239W        W 6758   8.991   1.027   0.395
 3240W        W 6759   3.173   7.091  10.549
 3241W        W 6760   4.295   4.632  11.859
 3242W        W 6761   0.695   8.290   0.840
 3243W        W 6762   0.860   7.664  10.493
 3244W        W 6763   0.896   1.542   2.667
 3245W        W 6764   4.286   2.392   8.712
 3246W        W 6765   0.100   0.694   1.417
 3247W        W 6766   0.364   1.838   0.422
 3248W        W 6767   0.223   5.711   3.349
 3249W        W 6768   4.702   1.258   3.489
 3250W        W 6769   9.513   6.640   1.162
 3251W        W 6770   6.925   0.193   1.793
 3252W        W 6771   4.143   1.619   2.527
 3253W        W 6772   5.025   5.898  11.106
 3254W        W 6773   6.660   8.213   9.021
 3255W        W 6774   8.081   9.087   1.850
 3256W        W 6775   4.351   6.220   9.054
 3257W        W 6776   7.115   1.653   9.221
 3258W        W 6777   8.919   3.995  11.055
 3259W        W 6778   2.884   6.499   3.093
 3260W        W 6779   6.063   4.382   9.148
 3261W        W 6780   1.627   3.579   9.618
 3262W        W 6781   9.824   9.524  11.983
 3263W        W 6782   6.908   7.700   0.739
 3264W        W 6783   9.832   6.888   2.878
 3265W        W 6784   2.017   0.842  10.711
 3266W        W 6785   4.188   2.014   2.191
 3267W        W 6786   6.877   7.785   8.816
 3268W        W 6787   9.451   0.746   9.029
 3269W        W 6788   0.616   4.684   9.618
 3270W        W 6789   6.639   6.104   3.704
 3271W        W 6790   8.630   5.776   2.895
 3272W        W 6791   8.493   1.261   2.437
 3273W        W 6792   9.286   2.684   1.060
 3274W        W 6793   5.970   6.119   0.844
 3275W        W 6794   1.964   1.707   1.411
 3276W        W 6795   7.889   9.747   2.311
 3277W        W 6796   7.002   6.983   0.379
 3278W        W 6797   9.348   0.057   2.278
 3279W        W 6798   0.464   0.352   0.514
 3280W        W 6799   3.699   0.749  10.307
 3281W        W 6800   2.383   0.648   3.532
 3282W        W 6801   8.739   4.141   8.497
 3283W        W 6802   6.485   4.637   1.756
 3284W        W 6803   2.499   5.505   8.492
 3285W        W 6804   7.595   2.253   0.268
 3286W        W 6805   0.725   3.973  10.292
 3287W        W 6806   3.693   1.555  11.392
 3288W        W 6807   4.885   7.263   8.607
 3289W        W 6808   1.335   6.331   8.714
 3290W        W 6809   9.557   5.014   0.573
 3291W        W 6810   4.638   2.713  11.893
 3292W        W 6811   8.055   6.507   9.533
 3293W        W 6812   1.837   3.226   1.362
 3294W        W 6813   7.672   9.858  11.869
 3295W        W 6814   7.042   4.868   0.035
 3296W        W 6815   7.566   8.421  11.789
 3297W        W 6816   9.954   0.950   0.579
 3298W        W 6817   6.311   5.349  11.426
 3299W        W 6818   5.173   4.595   9.183
 3300W        W 6819   4.102   4.121   3.396
 3301W        W 6820   4.488   3.177   1.674
 3302W        W 6821   9.953   9.447   2.739
 3303W        W 6822   7.044   8.164   1.774
 3304W        W 6823   7.716   3.077   9.659
 3305W        W 6824   0.832   9.753   0.007
 3306W        W 6825   3.439   3.859   2.523
 3307W        W 6826   5.422   7.864   9.037
 3308W        W 6827   5.888   9.640   1.698
 3309W        W 6828   3.953   2.709   0.557
 3310W        W 6829   5.089   3.335  10.577
 3311W        W 6830   6.608   7.065   4.236
 3312W        W 6831   8.140   8.597   1.781
 3313W        W 6832   3.913   0.290  11.805
 3314W        W 6833   0.329   0.416  11.243
 3315W        W 6834   7.936   1.361   1.258
 3316W        W 6835   0.159   1.708   0.962
 3317W        W 6836   3.523   8.880   3.579
 3318W        W 6837   3.979   6.290   3.909
 3319W        W 6838   6.324   0.155   9.627
 3320W        W 6839   8.064   6.421   0.350
 3321W        W 6840   6.412   4.828   9.084
 3322W        W 6841   0.794   4.855   2.399
 3323W        W 6842   2.914   2.333   3.303
 3324W        W 6843   5.453   1.493   9.684
 3325W        W 6844   6.681   5.657   4.001
 3326W        W 6845   8.531   8.017   3.001
 3327W        W 6846   9.935   9.959  11.258
 3328W        W 6847   2.187   1.049   2.141
 3329W        W 6848   2.409   6.929   9.979
 3330W        W 6849   8.965   3.510   2.899
 3331W        W 6850   7.482   3.729   1.454
 3332W        W 6851   1.073   6.635   1.830
 3333W        W 6852   6.008   2.731   9.791
 3334W        W 6853   8.838   1.495   0.573
 3335W        W 6854   9.038   9.637   2.251
 3336W        W 6855   4.724   7.060  10.490
 3337W        W 6856   3.897   5.873  11.759
 3338W        W 6857   6.112   3.191  10.532
 3339W        W 6858   9.812   8.797   9.485
 3340W        W 6859   9.253   0.867  10.900
 3341W        W 6860   5.604   8.378  11.804
 3342W        W 6861   0.645   8.677  10.694
 3343W        W 6862   7.411   9.129   0.510
 3344W        W 6863   1.168   5.070   1.025
 3345W        W 6864   4.667   1.791   8.997
 3346W        W 6865   2.030   2.639   8.669
 3347W        W 6866   5.629   5.227   0.368
 3348W        W 6867   1.219   6.266   0.082
 3349W        W 6868   5.588   9.373   9.691
 3350W        W 6869   1.754   0.878  10.249
 3351W        W 6870   6.519   2.129   0.063
 3352W        W 6871   2.284   9.924  10.991
 3353W        W 6872   5.800   9.059   0.021
 3354W        W 6873   0.222   1.644   3.894
 3355W        W 6874   3.778   3.749  11.847
 3356W        W 6875   2.229   5.992   1.987
 3357W        W 6876   8.115   7.092   8.878
 3358W        W 6877   4.889   4.041   0.461
 3359W        W 6878   5.113   6.859   0.337
 3360W        W 6879   7.965   5.458   1.358
 3361W        W 6880   6.086   5.603   0.802
 3362W        W 6881   1.004   4.139   9.530
 3363W        W 6882   3.396   0.361   9.577
 3364W        W 6883   6.316   8.649  11.409
 3365W        W 6884   8.449   2.628   9.215
 3366W        W 6885   9.466   0.288   8.781
 3367W        W 6886   7.725   5.095   1.036
 3368W        W 6887   7.972   7.598  11.230
 3369W        W 6888   3.528   6.081   1.411
 3370W        W 6889   0.767   1.701   8.956
 3371W        W 6890   6.844   7.510  11.236
 3372W        W 6891   0.845   9.684   0.953
 3373W        W 6892   4.052   3.063   0.902
 3374W        W 6893   7.844   8.239   9.837
 3375W        W 6894   1.883   7.129  11.769
 3376W        W 6895   0.145   7.841   9.318
 3377W        W 6896   5.381   4.279   9.779
 3378W        W 6897   7.497   5.754   3.537
 3379W        W 6898   8.261   4.196   0.608
 3380W        W 6899   0.967   2.318  11.541
 3381W        W 6900   4.791   6.464   0.665
 3382W        W 6901   4.691   0.871   2.672
 3383W        W 6902   6.343   7.565   9.888
 3384W        W 6903   3.692   0.470   1.769
 3385W        W 6904   9.779   6.747   2.380
 3386W        W 6905   4.751   0.350  11.384
 3387W        W 6906   7.399   8.305  10.943
 3388W        W 6907   3.761   0.044  11.381
 3389W        W 6908   0.523   3.703   1.236
 3390W        W 6909   3.192   5.979   0.561
 3391W        W 6910   7.900   8.173   1.773
 3392W        W 6911   3.945   5.891   9.522
 3393W        W 6912   9.251   5.447   3.235
 3394W        W 6913   8.541   7.464   0.827
 3395W        W 6914   9.630   5.275   0.146
 3396W        W 6915   8.126   0.657  10.287
 3397W        W 6916   2.757   4.390   8.492
 3398W        W 6917   0.473   0.853   0.571
 3399W        W 6918   6.896   6.537   3.553
 3400W        W 6919   9.565   3.380  11.884
 3401W        W 6920   9.220   8.189  10.082
 3402W        W 6921   3.056   4.360   0.366
 3403W        W 6922   4.753   6.653   3.577
 3404W        W 6923   3.668   0.728  10.823
 3405W        W 6924   9.679   1.764   1.318
 3406W        W 6925   9.839   0.251   1.200
 3407W        W 6926   2.644   0.753  11.882
 3408W        W 6927   5.168   6.329   3.724
 3409W        W 6928   8.978   9.918   9.558
 3410W        W 6929   5.727   0.136   1.804
 3411W        W 6930   4.973   9.388  11.920
 3412W        W 6931   0.336   7.980  11.761
 3413W        W 6932   7.787   6.728   9.037
 3414W        W 6933   4.521   7.913  10.906
 3415W        W 6934   8.638   0.316   3.128
 3416W        W 6935   3.068   3.371  11.452
 3417W        W 6936   2.216   5.996   0.912
 3418W        W 6937   9.042   0.763  10.419
 3419W        W 6938   8.385   9.344  11.869
 3420W        W 6939   5.202   1.924   8.530
 3421W        W 6940   0.783   8.078  11.506
 3422W        W 6941   7.928   3.400   1.311
 3423W        W 6942   2.170   4.378   2.785
 3424W        W 6943   8.031   4.642   9.884
 3425W        W 6944   3.787   8.891   0.753
 3426W        W 6945   0.438   4.234  11.080
 3427W        W 6946   5.000   2.072  11.763
 3428W        W 6947   4.995   9.967   2.210
 3429W        W 6948   4.345   9.001   3.337
 3430W        W 6949   0.277   8.778  10.301
 3431W        W 6950   2.557   4.752   2.872
 3432W        W 6951   3.074   2.138   9.515
 3433W        W 6952   6.316   2.999  10.097
 3434W        W 6953   1.476   2.109   3.207
 3435W        W 6954   2.517   2.641   9.509
 3436W        W 6955   6.607   1.722   1.914
 3437W        W 6956   2.856   5.974   0.165
 3438W        W 6957   7.397   2.672   9.575
 3439W        W 6958   3.545   4.564   8.857
 3440W        W 6959   8.480   2.620  10.961
 3441W        W 6960   0.326   5.936   0.743
 3442W        W 6961   1.247   8.061  11.766
 3443W        W 6962   9.261   3.782  10.757
 3444W        W 6963   9.604   1.744  10.908
 3445W        W 6964   1.444   3.055  10.309
 3446W        W 6965   7.236   5.033   8.878
 3447W        W 6966   1.350   9.359  10.334
 3448W        W 6967   6.384   0.979  10.616
 3449W        W 6968   3.123   9.016   9.278
 3450W        W 6969   6.331   1.776   8.712
 3451W        W 6970   3.727   8.558  10.073
 3452W        W 6971   3.777   7.922   2.488
 3453W        W 6972   1.809   1.802   9.584
 3454W        W 6973   8.081   3.065   1.713
 3455W        W 6974   6.043   1.858  10.757
 3456W        W 6975   5.947   3.369  10.026
 3457W        W 6976   6.008   9.520   9.117
 3458W        W 6977   6.018   4.121   1.183
 3459W        W 6978   9.566   5.345  10.005
 3460W        W 6979   6.399   0.179   1.125
 3461W        W 6980   0.464   9.318   0.330
 3462W        W 6981   7.987   3.240   9.251
 3463W        W 6982   1.614   2.747   2.565
 3464W        W 6983   6.902   2.398   9.231
 3465W        W 6984   3.113   9.970   9.254
 3466W        W 6985   3.477   9.429   3.609
 3467W        W 6986   5.339   6.987   2.812
 3468W        W 6987   1.850   3.806  11.741
 3469W        W 6988   8.190   1.442  10.979
 3470W        W 6989   5.065   3.478   8.197
 3471W        W 6990   0.963   2.865   3.612
 3472W        W 6991   8.733   9.327   1.421
 3473W        W 6992   5.294   4.609  11.172
 3474W        W 6993   4.885   7.742   9.855
 3475W        W 6994   7.946   2.237  10.435
 3476W        W 6995   5.995   4.767   1.713
 3477W        W 6996   1.552   4.284   9.720
 3478W        W 6997   6.222   6.378   2.838
 3479W        W 6998   5.489   3.535  10.305
 3480W        W 6999   5.356   2.923   8.764
 3481W        W 7000   7.578   8.440   2.143
 3482W        W 7001   3.637   3.456   8.910
 3483W        W 7002   3.253   4.565   3.374
 3484W        W 7003   4.666   3.640   2.928
 3485W        W 7004   3.468   7.891   0.189
 3486W        W 7005   6.950   4.653   2.617
 3487W        W 7006   2.213   4.679   3.246
 3488W        W 7007   8.454   3.382   1.852
 3489W        W 7008   4.227   7.510   0.280
 3490W        W 7009   0.305   5.419  10.470
 3491W        W 7010   2.325   0.161  10.031
 3492W        W 7011   1.321   2.346   9.055
 3493W        W 7012   7.399   6.181   3.256
 3494W        W 7013   2.730   7.022   0.269
 3495W        W 7014   3.710   5.419   3.658
 3496W        W 7015   2.749   6.907  10.788
 3497W        W 7016   1.735   8.969  11.735
 3498W        W 7017   4.096   8.557  11.700
 3499W        W 7018   5.504   2.897  11.658
 3500W        W 7019   5.467   0.458   0.289
 3501W        W 7020   0.361   4.182   1.305
 3502W        W 7021   9.732   6.119   8.283
 3503W        W 7022   4.464   7.044   8.832
 3504W        W 7023   8.898   9.485  11.903
 3505W        W 7024   6.093   5.113   0.939
 3506W        W 7025   9.056   2.672   2.926
 3507W        W 7026   2.822   3.305   1.559
 3508W        W 7027   5.683   7.110   1.829
 3509W        W 7028   5.177   7.758   3.108
 3510W        W 7029   4.157   7.406   9.740
 3511W        W 7030   3.509   6.847  11.284
 3512W        W 7031   0.885   2.779   0.295
 3513W        W 7032   1.367   1.856   9.310
 3514W        W 7033   4.299   5.604   2.866
 3515W        W 7034   9.384   7.223   9.180
 3516W        W 7035   5.202   9.957   3.123
 3517W        W 7036   6.558   6.700   1.591
 3518W        W 7037   2.138   4.791  10.306
 3519W        W 7038   3.410   0.318  11.647
 3520W        W 7039   3.499   9.459   0.763
 3521W        W 7040   5.531   1.943  11.814
 3522W        W 7041   8.492   6.874  11.096
 3523W        W 7042   8.724   0.083   2.638
 3524W        W 7043   7.304   0.120   1.438
 3525W        W 7044   2.011   8.323   9.405
 3526W        W 7045   2.000   1.394   2.668
 3527W        W 7046   4.435   7.013  10.926
 3528W        W 7047   5.166   1.401   0.455
 3529W        W 7048   9.921   8.443  11.027
 3530W        W 7049   9.984   0.358   2.688
 3531W        W 7050   6.238   6.496  11.931
 3532W        W 7051   2.897   7.763   1.037
 3533W        W 7052   5.620   0.708   2.158
 3534W        W 7053   0.319   6.126   9.147
 3535W        W 7054   1.760   9.502   1.414
 3536W        W 7055   5.024   6.982   8.194
 3537W        W 7056   9.484   8.459   9.234
 3538W        W 7057   6.691   4.449  11.044
 3539W        W 7058   1.006   0.744  11.719
 3540W        W 7059   7.150   6.505   0.393
 3541W        W 7060   8.934   3.590  11.967
 3542W        W 7061   2.355   1.181   9.876
 3543W        W 7062   1.276   8.220   1.403
 3544W        W 7063   9.384   8.590   1.800
 3545W        W 7064   5.515   3.830   8.318
 3546W        W 7065   9.905   0.208  10.532
 3547W        W 7066   8.236   4.743   2.655
 3548W        W 7067   8.960   8.230   0.684
 3549W        W 7068   6.111   0.702   0.519
 3550W        W 7069   5.467   5.055   9.191
 3551W        W 7070   5.858   6.992   8.751
 3552W        W 7071   0.613   7.865  10.087
 3553W        W 7072   6.687   5.678   3.109
 3554W        W 7073   0.349   3.961   0.794
 3555W        W 7074   2.189   1.664  11.765
 3556W        W 7075   5.121   1.584  11.836
 3557W        W 7076   7.860   6.813   3.041
 3558W        W 7077   0.941   1.467   9.942
 3559W        W 7078   0.649   9.828   1.479
 3560W        W 7079   4.346   9.175   9.591
 3561W        W 7080   7.821   3.219  11.318
 3562W        W 7081   6.938   3.778  10.627
 3563W        W 7082   6.943   8.493   0.270
 3564W        W 7083   6.920   1.046   9.909
 3565W        W 7084   1.738   2.630  10.275
 3566W        W 7085   0.923   9.550  11.142
 3567W        W 7086   6.560   8.000   9.999
 3568W        W 7087   6.963   9.701  10.215
 3569W        W 7088   1.775   8.890   1.811
 3570W        W 7089   1.118   5.052   3.233
 3571W        W 7090   9.827   6.030   0.609
 3572W        W 7091   8.651   2.932   3.086
 3573W        W 7092   4.563   7.367  10.058
 3574W        W 7093   4.619   7.015   1.704
 3575W        W 7094   4.521   9.085  10.257
 3576W        W 7095   9.340   7.207   1.711
 3577W        W 7096   8.701   4.427   9.268
 3578W        W 7097   9.794   8.789   1.015
 3579W        W 7098   9.229   0.326   9.279
 3580W        W 7099   1.354   1.172  10.004
 3581W        W 7100   8.069   8.704   9.908
 3582W        W 7101   7.727   6.251   9.229
 3583W        W 7102   4.313   8.371  10.748
 3584W        W 7103   1.748   6.122   0.709
 3585W        W 7104   1.667   0.699   8.805
 3586W        W 7105   4.203   7.869   2.787
 3587W        W 7106   6.721   9.375   3.612
 3588W        W 7107   6.442   0.911  10.112
 3589W        W 7108   4.908   8.102   3.411
 3590W        W 7109   5.255   7.461   2.311
 3591W        W 7110   5.756   7.473   8.879
 3592W        W 7111   1.747   2.034   8.973
 3593W        W 7112   2.783   0.894   9.586
 3594W        W 7113   5.005   7.314   0.525
 3595W        W 7114   9.894   9.762  10.801
 3596W        W 7115   3.228   5.125   9.528
 3597W        W 7116   1.503   9.911   1.260
 3598W        W 7117   0.499   1.722   2.977
 3599W        W 7118   7.168   9.106  11.466
 3600W        W 7119   1.947   0.306   8.995
 3601W        W 7120   7.353   5.275   3.655
 3602W        W 7121   9.576   9.676  10.418
 3603W        W 7122   4.679   0.711   1.702
 3604W        W 7123   6.973   1.313   2.180
 3605W        W 7124   1.726   5.706   0.999
 3606W        W 7125   2.305   1.145   3.441
 3607W        W 7126   6.552   4.897   0.935
 3608W        W 7127   9.535   0.125   2.890
 3609W        W 7128   5.542   8.372   2.599
 3610W        W 7129   1.341   7.617  11.994
 3611W        W 7130   6.640   3.370   0.793
 3612W        W 7131   4.755   1.142   9.364
 3613W        W 7132   2.606   2.205   1.735
 3614W        W 7133   0.703   3.250   3.344
 3615W        W 7134   8.546   8.897   1.159
 3616W        W 7135   6.155   1.237   3.245
 3617W        W 7136   5.222   7.299   3.991
 3618W        W 7137   6.122   4.706  11.521
 3619W        W 7138   2.305   9.847   0.842
 3620W        W 7139   2.411   2.471   0.870
 3621W        W 7140   7.240   2.579   3.513
 3622W        W 7141   5.583   6.600   2.001
 3623W        W 7142   4.754   2.236   3.444
 3624W        W 7143   1.808   0.021   1.701
 3625W        W 7144   6.628   8.307   9.539
 3626W        W 7145   1.322   4.163   2.659
 3627W        W 7146   6.365   3.258   8.767
 3628W        W 7147   3.211   5.586   2.779
 3629W        W 7148   5.495   5.917   3.743
 3630W        W 7149   9.640   5.104   3.121
 3631W        W 7150   5.539   9.079   0.461
 3632W        W 7151   3.626   2.096  10.461
 3633W        W 7152   6.886   7.303   9.968
 3634W        W 7153   3.020   9.425   0.988
 3635W        W 7154   3.306   3.668   9.779
 3636W        W 7155   5.678   9.951   0.985
 3637W        W 7156   8.910   5.968   9.544
 3638W        W 7157   8.597   5.726   0.252
 3639W        W 7158   7.609   3.251   1.732
 3640W        W 7159   5.204   5.793   1.654
 3641W        W 7160   7.751   0.051   9.069
 3642W        W 7161   0.529   9.174  10.487
 3643W        W 7162   1.544   5.081   1.545
 3644W        W 7163   8.329   8.853   2.629
 3645W        W 7164   4.304   0.669   0.530
 3646W        W 7165   5.158   9.372   2.178
 3647W        W 7166   4.706   3.657  11.766
 3648W        W 7167   4.526   1.883   9.883
 3649W        W 7168   8.855   2.205   2.802
 3650W        W 7169   5.418   7.640   8.542
 3651W        W 7170   0.437   1.858  11.433
 3652W        W 7171   1.855   9.067   8.942
 3653W        W 7172   0.415   7.038   0.768
 3654W        W 7173   4.200   3.361   2.628
 3655W        W 7174   8.094   3.717  11.945
 3656W        W 7175   6.782   2.313  11.321
 3657W        W 7176   0.972   2.344  10.706
 3658W        W 7177   2.877   2.729   3.661
 3659W        W 7178   6.092   9.937   2.087
 3660W        W 7179   6.754   4.643   1.330
 3661W        W 7180   6.572   8.829   3.096
 3662W        W 7181   8.145   9.197   9.999
 3663W        W 7182   3.152   7.533  10.251
 3664W        W 7183   9.666   2.817  11.720
 3665W        W 7184   9.657   4.706  10.852
 3666W        W 7185   6.021   9.925   3.226
 3667W        W 7186   1.762   8.062   1.507
 3668W        W 7187   3.585   6.601   9.926
 3669W        W 7188   1.828   1.725   2.316
 3670W        W 7189   0.656   5.998  10.872
 3671W        W 7190   7.122   0.258   3.184
 3672W        W 7191   1.618   7.385   1.760
 3673W        W 7192   4.600   8.759   8.583
 3674W        W 7193   2.293   7.046   2.537
 3675W        W 7194   7.683   7.849  10.888
 3676W        W 7195   1.292   0.434   1.079
 3677W        W 7196   0.566   0.817  11.458
 3678W        W 7197   3.179   4.723   2.067
 3679W        W 7198   7.108   5.278  11.744
 3680W        W 7199   5.126   7.852   1.077
 3681W        W 7200   4.535   0.197  10.566
 3682W        W 7201   4.933   3.107  11.011
 3683W        W 7202   8.409   9.903   1.051
 3684W        W 7203   1.671   4.468  10.835
 3685W        W 7204   8.392   0.487   2.699
 3686W        W 7205   4.024   3.368   1.334
 3687W        W 7206   0.455   1.755  10.925
 3688W        W 7207   5.097   5.699   2.142
 3689W        W 7208   6.776   5.543  11.431
 3690W        W 7209   5.521   2.603   1.805
 3691W        W 7210   0.779   4.337   9.941
 3692W        W 7211   3.001   8.794   1.277
 3693W        W 7212   9.062   9.921   8.992
 3694W        W 7213   2.238   4.447  11.693
 3695W        W 7214   6.266   9.112   9.432
 3696W        W 7215   9.361   5.707   9.553
 3697W        W 7216   8.048   6.266   8.838
 3698W        W 7217   4.258   7.491  10.951
 3699W        W 7218   8.319   6.669   3.247
 3700W        W 7219   7.418   4.029   8.844
 3701W        W 7220   7.820   2.689   9.307
 3702W        W 7221   0.443   4.910  10.516
 3703W        W 7222   3.052   8.416  11.589
 3704W        W 7223   2.229   7.421   9.989
 3705W        W 7224   7.994   7.938   1.308
 3706W        W 7225   2.190   1.963   2.592
 3707W        W 7226   6.199   5.270   9.808
 3708W        W 7227   2.429   0.238   3.216
 3709W        W 7228   0.356   6.410  11.696
 3710W        W 7229   4.775   9.583   3.039
 3711W        W 7230   2.603   0.446   0.263
 3712W        W 7231   3.871   4.636   2.158
 3713W        W 7232   2.287   5.220  10.580
 3714W        W 7233   5.375   1.097   0.842
 3715W        W 7234   9.250   2.021  10.135
 3716W        W 7235   2.277   0.916   9.418
 3717W        W 7236   1.799   8.688   0.895
 3718W        W 7237   7.243   6.831  10.613
 3719W        W 7238   4.079   8.545   2.041
 3720W        W 7239   2.842   4.631  11.041
 3721W        W 7240   4.720   5.646   1.736
 3722W        W 7241   1.682   8.830   2.335
 3723W        W 7242   0.260   8.242  10.232
 3724W        W 7243   6.686   6.676   0.105
 3725W        W 7244   6.619   5.086   9.458
 3726W        W 7245   0.438   2.090  11.901
 3727W        W 7246   7.557   8.913   2.799
 3728W        W 7247   3.679   0.067   9.983
 3729W        W 7248   2.254   6.380   1.292
 3730W        W 7249   5.460   3.638   0.307
 3731W        W 7250   3.572   5.044   2.038
 3732W        W 7251   1.138   4.302   1.714
 3733W        W 7252   5.879   8.415  11.351
 3734W        W 7253   8.711   8.571   2.888
 3735W        W 7254   0.922   7.890   2.064
 3736W        W 7255   3.232   9.935   9.769
 3737W        W 7256   7.518   6.914   2.622
 3738W        W 7257   4.854   5.281   0.410
 3739W        W 7258   2.705   8.409   3.386
 3740W        W 7259   5.470   9.487   0.170
 3741W        W 7260   2.344   4.581   1.873
 3742W        W 7261   3.527   9.299   9.419
 3743W        W 7262   5.644   3.948   2.521
 3744W        W 7263   8.883   9.735   0.653
 3745W        W 7264   3.915   2.616   9.037
 3746W        W 7265   5.982   2.784   1.645
 3747W        W 7266   9.044   0.477   2.829
 3748W        W 7267   1.222   8.225   8.814
 3749W        W 7268   6.771   1.246  10.370
 3750W        W 7269   5.096   8.564   8.699
 3751W        W 7270   9.417   4.631   1.939
 3752W        W 7271   9.771   9.787   0.924
 3753W        W 7272   4.903   0.319   1.269
 3754W        W 7273   0.305   5.529  10.976
 3755W        W 7274   8.120   4.134  11.640
 3756W        W 7275   0.364   4.673  10.074
 3757W        W 7276   2.237   8.418   2.689
 3758W        W 7277   3.972   1.862   0.444
 3759W        W 7278   3.820   2.743  11.713
 3760W        W 7279   1.234   2.091   1.848
 3761W        W 7280   6.378   4.101   9.437
 3762W        W 7281   6.333   6.101   8.838
 3763W        W 7282   6.001   9.424   0.296
 3764W        W 7283   4.897   1.129  11.813
 3765W        W 7284   5.930   5.279   1.811
 3766W        W 7285   2.853   5.983  10.797
 3767W        W 7286   1.224   2.392   2.842
 3768W        W 7287   2.272   0.055   2.398
 3769W        W 7288   7.193   9.138   0.048
 3770W        W 7289   6.901   4.924   0.555
 3771W        W 7290   6.906   5.338   0.849
 3772W        W 7291   9.036   3.883   1.272
 3773W        W 7292   4.171   0.909  11.545
 3774W        W 7293   6.804   8.776  11.412
 3775W        W 7294   6.676   9.040   8.775
 3776W        W 7295   4.566   0.278   8.842
 3777W        W 7296   8.434   8.064   9.639
 3778W        W 7297   8.928   4.408   1.319
 3779W        W 7298   1.798   9.581   2.867
 3780W        W 7299   2.694   9.258  11.712
 3781W        W 7300   2.256   9.513   9.480
 3782W        W 7301   8.010   7.916   0.351
 3783W        W 7302   6.936   4.763   9.185
 3784W        W 7303   0.118   0.121   0.211
 3785W        W 7304   7.580   5.558   1.923
 3786W        W 7305   4.592   0.839   3.184
 3787W        W 7306   4.275   1.863   1.710
 3788W        W 7307   7.219   1.352   3.092
 3789W        W 7308   2.349   9.853   3.560
 3790W        W 7309   6.807   2.857   3.398
 3791W        W 7310   0.064   7.608  11.546
 3792W        W 7311   4.958   1.375   8.911
 3793W        W 7312   7.572   7.100  10.306
 3794W        W 7313   4.810   8.963   0.949
 3795W        W 7314   2.402   0.837  11.066
 3796W        W 7315   5.062   3.115   0.498
 3797W        W 7316   5.648   5.989   9.518
 3798W        W 7317   3.216   9.929  10.778
 3799W        W 7318   1.606   2.432   1.895
 3800W        W 7319   2.239   4.022   1.361
 3801W        W 7320   0.753   8.865   2.255
 3802W        W 7321   2.195   3.178   2.314
 3803W        W 7322   6.075   2.657  11.800
 3804W        W 7323   9.724   4.565   0.422
 3805W        W 7324   1.517   4.481   0.803
 3806W        W 7325   5.175   4.131   2.403
 3807W        W 7326   8.922   7.505   0.474
 3808W        W 7327   3.292   6.600  10.353
 3809W        W 7328   4.541   2.285   1.847
 3810W        W 7329   2.831   1.450   2.772
 3811W        W 7330   5.612   4.361   8.405
 3812W        W 7331   8.344   9.080  11.407
 3813W        W 7332   8.173   1.861  11.270
 3814W        W 7333   0.365   0.710   2.900
 3815W        W 7334   5.787   5.570   2.768
 3816W        W 7335   4.741   4.343  10.977
 3817W        W 7336   1.735   2.322   2.798
 3818W        W 7337   4.425   2.777   0.391
 3819W        W 7338   8.309   3.886   8.632
 3820W        W 7339   1.242   0.646   2.302
 3821W        W 7340   2.031   7.419   2.807
 3822W        W 7341   3.457   4.741   2.507
 3823W        W 7342   7.808   9.509   0.515
 3824W        W 7343   7.617   0.751  11.365
 3825W        W 7344   5.438   8.138   3.361
 3826W        W 7345   1.355   4.425  11.833
 3827W        W 7346   9.521   1.269  10.792
 3828W        W 7347   3.949   7.502   1.892
 3829W        W 7348   6.231   0.369   3.450
 3830W        W 7349   4.686   7.482   1.466
 3831W        W 7350   3.526   3.291  10.841
 3832W        W 7351   7.868   3.975   2.367
 3833W        W 7352   2.420   1.998   0.060
 3834W        W 7353   7.300   6.995   9.870
 3835W        W 7354   3.575   2.033   9.528
 3836W        W 7355   9.260   1.337   1.286
 3837W        W 7356   5.388   9.218  10.725
 3838W        W 7357   3.635   6.394  10.932
 3839W        W 7358   2.260   3.624   0.385
 3840W        W 7359   1.272   0.332  11.518
 3841W        W 7360   3.809   3.249  11.801
 3842W        W 7361   0.388   9.473   0.817
 3843W        W 7362   2.307   3.124   9.583
 3844W        W 7363   4.368   5.963   3.945
 3845W        W 7364   1.391   5.518   2.673
 3846W        W 7365   0.021   1.268  10.952
 3847W        W 7366   6.638   6.632   1.091
 3848W        W 7367   4.565   8.795   1.868
 3849W        W 7368   5.893   4.046  10.849
 3850W        W 7369   1.743   5.683  11.358
 3851W        W 7370   0.891   1.902   2.195
 3852W        W 7371   0.780   7.111   2.752
 3853W        W 7372   6.532   5.205   3.107
 3854W        W 7373   7.702   1.982   3.010
 3855W        W 7374   2.777   5.192   9.276
 3856W        W 7375   7.469   5.227   0.159
 3857W        W 7376   0.382   3.476  10.209
 3858W        W 7377   1.121   7.473   8.982
 3859W        W 7378   0.231   3.877  10.457
 3860W        W 7379   7.428   1.680  11.566
 3861W        W 7380   8.023   2.866   1.234
 3862W        W 7381   8.939   6.976  11.828
 3863W        W 7382   5.514   3.654   3.667
 3864W        W 7383   3.734   4.375   1.176
 3865W        W 7384   2.874   1.739   9.169
 3866W        W 7385   0.182   2.416   3.436
 3867W        W 7386   9.209   5.055   1.782
 3868W        W 7387   3.500   8.747   1.306
 3869W        W 7388   5.511   2.233   3.965
 3870W        W 7389   8.930   8.789   1.925
 3871W        W 7390   1.628   9.082   2.825
 3872W        W 7391   6.661   1.932   0.660
 3873W        W 7392   0.976   2.100  10.272
 3874W        W 7393   3.912   5.482   9.949
 3875W        W 7394   3.212   1.275  11.305
 3876W        W 7395   2.131   5.113   2.328
 3877W        W 7396   3.083   9.267   0.508
 3878W        W 7397   8.278   1.450  11.561
 3879W        W 7398   1.164   7.997   0.869
 3880W        W 7399   6.694   3.803   2.468
 3881W        W 7400   5.635   8.023   9.918
 3882W        W 7401   9.361   1.386  11.758
 3883W        W 7402   4.661   8.116  10.435
 3884W        W 7403   3.704   6.315  11.945
 3885W        W 7404   8.495   7.958   1.093
 3886W        W 7405   0.405   2.842  11.242
 3887W        W 7406   1.837   8.428   0.405
 3888W        W 7407   1.883   3.463  10.051
 3889W        W 7408   8.447   9.480   0.751
 3890W        W 7409   6.992   0.142   0.841
 3891W        W 7410   7.257   8.510   2.607
 3892W        W 7411   8.811   4.097   1.696
 3893W        W 7412   7.920   4.087   3.148
 3894W        W 7413   9.190   3.518  10.159
 3895W        W 7414   4.488   0.422   2.814
 3896W        W 7415   5.552   1.615   3.292
 3897W        W 7416   4.216   4.370   0.955
 3898W        W 7417   2.640   7.650   9.794
 3899W        W 7418   4.407   0.631   2.321
 3900W        W 7419   3.738   3.635   1.687
 3901W        W 7420   4.043   3.644   9.179
 3902W        W 7421   4.740   9.174  11.500
 3903W        W 7422   5.104   8.024  11.582
 3904W        W 7423   3.538   6.892   3.447
 3905W        W 7424   9.866   7.123  11.519
 3906W        W 7425   5.211   9.711   2.630
 3907W        W 7426   9.868   6.394   9.725
 3908W        W 7427   3.273   1.557   0.135
 3909W        W 7428   2.198   7.486   0.541
 3910W        W 7429   1.344   8.450  10.966
 3911W        W 7430   3.746   3.223   8.471
 3912W        W 7431   8.789   8.534   1.486
 3913W        W 7432   7.489   3.090  10.540
 3914W        W 7433   4.327   3.807  10.616
 3915W        W 7434   6.937   8.323   2.262
 3916W        W 7435   2.994   2.311   8.780
 3917W        W 7436   0.453   8.027   2.440
 3918W        W 7437   6.079   8.886   3.205
 3919W        W 7438   7.643   0.743   1.924
 3920W        W 7439   2.758   3.492   8.827
 3921W        W 7440   4.662   9.440   9.883
 3922W        W 7441   8.983   8.677   1.017
 3923W        W 7442   5.168   8.356  10.556
 3924W        W 7443   1.838   7.081   0.343
 3925W        W 7444   9.931   7.856   1.168
 3926W        W 7445   4.128   9.402   9.989
 3927W        W 7446   3.186   5.322   3.668
 3928W        W 7447   4.212   8.940   1.081
 3929W        W 7448   6.290   6.836   2.606
 3930W        W 7449   9.137   3.127  11.996
 3931W        W 7450   3.501   5.966   2.486
 3932W        W 7451   0.143   2.592  11.781
 3933W        W 7452   0.812   6.185   9.372
 3934W        W 7453   3.429   2.806   3.270
 3935W        W 7454   7.154   1.577  10.249
 3936W        W 7455   7.886   9.682   9.882
 3937W        W 7456   5.632   0.367  11.283
 3938W        W 7457   3.707   5.486   1.778
 3939W        W 7458   7.704   3.386  11.817
 3940W        W 7459   4.037   0.176   2.776
 3941W        W 7460   9.605   2.924   9.684
 3942W        W 7461   3.685   7.591   9.890
 3943W        W 7462   2.985   2.677   2.320
 3944W        W 7463   5.630   4.711  11.624
 3945W        W 7464   4.223   4.152  11.092
 3946W        W 7465   7.592   7.995  11.372
 3947W        W 7466   1.987   1.282  10.461
 3948W        W 7467   3.582   9.044   8.982
 3949W        W 7468   5.049   9.318   1.294
 3950W        W 7469   2.919   0.456   9.845
 3951W        W 7470   8.048   4.606  11.842
 3952W        W 7471   2.946   7.017   8.692
 3953W        W 7472   9.527   4.206  10.788
 3954W        W 7473   5.487   0.292  11.778
 3955W        W 7474   9.350   7.031   3.105
 3956W        W 7475   6.524   1.656  10.621
 3957W        W 7476   2.716   4.701   0.542
 3958W        W 7477   3.484   3.187   1.650
 3959W        W 7478   4.754   9.272   3.481
 3960W        W 7479   4.846   5.164   9.942
 3961W        W 7480   1.949   6.178  10.391
 3962W        W 7481   7.262   2.916   1.584
 3963W        W 7482   2.155   6.584   2.709
 3964W        W 7483   0.438   4.138   3.422
 3965W        W 7484   5.383   6.208   9.903
 3966W        W 7485   4.674   9.103   2.272
 3967W        W 7486   0.066   5.094   9.215
 3968W        W 7487   4.447   3.277   9.220
 3969W        W 7488   4.655   7.531   8.996
 3970W        W 7489   5.936   9.133   1.759
 3971W        W 7490   7.620   3.841   0.067
 3972W        W 7491   9.597   5.591   2.847
 3973W        W 7492   6.932   6.401   1.870
 3974W        W 7493   5.420   6.095   0.004
 3975W        W 7494   4.248   9.851   0.112
 3976W        W 7495   9.047   9.979   3.036
 3977W        W 7496   7.751   4.071   0.643
 3978W        W 7497   4.419   1.528   2.083
 3979W        W 7498   6.155   1.231   0.430
 3980W        W 7499   9.278   7.882   0.522
 3981W        W 7500   9.408   8.663   2.316
 3982W        W 7501   0.643   9.355   1.301
 3983W        W 7502   2.819   6.531   0.391
 3984W        W 7503   8.725   4.204   2.212
 3985W        W 7504   3.727   7.831   1.560
 3986W        W 7505   2.525   9.391   1.909
 3987W        W 7506   2.549   2.784   2.782
 3988W        W 7507   6.171   4.531   3.626
 3989W        W 7508   9.758   2.608   2.276
 3990W        W 7509   7.836   5.110   0.529
 3991W        W 7510   5.238   3.857   1.578
 3992W        W 7511   1.369   0.265  10.249
 3993W        W 7512   8.234   8.384   2.800
 3994W        W 7513   4.990   7.383   2.783
 3995W        W 7514   3.902   2.874   3.488
 3996W        W 7515   9.861   5.120  11.719
 3997W        W 7516   6.015   5.474  10.868
 3998W        W 7517   3.967   2.724   9.947
 3999W        W 7518   0.286   2.603   9.210
 4000W        W 7519   6.371   6.078   3.252
 4001W        W 7520   7.031   7.384   3.008
 4002W        W 7521   1.450   6.918   1.620
 4003W        W 7522   2.352   4.609  11.194
 4004W        W 7523   0.373   2.833   0.198
 4005W        W 7524   3.618   3.090   1.163
 4006W        W 7525   8.425   7.575   0.338
 4007W        W 7526   4.962   5.064   9.134
 4008W        W 7527   4.346   4.535   3.601
 4009W        W 7528   1.473   5.670   3.578
 4010W        W 7529   8.534   2.338   1.969
 4011W        W 7530   4.500   7.413   0.695
 4012W        W 7531   5.548   7.995   0.824
 4013W        W 7532   1.957   4.770   0.897
 4014W        W 7533   7.434   8.050   2.431
 4015W        W 7534   4.819   9.066   9.448
 4016W        W 7535   7.605   5.623  10.740
 4017W        W 7536   9.368   4.202   1.520
 4018W        W 7537   4.162   1.726   8.992
 4019W        W 7538   7.007   2.403   8.691
 4020W        W 7539   8.892   2.169   2.291
 4021W        W 7540   7.020   8.016   1.163
 4022W        W 7541   3.107   9.790   0.297
 4023W        W 7542   8.065   4.576   3.139
 4024W        W 7543   3.150   3.398  10.507
 4025W        W 7544   3.148   7.183  11.046
 4026W        W 7545   7.396   6.244  11.815
 4027W        W 7546   0.870   5.643  11.341
 4028W        W 7547   4.285   2.721  11.500
 4029W        W 7548   8.494   8.720  10.222
 4030W        W 7549   6.890   8.827   2.348
 4031W        W 7550   0.247   7.424   1.846
 4032W        W 7551   4.980   9.088   1.770
 4033W        W 7552   3.611   0.260  10.545
 4034W        W 7553   7.034   5.783   9.391
 4035W        W 7554   2.257   6.874   1.175
 4036W        W 7555   7.174   6.517   2.526
 4037W        W 7556   4.368   1.627   1.245
 4038W        W 7557   4.166   8.735   1.550
 4039W        W 7558   1.825   7.471   9.240
 4040W        W 7559   4.192   5.777   0.508
 4041W        W 7560   7.163   0.616   3.548
 4042W        W 7561   5.791   8.592   9.283
 4043W        W 7562   5.081   9.537  11.410
 4044W        W 7563   6.429   6.936  11.762
 4045W        W 7564   1.800   9.397   1.906
 4046W        W 7565   9.431   2.281   9.233
 4047W        W 7566   2.512   4.889   1.486
 4048W        W 7567   8.548   0.447  10.029
 4049W        W 7568   0.831   9.849   2.696
 4050W        W 7569   8.797   2.677  10.067
 4051W        W 7570   5.977   0.038   1.376
 4052W        W 7571   5.441   3.114  11.057
 4053W        W 7572   8.582   5.005   0.980
 4054W        W 7573   5.702   0.033   0.499
 4055W        W 7574   3.049   2.848   8.697
 4056W        W 7575   7.129   9.998   2.723
 4057W        W 7576   0.227   5.081   0.645
 4058W        W 7577   6.560   1.644   2.405
 4059W        W 7578   1.175   3.786  10.515
 4060W        W 7579   2.271   3.346   9.020
 4061W        W 7580   4.099   5.707   9.074
 4062W        W 7581   2.048   8.759   9.737
 4063W        W 7582   6.761   6.574   4.294
 4064W        W 7583   6.661   9.945  11.937
 4065W        W 7584   0.659   0.453  10.818
 4066W        W 7585   7.123   2.352   2.266
 4067W        W 7586   2.641   7.723  11.756
 4068W        W 7587   6.872   0.421  10.950
 4069W        W 7588   6.255   1.737  11.187
 4070W        W 7589   7.055   4.199   2.912
 4071W        W 7590   1.778   4.416  10.335
 4072W        W 7591   7.968   1.134   0.813
 4073W        W 7592   4.090   5.048   9.323
 4074W        W 7593   5.085   1.892   2.892
 4075W        W 7594   0.800   2.155   0.526
 4076W        W 7595   3.923   0.355   1.217
 4077W        W 7596   7.448   3.909  10.108
 4078W        W 7597   6.452   6.241   0.835
 4079W        W 7598   6.436   8.489  10.017
 4080W        W 7599   5.742   5.494   9.893
 4081W        W 7600   0.973   0.250   3.016
 4082W        W 7601   8.653   1.762   2.522
 4083W        W 7602   2.368   6.118  11.181
 4084W        W 7603   4.236   9.916  11.552
 4085W        W 7604   2.397   8.798   3.264
 4086W        W 7605   6.513   4.652   8.246
 4087W        W 7606   6.769   5.886   1.858
 4088W        W 7607   8.001   4.179   0.160
 4089W        W 7608   7.900   6.717   3.569
 4090W        W 7609   9.253   0.860   1.085
 4091W        W 7610   0.863   0.788   3.143
 4092W        W 7611   7.361   8.409   1.087
 4093W        W 7612   9.568   0.908  11.313
 4094W        W 7613   6.954   8.058  10.779
 4095W        W 7614   7.401   2.770   2.049
 4096W        W 7615   6.413   2.592   1.403
 4097W        W 7616   3.287   1.247   2.620
 4098W        W 7617   6.303   2.485  11.345
 4099W        W 7618   7.102   0.519   2.730
 4100W        W 7619   4.224   4.528   9.061
 4101W        W 7620   8.808   9.993  11.905
 4102W        W 7621   3.220   1.778  10.425
 4103W        W 7622   3.696   8.479  10.997
 4104W        W 7623   2.956   5.936   1.844
 4105W        W 7624   3.263   4.973   1.633
 4106W        W 7625   7.507   0.331   3.831
 4107W        W 7626   2.542   3.972  10.197
 4108W        W 7627   6.133   9.712   0.839
 4109W        W 7628   4.082   1.300   2.990
 4110W        W 7629   3.652   3.792   2.984
 4111W        W 7630   9.916   2.909   3.420
 4112W        W 7631   5.388   0.408   9.669
 4113W        W 7632   9.569   5.763   1.622
 4114W        W 7633   7.611   7.502   0.783
 4115W        W 7634   6.631   7.598   2.776
 4116W        W 7635   9.302   6.682   1.626
 4117W        W 7636   1.328   1.192   1.483
 4118W        W 7637   2.345   4.095   8.554
 4119W        W 7638   4.157   0.841   9.517
 4120W        W 7639   3.087   0.277   0.460
 4121W        W 7640   4.447   1.288   8.993
 4122W        W 7641   9.378   6.186   9.710
 4123W        W 7642   8.966   2.307   1.058
 4124W        W 7643   1.290   3.444   0.062
 4125W        W 7644   0.725   3.731   0.262
 4126W        W 7645   4.566   3.359  10.747
 4127W        W 7646   7.230   8.468  11.391
 4128W        W 7647   3.520   3.542   4.110
 4129W        W 7648   6.137   5.732  11.702
 4130W        W 7649   5.404   1.204   0.042
 4131W        W 7650   6.640   4.538   9.524
 4132W        W 7651   0.944   6.962   0.870
 4133W        W 7652   3.611   8.414   3.322
 4134W        W 7653   7.142   3.471   1.766
 4135W        W 7654   6.088   6.706  11.452
 4136W        W 7655   5.190   2.859   3.348
 4137W        W 7656   6.220   7.016  10.578
 4138W        W 7657   8.706   3.953   8.964
 4139W        W 7658   0.710   8.912   2.801
 4140W        W 7659   6.234   4.079   3.354
 4141W        W 7660   5.202   3.698   9.172
 4142W        W 7661   1.151   1.472   0.604
 4143W        W 7662   6.246   1.996   2.631
 4144W        W 7663   8.892   2.897   9.137
 4145W        W 7664   2.829   4.714   0.038
 4146W        W 7665   6.020   4.792  10.005
 4147W        W 7666   1.432   0.363   3.203
 4148W        W 7667   6.052   6.614   1.782
 4149W        W 7668   5.402   6.536  10.311
 4150W        W 7669   8.290   1.289   9.575
 4151W        W 7670   5.649   5.453   1.005
 4152W        W 7671   5.188   6.478   8.259
 4153W        W 7672   7.654   7.316   9.499
 4154W        W 7673   1.639   8.889   0.235
 4155W        W 7674   7.382   6.356  10.804
 4156W        W 7675   8.075   8.424  11.922
 4157W        W 7676   0.740   0.819   2.227
 4158W        W 7677   5.953   6.886   2.217
 4159W        W 7678   8.525   8.937   1.661
 4160W        W 7679   2.194   0.379   2.765
 4161W        W 7680   1.331   7.925   3.620
 4162W        W 7681   5.525   6.624   8.617
 4163W        W 7682   9.324   7.404  10.383
 4164W        W 7683   0.133   6.013  10.910
 4165W        W 7684   2.680   1.499   3.265
 4166W        W 7685   2.877   4.797   2.468
 4167W        W 7686   4.805   5.218   3.478
 4168W        W 7687   4.851   6.032   9.841
 4169W        W 7688   3.178   0.832  10.375
 4170W        W 7689   0.395   3.337   0.238
 4171W        W 7690   9.856   6.999  10.901
 4172W        W 7691   5.340   4.869   2.249
 4173W        W 7692   4.676   1.827  11.347
 4174W        W 7693   5.863   1.313   9.449
 4175W        W 7694   6.384   0.277  10.772
 4176W        W 7695   2.811   1.923   2.995
 4177W        W 7696   7.016   1.010   2.609
 4178W        W 7697   3.847   3.689  10.820
 4179W        W 7698   2.117   8.091   8.658
 4180W        W 7699   5.904   8.303   2.226
 4181W        W 7700   6.961   9.265   8.368
 4182W        W 7701   3.279   6.714   2.148
 4183W        W 7702   9.814   5.604  10.830
 4184W        W 7703   2.841   3.805  11.629
 4185W        W 7704   8.815   1.722  10.391
 4186W        W 7705   9.295   2.580  10.004
 4187W        W 7706   3.732   4.491   9.853
 4188W        W 7707   2.653   5.127   0.270
 4189W        W 7708   6.358   9.644   9.525
 4190W        W 7709   4.525   8.720  11.504
 4191W        W 7710   8.543   8.467   0.830
 4192W        W 7711   5.973   0.433  11.662
 4193W        W 7712   9.724   3.677  10.103
 4194W        W 7713   6.087   1.570   0.856
 4195W        W 7714   9.019   7.867   8.689
 4196W        W 7715   2.290   9.456  11.373
 4197W        W 7716   0.387   4.616   2.621
 4198W        W 7717   0.789   1.957   1.633
 4199W        W 7718   5.914   6.933  11.019
 4200W        W 7719   6.993   2.020  10.022
 4201W        W 7720   8.349   1.496   1.533
 4202W        W 7721   2.124   6.768   9.570
 4203W        W 7722   1.222   0.793   9.047
 4204W        W 7723   2.232   1.794   9.228
 4205W        W 7724   2.525   7.378   2.882
 4206W        W 7725   2.309   6.714   0.295
 4207W        W 7726   0.173   0.425   9.584
 4208W        W 7727   3.607   1.478   2.950
 4209W        W 7728   8.878   9.714   1.147
 4210W        W 7729   4.450   5.946  11.839
 4211W        W 7730   8.800   5.450   2.549
 4212W        W 7731   1.474   2.649   9.839
 4213W        W 7732   9.684   0.593   1.705
 4214W        W 7733   7.921   3.507   3.850
 4215W        W 7734   6.600   8.045   2.011
 4216W        W 7735   0.477   0.208   2.881
 4217W        W 7736   5.586   2.188   9.219
 4218W        W 7737   1.548   3.753   2.371
 4219W        W 7738   5.255   2.398   8.826
 4220W        W 7739   6.467   7.890  10.500
 4221W        W 7740   7.401   7.528  11.212
 4222W        W 7741   3.434   6.958   8.523
 4223W        W 7742   6.751   0.792  11.912
 4224W        W 7743   5.278   5.653  11.646
 4225W        W 7744   3.372   4.133   0.761
 4226W        W 7745   4.244   8.530  10.261
 4227W        W 7746   8.957   0.253  10.508
 4228W        W 7747   4.214   5.447   3.773
 4229W        W 7748   6.031   6.252   9.332
 4230W        W 7749   7.621   5.890   9.849
 4231W        W 7750   1.817   4.738   3.603
 4232W        W 7751   8.201   9.863   1.944
 4233W        W 7752   7.175   4.369   1.375
 4234W        W 7753   5.773   3.376   4.032
 4235W        W 7754   9.967   5.700   2.442
 4236W        W 7755   5.573   3.075  10.508
 4237W        W 7756   6.413   7.646  11.454
 4238W        W 7757   1.075   3.738   2.511
 4239W        W 7758   8.232   8.289  10.145
 4240W        W 7759   0.812   3.301   2.449
 4241W        W 7760   3.891   9.260   8.607
 4242W        W 7761   0.253   2.590   1.455
 4243W        W 7762   8.645   9.300   9.365
 4244W        W 7763   3.120   4.079   1.232
 4245W        W 7764   1.150   1.199   2.981
 4246W        W 7765   9.075   0.972  11.881
 4247W        W 7766   3.228   1.725   3.202
 4248W        W 7767   5.691   0.965   0.386
 4249W        W 7768   8.036   3.559  10.957
 4250W        W 7769   0.840   6.160   8.832
 4251W        W 7770   2.782   7.032   1.631
 4252W        W 7771   4.351   4.751   2.292
 4253W        W 7772   5.949   0.334   0.165
 4254W        W 7773   2.717   5.167   9.783
 4255W        W 7774   0.793   2.383   1.997
 4256W        W 7775   6.225   3.175   9.632
 4257W        W 7776   1.238   1.320  10.912
 4258W        W 7777   3.087   9.520   9.526
 4259W        W 7778   8.905   4.455   3.434
 4260W        W 7779   4.677   7.153  11.380
 4261W        W 7780   8.951   7.747   0.930
 4262W        W 7781   1.241   2.302   9.553
 4263W        W 7782   3.163   3.253  10.021
 4264W        W 7783   1.120   5.767  11.954
 4265W        W 7784   4.161   8.406   0.193
 4266W        W 7785   0.019   9.085   9.125
 4267W        W 7786   6.193   1.697   9.344
 4268W        W 7787   4.669   1.758   3.235
 4269W        W 7788   7.637   0.282  11.066
 4270W        W 7789   0.924   4.336  11.223
 4271W        W 7790   5.010   3.777   1.139
 4272W        W 7791   6.718   6.032   8.463
 4273W        W 7792   4.610   3.123   2.851
 4274W        W 7793   7.831   1.507   2.295
 4275W        W 7794   6.529   4.184   1.188
 4276W        W 7795   2.372   6.666  10.475
 4277W        W 7796   2.146   8.309   0.879
 4278W        W 7797   8.095   8.384   2.254
 4279W        W 7798   1.570   3.240   3.129
 4280W        W 7799   0.885   8.400   0.366
 4281W        W 7800   5.398   1.715   1.443
 4282W        W 7801   8.983   6.093  10.065
 4283W        W 7802   2.971   6.236  11.739
 4284W        W 7803   2.858   9.737  11.822
 4285W        W 7804   4.218   6.723   9.199
 4286W        W 7805   0.899   2.093   9.249
 4287W        W 7806   9.322   0.990   2.410
 4288W        W 7807   8.060   9.995   1.438
 4289W        W 7808   8.375   2.752   0.003
 4290W        W 7809   6.021   8.060   2.644
 4291W        W 7810   4.668   6.612   9.001
 4292W        W 7811   5.992   0.808   9.417
 4293W        W 7812   7.353   9.386  10.281
 4294W        W 7813   1.079   4.182   2.208
 4295W        W 7814   7.381   4.380   2.573
 4296W        W 7815   9.212   9.298   3.009
 4297W        W 7816   1.666   5.551   3.114
 4298W        W 7817   6.909   9.983  11.451
 4299W        W 7818   2.773   9.095  10.134
 4300W        W 7819   4.996   5.935   2.920
 4301W        W 7820   3.811   3.711   3.446
 4302W        W 7821   1.862   0.235   2.178
 4303W        W 7822   5.628   3.073   2.052
 4304W        W 7823   7.831   0.273   9.528
 4305W        W 7824   9.263   1.699   8.833
 4306W        W 7825   1.810   5.225  10.298
 4307W        W 7826   5.240   7.395   8.949
 4308W        W 7827   9.766   7.514   1.541
 4309W        W 7828   3.969   7.416   2.878
 4310W        W 7829   5.499   4.779   9.953
 4311W        W 7830   3.958   0.840   2.218
 4312W        W 7831   7.072   4.002   8.448
 4313W        W 7832   9.978   5.950   9.959
 4314W        W 7833   5.023   9.109   8.634
 4315W        W 7834   3.245   1.649   9.522
 4316W        W 7835   6.779   2.377   0.436
 4317W        W 7836   9.612   9.627   3.087
 4318W        W 7837   5.606   0.862   1.260
 4319W        W 7838   3.483   6.584   1.287
 4320W        W 7839   4.675   0.407   0.806
 4321W        W 7840   1.903   0.521   1.753
 4322W        W 7841   0.668   5.537   8.479
 4323W        W 7842   5.943   7.650  11.625
 4324W        W 7843   1.934   6.935   1.789
 4325W        W 7844   3.706   0.029   3.230
 4326W        W 7845   8.481   6.010  10.238
 4327W        W 7846   9.041   0.217   9.992
 4328W        W 7847   1.745   2.798   0.623
 4329W        W 7848   7.055   7.476   0.262
 4330W        W 7849   4.984   3.956   8.024
 4331W        W 7850   1.393   7.968   2.246
 4332W        W 7851   5.131   6.454   1.664
 4333W        W 7852   9.217   1.766   1.544
 4334W        W 7853   8.457   5.733   9.352
 4335W        W 7854   8.511   4.116  11.321
 4336W        W 7855   2.610   5.599  10.036
 4337W        W 7856   6.536   0.795  11.062
 4338W        W 7857   2.225   9.872   9.088
 4339W        W 7858   6.608   4.172  10.635
 4340W        W 7859   4.664   3.894   2.399
 4341W        W 7860   2.497   1.489   0.152
 4342W        W 7861   0.098   9.510   2.247
 4343W        W 7862   0.559   5.444   0.791
 4344W        W 7863   2.856   0.479   3.513
 4345W        W 7864   8.415   1.567   0.062
 4346W        W 7865   0.324   3.257  10.757
 4347W        W 7866   2.200   4.347   3.646
 4348W        W 7867   9.428   8.840  11.644
 4349W        W 7868   5.463   2.528  10.387
 4350W        W 7869   7.960   0.405   0.299
 4351W        W 7870   2.435   9.537   3.153
 4352W        W 7871   3.698   2.944   9.380
 4353W        W 7872   8.122   9.600  10.713
 4354W        W 7873   9.917   5.737  11.312
 4355W        W 7874   6.892   5.744  11.882
 4356W        W 7875   7.766   4.719  10.310
 4357W        W 7876   0.987   0.192   3.516
 4358W        W 7877   6.624   3.521  11.922
 4359W        W 7878   6.976   5.457  10.401
 4360W        W 7879   8.089   4.714   8.678
 4361W        W 7880   9.904   8.937  11.813
 4362W        W 7881   4.365   1.039   1.945
 4363W        W 7882   3.298   9.733   1.740
 4364W        W 7883   3.318   8.819  10.207
 4365W        W 7884   6.090   3.307   1.894
 4366W        W 7885   7.682   7.303   8.978
 4367W        W 7886   4.314   2.584   0.924
 4368W        W 7887   9.549   3.275   3.342
 4369W        W 7888   7.702   9.551   9.086
 4370W        W 7889   2.093   3.966   3.277
 4371W        W 7890   4.099   4.713   1.297
 4372W        W 7891   6.004   5.656   8.540
 4373W        W 7892   0.687   4.865   3.416
 4374W        W 7893   7.017   4.505   8.310
 4375W        W 7894   0.408   1.106   1.512
 4376W        W 7895   9.745   3.767  10.607
 4377W        W 7896   7.436   7.077   1.299
 4378W        W 7897   3.338   4.677  11.137
 4379W        W 7898   5.440   0.355   1.216
 4380W        W 7899   2.445   4.708  10.710
 4381W        W 7900   4.630   6.675   0.231
 4382W        W 7901   9.500   6.361   2.178
 4383W        W 7902   8.084   0.374  11.347
 4384W        W 7903   7.839   7.976  11.878
 4385W        W 7904   6.601   2.510  11.764
 4386W        W 7905   9.343   7.994   3.338
 4387W        W 7906   9.321   4.700   9.470
 4388W        W 7907   4.710   4.812   0.441
 4389W        W 7908   3.031   5.070   4.090
 4390W        W 7909   2.368   3.068   3.158
 4391W        W 7910   4.404   6.555   1.024
 4392W        W 7911   4.261   1.538   3.452
 4393W        W 7912   7.166   3.768   2.278
 4394W        W 7913   0.026   5.060  10.193
 4395W        W 7914   8.563   7.620   9.348
 4396W        W 7915   5.072   0.776   9.497
 4397W        W 7916   3.617   4.218  11.783
 4398W        W 7917   9.556   4.120   3.419
 4399W        W 7918   2.732   7.211  11.768
 4400W        W 7919   3.222   3.756   8.828
 4401W        W 7920   2.899   3.940   2.339
 4402W        W 7921   1.745   1.253  10.939
 4403W        W 7922   3.088   0.560   0.875
 4404W        W 7923   8.478   1.856  10.775
 4405W        W 7924   0.396   4.533  11.951
 4406W        W 7925   3.048   6.297   1.427
 4407W        W 7926   6.705   0.814   9.109
 4408W        W 7927   8.471   6.216   9.753
 4409W        W 7928   6.097   7.148  10.076
 4410W        W 7929   5.600   5.808   2.311
 4411W        W 7930   5.279   2.987   0.952
 4412W        W 7931   7.861   8.969  11.320
 4413W        W 7932   0.356   8.407   2.108
 4414W        W 7933   0.967   5.503   0.405
 4415W        W 7934   7.583   0.724   9.418
 4416W        W 7935   8.209   3.191   3.116
 4417W        W 7936   0.896   7.017   2.262
 4418W        W 7937   0.331   8.161  11.278
 4419W        W 7938   7.459   3.985   3.337
 4420W        W 7939   8.054   6.874  10.467
 4421W        W 7940   9.775   0.736   1.011
 4422W        W 7941   8.562   6.632   1.845
 4423W        W 7942   8.598   9.738  10.612
 4424W        W 7943   0.342   9.223  11.836
 4425W        W 7944   6.630   6.077   2.782
 4426W        W 7945   3.174   3.275   9.060
 4427W        W 7946   9.076   4.550   2.405
 4428W        W 7947   3.964   4.245   1.789
 4429W        W 7948   2.659   7.375   8.430
 4430W        W 7949   6.422   2.481  10.052
 4431W        W 7950   9.330   0.546   2.078
 4432W        W 7951   4.645   0.702  11.718
 4433W        W 7952   0.831   6.157  11.353
 4434W        W 7953   1.384   3.536  10.106
 4435W        W 7954   6.379   1.356   9.733
 4436W        W 7955   6.481   5.281  10.943
 4437W        W 7956   3.016   7.926   8.685
 4438W        W 7957   7.570   9.377  11.260
 4439W        W 7958   9.395   6.536  11.845
 4440W        W 7959   8.206   6.386   2.131
 4441W        W 7960   7.023   8.330   3.136
 4442W        W 7961   8.226   9.441   3.203
 4443W        W 7962   8.058   7.000   9.390
 4444W        W 7963   4.637   9.977   1.591
 4445W        W 7964   9.766   0.352  10.994
 4446W        W 7965   5.669   6.458   3.677
 4447W        W 7966   5.408   0.566   3.483
 4448W        W 7967   4.605   7.178   0.242
 4449W        W 7968   7.779   1.165   9.644
 4450W        W 7969   4.868   1.349   1.885
 4451W        W 7970   5.451   1.476   8.739
 4452W        W 7971   4.039   5.174   1.026
 4453W        W 7972   9.260   8.794   2.806
 4454W        W 7973   8.084   9.706   0.104
 4455W        W 7974   6.759   7.542  10.731
 4456W        W 7975   2.409   9.478   1.232
 4457W        W 7976   7.431   0.379   0.591
 4458W        W 7977   5.983   2.776   3.117
 4459W        W 7978   8.607   6.590   2.349
 4460W        W 7979   3.954   6.801  11.599
 4461W        W 7980   6.594   0.866   0.391
 4462W        W 7981   3.115   5.158  10.384
 4463W        W 7982   7.366   9.157   3.351
 4464W        W 7983   4.526   5.854  10.989
 4465W        W 7984   4.243   8.112   2.309
 4466W        W 7985   3.071   9.738   3.585
 4467W        W 7986   4.062   7.137  11.978
 4468W        W 7987   0.824   0.645   9.519
 4469W        W 7988   2.559   9.089   2.882
 4470W        W 7989   4.480   7.391  11.802
 4471W        W 7990   7.379   2.809  10.092
 4472W        W 7991   5.202   2.793   2.141
 4473W        W 7992   2.780   9.963   9.981
 4474W        W 7993   8.508   9.771   1.537
 4475W        W 7994   0.928   9.772   3.220
 4476W        W 7995   2.359   9.633  11.854
 4477W        W 7996   1.772   9.698   9.721
 4478W        W 7997   4.533   9.326   1.835
 4479W        W 7998   5.657   4.852  10.870
 4480W        W 7999   2.404   1.205  11.724
 4481W        W 8000   4.757   2.881   2.370
 4482W        W 8001   8.670   6.123   2.001
 4483W        W 8002   0.903   5.187   0.013
 4484W        W 8003   9.024   8.555   9.022
 4485W        W 8004   4.496   2.436   2.330
 4486W        W 8005   2.404   6.988   8.710
 4487W        W 8006   3.990   7.152   8.996
 4488W        W 8007   1.769   0.360   0.340
 4489W        W 8008   3.573   9.819   9.404
 4490W        W 8009   5.146   3.656   2.243
 4491W        W 8010   9.360   4.689   1.432
 4492W        W 8011   6.965   7.770   9.794
 4493W        W 8012   3.685   7.003   2.963
 4494W        W 8013   5.742   3.612   0.755
 4495W        W 8014   4.194   6.360   8.248
 4496W        W 8015   6.071   8.639  11.899
 4497W        W 8016   0.192   9.673   1.260
 4498W        W 8017   7.264   7.262   8.683
 4499W        W 8018   0.476   8.395   0.048
 4500W        W 8019   8.957   3.069   2.176
 4501W        W 8020   2.154   7.852   9.678
 4502W        W 8021   9.174   1.780   2.070
 4503W        W 8022   9.356   4.985   2.306
 4504W        W 8023   9.861   5.605  10.330
 4505W        W 8024   2.425   0.728   3.032
 4506W        W 8025   5.530   6.650  10.806
 4507W        W 8026   7.974   7.563   8.656
 4508W        W 8027   1.818   2.699  11.188
 4509W        W 8028   6.264   3.663   2.230
 4510W        W 8029   1.616   7.950   0.603
 4511W        W 8030   6.043   4.724   2.602
 4512W        W 8031   5.976   2.337   1.382
 4513W        W 8032   2.184   1.999   0.857
 4514W        W 8033   6.184   5.219   8.805
 4515W        W 8034   6.803   6.057   9.743
 4516W        W 8035   4.732   2.650  10.922
 4517W        W 8036   8.400   2.979   0.886
 4518W        W 8037   3.055   7.962   9.187
 4519W        W 8038   9.393   7.202   9.765
 4520W        W 8039   8.583   4.560  10.582
 4521W        W 8040   6.034   6.536  10.644
 4522W        W 8041   1.708   7.980   9.980
 4523W        W 8042   4.599   4.057   1.078
 4524W        W 8043   5.929   1.550   9.908
 4525W        W 8044   8.971   2.299   0.016
 4526W        W 8045   9.352   4.874   9.984
 4527W        W 8046   2.531   6.563   0.817
 4528W        W 8047   3.057   0.101   1.488
 4529W        W 8048   4.196   0.574   1.836
 4530W        W 8049   9.160   9.776   0.218
 4531W        W 8050   2.327   4.040   9.540
 4532W        W 8051   6.636   2.227   9.635
 4533W        W 8052   8.453   2.375   0.947
 4534W        W 8053   0.268   2.336  10.988
 4535W        W 8054   0.524   8.858   1.414
 4536W        W 8055   6.743   8.458   2.729
 4537W        W 8056   8.469   3.341   9.512
 4538W        W 8057   6.707   2.851  11.416
 4539W        W 8058   2.885   7.527   9.376
 4540W        W 8059   9.732   9.029   2.499
 4541W        W 8060   4.403   7.196   9.325
 4542W        W 8061   8.062   9.774   9.405
 4543W        W 8062   3.762   7.293   9.437
 4544W        W 8063   6.457   5.409   1.095
 4545W        W 8064   5.895   3.940   0.272
 4546W        W 8065   9.528   0.874   0.123
 4547W        W 8066   8.433   8.829   2.144
 4548W        W 8067   4.162   9.272   1.487
 4549W        W 8068   9.681   8.164   0.355
 4550W        W 8069   2.135   0.871   2.617
 4551W        W 8070   9.996   6.873   1.030
 4552W        W 8071   6.067   0.469   2.006
 4553W        W 8072   6.277   9.423   8.640
 4554W        W 8073   0.006   4.176   9.266
 4555W        W 8074   0.416   6.178   0.212
 4556W        W 8075   6.156   7.429   3.077
 4557W        W 8076   0.509   1.337   8.695
 4558W        W 8077   3.120   5.650  10.204
 4559W        W 8078   5.498   2.119   3.102
 4560W        W 8079   2.054   9.128   1.095
 4561W        W 8080   0.321   8.271  10.769
 4562W        W 8081   3.379   8.072   1.885
 4563W        W 8082   0.816   0.571   2.665
 4564W        W 8083   4.267   6.486   0.541
 4565W        W 8084   0.670   1.260   3.164
 4566W        W 8085   0.558   0.645   1.651
 4567W        W 8086   7.388   2.727   3.026
 4568W        W 8087   3.413   1.595   3.646
 4569W        W 8088   7.948   2.831  11.682
 4570W        W 8089   7.334   4.392  11.403
 4571W        W 8090   4.248   0.425  11.437
 4572W        W 8091   0.074   2.865   2.625
 4573W        W 8092   3.403   9.950   0.699
 4574W        W 8093   0.025   7.582   0.070
 4575W        W 8094   5.366   6.141   2.001
 4576W        W 8095   3.071   7.227   3.457
 4577W        W 8096   7.167   5.755   1.040
 4578W        W 8097   3.327   5.965  11.032
 4579W        W 8098   4.631   0.292   1.988
 4580W        W 8099   7.593   6.599   0.120
 4581W        W 8100   6.820   0.691   1.728
 4582W        W 8101   2.683   4.941   2.012
 4583W        W 8102   8.290   4.104   9.282
 4584W        W 8103   3.781   0.601   9.819
 4585W        W 8104   3.398   5.113   2.869
 4586W        W 8105   7.035   4.368   8.814
 4587W        W 8106   5.772   7.014   9.308
 4588W        W 8107   5.016   0.368   9.165
 4589W        W 8108   9.946   5.445   1.447
 4590W        W 8109   4.724   8.014   2.366
 4591W        W 8110   6.462   8.908   0.706
 4592W        W 8111   1.929   9.504   8.451
 4593W        W 8112   9.694   0.453   8.319
 4594W        W 8113   3.206   2.885  10.700
 4595W        W 8114   4.458   3.042   1.185
 4596W        W 8115   2.742   4.560   8.978
 4597W        W 8116   2.708   4.217  11.364
 4598W        W 8117   8.854   0.517   0.016
 4599W        W 8118   8.111   4.802   1.148
 4600W        W 8119   2.002   8.866  10.250
 4601W        W 8120   9.756   9.827   1.500
 4602W        W 8121   0.385   6.132   2.178
 4603W        W 8122   0.533   2.127  10.580
 4604W        W 8123   4.549   4.286   3.196
 4605W        W 8124   8.396   7.054   1.505
 4606W        W 8125   4.080   2.282   1.313
 4607W        W 8126   7.617   0.205   3.361
 4608W        W 8127   6.010   2.049   0.034
 4609W        W 8128   3.390   8.731   2.984
 4610W        W 8129   3.695   9.879  10.913
 4611W        W 8130   3.636   6.858  10.662
 4612W        W 8131   7.099   6.508  11.433
 4613W        W 8132   9.059   5.167   0.696
 4614W        W 8133   5.238   7.603  11.178
 4615W        W 8134   1.398   4.502  11.284
 4616W        W 8135   3.722   6.389  11.434
 4617W        W 8136   3.826   5.912   3.583
 4618W        W 8137   6.216   0.901   3.612
 4619W        W 8138   5.694   2.720   0.746
 4620W        W 8139   1.991   1.268  11.409
 4621W        W 8140   3.302   8.535   0.022
 4622W        W 8141   9.510   4.231   9.414
 4623W        W 8142   0.043   5.692   1.895
 4624W        W 8143   2.472   3.365  11.103
 4625W        W 8144   6.874   5.058  10.738
 4626W        W 8145   2.308   7.201   1.557
 4627W        W 8146   4.617   9.146   8.946
 4628W        W 8147   0.421   7.589   9.681
 4629W        W 8148   9.566   6.381  10.151
 4630W        W 8149   6.772   0.263   9.014
 4631W        W 8150   1.718   4.532   3.154
 4632W        W 8151   0.170   6.584   3.545
 4633W        W 8152   5.918   2.473   0.291
 4634W        W 8153   9.549   8.008   1.485
 4635W        W 8154   3.713   2.825  10.783
 4636W        W 8155   4.258   6.163  10.654
 4637W        W 8156   6.860   3.890   8.910
 4638W        W 8157   0.935   7.950   2.590
 4639W        W 8158   1.890   4.129   2.423
 4640W        W 8159   5.976   1.173  11.785
 4641W        W 8160   6.456   3.499  10.029
 4642W        W 8161   3.190   6.494   3.534
 4643W        W 8162   7.550   4.140   1.114
 4644W        W 8163   0.761   6.619   2.649
 4645W        W 8164   8.573   8.396   2.422
 4646W        W 8165   5.781   7.460  11.178
 4647W        W 8166   5.659   9.538   0.655
 4648W        W 8167   0.035   4.913   0.177
 4649W        W 8168   7.918   6.905   0.342
 4650W        W 8169   1.035   1.308   8.685
 4651W        W 8170   3.258   1.694  11.608
 4652W        W 8171   6.526   8.828  10.966
 4653W        W 8172   8.535   4.478   0.943
 4654W        W 8173   3.238   3.325   8.534
 4655W        W 8174   2.081   6.617   2.181
 4656W        W 8175   8.108   2.361  11.455
 4657W        W 8176   5.520   6.735   1.509
 4658W        W 8177   3.209   2.294  10.048
 4659W        W 8178   0.179   0.630   1.988
 4660W        W 8179   5.207   8.116  11.077
 4661W        W 8180   1.854   6.095   9.876
 4662W        W 8181   7.824   9.901  10.378
 4663W        W 8182   6.501   4.872   9.890
 4664W        W 8183   0.867   6.486   0.483
 4665W        W 8184   2.033   7.632   1.496
 4666W        W 8185   4.257   6.339   3.486
 4667W        W 8186   5.918   6.892   3.557
 4668W        W 8187   9.683   6.658  11.291
 4669W        W 8188   6.523   3.103   9.231
 4670W        W 8189   2.026   3.662   2.227
 4671W        W 8190   7.034   0.318   2.277
 4672W        W 8191   4.762   9.890  11.578
 4673W        W 8192   4.461   6.872  11.787
 4674W        W 8193   4.794   7.430  10.945
 4675W        W 8194   0.399   1.956   2.350
 4676W        W 8195   7.443   4.232   2.107
 4677W        W 8196   0.409   6.383  10.620
 4678W        W 8197   9.029   8.161  11.286
 4679W        W 8198   3.860   9.005  10.999
 4680W        W 8199   1.840   4.053   9.312
 4681W        W 8200   0.843   4.034   0.693
 4682W        W 8201   9.222   8.905  10.634
 4683W        W 8202   0.196   7.604   2.339
 4684W        W 8203   0.681   2.991   2.825
 4685W        W 8204   7.616   9.550   3.599
 4686W        W 8205   4.784   2.761   1.834
 4687W        W 8206   8.190   4.895  10.541
 4688W        W 8207   0.370   2.145   1.839
 4689W        W 8208   3.089   6.145   8.979
 4690W        W 8209   4.002   3.756   0.361
 4691W        W 8210   4.042   7.010   8.488
 4692W        W 8211   5.103   9.449   9.594
 4693W        W 8212   0.659   2.576  11.877
 4694W        W 8213   6.076   7.804   0.110
 4695W        W 8214   4.182   4.018   8.861
 4696W        W 8215   0.446   1.973   3.449
 4697W        W 8216   3.348   9.811  11.799
 4698W        W 8217   2.887   5.178   2.813
 4699W        W 8218   3.037   1.250   9.311
 4700W        W 8219   8.901   7.153  10.964
 4701W        W 8220   8.403   0.277   1.745
 4702W        W 8221   4.637   2.475   9.585
 4703W        W 8222   9.384   9.088   2.018
 4704W        W 8223   5.544   2.866   9.991
 4705W        W 8224   9.582   8.220   2.510
 4706W        W 8225   8.958   9.305   1.865
 4707W        W 8226   8.776   1.164   1.409
 4708W        W 8227   9.060   3.127   3.314
 4709W        W 8228   7.569   6.431   2.844
 4710W        W 8229   4.520   9.570  11.261
 4711W        W 8230   9.748   0.420   0.008
 4712W        W 8231   4.727   4.398   2.296
 4713W        W 8232   6.852   3.628   0.389
 4714W        W 8233   4.152   4.685   3.142
 4715W        W 8234   4.685   5.732   1.109
 4716W        W 8235   7.618   7.989   0.928
 4717W        W 8236   7.030   8.897   2.840
 4718W        W 8237   5.862   0.294  10.822
 4719W        W 8238   1.777   0.108   0.807
 4720W        W 8239   3.374   1.487   0.671
 4721W        W 8240   4.012   7.610  11.818
 4722W        W 8241   3.926   8.957   9.370
 4723W        W 8242   2.616   1.638  10.150
 4724W        W 8243   6.228   8.620   9.570
 4725W        W 8244   0.980   3.669  11.034
 4726W        W 8245   1.885   7.456  10.784
 4727W        W 8246   7.926   8.189   3.162
 4728W        W 8247   7.940   1.021   8.862
 4729W        W 8248   8.491   5.893   8.841
 4730W        W 8249   3.388   1.195  11.784
 4731W        W 8250   6.970   1.119   3.549
 4732W        W 8251   6.692   0.717   2.312
 4733W        W 8252   0.928   2.081   3.202
 4734W        W 8253   4.093   4.807  10.572
 4735W        W 8254   8.047   4.900   1.657
 4736W        W 8255   5.474   0.644   9.218
 4737W        W 8256   7.906   0.278   2.029
 4738W        W 8257   2.145   5.128   8.595
 4739W        W 8258   0.725   8.895  11.959
 4740W        W 8259   1.006   4.993  11.103
 4741W        W 8260   3.964   9.369   0.585
 4742W        W 8261   7.115   6.041   0.225
 4743W        W 8262   4.767   9.855   0.104
 4744W        W 8263   3.230   9.910  11.315
 4745W        W 8264   3.321   4.577  11.990
 4746W        W 8265   5.047   2.391   3.050
 4747W        W 8266   6.195   1.906   2.128
 4748W        W 8267   0.013   4.122   3.140
 4749W        W 8268   1.393   7.436   3.433
 4750W        W 8269   9.897   2.029   0.499
 4751W        W 8270   8.088   8.207   0.896
 4752W        W 8271   9.969   3.129  11.433
 4753W        W 8272   4.941   3.162   8.578
 4754W        W 8273   8.316   0.065   3.457
 4755W        W 8274   5.507   3.903   8.826
 4756W        W 8275   0.842   1.708   0.263
 4757W        W 8276   9.446   0.876   0.621
 4758W        W 8277   3.737   6.535   0.434
 4759W        W 8278   4.916   5.618  10.163
 4760W        W 8279   8.462   5.980  11.253
 4761W        W 8280   4.978   4.767  10.210
 4762W        W 8281   9.929   0.258  10.005
 4763W        W 8282   1.304   5.504   1.310
 4764W        W 8283   8.803   7.310   1.255
 4765W        W 8284   1.877   9.355   0.112
 4766W        W 8285   4.818   0.022   2.770
 4767W        W 8286   6.404   2.650   0.207
 4768W        W 8287   0.856   9.064   1.726
 4769W        W 8288   6.296   2.223   0.501
 4770W        W 8289   2.037   9.916   1.250
 4771W        W 8290   9.934   2.156  11.992
 4772W        W 8291   6.661   0.189   2.621
 4773W        W 8292   7.616   5.151   1.551
 4774W        W 8293   1.650   1.162   0.748
 4775W        W 8294   0.974   9.291  11.633
 4776W        W 8295   9.483   5.858  10.083
 4777W        W 8296   1.740   0.646   0.838
 4778W        W 8297   7.055   8.242   3.692
 4779W        W 8298   0.767   3.706   9.334
 4780W        W 8299   5.036   3.447  10.040
 4781W        W 8300   8.524   7.529   3.279
 4782W        W 8301   8.710   0.200   1.354
 4783W        W 8302   5.933   2.316   1.887
 4784W        W 8303   7.252   9.457   2.334
 4785W        W 8304   4.059   6.699   2.305
 4786W        W 8305   0.257   0.933   2.454
 4787W        W 8306   3.133   2.336   0.313
 4788W        W 8307   0.644   3.772   9.829
 4789W        W 8308   6.004   4.613   0.840
 4790W        W 8309   6.798   9.455   1.372
 4791W        W 8310   3.435   7.417   3.143
 4792W        W 8311   8.520   4.841  11.861
 4793W        W 8312   4.073   6.539  10.085
 4794W        W 8313   1.969   2.891   3.427
 4795W        W 8314   0.843   0.486  10.328
 4796W        W 8315   2.269   1.943   2.085
 4797W        W 8316   7.573   3.362  10.061
 4798W        W 8317   8.496   4.113  10.799
 4799W        W 8318   9.888   7.233   2.469
 4800W        W 8319   8.494   8.962   0.661
 4801W        W 8320   7.652   8.995  10.006
 4802W        W 8321   8.491   0.772   2.200
 4803W        W 8322   1.331   1.988   2.539
 4804W        W 8323   8.999   3.605  11.448
 4805W        W 8324   9.860   4.551   1.726
 4806W        W 8325   2.042   4.644   4.054
 4807W        W 8326   0.507   1.645   1.924
 4808W        W 8327   9.078   2.594   1.511
 4809W        W 8328   8.753   1.937   0.806
 4810W        W 8329   6.584   6.323   8.051
 4811W        W 8330   4.702   0.820   0.206
 4812W        W 8331   5.913   0.876  10.882
 4813W        W 8332   3.922   7.955   1.092
 4814W        W 8333   1.643   1.659   0.611
 4815W        W 8334   5.906   7.967   8.903
 4816W        W 8335   0.687   1.066   2.697
 4817W        W 8336   8.980   0.623   0.706
 4818W        W 8337   0.344   9.507   3.605
 4819W        W 8338   6.307   1.180   9.228
 4820W        W 8339   2.524   6.391   2.117
 4821W        W 8340   8.519   4.235   9.749
 4822W        W 8341   2.845   2.371   2.717
 4823W        W 8342   5.237   9.049   3.503
 4824W        W 8343   1.635   6.619   9.218
 4825W        W 8344   5.174   1.575   0.949
 4826W        W 8345   8.407   6.221   9.242
 4827W        W 8346   0.308   3.109   9.133
 4828W        W 8347   7.424   9.964   2.290
 4829W        W 8348   4.883   0.161  10.939
 4830W        W 8349   4.011   7.565   0.751
 4831W        W 8350   5.657   1.973   8.763
 4832W        W 8351   3.569   2.165   1.302
 4833W        W 8352   8.075   6.722   0.800
 4834W        W 8353   5.791   1.942   9.615
 4835W        W 8354   3.677   1.044   9.594
 4836W        W 8355   4.778   8.901  11.933
 4837W        W 8356   3.188   3.359   0.493
 4838W        W 8357   4.750   4.430   1.718
 4839W        W 8358   2.905   4.753   9.982
 4840W        W 8359   5.673   8.813  10.560
 4841W        W 8360   4.913   4.876   1.546
 4842W        W 8361   9.553   1.420   9.139
 4843W        W 8362   2.275   9.449   2.636
 4844W        W 8363   9.375   2.775   8.986
 4845W        W 8364   6.453   3.823  11.518
 4846W        W 8365   9.286   7.704   1.820
 4847W        W 8366   7.470   8.605   3.191
 4848W        W 8367   8.990   2.301   0.523
 4849W        W 8368   6.138   6.208  11.532
 4850W        W 8369   0.683   7.794   1.017
 4851W        W 8370   0.350   7.121   0.243
 4852W        W 8371   6.432   2.033  11.562
 4853W        W 8372   1.250   0.970   1.002
 4854W        W 8373   8.942   0.360   1.800
 4855W        W 8374   5.288   2.948   8.255
 4856W        W 8375   9.376   5.984   8.719
 4857W        W 8376   9.557   8.994   1.544
 4858W        W 8377   1.355   8.768   9.010
 4859W        W 8378   8.026   3.669  11.451
 4860W        W 8379   3.408   6.010  11.583
 4861W        W 8380   3.582   5.510   2.274
 4862W        W 8381   1.024   7.450  11.180
 4863W        W 8382   4.419   9.121   0.661
 4864W        W 8383   0.663   0.002  11.211
 4865W        W 8384   1.622   6.766  11.482
 4866W        W 8385   1.786   0.344   1.263
 4867W        W 8386   3.968   6.791  11.068
 4868W        W 8387   2.288   9.163   9.895
 4869W        W 8388   7.092   7.172  10.967
 4870W        W 8389   1.379   5.827   0.380
 4871W        W 8390   8.173   6.487   2.756
 4872W        W 8391   7.094   2.386  10.352
 4873W        W 8392   1.231   1.715   3.009
 4874W        W 8393   4.028   2.856   1.443
 4875W        W 8394   2.796   2.061  10.365
 4876W        W 8395   2.716   7.273   2.401
 4877W        W 8396   2.826   9.907   3.156
 4878W        W 8397   3.455   1.204   2.145
 4879W        W 8398   5.023   5.283  11.379
 4880W        W 8399   4.991   6.546   1.144
 4881W        W 8400   8.637   9.687   3.579
 4882W        W 8401   0.436   8.921   3.380
 4883W        W 8402   1.680   8.450  10.210
 4884W        W 8403   8.085   1.146  11.925
 4885W        W 8404   0.151   5.289   2.179
 4886W        W 8405   3.725   2.268   9.961
 4887W        W 8406   7.586   4.378  10.965
 4888W        W 8407   6.557   0.505   0.767
 4889W        W 8408   4.060   9.508  11.031
 4890W        W 8409   8.423   2.200   0.233
 4891W        W 8410   4.631   0.935  11.265
 4892W        W 8411   7.704   1.839   9.041
 4893W        W 8412   5.486   5.985   2.793
 4894W        W 8413   5.810   4.332  10.037
 4895W        W 8414   4.386   6.696  11.333
 4896W        W 8415   9.969   7.337   0.552
 4897W        W 8416   6.449   0.364   0.273
 4898W        W 8417   9.037   9.301   9.744
 4899W        W 8418   5.586   1.478  11.629
 4900W        W 8419   9.960   4.403   3.562
 4901W        W 8420   6.953   5.676   3.562
 4902W        W 8421   5.122   2.562  11.743
 4903W        W 8422   1.409   5.514   1.825
 4904W        W 8423   6.922   6.144  11.075
 4905W        W 8424   2.245   4.880   0.501
 4906W        W 8425   5.207   3.792   9.666
 4907W        W 8426   9.787   8.967  10.324
 4908W        W 8427   6.580   6.528  11.493
 4909W        W 8428   2.883   0.241   8.857
 4910W        W 8429   1.846   4.253   0.028
 4911W        W 8430   0.974   0.579  11.195
 4912W        W 8431   3.011   2.628   9.651
 4913W        W 8432   6.914   3.400   1.309
 4914W        W 8433   7.245   8.533  10.351
 4915W        W 8434   8.412   1.950   9.760
 4916W        W 8435   7.279   7.600   9.083
 4917W        W 8436   1.273   8.086   9.701
 4918W        W 8437   1.367   5.045   9.977
 4919W        W 8438   2.182   1.276   8.998
 4920W        W 8439   0.185   2.739   0.956
 4921W        W 8440   0.206   8.032   3.263
 4922W        W 8441   1.983   5.540   3.523
 4923W        W 8442   3.420   9.075  11.255
 4924W        W 8443   9.071   5.577   9.956
 4925W        W 8444   0.923   9.370   2.886
 4926W        W 8445   5.131   6.507   9.162
 4927W        W 8446   9.940   8.569   2.368
 4928W        W 8447   4.386   7.089   3.710
 4929W        W 8448   2.786   8.198   0.670
 4930W        W 8449   5.651   7.648   3.282
 4931W        W 8450   0.755   8.515   3.217
 4932W        W 8451   4.773   1.365   2.445
 4933W        W 8452   3.798   5.107   2.501
 4934W        W 8453   8.982   8.783   0.521
 4935W        W 8454   2.901   5.541   0.435
 4936W        W 8455   8.466   9.421   1.896
 4937W        W 8456   3.703   7.188   0.928
 4938W        W 8457   7.671   8.444   0.669
 4939W        W 8458   4.208   8.073  11.792
 4940W        W 8459   0.461   2.187   8.973
 4941W        W 8460   5.158   6.083   9.450
 4942W        W 8461   1.135   7.415   1.988
 4943W        W 8462   4.128   9.889   9.183
 4944W        W 8463   0.420   6.687   3.086
 4945W        W 8464   7.997   6.092  11.357
 4946W        W 8465   3.525   5.124  11.345
 4947W        W 8466   3.845   0.968   1.747
 4948W        W 8467   8.428   2.518   2.874
 4949W        W 8468   6.297   8.399   3.016
 4950W        W 8469   3.997   8.467   2.550
 4951W        W 8470   2.182   8.656   1.282
 4952W        W 8471   5.635   5.109   2.599
 4953W        W 8472   7.034   7.339   2.022
 4954W        W 8473   1.484   3.320   0.538
 4955W        W 8474   8.487   1.106  11.220
 4956W        W 8475   9.075   3.506   2.408
 4957W        W 8476   9.548   9.514   0.430
 4958W        W 8477   6.635   2.679   2.276
 4959W        W 8478   9.891   8.462   1.859
 4960W        W 8479   4.614   9.774   3.504
 4961W        W 8480   4.684   1.938   2.204
 4962W        W 8481   6.137   7.856   2.152
 4963W        W 8482   3.068   4.301  10.095
 4964W        W 8483   4.649   6.292   8.610
 4965W        W 8484   1.380   5.351  10.582
 4966W        W 8485   1.294   9.779   9.023
 4967W        W 8486   7.152   2.059   9.546
 4968W        W 8487   1.979   5.636  10.028
 4969W        W 8488   4.112   5.583  10.898
 4970W        W 8489   5.346   3.410   1.277
 4971W        W 8490   3.688   8.553   0.382
 4972W        W 8491   7.809   2.155   1.739
 4973W        W 8492   2.378   3.306  10.598
 4974W        W 8493   4.181   3.343   3.503
 4975W        W 8494   2.719   3.801   1.420
 4976W        W 8495   5.100   8.225   2.935
 4977W        W 8496   8.956   2.731  11.693
 4978W        W 8497   6.112   8.974   2.223
 4979W        W 8498   3.257   5.128  10.906
 4980W        W 8499   8.817   4.943   2.654
 4981W        W 8500   5.779   5.454  11.470
 4982W        W 8501   0.795   3.772   2.105
 4983W        W 8502   9.727   1.940  10.287
 4984W        W 8503   6.581   6.530   9.571
 4985W        W 8504   6.354   0.242  10.240
 4986W        W 8505   1.681   7.903   9.469
 4987W        W 8506   1.635   0.279  11.861
 4988W        W 8507   8.963   6.869   9.951
 4989W        W 8508   8.974   8.265  11.843
 4990W        W 8509   3.799   1.142   2.581
 4991W        W 8510   7.442   6.170   4.143
 4992W        W 8511   5.245   4.139   0.807
 4993W        W 8512   0.448   9.638   3.083
 4994W        W 8513   8.648   9.973  10.159
 4995W        W 8514   6.430   7.063   1.233
 4996W        W 8515   1.757   7.574   0.290
 4997W        W 8516   6.277   1.916   9.790
 4998W        W 8517   7.129   2.322   0.081
 4999W        W 8518   0.908   3.395  11.464
 5000W        W 8519   1.387   9.853   3.420
 5001W        W 8520   1.736   5.924   1.766
 5002W        W 8521   1.711   1.758   0.087
 5003W        W 8522   7.614   6.799   1.678
 5004W        W 8523   7.118   0.737  10.292
 5005W        W 8524   8.198   5.864   2.055
 5006W        W 8525   9.805   7.193  10.346
 5007W        W 8526   9.720   6.184   1.087
 5008W        W 8527   6.081   5.145   2.869
 5009W        W 8528   3.775   6.679   1.773
 5010W        W 8529   8.331   3.181  10.448
 5011W        W 8530   5.817   4.467  11.175
 5012W        W 8531   8.049   1.866   9.417
 5013W        W 8532   1.363   7.583  10.464
 5014W        W 8533   1.217   8.721   1.572
 5015W        W 8534   1.429   5.431   0.686
 5016W        W 8535   7.401   8.068  10.498
 5017W        W 8536   3.614   9.549  11.316
 5018W        W 8537   8.758   2.149  10.085
 5019W        W 8538   9.467   6.004   2.554
 5020W        W 8539   0.334   8.417   1.607
 5021W        W 8540   0.786   5.354   1.268
 5022W        W 8541   6.703   1.385   0.408
 5023W        W 8542   5.297   0.237   2.703
 5024W        W 8543   4.638   8.798  11.000
 5025W        W 8544   0.271   2.446   2.423
 5026W        W 8545   2.094   3.586   9.433
 5027W        W 8546   9.382   5.005   1.047
 5028W        W 8547   5.941   6.078   0.045
 5029W        W 8548   0.450   3.660   1.764
 5030W        W 8549   1.829   7.190   1.331
 5031W        W 8550   0.184   7.232   1.357
 5032W        W 8551   1.093   0.213  11.972
 5033W        W 8552   4.191   0.833   2.845
 5034W        W 8553   7.945   7.187   1.691
 5035W        W 8554   6.917   6.106   4.142
 5036W        W 8555   2.540   5.133   3.212
 5037W        W 8556   3.125   4.402   8.122
 5038W        W 8557   9.225   2.268   3.198
 5039W        W 8558   5.178   2.545   0.720
 5040W        W 8559   6.867   7.016   3.789
 5041W        W 8560   0.705   5.278  10.763
 5042W        W 8561   5.124   1.082   2.808
 5043W        W 8562   4.954   6.730   4.045
 5044W        W 8563   0.152   3.454   0.716
 5045W        W 8564   7.990   4.246  10.190
 5046W        W 8565   5.277   7.036   9.486
 5047W        W 8566   8.053   3.444   2.300
 5048W        W 8567   6.459   9.727  11.460
 5049W        W 8568   5.849   9.982   8.909
 5050W        W 8569   9.373   6.879   2.110
 5051W        W 8570   9.255   7.869   2.321
 5052W        W 8571   2.106   6.924   3.484
 5053W        W 8572   4.270   6.535   1.859
 5054W        W 8573   5.392   2.244   2.615
 5055W        W 8574   6.025   5.471   1.353
 5056W        W 8575   7.140   7.536  11.646
 5057W        W 8576   0.997   0.009   1.814
 5058W        W 8577   7.298   6.058   9.033
 5059W        W 8578   8.741   9.394   3.169
 5060W        W 8579   3.874   8.975  11.495
 5061W        W 8580   9.564   7.520   0.294
 5062W        W 8581   1.925   6.432  10.832
 5063W        W 8582   1.300   9.851  10.572
 5064W        W 8583   7.892   9.277   9.557
 5065W        W 8584   8.348   6.313   0.881
 5066W        W 8585   3.192   8.065   2.381
 5067W        W 8586   5.912   1.012  10.385
 5068W        W 8587   1.644   2.755   1.208
 5069W        W 8588   2.690   9.326   9.260
 5070W        W 8589   3.288   4.649   9.679
 5071W        W 8590   5.158   7.857   2.603
 5072W        W 8591   2.256   5.988   3.472
 5073W        W 8592   6.566   9.256  10.402
 5074W        W 8593   6.486   2.441   2.753
 5075W        W 8594   1.309   8.466   2.352
 5076W        W 8595   6.494   5.161   2.564
 5077W        W 8596   0.835   4.403   3.222
 5078W        W 8597   5.828   4.919   2.170
 5079W        W 8598   7.843   2.618   9.873
 5080W        W 8599   6.074   9.455  10.344
 5081W        W 8600   7.885   3.453  10.464
 5082W        W 8601   2.469   2.602   3.343
 5083W        W 8602   9.551   6.758   0.261
 5084W        W 8603   7.762   5.636   2.391
 5085W        W 8604   3.464   0.985   3.511
 5086W        W 8605   9.443   4.338   0.067
 5087W        W 8606   5.766   8.443   3.067
 5088W        W 8607   8.389   7.086   2.012
 5089W        W 8608   8.695   9.246   2.323
 5090W        W 8609   3.537   8.286   2.770
 5091W        W 8610   8.722   2.916   9.615
 5092W        W 8611   3.187   2.959   0.864
 5093W        W 8612   4.823   0.378   9.683
 5094W        W 8613   3.741   7.255  11.043
 5095W        W 8614   4.432   5.481  10.045
 5096W        W 8615   3.542   8.237   1.300
 5097W        W 8616   3.722   5.421   9.438
 5098W        W 8617   1.215   1.945   0.828
 5099W        W 8618   4.278   2.290   9.251
 5100W        W 8619   1.964   0.992   3.090
 5101W        W 8620   9.714   3.586  11.462
 5102W        W 8621   4.539   5.600   0.186
 5103W        W 8622   3.874   8.182  11.421
 5104W        W 8623   8.771   7.049   0.286
 5105W        W 8624   1.182   3.461   3.351
 5106W        W 8625   0.753   0.870   8.579
 5107W        W 8626   9.513   9.406   9.620
 5108W        W 8627   4.028   0.932   3.356
 5109W        W 8628   7.962   8.727   3.061
 5110W        W 8629   7.569   4.371   9.948
 5111W        W 8630   0.513   3.031   0.652
 5112W        W 8631   8.181   6.241   3.617
 5113W        W 8632   0.404   3.339   9.579
 5114W        W 8633   0.920   2.217   8.736
 5115W        W 8634   5.548   8.279   8.724
 5116W        W 8635   1.518   7.425   2.801
 5117W        W 8636   5.830   8.917   9.685
 5118W        W 8637   3.174   4.703   9.190
 5119W        W 8638   8.409   5.702   1.583
 5120W        W 8639   3.985   4.668   2.656
 5121W        W 8640   2.200   6.223   0.437
 5122W        W 8641   6.793   0.588  11.445
 5123W        W 8642   2.922   8.960   0.089
 5124W        W 8643   1.364   0.642   0.080
 5125W        W 8644   9.834   4.852   2.168
 5126W        W 8645   6.307   5.628   2.745
 5127W        W 8646   3.477   0.597   0.312
 5128W        W 8647   2.146   9.197   1.587
 5129W        W 8648   8.639   2.253   1.443
 5130W        W 8649   9.492   5.340  11.427
 5131W        W 8650   4.183   0.851   1.398
 5132W        W 8651   8.458   3.490   0.697
 5133W        W 8652   7.310   0.630   1.545
 5134W        W 8653   9.007   5.876   2.309
 5135W        W 8654   8.571   9.668   0.257
 5136W        W 8655   5.871   3.051   8.788
 5137W        W 8656   0.075   5.453   9.896
 5138W        W 8657   1.055   0.347   9.862
 5139W        W 8658   3.206   6.764   8.053
 5140W        W 8659   8.257   0.667   3.238
 5141W        W 8660   4.489   3.221   0.679
 5142W        W 8661   2.727   5.538  10.997
 5143W        W 8662   1.693   3.177  11.337
 5144W        W 8663   2.135   0.405  11.968
 5145W        W 8664   7.849   2.993   2.163
 5146W        W 8665   5.669   9.797   2.362
 5147W        W 8666   3.521   2.668   1.462
 5148W        W 8667   9.640   9.971   0.238
 5149W        W 8668   8.301   5.091   9.947
 5150W        W 8669   6.163   9.018  10.639
 5151W        W 8670   5.893   6.383  11.105
 5152W        W 8671   0.455   1.554  11.992
 5153W        W 8672   6.174   4.695   0.012
 5154W        W 8673   6.295   4.199   0.727
 5155W        W 8674   9.429   9.300   8.662
 5156W        W 8675   9.437   7.085  11.193
 5157W        W 8676   5.663   1.443   0.588
 5158W        W 8677   4.203   5.052   9.846
 5159W        W 8678   7.687   4.770   9.004
 5160W        W 8679   1.290   7.143   0.168
 5161W        W 8680   2.386   5.236   2.747
 5162W        W 8681   5.412   4.902  10.443
 5163W        W 8682   9.445   5.517   0.691
 5164W        W 8683   2.333   7.870   1.828
 5165W        W 8684   6.710   1.436   8.557
 5166W        W 8685   4.254   6.405   2.760
 5167W        W 8686   6.899   8.741  10.046
 5168W        W 8687   4.223   8.913   2.443
 5169W        W 8688   0.765   6.122  11.849
 5170W        W 8689   9.807   4.621  10.019
 5171W        W 8690   7.625   1.012   2.347
 5172W        W 8691   6.070   2.845   2.139
 5173W        W 8692   7.920   9.422  11.668
 5174W        W 8693   3.728   1.941   2.808
 5175W        W 8694   2.855   5.100  11.272
 5176W        W 8695   3.757   4.081   3.796
 5177W        W 8696   9.018   9.878   1.601
 5178W        W 8697   8.947   8.072  10.780
 5179W        W 8698   8.431   5.190   2.306
 5180W        W 8699   4.498   4.236   9.676
 5181W        W 8700   8.797   3.720   2.041
 5182W        W 8701   5.942   6.926  11.911
 5183W        W 8702   1.055   5.012   0.494
 5184W        W 8703   1.877   7.670  11.262
 5185W        W 8704   3.872   3.028   2.326
 5186W        W 8705   2.951   8.849   3.246
 5187W        W 8706   5.635   7.004   4.033
 5188W        W 8707   5.511   2.615   3.037
 5189W        W 8708   1.784   0.051   2.650
 5190W        W 8709   0.553   3.535   8.908
 5191W        W 8710   8.012   1.177   2.640
 5192W        W 8711   7.662   9.764  10.935
 5193W        W 8712   5.180   3.557   4.055
 5194W        W 8713   3.894   9.896   0.508
 5195W        W 8714   6.964   9.043   9.192
 5196W        W 8715   2.227   3.875   2.773
 5197W        W 8716   7.397   3.621   0.462
 5198W        W 8717   0.004   5.976   1.451
 5199W        W 8718   9.613   1.439   1.696
 5200W        W 8719   6.871   9.791   3.156
 5201W        W 8720   7.894   7.681   1.749
 5202W        W 8721   6.417   7.279  10.997
 5203W        W 8722   1.695   5.378   8.709
 5204W        W 8723   1.824   5.505   1.470
 5205W        W 8724   9.761   8.053   9.057
 5206W        W 8725   1.543   0.179   9.763
 5207W        W 8726   0.697   7.298   1.221
 5208W        W 8727   2.363   4.779   9.828
 5209W        W 8728   2.049   4.072   0.484
 5210W        W 8729   7.181   5.569   8.906
 5211W        W 8730   9.755   0.830  10.836
 5212W        W 8731   8.027   6.120  10.047
 5213W        W 8732   2.193   4.225  10.544
 5214W        W 8733   3.936   5.424  11.408
 5215W        W 8734   1.374   8.424   0.623
 5216W        W 8735   5.524   1.832  10.055
 5217W        W 8736   8.302   2.385  10.061
 5218W        W 8737   9.504   1.415   2.198
 5219W        W 8738   3.772   2.218   0.748
 5220W        W 8739   1.749   1.542   9.120
 5221W        W 8740   3.554   6.223   8.777
 5222W        W 8741   3.052   1.841   8.581
 5223W        W 8742   9.306   6.344  11.401
 5224W        W 8743   0.149   0.643   0.225
 5225W        W 8744   4.560   2.184   2.985
 5226W        W 8745   9.803   9.395   1.794
 5227W        W 8746   8.961   5.116  11.722
 5228W        W 8747   2.185   3.749   0.879
 5229W        W 8748   3.513   1.828  10.016
 5230W        W 8749   4.602   9.552   9.361
 5231W        W 8750   6.282   3.777   1.719
 5232W        W 8751   2.238   8.299   3.205
 5233W        W 8752   7.925   2.262   2.665
 5234W        W 8753   5.285   5.034   1.226
 5235W        W 8754   4.247   5.475   9.554
 5236W        W 8755   4.201   4.582  10.115
 5237W        W 8756   9.354   9.927   1.196
 5238W        W 8757   5.502   2.348   1.063
 5239W        W 8758   2.652   0.481  10.280
 5240W        W 8759   8.509   5.488  11.276
 5241W        W 8760   4.923   7.048  11.877
 5242W        W 8761   6.028   1.756   3.218
 5243W        W 8762   3.957   0.358   0.313
 5244W        W 8763   9.040   5.384   1.156
 5245W        W 8764   1.668   6.183  11.210
 5246W        W 8765   0.421   3.032  11.712
 5247W        W 8766   9.112   9.481   9.260
 5248W        W 8767   3.085   0.363   2.483
 5249W        W 8768   5.005   6.340   3.241
 5250W        W 8769   6.497   3.631   9.224
 5251W        W 8770   1.465   2.939   3.557
 5252W        W 8771   1.678   8.076  11.000
 5253W        W 8772   3.187   5.593  10.708
 5254W        W 8773   8.578   3.360   2.340
 5255W        W 8774   1.401   6.985   1.136
 5256W        W 8775   9.184   4.203   2.024
 5257W        W 8776   1.180   3.099   1.695
 5258W        W 8777   4.191   9.400   9.039
 5259W        W 8778   8.293   7.509   1.270
 5260W        W 8779   3.480   8.206   9.312
 5261W        W 8780   3.175   5.897   8.339
 5262W        W 8781   5.447   6.528   4.126
 5263W        W 8782   6.775   4.032  11.848
 5264W        W 8783   0.708   7.063   1.782
 5265W        W 8784   7.707   5.611   0.438
 5266W        W 8785   2.156   0.908   0.045
 5267W        W 8786   0.056   2.836  10.872
 5268W        W 8787   8.700   9.438   8.861
 5269W        W 8788   5.948   4.036   2.082
 5270W        W 8789   7.631   6.516   0.628
 5271W        W 8790   2.738   7.751   2.635
 5272W        W 8791   5.686   9.336   2.138
 5273W        W 8792   1.383   6.163  10.052
 5274W        W 8793   1.174   6.714  11.819
 5275W        W 8794   3.252   6.648   8.907
 5276W        W 8795   2.688   5.661   2.744
 5277W        W 8796   3.465   8.180   8.789
 5278W        W 8797   8.079   5.653  10.967
 5279W        W 8798   9.381   6.152   9.204
 5280W        W 8799   4.948   1.842   0.242
 5281W        W 8800   7.754   7.301   2.882
 5282W        W 8801   2.687   4.247  11.883
 5283W        W 8802   8.779   3.914   2.634
 5284W        W 8803   4.956   9.222  11.017
 5285W        W 8804   0.252   8.521   3.091
 5286W        W 8805   6.460   4.140   2.131
 5287W        W 8806   4.035   4.344  11.520
 5288W        W 8807   1.416   9.722   1.789
 5289W        W 8808   8.369   3.030   2.662
 5290W        W 8809   3.323   1.869   1.666
 5291W        W 8810   8.424   3.051   8.493
 5292W        W 8811   8.424   4.432   1.862
 5293W        W 8812   7.521   6.418   8.718
 5294W        W 8813   0.733   4.512   1.404
 5295W        W 8814   1.149   8.051  10.208
 5296W        W 8815   2.263   2.930  10.945
 5297W        W 8816   4.296   3.648  11.094
 5298W        W 8817   3.522   0.109   0.174
 5299W        W 8818   5.186   4.103  11.076
 5300W        W 8819   4.518   1.363  11.555
 5301W        W 8820   9.135   2.210   9.674
 5302W        W 8821   1.834   6.255   8.873
 5303W        W 8822   5.481   3.355   9.835
 5304W        W 8823   6.648   2.694  10.957
 5305W        W 8824   6.065   4.955   0.445
 5306W        W 8825   3.189   1.218   3.114
 5307W        W 8826   4.997   8.565   9.536
 5308W        W 8827   0.715   1.675  10.351
 5309W        W 8828   8.852   3.234   0.432
 5310W        W 8829   8.086   9.751   2.788
 5311W        W 8830   9.880   3.383  10.972
 5312W        W 8831   0.022   8.822   1.505
 5313W        W 8832   1.166   8.019  10.729
 5314W        W 8833   0.853   8.411  11.109
 5315W        W 8834   3.676   0.003   1.990
 5316W        W 8835   3.220   2.001  10.904
 5317W        W 8836   4.083   0.904   9.008
 5318W        W 8837   0.068   1.014  10.481
 5319W        W 8838   4.109   5.813  10.320
 5320W        W 8839   9.738   6.994   1.461
 5321W        W 8840   4.323   1.167   0.470
 5322W        W 8841   1.620   7.228  11.242
 5323W        W 8842   8.379   0.251   2.254
 5324W        W 8843   6.148   6.405   0.421
 5325W        W 8844   9.029   2.163   1.775
 5326W        W 8845   8.197   1.946  11.777
 5327W        W 8846   4.991   4.334  11.511
 5328W        W 8847   0.282   2.353   0.319
 5329W        W 8848   2.034   2.099   3.659
 5330W        W 8849   4.783   5.563   9.644
 5331W        W 8850   3.721   9.530   1.529
 5332W        W 8851   9.195   1.865  11.891
 5333W        W 8852   3.808   6.270   4.384
 5334W        W 8853   2.673   7.516   0.214
 5335W        W 8854   1.385   0.853  11.370
 5336W        W 8855   2.713   2.932  11.249
 5337W        W 8856   2.578   8.024   9.405
 5338W        W 8857   2.193   3.471  11.906
 5339W        W 8858   9.146   7.433  11.999
 5340W        W 8859   4.599   3.167  11.658
 5341W        W 8860   3.597   7.409   0.063
 5342W        W 8861   8.118   7.601  10.702
 5343W        W 8862   8.657   6.504  10.137
 5344W        W 8863   3.904   5.784   4.062
 5345W        W 8864   1.002   9.329   8.995
 5346W        W 8865   0.867   2.608  11.119
 5347W        W 8866   4.187   6.335  11.658
 5348W        W 8867   5.084   8.827   2.231
 5349W        W 8868   6.228   4.565   8.683
 5350W        W 8869   1.737   6.653  10.393
 5351W        W 8870   6.773   8.459   0.903
 5352W        W 8871   4.625   8.395  11.885
 5353W        W 8872   8.913   4.609   1.815
 5354W        W 8873   2.350   0.794   1.729
 5355W        W 8874   4.636   5.468   9.134
 5356W        W 8875   8.410   5.834   0.719
 5357W        W 8876   2.438   0.337  11.294
 5358W        W 8877   5.742   6.843   8.225
 5359W        W 8878   7.924   9.084   3.448
 5360W        W 8879   8.976   6.665  10.836
 5361W        W 8880   5.652   2.684  10.835
 5362W        W 8881   6.536   6.555  10.576
 5363W        W 8882   3.342   7.541  10.723
 5364W        W 8883   3.192   4.332   2.414
 5365W        W 8884   7.380   9.766   3.192
 5366W        W 8885   8.541   2.330  11.756
 5367W        W 8886   8.916   1.750   9.802
 5368W        W 8887   3.515   5.045   8.588
 5369W        W 8888   2.288   2.624   9.972
 5370W        W 8889   0.905   7.574   3.521
 5371W        W 8890   8.410   0.964   2.853
 5372W        W 8891   2.971   9.969   1.001
 5373W        W 8892   1.919   0.474   9.989
 5374W        W 8893   1.251   4.633   2.397
 5375W        W 8894   5.984   3.192  11.803
 5376W        W 8895   5.074   6.411   4.476
 5377W        W 8896   5.972   2.271   0.880
 5378W        W 8897   7.518   3.537   3.026
 5379W        W 8898   2.668   2.908   1.009
 5380W        W 8899   1.447   0.734   1.835
 5381W        W 8900   2.513   1.031   0.383
 5382W        W 8901   3.256   1.486   8.898
 5383W        W 8902   1.786   4.727   9.941
 5384W        W 8903   0.046   1.708  11.746
 5385W        W 8904   6.123   6.007  10.753
 5386W        W 8905   8.226   8.575  11.422
 5387W        W 8906   1.467   0.851  10.848
 5388W        W 8907   6.860   9.047   0.419
 5389W        W 8908   0.092   4.792  11.426
 5390W        W 8909   0.414   5.893  11.310
 5391W        W 8910   2.583   1.316   1.919
 5392W        W 8911   6.665   6.401  10.086
 5393W        W 8912   6.721   3.894   0.810
 5394W        W 8913   6.700   5.228   3.648
 5395W        W 8914   6.669   9.844  10.992
 5396W        W 8915   4.509   5.807   8.757
 5397W        W 8916   2.251   5.622   2.414
 5398W        W 8917   7.026   0.709   9.500
 5399W        W 8918   0.317   3.338   2.764
 5400W        W 8919   6.514   2.256   8.661
 5401W        W 8920   6.940   6.220   1.002
 5402W        W 8921   6.184   1.875  10.275
 5403W        W 8922   9.374   9.227   0.020
 5404W        W 8923   6.776   5.894  10.217
 5405W        W 8924   2.164   4.329  10.015
 5406W        W 8925   6.681   5.793   0.829
 5407W        W 8926   8.927   5.993  11.455
 5408W        W 8927   6.623   8.008   3.072
 5409W        W 8928   6.492   0.681   1.284
 5410W        W 8929   2.953   3.278  10.949
 5411W        W 8930   2.321   9.276  10.898
 5412W        W 8931   1.267   6.236   0.622
 5413W        W 8932   7.752   2.648   3.408
 5414W        W 8933   1.701   3.246   2.371
 5415W        W 8934   1.729   1.242   2.229
 5416W        W 8935   5.594   4.451   1.110
 5417W        W 8936   2.045   6.440  11.929
 5418W        W 8937   0.873   8.867   9.189
 5419W        W 8938   8.053   5.617   9.922
 5420W        W 8939   6.946   8.248   8.576
 5421W        W 8940   5.341   1.044  11.555
 5422W        W 8941   5.036   1.701   9.955
 5423W        W 8942   9.455   1.430   2.728
 5424W        W 8943   5.957   0.506  10.376
 5425W        W 8944   8.440   9.726   2.391
 5426W        W 8945   1.201   2.500   3.367
 5427W        W 8946   9.464   6.496  10.774
 5428W        W 8947   6.061   7.959  11.223
 5429W        W 8948   2.265   7.900   2.802
 5430W        W 8949   1.257   1.319   9.149
 5431W        W 8950   5.280   1.976   9.578
 5432W        W 8951   5.718   8.092   9.391
 5433W        W 8952   6.454   2.040   3.094
 5434W        W 8953   1.194   8.954   2.558
 5435W        W 8954   3.540   4.999   3.395
 5436W        W 8955   2.648   6.392   2.636
 5437W        W 8956   9.018   4.182   9.586
 5438W        W 8957   3.373   4.730  10.186
 5439W        W 8958   2.645   9.205   2.375
 5440W        W 8959   2.246   2.172   9.597
 5441W        W 8960   2.709   7.420   0.701
 5442W        W 8961   0.212   1.722   8.906
 5443W        W 8962   5.408   1.511   2.761
 5444W        W 8963   9.202   1.811   1.026
 5445W        W 8964   5.446   1.819   0.307
 5446W        W 8965   6.152   2.331  10.528
 5447W        W 8966   1.521   8.318   9.222
 5448W        W 8967   9.175   6.649   0.677
 5449W        W 8968   0.056   4.800   8.767
 5450W        W 8969   1.888   4.698   9.069
 5451W        W 8970   9.469   2.227   0.273
 5452W        W 8971   0.573   4.652  11.421
 5453W        W 8972   7.763   9.242   1.287
 5454W        W 8973   6.525   1.311  11.021
 5455W        W 8974   0.118   2.871   9.607
 5456W        W 8975   4.705   6.372   8.105
 5457W        W 8976   2.837   6.847  10.259
 5458W        W 8977   3.208   8.759   0.476
 5459W        W 8978   3.603   7.099   2.049
 5460W        W 8979   7.968   4.152   9.692
 5461W        W 8980   2.133   8.328   1.726
 5462W        W 8981   9.387   4.675   3.488
 5463W        W 8982   0.007   3.242   9.930
 5464W        W 8983   2.670   7.168   1.141
 5465W        W 8984   0.024   4.250   0.153
 5466W        W 8985   4.338   5.446  11.744
 5467W        W 8986   8.914   4.625  11.542
 5468W        W 8987   9.615   6.595   3.254
 5469W        W 8988   4.773   3.401   2.471
 5470W        W 8989   2.286   2.795   1.820
 5471W        W 8990   1.883   9.173   0.596
 5472W        W 8991   9.091   1.736  11.399
 5473W        W 8992   5.492   5.969   0.864
 5474W        W 8993   9.838   2.502   0.678
 5475W        W 8994   9.805   5.708   8.564
 5476W        W 8995   9.962   1.062   1.796
 5477W        W 8996   0.341   1.412  10.573
 5478W        W 8997   7.662   7.549  11.656
 5479W        W 8998   2.641   8.496   1.493
 5480W        W 8999   3.948   1.343   2.106
 5481W        W 9000   6.075   8.074  10.214
 5482W        W 9001   1.200   5.152   2.180
 5483W        W 9002   7.097   1.525   9.747
 5484W        W 9003   9.921   4.251   0.771
 5485W        W 9004   1.186   4.031  10.039
 5486W        W 9005   9.863   2.249   2.647
 5487W        W 9006   5.256   5.193   9.632
 5488W        W 9007   6.082   7.940   1.485
 5489W        W 9008   8.125   5.920   0.285
 5490W        W 9009   8.962   0.894   2.055
 5491W        W 9010   4.121   8.799   9.828
 5492W        W 9011   9.516   8.393   3.678
 5493W        W 9012   9.818   1.301  11.980
 5494W        W 9013   2.045   6.502   0.866
 5495W        W 9014   5.595   4.429   8.925
 5496W        W 9015   5.119   0.173  10.044
 5497W        W 9016   9.494   3.596   2.137
 5498W        W 9017   0.881   5.628   1.766
 5499W        W 9018   9.025   7.488   3.137
 5500W        W 9019   5.735   1.823  11.254
 5501W        W 9020   0.742   2.416   1.469
 5502W        W 9021   6.117   5.735   9.572
 5503W        W 9022   5.955   1.493   8.946
 5504W        W 9023   9.855   0.856   2.787
 5505W        W 9024   6.364   3.837   8.775
 5506W        W 9025   9.326   4.368   3.888
 5507W        W 9026   8.898   7.982   9.212
 5508W        W 9027   7.098   0.948   0.299
 5509W        W 9028   3.768   9.471   3.176
 5510W        W 9029   9.928   8.156   8.576
 5511W        W 9030   1.087   7.465   2.500
 5512W        W 9031   5.159   1.908   3.395
 5513W        W 9032   8.490   7.097   3.533
 5514W        W 9033   3.150   4.390  11.540
 5515W        W 9034   4.507   3.834   0.197
 5516W        W 9035   7.479   1.342   1.981
 5517W        W 9036   0.352   5.250   8.807
 5518W        W 9037   7.389   5.695  11.986
 5519W        W 9038   9.047   0.406  11.014
 5520W        W 9039   9.011   5.808   1.465
 5521W        W 9040   3.485   1.942   0.396
 5522W        W 9041   8.347   7.088   0.533
 5523W        W 9042   4.181   7.955  10.464
 5524W        W 9043   0.029   2.202   9.956
 5525W        W 9044   8.177   0.564  10.876
 5526W        W 9045   5.234   8.729   0.732
 5527W        W 9046   7.086   1.649   0.765
 5528W        W 9047   7.861   1.131   1.686
 5529W        W 9048   6.398   4.643  10.357
 5530W        W 9049   6.923   6.286   9.301
 5531W        W 9050   0.182   7.319  10.648
 5532W        W 9051   4.191   7.324   1.460
 5533W        W 9052   9.678   2.870  10.557
 5534W        W 9053   9.765   4.949   3.693
 5535W        W 9054   9.497   5.194  10.925
 5536W        W 9055   5.290   4.462  11.910
 5537W        W 9056   8.369   9.811  11.668
 5538W        W 9057   5.236   9.746   0.831
 5539W        W 9058   0.396   9.919   8.979
 5540W        W 9059   3.740   9.747   8.442
 5541W        W 9060   6.621   4.232   8.544
 5542W        W 9061   1.503   9.391   8.765
 5543W        W 9062   6.024   5.164  11.838
 5544W        W 9063   7.738   1.599  11.156
 5545W        W 9064   7.564   5.375   9.721
 5546W        W 9065   3.478   2.530  11.412
 5547W        W 9066   7.826   8.443   1.283
 5548W        W 9067   6.099   4.205   2.545
 5549W        W 9068   4.123   7.029   1.903
 5550W        W 9069   9.339   3.879   9.817
 5551W        W 9070   5.354   0.281  10.869
 5552W        W 9071   6.627   4.655   2.239
 5553W        W 9072   6.025   8.564   2.625
 5554W        W 9073   2.398   5.736   0.459
 5555W        W 9074   5.792   4.316  11.913
 5556W        W 9075   4.179   0.864  10.069
 5557W        W 9076   3.607   4.671   2.996
 5558W        W 9077   7.302   0.856   9.002
 5559W        W 9078   5.322   8.955   9.581
 5560W        W 9079   1.355   9.882   2.926
 5561W        W 9080   0.114   4.529   9.635
 5562W        W 9081   3.750   6.562   8.416
 5563W        W 9082   2.261   5.230  10.043
 5564W        W 9083   4.355   6.095   1.280
 5565W        W 9084   3.217   7.886   1.421
 5566W        W 9085   6.430   6.295   1.913
 5567W        W 9086   2.460   4.837   0.977
 5568W        W 9087   8.806   5.369   1.627
 5569W        W 9088   7.136   9.737   1.122
 5570W        W 9089   2.389   2.302  10.586
 5571W        W 9090   7.478   8.630   9.057
 5572W        W 9091   2.912   3.137  11.953
 5573W        W 9092   4.379   4.836   0.823
 5574W        W 9093   6.463   0.384  11.764
 5575W        W 9094   3.910   8.521   1.104
 5576W        W 9095   2.498   5.518   3.552
 5577W        W 9096   6.548   8.941   1.974
 5578W        W 9097   1.065   1.164   3.490
 5579W        W 9098   8.698   2.817  10.553
 5580W        W 9099   3.619   4.915   1.247
 5581W        W 9100   7.324   5.189  10.901
 5582W        W 9101   7.420   3.511  11.437
 5583W        W 9102   2.112   3.267   1.800
 5584W        W 9103   3.215   3.664   1.568
 5585W        W 9104   4.376   1.109  11.958
 5586W        W 9105   7.107   7.288  10.421
 5587W        W 9106   0.895   3.469  10.158
 5588W        W 9107   8.008   7.202   3.352
 5589W        W 9108   0.816   2.052   2.702
 5590W        W 9109   4.041   9.388   0.085
 5591W        W 9110   7.648   6.432   9.883
 5592W        W 9111   8.199   5.151  11.019
 5593W        W 9112   4.478   5.365   0.828
 5594W        W 9113   7.905   2.091   9.931
 5595W        W 9114   3.215   5.405   1.927
 5596W        W 9115   4.213   0.479   3.240
 5597W        W 9116   7.684   2.151   3.541
 5598W        W 9117   8.070   0.229   3.038
 5599W        W 9118   7.328   0.295   9.688
 5600W        W 9119   8.836   3.501   1.551
 5601W        W 9120   8.434   1.231   9.075
 5602W        W 9121   4.787   5.730   0.609
 5603W        W 9122   5.767   3.713   1.699
 5604W        W 9123   9.424   3.321  10.614
 5605W        W 9124   6.454   2.571   9.070
 5606W        W 9125   1.440   7.639  10.962
 5607W        W 9126   4.807   4.861  11.120
 5608W        W 9127   4.284   9.033  11.824
 5609W        W 9128   9.421   2.868   1.990
 5610W        W 9129   5.508   5.401   1.503
 5611W        W 9130   2.727   5.687   0.898
 5612W        W 9131   1.133   2.823   9.488
 5613W        W 9132   4.619   4.994  11.579
 5614W        W 9133   5.539   9.312   2.633
 5615W        W 9134   9.013   8.674   9.927
 5616W        W 9135   3.711   1.753  11.906
 5617W        W 9136   7.000   3.905   1.255
 5618W        W 9137   4.718   8.504   3.126
 5619W        W 9138   6.604   1.172   1.264
 5620W        W 9139   5.301   8.366   9.170
 5621W        W 9140   6.078   2.829   9.269
 5622W        W 9141   9.302   6.707   9.248
 5623W        W 9142   3.093   8.477   2.090
 5624W        W 9143   7.066   1.814   2.331
 5625W        W 9144   5.691   7.045  11.480
 5626W        W 9145   5.844   8.650   1.885
 5627W        W 9146   7.608   8.887   0.935
 5628W        W 9147   6.103   8.437   3.505
 5629W        W 9148   5.913   8.479   9.941
 5630W        W 9149   1.731   3.563   9.075
 5631W        W 9150   9.089   1.782   3.078
 5632W        W 9151   1.052   2.038   3.707
 5633W        W 9152   9.046   0.824  11.361
 5634W        W 9153   0.966   3.773  11.818
 5635W        W 9154   7.288   0.365  10.619
 5636W        W 9155   2.335   8.781   1.773
 5637W        W 9156   5.828   6.068   8.783
 5638W        W 9157   1.147   9.802   2.285
 5639W        W 9158   7.288   8.148   8.978
 5640W        W 9159   4.251   7.477   8.661
 5641W        W 9160   9.059   8.949   1.466
 5642W        W 9161   0.287   5.180   1.172
 5643W        W 9162   0.482   9.831  10.049
 5644W        W 9163   5.197   3.555  11.075
 5645W        W 9164   0.861   4.391   2.644
 5646W        W 9165   1.910   2.171  10.448
 5647W        W 9166   7.089   5.113   9.801
 5648W        W 9167   1.355   7.032   3.109
 5649W        W 9168   2.949   4.629   3.827
 5650W        W 9169   5.972   3.673  10.432
 5651W        W 9170   7.401   4.747  10.645
 5652W        W 9171   7.943   3.067  10.787
 5653W        W 9172   1.259   0.879   8.544
 5654W        W 9173   6.727   8.805   9.571
 5655W        W 9174   6.727   7.731  11.846
 5656W        W 9175   3.741   2.389   3.249
 5657W        W 9176   4.050   0.365  10.184
 5658W        W 9177   2.100   2.331   1.817
 5659W        W 9178   1.723   2.265   9.425
 5660W        W 9179   4.690   5.643   3.197
 5661W        W 9180   3.035   0.873   2.260
 5662W        W 9181   6.954   9.092  10.985
 5663W        W 9182   4.915   2.859   1.319
 5664W        W 9183   1.890   6.822   3.912
 5665W        W 9184   3.380   2.523   9.264
 5666W        W 9185   5.025   9.530   0.418
 5667W        W 9186   1.353   1.720   9.807
 5668W        W 9187   4.473   4.978   8.998
 5669W        W 9188   1.639   9.974  11.384
 5670W        W 9189   0.533   4.215   0.333
 5671W        W 9190   7.277   9.321   1.380
 5672W        W 9191   9.780   2.658   9.283
 5673W        W 9192   0.831   5.868   1.312
 5674W        W 9193   1.426   9.349   0.404
 5675W        W 9194   0.128   6.412   0.823
 5676W        W 9195   9.405   8.317   2.971
 5677W        W 9196   3.746   2.917   2.824
 5678W        W 9197   1.089   6.498   1.026
 5679W        W 9198   9.368   8.251   8.766
 5680W        W 9199   3.769   2.775   1.890
 5681W        W 9200   5.436   4.145   0.293
 5682W        W 9201   7.882   8.310   8.949
 5683W        W 9202   9.415   6.686   9.745
 5684W        W 9203   1.725   1.693  10.629
 5685W        W 9204   2.929   4.785   1.192
 5686W        W 9205   0.754   7.569   1.688
 5687W        W 9206   9.570   4.416   2.366
 5688W        W 9207   3.775   4.516   3.441
 5689W        W 9208   8.077   3.726   0.445
 5690W        W 9209   5.190   7.780   0.517
 5691W        W 9210   5.247   7.747   4.250
 5692W        W 9211   5.245   3.831  10.649
 5693W        W 9212   6.241   7.297   2.149
 5694W        W 9213   7.772   0.396   1.540
 5695W        W 9214   0.852   6.156   2.426
 5696W        W 9215   6.818   4.433   0.843
 5697W        W 9216   3.307   4.509   1.438
 5698W        W 9217   9.436   0.145   1.757
 5699W        W 9218   2.744   6.031   9.785
 5700W        W 9219   2.733   4.629   3.350
 5701W        W 9220   9.685   8.860  10.816
 5702W        W 9221   0.980   5.851   9.923
 5703W        W 9222   5.141   5.688  10.643
 5704W        W 9223   5.276   5.700   9.783
 5705W        W 9224   6.683   5.720   0.338
 5706W        W 9225   1.524   4.834  10.461
 5707W        W 9226   6.902   2.582   1.821
 5708W        W 9227   1.109   9.584   1.393
 5709W        W 9228   7.526   0.491   2.388
 5710W        W 9229   1.765   8.548  11.269
 5711W        W 9230   1.387   9.533  11.380
 5712W        W 9231   7.847   0.544   9.027
 5713W        W 9232   1.866   9.577   0.912
 5714W        W 9233   6.041   5.329   2.387
 5715W        W 9234   1.973   0.953   8.489
 5716W        W 9235   1.732   1.741  11.574
 5717W        W 9236   4.284   9.477   3.235
 5718W        W 9237   2.485   1.260  10.444
 5719W        W 9238   3.178   5.233   1.214
 5720W        W 9239   5.970   9.041   2.712
 5721W        W 9240   6.633   6.214   1.435
 5722W        W 9241   1.933   3.092  10.449
 5723W        W 9242   2.250   8.990   9.321
 5724W        W 9243   5.047   9.378   9.082
 5725W        W 9244   6.166   9.839   9.991
 5726W        W 9245   7.141   6.112   2.817
 5727W        W 9246   2.867   4.599   1.679
 5728W        W 9247   5.996   5.055  11.175
 5729W        W 9248   3.255   2.788   1.885
 5730W        W 9249   0.447   6.925   8.716
 5731W        W 9250   7.137   3.992   0.198
 5732W        W 9251   5.117   6.159  11.558
 5733W        W 9252   7.122   8.461   9.425
 5734W        W 9253   9.808   9.817   9.757
 5735W        W 9254   7.562   6.329  11.298
 5736W        W 9255   1.969   0.498   3.243
 5737W        W 9256   8.787   7.578  10.705
 5738W        W 9257   3.248   6.317   0.175
 5739W        W 9258   1.245   6.019   9.117
 5740W        W 9259   5.519   9.386  11.192
 5741W        W 9260   1.555   1.338   9.556
 5742W        W 9261   0.491   6.411   8.564
 5743W        W 9262   9.513   4.017   1.060
 5744W        W 9263   3.303   6.890   1.669
 5745W        W 9264   5.109   3.170   2.898
 5746W        W 9265   5.019   0.464  10.488
 5747W        W 9266   8.299   2.681   3.354
 5748W        W 9267   3.221   6.389  11.290
 5749W        W 9268   3.122   6.065   3.238
 5750W        W 9269   4.934   3.289   9.057
 5751W        W 9270   3.671   3.958   9.553
 5752W        W 9271   7.944   1.004  11.066
 5753W        W 9272   6.970   9.465   8.858
 5754W        W 9273   6.484   0.842   9.596
 5755W        W 9274   8.904   0.829   9.921
 5756W        W 9275   6.144   7.219   9.571
 5757W        W 9276   6.222   1.506   1.351
 5758W        W 9277   8.480   3.992   0.199
 5759W        W 9278   3.516   8.018  10.819
 5760W        W 9279   3.180   6.932   3.046
 5761W        W 9280   1.314   4.156   3.216
 5762W        W 9281   1.750   4.073   2.918
 5763W        W 9282   2.720   5.515  10.504
 5764W        W 9283   1.357   7.827   1.751
 5765W        W 9284   4.647   2.251   0.121
 5766W        W 9285   7.516   1.418   0.957
 5767W        W 9286   3.588   8.371   2.257
 5768W        W 9287   5.440   0.234   2.215
 5769W        W 9288   2.703   8.239   2.511
 5770W        W 9289   7.693   6.938   8.582
 5771W        W 9290   6.780   2.184   3.448
 5772W        W 9291   1.292   8.500  11.476
 5773W        W 9292   2.558   7.620   1.402
 5774W        W 9293   2.744   8.821  10.958
 5775W        W 9294   9.604   5.848   2.107
 5776W        W 9295   5.913   1.400   2.837
 5777W        W 9296   5.886   8.419   1.435
 5778W        W 9297   0.456   6.793   1.326
 5779W        W 9298   3.898   0.187   9.532
 5780W        W 9299   4.260   6.218   2.255
 5781W        W 9300   9.955   6.406   0.245
 5782W        W 9301   4.626   8.283   9.976
 5783W        W 9302   9.039   9.421  11.075
 5784W        W 9303   2.354   3.624   9.857
 5785W        W 9304   3.419   5.482   3.229
 5786W        W 9305   4.752   8.118   9.506
 5787W        W 9306   6.816   5.158   1.319
 5788W        W 9307   4.314   5.940   9.857
 5789W        W 9308   8.347   5.319  11.772
 5790W        W 9309   5.727   8.871  11.560
 5791W        W 9310   2.761   0.946  10.095
 5792W        W 9311   9.156   6.490   8.811
 5793W        W 9312   6.674   6.237   0.380
 5794W        W 9313   6.468   1.621   3.420
 5795W        W 9314   4.206   4.771   0.347
 5796W        W 9315   7.010   8.786   3.341
 5797W        W 9316   6.483   6.041   9.341
 5798W        W 9317   4.883   2.657   3.736
 5799W        W 9318   6.628   8.022   1.502
 5800W        W 9319   0.175   4.670  10.949
 5801W        W 9320   0.292   4.166  10.033
 5802W        W 9321   4.585   1.406  11.040
 5803W        W 9322   3.559   8.577  11.521
 5804W        W 9323   5.611   2.444  11.888
 5805W        W 9324   5.628   6.432   9.067
 5806W        W 9325   5.529   3.884   1.147
 5807W        W 9326   4.840   4.186   2.770
 5808W        W 9327   0.931   0.164   0.465
 5809W        W 9328   4.557   6.015   2.626
 5810W        W 9329   4.495   3.566   1.232
 5811W        W 9330   0.873   9.475  10.098
 5812W        W 9331   9.332   9.703   2.674
 5813W        W 9332   1.437   0.671   9.899
 5814W        W 9333   3.213   9.958  10.276
 5815W        W 9334   9.470   8.446  11.279
 5816W        W 9335   7.048   3.301  10.759
 5817W        W 9336   9.851   6.134   3.368
 5818W        W 9337   8.347   1.632   2.112
 5819W        W 9338   4.214   1.541   0.136
 5820W        W 9339   3.679   7.583   8.950
 5821W        W 9340   1.265   1.667  10.315
 5822W        W 9341   9.254   4.008   2.480
 5823W        W 9342   7.284   5.281   1.190
 5824W        W 9343   5.397   2.711   3.843
 5825W        W 9344   7.141   6.725  11.902
 5826W        W 9345   2.642   9.899   9.473
 5827W        W 9346   4.669   2.626   2.791
 5828W        W 9347   6.964   3.144  11.749
 5829W        W 9348   1.793   3.742   1.226
 5830W        W 9349   0.845   6.242   2.990
 5831W        W 9350   4.127   9.060   1.969
 5832W        W 9351   6.304   9.968   9.146
 5833W        W 9352   9.733   3.768   9.459
 5834W        W 9353   2.581   8.369   2.005
 5835W        W 9354   4.004   8.991  10.255
 5836W        W 9355   4.193   6.927   2.772
 5837W        W 9356   3.117   4.182  11.015
 5838W        W 9357   0.288   3.138   1.764
 5839W        W 9358   1.764   8.172   3.912
 5840W        W 9359   1.019   2.953  10.059
 5841W        W 9360   7.059   3.187  11.244
 5842W        W 9361   0.875   5.995   0.356
 5843W        W 9362   3.118   3.849   0.397
 5844W        W 9363   0.937   1.104  11.265
 5845W        W 9364   0.881   7.033  10.849
 5846W        W 9365   6.709   7.013  11.334
 5847W        W 9366   6.541   3.329  11.437
 5848W        W 9367   3.499   2.596   2.287
 5849W        W 9368   9.114   4.354   2.941
 5850W        W 9369   8.441   7.415  11.066
 5851W        W 9370   8.241   8.857  10.964
 5852W        W 9371   0.183   8.927  10.798
 5853W        W 9372   4.736   3.486  11.284
 5854W        W 9373   3.774   7.079   9.912
 5855W        W 9374   3.786   5.916  11.245
 5856W        W 9375   5.685   5.965  11.606
 5857W        W 9376   1.228   8.862  11.847
 5858W        W 9377   1.269   1.913  11.510
 5859W        W 9378   2.842   7.099   9.751
 5860W        W 9379   4.732   4.166   3.649
 5861W        W 9380   6.059   9.490   2.488
 5862W        W 9381   8.966   4.110  11.559
 5863W        W 9382   3.482   2.692   9.798
 5864W        W 9383   7.929   3.554   3.338
 5865W        W 9384   0.909   7.735   9.631
 5866W        W 9385   4.743   1.958  10.347
 5867W        W 9386   8.644   6.727   2.822
 5868W        W 9387   3.107   0.619   1.401
 5869W        W 9388   4.603   2.865   9.924
 5870W        W 9389   5.066   0.686  10.012
 5871W        W 9390   7.406   6.784  11.103
 5872W        W 9391   4.441   8.255   1.833
 5873W        W 9392   9.898   6.656  11.772
 5874W        W 9393   1.346   1.710   8.821
 5875W        W 9394   4.215   6.576   8.711
 5876W        W 9395   9.082   3.993   3.599
 5877W        W 9396   2.772   2.681   1.825
 5878W        W 9397   0.773   2.542   3.039
 5879W        W 9398   6.015   3.245   2.917
 5880W        W 9399   6.896   6.853   8.899
 5881W        W 9400   9.864   5.971   9.431
 5882W        W 9401   7.418   8.008  10.001
 5883W        W 9402   9.933   2.048   3.745
 5884W        W 9403   0.297   7.431  10.152
 5885W        W 9404   4.625   6.218  11.348
 5886W        W 9405   4.133   3.575   0.848
 5887W        W 9406   3.090   0.413  10.637
 5888W        W 9407   6.790   1.227   9.446
 5889W        W 9408   5.296   2.373   3.500
 5890W        W 9409   5.639   4.768   0.146
 5891W        W 9410   1.837   9.996  10.163
 5892W        W 9411   5.131   4.583   2.603
 5893W        W 9412   7.316   2.669   9.067
 5894W        W 9413   2.866   0.417   2.985
 5895W        W 9414   0.251   8.977   2.365
 5896W        W 9415   7.935   6.902   1.264
 5897W        W 9416   0.848   1.372   2.190
 5898W        W 9417   0.922   8.449  11.827
 5899W        W 9418   7.288   1.188  11.507
 5900W        W 9419   9.122   6.540  10.355
 5901W        W 9420   2.651   9.720   2.302
 5902W        W 9421   2.590   3.195   1.985
 5903W        W 9422   7.150   5.654   9.890
 5904W        W 9423   3.867   4.730   0.808
 5905W        W 9424   2.405   0.615   9.809
 5906W        W 9425   0.394   0.865   9.352
 5907W        W 9426   0.861   1.222   1.298
 5908W        W 9427   3.979   9.508   9.497
 5909W        W 9428   7.523   8.161   0.259
 5910W        W 9429   2.367   5.115  11.075
 5911W        W 9430   0.163   0.644   8.136
 5912W        W 9431   9.860   2.714  10.068
 5913W        W 9432   6.431   5.512   1.675
 5914W        W 9433   5.008   1.571   9.422
 5915W        W 9434   1.337   0.462   0.567
 5916W        W 9435   9.992   1.618   9.366
 5917W        W 9436   0.597   6.558   9.045
 5918W        W 9437   5.117   4.834  11.588
 5919W        W 9438   7.193   4.869   1.493
 5920W        W 9439   6.523   8.570   8.625
 5921W        W 9440   8.150   2.364   9.559
 5922W        W 9441   1.623   7.146  10.383
 5923W        W 9442   6.254   9.438   2.017
 5924W        W 9443   3.115   8.961   8.731
 5925W        W 9444   5.570   8.033   1.325
 5926W        W 9445   5.771   4.117   0.738
 5927W        W 9446   2.785   9.547   2.774
 5928W        W 9447   1.248   5.947   1.582
 5929W        W 9448   1.877   3.326   0.866
 5930W        W 9449   8.573   6.274   3.000
 5931W        W 9450   3.431   5.283   9.992
 5932W        W 9451   8.887   6.137   9.059
 5933W        W 9452   8.120   4.579   9.198
 5934W        W 9453   8.853   2.759   0.217
 5935W        W 9454   6.244   2.125   3.548
 5936W        W 9455   0.525   5.206  10.071
 5937W        W 9456   3.548   8.692   8.602
 5938W        W 9457   5.516   5.344   2.123
 5939W        W 9458   1.712   4.211   3.560
 5940W        W 9459   9.557   6.992   0.776
 5941W        W 9460   1.354   9.477   0.942
 5942W        W 9461   7.654   5.602   0.945
 5943W        W 9462   0.771   3.276   1.415
 5944W        W 9463   9.179   9.638   3.399
 5945W        W 9464   1.280   6.987   2.612
 5946W        W 9465   2.988   4.147   3.156
 5947W        W 9466   3.533   2.938   8.878
 5948W        W 9467   5.278   1.239   1.433
 5949W        W 9468   4.471   0.224   0.363
 5950W        W 9469   2.261   5.622   3.075
 5951W        W 9470   8.993   8.371   3.271
 5952W        W 9471   6.219   9.089  11.680
 5953W        W 9472   7.137   8.672   1.916
 5954W        W 9473   1.389   4.736   1.916
 5955W        W 9474   3.214   7.073  11.906
 5956W        W 9475   5.949   2.264  10.014
 5957W        W 9476   3.041   7.408   1.399
 5958W        W 9477   1.823   6.582   0.429
 5959W        W 9478   4.195   2.143   3.344
 5960W        W 9479   1.074   0.751   1.433
 5961W        W 9480   8.292   0.650  11.980
 5962W        W 9481   4.027   5.075  11.921
 5963W        W 9482   2.692   5.704   9.345
 5964W        W 9483   4.705   4.415   0.741
 5965W        W 9484   5.705   6.275   1.601
 5966W        W 9485   7.498   1.002   2.835
 5967W        W 9486   1.621   7.382   8.760
 5968W        W 9487   1.903   9.119  11.285
 5969W        W 9488   8.489   8.011   0.583
 5970W        W 9489   3.678   6.372   3.498
 5971W        W 9490   6.704   2.852   0.592
 5972W        W 9491   5.643   2.598   2.292
 5973W        W 9492   4.413   2.763   9.050
 5974W        W 9493   6.615   8.403   3.451
 5975W        W 9494   4.120   6.637   0.078
 5976W        W 9495   3.308   5.709   8.787
 5977W        W 9496   2.625   1.810   9.611
 5978W        W 9497   0.343   2.246   2.915
 5979W        W 9498   5.148   1.944   9.059
 5980W        W 9499   1.852   7.592  10.291
 5981W        W 9500   0.022   1.620   2.140
 5982W        W 9501   3.333   9.903   8.775
 5983W        W 9502   5.890   4.143   9.579
 5984W        W 9503   1.946   6.432   3.565
 5985W        W 9504   5.338   1.544   1.913
 5986W        W 9505   4.603   1.769  11.869
 5987W        W 9506   8.598   0.867   9.406
 5988W        W 9507   0.636   9.142  10.983
 5989W        W 9508   2.745   2.173  10.951
 5990W        W 9509   9.160   4.831  10.729
 5991W        W 9510   4.999   7.856  10.689
 5992W        W 9511   9.396   5.548  10.510
 5993W        W 9512   0.709   3.099  10.456
 5994W        W 9513   5.554   1.672   9.217
 5995W        W 9514   3.221   8.635  11.121
 5996W        W 9515   1.499   4.974  10.945
 5997W        W 9516   9.735   6.143  11.827
 5998W        W 9517   4.900   7.149   3.620
 5999W        W 9518   8.003   0.435   3.626
 6000W        W 9519   3.340   4.352  10.550
 6001W        W 9520   4.425   3.070   8.638
 6002W        W 9521   6.413   9.503  11.952
 6003W        W 9522   2.705   2.267   9.838
 6004W        W 9523   3.113   7.565   2.365
 6005W        W 9524   5.125   8.537  11.792
 6006W        W 9525   9.832   8.864  11.304
 6007W        W 9526   7.632   3.982  11.326
 6008W        W 9527   4.485   4.151  10.216
 6009W        W 9528   6.990   8.267   9.893
 6010W        W 9529   9.775   3.422   1.097
 6011W        W 9530   3.709   9.788   2.784
 6012W        W 9531   8.855   3.836  10.457
 6013W        W 9532   0.126   5.258   3.550
 6014W        W 9533   4.871   9.000   3.090
 6015W        W 9534   8.977   0.345  11.527
 6016W        W 9535   2.720   2.943   9.924
 6017W        W 9536   9.082   3.027  10.895
 6018W        W 9537   9.354   2.303   2.705
 6019W        W 9538   1.453   0.994   3.765
 6020W        W 9539   0.363   8.853   1.890
 6021W        W 9540   9.383   2.250   2.204
 6022W        W 9541   3.663   0.691   8.750
 6023W        W 9542   0.380   2.661   8.708
 6024W        W 9543   8.774   0.674   1.191
 6025W        W 9544   6.191   7.108   1.689
 6026W        W 9545   6.459   2.873   1.825
 6027W        W 9546   8.292   0.506   9.590
 6028W        W 9547   7.181   9.983   0.394
 6029W        W 9548   4.938   2.277  11.303
 6030W        W 9549   4.098   5.318  10.443
 6031W        W 9550   4.953   8.033   3.919
 6032W        W 9551   7.993   6.071   2.508
 6033W        W 9552   9.762   6.660   1.847
 6034W        W 9553   7.804   8.620  10.796
 6035W        W 9554   5.661   6.229   0.448
 6036W        W 9555   5.019   1.692  10.909
 6037W        W 9556   7.097   2.828   2.446
 6038W        W 9557   9.791   4.376  11.233
 6039W        W 9558   7.998   5.799   3.470
 6040W        W 9559   6.682   6.453   2.363
 6041W        W 9560   2.610   8.177   9.897
 6042W        W 9561   4.356   5.494   1.393
 6043W        W 9562   4.409   6.569   3.943
 6044W        W 9563   3.797   1.611  10.402
 6045W        W 9564   3.069   7.175   2.025
 6046W        W 9565   2.558   7.872   8.917
 6047W        W 9566   4.692   8.488   0.804
 6048W        W 9567   2.946   1.601   0.948
 6049W        W 9568   4.068   3.225   0.391
 6050W        W 9569   3.525   2.306   1.848
 6051W        W 9570   0.273   8.615   1.034
 6052W        W 9571   1.213   8.011   0.299
 6053W        W 9572   4.522   4.505  11.423
 6054W        W 9573   2.116   2.893   0.977
 6055W        W 9574   9.993   5.918   2.909
 6056W        W 9575   0.899   4.483  10.415
 6057W        W 9576   4.973   4.204   9.476
 6058W        W 9577   3.266   8.873   1.770
 6059W        W 9578   0.359   8.148   1.199
 6060W        W 9579   2.184   5.894   1.456
 6061W        W 9580   0.922   1.595   9.434
 6062W        W 9581   1.430   2.159   8.578
 6063W        W 9582   4.420   8.800   9.266
 6064W        W 9583   5.538   3.144   3.644
 6065W        W 9584   0.818   8.728   9.668
 6066W        W 9585   0.802   8.243   9.808
 6067W        W 9586   8.742   9.023  11.709
 6068W        W 9587   0.461   3.721   3.111
 6069W        W 9588   4.722   3.823   4.029
 6070W        W 9589   5.669   2.588   8.520
 6071W        W 9590   0.538   9.833   0.456
 6072W        W 9591   2.433   1.729   1.636
 6073W        W 9592   6.488   5.619   8.714
 6074W        W 9593   0.055   4.379   2.170
 6075W        W 9594   0.323   8.097   9.726
 6076W        W 9595   6.929   3.058   1.992
 6077W        W 9596   3.057   7.965   9.707
 6078W        W 9597   8.064   0.905   0.364
 6079W        W 9598   7.092   0.232  10.148
 6080W        W 9599   5.589   3.476   2.737
 6081W        W 9600   7.887   2.823   0.732
 6082W        W 9601   2.290   6.285   9.644
 6083W        W 9602   6.719   3.103   9.820
 6084W        W 9603   5.719   3.213   1.560
 6085W        W 9604   0.591   4.366   2.203
 6086W        W 9605   6.524   7.356  10.322
 6087W        W 9606   0.252   5.026   9.686
 6088W        W 9607   9.832   2.617   0.184
 6089W        W 9608   3.716   4.968   9.683
 6090W        W 9609   7.725   2.698   1.626
 6091W        W 9610   3.333   7.893   3.350
 6092W        W 9611   9.098   1.328   1.776
 6093W        W 9612   7.985   7.384   2.174
 6094W        W 9613   9.365   1.064   9.845
 6095W        W 9614   7.942   1.822  10.738
 6096W        W 9615   5.274   2.914   9.278
 6097W        W 9616   3.158   0.403   1.921
 6098W        W 9617   1.487   0.887   3.266
 6099W        W 9618   1.351   9.406   3.173
 6100W        W 9619   5.142   3.742   2.755
 6101W        W 9620   5.707   9.903   0.017
 6102W        W 9621   1.348   1.672   2.125
 6103W        W 9622   6.685   5.512   9.742
 6104W        W 9623   3.749   1.860   3.318
 6105W        W 9624   9.828   5.258   8.782
 6106W        W 9625   2.433   2.258   2.951
 6107W        W 9626   6.608   7.612   2.263
 6108W        W 9627   2.145   8.187  11.167
 6109W        W 9628   5.966   5.855  11.206
 6110W        W 9629   8.075   8.928  11.804
 6111W        W 9630   2.729   9.874   1.822
 6112W        W 9631   0.084   7.346   9.377
 6113W        W 9632   1.863   8.513   8.884
 6114W        W 9633   3.595   1.404   1.674
 6115W        W 9634   0.209   3.813   0.329
 6116W        W 9635   2.496   4.217   3.138
 6117W        W 9636   4.789   4.513   8.348
 6118W        W 9637   1.811   6.676   1.324
 6119W        W 9638   1.505   1.318   0.269
 6120W        W 9639   8.115   2.346   1.365
 6121W        W 9640   6.128   9.022   8.929
 6122W        W 9641   6.745   3.741   1.972
 6123W        W 9642   3.799   5.470   0.669
 6124W        W 9643   5.095   9.664  10.075
 6125W        W 9644   1.487   6.229  10.596
 6126W        W 9645   4.431   8.084   3.225
 6127W        W 9646   0.438   5.064  11.145
 6128W        W 9647   7.893   9.955   3.785
 6129W        W 9648   6.933   3.620  11.520
 6130W        W 9649   6.282   4.166  11.984
 6131W        W 9650   8.032   4.306   1.038
 6132W        W 9651   5.943   1.324  11.269
 6133W        W 9652   4.811   6.429   2.784
 6134W        W 9653   5.654   8.881   1.433
 6135W        W 9654   0.404   6.639   0.424
 6136W        W 9655   1.161   6.554   2.318
 6137W        W 9656   9.640   1.853   2.399
 6138W        W 9657   7.341   6.110   0.704
 6139W        W 9658   3.998   1.092  10.548
 6140W        W 9659   0.915   5.642   9.396
 6141W        W 9660   9.987   1.991   3.202
 6142W        W 9661   0.583   5.059   9.270
 6143W        W 9662   1.732   3.288  11.851
 6144W        W 9663   5.152   5.552   9.282
 6145W        W 9664   6.052   3.653   3.657
 6146W        W 9665   8.793   5.296   3.062
 6147W        W 9666   1.865   4.548   0.441
 6148W        W 9667   2.566   8.747  11.805
 6149W        W 9668   6.603   0.237   3.116
 6150W        W 9669   7.381   3.592  10.484
 6151W        W 9670   9.440   2.778   3.245
 6152W        W 9671   8.897   3.489  10.954
 6153W        W 9672   1.697   8.077  11.510
 6154W        W 9673   7.551   0.291   2.867
 6155W        W 9674   6.480   8.695   9.129
 6156W        W 9675   1.067   9.070   1.201
 6157W        W 9676   9.773   4.362   8.792
 6158W        W 9677   8.031   6.712  11.353
 6159W        W 9678   0.399   5.011  11.802
 6160W        W 9679   1.899   4.638   2.215
 6161W        W 9680   9.920   2.884   8.842
 6162W        W 9681   0.574   0.901  10.468
 6163W        W 9682   4.536   9.776   2.047
 6164W        W 9683   6.262   1.365  10.265
 6165W        W 9684   9.324   2.651   0.041
 6166W        W 9685   1.026   9.875  11.552
 6167W        W 9686   6.435   0.306   1.630
 6168W        W 9687   6.380   5.199  10.279
 6169W        W 9688   9.482   3.603   2.707
 6170W        W 9689   6.431   2.997   3.066
 6171W        W 9690   6.973   1.153   0.781
 6172W        W 9691   6.643   6.070  10.669
 6173W        W 9692   3.083   4.656   2.904
 6174W        W 9693   2.626   9.943   0.227
 6175W        W 9694   1.968   7.844   1.028
 6176W        W 9695   1.212   9.995  11.083
 6177W        W 9696   9.347   7.455   0.793
 6178W        W 9697   3.314   0.755   2.696
 6179W        W 9698   1.875   1.026   1.729
 6180W        W 9699   7.101   3.221  10.242
 6181W        W 9700   8.917   2.629  11.190
 6182W        W 9701   4.390   0.362   1.400
 6183W        W 9702   7.057   4.166  10.334
 6184W        W 9703   5.047   8.379   2.455
 6185W        W 9704   3.476   7.400   1.660
 6186W        W 9705   0.387   6.867  10.835
 6187W        W 9706   4.974   7.379   1.882
 6188W        W 9707   1.782   6.168   9.387
 6189W        W 9708   3.267   6.252   7.965
 6190W        W 9709   0.477   0.936  10.966
 6191W        W 9710   1.932   1.678  11.111
 6192W        W 9711   9.589   9.477   2.296
 6193W        W 9712   9.610   9.374   9.138
 6194W        W 9713   9.301   3.112  11.500
 6195W        W 9714   7.270   5.124   1.925
 6196W        W 9715   3.535   3.571  10.226
 6197W        W 9716   0.788   2.153   1.044
 6198W        W 9717   8.906   5.148   2.161
 6199W        W 9718   7.577   7.234  10.807
 6200W        W 9719   3.436   5.531   4.079
 6201W        W 9720   8.624   5.373   9.019
 6202W        W 9721   4.720   6.373  11.837
 6203W        W 9722   2.047   5.033   1.344
 6204W        W 9723   4.624   9.731   8.885
 6205W        W 9724   7.078   3.675   2.807
 6206W        W 9725   4.599   0.649   9.294
 6207W        W 9726   1.350   1.098  11.836
 6208W        W 9727   7.340   0.626   8.536
 6209W        W 9728   1.839   1.343   9.985
 6210W        W 9729   8.518   9.324  10.943
 6211W        W 9730   2.214   1.738  10.446
 6212W        W 9731   8.538   7.117   9.193
 6213W        W 9732   8.473   3.604  10.707
 6214W        W 9733   2.268   9.371   8.962
 6215W        W 9734   2.649   2.507   1.326
 6216W        W 9735   1.652   3.747   3.307
 6217W        W 9736   4.717   7.830   2.879
 6218W        W 9737   5.156   7.982   1.604
 6219W        W 9738   3.365   3.051  11.737
 6220W        W 9739   5.640   1.033   2.585
 6221W        W 9740   3.719   7.856   3.005
 6222W        W 9741   1.796   6.177   2.230
 6223W        W 9742   7.743   2.105  11.185
 6224W        W 9743   4.569   0.108   9.323
 6225W        W 9744   3.592   3.376  11.361
 6226W        W 9745   8.334   7.987   3.474
 6227W        W 9746   1.491   7.832   3.132
 6228W        W 9747   3.461   7.097   9.067
 6229W        W 9748   0.869   0.293   1.406
 6230W        W 9749   5.765   5.056   9.622
 6231W        W 9750   7.993   8.812   9.066
 6232W        W 9751   5.146   4.152   8.471
 6233W        W 9752   6.188   7.287   9.060
 6234W        W 9753   3.101   2.344   1.530
 6235W        W 9754   7.197   1.454   0.304
 6236W        W 9755   2.895   6.577   1.824
 6237W        W 9756   7.914   0.686   2.834
 6238W        W 9757   4.729   5.650   3.732
 6239W        W 9758   2.400   3.044   1.406
 6240W        W 9759   5.455   4.007   2.007
 6241W        W 9760   8.475   7.541  10.321
 6242W        W 9761   7.560   7.597   3.253
 6243W        W 9762   2.640   6.030   3.093
 6244W        W 9763   4.618   0.860   9.770
 6245W        W 9764   5.229   9.813  11.815
 6246W        W 9765   0.437   7.030   9.233
 6247W        W 9766   6.486   3.666   1.252
 6248W        W 9767   6.094   5.018   3.364
 6249W        W 9768   6.591   4.032  10.142
 6250W        W 9769   5.643   8.835   2.353
 6251W        W 9770   0.717   1.705   0.795
 6252W        W 9771   2.523   0.413  10.782
 6253W        W 9772   4.881   3.285   1.031
 6254W        W 9773   0.878   4.840  10.049
 6255W        W 9774   3.150   8.412   1.590
 6256W        W 9775   0.829   3.161   9.171
 6257W        W 9776   6.140   4.524   2.140
 6258W        W 9777   5.719   0.939   8.535
 6259W        W 9778   9.376   4.378   9.901
 6260W        W 9779   1.910   0.842   3.612
 6261W        W 9780   4.724   8.754   3.550
 6262W        W 9781   9.957   8.458   0.044
 6263W        W 9782   7.609   5.830  11.547
 6264W        W 9783   2.538   1.706   0.627
 6265W        W 9784   6.950   2.879   9.398
 6266W        W 9785   9.442   8.724   3.278
 6267W        W 9786   9.966   4.345   2.687
 6268W        W 9787   1.009   8.324   3.618
 6269W        W 9788   0.486   5.722   9.970
 6270W        W 9789   4.837   7.239   9.657
 6271W        W 9790   9.396   1.389   3.261
 6272W        W 9791   2.544   4.223  10.899
 6273W        W 9792   9.472   6.081   3.047
 6274W        W 9793   4.198   2.262   9.771
 6275W        W 9794   3.521   5.053  11.941
 6276W        W 9795   3.158   6.566   2.640
 6277W        W 9796   3.517   6.093   3.978
 6278W        W 9797   0.367   8.589   9.831
 6279W        W 9798   3.144   9.417  11.520
 6280W        W 9799   4.484   3.777   3.422
 6281W        W 9800   9.240   9.432   1.403
 6282W        W 9801   8.278   1.009  10.673
 6283W        W 9802   0.350   8.712  11.664
 6284W        W 9803   3.284   6.095  10.526
 6285W        W 9804   4.071   5.102   2.060
 6286W        W 9805   7.381   5.915  11.067
 6287W        W 9806   7.864   2.823   0.209
 6288W        W 9807   7.246   9.187   1.876
 6289W        W 9808   1.860   6.943  10.822
 6290W        W 9809   4.237   1.908  10.413
 6291W        W 9810   6.455   3.217   0.321
 6292W        W 9811   8.188   9.913   0.572
 6293W        W 9812   1.734   0.867   0.340
 6294W        W 9813   9.463   1.004   1.912
 6295W        W 9814   5.496   9.598   9.242
 6296W        W 9815   4.552   7.588  10.509
 6297W        W 9816   0.425   7.901   1.948
 6298W        W 9817   5.896   6.160   2.043
 6299W        W 9818   6.613   0.681   2.846
 6300W        W 9819   2.267   9.851  10.473
 6301W        W 9820   3.167   5.524  11.281
 6302W        W 9821   7.650   2.200   9.470
 6303W        W 9822   9.658   4.076   1.917
 6304W        W 9823   3.087   8.463   8.537
 6305W        W 9824   7.245   3.557   8.641
 6306W        W 9825   8.382   5.184   1.406
 6307W        W 9826   8.173   9.757   8.892
 6308W        W 9827   1.411   3.191   1.046
 6309W        W 9828   5.555   7.478   9.361
 6310W        W 9829   7.791   3.321   0.320
 6311W        W 9830   3.159   4.074  11.949
 6312W        W 9831   6.318   5.033   2.056
 6313W        W 9832   8.279   9.370   1.235
 6314W        W 9833   8.275   8.924   9.480
 6315W        W 9834   9.898   1.301   2.520
 6316W        W 9835   7.217   3.128   9.752
 6317W        W 9836   7.907   1.113   3.159
 6318W        W 9837   1.843   9.524  11.628
 6319W        W 9838   2.104   8.305   9.904
 6320W        W 9839   5.055   4.145   8.965
 6321W        W 9840   4.233   1.570   0.760
 6322W        W 9841   2.643   5.122  11.762
 6323W        W 9842   1.671   2.161   0.543
 6324W        W 9843   0.862   4.700   1.904
 6325W        W 9844   7.412   9.491   8.545
 6326W        W 9845   9.341   1.613  10.454
 6327W        W 9846   8.277   0.475   1.286
 6328W        W 9847   1.183   2.639  11.879
 6329W        W 9848   9.081   1.866   9.300
 6330W        W 9849   1.701   2.455   3.510
 6331W        W 9850   2.716   3.459  10.164
 6332W        W 9851   3.447   5.898   1.957
 6333W        W 9852   8.927   7.809  10.270
 6334W        W 9853   6.054   2.159   8.444
 6335W        W 9854   7.246   1.775  11.104
 6336W        W 9855   6.842   9.579   2.680
 6337W        W 9856   5.587   8.397  10.874
 6338W        W 9857   2.905   1.355   0.482
 6339W        W 9858   5.166   9.704  10.934
 6340W        W 9859   0.274   8.546   8.557
 6341W        W 9860   4.323   9.725   2.776
 6342W        W 9861   3.521   9.674   2.325
 6343W        W 9862   0.194   3.813  11.433
 6344W        W 9863   8.877   6.983   2.131
 6345W        W 9864   4.173   1.300   9.759
 6346W        W 9865   7.394   6.663   3.508
 6347W        W 9866   1.288   1.916   0.325
 6348W        W 9867   6.548   9.512   9.976
 6349W        W 9868   4.952   2.208   9.905
 6350W        W 9869   4.860   6.044   9.037
 6351W        W 9870   7.486   0.445   1.091
 6352W        W 9871   8.790   0.804   3.167
 6353W        W 9872   8.092   6.646   1.673
 6354W        W 9873   1.428   9.234   9.278
 6355W        W 9874   1.708   5.742  10.433
 6356W        W 9875   6.882   6.131   3.250
 6357W        W 9876   3.054   5.290   8.512
 6358W        W 9877   6.458   3.168  10.945
 6359W        W 9878   5.497   0.206  10.384
 6360W        W 9879   1.310   3.296   2.682
 6361W        W 9880   5.127   2.030   0.678
 6362W        W 9881   3.244   6.794   0.322
 6363W        W 9882   1.811   3.763   1.737
 6364W        W 9883   0.372   5.686   1.214
 6365W        W 9884   4.651   1.039  10.250
 6366W        W 9885   7.369   5.222   0.685
 6367W        W 9886   1.063   3.617   1.071
 6368W        W 9887   3.439   8.496   0.863
 6369W        W 9888   4.352   2.576   3.539
 6370W        W 9889   2.266   0.834  10.256
 6371W        W 9890   3.097   7.977  10.541
 6372W        W 9891   9.851   8.655   0.512
 6373W        W 9892   2.847   6.706  11.896
 6374W        W 9893   6.134   0.558   9.873
 6375W        W 9894   8.758   0.876  10.859
 6376W        W 9895   8.060   2.531   1.969
 6377W        W 9896   2.533   0.152  11.769
 6378W        W 9897   9.753   2.570   1.269
 6379W        W 9898   2.901   6.931   0.734
 6380W        W 9899   2.282   1.738   3.033
 6381W        W 9900   8.977   3.437   9.640
 6382W        W 9901   0.687   6.428   3.461
 6383W        W 9902   6.042   9.208   0.753
 6384W        W 9903   6.434   9.383  10.886
 6385W        W 9904   5.238   4.109   3.731
 6386W        W 9905   9.965   2.349   8.893
 6387W        W 9906   4.009   8.294   3.018
 6388W        W 9907   0.250   6.727   2.612
 6389W        W 9908   2.169   5.351   0.185
 6390W        W 9909   4.874   6.685  11.471
 6391W        W 9910   0.003   1.361   1.352
 6392W        W 9911   7.989   3.318   0.806
 6393W        W 9912   5.529   1.213  10.110
 6394W        W 9913   8.385   5.976  10.739
 6395W        W 9914   8.587   5.009  11.379
 6396W        W 9915   7.007   6.392  10.469
 6397W        W 9916   8.093   7.719   0.819
 6398W        W 9917   4.792   4.609  11.925
 6399W        W 9918   4.026   1.326   9.286
 6400W        W 9919   7.356   2.360   1.766
 6401W        W 9920   2.440   7.851   0.838
 6402W        W 9921   5.119   2.414   9.338
 6403W        W 9922   8.074   0.890   9.345
 6404W        W 9923   7.150   0.828  11.163
 6405W        W 9924   1.723   0.538   2.788
 6406W        W 9925   0.839   1.639   3.447
 6407W        W 9926   6.582   8.595  11.848
 6408W        W 9927   9.325   8.962   9.410
 6409W        W 9928   3.018   0.208  11.969
 6410W        W 9929   1.596   6.567   1.946
 6411W        W 9930   7.567   1.607   9.470
 6412W        W 9931   1.148   5.065   2.708
 6413W        W 9932   8.649   6.677   0.621
 6414W        W 9933   2.337   2.799  10.448
 6415W        W 9934   9.184   2.899  10.400
 6416W        W 9935   0.967   6.855   1.378
 6417W        W 9936   5.801   0.854  11.417
 6418W        W 9937   3.994   0.769   0.923
 6419W        W 9938   7.396   8.939   2.307
 6420W        W 9939   3.182   9.376   0.021
 6421W        W 9940   1.596   6.286  11.716
 6422W        W 9941   3.101   3.738   9.320
 6423W        W 9942   6.902   6.647  10.970
 6424W        W 9943   2.324   2.488   0.033
 6425W        W 9944   9.795   4.650   9.236
 6426W        W 9945   2.454   8.678  10.053
 6427W        W 9946   4.501   4.356   0.275
 6428W        W 9947   1.344   3.725   2.931
 6429W        W 9948   9.380   2.126  11.167
 6430W        W 9949   5.978   2.957   0.271
 6431W        W 9950   5.647   5.829  10.784
 6432W        W 9951   0.756   3.149  10.985
 6433W        W 9952   2.742   9.674   0.646
 6434W        W 9953   8.422   4.361   8.834
 6435W        W 9954   7.622   6.083  10.392
 6436W        W 9955   0.754   8.610  10.187
 6437W        W 9956   3.256   2.674   2.772
 6438W        W 9957   9.430   0.144  11.365
 6439W        W 9958   2.701   9.426   0.202
 6440W        W 9959   8.240   1.730   8.956
 6441W        W 9960   5.931   3.158  11.009
 6442W        W 9961   9.511   5.769   0.244
 6443W        W 9962   0.003   0.497   3.206
 6444W        W 9963   7.594   1.904   2.485
 6445W        W 9964   8.152   3.209  11.940
 6446W        W 9965   1.634   8.435   9.707
 6447W        W 9966   7.995   1.597   9.839
 6448W        W 9967   1.213   5.818  10.399
 6449W        W 9968   8.405   5.490  10.263
 6450W        W 9969   8.318   5.843  11.782
 6451W        W 9970   9.583   2.414  10.376
 6452W        W 9971   4.686   0.198   3.231
 6453W        W 9972   8.641   5.596   2.062
 6454W        W 9973   8.883   0.440   2.314
 6455W        W 9974   2.881   1.876   1.406
 6456W        W 9975   1.954   3.201   0.354
 6457W        W 9976   3.210   7.449   9.756
 6458W        W 9977   2.091   2.930  11.947
 6459W        W 9978   4.006   4.346   8.119
 6460W        W 9979   5.737   2.047   3.543
 6461W        W 9980   9.560   3.144  10.149
 6462W        W 9981   8.793   1.321  11.603
 6463W        W 9982   0.408   6.207   1.219
 6464W        W 9983   1.265   7.559   0.512
 6465W        W 9984   0.958   6.246  10.531
 6466W        W 9985   8.042   4.424   1.521
 6467W        W 9986   2.407   1.222   2.923
 6468W        W 9987   0.918   1.629  11.244
 6469W        W 9988   0.051   8.201   2.737
 6470W        W 9989   1.538   4.947   0.643
 6471W        W 9990   3.476   9.340   2.719
 6472W        W 9991   7.365   2.304   2.721
 6473W        W 9992   1.569   4.254   2.025
 6474W        W 9993   3.542   7.592   1.162
 6475W        W 9994   9.160   5.044   0.215
 6476W        W 9995   6.909   0.918  10.736
 6477W        W 9996   4.311   9.850   9.699
 6478W        W 9997   3.691   1.782  10.880
 6479W        W 9998   0.747   6.704   9.496
 6480W        W 9999   6.512   9.401   9.091
 6481W        W10000   2.629   5.007  10.293
 6482W        W10001   5.692   5.766   1.795
 6483W        W10002   2.825   8.336   8.944
 6484W        W10003   4.203   7.112   0.983
 6485W        W10004   6.446   2.354   1.872
 6486W        W10005   8.270   7.995   9.128
 6487W        W10006   5.937   2.198  11.553
 6488W        W10007   8.297   4.061   2.776
 6489W        W10008   5.206   7.486   1.421
 6490W        W10009   3.090   5.706   2.307
 6491W        W10010   1.827   7.268   3.244
 6492W        W10011   9.361   9.624   1.859
 6493W        W10012   5.202   6.921   1.888
 6494W        W10013   0.163   5.402   0.033
 6495W        W10014   8.556   0.693   0.419
 6496W        W10015   0.115   5.017   1.741
 6497W        W10016   7.841   1.501   8.693
 6498W        W10017   7.172   8.174   0.665
 6499W        W10018   9.206   6.222   1.206
 6500W        W10019   0.355   8.436   3.597
 6501W        W10020   8.099   7.806  10.042
 6502W        W10021   2.359   7.505   9.357
 6503W        W10022   3.191   5.155   8.971
 6504W        W10023   6.026   7.685   9.352
 6505W        W10024   2.916   8.893  11.437
 6506W        W10025   2.942   5.116   0.763
 6507W        W10026   5.109   0.674   0.931
 6508W        W10027   2.275   3.971   0.003
 6509W        W10028   5.625   4.970   0.840
 6510W        W10029   0.923   9.485  10.625
 6511W        W10030   7.472   1.172   3.485
 6512W        W10031   2.310   4.342   9.133
 6513W        W10032   5.010   9.942  10.491
 6514W        W10033   9.872   7.691  10.287
 6515W        W10034   5.839   1.544   0.114
 6516W        W10035   4.953   2.463  10.366
 6517W        W10036   5.989   3.872   9.144
 6518W        W10037   6.793   1.082  11.432
 6519W        W10038   7.618   3.656   0.942
 6520W        W10039   6.131   0.381   2.960
 6521W        W10040   4.253   8.017   0.648
 6522W        W10041   9.975   3.023   1.357
 6523W        W10042   2.668   0.845   9.092
 6524W        W10043   2.659   5.947   2.316
 6525W        W10044   5.681   7.697   0.428
 6526W        W10045   2.589   5.572   0.001
 6527W        W10046   6.166   9.822  10.872
 6528W        W10047   7.478   8.143   3.425
 6529W        W10048   9.370   4.657   8.937
 6530W        W10049   5.474   6.997   2.326
 6531W        W10050   1.617   7.870   8.950
 6532W        W10051   7.639   5.794   8.762
 6533W        W10052   5.463   9.335  11.690
 6534W        W10053   9.381   7.893  10.508
 6535W        W10054   8.994   4.085   0.087
 6536W        W10055   1.617   8.091   8.484
 6537W        W10056   8.087   8.885   1.371
 6538W        W10057   1.421   3.935  11.964
 6539W        W10058   4.723   4.533   8.857
 6540W        W10059   2.971   8.424   9.438
 6541W        W10060   2.778   4.198   9.355
 6542W        W10061   1.469   2.549  10.793
 6543W        W10062   2.313   5.758   9.675
 6544W        W10063   1.800   4.720  11.782
 6545W        W10064   8.071   2.801  11.191
 6546W        W10065   3.889   0.921   0.303
 6547W        W10066   3.709   3.294   3.171
 6548W        W10067   9.632   7.565   9.469
 6549W        W10068   5.947   5.933   3.521
 6550W        W10069   8.506   6.767   9.624
 6551W        W10070   7.762   6.140   8.382
 6552W        W10071   2.205   0.384   0.929
 6553W        W10072   3.180   9.478  11.022
 6554W        W10073   9.792   0.844   2.262
 6555W        W10074   4.481   0.232  11.855
 6556W        W10075   3.627   9.329  11.790
 6557W        W10076   7.412   3.277   1.239
 6558W        W10077   8.565   3.995   3.610
 6559W        W10078   0.069   9.011   9.872
 6560W        W10079   4.471   5.921   8.255
 6561W        W10080   1.823   9.541   9.193
 6562W        W10081   2.881   2.657   9.144
 6563W        W10082   3.666   7.086   0.445
 6564W        W10083   5.295   5.542   2.621
 6565W        W10084   7.733   5.318  11.158
 6566W        W10085   7.464   7.056   2.113
 6567W        W10086   5.098   6.096   2.455
 6568W        W10087   7.188   3.759  11.072
 6569W        W10088   9.969   3.644   1.970
 6570W        W10089   4.579   0.537  10.178
 6571W        W10090   5.673   2.946   2.662
 6572W        W10091   2.727   2.545  10.264
 6573W        W10092   9.653   9.289  11.538
 6574W        W10093   5.278   5.415   3.592
 6575W        W10094   9.659   7.537  11.249
 6576W        W10095   6.765   5.069   1.807
 6577W        W10096   7.611   2.741   2.551
 6578W        W10097   8.828   0.441   9.589
 6579W        W10098   7.490   7.931   1.424
 6580W        W10099   2.432   8.418  10.827
 6581W        W10100   4.781   3.820  10.882
 6582W        W10101   6.445   1.197   0.001
 6583W        W10102   7.173   9.880  11.892
 6584W        W10103   3.555   5.531   8.380
 6585W        W10104   5.177   0.871   0.435
 6586W        W10105   5.112   8.054   8.567
 6587W        W10106   0.741   0.333  11.585
 6588W        W10107   4.813   6.130  10.699
 6589W        W10108   9.733   5.598   3.349
 6590W        W10109   6.069   0.595   1.010
 6591W        W10110   0.343   7.075   2.240
 6592W        W10111   4.620   3.207   0.175
 6593W        W10112   5.025   5.241   2.324
 6594W        W10113   6.328   9.381   3.300
 6595W        W10114   2.568   5.603   1.942
 6596W        W10115   1.167   2.595   1.719
 6597W        W10116   4.210   2.997  11.950
 6598W        W10117   4.751   5.716  11.489
 6599W        W10118   7.466   4.921   3.287
 6600W        W10119   6.789   2.928   1.444
 6601W        W10120   7.405   4.841   2.767
 6602W        W10121   5.489   8.165   0.346
 6603W        W10122   4.059   4.111   9.906
 6604W        W10123   4.514   9.604  10.346
 6605W        W10124   1.828   9.336  10.106
 6606W        W10125   9.575   6.266   1.570
 6607W        W10126   8.927   7.463   9.026
 6608W        W10127   2.564   4.149   1.762
 6609W        W10128   2.737   4.315   2.677
 6610W        W10129   3.301   3.810   2.042
 6611W        W10130   3.970   0.249   3.639
 6612W        W10131   5.397   5.548  11.125
 6613W        W10132   9.203   2.703   2.432
 6614W        W10133   5.627   3.815  11.231
 6615W        W10134   4.853   0.411   2.446
 6616W        W10135   5.751   1.372   1.593
 6617W        W10136   2.775   5.086  10.771
 6618W        W10137   0.319   8.459   0.534
 6619W        W10138   1.769   1.940   1.854
 6620W        W10139   7.278   2.193  11.392
 6621W        W10140   7.021   4.467   0.375
 6622W        W10141   0.756   6.658  11.487
 6623W        W10142   4.484   5.879   9.386
 6624W        W10143   1.442   9.818  11.840
 6625W        W10144   4.922   1.154   1.092
 6626W        W10145   1.649   5.749  11.876
 6627W        W10146   0.536   2.323   9.556
 6628W        W10147   8.576   0.218  10.860
 6629W        W10148   5.596   9.618   3.300
 6630W        W10149   0.823   7.410  10.014
 6631W        W10150   0.752   1.350  10.835
 6632W        W10151   4.177   2.024   0.013
 6633W        W10152   8.322   5.503   3.207
 6634W        W10153   7.354   1.415   2.505
 6635W        W10154   7.257   4.721   2.226
 6636W        W10155   4.592   4.598  10.517
 6637W        W10156   3.933   7.205   2.411
 6638W        W10157   5.390   8.454   1.607
 6639W        W10158   7.938   8.053  10.488
 6640W        W10159   4.124   3.507   8.692
 6641W        W10160   0.878   6.913   9.943
 6642W        W10161   7.896   6.066   0.728
 6643W        W10162   1.683   9.042   3.326
 6644W        W10163   3.839   7.638  10.694
 6645W        W10164   5.086   6.581   9.660
 6646W        W10165   5.036   1.178  10.876
 6647W        W10166   7.048   7.831   2.181
 6648W        W10167   9.967   8.558   9.006
 6649W        W10168   1.626   3.419   3.683
 6650W        W10169   3.868   7.529   3.376
 6651W        W10170   6.970   8.603   8.955
 6652W        W10171   6.035   8.137  11.744
 6653W        W10172   5.861   4.096   2.994
 6654W        W10173   4.864   5.053   0.911
 6655W        W10174   0.230   3.709   9.284
 6656W        W10175   5.043   8.546   0.289
 6657W        W10176   0.536   7.652  11.361
 6658W        W10177   4.555   9.376   0.256
 6659W        W10178   1.369   7.147  10.818
 6660W        W10179   2.404   9.689   8.576
 6661W        W10180   4.714   1.880   0.930
 6662W        W10181   5.947   3.446   0.301
 6663W        W10182   4.512   4.140   8.111
 6664W        W10183   5.539   0.944   9.645
 6665W        W10184   8.324   6.198   1.637
 6666W        W10185   8.400   3.664   1.353
 6667W        W10186   1.641   6.630   2.449
 6668W        W10187   0.331   2.213   0.807
 6669W        W10188   4.826   5.441  10.948
 6670W        W10189   1.258   0.705   2.839
 6671W        W10190   9.203   9.202   2.491
 6672W        W10191   6.704   2.190   1.457
 6673W        W10192   1.678   8.034   0.074
 6674W        W10193   5.963   3.606   1.242
 6675W        W10194   2.089   7.977  10.697
 6676W        W10195   1.802   1.236   1.253
 6677W        W10196   8.158   8.399   0.442
 6678W        W10197   0.613   5.366   3.441
 6679W        W10198   2.188   5.500   1.066
 6680W        W10199   6.352   4.064  11.082
 6681W        W10200   5.890   7.148   2.666
 6682W        W10201   0.406   0.448   2.412
 6683W        W10202   1.093   9.004  10.004
 6684W        W10203   3.367   9.727   1.211
 6685W        W10204   6.641   0.735   3.370
 6686W        W10205   4.112   9.868  10.181
 6687W        W10206   4.578   6.046  10.267
 6688W        W10207   0.595   7.984   3.585
 6689W        W10208   2.572   4.483  10.283
 6690W        W10209   6.115   5.700   2.072
 6691W        W10210   6.175   2.663   8.614
 6692W        W10211   3.578   4.797  10.670
 6693W        W10212   0.972   7.963   3.187
 6694W        W10213   7.938   5.505   2.867
 6695W        W10214   3.656   6.843   0.010
 6696W        W10215   2.849   1.364   9.788
 6697W        W10216   7.209   4.797   0.971
 6698W        W10217   6.692   1.737   9.541
 6699W        W10218   7.067   3.179   0.449
 6700W        W10219   6.488   6.945   9.271
 6701W        W10220   6.983   0.336  11.835
 6702W        W10221   7.648   5.919   2.896
 6703W        W10222   0.245   0.586  10.241
 6704W        W10223   3.520   4.065  10.056
 6705ION    NA+10224   4.478   0.497  10.982
 6706ION    NA+10225   7.936   4.194   8.805
 6707ION    NA+10226   6.277   8.427   0.732
 6708ION    NA+10227   3.386   1.610   1.227
 6709ION    NA+10228   3.871   6.178   1.809
 6710ION    NA+10229   2.235   5.710  10.474
 6711ION    NA+10230   4.511   6.566  10.388
 6712ION    NA+10231   6.634   5.026  11.687
 6713ION    NA+10232   9.522   3.077   8.549
 6714ION    NA+10233   4.634   8.761   9.814
 6715ION    NA+10234   6.138   3.672   9.609
 6716ION    NA+10235   4.735   7.866   0.745
 6717ION    NA+10236   7.893   5.613  11.955
 6718ION    NA+10237   0.853   3.175  11.954
 6719ION    NA+10238   0.025   9.984   3.064
 6720ION    NA+10239   7.570   8.949  11.751
 6721ION    NA+10240   1.703   7.052   9.506
 6722ION    NA+10241   4.062   2.384  10.323
 6723ION    NA+10242   3.789   0.190   8.873
 6724ION    NA+10243   3.870   8.438   9.560
 6725ION    NA+10244   6.951   1.236   8.964
 6726ION    NA+10245   3.605   5.509  11.001
 6727ION    NA+10246   7.444   4.083   9.557
 6728ION    NA+10247   5.355   9.248  10.157
 6729ION    NA+10248   6.911   9.525  10.683
 6730ION    NA+10249   3.141   0.950   8.918
 6731ION    NA+10250   0.285   5.429  11.511
 6732ION    NA+10251   9.315   3.435   1.330
 6733ION    NA+10252   8.093   1.661   3.164
 6734ION    NA+10253   2.635   5.051   8.796
 6735ION    NA+10254   6.339   0.858   1.772
 6736ION    NA+10255   8.645   1.373  10.761
 6737ION    NA+10256   5.284   8.799   2.708
 6738ION    NA+10257   1.863   4.693   1.714
 6739ION    NA+10258   7.277   9.364   2.850
 6740ION    NA+10259   1.752   9.748   0.444
 6741ION    NA+10260   7.888   7.903   2.226
 6742ION    NA+10261   2.796   6.777   2.299
 6743ION    NA+10262   1.551   6.585   0.865
 6744ION    NA+10263   1.339   8.621   1.103
 6745ION    NA+10264   2.155   5.906   0.023
 6746ION    NA+10265   8.178   4.790   2.138
 6747ION    NA+10266   8.890   9.017  10.272
 6748ION    NA+10267   8.394   8.001  11.970
 6749ION    NA+10268   8.404   8.024   1.602
 6750ION    NA+10269   6.014   6.680   4.028
 6751ION    NA+10270   4.215   9.479   1.017
 6752ION    NA+10271   0.902   3.268   9.668
 6753ION    NA+10272   1.315   0.520   3.697
 6754ION    NA+10273   4.095   5.517   2.382
 6755ION    NA+10274   8.707   2.743   1.220
 6756ION    NA+10275   6.416   8.485   2.246
 6757ION    NA+10276   7.789   4.843  10.969
 6758ION    NA+10277   4.207   5.270   0.412
 6759ION    NA+10278   0.580   4.889   0.299
 6760ION    NA+10279   1.819   0.019   3.162
 6761ION    NA+10280   3.820   4.966  10.181
 6762ION    NA+10281   9.708   7.891   2.996
 6763ION    NA+10282   5.102   5.868   3.419
 6764ION    NA+10283   3.582   9.598   0.252
 6765ION    NA+10284   0.288   0.439   8.596
 6766ION    NA+10285   8.771   7.936   2.444
 6767ION    NA+10286   3.865   6.328   9.163
 6768ION    NA+10287   4.318   0.400   9.735
 6769ION    NA+10288   7.965   7.854   9.530
 6770ION    NA+10289   2.770   1.874   2.476
 6771ION    NA+10290   3.027   2.704  11.587
 6772ION    NA+10291   7.558   2.568  10.487
 6773ION    NA+10292   2.149   5.747   8.826
 6774ION    NA+10293   5.326   4.589   1.530
 6775ION    NA+10294   6.525   6.959   9.843
 6776ION    CL-10295   8.601   4.707   2.258
 6777ION    CL-10296   0.230   1.215   2.912
 6778ION    CL-10297   5.137   8.820   1.336
 6779ION    CL-10298   6.124   0.534  11.184
 6780ION    CL-10299   5.047   4.507   3.108
 6781ION    CL-10300   6.124   3.895   9.993
 6782ION    CL-10301   1.126   3.651   9.691
 6783ION    CL-10302   2.370   5.376   8.996
 6784ION    CL-10303   3.933   5.857   2.123
 6785ION    CL-10304   1.819   1.756   3.321
 6786ION    CL-10305   6.431   8.553   0.334
 6787ION    CL-10306   4.340   8.436   9.597
 6788ION    CL-10307   4.474   1.581   9.428
 6789ION    CL-10308   2.708   5.326   2.349
 6790ION    CL-10309   0.890   4.674   0.058
 6791ION    CL-10310   7.039   1.044   8.539
 6792ION    CL-10311   7.763   4.115   9.224
 6793ION    CL-10312   4.718   7.701   0.328
 6794ION    CL-10313   2.178   8.509  11.572
 6795ION    CL-10314   4.133   6.663  10.602
 6796ION    CL-10315   2.172   9.100   2.132
 6797ION    CL-10316   7.727   9.197   0.089
 6798ION    CL-10317   9.196   2.691   9.501
 6799ION    CL-10318   5.092   4.264   1.313
 6800ION    CL-10319   1.410   0.003   0.317
 6801ION    CL-10320   9.009   3.077   1.289
 6802ION    CL-10321   3.337   3.703   3.659
 6803ION    CL-10322   5.762   7.423   2.255
 6804ION    CL-10323   3.201   4.917   0.373
 6805ION    CL-10324   0.230   0.528   0.924
 6806ION    CL-10325   6.206   2.404   2.322
 6807ION    CL-10326   4.810   4.995   8.607
 6808ION    CL-10327   9.040   1.240  10.610
 6809ION    CL-10328   7.507   4.321   0.273
 6810ION    CL-10329   7.769   5.152  10.649
 6811ION    CL-10330   5.595   6.676   0.223
 6812ION    CL-10331   0.996   8.699   0.818
 6813ION    CL-10332   0.825   8.350   2.277
 6814ION    CL-10333   6.632   1.544   9.074
 6815ION    CL-10334   1.309   4.545  10.098
 6816ION    CL-10335   0.104   7.715   2.870
 6817ION    CL-10336   4.344   4.667  10.983
 6818ION    CL-10337   4.408   0.071  11.098
 6819ION    CL-10338   3.448   8.606   9.627
 6820ION    CL-10339   3.156   7.289   0.388
 6821ION    CL-10340   2.029   6.020  11.610
 6822ION    CL-10341   2.456   1.569   2.382
 6823ION    CL-10342   5.495   4.945   1.757
 6824ION    CL-10343   8.315   7.968   2.053
 6825ION    CL-10344   7.086   4.116   9.832
 6826ION    CL-10345   9.898   0.681   8.728
 6827ION    CL-10346   5.238   8.657   3.134
 6828ION    CL-10347   5.743   3.182   1.050
 6829ION    CL-10348   6.763   3.414   3.162
 6830ION    CL-10349   7.512   9.947   0.855
 6831ION    CL-10350   8.918   9.321  10.597
 6832ION    CL-10351   8.476   9.200   3.554
 6833ION    CL-10352   3.752   6.694   9.399
 6834ION    CL-10353   0.109   3.828   2.737
 6835ION    CL-10354   6.369   7.788   8.981
 6836ION    CL-10355   4.591   3.345   9.730
 6837ION    CL-10356   4.988   9.036   9.977
 6838ION    CL-10357   5.642   0.264   3.120
 6839ION    CL-10358   5.784   3.614   3.211
 6840ION    CL-10359   5.033   7.592   9.361
 6841ION    CL-10360   9.585   5.681   9.099
 6842ION    CL-10361   9.854   2.520   3.078
 6843ION    CL-10362   2.691   4.676  11.547
 6844ION    CL-10363   7.782   2.541  10.869
 6845ION    CL-10364   1.680   8.566   1.405
 6846ION    CL-10365   9.627   3.734   1.483
  10.00000  10.00000  12.00000
