Protein in INSANE! Membrane UpperLeaflet>POPC=1.0 LowerLeaflet>POPC=1.0
12914
    1AU     AUC    1   1.994   2.838   6.818 -0.0659  0.0843  0.0693
    1AU     AUC    2   2.043   2.598   6.570  0.0346 -0.0163 -0.0278
    1AU     AUC    3   2.104   2.938   6.541  0.0209 -0.0657  0.0573
    1AU     AUC    4   1.903   2.750   7.077 -0.0120 -0.0905 -0.0780
    1AU     AUC    5   1.853   3.097   6.992 -0.0739  0.0099  0.0425
    1AU     AUC    6   1.669   2.877   6.867 -0.0627 -0.0596  0.0580
    1AU     AUC    7   1.799   2.762   6.559 -0.1712  0.0467  0.1385
    1AU     AUC    8   2.173   2.900   7.075  0.0428 -0.1049 -0.1349
    1AU     AUC    9   2.300   2.800   6.746  0.0099  0.0345  0.0729
    1AU     AUC   10   2.158   3.091   6.801 -0.0850 -0.0233 -0.0390
    1AU     AUC   11   1.814   3.098   6.687  0.0499  0.0981  0.0104
    1AU     AUC   12   2.135   2.572   6.915  0.0609 -0.0612  0.0406
    1AU     AUC   13   1.807   2.545   6.784 -0.0795  0.0158  0.0561
    1AU     AUC   14   2.136   2.385   6.347  0.0168  0.0017  0.0305
    1AU     AUC   15   2.206   2.707   6.243 -0.0788  0.1085  0.0639
    1AU     AUC   16   2.210   3.106   6.229 -0.0179  0.0288 -0.0418
    1AU     AUC   17   1.788   2.651   7.404 -0.0219  0.0172 -0.0153
    1AU     AUC   18   1.734   3.016   7.348  0.0555  0.0188 -0.0271
    1AU     AUC   19   1.725   3.352   7.220  0.0244  0.0339  0.0011
    1AU     AUC   20   1.308   2.852   6.914  0.0398 -0.0019  0.0231
    1AU     AUC   21   1.414   2.761   6.587 -0.0217  0.0601  0.0660
    1AU     AUC   22   1.560   2.743   6.295 -0.0090  0.0137  0.0084
    1AU     AUC   23   2.359   2.951   7.335  0.0680  0.0135  0.0519
    1AU     AUC   24   2.536   2.843   7.047 -0.0657  0.0199  0.0920
    1AU     AUC   25   2.655   2.767   6.688  0.0454  0.0523  0.0053
    1AU     AUC   26   2.327   3.398   6.809  0.0495 -0.0147 -0.0114
    1AU     AUC   27   1.983   3.429   6.655 -0.0128  0.0055 -0.0644
    1AU     AUC   28   1.656   3.372   6.555  0.0090  0.0170 -0.0456
    1AU     AUC   29   2.282   2.325   7.026  0.0687 -0.0490  0.0587
    1AU     AUC   30   1.951   2.249   6.915 -0.0454 -0.0448 -0.0151
    1AU     AUC   31   1.644   2.259   6.819  0.0176  0.0645  0.0411
    1AU     AUC   32   2.287   3.266   6.524  0.0539 -0.0123  0.0708
    1AU     AUC   33   1.933   3.254   6.365 -0.1172 -0.0288 -0.0324
    1AU     AUC   34   2.181   2.271   6.639  0.0528 -0.0791  0.0236
    1AU     AUC   35   1.880   2.269   6.529 -0.0058  0.0092 -0.0115
    1AU     AUC   36   2.005   3.387   7.009  0.0408 -0.0700 -0.0638
    1AU     AUC   37   1.635   3.384   6.868 -0.0429 -0.0290 -0.0959
    1AU     AUC   38   2.015   2.479   7.225 -0.0071  0.2187  0.0616
    1AU     AUC   39   1.709   2.442   7.154  0.0229 -0.0272  0.0311
    1AU     AUC   40   1.877   2.562   6.267  0.0693  0.0044 -0.0263
    1AU     AUC   41   1.881   2.907   6.239 -0.0423  0.0022 -0.0267
    1AU     AUC   42   1.532   2.776   7.170 -0.0698  0.0924  0.0373
    1AU     AUC   43   1.478   3.114   7.063 -0.0681  0.0092  0.0371
    1AU     AUC   44   2.411   2.568   6.502 -0.0666 -0.0373  0.0172
    1AU     AUC   45   2.484   2.925   6.464 -0.0252 -0.0015  0.0113
    1AU     AUC   46   2.092   2.836   7.429  0.0298 -0.0632 -0.0441
    1AU     AUC   47   2.056   3.186   7.256 -0.0313  0.0299  0.0273
    1AU     AUC   48   1.422   3.096   6.717  0.0406  0.0300 -0.0220
    1AU     AUC   49   1.589   3.054   6.411 -0.0201 -0.0177 -0.0204
    1AU     AUC   50   2.374   3.188   7.062  0.1103 -0.0395 -0.0100
    1AU     AUC   51   2.508   3.088   6.787  0.0169 -0.0465 -0.0023
    1AU     AUC   52   1.476   2.571   6.891 -0.0092  0.0698 -0.0084
    1AU     AUC   53   1.591   2.474   6.503  0.0668  0.0439 -0.0836
    1AU     AUC   54   2.342   2.589   7.211  0.0056  0.0010  0.0607
    1AU     AUC   55   2.479   2.501   6.812 -0.1013 -0.0208 -0.1056
    1AU    AUSL   56   2.269   3.443   6.231  0.0455  0.0195 -0.0040
    1AU    AUSL   57   2.554   3.440   6.591  0.0302  0.0890  0.0784
    1AU     AUL   58   2.609   3.549   6.247 -0.0631 -0.0930 -0.0319
    1AU       S   59   3.011   3.431   6.386  0.1783  0.1107  0.2417
    1AU     LIG   60   3.432   3.406   6.524  0.0328  0.3613  0.2207
    1AU     LIG   61   3.742   3.578   6.772 -0.1254  0.0607 -0.3280
    1AU     LIG   62   4.043   3.910   6.869  0.0303 -0.0028 -0.2455
    1AU     LIG   63   4.351   4.141   6.793 -0.0760  0.0653  0.1307
    1AU     LIG   64   4.515   4.362   6.535 -0.1477  0.2408  0.5197
    1AU       S   65   2.379   3.947   6.177 -0.1448 -0.3723  0.2854
    1AU     LIG   66   2.718   4.171   6.191 -0.1571 -0.4275 -0.1758
    1AU     LIG   67   3.110   4.424   6.267  0.0136 -0.0332 -0.1965
    1AU     LIG   68   3.590   4.507   6.371  0.0872  0.1837  0.2612
    1AU     LIG   69   3.933   4.355   6.636  0.1824  0.0544 -0.0136
    1AU     LIG   70   3.876   4.434   7.012  0.0029 -0.0491 -0.0739
    1AU    AUSL   71   2.234   3.739   6.571  0.0542 -0.1054 -0.1051
    1AU    AUSL   72   1.761   3.789   6.669 -0.1082 -0.0211 -0.0138
    1AU     AUL   73   1.922   3.963   6.424  0.0198  0.0685  0.0419
    1AU       S   74   2.434   3.882   6.570  0.1072 -0.3138 -0.0430
    1AU     LIG   75   2.841   4.060   6.650 -0.1859 -0.1455 -0.0791
    1AU     LIG   76   2.945   4.542   6.785 -0.0921  0.5227  0.5323
    1AU     LIG   77   2.819   4.592   7.244 -0.1058  0.0665 -0.1699
    1AU     LIG   78   2.838   4.985   7.561  0.0970  0.2139  0.2058
    1AU     LIG   79   2.850   5.252   7.850 -0.0153  0.0119  0.2875
    1AU       S   80   1.934   4.090   6.870 -0.0662 -0.1361 -0.0901
    1AU     LIG   81   1.881   4.530   6.812  0.1650  0.2021  0.0262
    1AU     LIG   82   1.965   4.847   6.795 -0.1408 -0.1569  0.0096
    1AU     LIG   83   1.932   5.173   6.874  0.6721  0.0170 -0.1615
    1AU     LIG   84   2.024   5.567   7.108  0.1103 -0.0106  0.4472
    1AU     LIG   85   2.281   5.862   6.907  0.3450  0.0350  0.2211
    1AU    AUSL   86   1.873   3.458   6.422  0.0754  0.0434 -0.0556
    1AU    AUSL   87   1.955   3.280   5.982 -0.0596 -0.0372 -0.0692
    1AU     AUL   88   2.025   3.630   6.133 -0.0942  0.0972  0.0054
    1AU       S   89   1.454   3.842   6.277 -0.0215  0.0507 -0.4799
    1AU     LIG   90   1.071   4.166   6.264 -0.0499 -0.2811  0.2082
    1AU     LIG   91   1.067   4.406   6.604  0.2289  0.1837  0.1140
    1AU     LIG   92   1.431   4.773   6.562  0.0689  0.0509  0.2625
    1AU     LIG   93   1.238   5.139   6.772  0.0148 -0.0120 -0.0007
    1AU     LIG   94   0.991   5.590   6.865  0.2730 -0.0988  0.0639
    1AU       S   95   1.878   3.432   5.694 -0.0406 -0.2362 -0.4243
    1AU     LIG   96   1.888   3.774   5.445  0.0210 -0.2391  0.0062
    1AU     LIG   97   2.068   4.198   5.579  0.0440 -0.2411  0.1666
    1AU     LIG   98   2.028   4.427   5.972 -0.0084 -0.0566 -0.0857
    1AU     LIG   99   1.822   4.650   6.289 -0.0267 -0.2498 -0.0255
    1AU     LIG  100   1.766   5.063   6.343 -0.1665 -0.0051  0.1058
    1AU    AUSL  101   1.991   1.982   6.378 -0.0713 -0.1016  0.0885
    1AU    AUSL  102   1.588   2.135   6.394  0.0436  0.0060  0.0024
    1AU     AUL  103   1.780   1.894   6.113 -0.0199 -0.0690  0.0030
    1AU       S  104   1.777   1.656   6.508 -0.4796 -0.2604  0.2330
    1AU     LIG  105   1.615   1.358   6.324 -0.2226 -0.0819 -0.0933
    1AU     LIG  106   1.430   1.028   6.168  0.1664  0.1851  0.0663
    1AU     LIG  107   1.153   0.576   6.284  0.0688 -0.2358  0.0064
    1AU     LIG  108   0.677   0.454   6.172  0.1362 -0.2434 -0.1278
    1AU     LIG  109   0.338   0.422   6.394 -0.2586 -0.0245  0.1395
    1AU       S  110   1.332   1.886   6.032  0.0184  0.0223 -0.0488
    1AU     LIG  111   1.113   1.460   6.145  0.2716  0.0503 -0.0389
    1AU     LIG  112   0.941   1.049   6.324  0.2288 -0.1992  0.0269
    1AU     LIG  113   0.611   0.779   6.591  0.0100 -0.4033 -0.0106
    1AU     LIG  114   0.398   0.940   6.894 -0.1035 -0.0049  0.2316
    1AU     LIG  115   0.445   1.132   7.324 -0.0785 -0.4427 -0.0255
    1AU    AUSL  116   2.211   1.889   6.760  0.0313  0.0274  0.0186
    1AU    AUSL  117   2.403   2.114   6.400  0.0312 -0.0885  0.0236
    1AU     AUL  118   2.252   1.790   6.427  0.0341  0.0108 -0.0938
    1AU       S  119   2.713   1.887   6.475 -0.1580  0.1110  0.3374
    1AU     LIG  120   2.816   1.634   6.155 -0.0321 -0.1237 -0.1593
    1AU     LIG  121   2.889   1.211   6.174  0.1226  0.1096  0.3712
    1AU     LIG  122   2.878   0.765   6.201 -0.1086  0.1070  0.2749
    1AU     LIG  123   2.992   0.570   6.635 -0.0027  0.3420  0.2422
    1AU     LIG  124   3.368   0.486   6.553  0.0060 -0.1979 -0.1576
    1AU       S  125   1.924   1.544   6.660 -0.0301 -0.2081  0.0954
    1AU     LIG  126   1.910   1.189   6.824  0.1178 -0.0771  0.1766
    1AU     LIG  127   1.739   0.803   6.979 -0.1507  0.0346  0.2924
    1AU     LIG  128   1.498   0.545   7.266  0.0791 -0.3145 -0.1511
    1AU     LIG  129   1.352   0.236   7.584  0.2272 -0.4615 -0.5124
    1AU     LIG  130   1.079   0.214   7.937 -0.1140 -0.1398 -0.0445
    1AU    AUSL  131   1.799   2.048   6.774  0.0423  0.0868 -0.0053
    1AU    AUSL  132   2.105   2.117   7.116 -0.1004 -0.0510  0.0949
    1AU     AUL  133   2.104   1.791   6.983  0.0474  0.0203 -0.1122
    1AU       S  134   1.935   1.630   7.404 -0.0462 -0.4759  0.1106
    1AU     LIG  135   2.163   1.196   7.249 -0.1452  0.1003 -0.0726
    1AU     LIG  136   2.287   0.846   6.977  0.0373  0.2219  0.0195
    1AU     LIG  137   2.777   0.672   7.146  0.0522 -0.2009 -0.0404
    1AU     LIG  138   3.092   0.993   6.855  0.2618 -0.0235  0.0842
    1AU     LIG  139   3.290   0.947   6.483  0.2198  0.0249  0.0760
    1AU       S  140   1.705   1.770   6.723  0.2059 -0.0195  0.0922
    1AU     LIG  141   1.454   1.387   6.855  0.0790 -0.2504  0.1584
    1AU     LIG  142   1.306   0.998   6.621 -0.0322  0.1623  0.2097
    1AU     LIG  143   1.220   0.591   6.765  0.1146  0.0987 -0.0300
    1AU     LIG  144   0.864   0.318   6.657  0.1621 -0.1281 -0.3089
    1AU     LIG  145   0.431   0.022   6.747 -0.3144  0.0382  0.0838
    1AU    AUSL  146   1.706   3.671   7.091  0.0606 -0.0178 -0.0948
    1AU    AUSL  147   1.438   3.507   6.714 -0.0278 -0.0171 -0.0450
    1AU     AUL  148   1.454   3.820   6.778 -0.0576  0.0483 -0.0174
    1AU       S  149   1.698   4.127   7.067 -0.1213  0.0387 -0.0434
    1AU     LIG  150   1.274   4.385   7.072  0.0304  0.1304  0.0827
    1AU     LIG  151   0.993   4.724   6.991  0.3008  0.3145  0.0964
    1AU     LIG  152   0.762   5.162   7.025  0.2343  0.0991 -0.2361
    1AU     LIG  153   0.532   5.578   7.255  0.0076  0.1925 -0.1221
    1AU     LIG  154   0.733   5.885   7.668 -0.6073 -0.2002  0.0745
    1AU       S  155   1.011   3.660   6.935  0.0533  0.3423  0.0233
    1AU     LIG  156   0.808   3.993   6.757  0.1811  0.0726 -0.0722
    1AU     LIG  157   0.340   4.036   6.655  0.1277  0.5362 -0.0565
    1AU     LIG  158  -0.057   4.254   6.594 -0.0489  0.5456  0.2270
    1AU     LIG  159  -0.229   4.707   6.499 -0.0390  0.1095  0.2415
    1AU     LIG  160  -0.285   5.176   6.572  0.1439  0.0955  0.2859
    1AU    AUSL  161   2.066   3.528   6.891  0.0616  0.0105  0.0622
    1AU    AUSL  162   2.035   3.608   7.353 -0.0143 -0.0122 -0.1269
    1AU     AUL  163   1.905   3.796   7.270 -0.0479  0.0323  0.0418
    1AU       S  164   2.288   3.871   7.550  0.3043  0.0635 -0.0894
    1AU     LIG  165   2.260   4.263   7.491 -0.0188  0.1496 -0.3888
    1AU     LIG  166   2.158   4.545   7.270 -0.1654  0.1006 -0.0819
    1AU     LIG  167   2.218   4.958   7.204  0.3695 -0.1498  0.2166
    1AU     LIG  168   2.466   5.277   7.124 -0.6681  0.0979 -0.0505
    1AU     LIG  169   2.508   5.743   7.378  0.0052 -0.4070 -0.0746
    1AU       S  170   2.115   4.035   6.959  0.6379 -0.2213  0.2422
    1AU     LIG  171   2.445   4.334   6.916  0.5732 -0.1616  0.0461
    1AU     LIG  172   2.539   4.813   6.867  0.0349 -0.2258 -0.1886
    1AU     LIG  173   2.810   5.100   6.687  0.0472  0.0988  0.1229
    1AU     LIG  174   2.972   5.269   7.000 -0.0317  0.1771 -0.0564
    1AU     LIG  175   2.896   5.465   7.328 -0.5965 -0.2062 -0.1198
    1AU    AUSL  176   1.860   2.269   7.454  0.0027  0.0474 -0.0782
    1AU    AUSL  177   2.330   2.341   7.428  0.0232 -0.0112  0.0914
    1AU     AUL  178   2.201   2.036   7.413 -0.0354  0.0019 -0.0247
    1AU       S  179   1.871   1.776   7.601  0.1032  0.2667  0.1999
    1AU     LIG  180   1.527   1.501   7.672 -0.1973 -0.0737  0.2347
    1AU     LIG  181   1.159   1.559   7.504  0.0576 -0.3005  0.0960
    1AU     LIG  182   0.875   1.364   7.230 -0.0744  0.0418  0.4326
    1AU     LIG  183   0.898   1.264   6.815  0.1060  0.1601 -0.2159
    1AU     LIG  184   0.614   1.431   6.490 -0.0615 -0.4789 -0.0191
    1AU       S  185   2.344   2.265   7.791 -0.0977  0.0003  0.2289
    1AU     LIG  186   2.565   1.861   7.948  0.4096  0.1214  0.0681
    1AU     LIG  187   2.792   1.666   7.893 -0.1604  0.0046  0.0812
    1AU     LIG  188   2.985   1.333   7.751  0.5350  0.0238  0.0758
    1AU     LIG  189   3.013   1.018   7.470 -0.2546 -0.1800  0.2067
    1AU     LIG  190   3.391   1.174   7.270  0.1319  0.1056  0.1434
    1AU    AUSL  191   1.677   1.973   7.175 -0.0371 -0.0332 -0.0183
    1AU    AUSL  192   1.455   2.436   7.499  0.1089 -0.0018  0.0850
    1AU     AUL  193   1.549   2.128   7.504 -0.0022  0.1550 -0.0628
    1AU       S  194   1.190   2.334   7.727 -0.0751 -0.3759 -0.1438
    1AU     LIG  195   0.809   2.297   7.910 -0.1307 -0.0749  0.0318
    1AU     LIG  196   0.525   2.459   7.596  0.0576 -0.1599  0.0489
    1AU     LIG  197   0.194   2.310   7.475  0.0239  0.0919  0.2438
    1AU     LIG  198  -0.082   2.410   7.199  0.0866  0.1995 -0.0659
    1AU     LIG  199  -0.365   2.945   7.175  0.3759 -0.0580 -0.0723
    1AU       S  200   1.744   1.740   7.275  0.1980  0.2052  0.1769
    1AU     LIG  201   1.652   1.280   7.264  0.0580  0.1678 -0.6679
    1AU     LIG  202   1.278   0.975   7.124 -0.0350  0.2056 -0.3075
    1AU     LIG  203   0.843   0.816   7.069  0.0960 -0.2474 -0.1957
    1AU     LIG  204   0.568   0.465   7.027 -0.0226 -0.3255  0.1291
    1AU     LIG  205   0.078   0.313   7.116  0.0433  0.2141 -0.2632
    1AU    AUSL  206   1.784   2.667   5.872 -0.0052 -0.0047 -0.0376
    1AU    AUSL  207   1.919   2.329   6.144  0.0559  0.0469  0.0070
    1AU     AUL  208   1.808   2.333   5.728 -0.0010  0.0492 -0.0158
    1AU       S  209   1.448   2.158   5.924 -0.0132  0.3134  0.4547
    1AU     LIG  210   1.321   1.766   5.595 -0.0441 -0.0200 -0.2152
    1AU     LIG  211   1.070   1.345   5.623  0.0039 -0.0901 -0.2424
    1AU     LIG  212   0.653   1.333   5.805  0.0527  0.0971  0.2877
    1AU     LIG  213   0.244   1.197   5.763 -0.2080 -0.0447 -0.3593
    1AU     LIG  214  -0.100   0.855   5.802 -0.2200 -0.1378 -0.1416
    1AU       S  215   1.973   2.726   5.540  0.1058 -0.2012 -0.0674
    1AU     LIG  216   1.788   2.693   5.107 -0.3297  0.5137 -0.3122
    1AU     LIG  217   1.444   2.719   4.838  0.1607  0.0690 -0.0621
    1AU     LIG  218   1.011   2.797   4.769  0.1485 -0.0087 -0.2369
    1AU     LIG  219   0.753   2.688   4.384 -0.2379  0.2021 -0.0625
    1AU     LIG  220   0.491   2.598   4.132 -0.1505  0.2772  0.2144
    1AU    AUSL  221   2.218   2.501   5.888 -0.0409  0.0977 -0.0643
    1AU    AUSL  222   2.523   2.820   5.988 -0.0414  0.0106 -0.0339
    1AU     AUL  223   2.524   2.507   5.793 -0.0116 -0.0200 -0.1830
    1AU       S  224   2.200   2.750   5.623  0.0296 -0.2488 -0.1786
    1AU     LIG  225   2.322   2.624   5.202  0.2715 -0.1468  0.0580
    1AU     LIG  226   2.698   2.451   5.180 -0.0972  0.0424  0.1606
    1AU     LIG  227   2.814   2.129   5.298  0.1290 -0.1235 -0.1503
    1AU     LIG  228   3.029   1.751   5.592 -0.2111 -0.5283  0.2329
    1AU     LIG  229   3.197   1.364   5.434 -0.0406 -0.2010 -0.2341
    1AU       S  230   2.933   2.753   5.862  0.3828  0.3895  0.0659
    1AU     LIG  231   3.140   3.125   5.650 -0.1996  0.3375 -0.0946
    1AU     LIG  232   3.163   3.520   5.854  0.3757  0.0989  0.3905
    1AU     LIG  233   3.124   3.857   6.166 -0.1137 -0.0065  0.0219
    1AU     LIG  234   3.414   3.936   6.415 -0.0349  0.1686  0.1418
    1AU     LIG  235   3.424   4.130   6.784  0.2818  0.2191  0.1829
    1AU    AUSL  236   2.108   2.891   6.087  0.0302 -0.0514  0.0480
    1AU    AUSL  237   1.649   2.989   6.146 -0.0445  0.0210  0.0593
    1AU     AUL  238   1.735   3.022   5.844 -0.0226 -0.0742  0.0582
    1AU       S  239   1.547   3.411   5.700  0.2289 -0.2973  0.0358
    1AU     LIG  240   1.156   3.276   5.442 -0.4429  0.4096 -0.0898
    1AU     LIG  241   1.070   2.944   5.223  0.2140 -0.0744 -0.3604
    1AU     LIG  242   1.161   2.433   5.134 -0.1982  0.0672  0.0597
    1AU     LIG  243   0.972   2.001   5.201  0.0918  0.0528 -0.2402
    1AU     LIG  244   0.982   1.548   5.224 -0.0461  0.3805  0.4938
    1AU       S  245   2.205   2.990   5.713  0.0688  0.3589  0.2894
    1AU     LIG  246   2.096   3.143   5.304 -0.1201 -0.2805 -0.1175
    1AU     LIG  247   2.131   2.876   4.837  0.1228 -0.0199  0.3378
    1AU     LIG  248   2.425   2.795   4.467  0.0368  0.1721  0.3366
    1AU     LIG  249   2.256   2.852   4.056  0.1556 -0.2888 -0.3653
    1AU     LIG  250   2.053   3.115   3.713 -0.4167  0.3202  0.2143
    1AU    AUSL  251   1.239   2.973   7.181  0.0547 -0.0812 -0.0142
    1AU    AUSL  252   1.402   3.378   7.141 -0.0617  0.0238  0.0583
    1AU     AUL  253   1.035   3.224   7.320 -0.0420  0.1107  0.0603
    1AU       S  254   1.210   3.633   7.140 -0.0995  0.1275  0.0430
    1AU     LIG  255   0.974   3.917   7.388  0.0305  0.0954 -0.2523
    1AU     LIG  256   0.678   4.190   7.210  0.0007  0.1467  0.0706
    1AU     LIG  257   0.455   4.490   6.850  0.2669 -0.0898 -0.0638
    1AU     LIG  258   0.488   4.857   6.630  0.2564  0.1008 -0.0054
    1AU     LIG  259   0.194   5.014   6.379  0.1297 -0.0593 -0.3758
    1AU       S  260   0.833   2.862   7.047 -0.0441  0.0191 -0.3789
    1AU     LIG  261   0.474   3.092   7.028 -0.3127  0.0370  0.3103
    1AU     LIG  262   0.014   3.163   6.857 -0.0605  0.0917  0.0037
    1AU     LIG  263  -0.338   3.323   6.560 -0.1162  0.1041 -0.1222
    1AU     LIG  264  -0.632   3.299   6.274  0.3943  0.1123 -0.3409
    1AU     LIG  265  -0.735   3.172   5.792  0.0851  0.0742  0.0009
    1AU    AUSL  266   1.601   2.818   7.397  0.0685 -0.1446  0.0902
    1AU    AUSL  267   1.126   2.551   7.205  0.1003 -0.0214  0.0637
    1AU     AUL  268   1.186   2.743   7.455 -0.1373  0.0389  0.0065
    1AU       S  269   1.663   2.491   7.877 -0.0379  0.2033  0.0594
    1AU     LIG  270   1.842   2.083   8.095 -0.1518 -0.0727  0.0627
    1AU     LIG  271   2.107   1.709   8.006  0.1915  0.2265  0.2598
    1AU     LIG  272   2.002   1.245   7.840 -0.1033  0.2614 -0.0526
    1AU     LIG  273   2.105   0.897   8.090  0.2797  0.3767  0.4498
    1AU     LIG  274   2.455   0.635   8.171 -0.2375  0.3824 -0.1754
    1AU       S  275   0.884   2.379   7.323 -0.2558 -0.0880  0.2677
    1AU     LIG  276   0.556   2.119   7.221 -0.0649  0.2470  0.2261
    1AU     LIG  277   0.206   1.992   7.090 -0.2020  0.0572 -0.0361
    1AU     LIG  278  -0.064   2.130   6.790  0.1580  0.0712 -0.3872
    1AU     LIG  279  -0.236   2.421   6.472 -0.2404 -0.0151 -0.0393
    1AU     LIG  280  -0.630   2.325   6.363  0.3148  0.3569  0.0205
    1AU    AUSL  281   1.442   3.202   7.532 -0.1444  0.0538 -0.0257
    1AU    AUSL  282   1.769   2.956   7.765  0.1058  0.0236  0.0215
    1AU     AUL  283   1.436   2.921   7.772 -0.0314  0.0461 -0.0717
    1AU       S  284   1.784   3.248   7.938 -0.2019  0.0132  0.2142
    1AU     LIG  285   1.491   3.532   8.114 -0.1266  0.0505 -0.2906
    1AU     LIG  286   1.467   3.970   8.209 -0.1204 -0.0723  0.0294
    1AU     LIG  287   1.073   4.138   8.283 -0.2178  0.2362 -0.0973
    1AU     LIG  288   0.776   4.343   8.117  0.0110  0.0544  0.0687
    1AU     LIG  289   0.524   4.416   7.661 -0.1502  0.2110 -0.0987
    1AU       S  290   1.376   3.401   7.639 -0.0934 -0.0900  0.0633
    1AU     LIG  291   1.146   3.828   7.846 -0.0811 -0.0860  0.1318
    1AU     LIG  292   1.053   4.220   7.715 -0.4027 -0.2817 -0.1996
    1AU     LIG  293   1.026   4.589   7.481 -0.1778  0.0843  0.1523
    1AU     LIG  294   1.171   5.067   7.351  0.2496 -0.2887 -0.2791
    1AU     LIG  295   1.057   5.537   7.337 -0.0419  0.0037 -0.1849
    1AU    AUSL  296   2.745   2.732   6.357  0.0191  0.0145 -0.0223
    1AU    AUSL  297   2.496   3.107   6.314 -0.0064 -0.0294 -0.0605
    1AU     AUL  298   2.639   3.063   6.015  0.0857 -0.0618  0.1001
    1AU       S  299   2.945   2.686   6.249 -0.0025  0.3131 -0.0114
    1AU     LIG  300   3.388   2.391   6.274  0.4540 -0.1843  0.0924
    1AU     LIG  301   3.847   2.341   6.243  0.5234  0.0090  0.3998
    1AU     LIG  302   4.199   2.306   6.347  0.0551 -0.0570  0.2195
    1AU     LIG  303   4.616   2.539   6.411  0.0958 -0.3169  0.0848
    1AU     LIG  304   4.964   2.325   6.245 -0.2510 -0.4493  0.1747
    1AU       S  305   2.994   3.194   6.208 -0.0410 -0.3825 -0.0449
    1AU     LIG  306   3.355   3.132   6.105 -0.3422 -0.0230 -0.3102
    1AU     LIG  307   3.625   3.524   6.103 -0.3146 -0.0072  0.2288
    1AU     LIG  308   3.870   3.835   6.366 -0.0479 -0.0785 -0.0718
    1AU     LIG  309   4.205   4.097   6.203  0.0193 -0.0225 -0.0103
    1AU     LIG  310   4.626   4.336   6.068  0.0987  0.0502  0.1127
    1AU    AUSL  311   2.372   2.532   6.286  0.0115 -0.0043 -0.0193
    1AU    AUSL  312   2.760   2.335   6.534  0.0190 -0.0124  0.0510
    1AU     AUL  313   2.628   2.321   6.203 -0.0214  0.0408 -0.0224
    1AU       S  314   2.972   2.504   5.956  0.2138 -0.1693 -0.1932
    1AU     LIG  315   3.371   2.662   5.875 -0.0824 -0.0063 -0.1761
    1AU     LIG  316   3.798   2.833   6.065 -0.2475  0.0769 -0.0094
    1AU     LIG  317   4.201   2.828   6.296 -0.3006 -0.0445  0.2732
    1AU     LIG  318   4.470   2.982   6.595 -0.1027 -0.1686 -0.3073
    1AU     LIG  319   4.743   3.197   6.766  0.3435 -0.0870  0.0664
    1AU       S  320   2.904   2.006   6.475 -0.2748 -0.0767 -0.0261
    1AU     LIG  321   3.302   1.952   6.455 -0.0334 -0.1585 -0.0159
    1AU     LIG  322   3.728   1.771   6.361  0.4066  0.0315 -0.3214
    1AU     LIG  323   3.845   1.342   6.505  0.1691 -0.1694 -0.0989
    1AU     LIG  324   4.143   1.112   6.741 -0.0454 -0.0167  0.0870
    1AU     LIG  325   4.479   0.806   6.753  0.0413 -0.1740 -0.1333
    1AU    AUSL  326   2.188   3.077   7.660  0.0696 -0.1137  0.0457
    1AU    AUSL  327   2.001   2.656   7.553 -0.0558 -0.0679  0.0227
    1AU     AUL  328   2.019   2.854   7.903 -0.0015 -0.0385  0.0532
    1AU       S  329   2.145   2.394   7.849  0.3289  0.0880 -0.2081
    1AU     LIG  330   2.272   2.313   8.308 -0.3078 -0.3071  0.0331
    1AU     LIG  331   2.308   1.871   8.429  0.0754  0.3227  0.1879
    1AU     LIG  332   2.707   1.535   8.424 -0.0194 -0.1616 -0.1736
    1AU     LIG  333   3.128   1.408   8.228  0.0562 -0.1639 -0.3829
    1AU     LIG  334   3.447   1.008   8.400 -0.0694 -0.2925 -0.5950
    1AU       S  335   1.948   3.351   7.935 -0.1028  0.1814 -0.0421
    1AU     LIG  336   1.942   3.413   8.350  0.0972  0.1153  0.2802
    1AU     LIG  337   1.706   3.633   8.596  0.2186  0.2651  0.0266
    1AU     LIG  338   1.730   3.890   8.902 -0.0035 -0.1421 -0.0465
    1AU     LIG  339   1.554   4.055   9.273 -0.2154  0.0445  0.1069
    1AU     LIG  340   1.303   4.315   9.177  0.0277  0.1333 -0.2772
    1AU    AUSL  341   1.850   3.228   7.413  0.0274 -0.0101  0.0774
    1AU    AUSL  342   2.315   3.283   7.318 -0.0155 -0.0072  0.0291
    1AU     AUL  343   2.254   3.388   7.598  0.0011 -0.0324  0.0673
    1AU       S  344   2.499   3.806   7.539  0.0034  0.4367 -0.2096
    1AU     LIG  345   2.723   4.261   7.672 -0.1376 -0.0282  0.2319
    1AU     LIG  346   3.077   4.560   7.651 -0.1378 -0.2672  0.0172
    1AU     LIG  347   3.253   4.864   7.292  0.1274 -0.0037 -0.1865
    1AU     LIG  348   3.407   4.773   6.821 -0.2071  0.3427  0.0020
    1AU     LIG  349   3.761   5.002   6.689  0.2733  0.1715 -0.0593
    1AU       S  350   1.823   3.462   7.765  0.0250 -0.2229  0.0046
    1AU     LIG  351   1.890   3.902   7.893  0.2599  0.0552 -0.0240
    1AU     LIG  352   1.931   4.417   7.903 -0.1685 -0.1332 -0.1423
    1AU     LIG  353   1.832   4.822   7.577 -0.0290 -0.2308 -0.0606
    1AU     LIG  354   1.717   5.063   7.306  0.0760 -0.0736  0.1718
    1AU     LIG  355   1.539   4.829   7.049 -0.0110  0.1834 -0.3793
    1AU    AUSL  356   1.337   3.193   6.443 -0.0229  0.0292 -0.0576
    1AU    AUSL  357   1.146   3.199   6.840  0.0935  0.0884 -0.0452
    1AU     AUL  358   1.185   3.502   6.509  0.0935 -0.0085 -0.0876
    1AU       S  359   0.891   3.382   6.877  0.1438  0.2905  0.2141
    1AU     LIG  360   0.468   3.651   6.954 -0.2316 -0.2413 -0.2396
    1AU     LIG  361   0.191   3.927   7.143  0.1480  0.2121 -0.0593
    1AU     LIG  362   0.024   4.288   7.157 -0.0039  0.1408 -0.2460
    1AU     LIG  363   0.263   4.693   7.295  0.1549 -0.0384  0.0054
    1AU     LIG  364   0.620   4.887   7.400  0.4360 -0.2052 -0.3899
    1AU       S  365   0.884   3.197   6.285 -0.0408 -0.0902  0.2021
    1AU     LIG  366   0.494   3.425   6.451  0.1190 -0.0281  0.1989
    1AU     LIG  367   0.094   3.614   6.472 -0.2403  0.1458 -0.1796
    1AU     LIG  368  -0.119   3.721   6.795  0.0856  0.0639  0.2673
    1AU     LIG  369  -0.372   4.004   7.044 -0.0863 -0.0650 -0.0476
    1AU     LIG  370  -0.698   4.351   7.098  0.0796  0.0872  0.0712
    1AU    AUSL  371   1.035   2.877   6.585  0.0821 -0.0509  0.0464
    1AU    AUSL  372   1.180   2.481   6.408 -0.0308 -0.0056 -0.0385
    1AU     AUL  373   0.868   2.623   6.347 -0.0130  0.0436 -0.0541
    1AU       S  374   0.832   3.089   6.515 -0.2099  0.2701  0.2951
    1AU     LIG  375   0.418   2.974   6.596 -0.3767  0.2656  0.3699
    1AU     LIG  376   0.102   2.636   6.770  0.0371 -0.2179  0.1381
    1AU     LIG  377  -0.439   2.805   6.695 -0.3918  0.1140  0.0199
    1AU     LIG  378  -0.798   3.121   6.730  0.1830  0.0259 -0.1475
    1AU     LIG  379  -1.040   3.346   6.849 -0.1012  0.3810 -0.0263
    1AU       S  380   0.875   2.270   6.635  0.1288 -0.2519 -0.3689
    1AU     LIG  381   0.396   2.239   6.654  0.4821  0.0493 -0.1373
    1AU     LIG  382   0.303   1.839   6.570 -0.1668  0.1153  0.0862
    1AU     LIG  383  -0.118   1.697   6.495 -0.0731  0.0873 -0.3207
    1AU     LIG  384  -0.408   1.932   6.177  0.0884 -0.0033  0.1023
    1AU     LIG  385  -0.258   1.943   5.686  0.2923  0.4487  0.3817
    1AU    AUSL  386   1.239   2.865   6.168  0.0197  0.0507 -0.0121
    1AU    AUSL  387   1.559   3.412   6.147  0.0091 -0.0427  0.0113
    1AU     AUL  388   1.316   3.218   6.062  0.0492 -0.1087 -0.0683
    1AU       S  389   1.615   3.600   5.874  0.4027 -0.1439 -0.1592
    1AU     LIG  390   1.294   3.886   5.852  0.0192  0.1716  0.0419
    1AU     LIG  391   0.980   4.211   5.760  0.4259  0.0628  0.1013
    1AU     LIG  392   0.661   4.445   5.528  0.0076 -0.2342  0.2590
    1AU     LIG  393   0.332   4.481   5.267  0.1603 -0.0394  0.1128
    1AU     LIG  394   0.174   4.404   4.808 -0.0114 -0.0685 -0.4668
    1AU       S  395   0.906   3.023   6.082 -0.0827  0.1970 -0.0628
    1AU     LIG  396   0.452   3.041   6.091 -0.0094  0.1632  0.0896
    1AU     LIG  397   0.280   2.539   6.286 -0.0789  0.3220 -0.1029
    1AU     LIG  398   0.367   2.086   6.163  0.1047  0.2661 -0.1349
    1AU     LIG  399   0.563   1.787   6.014 -0.2553  0.2159 -0.0432
    1AU     LIG  400   0.779   1.771   5.629  0.3168  0.3888  0.2826
    1AU    AUSL  401   2.635   3.296   6.995  0.0477  0.0713 -0.0030
    1AU    AUSL  402   2.765   3.057   6.641  0.0235  0.0534  0.0288
    1AU     AUL  403   2.825   3.456   6.813  0.0002 -0.1997  0.0542
    1AU       S  404   3.098   3.406   7.163  0.1442  0.0503 -0.2501
    1AU     LIG  405   3.334   3.670   7.007 -0.2052  0.0360  0.1329
    1AU     LIG  406   3.687   3.992   7.173  0.1061 -0.1644 -0.0225
    1AU     LIG  407   4.089   4.078   7.427  0.0660 -0.2248  0.1940
    1AU     LIG  408   4.498   4.260   7.500 -0.1900  0.1115 -0.0984
    1AU     LIG  409   4.784   4.565   7.518 -0.2355 -0.0625  0.2312
    1AU       S  410   2.987   3.145   6.525  0.3731  0.0703  0.5790
    1AU     LIG  411   3.403   2.892   6.700 -0.4484 -0.1203 -0.0207
    1AU     LIG  412   3.754   2.812   6.683 -0.1820 -0.0011  0.3288
    1AU     LIG  413   4.136   2.705   6.743 -0.0059  0.1905 -0.2840
    1AU     LIG  414   4.462   2.495   7.004  0.3164  0.0279 -0.3863
    1AU     LIG  415   4.463   2.350   7.512 -0.1105 -0.1432  0.1060
    1AU    AUSL  416   2.689   3.110   7.393 -0.0907 -0.1001 -0.0696
    1AU    AUSL  417   2.414   3.666   7.075 -0.0265 -0.0410  0.0199
    1AU     AUL  418   2.644   3.466   7.280  0.0342 -0.0102  0.0327
    1AU       S  419   3.071   3.313   7.373  0.0912  0.1792 -0.1397
    1AU     LIG  420   3.551   3.459   7.427  0.0484 -0.0179  0.0156
    1AU     LIG  421   4.039   3.584   7.300  0.0705  0.0359  0.0506
    1AU     LIG  422   4.471   3.828   7.223 -0.4318  0.3762  0.2900
    1AU     LIG  423   4.735   4.176   7.097 -0.0543 -0.0931  0.2698
    1AU     LIG  424   4.675   4.516   6.972 -0.0270 -0.0477  0.0597
    1AU       S  425   2.468   3.898   7.229  0.1826  0.1654 -0.1307
    1AU     LIG  426   2.866   4.113   7.195 -0.0734  0.1320  0.0602
    1AU     LIG  427   3.279   4.353   7.227 -0.0106  0.2060  0.2326
    1AU     LIG  428   3.695   4.705   7.353  0.3808  0.1067 -0.1207
    1AU     LIG  429   3.952   5.080   7.168  0.1059 -0.0402 -0.1804
    1AU     LIG  430   4.023   5.371   6.889 -0.0656  0.2170  0.0683
    1AU    AUSL  431   2.924   2.968   7.029  0.0588 -0.1290 -0.0943
    1AU    AUSL  432   2.568   2.721   7.226  0.0077 -0.0366 -0.0235
    1AU     AUL  433   2.886   2.847   7.381  0.0694  0.0880  0.0051
    1AU       S  434   3.133   2.575   7.109  0.0409  0.1744  0.1690
    1AU     LIG  435   3.557   2.701   7.126  0.0905 -0.2019  0.1807
    1AU     LIG  436   3.880   2.386   7.020  0.1579  0.0104  0.0195
    1AU     LIG  437   4.065   2.071   6.752  0.4687 -0.1515 -0.0189
    1AU     LIG  438   4.103   1.688   6.816  0.1186 -0.1925  0.0316
    1AU     LIG  439   3.839   1.413   7.007 -0.2598 -0.4160 -0.5821
    1AU       S  440   3.147   3.197   7.103 -0.0324 -0.1506  0.3490
    1AU     LIG  441   3.608   3.184   7.049 -0.3641 -0.1095  0.1440
    1AU     LIG  442   4.038   3.137   6.993  0.3016  0.0518 -0.2043
    1AU     LIG  443   4.328   3.437   6.874  0.2224 -0.3836 -0.1711
    1AU     LIG  444   4.392   3.656   6.520  0.0424 -0.1028  0.0310
    1AU     LIG  445   4.695   3.865   6.313  0.2864 -0.1992 -0.0392
    1AU    AUSL  446   1.324   2.185   6.726 -0.1055  0.0327 -0.0546
    1AU    AUSL  447   1.533   2.507   6.174 -0.0547 -0.0312 -0.0760
    1AU     AUL  448   1.287   2.185   6.371  0.0316 -0.1215 -0.0694
    1AU       S  449   0.965   2.134   6.719 -0.0203 -0.0397 -0.2030
    1AU     LIG  450   0.688   1.819   6.902  0.0580 -0.0791  0.1813
    1AU     LIG  451   0.438   1.444   6.973  0.3281 -0.0554 -0.1188
    1AU     LIG  452   0.006   1.290   6.893  0.4006  0.2127 -0.2903
    1AU     LIG  453  -0.322   1.086   7.180  0.0052 -0.3043  0.2000
    1AU     LIG  454  -0.402   0.898   7.549 -0.0712  0.1050 -0.2983
    1AU       S  455   1.361   2.350   5.967 -0.0356  0.3025  0.2037
    1AU     LIG  456   1.022   2.374   5.734  0.0134 -0.2262  0.0647
    1AU     LIG  457   0.826   2.780   5.607  0.1162  0.0516 -0.0162
    1AU     LIG  458   0.742   3.209   5.658  0.0846 -0.0020 -0.0363
    1AU     LIG  459   0.798   3.652   5.969  0.2206  0.2041  0.2022
    1AU     LIG  460   0.682   3.872   6.332 -0.4211  0.0232  0.4562
    1AU    AUSL  461   1.287   2.630   6.813  0.0198 -0.0199  0.0838
    1AU    AUSL  462   1.520   2.342   7.078 -0.0446  0.0900 -0.0551
    1AU     AUL  463   1.226   2.251   7.095  0.0632  0.0224  0.0587
    1AU       S  464   0.925   2.443   6.784 -0.1648 -0.1171 -0.0445
    1AU     LIG  465   0.461   2.585   7.081  0.2055  0.0844  0.1372
    1AU     LIG  466   0.146   2.815   7.343  0.2568  0.0016  0.3365
    1AU     LIG  467   0.103   3.331   7.293 -0.1112  0.2003  0.1055
    1AU     LIG  468  -0.256   3.590   7.304 -0.0988 -0.0069  0.1957
    1AU     LIG  469  -0.590   3.388   7.115 -0.1634 -0.0645  0.0335
    1AU       S  470   1.078   2.207   7.525 -0.1617  0.0675 -0.0233
    1AU     LIG  471   0.751   1.853   7.578 -0.3431  0.2477 -0.2561
    1AU     LIG  472   0.347   1.611   7.462 -0.2923  0.0380 -0.5462
    1AU     LIG  473  -0.003   1.576   7.332 -0.3237  0.2754 -0.0087
    1AU     LIG  474  -0.323   1.716   6.985 -0.0112 -0.5075 -0.2986
    1AU     LIG  475  -0.592   1.969   6.716 -0.2380  0.4205  0.0325
    1AU    AUSL  476   2.666   2.303   7.166  0.0643 -0.0683 -0.0648
    1AU    AUSL  477   2.442   2.718   7.638  0.0841  0.0211 -0.0228
    1AU     AUL  478   2.678   2.444   7.499 -0.0632  0.0105  0.0443
    1AU       S  479   2.415   2.566   7.862  0.2514  0.3410 -0.0957
    1AU     LIG  480   2.578   2.687   8.234  0.2652  0.1230 -0.0122
    1AU     LIG  481   2.801   3.087   8.390  0.0268  0.0654 -0.1593
    1AU     LIG  482   3.073   3.428   8.189 -0.0602  0.1324  0.0732
    1AU     LIG  483   3.257   3.608   7.828  0.1156  0.3143  0.1581
    1AU     LIG  484   3.262   3.883   7.449  0.0224 -0.0678 -0.3108
    1AU       S  485   3.097   2.420   7.203  0.2556  0.1599 -0.1153
    1AU     LIG  486   3.457   2.190   7.294  0.0729 -0.2771  0.0288
    1AU     LIG  487   3.853   1.921   7.245  0.2911  0.5157 -0.0183
    1AU     LIG  488   4.251   1.981   7.211  0.3683 -0.0244  0.0058
    1AU     LIG  489   4.467   1.575   7.213 -0.1826 -0.2880 -0.2643
    1AU     LIG  490   4.383   1.230   7.233 -0.2729  0.0745 -0.2360
    1AU    AUSL  491   2.746   2.622   6.850  0.0085 -0.0929  0.0536
    1AU    AUSL  492   2.441   2.235   6.820  0.0360 -0.0582 -0.0109
    1AU     AUL  493   2.798   2.166   6.901  0.0088  0.0829  0.0284
    1AU       S  494   3.065   2.557   6.897 -0.0756  0.3729  0.1085
    1AU     LIG  495   3.424   2.359   6.747 -0.2125  0.3305  0.0590
    1AU     LIG  496   3.513   1.922   6.875 -0.1489 -0.1979 -0.3716
    1AU     LIG  497   3.351   1.638   7.167 -0.0516 -0.1866  0.1659
    1AU     LIG  498   3.013   1.430   7.099  0.0301  0.1621 -0.1639
    1AU     LIG  499   2.686   1.236   7.133  0.2290  0.4322 -0.0961
    1AU       S  500   2.665   1.788   6.683 -0.0178  0.2703  0.2179
    1AU     LIG  501   2.797   1.408   6.602 -0.2318 -0.1164  0.1995
    1AU     LIG  502   2.647   0.966   6.679  0.1214  0.2079 -0.1641
    1AU     LIG  503   2.473   0.511   6.616 -0.2880  0.1431 -0.2917
    1AU     LIG  504   2.237   0.258   6.341 -0.1605  0.0630  0.0321
    1AU     LIG  505   2.156   0.088   5.860 -0.1647 -0.1916  0.0303
    2POPC   NC3  506   3.538   2.019   9.374 -0.1793  0.0076  0.0723
    2POPC   PO4  507   4.029   2.139   9.389  0.1672  0.0822  0.1765
    2POPC   GL1  508   3.850   2.295   8.990 -0.1311 -0.1652 -0.0985
    2POPC   GL2  509   3.958   2.072   8.781 -0.0560 -0.2557 -0.0868
    2POPC   C1A  510   3.682   2.616   8.967  0.0442 -0.0757  0.3506
    2POPC   D2A  511   3.703   3.002   8.879  0.1569  0.1024  0.0493
    2POPC   C3A  512   3.835   3.152   8.425  0.1985 -0.2632  0.3791
    2POPC   C4A  513   3.715   3.380   8.002 -0.4031 -0.2533  0.0083
    2POPC   C1B  514   3.853   2.378   8.502  0.0455  0.1378  0.3015
    2POPC   C2B  515   3.588   2.734   8.395  0.0085 -0.2157 -0.1363
    2POPC   C3B  516   3.388   2.915   8.024 -0.1280  0.1203  0.1188
    2POPC   C4B  517   3.491   2.903   7.579 -0.0883  0.6398  0.0601
    3POPC   NC3  518  10.079   0.805   9.243  0.0932  0.0199 -0.1781
    3POPC   PO4  519   9.676   0.814   9.279 -0.1457  0.3379 -0.1224
    3POPC   GL1  520   9.768   1.037   8.874 -0.1518 -0.2542  0.2019
    3POPC   GL2  521  10.110   1.172   8.895 -0.2930 -0.0264  0.0720
    3POPC   C1A  522   9.776   1.427   8.516  0.3696  0.0190  0.1964
    3POPC   D2A  523   9.910   1.614   8.173  0.0482 -0.1621 -0.6410
    3POPC   C3A  524  10.085   1.495   7.707  0.1034 -0.3073  0.0666
    3POPC   C4A  525   9.871   1.725   7.425 -0.0960 -0.0117  0.2817
    3POPC   C1B  526  10.175   1.033   8.555  0.1172 -0.0614  0.1112
    3POPC   C2B  527  10.455   0.718   8.336  0.3541  0.1114 -0.1517
    3POPC   C3B  528  10.773   0.809   8.073  0.2000 -0.4156  0.1741
    3POPC   C4B  529  11.086   0.971   8.282 -0.3974  0.1991  0.2289
    4POPC   NC3  530   4.758   9.402   9.148 -0.0263  0.0224 -0.1559
    4POPC   PO4  531   4.608   9.787   8.884 -0.5191 -0.0997  0.0394
    4POPC   GL1  532   4.507  10.019   8.420 -0.1117  0.2047 -0.1094
    4POPC   GL2  533   4.291  10.279   8.516 -0.0171 -0.2359  0.2067
    4POPC   C1A  534   4.294   9.859   8.036 -0.0723  0.1132  0.1356
    4POPC   D2A  535   4.216   9.742   7.579  0.0392 -0.0683 -0.1630
    4POPC   C3A  536   4.480   9.649   7.225 -0.1896  0.0298  0.1486
    4POPC   C4A  537   4.511   9.804   6.815 -0.1161  0.5054  0.2359
    4POPC   C1B  538   3.994  10.374   8.190  0.1469 -0.1606 -0.0792
    4POPC   C2B  539   3.709  10.533   7.886  0.2541  0.1241  0.2075
    4POPC   C3B  540   3.347  10.582   7.541  0.1649  0.0684 -0.0212
    4POPC   C4B  541   3.157  10.691   7.149  0.1422 -0.1848  0.0886
    5POPC   NC3  542   7.451   8.413   9.195  0.1799 -0.1237  0.1606
    5POPC   PO4  543   7.894   8.617   9.260  0.1481 -0.1293  0.1503
    5POPC   GL1  544   7.979   8.521   8.919 -0.0372  0.1033 -0.1915
    5POPC   GL2  545   7.734   8.423   8.783  0.2558 -0.1398  0.1184
    5POPC   C1A  546   8.271   8.732   8.686 -0.2042 -0.3011  0.1610
    5POPC   D2A  547   8.614   8.812   8.439  0.1332  0.1159  0.1761
    5POPC   C3A  548   8.633   8.715   7.998  0.0031 -0.2060 -0.1644
    5POPC   C4A  549   8.368   8.859   7.663  0.3112  0.2018 -0.2361
    5POPC   C1B  550   7.648   8.581   8.332 -0.1969  0.2094 -0.0116
    5POPC   C2B  551   7.361   8.902   8.181  0.0898  0.0985  0.1031
    5POPC   C3B  552   7.101   8.907   7.895 -0.2978  0.0352  0.1723
    5POPC   C4B  553   6.864   8.853   7.552 -0.2266 -0.2329  0.1888
    6POPC   NC3  554   8.896   1.942   8.643 -0.0573  0.2137 -0.1149
    6POPC   PO4  555   8.548   2.136   8.432 -0.2106  0.2456  0.1778
    6POPC   GL1  556   8.744   1.962   8.142 -0.1543 -0.0290  0.3320
    6POPC   GL2  557   8.924   2.238   8.029  0.1060  0.0588 -0.0265
    6POPC   C1A  558   8.967   1.717   7.962 -0.2442  0.2138 -0.0973
    6POPC   D2A  559   9.074   1.308   7.803 -0.0063 -0.1217 -0.1343
    6POPC   C3A  560   8.767   1.114   7.451  0.2237 -0.1654  0.2317
    6POPC   C4A  561   8.474   1.367   7.124  0.1318  0.3027  0.1949
    6POPC   C1B  562   9.024   2.087   7.555 -0.3209 -0.0030 -0.2626
    6POPC   C2B  563   9.353   1.980   7.177  0.0937 -0.2089  0.0556
    6POPC   C3B  564   9.544   1.608   7.027  0.2233 -0.0329  0.1703
    6POPC   C4B  565   9.406   1.204   6.885  0.2278 -0.1028 -0.1631
    7POPC   NC3  566   2.227   9.413   8.536  0.0708 -0.1458 -0.2545
    7POPC   PO4  567   2.498   9.317   8.342 -0.2063  0.2018 -0.2100
    7POPC   GL1  568   2.376   9.401   7.999  0.0394 -0.0726 -0.1084
    7POPC   GL2  569   2.275   9.713   8.095  0.2363 -0.1322  0.0181
    7POPC   C1A  570   2.202   9.556   7.628  0.0948  0.2533 -0.0346
    7POPC   D2A  571   2.234   9.787   7.151  0.2019 -0.2209 -0.2179
    7POPC   C3A  572   2.478   9.615   6.782 -0.1071  0.1081  0.1232
    7POPC   C4A  573   2.867   9.485   6.713  0.0159 -0.2126  0.1636
    7POPC   C1B  574   2.470  10.002   7.837  0.3922 -0.0898  0.0533
    7POPC   C2B  575   2.596  10.138   7.550  0.1780 -0.0893  0.2117
    7POPC   C3B  576   2.429  10.400   7.220 -0.0686  0.0757  0.1600
    7POPC   C4B  577   2.313  10.152   6.708  0.0674  0.0729 -0.0187
    8POPC   NC3  578   8.155   4.739   9.354 -0.1592  0.1539 -0.1965
    8POPC   PO4  579   8.493   4.598   9.177 -0.1917  0.2317  0.0660
    8POPC   GL1  580   8.479   4.391   8.729  0.0552 -0.2406  0.3497
    8POPC   GL2  581   8.699   4.640   8.405 -0.0066  0.4018 -0.1259
    8POPC   C1A  582   8.604   4.187   8.230  0.0023  0.0579 -0.0214
    8POPC   D2A  583   8.351   4.141   7.980  0.1422 -0.0228  0.1432
    8POPC   C3A  584   8.373   4.094   7.567  0.0435  0.0120 -0.1509
    8POPC   C4A  585   8.381   4.423   7.278 -0.2116 -0.1461  0.1122
    8POPC   C1B  586   8.982   4.602   8.073  0.0594 -0.3657  0.0392
    8POPC   C2B  587   8.963   4.787   7.603  0.0013 -0.1844  0.1016
    8POPC   C3B  588   9.043   4.593   7.241  0.1396 -0.0570  0.0358
    8POPC   C4B  589   9.211   4.381   6.986  0.2420  0.0407  0.1873
    9POPC   NC3  590   5.962   9.475   9.040 -0.0953 -0.0376  0.1159
    9POPC   PO4  591   6.089   9.024   9.127 -0.1982 -0.0565  0.0955
    9POPC   GL1  592   6.095   8.842   8.671 -0.0661 -0.0861  0.1098
    9POPC   GL2  593   6.042   9.031   8.361 -0.0337  0.0245  0.1175
    9POPC   C1A  594   6.342   8.703   8.231 -0.0318 -0.0175 -0.0123
    9POPC   D2A  595   6.467   8.574   7.767 -0.3192 -0.2957  0.1104
    9POPC   C3A  596   6.079   8.597   7.576 -0.1721  0.0061 -0.2085
    9POPC   C4A  597   5.938   8.712   7.145  0.1347 -0.3197  0.1160
    9POPC   C1B  598   5.992   9.022   7.907 -0.3896  0.1037 -0.0409
    9POPC   C2B  599   6.058   9.218   7.525 -0.1640 -0.1380  0.0851
    9POPC   C3B  600   6.011   9.262   7.142  0.0707 -0.0812  0.1017
    9POPC   C4B  601   5.890   9.495   6.982 -0.2326  0.0023 -0.1262
   10POPC   NC3  602   8.496   7.799   9.193 -0.1293  0.1097  0.1624
   10POPC   PO4  603   8.119   7.634   8.909 -0.0734 -0.0863 -0.2490
   10POPC   GL1  604   8.120   8.049   8.732  0.2718  0.1597 -0.1560
   10POPC   GL2  605   8.395   8.274   8.786  0.3081  0.0770  0.0940
   10POPC   C1A  606   8.064   8.344   8.422  0.1077  0.0652  0.1271
   10POPC   D2A  607   8.190   8.616   8.142  0.1742  0.0755  0.5292
   10POPC   C3A  608   7.825   8.872   7.883 -0.0150  0.1221 -0.1188
   10POPC   C4A  609   7.533   8.570   7.783  0.3273  0.5623 -0.0319
   10POPC   C1B  610   8.541   8.273   8.353 -0.1251  0.1427 -0.1594
   10POPC   C2B  611   8.445   8.257   7.812 -0.4071  0.4562 -0.2113
   10POPC   C3B  612   8.487   8.466   7.408  0.4771 -0.1123 -0.0601
   10POPC   C4B  613   8.294   8.859   7.162 -0.1856 -0.1487  0.2984
   11POPC   NC3  614   1.196   3.852   9.919 -0.0534 -0.0444 -0.2198
   11POPC   PO4  615   1.013   3.442   9.972 -0.0945  0.0479  0.1325
   11POPC   GL1  616   0.971   3.396   9.529 -0.2581  0.1336 -0.2399
   11POPC   GL2  617   1.124   3.630   9.456 -0.2668  0.1997  0.0435
   11POPC   C1A  618   0.846   3.199   9.205  0.2516  0.0134 -0.3615
   11POPC   D2A  619   1.096   3.042   8.851  0.3038 -0.1240  0.1049
   11POPC   C3A  620   1.178   2.671   9.110  0.2419  0.1034  0.1025
   11POPC   C4A  621   0.948   2.281   9.169 -0.2468 -0.0996  0.0371
   11POPC   C1B  622   1.065   3.816   9.033  0.2359  0.1280 -0.2919
   11POPC   C2B  623   0.944   4.199   8.809  0.1334 -0.0840  0.1760
   11POPC   C3B  624   0.651   4.332   8.658  0.2334 -0.2191  0.3100
   11POPC   C4B  625   0.266   4.402   8.607 -0.2203 -0.2972 -0.0551
   12POPC   NC3  626   4.839  10.240   8.927 -0.1473  0.4755 -0.3243
   12POPC   PO4  627   4.636  10.656   8.815  0.0135 -0.0981  0.1115
   12POPC   GL1  628   4.849  10.521   8.456 -0.0371  0.1762 -0.0631
   12POPC   GL2  629   5.101  10.296   8.470 -0.0662  0.1224 -0.0399
   12POPC   C1A  630   5.035  10.677   8.075  0.1608  0.1153  0.2551
   12POPC   D2A  631   4.979  10.541   7.720 -0.1249  0.3663 -0.1164
   12POPC   C3A  632   4.761  10.562   7.369  0.1360 -0.2443 -0.0741
   12POPC   C4A  633   4.654  10.814   6.951  0.2536  0.0855  0.0057
   12POPC   C1B  634   5.339  10.301   8.034 -0.1367  0.3184 -0.1326
   12POPC   C2B  635   5.558  10.144   7.644 -0.1803  0.5013 -0.0084
   12POPC   C3B  636   5.709  10.310   7.308 -0.0487  0.0104 -0.3614
   12POPC   C4B  637   5.885  10.047   7.014  0.0138 -0.0556 -0.0101
   13POPC   NC3  638   4.020   8.351   8.751 -0.1942  0.0679 -0.0636
   13POPC   PO4  639   4.051   8.764   8.661 -0.0334 -0.1627  0.5438
   13POPC   GL1  640   4.228   9.004   8.319 -0.0195 -0.2947 -0.1586
   13POPC   GL2  641   4.450   8.893   8.292  0.1579 -0.1742 -0.1527
   13POPC   C1A  642   3.944   8.936   8.014 -0.0422 -0.0282 -0.0813
   13POPC   D2A  643   3.847   8.698   7.605 -0.2829 -0.1551  0.0576
   13POPC   C3A  644   3.757   8.206   7.539  0.1026  0.0818  0.2100
   13POPC   C4A  645   3.722   8.042   7.159  0.0348 -0.0729 -0.0385
   13POPC   C1B  646   4.321   8.813   7.756  0.0166  0.0645 -0.0181
   13POPC   C2B  647   4.215   9.082   7.479  0.0804 -0.1384 -0.1208
   13POPC   C3B  648   3.893   9.122   7.206  0.1830  0.1178 -0.2204
   13POPC   C4B  649   3.989   9.070   6.756  0.0085 -0.2392  0.3697
   14POPC   NC3  650   9.261   3.648   8.820  0.0719 -0.1833  0.0924
   14POPC   PO4  651   9.424   3.396   8.897 -0.1674 -0.3718 -0.1001
   14POPC   GL1  652   9.552   3.531   8.476 -0.2003 -0.0204 -0.0725
   14POPC   GL2  653   9.836   3.715   8.409  0.0260  0.1263  0.1846
   14POPC   C1A  654   9.304   3.632   8.183 -0.1008 -0.0392  0.0488
   14POPC   D2A  655   9.117   3.779   7.692 -0.0154 -0.0345  0.3289
   14POPC   C3A  656   9.142   3.440   7.346 -0.2886 -0.0255 -0.1013
   14POPC   C4A  657   9.333   3.061   7.209 -0.2496  0.0637 -0.1515
   14POPC   C1B  658  10.281   3.629   8.504  0.2673  0.1888 -0.0958
   14POPC   C2B  659  10.679   3.441   8.394 -0.0419  0.0740  0.0492
   14POPC   C3B  660  10.895   3.450   7.940  0.0760 -0.1706  0.1007
   14POPC   C4B  661  10.972   3.555   7.443 -0.0104 -0.2723  0.1091
   15POPC   NC3  662   1.729   6.541   9.627  0.1326  0.3757  0.0523
   15POPC   PO4  663   1.655   6.309   9.217  0.1284  0.0969 -0.2054
   15POPC   GL1  664   1.863   6.312   8.760  0.1585  0.2315  0.1878
   15POPC   GL2  665   1.783   6.273   8.423  0.1462 -0.2300 -0.0855
   15POPC   C1A  666   2.029   5.890   8.532 -0.1713  0.0862  0.1603
   15POPC   D2A  667   2.082   5.453   8.345 -0.2454  0.1587  0.0467
   15POPC   C3A  668   1.911   5.343   7.857  0.0284  0.3301  0.1061
   15POPC   C4A  669   1.444   5.113   7.826 -0.1756 -0.1728 -0.2862
   15POPC   C1B  670   1.603   6.180   8.054  0.0605 -0.2479  0.1046
   15POPC   C2B  671   1.568   6.077   7.643 -0.0528 -0.0997 -0.1512
   15POPC   C3B  672   1.630   5.850   7.291  0.1626 -0.0618 -0.0715
   15POPC   C4B  673   1.479   5.483   7.042 -0.0767  0.1407 -0.0496
   16POPC   NC3  674   0.919   9.375   9.227 -0.1629 -0.0784  0.0964
   16POPC   PO4  675   0.967   9.144   8.773  0.3184 -0.1996 -0.1686
   16POPC   GL1  676   0.919   9.082   8.283 -0.2104  0.1454  0.1389
   16POPC   GL2  677   0.681   9.291   8.270 -0.0628 -0.0658 -0.2932
   16POPC   C1A  678   0.970   8.964   7.910  0.2045 -0.1840 -0.1569
   16POPC   D2A  679   1.064   8.681   7.547  0.4555  0.1967  0.1553
   16POPC   C3A  680   1.465   8.485   7.405 -0.1481 -0.1362  0.0895
   16POPC   C4A  681   1.536   8.053   7.438  0.2961 -0.0609  0.0121
   16POPC   C1B  682   0.643   9.411   7.857  0.0543 -0.1433 -0.1205
   16POPC   C2B  683   0.831   9.654   7.636 -0.2239 -0.0711  0.3579
   16POPC   C3B  684   1.222   9.705   7.454 -0.0515 -0.0433 -0.5185
   16POPC   C4B  685   1.665   9.819   7.412 -0.0786 -0.1402 -0.1766
   17POPC   NC3  686   6.460   4.613   9.406  0.1413  0.2153 -0.0417
   17POPC   PO4  687   6.057   4.808   9.144 -0.3376 -0.1977 -0.2307
   17POPC   GL1  688   5.859   4.822   8.807  0.2037  0.2385 -0.3755
   17POPC   GL2  689   6.025   5.043   8.659 -0.0828  0.0126 -0.0809
   17POPC   C1A  690   5.770   4.494   8.452 -0.0793 -0.0139  0.0654
   17POPC   D2A  691   5.571   4.644   8.049  0.0797  0.0507  0.1915
   17POPC   C3A  692   5.363   4.416   7.825 -0.1980  0.3905  0.0209
   17POPC   C4A  693   5.175   4.153   7.632  0.2675  0.0985 -0.0588
   17POPC   C1B  694   5.922   5.003   8.278 -0.0477  0.3420 -0.0099
   17POPC   C2B  695   6.009   5.239   7.947  0.0465 -0.2265 -0.1235
   17POPC   C3B  696   6.017   5.649   7.642  0.1903  0.0426 -0.4041
   17POPC   C4B  697   6.057   5.799   7.177 -0.0289 -0.2443  0.2465
   18POPC   NC3  698   3.019   5.025   9.905  0.0578 -0.2081 -0.3032
   18POPC   PO4  699   2.680   4.990  10.151  0.3016 -0.0135  0.4556
   18POPC   GL1  700   2.694   4.762   9.741 -0.2223 -0.1820  0.0930
   18POPC   GL2  701   2.736   4.938   9.487  0.2653  0.1216  0.0463
   18POPC   C1A  702   2.693   4.386   9.510  0.0049  0.1663 -0.1026
   18POPC   D2A  703   2.664   4.005   9.315 -0.2681 -0.0947  0.0820
   18POPC   C3A  704   2.635   3.811   8.943  0.2071  0.0120 -0.0756
   18POPC   C4A  705   2.750   3.735   8.590  0.0670 -0.1018 -0.0323
   18POPC   C1B  706   2.838   4.727   9.085  0.0453  0.3311  0.5369
   18POPC   C2B  707   2.844   4.509   8.708 -0.0135  0.1082 -0.0181
   18POPC   C3B  708   2.879   4.164   8.352 -0.2505  0.1567  0.1490
   18POPC   C4B  709   2.811   3.849   8.107 -0.0623  0.1185 -0.2224
   19POPC   NC3  710   5.856   1.785   8.924 -0.1278 -0.1954 -0.4984
   19POPC   PO4  711   5.891   1.619   8.465 -0.1277 -0.0982 -0.0271
   19POPC   GL1  712   5.888   1.383   8.036  0.1026  0.0777  0.1350
   19POPC   GL2  713   6.143   1.448   7.784 -0.0772  0.0196  0.2671
   19POPC   C1A  714   5.722   1.294   7.576  0.1713  0.0907  0.0327
   19POPC   D2A  715   5.755   1.398   7.147  0.0763  0.2159  0.1578
   19POPC   C3A  716   5.995   1.707   6.946  0.1613  0.1761 -0.2740
   19POPC   C4A  717   6.217   1.811   6.607  0.0985  0.2904  0.1690
   19POPC   C1B  718   6.169   1.650   7.468 -0.1007 -0.0159  0.4541
   19POPC   C2B  719   6.106   1.998   7.354 -0.0829  0.5823 -0.0527
   19POPC   C3B  720   6.216   2.463   7.255 -0.0675  0.0781 -0.0795
   19POPC   C4B  721   5.970   2.723   7.003 -0.1209 -0.1270 -0.1075
   20POPC   NC3  722   4.417   2.373   9.243 -0.1546 -0.0088  0.2264
   20POPC   PO4  723   4.626   2.863   9.117  0.1026  0.0341  0.2564
   20POPC   GL1  724   4.321   2.979   8.802  0.1526  0.2576  0.1193
   20POPC   GL2  725   4.184   2.610   8.816  0.1873 -0.3956 -0.1329
   20POPC   C1A  726   4.241   3.423   8.581  0.0623  0.2763  0.1607
   20POPC   D2A  727   4.510   3.632   8.204 -0.1293 -0.1503 -0.0431
   20POPC   C3A  728   4.923   3.818   8.323  0.1149  0.4407  0.0234
   20POPC   C4A  729   5.394   3.575   8.453 -0.1043 -0.0654 -0.2238
   20POPC   C1B  730   4.117   2.755   8.321 -0.0508  0.4229 -0.3159
   20POPC   C2B  731   4.186   3.109   8.063 -0.0270  0.6299 -0.1484
   20POPC   C3B  732   4.234   3.576   7.837 -0.2688  0.0387 -0.2338
   20POPC   C4B  733   4.439   3.889   7.805  0.1128 -0.0877  0.0779
   21POPC   NC3  734   7.224   6.275   8.888  0.2323  0.3012 -0.0905
   21POPC   PO4  735   7.408   6.738   8.860  0.2503 -0.0867  0.0179
   21POPC   GL1  736   7.459   6.695   8.453 -0.2294  0.1787 -0.0546
   21POPC   GL2  737   7.345   6.401   8.390  0.0543 -0.0013 -0.2791
   21POPC   C1A  738   7.522   6.749   8.027 -0.0853 -0.1728 -0.0190
   21POPC   D2A  739   7.463   6.753   7.632 -0.1953  0.0227  0.1185
   21POPC   C3A  740   7.062   6.548   7.467 -0.2389 -0.0542 -0.2353
   21POPC   C4A  741   6.743   6.377   7.250 -0.3006  0.0613  0.1106
   21POPC   C1B  742   7.131   6.294   7.991 -0.0441 -0.0139  0.1730
   21POPC   C2B  743   6.937   6.069   7.594 -0.0607 -0.3953 -0.1991
   21POPC   C3B  744   6.856   5.630   7.530  0.0290  0.2433 -0.0764
   21POPC   C4B  745   7.068   5.403   7.832 -0.1538 -0.0469  0.1371
   22POPC   NC3  746   0.017   8.032   8.644  0.3282  0.1914 -0.0549
   22POPC   PO4  747  -0.328   7.836   8.669 -0.0030 -0.3465 -0.5229
   22POPC   GL1  748  -0.462   8.015   8.309  0.1313 -0.1474 -0.0019
   22POPC   GL2  749  -0.111   8.201   8.130  0.2047  0.2669  0.0368
   22POPC   C1A  750  -0.567   7.807   7.915  0.1180  0.0579 -0.1402
   22POPC   D2A  751  -1.017   7.489   7.722  0.1553 -0.2497  0.0969
   22POPC   C3A  752  -1.009   7.398   7.317  0.1746  0.0217  0.1603
   22POPC   C4A  753  -0.847   7.101   6.905  0.2953  0.0798 -0.0735
   22POPC   C1B  754  -0.173   8.273   7.749  0.1145  0.1528 -0.0876
   22POPC   C2B  755  -0.403   8.364   7.399 -0.0606  0.0344 -0.0845
   22POPC   C3B  756  -0.403   8.416   6.882 -0.2397 -0.0415  0.2540
   22POPC   C4B  757  -0.487   8.003   6.597  0.3373 -0.4352 -0.2415
   23POPC   NC3  758   4.783   4.434   9.931 -0.1614  0.1750 -0.0668
   23POPC   PO4  759   4.777   4.594   9.403 -0.0028 -0.1797 -0.0095
   23POPC   GL1  760   4.593   4.783   9.012 -0.0331  0.2126 -0.1234
   23POPC   GL2  761   4.596   5.141   8.981 -0.2989 -0.4569  0.2166
   23POPC   C1A  762   4.771   4.765   8.672 -0.3510  0.2490 -0.0030
   23POPC   D2A  763   5.077   4.725   8.416 -0.1117  0.1366  0.0198
   23POPC   C3A  764   4.951   4.761   7.978 -0.2027  0.3619 -0.0779
   23POPC   C4A  765   5.183   4.804   7.581  0.0550 -0.2158  0.0099
   23POPC   C1B  766   4.359   5.303   8.640 -0.1976 -0.1244 -0.1577
   23POPC   C2B  767   4.013   5.299   8.304  0.2062  0.0051  0.1290
   23POPC   C3B  768   3.790   4.989   8.063 -0.2414 -0.2275  0.1431
   23POPC   C4B  769   3.652   4.696   7.855  0.2557 -0.0543 -0.1712
   24POPC   NC3  770   5.580   1.233   8.518  0.0073  0.0261 -0.1506
   24POPC   PO4  771   5.290   1.567   8.696  0.2608  0.3567 -0.2637
   24POPC   GL1  772   4.997   1.466   8.286 -0.0324 -0.0186  0.2590
   24POPC   GL2  773   4.756   1.739   8.187 -0.2624  0.1354  0.0292
   24POPC   C1A  774   4.823   1.226   7.994  0.0622  0.2060  0.0973
   24POPC   D2A  775   4.489   1.228   7.778  0.0432  0.0958  0.3011
   24POPC   C3A  776   4.242   1.528   7.737  0.0453 -0.2944  0.1541
   24POPC   C4A  777   3.927   1.528   7.518 -0.1929 -0.3058  0.0106
   24POPC   C1B  778   4.477   1.912   8.074 -0.0637 -0.0060  0.0201
   24POPC   C2B  779   4.224   2.015   7.733  0.2310 -0.1137 -0.0530
   24POPC   C3B  780   3.921   2.297   7.552 -0.3289 -0.2686  0.0132
   24POPC   C4B  781   4.033   2.690   7.374  0.0023  0.2863 -0.0715
   25POPC   NC3  782   7.291   1.162   9.085 -0.0524  0.0452 -0.0949
   25POPC   PO4  783   7.054   1.137   8.609  0.1502  0.6835 -0.0062
   25POPC   GL1  784   6.863   1.323   8.228  0.1114  0.0516  0.3308
   25POPC   GL2  785   6.533   1.194   8.152  0.1615 -0.3385 -0.0302
   25POPC   C1A  786   6.815   1.265   7.713 -0.0758 -0.1148 -0.0534
   25POPC   D2A  787   6.677   1.011   7.394  0.1294  0.1489 -0.1000
   25POPC   C3A  788   6.971   0.837   7.136  0.0439  0.2464 -0.4187
   25POPC   C4A  789   7.162   1.117   6.825 -0.2581  0.0538 -0.2770
   25POPC   C1B  790   6.227   0.981   7.856  0.0088  0.1570 -0.0867
   25POPC   C2B  791   6.184   1.120   7.430  0.3188 -0.2650 -0.1972
   25POPC   C3B  792   6.279   1.221   7.077  0.1909 -0.1047 -0.0787
   25POPC   C4B  793   6.158   1.322   6.716  0.1171  0.0631 -0.2840
   26POPC   NC3  794   6.167   6.498   8.824  0.2042  0.1054  0.3435
   26POPC   PO4  795   5.984   6.809   8.697  0.1229 -0.2405 -0.1905
   26POPC   GL1  796   6.065   6.782   8.335 -0.1537  0.0196  0.1197
   26POPC   GL2  797   6.415   6.696   8.380  0.0737  0.1990  0.2234
   26POPC   C1A  798   5.894   6.784   7.853  0.0470  0.0533 -0.1733
   26POPC   D2A  799   5.613   6.574   7.475 -0.1382 -0.0946  0.3212
   26POPC   C3A  800   5.790   6.212   7.206  0.0063  0.0570  0.0572
   26POPC   C4A  801   5.941   6.091   6.792  0.0793  0.2546  0.3912
   26POPC   C1B  802   6.181   6.345   8.173 -0.0234 -0.3747 -0.3832
   26POPC   C2B  803   5.936   6.098   7.844 -0.1181  0.0931  0.2634
   26POPC   C3B  804   5.542   6.056   7.672 -0.1657 -0.0300 -0.4295
   26POPC   C4B  805   5.361   5.801   7.356  0.1447  0.1094 -0.3463
   27POPC   NC3  806   1.534   8.661   8.656  0.0514 -0.1600  0.1991
   27POPC   PO4  807   1.327   8.246   8.775  0.1202  0.0389  0.1302
   27POPC   GL1  808   1.360   8.099   8.365 -0.2981 -0.2916 -0.1338
   27POPC   GL2  809   1.393   7.809   8.498  0.0156 -0.3281 -0.1654
   27POPC   C1A  810   1.417   7.941   7.942 -0.0455 -0.1509  0.3985
   27POPC   D2A  811   1.245   7.651   7.685  0.0391  0.0954 -0.0865
   27POPC   C3A  812   1.428   7.559   7.276 -0.1381 -0.0624  0.0963
   27POPC   C4A  813   1.552   7.788   6.937  0.0959 -0.1520  0.0159
   27POPC   C1B  814   1.228   7.622   8.197 -0.0328 -0.0572 -0.0186
   27POPC   C2B  815   0.841   7.801   8.025  0.0826 -0.3558 -0.1010
   27POPC   C3B  816   0.510   8.091   7.923 -0.2854  0.2405  0.1943
   27POPC   C4B  817   0.287   8.173   7.510  0.0924  0.2013 -0.1087
   28POPC   NC3  818   2.549   1.210   9.884 -0.0988  0.0633 -0.0676
   28POPC   PO4  819   2.886   1.054   9.654  0.0007  0.0501 -0.3229
   28POPC   GL1  820   2.639   1.316   9.400 -0.2074 -0.1382 -0.0109
   28POPC   GL2  821   2.877   1.471   9.088 -0.4281  0.2442  0.0401
   28POPC   C1A  822   2.515   1.766   9.289 -0.2588 -0.0188  0.2235
   28POPC   D2A  823   2.413   1.995   8.902 -0.1660  0.0967 -0.1451
   28POPC   C3A  824   2.680   2.239   8.602  0.2861 -0.1304  0.2148
   28POPC   C4A  825   2.780   2.259   8.148 -0.2890  0.1217  0.1353
   28POPC   C1B  826   3.009   1.192   8.709 -0.1598 -0.0933  0.1025
   28POPC   C2B  827   2.854   1.030   8.295 -0.0142  0.0995  0.2047
   28POPC   C3B  828   2.668   0.890   7.839  0.2229 -0.4265 -0.3401
   28POPC   C4B  829   2.463   0.909   7.503  0.0469 -0.0017 -0.2845
   29POPC   NC3  830   5.381   6.205   8.933 -0.0174  0.3467 -0.0097
   29POPC   PO4  831   5.647   6.557   8.948  0.1071  0.0406 -0.4476
   29POPC   GL1  832   5.473   6.472   8.483  0.1952  0.0846 -0.1440
   29POPC   GL2  833   5.513   6.792   8.448  0.2378 -0.2235  0.0474
   29POPC   C1A  834   5.510   6.377   8.094  0.2492 -0.2725  0.0449
   29POPC   D2A  835   5.375   6.822   7.897  0.0215  0.1839 -0.0038
   29POPC   C3A  836   5.266   7.285   7.890  0.1757 -0.4295  0.1087
   29POPC   C4A  837   5.247   7.666   7.688 -0.2709 -0.1474 -0.0164
   29POPC   C1B  838   5.725   7.135   8.145 -0.0476  0.1191 -0.0665
   29POPC   C2B  839   5.625   7.167   7.634 -0.2341 -0.0027  0.3951
   29POPC   C3B  840   5.725   7.415   7.258 -0.0998 -0.2753  0.0771
   29POPC   C4B  841   5.496   7.353   6.761  0.0214  0.0794 -0.2592
   30POPC   NC3  842   2.398   8.791   8.503 -0.0569 -0.1486  0.0088
   30POPC   PO4  843   2.006   8.992   8.688  0.0234  0.1096  0.4095
   30POPC   GL1  844   1.843   8.923   8.353 -0.2616  0.3171 -0.1455
   30POPC   GL2  845   2.008   9.099   8.154  0.4412  0.0897  0.3018
   30POPC   C1A  846   1.807   8.669   7.891  0.2818  0.2371 -0.0140
   30POPC   D2A  847   1.782   8.285   7.788 -0.2956  0.3547  0.1873
   30POPC   C3A  848   2.040   8.187   7.378 -0.0947  0.1061 -0.3330
   30POPC   C4A  849   2.247   8.201   6.999  0.4143 -0.0441  0.0559
   30POPC   C1B  850   2.006   9.041   7.672 -0.1621 -0.1781 -0.0524
   30POPC   C2B  851   1.849   8.845   7.270 -0.0189 -0.3454 -0.1473
   30POPC   C3B  852   1.478   8.848   7.115  0.0486 -0.2241 -0.0408
   30POPC   C4B  853   1.060   8.704   6.999  0.0221  0.0480 -0.0155
   31POPC   NC3  854   8.532   6.190   8.552 -0.2284 -0.0083 -0.3131
   31POPC   PO4  855   8.760   6.545   8.713 -0.1786 -0.4266 -0.1740
   31POPC   GL1  856   9.103   6.788   8.465  0.3265 -0.2585  0.0041
   31POPC   GL2  857   9.397   6.740   8.218 -0.1145  0.1460  0.5113
   31POPC   C1A  858   8.959   6.777   8.057 -0.1784 -0.1333  0.1700
   31POPC   D2A  859   8.989   6.585   7.577 -0.3281  0.2213  0.0447
   31POPC   C3A  860   8.860   6.213   7.501 -0.2885  0.0162  0.0988
   31POPC   C4A  861   8.913   5.787   7.496  0.1726 -0.5268 -0.2482
   31POPC   C1B  862   9.347   6.496   7.844 -0.3507 -0.0811 -0.2419
   31POPC   C2B  863   9.422   6.225   7.495 -0.0533 -0.1009 -0.2610
   31POPC   C3B  864   9.491   5.830   7.379 -0.3337 -0.2276  0.1126
   31POPC   C4B  865   9.716   5.416   7.232  0.0423  0.3057  0.0427
   32POPC   NC3  866   3.595   7.120   9.249 -0.1176  0.0928 -0.0415
   32POPC   PO4  867   3.725   7.537   9.212 -0.1160 -0.2212  0.2271
   32POPC   GL1  868   3.625   7.424   8.805 -0.0668 -0.0744 -0.0170
   32POPC   GL2  869   3.815   7.288   8.536 -0.1040  0.1890  0.0827
   32POPC   C1A  870   3.325   7.335   8.522  0.1120 -0.0567 -0.3620
   32POPC   D2A  871   3.441   7.224   8.218 -0.2228  0.1559  0.1730
   32POPC   C3A  872   3.630   7.354   7.862 -0.1730 -0.6102 -0.3850
   32POPC   C4A  873   3.938   7.286   7.517 -0.0087  0.3888  0.3369
   32POPC   C1B  874   3.627   7.647   8.363  0.2469 -0.1867  0.1686
   32POPC   C2B  875   3.761   7.888   7.895  0.1962 -0.0100  0.1564
   32POPC   C3B  876   4.025   7.718   7.654 -0.1678 -0.1731 -0.0233
   32POPC   C4B  877   4.147   7.810   7.254 -0.1671 -0.1297 -0.1332
   33POPC   NC3  878   5.197   9.048   9.313 -0.0757  0.1249  0.1907
   33POPC   PO4  879   5.043   9.054   8.900  0.1592 -0.0055 -0.1573
   33POPC   GL1  880   4.833   9.238   8.471  0.2047 -0.0351 -0.3927
   33POPC   GL2  881   5.040   9.015   8.395  0.2680 -0.0149 -0.2710
   33POPC   C1A  882   4.799   9.551   8.252  0.2663  0.2733  0.0561
   33POPC   D2A  883   4.758   9.582   7.729 -0.1033  0.1233 -0.4912
   33POPC   C3A  884   4.721   9.253   7.414  0.0410 -0.2138  0.0981
   33POPC   C4A  885   4.774   8.921   7.262 -0.1014  0.0335 -0.1231
   33POPC   C1B  886   5.199   9.225   8.069 -0.0819  0.1150  0.0885
   33POPC   C2B  887   5.119   9.080   7.679 -0.0510 -0.0927  0.0241
   33POPC   C3B  888   5.195   8.745   7.424  0.0521 -0.1206  0.1101
   33POPC   C4B  889   5.324   8.704   7.054 -0.1935  0.0022  0.1882
   34POPC   NC3  890   0.171   3.385  10.048  0.0796  0.2141 -0.3769
   34POPC   PO4  891  -0.215   3.492   9.776 -0.2313 -0.1140 -0.2990
   34POPC   GL1  892   0.045   3.609   9.409 -0.0115 -0.1511 -0.0351
   34POPC   GL2  893   0.177   3.931   9.446 -0.0217  0.1187 -0.1666
   34POPC   C1A  894   0.226   3.603   9.063  0.2177 -0.1757  0.0141
   34POPC   D2A  895   0.156   3.910   8.773 -0.0794 -0.2353 -0.1659
   34POPC   C3A  896   0.497   3.883   8.496  0.1788 -0.1848 -0.3478
   34POPC   C4A  897   0.754   3.749   8.230 -0.2246 -0.1783  0.1210
   34POPC   C1B  898   0.589   3.989   9.224  0.0624  0.1234  0.0097
   34POPC   C2B  899   0.722   3.566   8.802  0.0130 -0.1525 -0.2614
   34POPC   C3B  900   0.916   3.295   8.451 -0.3089 -0.2337  0.2494
   34POPC   C4B  901   0.996   3.359   8.024 -0.0900  0.2737 -0.0412
   35POPC   NC3  902   9.923   2.237   9.663  0.1863  0.0949 -0.3132
   35POPC   PO4  903   9.744   2.581   9.418  0.0446  0.1897 -0.1514
   35POPC   GL1  904  10.019   2.392   9.082  0.1246 -0.2130  0.3223
   35POPC   GL2  905   9.756   2.434   8.849 -0.2637 -0.0069 -0.0196
   35POPC   C1A  906  10.039   1.989   8.822  0.0467 -0.1609  0.2025
   35POPC   D2A  907  10.133   1.884   8.495 -0.3342 -0.1270  0.1215
   35POPC   C3A  908  10.324   1.530   8.469  0.2508 -0.0708 -0.0597
   35POPC   C4A  909  10.596   1.222   8.323  0.0698  0.2297  0.0528
   35POPC   C1B  910   9.882   2.354   8.400 -0.3268  0.1121 -0.1812
   35POPC   C2B  911  10.005   2.104   8.045 -0.2691 -0.5733  0.1993
   35POPC   C3B  912  10.262   1.886   8.006  0.3313  0.1660 -0.1685
   35POPC   C4B  913  10.489   1.561   7.940  0.1738  0.0233  0.0683
   36POPC   NC3  914   5.512   3.547   9.260 -0.0385 -0.3746  0.1132
   36POPC   PO4  915   5.319   3.195   9.013 -0.0845 -0.1621  0.0200
   36POPC   GL1  916   5.159   3.114   8.563  0.0732  0.1935 -0.0848
   36POPC   GL2  917   5.403   3.054   8.316  0.0418  0.2138  0.2104
   36POPC   C1A  918   4.982   2.782   8.038 -0.1048 -0.4269 -0.2560
   36POPC   D2A  919   4.577   2.647   7.885 -0.0537 -0.0038  0.0501
   36POPC   C3A  920   4.520   2.854   7.551 -0.1822 -0.1441  0.3710
   36POPC   C4A  921   4.614   2.887   7.178 -0.0212 -0.1316  0.1341
   36POPC   C1B  922   5.114   3.348   8.090 -0.1479 -0.0986  0.1372
   36POPC   C2B  923   4.975   3.675   7.761 -0.0051 -0.0825  0.1986
   36POPC   C3B  924   5.014   3.778   7.280 -0.0729 -0.1923  0.1969
   36POPC   C4B  925   4.785   3.750   6.831 -0.2768  0.3208  0.2539
   37POPC   NC3  926   1.092   5.274   9.859 -0.1362  0.2130  0.1448
   37POPC   PO4  927   0.963   5.575   9.469  0.3096  0.1869  0.1004
   37POPC   GL1  928   0.800   5.534   9.043 -0.1547  0.0611  0.0940
   37POPC   GL2  929   0.679   5.170   8.987 -0.1763 -0.2612 -0.0646
   37POPC   C1A  930   0.917   5.733   8.623 -0.4120  0.1241 -0.3388
   37POPC   D2A  931   0.822   5.764   8.152  0.2622 -0.0566 -0.0399
   37POPC   C3A  932   1.170   5.736   7.878  0.3876 -0.4437  0.1829
   37POPC   C4A  933   1.499   5.568   7.650  0.1076 -0.0807 -0.2196
   37POPC   C1B  934   0.928   5.186   8.674 -0.1382  0.0606  0.0142
   37POPC   C2B  935   1.116   5.108   8.309  0.0372 -0.3573  0.1905
   37POPC   C3B  936   1.200   5.510   8.280 -0.3428  0.3938 -0.4291
   37POPC   C4B  937   1.610   5.608   8.153  0.1194  0.0304 -0.1212
   38POPC   NC3  938   7.130   7.115   8.807 -0.0596 -0.4446  0.0553
   38POPC   PO4  939   7.165   7.497   9.018  0.0286  0.1389 -0.1117
   38POPC   GL1  940   7.120   7.635   8.584 -0.0310  0.0924 -0.2612
   38POPC   GL2  941   6.915   7.373   8.399  0.0418  0.0840  0.1000
   38POPC   C1A  942   7.086   7.936   8.271  0.1674 -0.0191 -0.1416
   38POPC   D2A  943   7.006   7.730   7.927  0.1522 -0.2818 -0.1833
   38POPC   C3A  944   7.000   7.813   7.474 -0.2176 -0.2481  0.0386
   38POPC   C4A  945   7.039   8.061   7.051 -0.0704 -0.1637 -0.2715
   38POPC   C1B  946   7.191   7.207   8.054 -0.1973 -0.1017 -0.0437
   38POPC   C2B  947   7.579   7.211   7.758  0.0936 -0.1257 -0.1613
   38POPC   C3B  948   7.816   7.140   7.498 -0.1881  0.0557  0.0711
   38POPC   C4B  949   7.692   7.000   7.013 -0.2565  0.0668  0.2834
   39POPC   NC3  950   8.799   8.547   8.975 -0.1872  0.0488 -0.0963
   39POPC   PO4  951   8.833   8.159   9.069 -0.5183 -0.1441 -0.1444
   39POPC   GL1  952   8.896   8.088   8.632 -0.0864  0.2306 -0.1662
   39POPC   GL2  953   8.645   7.853   8.585  0.2632 -0.1655 -0.1154
   39POPC   C1A  954   9.006   8.265   8.229  0.0040  0.3726  0.0112
   39POPC   D2A  955   8.970   8.370   7.718  0.0497  0.3551 -0.0487
   39POPC   C3A  956   9.195   8.338   7.294  0.3897 -0.0053 -0.1240
   39POPC   C4A  957   9.542   8.072   7.100 -0.2093  0.1201 -0.0389
   39POPC   C1B  958   8.265   7.836   8.300 -0.0532 -0.2053 -0.2547
   39POPC   C2B  959   8.041   7.951   7.933 -0.2006 -0.1690  0.2942
   39POPC   C3B  960   8.053   8.155   7.498  0.0102 -0.2564 -0.2398
   39POPC   C4B  961   8.126   8.363   7.119  0.4108 -0.1207  0.0929
   40POPC   NC3  962   6.497   4.774   8.807 -0.1443  0.0461 -0.1416
   40POPC   PO4  963   6.812   4.498   8.943 -0.3853 -0.1077 -0.2864
   40POPC   GL1  964   7.033   4.381   8.574  0.0146  0.1158 -0.1365
   40POPC   GL2  965   6.652   4.370   8.348  0.2400  0.1545 -0.0757
   40POPC   C1A  966   7.074   4.547   8.178 -0.0069  0.0712  0.3724
   40POPC   D2A  967   7.091   4.399   7.807 -0.2394  0.0696  0.1892
   40POPC   C3A  968   6.830   4.251   7.368 -0.3750  0.2182 -0.1522
   40POPC   C4A  969   6.846   4.000   6.930  0.2191  0.2174  0.1055
   40POPC   C1B  970   6.578   4.678   7.920 -0.4518 -0.5105 -0.0898
   40POPC   C2B  971   6.848   4.689   7.543  0.2046  0.0153  0.0547
   40POPC   C3B  972   7.172   5.030   7.389  0.2035  0.1563 -0.0253
   40POPC   C4B  973   7.322   5.345   7.386  0.2288 -0.0975 -0.0070
   41POPC   NC3  974   0.604   8.719   8.560 -0.0314 -0.0937 -0.1327
   41POPC   PO4  975   0.435   8.302   8.625  0.1403  0.1865  0.2419
   41POPC   GL1  976   0.247   8.532   8.265  0.2903  0.0389  0.0386
   41POPC   GL2  977  -0.027   8.707   8.267 -0.0022 -0.2241  0.1617
   41POPC   C1A  978   0.215   8.574   7.795 -0.1306  0.0164  0.0111
   41POPC   D2A  979  -0.011   8.653   7.451  0.1028 -0.0683  0.4427
   41POPC   C3A  980   0.100   8.453   7.048 -0.2512  0.2012  0.2418
   41POPC   C4A  981  -0.066   8.023   7.155 -0.0128 -0.2430 -0.1436
   41POPC   C1B  982  -0.219   8.739   7.938 -0.0327  0.1397  0.1019
   41POPC   C2B  983  -0.579   8.501   7.910 -0.0683  0.0891  0.0952
   41POPC   C3B  984  -0.907   8.314   7.658  0.3597 -0.1034  0.2618
   41POPC   C4B  985  -0.970   7.952   7.582  0.0926 -0.0911  0.2733
   42POPC   NC3  986   9.019   3.279   9.176  0.1791  0.1995  0.1922
   42POPC   PO4  987   8.807   3.507   8.883 -0.2987  0.1693  0.1716
   42POPC   GL1  988   8.867   3.680   8.481 -0.1149 -0.6041  0.2283
   42POPC   GL2  989   8.962   4.025   8.594 -0.0717 -0.0165  0.0713
   42POPC   C1A  990   8.791   3.652   8.006 -0.1822  0.0055  0.0175
   42POPC   D2A  991   8.660   3.623   7.602 -0.0293 -0.0911  0.6993
   42POPC   C3A  992   8.342   3.342   7.351 -0.0084 -0.0156  0.2342
   42POPC   C4A  993   7.980   3.073   7.463  0.1138 -0.0120  0.0833
   42POPC   C1B  994   9.068   4.075   8.137 -0.0851  0.1127 -0.2701
   42POPC   C2B  995   8.870   4.232   7.747 -0.2095  0.1103  0.1417
   42POPC   C3B  996   8.902   4.119   7.279  0.1797  0.0756  0.0056
   42POPC   C4B  997   9.049   3.873   7.006  0.0800  0.3169  0.0515
   43POPC   NC3  998  10.295   9.240   8.401  0.0504  0.0953  0.1175
   43POPC   PO4  999  10.706   9.148   8.470  0.1625  0.3899 -0.0014
   43POPC   GL1 1000  10.641   9.113   8.061  0.2415  0.0065  0.0562
   43POPC   GL2 1001  10.908   8.927   8.034  0.1571  0.1414 -0.2322
   43POPC   C1A 1002  10.445   9.147   7.698  0.2786 -0.1276  0.2008
   43POPC   D2A 1003  10.223   9.432   7.423 -0.5112  0.2339  0.0162
   43POPC   C3A 1004  10.358   9.831   7.156 -0.1638 -0.1499  0.1122
   43POPC   C4A 1005  10.444  10.219   7.146  0.3170  0.3205  0.0013
   43POPC   C1B 1006  10.936   8.957   7.605  0.0080  0.1240  0.1967
   43POPC   C2B 1007  11.153   9.257   7.305 -0.0058 -0.0882 -0.0231
   43POPC   C3B 1008  11.295   9.627   7.183  0.5828 -0.0817  0.1398
   43POPC   C4B 1009  11.525   9.804   6.837 -0.1447 -0.0814 -0.0779
   44POPC   NC3 1010   0.863   8.341   8.864  0.1352 -0.0362  0.1320
   44POPC   PO4 1011   1.054   8.562   8.506 -0.4375  0.1762 -0.1410
   44POPC   GL1 1012   1.335   8.715   8.159 -0.3323  0.2526  0.2315
   44POPC   GL2 1013   1.284   8.432   7.976  0.1946 -0.1204 -0.2381
   44POPC   C1A 1014   1.457   8.941   7.672  0.1453 -0.0938 -0.2505
   44POPC   D2A 1015   1.197   9.220   7.382 -0.0496  0.1427 -0.1229
   44POPC   C3A 1016   1.041   9.238   6.981 -0.2267  0.3940 -0.0899
   44POPC   C4A 1017   1.280   9.115   6.669 -0.1335  0.0963  0.2093
   44POPC   C1B 1018   1.023   8.163   7.624 -0.2203 -0.1744  0.1701
   44POPC   C2B 1019   0.747   8.309   7.314 -0.1407  0.0547  0.0587
   44POPC   C3B 1020   0.561   8.733   7.108 -0.2208 -0.0299 -0.0411
   44POPC   C4B 1021   0.164   9.043   7.227 -0.3108 -0.1363  0.0246
   45POPC   NC3 1022   4.395   0.891   9.160  0.1135  0.0186 -0.0559
   45POPC   PO4 1023   4.104   0.852   8.978 -0.0598 -0.0373 -0.0841
   45POPC   GL1 1024   4.066   0.608   8.711 -0.4547  0.2796 -0.0567
   45POPC   GL2 1025   3.902   0.864   8.512 -0.3232  0.3835  0.0350
   45POPC   C1A 1026   4.177   0.410   8.402  0.4305  0.3381 -0.1274
   45POPC   D2A 1027   4.166   0.282   7.926 -0.1705 -0.0340  0.2997
   45POPC   C3A 1028   4.021   0.441   7.577  0.0849  0.1241 -0.1785
   45POPC   C4A 1029   4.299   0.236   7.282 -0.2458 -0.1941 -0.2825
   45POPC   C1B 1030   3.775   0.839   8.066  0.0120  0.0534 -0.2138
   45POPC   C2B 1031   3.606   0.618   7.741 -0.3779  0.2202 -0.1243
   45POPC   C3B 1032   3.574   0.562   7.247  0.0290  0.0302 -0.1560
   45POPC   C4B 1033   3.683   0.903   6.821 -0.1361  0.0409 -0.1975
   46POPC   NC3 1034  10.194   6.496   8.568 -0.1073 -0.0050  0.1087
   46POPC   PO4 1035  10.423   6.128   8.987 -0.1530  0.1718 -0.0054
   46POPC   GL1 1036  10.337   6.041   8.491 -0.4633 -0.1116 -0.2200
   46POPC   GL2 1037  10.328   5.697   8.441 -0.5221  0.1392 -0.1754
   46POPC   C1A 1038  10.496   6.082   8.085  0.0879  0.3410  0.2253
   46POPC   D2A 1039  10.328   6.060   7.678 -0.1652 -0.2587  0.1478
   46POPC   C3A 1040  10.471   5.638   7.466  0.0118 -0.1644  0.1964
   46POPC   C4A 1041  10.599   5.228   7.299  0.0200  0.0361 -0.0328
   46POPC   C1B 1042  10.639   5.643   8.258  0.0858  0.1613 -0.1683
   46POPC   C2B 1043  10.817   5.673   7.815  0.2845 -0.4486 -0.1703
   46POPC   C3B 1044  11.010   5.348   7.669  0.0762 -0.1123 -0.2628
   46POPC   C4B 1045  11.389   5.270   7.728  0.0713 -0.3583 -0.0165
   47POPC   NC3 1046   4.238   0.335   9.096  0.1167 -0.0101  0.1462
   47POPC   PO4 1047   3.904  -0.006   9.177 -0.0938  0.4048  0.1007
   47POPC   GL1 1048   3.737   0.100   8.789 -0.0309  0.0410 -0.1729
   47POPC   GL2 1049   3.687  -0.259   8.520  0.0293  0.1305 -0.1289
   47POPC   C1A 1050   3.540   0.460   8.574 -0.0056 -0.0448  0.0695
   47POPC   D2A 1051   3.318   0.558   8.138  0.1484  0.1239  0.0646
   47POPC   C3A 1052   3.270   0.944   7.952  0.1923  0.0870 -0.0038
   47POPC   C4A 1053   3.540   1.198   7.738 -0.0091 -0.1167  0.1549
   47POPC   C1B 1054   3.413   0.060   8.318  0.2647  0.1783 -0.1008
   47POPC   C2B 1055   3.013   0.199   8.295 -0.2865  0.1021 -0.0121
   47POPC   C3B 1056   2.885   0.478   7.943 -0.0957  0.4664 -0.0564
   47POPC   C4B 1057   3.107   0.535   7.610  0.0867 -0.0669 -0.2769
   48POPC   NC3 1058   6.244   0.694   9.179  0.2628 -0.0415 -0.1231
   48POPC   PO4 1059   6.318   0.869   8.854  0.0124  0.1537 -0.2018
   48POPC   GL1 1060   6.573   0.772   8.420 -0.2809  0.0689  0.0162
   48POPC   GL2 1061   6.618   0.486   8.277  0.0320  0.1630 -0.0993
   48POPC   C1A 1062   6.706   0.801   7.878 -0.0359 -0.0298 -0.0864
   48POPC   D2A 1063   6.654   0.541   7.546 -0.0662 -0.4773 -0.0237
   48POPC   C3A 1064   6.911   0.212   7.451  0.1499  0.2226  0.2208
   48POPC   C4A 1065   6.772  -0.259   7.373 -0.1476 -0.0525  0.1535
   48POPC   C1B 1066   6.866   0.337   7.950 -0.2317 -0.1928  0.2858
   48POPC   C2B 1067   7.142   0.601   7.604 -0.1050  0.0639  0.0501
   48POPC   C3B 1068   7.313   0.432   7.188  0.0125  0.2886 -0.1613
   48POPC   C4B 1069   7.406   0.092   6.863 -0.0964 -0.0621 -0.0034
   49POPC   NC3 1070   1.076   7.842   8.882  0.2609 -0.0544  0.1293
   49POPC   PO4 1071   1.437   7.722   9.038  0.1538 -0.0585 -0.1241
   49POPC   GL1 1072   1.695   7.487   8.678  0.1916 -0.0299  0.0867
   49POPC   GL2 1073   1.391   7.248   8.509  0.0432  0.3657 -0.0341
   49POPC   C1A 1074   1.898   7.268   8.387  0.0068 -0.0484  0.2317
   49POPC   D2A 1075   1.849   7.064   7.975  0.2886 -0.2525  0.0454
   49POPC   C3A 1076   2.175   6.827   7.755  0.0227  0.0107 -0.1645
   49POPC   C4A 1077   2.449   6.613   7.382  0.1248  0.2525  0.1370
   49POPC   C1B 1078   1.391   7.196   8.089  0.0657 -0.1308  0.2538
   49POPC   C2B 1079   1.454   7.132   7.561  0.1261 -0.0339 -0.3502
   49POPC   C3B 1080   1.513   6.966   7.073 -0.1920  0.0161 -0.0137
   49POPC   C4B 1081   1.868   6.767   6.777 -0.1435 -0.2279  0.0190
   50POPC   NC3 1082   2.722   6.344   9.206 -0.0789  0.3151 -0.4020
   50POPC   PO4 1083   3.094   6.419   9.001  0.1003  0.1161 -0.1953
   50POPC   GL1 1084   3.049   6.329   8.536 -0.2341  0.0153  0.1631
   50POPC   GL2 1085   3.177   6.047   8.602 -0.0529 -0.2532  0.1355
   50POPC   C1A 1086   3.198   6.268   8.167  0.0557  0.1110 -0.2021
   50POPC   D2A 1087   3.151   6.309   7.751 -0.0256  0.0485  0.2546
   50POPC   C3A 1088   3.078   6.815   7.751  0.0937 -0.0368  0.0468
   50POPC   C4A 1089   3.299   7.195   7.530  0.1659  0.2321  0.0245
   50POPC   C1B 1090   2.920   5.910   8.074 -0.1805 -0.1789  0.2921
   50POPC   C2B 1091   2.904   5.863   7.653 -0.0526  0.0142  0.1413
   50POPC   C3B 1092   2.838   6.075   7.297 -0.1281  0.0025  0.2381
   50POPC   C4B 1093   2.558   6.274   6.958 -0.1704 -0.0879  0.1804
   51POPC   NC3 1094   6.216   4.300   8.842 -0.4162  0.1305  0.0531
   51POPC   PO4 1095   6.187   3.841   8.779 -0.0943 -0.4840 -0.0754
   51POPC   GL1 1096   6.259   4.081   8.425 -0.0485  0.0444  0.3919
   51POPC   GL2 1097   6.261   3.957   8.062 -0.0856 -0.0453  0.1037
   51POPC   C1A 1098   6.193   4.472   8.127  0.3767  0.1379 -0.0871
   51POPC   D2A 1099   6.036   4.722   7.886 -0.2183 -0.2264 -0.0192
   51POPC   C3A 1100   6.131   5.026   7.553 -0.1290  0.0394 -0.2817
   51POPC   C4A 1101   6.438   5.432   7.410 -0.1990  0.0704  0.0370
   51POPC   C1B 1102   6.414   4.231   7.763 -0.2510 -0.3066 -0.0171
   51POPC   C2B 1103   6.353   4.573   7.397  0.0624 -0.0309 -0.1256
   51POPC   C3B 1104   6.561   4.976   7.284 -0.1264  0.1031  0.0146
   51POPC   C4B 1105   6.853   5.293   7.089 -0.0500 -0.3497 -0.3282
   52POPC   NC3 1106   3.244   1.208   9.310  0.0885  0.0790 -0.2726
   52POPC   PO4 1107   3.554   1.546   9.410 -0.1929  0.2769  0.0588
   52POPC   GL1 1108   3.387   1.662   8.987  0.0046  0.1021 -0.1323
   52POPC   GL2 1109   3.449   1.901   8.868 -0.0251 -0.3765 -0.1458
   52POPC   C1A 1110   3.459   1.460   8.643 -0.2027  0.1747  0.2809
   52POPC   D2A 1111   3.648   1.393   8.219  0.1266 -0.0883  0.2556
   52POPC   C3A 1112   3.986   1.275   8.106 -0.4251  0.0650  0.2789
   52POPC   C4A 1113   4.391   1.445   8.376  0.0338 -0.2058  0.1950
   52POPC   C1B 1114   3.368   2.275   8.805 -0.2604  0.1682 -0.0380
   52POPC   C2B 1115   3.040   2.629   8.557  0.0219 -0.1466 -0.0189
   52POPC   C3B 1116   3.202   2.489   8.205  0.2230 -0.3096  0.0263
   52POPC   C4B 1117   3.654   2.327   8.034  0.3340  0.2935  0.2172
   53POPC   NC3 1118   5.062   2.758   8.960  0.2689  0.1070  0.1763
   53POPC   PO4 1119   4.974   2.386   8.968  0.0318  0.3530  0.1200
   53POPC   GL1 1120   4.642   2.437   8.732 -0.0161  0.1153  0.0952
   53POPC   GL2 1121   4.711   2.726   8.620 -0.1051 -0.2373  0.0783
   53POPC   C1A 1122   4.316   2.318   8.399 -0.0997  0.0167  0.2481
   53POPC   D2A 1123   4.159   2.369   8.017 -0.0196  0.0732 -0.1026
   53POPC   C3A 1124   3.892   2.742   7.806  0.2688  0.0146  0.0551
   53POPC   C4A 1125   4.008   3.155   7.602 -0.3242 -0.0489 -0.2004
   53POPC   C1B 1126   4.642   3.079   8.361 -0.0557 -0.0140 -0.1308
   53POPC   C2B 1127   4.623   3.228   7.968  0.1109 -0.1979  0.0187
   53POPC   C3B 1128   4.542   3.364   7.528 -0.0237 -0.1695  0.0454
   53POPC   C4B 1129   4.747   3.356   7.210 -0.0133  0.0549 -0.0116
   54POPC   NC3 1130   5.129   1.056   8.547  0.1103  0.3015  0.0163
   54POPC   PO4 1131   4.936   0.762   8.896  0.0877 -0.0366 -0.2765
   54POPC   GL1 1132   4.760   0.645   8.560 -0.0959  0.1265 -0.2171
   54POPC   GL2 1133   5.000   0.687   8.257  0.0421 -0.0113 -0.2609
   54POPC   C1A 1134   4.594   0.502   8.118 -0.3119 -0.0725 -0.3557
   54POPC   D2A 1135   4.564   0.485   7.710  0.3918  0.1540  0.0541
   54POPC   C3A 1136   4.350   0.722   7.348 -0.1770  0.0820  0.0683
   54POPC   C4A 1137   4.089   0.587   7.057  0.5382 -0.3947  0.2124
   54POPC   C1B 1138   5.007   0.696   7.847  0.1334 -0.1422  0.0403
   54POPC   C2B 1139   4.873   0.995   7.536 -0.0358 -0.1206  0.1451
   54POPC   C3B 1140   4.847   1.040   7.028  0.0186  0.0651  0.0268
   54POPC   C4B 1141   4.633   1.302   6.721 -0.1656  0.0933 -0.0755
   55POPC   NC3 1142   5.616   8.955   9.617 -0.0037 -0.1302 -0.3308
   55POPC   PO4 1143   5.633   9.260   9.286 -0.3897  0.0727  0.1028
   55POPC   GL1 1144   5.547   9.339   8.759  0.3577 -0.2123  0.0691
   55POPC   GL2 1145   5.573   9.070   8.518 -0.0830  0.1194  0.2437
   55POPC   C1A 1146   5.212   9.602   8.526 -0.1084  0.0103 -0.1020
   55POPC   D2A 1147   5.135   9.899   8.245  0.2458  0.0323 -0.0810
   55POPC   C3A 1148   4.844  10.045   8.038  0.0960 -0.0522  0.2300
   55POPC   C4A 1149   4.560  10.390   7.969 -0.1204  0.0184 -0.0435
   55POPC   C1B 1150   5.585   9.462   8.260  0.1015  0.1429  0.0902
   55POPC   C2B 1151   5.669   9.349   7.792 -0.0248  0.0520  0.3136
   55POPC   C3B 1152   5.720   9.686   7.402 -0.1049 -0.1064 -0.0875
   55POPC   C4B 1153   5.451   9.938   7.198  0.1386 -0.0936  0.0702
   56POPC   NC3 1154   4.952   7.688   8.946  0.3837  0.0848 -0.0498
   56POPC   PO4 1155   5.331   7.447   9.064  0.0969 -0.0533 -0.2098
   56POPC   GL1 1156   5.254   7.409   8.548 -0.0786 -0.3926 -0.3201
   56POPC   GL2 1157   5.143   7.690   8.470  0.0898 -0.0384  0.2618
   56POPC   C1A 1158   5.109   7.062   8.322 -0.0558 -0.0503 -0.1395
   56POPC   D2A 1159   4.860   6.676   8.424  0.3326 -0.1381  0.0691
   56POPC   C3A 1160   4.520   6.475   8.185  0.2597  0.0645 -0.1155
   56POPC   C4A 1161   4.519   6.427   7.759 -0.2412 -0.2179 -0.3145
   56POPC   C1B 1162   4.876   7.480   8.195 -0.2463 -0.0026  0.0962
   56POPC   C2B 1163   4.743   7.382   7.778 -0.0308  0.1170 -0.0884
   56POPC   C3B 1164   4.732   7.484   7.374 -0.3132 -0.1048 -0.0125
   56POPC   C4B 1165   4.888   7.316   6.894 -0.1193 -0.1265  0.0971
   57POPC   NC3 1166   0.340   1.190   9.711  0.0728  0.2310  0.0997
   57POPC   PO4 1167   0.311   1.629   9.841 -0.0749  0.1758  0.0140
   57POPC   GL1 1168   0.413   1.737   9.421 -0.1590  0.3587 -0.3040
   57POPC   GL2 1169   0.732   1.955   9.535 -0.0753  0.0594  0.0317
   57POPC   C1A 1170   0.609   1.833   9.010 -0.0186  0.0771  0.1928
   57POPC   D2A 1171   0.974   1.960   8.723 -0.1775  0.2486 -0.2579
   57POPC   C3A 1172   0.879   1.959   8.296 -0.2714 -0.2432  0.0759
   57POPC   C4A 1173   1.117   1.908   7.950  0.3144  0.1797 -0.0796
   57POPC   C1B 1174   1.055   1.715   9.172  0.3935 -0.0567  0.0445
   57POPC   C2B 1175   1.342   1.643   8.761  0.0270  0.0436 -0.0175
   57POPC   C3B 1176   1.472   1.860   8.463 -0.1092 -0.4350 -0.0700
   57POPC   C4B 1177   1.475   1.666   8.150  0.1503  0.0279 -0.1825
   58POPC   NC3 1178   0.758   0.939   9.731 -0.0636  0.0912 -0.4189
   58POPC   PO4 1179   0.772   0.831   9.460 -0.2190 -0.2896  0.1790
   58POPC   GL1 1180   0.913   0.709   9.170  0.0553 -0.2086  0.0853
   58POPC   GL2 1181   1.217   0.618   9.137  0.2499  0.3309 -0.0696
   58POPC   C1A 1182   0.990   0.793   8.672 -0.1814  0.1248 -0.1335
   58POPC   D2A 1183   1.130   1.002   8.451 -0.2955 -0.0028  0.2958
   58POPC   C3A 1184   1.536   1.310   8.465  0.1100  0.2344 -0.2081
   58POPC   C4A 1185   1.905   1.602   8.498  0.0861 -0.1206  0.1408
   58POPC   C1B 1186   1.491   0.888   9.210  0.2155 -0.1679 -0.1320
   58POPC   C2B 1187   1.790   0.955   9.070  0.1083 -0.1727 -0.0313
   58POPC   C3B 1188   1.948   1.161   8.755  0.0307 -0.1970 -0.0825
   58POPC   C4B 1189   2.390   1.490   8.857  0.0967 -0.1189  0.1605
   59POPC   NC3 1190   0.626   1.984  10.049 -0.1643 -0.1816  0.0313
   59POPC   PO4 1191   0.982   2.117  10.304 -0.1616 -0.1315 -0.1482
   59POPC   GL1 1192   1.084   2.301   9.917  0.0336 -0.1252 -0.1752
   59POPC   GL2 1193   0.754   2.425   9.874 -0.2642 -0.1403 -0.3141
   59POPC   C1A 1194   1.284   2.128   9.531  0.1551  0.0793  0.2912
   59POPC   D2A 1195   1.547   2.020   9.158  0.1244 -0.1702  0.0478
   59POPC   C3A 1196   1.368   2.276   8.763  0.1078 -0.4621 -0.1108
   59POPC   C4A 1197   1.387   2.686   8.628  0.0412  0.1273  0.1151
   59POPC   C1B 1198   0.778   2.709   9.391 -0.3347  0.0956  0.2138
   59POPC   C2B 1199   0.736   2.657   8.916 -0.0200 -0.1519  0.1658
   59POPC   C3B 1200   0.938   2.466   8.546  0.1416  0.1473  0.1694
   59POPC   C4B 1201   1.319   2.301   8.280 -0.0427  0.3487 -0.0356
   60POPC   NC3 1202   4.460   6.248   9.035 -0.1276 -0.4238 -0.0320
   60POPC   PO4 1203   4.907   6.382   9.212 -0.0642  0.0515  0.2062
   60POPC   GL1 1204   4.907   6.266   8.752  0.0263  0.2193 -0.1178
   60POPC   GL2 1205   4.602   6.134   8.553  0.3833  0.1368 -0.1310
   60POPC   C1A 1206   5.069   6.260   8.353 -0.2404 -0.0995  0.2074
   60POPC   D2A 1207   5.074   6.382   7.894 -0.0238 -0.2334  0.2250
   60POPC   C3A 1208   4.941   6.151   7.559  0.0580  0.1728  0.3646
   60POPC   C4A 1209   4.714   6.408   7.193  0.2338  0.0344 -0.2555
   60POPC   C1B 1210   4.405   5.736   8.417  0.1279  0.0048 -0.2259
   60POPC   C2B 1211   4.398   5.578   8.001  0.1264  0.2956  0.3488
   60POPC   C3B 1212   4.353   5.456   7.534 -0.1583  0.1225 -0.0465
   60POPC   C4B 1213   4.418   5.416   7.137  0.3488 -0.1446 -0.0909
   61POPC   NC3 1214   7.315   5.276   9.059 -0.1862  0.0474  0.1283
   61POPC   PO4 1215   7.181   5.594   8.917 -0.2604 -0.1806 -0.1886
   61POPC   GL1 1216   7.241   5.586   8.383  0.1771  0.3075 -0.2146
   61POPC   GL2 1217   7.186   5.283   8.522  0.0540 -0.1365  0.2473
   61POPC   C1A 1218   7.360   5.834   8.050  0.1384 -0.1177 -0.0061
   61POPC   D2A 1219   7.548   5.789   7.610 -0.0273 -0.0381 -0.1985
   61POPC   C3A 1220   7.919   6.111   7.605 -0.2683 -0.1722 -0.2168
   61POPC   C4A 1221   7.989   6.484   7.774  0.0211  0.0853 -0.2405
   61POPC   C1B 1222   7.065   5.052   8.222 -0.0854 -0.0508  0.1248
   61POPC   C2B 1223   7.203   4.880   7.836  0.0333  0.0408 -0.0737
   61POPC   C3B 1224   7.401   4.626   7.467  0.2500  0.3647 -0.1314
   61POPC   C4B 1225   7.126   4.535   7.021  0.2885  0.3423  0.1926
   62POPC   NC3 1226   7.768   1.606   8.656 -0.0036 -0.2073 -0.2810
   62POPC   PO4 1227   7.627   1.192   8.721  0.1084 -0.0101 -0.1426
   62POPC   GL1 1228   7.701   1.411   8.260  0.0899  0.1520  0.0166
   62POPC   GL2 1229   7.874   1.729   8.147  0.4636  0.0083 -0.0190
   62POPC   C1A 1230   7.643   1.496   7.739  0.2258  0.0110 -0.0958
   62POPC   D2A 1231   7.616   1.479   7.340 -0.2264 -0.2800 -0.0289
   62POPC   C3A 1232   7.904   1.850   7.146 -0.0172  0.0296  0.3189
   62POPC   C4A 1233   8.218   2.180   7.056  0.0046  0.2578 -0.2597
   62POPC   C1B 1234   8.195   1.959   7.938  0.0958  0.0275  0.0163
   62POPC   C2B 1235   8.490   2.162   7.631 -0.3356  0.2316  0.0707
   62POPC   C3B 1236   8.628   2.366   7.304  0.4813  0.0378 -0.1692
   62POPC   C4B 1237   8.954   2.300   7.046  0.0997 -0.3586 -0.0630
   63POPC   NC3 1238   5.301   5.736   9.654 -0.0433 -0.3392  0.2736
   63POPC   PO4 1239   5.513   6.008   9.458  0.0030 -0.1195 -0.0042
   63POPC   GL1 1240   5.765   5.859   9.065  0.3054 -0.0394 -0.0536
   63POPC   GL2 1241   5.899   6.095   8.840  0.2469  0.1935 -0.0228
   63POPC   C1A 1242   5.735   5.649   8.691 -0.2098  0.0255 -0.0155
   63POPC   D2A 1243   5.170   5.672   8.696  0.2483  0.2253 -0.2334
   63POPC   C3A 1244   4.877   5.799   8.320  0.4634  0.2896  0.1463
   63POPC   C4A 1245   4.678   6.011   8.033  0.0535  0.4726  0.0259
   63POPC   C1B 1246   5.668   6.020   8.417  0.3336  0.0805  0.0476
   63POPC   C2B 1247   5.321   5.761   8.163 -0.0372 -0.0851  0.0587
   63POPC   C3B 1248   5.122   5.793   7.833  0.0269  0.1904  0.1494
   63POPC   C4B 1249   4.866   5.694   7.636  0.0609  0.2355  0.3676
   64POPC   NC3 1250   6.566   2.744   8.718 -0.1669  0.0158 -0.0883
   64POPC   PO4 1251   6.321   2.521   8.565 -0.1520  0.0553 -0.5074
   64POPC   GL1 1252   6.263   2.447   8.172  0.1980  0.0413 -0.4335
   64POPC   GL2 1253   6.183   2.806   7.985  0.0639  0.0391 -0.1044
   64POPC   C1A 1254   5.900   2.308   7.867  0.0856  0.0424  0.0365
   64POPC   D2A 1255   5.773   2.420   7.513  0.0859  0.1619 -0.0776
   64POPC   C3A 1256   5.499   2.344   7.123  0.0610  0.1093 -0.1072
   64POPC   C4A 1257   5.413   2.675   6.746 -0.0232  0.1695 -0.3353
   64POPC   C1B 1258   6.013   2.942   7.592  0.2246 -0.1617 -0.0392
   64POPC   C2B 1259   5.663   3.317   7.455  0.2809  0.0146  0.1668
   64POPC   C3B 1260   5.255   3.259   7.532  0.2933  0.1301 -0.0281
   64POPC   C4B 1261   4.971   3.101   7.657  0.2523 -0.3706 -0.1019
   65POPC   NC3 1262   7.358   0.753   8.784 -0.0152 -0.0881  0.0545
   65POPC   PO4 1263   6.989   0.629   8.639  0.0387 -0.0295 -0.2483
   65POPC   GL1 1264   7.139   0.814   8.268  0.1750 -0.2902  0.1307
   65POPC   GL2 1265   7.423   0.939   8.345  0.3029  0.3124 -0.1483
   65POPC   C1A 1266   7.135   1.012   7.958 -0.2391 -0.1579 -0.1341
   65POPC   D2A 1267   7.321   1.136   7.646 -0.1207  0.0176 -0.0300
   65POPC   C3A 1268   7.076   1.311   7.256 -0.1474  0.0783 -0.3654
   65POPC   C4A 1269   6.738   1.399   6.978 -0.0377  0.0910 -0.2021
   65POPC   C1B 1270   7.633   0.966   7.996 -0.0277  0.2125  0.0576
   65POPC   C2B 1271   7.799   1.007   7.614  0.3307  0.1555  0.1296
   65POPC   C3B 1272   8.057   1.331   7.442 -0.1096  0.1295 -0.1463
   65POPC   C4B 1273   8.223   1.745   7.489 -0.0139 -0.3292  0.3054
   66POPC   NC3 1274   3.323   9.270   9.156  0.0715 -0.0689 -0.3062
   66POPC   PO4 1275   3.628   8.934   8.980  0.1531 -0.1212 -0.0020
   66POPC   GL1 1276   3.445   8.851   8.561  0.1858  0.1317  0.0916
   66POPC   GL2 1277   3.647   9.003   8.367 -0.2189 -0.0117  0.1657
   66POPC   C1A 1278   3.286   8.658   8.220 -0.0813 -0.0667 -0.0239
   66POPC   D2A 1279   2.953   8.396   8.207  0.2737 -0.2042  0.1441
   66POPC   C3A 1280   2.607   8.520   7.908 -0.1174 -0.1973 -0.4106
   66POPC   C4A 1281   2.263   8.566   7.621 -0.0761  0.5096 -0.1311
   66POPC   C1B 1282   3.458   9.059   7.899  0.3226  0.2493  0.1305
   66POPC   C2B 1283   3.456   9.092   7.535 -0.0127 -0.1671  0.2100
   66POPC   C3B 1284   3.500   8.793   7.222  0.0366 -0.0510  0.0879
   66POPC   C4B 1285   3.856   8.535   7.098 -0.0215  0.0322  0.0172
   67POPC   NC3 1286   8.001  10.226   8.906  0.0899 -0.4540 -0.0677
   67POPC   PO4 1287   8.350  10.146   8.574 -0.0837 -0.1477 -0.0615
   67POPC   GL1 1288   8.222  10.226   8.133 -0.0346 -0.0499 -0.1673
   67POPC   GL2 1289   8.312  10.539   8.104  0.3250 -0.0974 -0.1272
   67POPC   C1A 1290   7.982  10.213   7.714  0.2888 -0.5063  0.3639
   67POPC   D2A 1291   7.683  10.043   7.515  0.0907  0.0814  0.1464
   67POPC   C3A 1292   7.666  10.090   7.056 -0.0181 -0.0220 -0.0414
   67POPC   C4A 1293   7.619  10.132   6.590  0.0958  0.0575 -0.1679
   67POPC   C1B 1294   8.714  10.339   8.040 -0.1966 -0.0040  0.0858
   67POPC   C2B 1295   8.582   9.899   7.967  0.2125 -0.2832  0.0205
   67POPC   C3B 1296   8.480   9.594   8.188  0.3202  0.0420 -0.2304
   67POPC   C4B 1297   8.592   9.258   8.501 -0.0913  0.0387  0.0551
   68POPC   NC3 1298   8.377   6.936   8.629  0.0715 -0.0507  0.2721
   68POPC   PO4 1299   8.347   6.670   8.376  0.2247 -0.1182 -0.0246
   68POPC   GL1 1300   8.496   6.572   7.979 -0.2661 -0.1655 -0.0559
   68POPC   GL2 1301   8.548   6.356   8.010 -0.2954 -0.0044  0.2647
   68POPC   C1A 1302   8.472   6.519   7.540 -0.0290 -0.2444 -0.0070
   68POPC   D2A 1303   8.686   6.486   7.140 -0.0561  0.1110 -0.1533
   68POPC   C3A 1304   8.347   6.524   6.868  0.0668 -0.0986  0.1970
   68POPC   C4A 1305   8.071   6.800   6.669  0.0910  0.1433 -0.1799
   68POPC   C1B 1306   8.858   6.031   7.935 -0.1225  0.1471 -0.3604
   68POPC   C2B 1307   9.361   5.918   7.858  0.1857 -0.0089 -0.2209
   68POPC   C3B 1308   9.835   5.769   7.730 -0.1498 -0.0855 -0.1988
   68POPC   C4B 1309  10.053   5.788   7.327 -0.0027  0.3272 -0.1015
   69POPC   NC3 1310   4.339   1.711   9.344 -0.0347  0.0598 -0.0731
   69POPC   PO4 1311   4.482   1.980   8.945 -0.0344  0.0678 -0.0371
   69POPC   GL1 1312   4.863   2.065   8.542 -0.2764  0.3424  0.0418
   69POPC   GL2 1313   4.796   2.306   8.263 -0.2033 -0.1456  0.0512
   69POPC   C1A 1314   5.144   1.999   8.218  0.0852 -0.2618 -0.1604
   69POPC   D2A 1315   5.296   1.824   7.755 -0.0767  0.0397  0.1021
   69POPC   C3A 1316   5.155   1.955   7.335  0.0389 -0.0361  0.1255
   69POPC   C4A 1317   4.755   2.090   7.166  0.2267  0.1552  0.2915
   69POPC   C1B 1318   4.801   2.207   7.854  0.0161 -0.2927  0.1155
   69POPC   C2B 1319   4.669   1.890   7.607  0.0770 -0.1504 -0.3307
   69POPC   C3B 1320   4.868   1.519   7.602 -0.0758 -0.2154  0.3934
   69POPC   C4B 1321   5.233   1.287   7.751  0.4063  0.2558  0.5883
   70POPC   NC3 1322   8.201   3.689   8.950 -0.1208 -0.0129 -0.1461
   70POPC   PO4 1323   7.708   4.005   8.998 -0.1554  0.3042  0.0695
   70POPC   GL1 1324   7.752   3.889   8.582  0.1193  0.0205  0.1329
   70POPC   GL2 1325   7.867   3.569   8.470  0.2492 -0.3467  0.1267
   70POPC   C1A 1326   7.826   4.014   8.206  0.0259 -0.0319 -0.1215
   70POPC   D2A 1327   7.880   3.986   7.762 -0.3051 -0.3045 -0.0764
   70POPC   C3A 1328   7.480   4.097   7.530 -0.2151 -0.3512 -0.0651
   70POPC   C4A 1329   7.284   4.062   7.190 -0.1360 -0.3110  0.2270
   70POPC   C1B 1330   7.675   3.519   8.081 -0.0547 -0.1651  0.0603
   70POPC   C2B 1331   7.456   3.637   7.712 -0.1573  0.3120 -0.0501
   70POPC   C3B 1332   7.493   3.498   7.368 -0.1591 -0.0712  0.1315
   70POPC   C4B 1333   7.766   3.431   7.036  0.2195 -0.1368 -0.2898
   71POPC   NC3 1334   0.527   4.501   9.813 -0.0951 -0.0212 -0.2218
   71POPC   PO4 1335   0.099   4.414   9.496 -0.1588 -0.2298 -0.0707
   71POPC   GL1 1336   0.031   4.323   9.095 -0.2491 -0.3009 -0.2846
   71POPC   GL2 1337  -0.282   4.115   9.173  0.1426  0.3154 -0.0373
   71POPC   C1A 1338  -0.278   4.557   8.904 -0.1869  0.2286  0.0337
   71POPC   D2A 1339  -0.185   4.641   8.480  0.0239  0.0256 -0.2399
   71POPC   C3A 1340  -0.039   4.545   8.158  0.0317 -0.1070 -0.0268
   71POPC   C4A 1341   0.032   4.394   7.845  0.1128 -0.1160 -0.1950
   71POPC   C1B 1342  -0.342   4.101   8.700 -0.0567  0.1931 -0.1545
   71POPC   C2B 1343  -0.007   4.074   8.335 -0.0613 -0.3396  0.1251
   71POPC   C3B 1344   0.241   3.891   8.085 -0.2155 -0.0324  0.1653
   71POPC   C4B 1345   0.657   3.900   7.743  0.1661  0.1026 -0.1585
   72POPC   NC3 1346   1.301   0.131   8.983 -0.2513 -0.0726  0.0765
   72POPC   PO4 1347   1.170  -0.286   8.881 -0.1949 -0.0080 -0.1236
   72POPC   GL1 1348   1.128  -0.329   8.411 -0.1572 -0.0927  0.0209
   72POPC   GL2 1349   0.925  -0.623   8.369 -0.0945  0.1333  0.0049
   72POPC   C1A 1350   1.011  -0.323   7.896 -0.4076  0.1826  0.2680
   72POPC   D2A 1351   0.923  -0.320   7.422  0.0022  0.1976  0.2073
   72POPC   C3A 1352   0.825  -0.047   7.075 -0.0638 -0.0743 -0.1572
   72POPC   C4A 1353   1.101   0.196   7.094  0.0717 -0.1801 -0.3716
   72POPC   C1B 1354   1.103  -0.886   8.072 -0.4835  0.0300  0.2504
   72POPC   C2B 1355   1.565  -1.136   7.924  0.0528 -0.2802  0.0430
   72POPC   C3B 1356   1.666  -1.088   7.447  0.0923 -0.1568  0.0341
   72POPC   C4B 1357   1.500  -0.992   7.091 -0.1679 -0.1867 -0.1529
   73POPC   NC3 1358   4.666   5.108   9.465 -0.0028 -0.0107 -0.1613
   73POPC   PO4 1359   4.218   5.215   9.341 -0.3244 -0.1032  0.1430
   73POPC   GL1 1360   4.095   4.991   8.943  0.2231 -0.0437  0.0193
   73POPC   GL2 1361   3.719   5.059   8.835  0.0242 -0.1260 -0.3085
   73POPC   C1A 1362   4.270   4.802   8.590  0.1535 -0.2053  0.2147
   73POPC   D2A 1363   4.592   5.011   8.188  0.0603  0.4005  0.0855
   73POPC   C3A 1364   4.270   4.886   8.015  0.4371  0.1493 -0.2461
   73POPC   C4A 1365   4.111   4.564   7.573 -0.4423  0.0266  0.2282
   73POPC   C1B 1366   3.589   5.131   8.469 -0.1989  0.0618  0.1567
   73POPC   C2B 1367   3.322   5.085   8.191 -0.2502 -0.2235 -0.0880
   73POPC   C3B 1368   3.296   5.042   7.802 -0.2004  0.1622 -0.2260
   73POPC   C4B 1369   3.361   5.300   7.457 -0.2508  0.1033 -0.0619
   74POPC   NC3 1370   1.348   5.861   9.295  0.0020 -0.0071  0.1313
   74POPC   PO4 1371   1.471   5.537   9.532  0.2189  0.2536 -0.0957
   74POPC   GL1 1372   1.285   5.312   9.139  0.0509 -0.2985  0.0084
   74POPC   GL2 1373   1.386   5.087   8.865 -0.3164  0.4903 -0.3628
   74POPC   C1A 1374   1.080   4.926   9.192 -0.0795 -0.0570 -0.0820
   74POPC   D2A 1375   0.820   4.533   9.144  0.0127 -0.0082 -0.1240
   74POPC   C3A 1376   0.445   4.714   9.006 -0.1816  0.1932  0.1276
   74POPC   C4A 1377   0.084   4.955   8.775  0.0471  0.3205  0.5160
   74POPC   C1B 1378   1.482   4.685   8.671  0.3875 -0.2738 -0.0962
   74POPC   C2B 1379   1.483   4.502   8.329 -0.0109 -0.2212  0.0573
   74POPC   C3B 1380   1.436   4.464   7.935  0.0703  0.0525 -0.4121
   74POPC   C4B 1381   1.577   4.377   7.597  0.1144 -0.0544  0.3434
   75POPC   NC3 1382   7.957   5.836   8.794  0.1533 -0.0894 -0.0170
   75POPC   PO4 1383   8.247   5.606   8.714 -0.0254 -0.2048  0.1936
   75POPC   GL1 1384   8.113   5.626   8.292  0.0658 -0.2774  0.1208
   75POPC   GL2 1385   7.844   5.860   8.242  0.0094  0.2423  0.0926
   75POPC   C1A 1386   7.937   5.604   7.854  0.4471  0.4173 -0.0873
   75POPC   D2A 1387   7.788   5.272   7.572  0.2012  0.0017 -0.2137
   75POPC   C3A 1388   7.697   4.937   7.854 -0.0013  0.3102  0.1381
   75POPC   C4A 1389   7.496   4.815   8.324  0.1845  0.1704  0.1530
   75POPC   C1B 1390   8.175   6.032   8.062  0.1164 -0.1677  0.2347
   75POPC   C2B 1391   8.368   5.995   7.680  0.1761  0.0270  0.1749
   75POPC   C3B 1392   8.359   5.962   7.221 -0.1032  0.0648  0.3392
   75POPC   C4B 1393   8.225   5.998   6.820 -0.0715 -0.1084  0.1200
   76POPC   NC3 1394   4.488   8.248   8.678  0.5112  0.0313  0.0214
   76POPC   PO4 1395   4.981   8.197   8.761 -0.1038  0.4166 -0.1190
   76POPC   GL1 1396   5.242   8.229   8.381 -0.1734 -0.0214  0.1317
   76POPC   GL2 1397   5.409   8.070   8.221 -0.0788 -0.1381  0.2912
   76POPC   C1A 1398   5.240   8.482   7.984  0.1808  0.2085  0.0920
   76POPC   D2A 1399   5.096   8.285   7.602  0.0720  0.0012 -0.1215
   76POPC   C3A 1400   5.249   8.152   7.167  0.1381 -0.1795 -0.1706
   76POPC   C4A 1401   5.526   7.859   6.889  0.2362  0.0970 -0.2305
   76POPC   C1B 1402   5.587   8.144   7.822  0.2604  0.3829 -0.0913
   76POPC   C2B 1403   5.548   8.413   7.401 -0.5287 -0.0625  0.1317
   76POPC   C3B 1404   5.731   8.222   7.039 -0.0478 -0.2984 -0.0024
   76POPC   C4B 1405   6.073   8.134   6.759 -0.1495  0.4422  0.0835
   77POPC   NC3 1406   7.727   3.522   8.934  0.0659 -0.1593  0.1329
   77POPC   PO4 1407   7.864   3.063   8.986  0.0128 -0.0220 -0.1894
   77POPC   GL1 1408   8.098   3.130   8.655 -0.1814  0.3080 -0.0384
   77POPC   GL2 1409   8.366   3.211   8.720 -0.4560  0.0896 -0.3230
   77POPC   C1A 1410   7.950   3.123   8.188  0.2675  0.2734  0.2169
   77POPC   D2A 1411   7.880   2.767   7.875 -0.0374 -0.2680 -0.4328
   77POPC   C3A 1412   7.790   2.358   7.941 -0.2451 -0.0727  0.4291
   77POPC   C4A 1413   7.698   2.001   7.706 -0.3354  0.1135  0.0405
   77POPC   C1B 1414   8.593   3.259   8.332  0.1352 -0.0504 -0.0052
   77POPC   C2B 1415   8.382   3.083   7.973 -0.1015 -0.3526 -0.0911
   77POPC   C3B 1416   8.698   3.123   7.502  0.1341 -0.0543 -0.3177
   77POPC   C4B 1417   8.944   2.735   7.234 -0.0804  0.1513 -0.1541
   78POPC   NC3 1418   5.083   4.900   9.202  0.1749 -0.0502  0.0591
   78POPC   PO4 1419   4.962   5.411   9.233  0.2484  0.0908 -0.1662
   78POPC   GL1 1420   5.081   5.168   8.847  0.0925 -0.1157 -0.0766
   78POPC   GL2 1421   5.405   5.212   8.857  0.0975 -0.3471 -0.0482
   78POPC   C1A 1422   4.976   5.300   8.405 -0.2051 -0.1135 -0.3066
   78POPC   D2A 1423   5.036   5.338   7.967 -0.3279  0.2048  0.1801
   78POPC   C3A 1424   4.724   5.138   7.687 -0.0606  0.1247  0.4966
   78POPC   C4A 1425   4.856   5.017   7.286  0.4534  0.1721 -0.0832
   78POPC   C1B 1426   5.484   5.046   8.499  0.0996 -0.1079 -0.3137
   78POPC   C2B 1427   5.462   5.086   8.108  0.2642 -0.4027  0.1441
   78POPC   C3B 1428   5.625   4.996   7.679 -0.0202 -0.1335  0.1513
   78POPC   C4B 1429   5.693   4.606   7.497  0.1733 -0.0842  0.4720
   79POPC   NC3 1430   7.021   3.032   9.023 -0.0171 -0.1084 -0.3623
   79POPC   PO4 1431   7.220   3.465   8.836  0.0948  0.1233  0.3417
   79POPC   GL1 1432   7.205   3.523   8.366 -0.0600  0.3756  0.0288
   79POPC   GL2 1433   7.197   3.772   8.151 -0.0184  0.4404 -0.2967
   79POPC   C1A 1434   7.396   3.136   8.142  0.1593 -0.0633 -0.0668
   79POPC   D2A 1435   7.300   3.148   7.713 -0.1129 -0.1695 -0.1247
   79POPC   C3A 1436   7.512   3.011   7.277 -0.1588 -0.1651 -0.0360
   79POPC   C4A 1437   7.358   3.146   6.846 -0.1010 -0.1157 -0.0745
   79POPC   C1B 1438   7.396   4.198   8.206 -0.1563 -0.1736 -0.0542
   79POPC   C2B 1439   7.612   4.435   7.880 -0.2749 -0.0335 -0.2273
   79POPC   C3B 1440   8.040   4.480   7.843  0.4310 -0.3527  0.2136
   79POPC   C4B 1441   8.438   4.710   7.896  0.0634  0.2840 -0.0060
   80POPC   NC3 1442   8.868  10.188   8.677 -0.0303  0.0538 -0.1002
   80POPC   PO4 1443   9.307  10.401   8.614 -0.1019 -0.0851 -0.0877
   80POPC   GL1 1444   9.498  10.451   8.188 -0.4068 -0.3291  0.1873
   80POPC   GL2 1445   9.741  10.529   8.138  0.2053 -0.1485  0.2052
   80POPC   C1A 1446   9.277  10.574   7.732  0.0584 -0.3253 -0.1175
   80POPC   D2A 1447   9.151  10.872   7.314  0.1670  0.0038 -0.1051
   80POPC   C3A 1448   9.285  10.878   6.852  0.1000 -0.0281 -0.1559
   80POPC   C4A 1449   9.570  10.816   6.457  0.1376 -0.1833 -0.2020
   80POPC   C1B 1450   9.809  10.691   7.755 -0.1006 -0.0856 -0.1649
   80POPC   C2B 1451  10.122  10.832   7.466  0.0438 -0.1063 -0.0447
   80POPC   C3B 1452  10.022  11.019   7.089  0.0089  0.1503  0.1801
   80POPC   C4B 1453   9.755  11.129   6.767 -0.0110 -0.0552 -0.2968
   81POPC   NC3 1454   5.416   0.899   8.993  0.0946  0.2676  0.1758
   81POPC   PO4 1455   5.485   0.735   8.576  0.0911 -0.3940  0.0753
   81POPC   GL1 1456   5.798   0.760   8.296  0.0037  0.3433  0.3981
   81POPC   GL2 1457   6.093   0.618   8.302 -0.2167  0.1853 -0.0521
   81POPC   C1A 1458   5.755   0.773   7.858 -0.0553  0.2869  0.2460
   81POPC   D2A 1459   5.450   0.709   7.531 -0.0329  0.1017 -0.1757
   81POPC   C3A 1460   5.329   0.962   7.283  0.1155  0.1771  0.1700
   81POPC   C4A 1461   5.325   1.153   6.891  0.3722 -0.4597  0.0603
   81POPC   C1B 1462   6.264   0.417   7.912  0.0454 -0.3836  0.0199
   81POPC   C2B 1463   6.047   0.509   7.507  0.0971  0.0067  0.2101
   81POPC   C3B 1464   5.784   0.383   7.182  0.2289 -0.0794 -0.2252
   81POPC   C4B 1465   5.461   0.451   6.928  0.0131 -0.3618 -0.1038
   82POPC   NC3 1466   8.681   0.653   8.738 -0.0855  0.0564 -0.1407
   82POPC   PO4 1467   8.576   1.061   8.559 -0.1464  0.0594 -0.0982
   82POPC   GL1 1468   8.378   0.777   8.315 -0.1779 -0.0856 -0.1662
   82POPC   GL2 1469   8.517   0.604   8.201  0.0711  0.0313  0.1186
   82POPC   C1A 1470   7.953   0.505   8.131 -0.1995 -0.0807  0.0451
   82POPC   D2A 1471   7.781   0.137   7.990  0.1241 -0.0080  0.1517
   82POPC   C3A 1472   7.509  -0.004   7.697  0.0136 -0.3211 -0.1814
   82POPC   C4A 1473   7.264  -0.098   7.284 -0.0207 -0.1282 -0.0635
   82POPC   C1B 1474   8.691   0.880   7.883  0.0511  0.1198  0.0952
   82POPC   C2B 1475   9.068   0.838   7.729  0.0050 -0.0556  0.0940
   82POPC   C3B 1476   9.473   1.007   7.669 -0.3531  0.2153 -0.2834
   82POPC   C4B 1477   9.688   1.270   7.402  0.2920 -0.3382 -0.0439
   83POPC   NC3 1478   7.122   2.131   8.712  0.2424  0.2699  0.1237
   83POPC   PO4 1479   7.014   2.537   8.616 -0.1424  0.0162 -0.0397
   83POPC   GL1 1480   6.986   2.488   8.208  0.0894 -0.0195 -0.2102
   83POPC   GL2 1481   6.795   2.779   8.100  0.0133 -0.0741  0.0049
   83POPC   C1A 1482   7.195   2.654   7.887  0.1800 -0.0958 -0.0469
   83POPC   D2A 1483   7.232   2.698   7.510 -0.1610 -0.2012 -0.1798
   83POPC   C3A 1484   7.688   2.565   7.448 -0.1224 -0.0619 -0.1899
   83POPC   C4A 1485   8.066   2.362   7.462  0.0844 -0.0893 -0.1444
   83POPC   C1B 1486   6.796   3.033   7.769  0.1714  0.0448  0.0355
   83POPC   C2B 1487   6.441   3.266   7.559  0.0847 -0.3137  0.4013
   83POPC   C3B 1488   6.151   3.273   7.150  0.2051  0.2155 -0.2624
   83POPC   C4B 1489   5.704   3.267   6.960  0.2135  0.2170  0.1453
   84POPC   NC3 1490   6.903   7.939   8.892 -0.0031  0.0910 -0.4115
   84POPC   PO4 1491   6.899   8.352   8.943  0.2797 -0.1776  0.2078
   84POPC   GL1 1492   6.737   8.276   8.502  0.1447  0.1440 -0.0154
   84POPC   GL2 1493   7.038   8.434   8.261  0.2903 -0.1295 -0.0891
   84POPC   C1A 1494   6.596   8.126   8.125 -0.0383  0.2104  0.0977
   84POPC   D2A 1495   6.432   7.981   7.709  0.3936 -0.2221 -0.0540
   84POPC   C3A 1496   6.611   8.153   7.476 -0.0741 -0.3773  0.2290
   84POPC   C4A 1497   6.734   8.459   7.129 -0.1925 -0.1213  0.1296
   84POPC   C1B 1498   7.064   8.269   7.802 -0.0098 -0.2745 -0.0206
   84POPC   C2B 1499   7.139   8.434   7.373 -0.0292  0.1495  0.0421
   84POPC   C3B 1500   7.593   8.334   7.166  0.1688  0.1467 -0.0362
   84POPC   C4B 1501   7.857   7.951   7.050 -0.1793 -0.0550 -0.1508
   85POPC   NC3 1502   8.810   7.203   8.509 -0.1837  0.0474  0.1042
   85POPC   PO4 1503   9.109   7.594   8.524  0.0408 -0.0111  0.2043
   85POPC   GL1 1504   8.865   7.570   8.184 -0.0821  0.1380  0.2765
   85POPC   GL2 1505   8.878   7.282   7.926  0.1282  0.2776  0.2857
   85POPC   C1A 1506   8.602   7.746   7.898  0.1062 -0.0249 -0.1095
   85POPC   D2A 1507   8.397   7.754   7.531  0.2376  0.0914 -0.2235
   85POPC   C3A 1508   8.511   8.007   7.138  0.0025  0.4529  0.0352
   85POPC   C4A 1509   8.438   8.257   6.707  0.0945  0.3899 -0.0228
   85POPC   C1B 1510   8.934   7.412   7.536  0.1297  0.2328  0.3133
   85POPC   C2B 1511   8.766   7.502   7.151  0.2115 -0.3037  0.0757
   85POPC   C3B 1512   8.765   7.537   6.706 -0.0820 -0.2149 -0.1780
   85POPC   C4B 1513   8.912   7.947   6.559  0.3192  0.1146  0.1930
   86POPC   NC3 1514   9.495   3.749   9.295  0.2115 -0.0713  0.0747
   86POPC   PO4 1515   9.351   4.114   8.920 -0.1035  0.3068 -0.2573
   86POPC   GL1 1516   9.449   4.050   8.495 -0.2123  0.0524  0.0328
   86POPC   GL2 1517   9.727   4.247   8.431  0.3376  0.2564  0.4302
   86POPC   C1A 1518   9.558   3.978   8.001  0.1926  0.1589  0.0063
   86POPC   D2A 1519   9.798   4.172   7.618  0.1553  0.0422  0.1967
   86POPC   C3A 1520  10.201   4.123   7.532 -0.0084  0.1690  0.0247
   86POPC   C4A 1521  10.510   3.900   7.610 -0.2630  0.3841  0.1277
   86POPC   C1B 1522   9.530   4.485   8.139  0.0968  0.2389 -0.1908
   86POPC   C2B 1523   9.333   4.458   7.791  0.2674  0.1261 -0.0634
   86POPC   C3B 1524   9.376   4.152   7.408 -0.2484 -0.0948  0.0341
   86POPC   C4B 1525   9.491   3.854   7.158  0.3228 -0.3237 -0.1544
   87POPC   NC3 1526   4.922   3.184   9.311  0.0331  0.2047 -0.1635
   87POPC   PO4 1527   5.025   3.704   9.473  0.1381  0.0513  0.2554
   87POPC   GL1 1528   4.753   3.925   9.245  0.0865  0.1316  0.2932
   87POPC   GL2 1529   4.666   4.224   9.158  0.1069 -0.2615 -0.0564
   87POPC   C1A 1530   4.524   3.803   8.891  0.0820  0.2980  0.2203
   87POPC   D2A 1531   4.250   3.970   8.454  0.0133  0.0343 -0.0473
   87POPC   C3A 1532   3.943   3.852   8.118  0.0523 -0.0564  0.0575
   87POPC   C4A 1533   3.834   3.781   7.711  0.0994  0.1599  0.2751
   87POPC   C1B 1534   4.967   4.185   8.751 -0.5928 -0.2494 -0.2107
   87POPC   C2B 1535   5.289   4.284   8.370 -0.0661  0.1515 -0.2954
   87POPC   C3B 1536   5.584   4.057   8.140  0.2896 -0.0829 -0.1750
   87POPC   C4B 1537   5.859   4.107   7.744  0.0351 -0.1597 -0.0083
   88POPC   NC3 1538   6.554   1.252   8.671  0.2032 -0.2129  0.0527
   88POPC   PO4 1539   6.368   1.613   8.377 -0.1050 -0.0537 -0.0149
   88POPC   GL1 1540   6.075   1.894   8.105 -0.4700  0.0938  0.1722
   88POPC   GL2 1541   6.280   2.003   7.841  0.0282 -0.1237  0.0280
   88POPC   C1A 1542   5.794   1.816   7.750  0.0099 -0.2744  0.2959
   88POPC   D2A 1543   5.619   1.822   7.334  0.0676  0.0466  0.0784
   88POPC   C3A 1544   5.241   1.426   7.268  0.0207 -0.1873  0.0846
   88POPC   C4A 1545   4.930   1.597   7.004  0.0550 -0.0325  0.0041
   88POPC   C1B 1546   6.392   2.430   7.738 -0.0775 -0.1441 -0.0137
   88POPC   C2B 1547   6.618   2.679   7.488  0.3690  0.1203  0.1085
   88POPC   C3B 1548   6.518   2.907   7.177 -0.1387 -0.0607 -0.1217
   88POPC   C4B 1549   6.756   3.001   6.743  0.1142 -0.1670 -0.1989
   89POPC   NC3 1550   0.303   5.323   9.299  0.2634  0.0027  0.1457
   89POPC   PO4 1551   0.395   5.743   9.295 -0.1336 -0.0273 -0.0329
   89POPC   GL1 1552   0.312   5.764   8.879 -0.1301  0.2780  0.3046
   89POPC   GL2 1553   0.140   5.456   8.781 -0.1950  0.1243 -0.2592
   89POPC   C1A 1554   0.474   5.969   8.504  0.0552 -0.1638 -0.0583
   89POPC   D2A 1555   0.615   6.252   8.096 -0.0707 -0.1291  0.0870
   89POPC   C3A 1556   1.058   6.276   7.783 -0.2576 -0.1362 -0.2686
   89POPC   C4A 1557   1.157   6.166   7.377  0.2029 -0.1232 -0.1062
   89POPC   C1B 1558   0.464   5.367   8.572 -0.0358 -0.3371 -0.0180
   89POPC   C2B 1559   0.625   5.316   8.172  0.2554 -0.1449 -0.2522
   89POPC   C3B 1560   0.595   4.900   7.890 -0.0604 -0.1105  0.1259
   89POPC   C4B 1561   1.063   4.730   7.968  0.1847  0.0143  0.3408
   90POPC   NC3 1562   1.457   3.298  10.421 -0.0355 -0.1636  0.2405
   90POPC   PO4 1563   1.537   3.626  10.188 -0.0761 -0.2961  0.1707
   90POPC   GL1 1564   1.543   3.457   9.805 -0.0164  0.0268  0.2690
   90POPC   GL2 1565   1.557   3.204   9.786 -0.3232  0.0884  0.2672
   90POPC   C1A 1566   1.718   3.531   9.372  0.0779  0.1261  0.0832
   90POPC   D2A 1567   1.952   3.409   8.988  0.2455 -0.0679  0.0852
   90POPC   C3A 1568   2.183   3.687   8.707  0.3413 -0.1670 -0.2022
   90POPC   C4A 1569   2.361   3.726   8.261  0.1359 -0.0229  0.2021
   90POPC   C1B 1570   1.372   3.165   9.382 -0.1622  0.1458 -0.5045
   90POPC   C2B 1571   1.363   3.435   8.979 -0.2764  0.0389 -0.0963
   90POPC   C3B 1572   1.224   3.715   8.583 -0.0602  0.0023  0.0904
   90POPC   C4B 1573   1.412   4.091   8.651  0.0107  0.0241 -0.2005
   91POPC   NC3 1574   6.723   7.278   9.224 -0.2595  0.0085  0.2291
   91POPC   PO4 1575   6.652   7.452   8.862  0.0383  0.1676  0.1983
   91POPC   GL1 1576   6.357   7.423   8.441  0.2219  0.0665  0.3960
   91POPC   GL2 1577   6.577   7.151   8.111  0.0451 -0.2028  0.0770
   91POPC   C1A 1578   6.161   7.356   8.015  0.1457 -0.0647 -0.3486
   91POPC   D2A 1579   6.146   7.288   7.663  0.0856  0.1584  0.1369
   91POPC   C3A 1580   6.242   7.545   7.348 -0.4493 -0.1872  0.0544
   91POPC   C4A 1581   6.573   7.739   7.130 -0.2858  0.1734 -0.0621
   91POPC   C1B 1582   6.349   6.897   7.907 -0.2308  0.1589  0.3041
   91POPC   C2B 1583   6.462   6.870   7.469 -0.0118 -0.0003  0.0848
   91POPC   C3B 1584   6.817   6.886   7.209 -0.2524  0.1732 -0.1767
   91POPC   C4B 1585   7.130   7.038   6.852  0.0655  0.2511 -0.2190
   92POPC   NC3 1586   9.033   8.998   9.747  0.1441 -0.0476 -0.1573
   92POPC   PO4 1587   9.045   8.888   9.308  0.2872  0.0748 -0.2428
   92POPC   GL1 1588   9.221   8.919   8.845  0.1108 -0.0330  0.1346
   92POPC   GL2 1589   9.277   9.289   8.733  0.0404 -0.1434 -0.1560
   92POPC   C1A 1590   9.244   9.000   8.379  0.1647  0.0223  0.1397
   92POPC   D2A 1591   8.904   9.186   8.125  0.0180 -0.2074 -0.0850
   92POPC   C3A 1592   8.834   9.141   7.667 -0.2184  0.0865  0.0799
   92POPC   C4A 1593   8.901   8.753   7.341 -0.1669  0.0740  0.1951
   92POPC   C1B 1594   9.052   9.470   8.517  0.0780  0.0563  0.2091
   92POPC   C2B 1595   8.999   9.695   8.192  0.1857 -0.0610 -0.0284
   92POPC   C3B 1596   8.969   9.631   7.752  0.0441  0.0443 -0.2614
   92POPC   C4B 1597   8.757   9.619   7.426  0.0785 -0.1867 -0.0888
   93POPC   NC3 1598   6.460  10.308   9.338  0.3676  0.0526  0.1214
   93POPC   PO4 1599   6.466  10.336   8.872 -0.1077  0.1720  0.0777
   93POPC   GL1 1600   6.322  10.303   8.447  0.1659  0.1595  0.0261
   93POPC   GL2 1601   6.495  10.438   8.222  0.0875  0.0570 -0.1201
   93POPC   C1A 1602   6.044  10.061   8.226  0.0129  0.1069 -0.0815
   93POPC   D2A 1603   5.647   9.872   8.046  0.1317 -0.2293  0.0373
   93POPC   C3A 1604   5.343   9.681   7.770 -0.2617  0.3116  0.1310
   93POPC   C4A 1605   5.183   9.587   7.409  0.1787 -0.2890  0.0729
   93POPC   C1B 1606   6.596  10.278   7.844 -0.2849  0.2435  0.1287
   93POPC   C2B 1607   6.441  10.545   7.557  0.0952  0.2071 -0.1353
   93POPC   C3B 1608   6.457  10.589   7.174 -0.2911 -0.0111  0.1532
   93POPC   C4B 1609   6.556  10.705   6.673 -0.0080 -0.0163  0.1537
   94POPC   NC3 1610   3.478  10.137   8.956  0.3013  0.1094 -0.1340
   94POPC   PO4 1611   3.151   9.911   8.755 -0.2229  0.1341  0.0802
   94POPC   GL1 1612   3.039   9.668   8.337  0.1559  0.0693 -0.1645
   94POPC   GL2 1613   2.794   9.714   8.064  0.2077 -0.3423 -0.3256
   94POPC   C1A 1614   3.270   9.545   7.955  0.3001  0.4330  0.0593
   94POPC   D2A 1615   3.626   9.567   7.732  0.1966  0.1182 -0.1570
   94POPC   C3A 1616   3.716   9.604   7.269 -0.2600  0.0392  0.1304
   94POPC   C4A 1617   4.060   9.537   6.977  0.1507  0.2247 -0.0971
   94POPC   C1B 1618   2.714   9.644   7.642 -0.3343  0.1821  0.1246
   94POPC   C2B 1619   2.844   9.722   7.161 -0.0856 -0.0669 -0.0222
   94POPC   C3B 1620   2.745  10.122   6.943  0.0984 -0.2003  0.0985
   94POPC   C4B 1621   3.125  10.253   6.778 -0.1926  0.2361 -0.3056
   95POPC   NC3 1622   2.283   0.341   9.646  0.2136  0.1244  0.3346
   95POPC   PO4 1623   1.981   0.192   9.386 -0.0762  0.1355  0.3111
   95POPC   GL1 1624   1.731   0.374   9.005  0.3822 -0.2498 -0.2419
   95POPC   GL2 1625   2.072   0.600   8.914 -0.0141  0.2538  0.1809
   95POPC   C1A 1626   1.534   0.704   8.775 -0.0049  0.0427  0.0881
   95POPC   D2A 1627   1.698   0.876   8.398 -0.0714 -0.3537  0.2604
   95POPC   C3A 1628   1.625   1.005   7.914  0.3416  0.0010 -0.0733
   95POPC   C4A 1629   1.439   0.959   7.627  0.0996  0.1412  0.0870
   95POPC   C1B 1630   2.138   0.543   8.549  0.0455  0.1579  0.0064
   95POPC   C2B 1631   2.084   0.350   8.156 -0.0751  0.1697 -0.6197
   95POPC   C3B 1632   2.287   0.482   7.770 -0.3952  0.4088 -0.2816
   95POPC   C4B 1633   2.362   0.442   7.288  0.2064  0.2462  0.0880
   96POPC   NC3 1634   7.818   2.640   8.630 -0.2304  0.1277 -0.3217
   96POPC   PO4 1635   7.648   2.136   8.698 -0.1447  0.0288  0.0435
   96POPC   GL1 1636   7.492   1.975   8.308  0.0706 -0.1900 -0.0980
   96POPC   GL2 1637   7.277   1.739   8.416 -0.0464  0.0301 -0.1595
   96POPC   C1A 1638   7.314   2.093   7.985 -0.2930 -0.0944 -0.1355
   96POPC   D2A 1639   7.288   2.181   7.520 -0.1701  0.1082  0.0049
   96POPC   C3A 1640   7.418   2.316   7.090 -0.1132 -0.2007  0.1707
   96POPC   C4A 1641   7.720   2.601   6.944 -0.2643  0.2609 -0.2044
   96POPC   C1B 1642   7.258   1.552   8.056  0.4831 -0.3392  0.0849
   96POPC   C2B 1643   7.191   1.700   7.707  0.2113  0.0311 -0.3016
   96POPC   C3B 1644   7.212   1.783   7.186 -0.1983  0.3323 -0.3259
   96POPC   C4B 1645   7.041   2.138   6.898  0.1042  0.0478 -0.1168
   97POPC   NC3 1646   5.816   7.559   8.988  0.0772  0.0098 -0.0109
   97POPC   PO4 1647   6.064   7.717   8.751  0.0008 -0.0011  0.0971
   97POPC   GL1 1648   5.969   7.795   8.414 -0.1599  0.2699  0.0211
   97POPC   GL2 1649   6.163   7.858   8.140 -0.1952  0.0194  0.0894
   97POPC   C1A 1650   5.643   7.684   8.146 -0.1419 -0.1266  0.1575
   97POPC   D2A 1651   5.791   7.619   7.725 -0.0310  0.1440  0.0314
   97POPC   C3A 1652   5.548   7.836   7.403 -0.1468 -0.3094 -0.4494
   97POPC   C4A 1653   5.190   7.698   7.221 -0.0513 -0.0259  0.2437
   97POPC   C1B 1654   6.533   7.650   8.038  0.0930 -0.0340  0.1885
   97POPC   C2B 1655   6.650   7.361   7.670 -0.0424  0.1567  0.3843
   97POPC   C3B 1656   7.076   7.303   7.508 -0.1707 -0.0015  0.1649
   97POPC   C4B 1657   7.353   7.190   7.296 -0.1271  0.0627  0.1014
   98POPC   NC3 1658   1.589   1.325  10.112  0.2662  0.0113 -0.4325
   98POPC   PO4 1659   1.148   1.153   9.921 -0.4025 -0.1456 -0.0068
   98POPC   GL1 1660   1.177   1.163   9.427  0.0274 -0.2882 -0.0374
   98POPC   GL2 1661   1.038   1.186   9.123  0.1712 -0.1063 -0.2549
   98POPC   C1A 1662   1.574   1.450   9.206 -0.0157  0.3619 -0.0828
   98POPC   D2A 1663   1.885   1.670   9.084 -0.0972 -0.0541  0.0123
   98POPC   C3A 1664   1.887   2.008   8.728  0.1385 -0.0801 -0.1532
   98POPC   C4A 1665   1.766   2.414   8.513 -0.0957 -0.1086  0.3555
   98POPC   C1B 1666   0.960   1.313   8.757  0.1913 -0.1517 -0.0227
   98POPC   C2B 1667   1.041   1.434   8.299  0.0720 -0.0339  0.0204
   98POPC   C3B 1668   1.130   1.259   7.986  0.3433  0.1491  0.5082
   98POPC   C4B 1669   0.909   1.131   7.663 -0.2682 -0.1180 -0.0625
   99POPC   NC3 1670   1.380   9.192   8.524  0.1774  0.2242 -0.3305
   99POPC   PO4 1671   1.745   9.417   8.644  0.2834 -0.0188  0.1400
   99POPC   GL1 1672   1.761   9.625   8.285 -0.1151 -0.0654  0.1399
   99POPC   GL2 1673   1.865   9.892   8.279  0.2618  0.0053  0.1204
   99POPC   C1A 1674   1.463   9.868   8.056 -0.0103  0.0249  0.5198
   99POPC   D2A 1675   1.506  10.175   7.741 -0.2365 -0.1036  0.0654
   99POPC   C3A 1676   1.405  10.256   7.284 -0.1775  0.2044 -0.0362
   99POPC   C4A 1677   1.557  10.628   6.961  0.3731 -0.1354  0.1724
   99POPC   C1B 1678   1.932   9.921   7.800  0.0746 -0.0615 -0.2440
   99POPC   C2B 1679   2.078  10.127   7.472 -0.0517  0.1839 -0.1224
   99POPC   C3B 1680   1.861  10.167   7.070  0.0223  0.3041 -0.0918
   99POPC   C4B 1681   1.537  10.100   6.847 -0.0415  0.2072 -0.0715
  100POPC   NC3 1682   0.631   7.004   8.631  0.0814 -0.5028 -0.0209
  100POPC   PO4 1683   0.210   6.942   8.538  0.1135  0.1308 -0.1471
  100POPC   GL1 1684   0.333   6.804   8.099  0.2560 -0.2538 -0.0832
  100POPC   GL2 1685   0.009   6.648   7.986 -0.2638  0.4001  0.2746
  100POPC   C1A 1686   0.336   7.121   7.640 -0.2392  0.0869 -0.0988
  100POPC   D2A 1687   0.153   7.431   7.492  0.0254 -0.2176 -0.2535
  100POPC   C3A 1688  -0.055   7.767   7.624  0.1901 -0.0223  0.2643
  100POPC   C4A 1689  -0.018   7.705   8.081 -0.0205  0.0530 -0.0675
  100POPC   C1B 1690   0.282   6.405   7.767 -0.2064 -0.0826  0.0929
  100POPC   C2B 1691   0.292   6.073   7.371  0.0321  0.1003  0.0627
  100POPC   C3B 1692   0.070   5.773   6.976  0.0580 -0.2513  0.2692
  100POPC   C4B 1693   0.196   5.354   6.832  0.0736  0.0858  0.2548
  101POPC   NC3 1694   9.717   0.186   8.675  0.1065 -0.1186 -0.2486
  101POPC   PO4 1695   9.931   0.529   8.902  0.1615 -0.3134 -0.1937
  101POPC   GL1 1696   9.838   0.670   8.494 -0.0108 -0.0009  0.1016
  101POPC   GL2 1697   9.483   0.934   8.505 -0.2635  0.0422 -0.1144
  101POPC   C1A 1698  10.016   0.530   8.082 -0.0534 -0.3123  0.1991
  101POPC   D2A 1699  10.407   0.598   7.845  0.2433 -0.0755 -0.1515
  101POPC   C3A 1700  10.662   0.297   7.672  0.1490  0.0003 -0.1627
  101POPC   C4A 1701  10.795   0.074   7.360 -0.1156 -0.0832  0.4859
  101POPC   C1B 1702   9.835   1.049   8.097 -0.0101  0.2727  0.2983
  101POPC   C2B 1703  10.249   1.129   7.971 -0.1186 -0.1582 -0.1131
  101POPC   C3B 1704  10.480   1.092   7.621  0.2137 -0.2698  0.0536
  101POPC   C4B 1705  10.456   0.768   7.232 -0.0173 -0.0935 -0.3323
  102POPC   NC3 1706   2.210   2.899  10.279 -0.1509 -0.1453  0.1222
  102POPC   PO4 1707   1.860   2.723   9.979  0.1447 -0.2670  0.3380
  102POPC   GL1 1708   2.010   2.855   9.669 -0.0102  0.1700  0.1550
  102POPC   GL2 1709   2.355   3.071   9.700 -0.1262  0.2140  0.2475
  102POPC   C1A 1710   1.964   3.028   9.326 -0.0302  0.0927  0.0012
  102POPC   D2A 1711   1.612   2.980   9.005  0.2075  0.1506 -0.1899
  102POPC   C3A 1712   1.657   3.099   8.687  0.1045  0.0381 -0.0494
  102POPC   C4A 1713   1.409   3.235   8.501  0.0200  0.1308  0.1184
  102POPC   C1B 1714   2.052   3.361   9.656  0.0268 -0.0226  0.2673
  102POPC   C2B 1715   2.087   3.787   9.518 -0.0926 -0.1798 -0.1026
  102POPC   C3B 1716   2.192   4.036   9.198  0.4102 -0.0323  0.3188
  102POPC   C4B 1717   2.070   4.282   8.870  0.0671  0.2134 -0.2913
  103POPC   NC3 1718   2.435   0.854   9.533  0.1152  0.0311  0.0337
  103POPC   PO4 1719   2.468   0.522   9.205  0.1335 -0.1339 -0.3430
  103POPC   GL1 1720   2.560   0.428   8.694 -0.1883  0.0608  0.0964
  103POPC   GL2 1721   2.887   0.607   8.603 -0.4051  0.0481  0.0247
  103POPC   C1A 1722   2.559   0.166   8.349 -0.0729  0.0436  0.1440
  103POPC   D2A 1723   2.505   0.040   7.900 -0.1284 -0.1594  0.0525
  103POPC   C3A 1724   2.811   0.170   7.543 -0.2361  0.1801 -0.2110
  103POPC   C4A 1725   3.036  -0.209   7.322 -0.1531 -0.3199 -0.1905
  103POPC   C1B 1726   2.500   0.935   8.632 -0.0987  0.0196  0.0760
  103POPC   C2B 1727   2.335   1.246   8.382  0.2641  0.0544  0.0074
  103POPC   C3B 1728   2.475   1.316   7.986 -0.1537 -0.3003  0.1714
  103POPC   C4B 1729   2.501   1.411   7.561 -0.0781  0.1696 -0.0114
  104POPC   NC3 1730   3.374   6.791   9.644  0.1665 -0.0089 -0.1773
  104POPC   PO4 1731   3.089   6.850   9.250  0.2197 -0.0446 -0.0169
  104POPC   GL1 1732   2.769   6.853   8.944 -0.0542  0.1123 -0.0604
  104POPC   GL2 1733   2.423   6.638   8.890 -0.0628  0.0805 -0.1536
  104POPC   C1A 1734   2.741   6.787   8.603 -0.1340 -0.0236  0.1953
  104POPC   D2A 1735   2.752   6.440   8.211  0.1607 -0.0546 -0.0559
  104POPC   C3A 1736   2.688   6.421   7.819  0.2229 -0.1659 -0.0496
  104POPC   C4A 1737   2.512   6.147   7.681  0.0215  0.0339  0.0436
  104POPC   C1B 1738   2.272   6.448   8.488  0.0680 -0.0972 -0.0553
  104POPC   C2B 1739   2.322   6.195   8.153  0.0296  0.1032 -0.0200
  104POPC   C3B 1740   2.036   5.885   7.979  0.0061  0.3187 -0.2243
  104POPC   C4B 1741   2.089   5.709   7.590  0.0597  0.0905 -0.0581
  105POPC   NC3 1742   0.073   7.166   8.941  0.2000  0.0729  0.1867
  105POPC   PO4 1743   0.396   7.452   8.694 -0.0528 -0.1211 -0.0796
  105POPC   GL1 1744   0.522   7.305   8.184 -0.1862 -0.0608  0.2470
  105POPC   GL2 1745   0.832   7.264   8.136  0.2311 -0.0996  0.1710
  105POPC   C1A 1746   0.452   7.639   7.797 -0.0304 -0.0982  0.1099
  105POPC   D2A 1747   0.661   7.821   7.488 -0.1413 -0.0987  0.1314
  105POPC   C3A 1748   0.920   7.707   7.050  0.0264  0.0011  0.2398
  105POPC   C4A 1749   0.798   7.306   6.735  0.0370  0.0134  0.2101
  105POPC   C1B 1750   0.948   7.219   7.710 -0.1998  0.1074  0.1358
  105POPC   C2B 1751   1.058   6.796   7.504  0.2452 -0.1392  0.3832
  105POPC   C3B 1752   1.218   6.614   7.217  0.1151 -0.3372  0.2801
  105POPC   C4B 1753   1.537   6.362   7.095 -0.0883  0.1657  0.0047
  106POPC   NC3 1754   8.383   2.503   9.291 -0.1223  0.3093 -0.1826
  106POPC   PO4 1755   8.366   2.716   8.909  0.2100 -0.0897 -0.3182
  106POPC   GL1 1756   8.476   2.601   8.530 -0.0909  0.3334  0.0356
  106POPC   GL2 1757   8.274   2.766   8.376  0.2917  0.0933  0.1784
  106POPC   C1A 1758   8.790   2.766   8.208 -0.2780  0.0030 -0.0346
  106POPC   D2A 1759   8.817   2.695   7.797  0.0047 -0.1023  0.1733
  106POPC   C3A 1760   9.210   2.560   7.603 -0.1156  0.0608 -0.1041
  106POPC   C4A 1761   9.637   2.685   7.313  0.2372  0.0093 -0.0061
  106POPC   C1B 1762   8.398   2.509   7.963  0.4343  0.1876  0.1953
  106POPC   C2B 1763   8.336   2.745   7.470  0.2208 -0.1402 -0.0640
  106POPC   C3B 1764   8.542   2.945   7.028 -0.0623 -0.1963 -0.1205
  106POPC   C4B 1765   8.928   2.989   6.835  0.2071 -0.2557 -0.2712
  107POPC   NC3 1766   2.125   8.767   9.172 -0.2626 -0.1787 -0.1079
  107POPC   PO4 1767   2.058   8.507   8.734  0.2585  0.1290 -0.2133
  107POPC   GL1 1768   2.112   8.385   8.275 -0.0440  0.3333  0.1922
  107POPC   GL2 1769   1.756   8.375   8.288  0.3067 -0.3604 -0.0657
  107POPC   C1A 1770   2.299   8.143   7.968  0.0038 -0.2132  0.0029
  107POPC   D2A 1771   2.250   7.850   7.743  0.0071 -0.1423 -0.1705
  107POPC   C3A 1772   2.505   7.628   7.558  0.1045 -0.0373 -0.1979
  107POPC   C4A 1773   2.550   7.840   7.230  0.0967  0.0134 -0.0094
  107POPC   C1B 1774   1.846   7.942   8.178  0.2258 -0.1871 -0.0605
  107POPC   C2B 1775   1.873   7.564   7.963  0.0179  0.1136 -0.2792
  107POPC   C3B 1776   1.826   7.680   7.616 -0.3946  0.2154  0.1470
  107POPC   C4B 1777   2.023   7.775   7.096  0.3488 -0.0824  0.3683
  108POPC   NC3 1778   9.678   5.019   9.146 -0.0532  0.1579 -0.0114
  108POPC   PO4 1779  10.013   5.323   9.193  0.1698 -0.0942 -0.1583
  108POPC   GL1 1780  10.073   5.218   8.780  0.1559  0.1821  0.1532
  108POPC   GL2 1781   9.853   5.014   8.616  0.0892 -0.0396 -0.1182
  108POPC   C1A 1782  10.314   5.230   8.388 -0.0035  0.1359  0.3101
  108POPC   D2A 1783  10.676   4.979   8.229 -0.3523 -0.0626 -0.0176
  108POPC   C3A 1784  11.006   4.846   8.490  0.1455 -0.0917  0.0377
  108POPC   C4A 1785  11.429   4.663   8.476  0.1355 -0.0559 -0.2383
  108POPC   C1B 1786   9.836   4.873   8.250 -0.1274  0.1159 -0.0193
  108POPC   C2B 1787   9.984   4.612   7.904  0.1114  0.1766  0.1747
  108POPC   C3B 1788  10.058   4.205   8.090  0.0682 -0.1909 -0.0274
  108POPC   C4B 1789  10.149   3.857   7.965  0.0828 -0.0102 -0.3077
  109POPC   NC3 1790   1.308   7.271   9.128 -0.2249 -0.3369 -0.2037
  109POPC   PO4 1791   1.434   6.964   9.454  0.0510  0.0736  0.0323
  109POPC   GL1 1792   1.469   6.751   8.980 -0.2684 -0.2760 -0.0200
  109POPC   GL2 1793   1.190   6.787   8.774  0.2805 -0.3423  0.2151
  109POPC   C1A 1794   1.636   6.840   8.514 -0.1158  0.1301  0.1546
  109POPC   D2A 1795   1.960   6.595   8.150  0.3552  0.0523 -0.1475
  109POPC   C3A 1796   2.010   6.383   7.770  0.3237 -0.1945 -0.0463
  109POPC   C4A 1797   2.132   6.246   7.354  0.0085  0.1773  0.0307
  109POPC   C1B 1798   1.270   6.337   8.717  0.2998 -0.4771 -0.0824
  109POPC   C2B 1799   1.444   5.908   8.554  0.0944  0.0202 -0.1213
  109POPC   C3B 1800   1.643   5.414   8.625 -0.0417 -0.3586  0.1765
  109POPC   C4B 1801   1.655   5.049   8.358 -0.1544  0.3090  0.1907
  110POPC   NC3 1802   9.867   2.983   9.582  0.0198  0.1917  0.0778
  110POPC   PO4 1803   9.451   3.093   9.309 -0.1498 -0.0352  0.0227
  110POPC   GL1 1804   9.701   2.981   9.005  0.0034 -0.1011 -0.0208
  110POPC   GL2 1805  10.070   2.896   9.109  0.2357  0.0796 -0.0222
  110POPC   C1A 1806   9.731   2.907   8.527  0.1400  0.1786  0.2355
  110POPC   D2A 1807   9.706   3.078   8.087  0.1892 -0.1035 -0.3083
  110POPC   C3A 1808   9.892   3.393   7.961  0.1061  0.0791 -0.1694
  110POPC   C4A 1809  10.400   3.432   7.879 -0.1741  0.3173  0.0122
  110POPC   C1B 1810  10.160   2.798   8.674  0.0157 -0.0514 -0.2122
  110POPC   C2B 1811  10.111   2.733   8.195 -0.0448  0.0206  0.1000
  110POPC   C3B 1812  10.181   2.492   7.793  0.3221  0.0318  0.0434
  110POPC   C4B 1813  10.200   2.072   7.544 -0.1884 -0.0909  0.0524
  111POPC   NC3 1814   9.202   5.450   8.870  0.1584 -0.1169  0.0475
  111POPC   PO4 1815   9.646   5.432   8.809  0.1242 -0.3856  0.3397
  111POPC   GL1 1816   9.725   5.417   8.428  0.0215  0.0407  0.0503
  111POPC   GL2 1817   9.419   5.315   8.330 -0.1400  0.0977  0.1082
  111POPC   C1A 1818   9.815   5.333   8.029 -0.1133  0.0690  0.0172
  111POPC   D2A 1819  10.042   5.340   7.577 -0.4322  0.0279 -0.0147
  111POPC   C3A 1820  10.149   5.197   7.124 -0.1941 -0.2757 -0.1018
  111POPC   C4A 1821  10.472   4.867   6.909  0.1254 -0.1562  0.0291
  111POPC   C1B 1822   9.305   5.001   8.086 -0.0959  0.0902 -0.2425
  111POPC   C2B 1823   9.548   4.902   7.754  0.2351  0.1054 -0.0579
  111POPC   C3B 1824   9.628   4.897   7.363 -0.0334  0.1355 -0.1544
  111POPC   C4B 1825   9.809   4.815   6.786  0.0236  0.0057 -0.3188
  112POPC   NC3 1826   2.537   0.012   9.222  0.0413  0.0219  0.2573
  112POPC   PO4 1827   2.674  -0.266   8.915  0.1398 -0.2817  0.0831
  112POPC   GL1 1828   2.609  -0.356   8.498 -0.3841 -0.0256  0.3209
  112POPC   GL2 1829   2.321  -0.289   8.413 -0.0155 -0.0041 -0.2292
  112POPC   C1A 1830   2.936  -0.277   8.207 -0.2403 -0.1331  0.1223
  112POPC   D2A 1831   3.045  -0.133   7.862  0.2115 -0.4229 -0.0832
  112POPC   C3A 1832   3.190  -0.421   7.758 -0.0700 -0.1067  0.0648
  112POPC   C4A 1833   3.206  -0.701   7.469  0.0515  0.0952  0.1315
  112POPC   C1B 1834   2.065  -0.133   8.116 -0.0065 -0.3245 -0.1787
  112POPC   C2B 1835   1.986   0.094   7.695  0.3980  0.2194  0.1153
  112POPC   C3B 1836   1.870   0.258   7.353 -0.3517  0.3917  0.4476
  112POPC   C4B 1837   2.038   0.416   6.873  0.1592  0.0435  0.2455
  113POPC   NC3 1838   9.852   3.411   9.313  0.4053  0.3632  0.0565
  113POPC   PO4 1839   9.968   3.713   9.334  0.1185 -0.0884  0.1969
  113POPC   GL1 1840  10.165   3.504   8.953  0.2145 -0.2766  0.3212
  113POPC   GL2 1841   9.957   3.333   8.770  0.0179  0.1611  0.2209
  113POPC   C1A 1842  10.474   3.162   8.834  0.1009 -0.1216 -0.1476
  113POPC   D2A 1843  10.562   2.751   9.002 -0.0129 -0.0457 -0.0709
  113POPC   C3A 1844  10.386   2.369   8.829  0.1183  0.4693  0.0905
  113POPC   C4A 1845  10.441   2.301   8.481  0.1691  0.1638  0.0536
  113POPC   C1B 1846  10.197   3.186   8.322  0.0437  0.1367  0.1993
  113POPC   C2B 1847  10.564   2.903   8.354 -0.1520 -0.0024 -0.0599
  113POPC   C3B 1848  10.844   2.930   7.985 -0.0738  0.2195  0.1856
  113POPC   C4B 1849  10.944   3.063   7.531  0.1430  0.3561  0.0221
  114POPC   NC3 1850   3.541   6.300   8.840  0.1726 -0.2252 -0.0418
  114POPC   PO4 1851   3.783   6.773   8.795 -0.1609 -0.0096 -0.2758
  114POPC   GL1 1852   3.764   6.788   8.371  0.1467  0.1149  0.0661
  114POPC   GL2 1853   3.440   6.700   8.211  0.0516 -0.1603  0.0202
  114POPC   C1A 1854   4.041   6.715   7.977  0.2919  0.1015  0.2465
  114POPC   D2A 1855   4.355   6.928   7.670  0.1094 -0.1885 -0.0770
  114POPC   C3A 1856   4.344   7.126   7.367 -0.0080  0.3503  0.1805
  114POPC   C4A 1857   4.373   7.476   6.983 -0.1814 -0.0690  0.5634
  114POPC   C1B 1858   3.565   6.843   7.815  0.0638 -0.2929 -0.0252
  114POPC   C2B 1859   3.400   6.677   7.429 -0.0916 -0.0575  0.2147
  114POPC   C3B 1860   2.921   6.558   7.328  0.0341  0.3392  0.0798
  114POPC   C4B 1861   2.800   6.690   6.936  0.1576 -0.0326  0.1804
  115POPC   NC3 1862   9.313   6.383   8.647  0.1146  0.2330  0.0044
  115POPC   PO4 1863   9.635   6.759   8.629 -0.1567 -0.1466  0.2193
  115POPC   GL1 1864   9.901   6.790   8.221 -0.4573  0.7172 -0.0348
  115POPC   GL2 1865  10.190   6.968   8.228  0.2139  0.0887 -0.0284
  115POPC   C1A 1866   9.777   6.802   7.752  0.0352  0.2404 -0.1411
  115POPC   D2A 1867   9.854   7.024   7.463 -0.0251 -0.0175 -0.0102
  115POPC   C3A 1868  10.110   7.233   7.255 -0.1256  0.1083  0.2746
  115POPC   C4A 1869  10.315   7.495   7.035  0.2156 -0.3195  0.2970
  115POPC   C1B 1870  10.237   6.982   7.791  0.1208  0.3344 -0.1787
  115POPC   C2B 1871  10.334   6.743   7.460 -0.1330  0.0020  0.1948
  115POPC   C3B 1872  10.164   6.757   7.038  0.1674  0.0613 -0.1594
  115POPC   C4B 1873  10.131   6.528   6.694 -0.0430  0.3002  0.1289
  116POPC   NC3 1874   2.962   4.099  10.151 -0.0293  0.0539 -0.0532
  116POPC   PO4 1875   3.018   4.529  10.107 -0.1666 -0.0997  0.0713
  116POPC   GL1 1876   3.156   4.480   9.680 -0.0228 -0.0624 -0.0208
  116POPC   GL2 1877   3.303   4.722   9.530  0.1518  0.2756  0.3295
  116POPC   C1A 1878   3.192   4.201   9.280  0.0099  0.0086 -0.0417
  116POPC   D2A 1879   3.104   4.075   8.907 -0.1689  0.0346  0.0037
  116POPC   C3A 1880   3.321   3.828   8.826  0.0294 -0.0936 -0.0548
  116POPC   C4A 1881   3.561   3.444   9.026 -0.4719 -0.0858 -0.0581
  116POPC   C1B 1882   3.386   4.623   9.022 -0.0799  0.1934  0.3252
  116POPC   C2B 1883   3.349   4.668   8.596  0.1517 -0.1682  0.3340
  116POPC   C3B 1884   3.236   4.587   8.174  0.1638  0.2990 -0.1645
  116POPC   C4B 1885   3.182   4.159   7.933 -0.1776  0.3214  0.0545
  117POPC   NC3 1886   8.004   8.106   9.232  0.0329 -0.0689  0.1050
  117POPC   PO4 1887   7.683   7.784   9.087 -0.1728 -0.2004 -0.1774
  117POPC   GL1 1888   7.625   7.667   8.594 -0.1800  0.1446 -0.1953
  117POPC   GL2 1889   7.731   7.946   8.410  0.3291 -0.3589 -0.4149
  117POPC   C1A 1890   7.441   7.613   8.179 -0.0988  0.1849 -0.2899
  117POPC   D2A 1891   7.519   7.660   7.743  0.1549 -0.2415  0.0516
  117POPC   C3A 1892   7.918   7.606   7.399  0.1788 -0.2530  0.0112
  117POPC   C4A 1893   8.243   7.609   7.002 -0.3084  0.1379  0.1730
  117POPC   C1B 1894   7.526   8.100   8.036 -0.1084  0.1463 -0.2037
  117POPC   C2B 1895   7.488   8.106   7.562 -0.1531  0.1581  0.0459
  117POPC   C3B 1896   7.445   7.743   7.296  0.1584 -0.2785 -0.1113
  117POPC   C4B 1897   7.624   7.473   7.008  0.0547 -0.0501  0.1295
  118POPC   NC3 1898   8.562   5.299   8.881  0.2664  0.5285 -0.1020
  118POPC   PO4 1899   8.758   5.614   8.700  0.1686  0.0886 -0.3314
  118POPC   GL1 1900   8.900   5.617   8.369  0.0256  0.1081  0.4694
  118POPC   GL2 1901   8.566   5.808   8.244  0.0569 -0.0654  0.0404
  118POPC   C1A 1902   8.997   5.484   7.919 -0.2063 -0.2565 -0.1522
  118POPC   D2A 1903   9.425   5.373   7.643 -0.1153  0.3491  0.1632
  118POPC   C3A 1904   9.251   5.161   7.209  0.0835  0.1224 -0.2819
  118POPC   C4A 1905   9.317   4.941   6.838  0.0846  0.2446 -0.1744
  118POPC   C1B 1906   8.501   5.590   7.870 -0.0754 -0.0797  0.2051
  118POPC   C2B 1907   8.258   5.528   7.453  0.3406 -0.2424  0.0937
  118POPC   C3B 1908   7.818   5.676   7.221 -0.0576  0.1790 -0.0617
  118POPC   C4B 1909   7.781   5.534   6.892 -0.0506 -0.2886  0.0379
  119POPC   NC3 1910   3.043   2.085  10.069 -0.5181 -0.2948 -0.0485
  119POPC   PO4 1911   3.258   2.172   9.730 -0.3095 -0.0934 -0.0225
  119POPC   GL1 1912   3.134   2.274   9.294  0.0967 -0.0061 -0.1159
  119POPC   GL2 1913   2.922   1.964   9.110 -0.2772  0.4323 -0.2414
  119POPC   C1A 1914   2.817   2.444   8.999 -0.0238  0.2192 -0.0733
  119POPC   D2A 1915   2.599   2.806   8.826 -0.3750  0.1131  0.2263
  119POPC   C3A 1916   2.441   3.060   9.125 -0.0771  0.4779 -0.0012
  119POPC   C4A 1917   2.454   3.457   9.306 -0.1916 -0.0684  0.0531
  119POPC   C1B 1918   2.979   1.828   8.759 -0.1724  0.1311  0.0587
  119POPC   C2B 1919   3.162   1.940   8.376 -0.1311  0.0597  0.1855
  119POPC   C3B 1920   3.171   2.091   7.921 -0.2441  0.5712  0.0979
  119POPC   C4B 1921   3.285   2.499   7.698 -0.1013 -0.1799  0.3316
  120POPC   NC3 1922   2.844   5.972   9.672 -0.1544 -0.0450  0.2398
  120POPC   PO4 1923   2.879   5.683   9.400  0.1020  0.3860 -0.2397
  120POPC   GL1 1924   2.677   5.451   9.116 -0.0123 -0.0040  0.0428
  120POPC   GL2 1925   2.898   5.250   9.040  0.0663  0.0552  0.0404
  120POPC   C1A 1926   2.707   5.514   8.678  0.2102 -0.1661  0.1012
  120POPC   D2A 1927   2.851   5.474   8.301 -0.0045 -0.1547  0.2759
  120POPC   C3A 1928   2.519   5.188   8.289  0.0133 -0.3199 -0.0791
  120POPC   C4A 1929   2.135   4.957   8.134 -0.4849 -0.0749 -0.1350
  120POPC   C1B 1930   3.121   5.249   8.701 -0.0180 -0.3182  0.1225
  120POPC   C2B 1931   2.936   4.943   8.449  0.1103  0.0647  0.0111
  120POPC   C3B 1932   2.736   4.733   8.016  0.0347  0.2662  0.1885
  120POPC   C4B 1933   2.340   4.774   7.702  0.0557 -0.1269  0.1212
  121POPC   NC3 1934   0.444   9.589   8.560 -0.2306 -0.3192  0.0639
  121POPC   PO4 1935   0.404   9.973   8.488 -0.1557  0.0610  0.1691
  121POPC   GL1 1936   0.311  10.219   8.098  0.3196 -0.1554  0.2110
  121POPC   GL2 1937   0.593   9.915   7.960  0.2385  0.0898 -0.1534
  121POPC   C1A 1938   0.162  10.206   7.697  0.2400 -0.2910 -0.3201
  121POPC   D2A 1939   0.414   9.937   7.446  0.2396 -0.1889  0.0866
  121POPC   C3A 1940   0.531   9.987   7.049  0.2440 -0.0597 -0.2011
  121POPC   C4A 1941   0.615   9.894   6.691 -0.1394 -0.1584 -0.0681
  121POPC   C1B 1942   0.672  10.427   7.719  0.2876  0.3517 -0.2728
  121POPC   C2B 1943   0.851  10.709   7.499  0.0110  0.1026  0.0397
  121POPC   C3B 1944   1.007  11.050   7.583  0.0365 -0.2439  0.0215
  121POPC   C4B 1945   1.118  11.218   8.006  0.3030 -0.0580 -0.1203
  122POPC   NC3 1946   7.739   8.998   9.055 -0.2220 -0.1902  0.0913
  122POPC   PO4 1947   7.329   8.838   8.844  0.0097 -0.0627 -0.2565
  122POPC   GL1 1948   7.603   9.079   8.563 -0.4421  0.4680  0.0826
  122POPC   GL2 1949   7.565   9.337   8.402 -0.0187  0.0768  0.2047
  122POPC   C1A 1950   8.085   9.029   8.358 -0.3344 -0.1736 -0.2158
  122POPC   D2A 1951   8.326   9.121   8.070  0.0270  0.2242  0.1443
  122POPC   C3A 1952   8.445   9.386   7.749  0.3029 -0.0912  0.0498
  122POPC   C4A 1953   8.314   9.324   7.309 -0.1858  0.2039 -0.5557
  122POPC   C1B 1954   7.795   9.365   8.089 -0.0002 -0.1011  0.2174
  122POPC   C2B 1955   7.978   9.315   7.690 -0.3308  0.2055 -0.1820
  122POPC   C3B 1956   7.875   9.166   7.424  0.0458 -0.2343  0.4487
  122POPC   C4B 1957   7.978   9.173   6.939  0.0175  0.0790 -0.1302
  123POPC   NC3 1958   1.844   5.182   9.796  0.2011 -0.0856  0.1190
  123POPC   PO4 1959   2.258   5.231   9.881  0.2364  0.1299 -0.0609
  123POPC   GL1 1960   2.192   5.001   9.468  0.1001 -0.0388  0.3608
  123POPC   GL2 1961   2.336   5.135   9.209  0.3313  0.4868 -0.2895
  123POPC   C1A 1962   2.314   4.588   9.210  0.1611  0.2777  0.4986
  123POPC   D2A 1963   2.549   4.312   8.993 -0.0867 -0.0108  0.0291
  123POPC   C3A 1964   2.436   4.154   8.518 -0.0866 -0.0674 -0.1886
  123POPC   C4A 1965   2.386   4.246   8.102 -0.0802 -0.0968 -0.0006
  123POPC   C1B 1966   2.518   5.029   8.784 -0.0807  0.1576 -0.0327
  123POPC   C2B 1967   2.457   4.719   8.427  0.2168  0.1828  0.0554
  123POPC   C3B 1968   1.954   4.571   8.444  0.0974 -0.2274 -0.1061
  123POPC   C4B 1969   1.902   4.085   8.396 -0.3071 -0.1844 -0.2445
  124POPC   NC3 1970   5.578   0.221   9.017 -0.2244  0.0409 -0.0778
  124POPC   PO4 1971   5.873   0.546   8.815 -0.2693  0.0553  0.2543
  124POPC   GL1 1972   5.738   0.221   8.505 -0.2204 -0.1390  0.3206
  124POPC   GL2 1973   5.459   0.188   8.500 -0.0217  0.1149 -0.1393
  124POPC   C1A 1974   5.863   0.063   8.117  0.0167  0.2232  0.2449
  124POPC   D2A 1975   6.032  -0.110   7.747  0.0277  0.2424 -0.2185
  124POPC   C3A 1976   6.259  -0.282   7.366 -0.0853  0.2085 -0.0355
  124POPC   C4A 1977   6.392  -0.366   6.994  0.2511 -0.0451 -0.0524
  124POPC   C1B 1978   5.470   0.424   8.013 -0.2479  0.1632  0.1337
  124POPC   C2B 1979   5.593   0.235   7.638 -0.4757 -0.1779 -0.0815
  124POPC   C3B 1980   5.290   0.230   7.339  0.2425  0.0406  0.3392
  124POPC   C4B 1981   5.006   0.541   7.244 -0.0740  0.1888  0.1279
  125POPC   NC3 1982   3.817   5.475   9.205 -0.2446 -0.0724 -0.2149
  125POPC   PO4 1983   3.357   5.592   9.195 -0.4188 -0.2493  0.1105
  125POPC   GL1 1984   3.543   5.722   8.817  0.1569  0.0101  0.0787
  125POPC   GL2 1985   3.833   5.648   8.711  0.1335  0.1383 -0.1490
  125POPC   C1A 1986   3.385   5.616   8.450  0.0490 -0.0334 -0.0310
  125POPC   D2A 1987   3.309   5.566   7.916 -0.0601  0.0528  0.1038
  125POPC   C3A 1988   3.393   5.879   7.534 -0.0775 -0.0865  0.1293
  125POPC   C4A 1989   3.349   6.194   7.244 -0.1305 -0.3060  0.1108
  125POPC   C1B 1990   3.923   5.762   8.269  0.0436 -0.1376  0.0301
  125POPC   C2B 1991   3.879   5.424   7.844  0.0483 -0.3541  0.0577
  125POPC   C3B 1992   4.026   5.061   7.645  0.3439  0.0400 -0.1119
  125POPC   C4B 1993   4.347   4.954   7.396  0.0795 -0.0900  0.2429
  126POPC   NC3 1994   5.456   2.032   8.756  0.1326  0.0715  0.0986
  126POPC   PO4 1995   5.609   2.395   8.916 -0.0374  0.1040 -0.0949
  126POPC   GL1 1996   5.782   2.470   8.498 -0.1207 -0.1375  0.0534
  126POPC   GL2 1997   5.667   2.148   8.293  0.2126 -0.0683 -0.3835
  126POPC   C1A 1998   5.719   2.678   8.130 -0.3759  0.0884 -0.0566
  126POPC   D2A 1999   5.443   2.796   7.765 -0.0336 -0.1649  0.0118
  126POPC   C3A 2000   5.504   2.838   7.274 -0.2306  0.3001 -0.2412
  126POPC   C4A 2001   5.102   2.926   7.069 -0.0757 -0.0029  0.0787
  126POPC   C1B 2002   5.315   2.391   8.000  0.2222  0.1028 -0.2058
  126POPC   C2B 2003   5.223   2.350   7.655 -0.0377  0.1937 -0.3388
  126POPC   C3B 2004   4.967   2.564   7.373  0.0381  0.0244  0.1134
  126POPC   C4B 2005   4.937   2.475   6.868  0.1598 -0.3238  0.0034
  127POPC   NC3 2006   3.733   3.641   9.892  0.0961 -0.1001 -0.1503
  127POPC   PO4 2007   3.600   4.055   9.785 -0.0602  0.1014 -0.1711
  127POPC   GL1 2008   3.718   4.168   9.406  0.1517 -0.0614  0.0202
  127POPC   GL2 2009   3.703   4.441   9.394 -0.0001  0.0337 -0.1468
  127POPC   C1A 2010   3.655   4.149   8.986 -0.6491  0.1738  0.0080
  127POPC   D2A 2011   3.819   4.216   8.614  0.2542 -0.0898 -0.1904
  127POPC   C3A 2012   3.679   4.251   8.131  0.4372  0.0096 -0.1288
  127POPC   C4A 2013   3.633   4.255   7.650  0.1004 -0.2600 -0.0540
  127POPC   C1B 2014   3.844   4.568   9.031 -0.1853  0.3223 -0.1789
  127POPC   C2B 2015   3.814   4.708   8.523  0.2371  0.0712  0.0126
  127POPC   C3B 2016   4.048   4.533   8.279  0.0764 -0.2225 -0.1788
  127POPC   C4B 2017   4.199   4.288   8.012  0.2695  0.1688 -0.0736
  128POPC   NC3 2018   9.657   7.242   8.898  0.2552 -0.0426 -0.1991
  128POPC   PO4 2019   9.936   7.217   8.610  0.0549  0.3219  0.1786
  128POPC   GL1 2020   9.850   7.358   8.129  0.2250  0.0942 -0.2530
  128POPC   GL2 2021   9.583   7.180   8.003 -0.2606 -0.2268  0.1223
  128POPC   C1A 2022  10.011   7.413   7.680  0.1505 -0.0291 -0.1976
  128POPC   D2A 2023   9.951   7.702   7.302  0.0221 -0.2226 -0.0237
  128POPC   C3A 2024   9.804   7.554   6.888  0.0368  0.1798  0.0190
  128POPC   C4A 2025   9.827   7.542   6.484 -0.4588 -0.0961 -0.1178
  128POPC   C1B 2026   9.256   6.978   7.713 -0.2794 -0.2321 -0.1026
  128POPC   C2B 2027   9.312   6.838   7.339 -0.4808  0.0258  0.1794
  128POPC   C3B 2028   9.694   6.674   7.114  0.1886 -0.1597 -0.1479
  128POPC   C4B 2029   9.710   6.269   7.038  0.0653 -0.3542  0.1334
  129POPC   NC3 2030   8.889   4.305   9.034 -0.0963  0.0571 -0.1540
  129POPC   PO4 2031   8.598   3.998   8.980 -0.1932 -0.1374 -0.1388
  129POPC   GL1 2032   8.413   3.747   8.542  0.2451  0.1018 -0.0240
  129POPC   GL2 2033   8.243   3.999   8.530  0.0832 -0.1225 -0.1963
  129POPC   C1A 2034   8.301   3.677   8.131  0.0190  0.0173 -0.0333
  129POPC   D2A 2035   8.061   3.485   7.754 -0.0160 -0.1854 -0.0778
  129POPC   C3A 2036   8.003   3.710   7.360  0.3581  0.2853 -0.3629
  129POPC   C4A 2037   7.841   3.930   6.991 -0.1670 -0.3760 -0.0237
  129POPC   C1B 2038   8.098   4.393   8.376  0.0438  0.1676 -0.2078
  129POPC   C2B 2039   8.007   4.779   8.352 -0.1664  0.0136  0.1397
  129POPC   C3B 2040   7.867   5.159   8.306 -0.0856 -0.2415  0.1961
  129POPC   C4B 2041   7.500   5.303   8.104  0.1157  0.2547  0.1831
  130POPC   NC3 2042  10.169   8.149   9.069 -0.0354  0.0449 -0.1421
  130POPC   PO4 2043   9.724   8.086   8.819  0.0302  0.2413  0.2163
  130POPC   GL1 2044   9.517   8.231   8.515  0.0303 -0.0866 -0.1534
  130POPC   GL2 2045   9.453   7.958   8.206  0.4542 -0.5915  0.0221
  130POPC   C1A 2046   9.452   8.503   8.181 -0.0787 -0.1803 -0.2176
  130POPC   D2A 2047   9.215   8.800   7.908 -0.0792  0.1540 -0.1199
  130POPC   C3A 2048   9.377   8.736   7.529 -0.0219 -0.2426  0.0571
  130POPC   C4A 2049   9.334   8.754   7.060 -0.1180 -0.0167 -0.4302
  130POPC   C1B 2050   9.127   7.890   7.915 -0.0626  0.0692  0.2461
  130POPC   C2B 2051   8.938   7.952   7.426 -0.0243  0.0263  0.1660
  130POPC   C3B 2052   9.086   7.904   6.997 -0.5706 -0.1062  0.1638
  130POPC   C4B 2053   9.343   7.585   6.831 -0.4558  0.1007  0.2710
  131POPC   NC3 2054   2.743   7.236   9.377  0.0275 -0.0830  0.1750
  131POPC   PO4 2055   2.318   7.350   9.279  0.4059 -0.0754 -0.0186
  131POPC   GL1 2056   2.555   7.289   8.948 -0.2111  0.0769 -0.0019
  131POPC   GL2 2057   2.773   7.563   8.906  0.0092 -0.0681  0.0123
  131POPC   C1A 2058   2.362   7.080   8.654  0.1444 -0.0276 -0.0538
  131POPC   D2A 2059   2.251   6.936   8.321  0.0461 -0.3528 -0.0191
  131POPC   C3A 2060   2.611   6.900   8.010 -0.0217  0.1710 -0.1290
  131POPC   C4A 2061   3.054   6.922   8.216  0.1702  0.2157 -0.1105
  131POPC   C1B 2062   2.865   7.263   8.621  0.1584 -0.0266  0.1909
  131POPC   C2B 2063   2.825   7.374   8.178  0.0059 -0.1512 -0.0743
  131POPC   C3B 2064   2.935   7.422   7.766  0.2446  0.1421  0.2344
  131POPC   C4B 2065   3.021   7.638   7.325 -0.3214  0.4435 -0.0650
  132POPC   NC3 2066   4.071   9.836   8.680  0.3021  0.1543 -0.1684
  132POPC   PO4 2067   3.655   9.600   8.882  0.1675 -0.1144  0.1650
  132POPC   GL1 2068   3.529   9.733   8.483 -0.2822  0.0210  0.4137
  132POPC   GL2 2069   3.593   9.517   8.325 -0.0093 -0.3908 -0.0925
  132POPC   C1A 2070   3.425   9.989   8.158 -0.0297  0.1033 -0.0759
  132POPC   D2A 2071   3.709  10.050   7.896  0.0150  0.3622  0.0567
  132POPC   C3A 2072   3.616  10.129   7.491 -0.1800 -0.1374 -0.0813
  132POPC   C4A 2073   3.630  10.118   7.072 -0.2951 -0.0662  0.2402
  132POPC   C1B 2074   3.944   9.454   8.108  0.2924  0.2532 -0.0994
  132POPC   C2B 2075   4.392   9.316   7.896 -0.2257 -0.2177  0.0921
  132POPC   C3B 2076   4.691   9.102   7.934 -0.0337 -0.5670 -0.0823
  132POPC   C4B 2077   4.857   8.695   7.789  0.0948 -0.2290 -0.1206
  133POPC   NC3 2078   7.700   7.307   8.945  0.0494 -0.0489 -0.1030
  133POPC   PO4 2079   8.032   7.283   8.605 -0.0215  0.2871  0.1517
  133POPC   GL1 2080   7.913   7.235   8.175 -0.5843 -0.2659  0.0932
  133POPC   GL2 2081   7.994   6.872   8.116  0.3475  0.1117  0.1139
  133POPC   C1A 2082   8.139   7.402   7.757 -0.0327 -0.1333 -0.3351
  133POPC   D2A 2083   8.380   7.281   7.393 -0.1939  0.3616  0.1825
  133POPC   C3A 2084   8.231   6.966   7.269  0.0065  0.1507  0.1927
  133POPC   C4A 2085   8.011   6.612   7.268  0.1286  0.0071 -0.3642
  133POPC   C1B 2086   8.176   6.905   7.734 -0.0455 -0.2546 -0.2451
  133POPC   C2B 2087   8.641   6.929   7.684  0.0647  0.0887  0.1236
  133POPC   C3B 2088   8.788   7.014   7.315  0.0352  0.1087 -0.1811
  133POPC   C4B 2089   9.029   7.140   6.892  0.3117 -0.0181  0.0138
  134POPC   NC3 2090   6.245   3.379   8.613 -0.0570 -0.0387 -0.1183
  134POPC   PO4 2091   6.435   3.091   8.324  0.1272  0.3875 -0.2116
  134POPC   GL1 2092   6.177   3.354   8.021  0.1954  0.0984  0.1212
  134POPC   GL2 2093   5.829   3.224   7.967  0.0659  0.2273 -0.1615
  134POPC   C1A 2094   6.001   3.640   7.623 -0.3009  0.1527  0.0852
  134POPC   D2A 2095   5.854   3.694   7.234  0.2143 -0.1467  0.2925
  134POPC   C3A 2096   5.879   4.004   7.041 -0.0138  0.0407  0.1606
  134POPC   C4A 2097   5.705   4.241   6.794  0.1062 -0.1874  0.0694
  134POPC   C1B 2098   5.540   3.564   7.907  0.0146  0.1699 -0.1458
  134POPC   C2B 2099   5.478   3.822   7.522 -0.1846 -0.1926  0.2897
  134POPC   C3B 2100   5.406   4.182   7.206  0.1464 -0.2333  0.0294
  134POPC   C4B 2101   5.158   4.463   7.126 -0.1092 -0.2551 -0.0606
  135POPC   NC3 2102   2.308   8.081   8.772 -0.1442  0.1912 -0.0233
  135POPC   PO4 2103   2.470   8.320   8.597 -0.2385  0.3310  0.1956
  135POPC   GL1 2104   2.658   8.056   8.401  0.1390  0.0434 -0.0194
  135POPC   GL2 2105   2.648   7.853   8.506 -0.1880 -0.3147 -0.1687
  135POPC   C1A 2106   2.757   7.974   8.015  0.2403  0.0197  0.0410
  135POPC   D2A 2107   2.853   8.041   7.575 -0.0260  0.0899  0.0136
  135POPC   C3A 2108   2.590   8.314   7.361  0.2062 -0.0239  0.0949
  135POPC   C4A 2109   2.309   8.712   7.179 -0.3213 -0.0163  0.2877
  135POPC   C1B 2110   2.322   7.579   8.254  0.0344  0.1767  0.1953
  135POPC   C2B 2111   2.289   7.345   7.911  0.0269 -0.1574 -0.2174
  135POPC   C3B 2112   2.098   7.255   7.578  0.0495 -0.1613  0.0810
  135POPC   C4B 2113   1.888   7.231   7.280 -0.1152 -0.0496  0.2545
  136POPC   NC3 2114   6.607   2.134   8.404 -0.3613  0.2200  0.1271
  136POPC   PO4 2115   6.798   1.758   8.611 -0.3971 -0.0114  0.1295
  136POPC   GL1 2116   6.837   1.798   8.064  0.4201 -0.0771 -0.0988
  136POPC   GL2 2117   6.616   1.678   7.895 -0.1479  0.2134  0.1800
  136POPC   C1A 2118   6.861   2.238   7.803  0.0504 -0.0219 -0.1128
  136POPC   D2A 2119   6.789   2.259   7.372 -0.0136 -0.0883 -0.2163
  136POPC   C3A 2120   7.003   2.618   7.087  0.2259 -0.1688  0.0425
  136POPC   C4A 2121   7.075   2.540   6.659 -0.3710  0.0818  0.1938
  136POPC   C1B 2122   6.710   1.703   7.482  0.1682 -0.0757  0.6026
  136POPC   C2B 2123   6.478   1.787   7.165 -0.1011  0.1447  0.2746
  136POPC   C3B 2124   6.513   2.122   6.894  0.2264  0.0706 -0.0811
  136POPC   C4B 2125   6.611   2.555   6.743  0.1642  0.1283  0.1140
  137POPC   NC3 2126   6.726   9.975   9.113 -0.1861 -0.1148  0.3571
  137POPC   PO4 2127   7.004  10.102   8.800 -0.3435 -0.0108 -0.2358
  137POPC   GL1 2128   7.107  10.267   8.300  0.1096 -0.0859 -0.1513
  137POPC   GL2 2129   7.320  10.484   8.148 -0.0516  0.1751  0.2088
  137POPC   C1A 2130   7.084  10.127   7.874  0.0635  0.0698 -0.3337
  137POPC   D2A 2131   7.191   9.834   7.545 -0.1199  0.0774 -0.0415
  137POPC   C3A 2132   7.570   9.575   7.375  0.4831  0.2000  0.0272
  137POPC   C4A 2133   7.890   9.634   7.072  0.0676 -0.3050  0.1559
  137POPC   C1B 2134   7.424  10.915   7.989 -0.0567  0.1812  0.0711
  137POPC   C2B 2135   7.663  10.964   7.659 -0.0663 -0.0918 -0.1139
  137POPC   C3B 2136   7.925  10.649   7.482  0.0450  0.1648  0.1849
  137POPC   C4B 2137   7.875  10.656   7.009  0.0384 -0.1320  0.0132
  138POPC   NC3 2138   9.365   1.142   9.186 -0.1748  0.1605  0.1388
  138POPC   PO4 2139   9.077   1.607   9.036 -0.0131  0.2771  0.1305
  138POPC   GL1 2140   9.366   1.569   8.733 -0.2236 -0.0115 -0.2555
  138POPC   GL2 2141   9.312   1.836   8.376 -0.2398  0.1839  0.1337
  138POPC   C1A 2142   9.375   1.380   8.216 -0.2415 -0.1339 -0.4524
  138POPC   D2A 2143   9.602   1.450   7.886 -0.0084  0.1163  0.1782
  138POPC   C3A 2144   9.397   1.658   7.609 -0.0611  0.1849  0.1820
  138POPC   C4A 2145   9.064   1.597   7.176  0.2661 -0.2363  0.0734
  138POPC   C1B 2146   9.485   2.118   8.037 -0.0098  0.3383 -0.0892
  138POPC   C2B 2147   9.627   2.185   7.554 -0.1742 -0.2083  0.1024
  138POPC   C3B 2148   9.927   2.188   7.129 -0.1027 -0.1840 -0.1710
  138POPC   C4B 2149   9.821   2.419   6.875 -0.0267 -0.0203  0.0055
  139POPC   NC3 2150   5.082   1.416   9.494 -0.4781 -0.0172 -0.0624
  139POPC   PO4 2151   4.608   1.316   9.407 -0.0850 -0.2990  0.0933
  139POPC   GL1 2152   4.363   1.355   8.932  0.1674  0.4170  0.1175
  139POPC   GL2 2153   4.540   1.100   8.706  0.0269  0.1272  0.2815
  139POPC   C1A 2154   3.979   1.565   8.673 -0.3548 -0.1477  0.1004
  139POPC   D2A 2155   4.040   1.895   8.326  0.1187 -0.0588 -0.2051
  139POPC   C3A 2156   3.689   1.862   7.966 -0.0548 -0.0524  0.3164
  139POPC   C4A 2157   3.368   1.644   7.834 -0.0029  0.0054 -0.0595
  139POPC   C1B 2158   4.366   0.945   8.271 -0.0191  0.1984  0.0466
  139POPC   C2B 2159   4.241   0.807   7.960 -0.2060 -0.0540 -0.0992
  139POPC   C3B 2160   4.012   1.030   7.672  0.1983 -0.1160  0.1790
  139POPC   C4B 2161   3.855   0.981   7.270  0.3548 -0.2280  0.0839
  140POPC   NC3 2162   4.061   4.322   9.779  0.2954  0.0606 -0.3284
  140POPC   PO4 2163   4.188   3.847   9.755  0.4764 -0.2956 -0.0550
  140POPC   GL1 2164   4.070   3.847   9.378 -0.2101 -0.1029 -0.1982
  140POPC   GL2 2165   4.170   4.071   9.247  0.1510 -0.1473  0.2126
  140POPC   C1A 2166   4.013   3.758   8.923 -0.0431  0.2076 -0.2114
  140POPC   D2A 2167   3.706   3.586   8.515 -0.1101 -0.2149  0.1380
  140POPC   C3A 2168   3.442   3.768   8.287  0.1207 -0.2761 -0.2380
  140POPC   C4A 2169   3.340   4.116   8.449  0.0275 -0.0705 -0.1472
  140POPC   C1B 2170   4.207   4.249   8.928  0.3174 -0.1500  0.0613
  140POPC   C2B 2171   4.537   4.354   8.716  0.1299  0.0377 -0.1571
  140POPC   C3B 2172   4.667   4.348   8.352  0.2316  0.2584  0.1873
  140POPC   C4B 2173   4.735   4.212   7.986 -0.2129 -0.2452  0.1836
  141POPC   NC3 2174   3.251   9.382   8.676 -0.1519 -0.2539 -0.0649
  141POPC   PO4 2175   2.882   9.057   8.806 -0.0197  0.1088  0.0637
  141POPC   GL1 2176   2.942   9.125   8.316 -0.3908  0.0472  0.0022
  141POPC   GL2 2177   2.772   8.851   8.194  0.0132 -0.1022 -0.2853
  141POPC   C1A 2178   2.915   9.217   7.840  0.2975  0.0543  0.1816
  141POPC   D2A 2179   2.974   9.256   7.437 -0.4679  0.0907 -0.0806
  141POPC   C3A 2180   3.283   9.310   7.070 -0.1070  0.2234  0.0970
  141POPC   C4A 2181   3.584   9.277   6.855  0.0692  0.0628  0.0654
  141POPC   C1B 2182   2.511   8.996   7.809 -0.0147 -0.2463  0.0373
  141POPC   C2B 2183   2.483   9.214   7.352 -0.2002  0.0208 -0.3286
  141POPC   C3B 2184   2.500   9.205   6.988  0.0052  0.1878  0.1332
  141POPC   C4B 2185   2.673   9.004   6.637 -0.2811 -0.0611  0.1392
  142POPC   NC3 2186   7.392   9.822   8.955  0.0805 -0.0325 -0.1973
  142POPC   PO4 2187   7.767   9.892   8.701 -0.2621 -0.1759  0.0834
  142POPC   GL1 2188   7.735   9.849   8.266  0.1706  0.1273  0.1497
  142POPC   GL2 2189   7.559  10.037   8.066  0.1040  0.2615  0.2125
  142POPC   C1A 2190   8.048   9.763   7.975  0.0268 -0.0634 -0.0823
  142POPC   D2A 2191   8.171   9.789   7.555 -0.2832  0.0727  0.3480
  142POPC   C3A 2192   8.142  10.160   7.250 -0.2934 -0.2608 -0.2747
  142POPC   C4A 2193   8.106  10.282   6.807 -0.3205  0.3024 -0.3982
  142POPC   C1B 2194   7.443   9.671   7.925 -0.0735  0.1274  0.3724
  142POPC   C2B 2195   7.445   9.216   7.732 -0.1286 -0.2339 -0.0856
  142POPC   C3B 2196   7.461   8.871   7.388 -0.0153  0.0973 -0.0547
  142POPC   C4B 2197   7.865   8.698   7.427 -0.1104  0.2123 -0.4403
  143POPC   NC3 2198   3.007   3.910  10.685  0.2352  0.2440  0.0684
  143POPC   PO4 2199   2.806   3.635  10.268 -0.0223  0.1626  0.0488
  143POPC   GL1 2200   2.865   3.519   9.773 -0.5811 -0.2806  0.0152
  143POPC   GL2 2201   2.992   3.790   9.641  0.1625  0.4053  0.1779
  143POPC   C1A 2202   2.851   3.217   9.486 -0.2312  0.1350  0.0768
  143POPC   D2A 2203   2.876   2.831   9.285  0.3502 -0.2310  0.1211
  143POPC   C3A 2204   3.135   2.899   8.963 -0.1382 -0.1087 -0.0068
  143POPC   C4A 2205   3.359   3.301   8.644 -0.1236  0.0100  0.2700
  143POPC   C1B 2206   3.025   3.630   9.212 -0.0375 -0.0775  0.1555
  143POPC   C2B 2207   2.887   3.340   8.930 -0.0546  0.2302 -0.0826
  143POPC   C3B 2208   2.497   3.301   8.683 -0.1453 -0.3029 -0.2811
  143POPC   C4B 2209   2.226   3.000   8.460  0.0031  0.0933 -0.1916
  144POPC   NC3 2210   3.802   5.989   9.129 -0.2661 -0.0140  0.3696
  144POPC   PO4 2211   4.030   6.138   8.788  0.2337  0.0628 -0.1866
  144POPC   GL1 2212   4.046   6.272   8.372  0.4061 -0.2699 -0.0409
  144POPC   GL2 2213   3.700   6.227   8.321 -0.2222  0.1065  0.0260
  144POPC   C1A 2214   4.160   6.175   7.951  0.0334  0.0724  0.0721
  144POPC   D2A 2215   4.171   6.028   7.531 -0.3871  0.1996  0.0765
  144POPC   C3A 2216   4.546   5.899   7.268 -0.1814 -0.1675  0.3334
  144POPC   C4A 2217   4.870   6.013   6.982 -0.2221  0.0012  0.0467
  144POPC   C1B 2218   3.592   6.014   7.986 -0.0197  0.0628 -0.0010
  144POPC   C2B 2219   3.720   6.302   7.686  0.3236 -0.1606  0.1080
  144POPC   C3B 2220   3.905   6.690   7.448  0.1251  0.2318  0.0603
  144POPC   C4B 2221   4.182   6.490   7.138 -0.0548 -0.1827  0.5096
  145POPC   NC3 2222   1.968   5.965   9.470 -0.1362 -0.1167  0.2470
  145POPC   PO4 2223   2.452   5.965   9.420  0.0261 -0.1755 -0.1363
  145POPC   GL1 2224   2.336   5.816   9.042 -0.0264  0.0401  0.0139
  145POPC   GL2 2225   2.385   6.092   8.892  0.1469 -0.1990 -0.1012
  145POPC   C1A 2226   2.234   5.469   8.821  0.2571 -0.2247  0.0431
  145POPC   D2A 2227   2.046   5.060   8.723  0.0245 -0.0245  0.1698
  145POPC   C3A 2228   1.840   4.934   9.148  0.1531  0.0571  0.0815
  145POPC   C4A 2229   1.819   4.619   9.326 -0.0342 -0.1661 -0.0420
  145POPC   C1B 2230   2.594   6.058   8.562  0.0813 -0.2229  0.2782
  145POPC   C2B 2231   2.429   5.775   8.311 -0.1919  0.0093  0.0566
  145POPC   C3B 2232   2.410   5.527   7.932  0.1313 -0.1787 -0.1601
  145POPC   C4B 2233   2.416   5.211   7.625  0.3223 -0.0224 -0.1684
  146POPC   NC3 2234  10.322  10.104   8.616 -0.2171  0.0901 -0.0043
  146POPC   PO4 2235   9.880  10.194   8.589 -0.1681  0.0562 -0.4094
  146POPC   GL1 2236   9.641  10.016   8.271  0.1659  0.2204  0.0289
  146POPC   GL2 2237   9.872   9.767   8.212  0.0506  0.1059  0.0023
  146POPC   C1A 2238   9.209  10.074   7.954 -0.1972 -0.0018  0.1287
  146POPC   D2A 2239   8.944  10.213   7.621 -0.0056  0.1845  0.3123
  146POPC   C3A 2240   8.603  10.080   7.390  0.1699  0.0943  0.0546
  146POPC   C4A 2241   8.588   9.876   6.925  0.0961 -0.0133 -0.0890
  146POPC   C1B 2242  10.058   9.427   7.896  0.1498 -0.0228  0.1507
  146POPC   C2B 2243  10.009   9.040   7.591  0.3889 -0.0265 -0.0166
  146POPC   C3B 2244   9.799   8.801   7.227  0.0587 -0.1902  0.0435
  146POPC   C4B 2245   9.717   8.966   6.798  0.0157  0.1691 -0.3766
  147POPC   NC3 2246  10.276   1.733  10.182  0.2357  0.3093 -0.1980
  147POPC   PO4 2247  10.218   1.795   9.767 -0.3123 -0.0308 -0.0072
  147POPC   GL1 2248  10.375   2.059   9.528 -0.1983  0.0195 -0.1591
  147POPC   GL2 2249  10.722   2.199   9.588 -0.0251  0.4498  0.0060
  147POPC   C1A 2250  10.534   1.901   9.111 -0.0045  0.1226 -0.0353
  147POPC   D2A 2251  10.598   1.868   8.756  0.3229 -0.1731  0.1122
  147POPC   C3A 2252  10.642   1.868   8.316 -0.1536  0.0495 -0.1663
  147POPC   C4A 2253  10.857   2.016   7.968  0.0210  0.1618  0.1030
  147POPC   C1B 2254  10.903   2.325   9.217 -0.3002 -0.0202  0.1332
  147POPC   C2B 2255  10.954   2.242   8.784 -0.1642 -0.1898  0.0007
  147POPC   C3B 2256  10.916   2.283   8.380 -0.1758 -0.0337  0.1947
  147POPC   C4B 2257  10.627   2.487   8.004  0.4728 -0.0963 -0.0757
  148POPC   NC3 2258   5.474   8.326   8.919 -0.2814  0.0257  0.1256
  148POPC   PO4 2259   5.696   8.517   8.619 -0.2228  0.2147  0.1142
  148POPC   GL1 2260   5.658   8.666   8.268  0.2060  0.3478  0.0052
  148POPC   GL2 2261   5.532   8.892   8.076 -0.1019  0.0271 -0.1927
  148POPC   C1A 2262   5.901   8.547   8.026 -0.0471  0.1522  0.1837
  148POPC   D2A 2263   6.032   8.286   7.987  0.0032  0.4406 -0.1047
  148POPC   C3A 2264   5.965   8.088   7.487 -0.0182 -0.0812 -0.2203
  148POPC   C4A 2265   6.219   8.274   7.236  0.3890 -0.2056  0.2322
  148POPC   C1B 2266   5.566   8.830   7.655  0.0896 -0.0048  0.0168
  148POPC   C2B 2267   5.544   9.227   7.294  0.0163 -0.3447 -0.4743
  148POPC   C3B 2268   5.416   9.481   6.994 -0.1912 -0.1728 -0.1587
  148POPC   C4B 2269   5.019   9.637   6.932  0.3038 -0.2071 -0.2949
  149POPC   NC3 2270   6.005   5.677   9.449  0.0925 -0.0622 -0.1312
  149POPC   PO4 2271   6.240   5.853   9.250 -0.0387 -0.1693  0.0833
  149POPC   GL1 2272   6.248   5.753   8.876  0.0153  0.1994  0.0407
  149POPC   GL2 2273   6.425   5.457   8.816 -0.0166  0.4026  0.0038
  149POPC   C1A 2274   6.556   5.871   8.509 -0.1631 -0.0865 -0.0478
  149POPC   D2A 2275   6.355   5.904   8.116 -0.1519 -0.2194  0.3334
  149POPC   C3A 2276   6.411   5.497   7.914 -0.2907 -0.1084  0.2295
  149POPC   C4A 2277   6.578   5.186   7.836 -0.1187 -0.2095 -0.0553
  149POPC   C1B 2278   6.130   5.486   8.411  0.0169 -0.1395  0.0112
  149POPC   C2B 2279   5.791   5.662   8.093  0.0537 -0.0865  0.3794
  149POPC   C3B 2280   5.526   5.535   7.729 -0.0887  0.0109 -0.1179
  149POPC   C4B 2281   5.214   5.348   7.494  0.3584 -0.1496  0.1900
  150POPC   NC3 2282   9.365   2.562   9.126 -0.2715  0.1998  0.0834
  150POPC   PO4 2283   9.209   2.808   8.968 -0.0558  0.0055  0.1013
  150POPC   GL1 2284   9.238   2.907   8.547  0.2543 -0.1010 -0.1826
  150POPC   GL2 2285   9.139   3.238   8.570  0.2706  0.4427  0.1246
  150POPC   C1A 2286   9.353   2.702   8.163  0.0978  0.5030  0.3598
  150POPC   D2A 2287   9.710   2.586   7.893 -0.4139  0.0694 -0.2514
  150POPC   C3A 2288  10.020   2.995   7.695 -0.0756 -0.0687 -0.3159
  150POPC   C4A 2289  10.440   2.984   7.755  0.1676 -0.2146  0.2597
  150POPC   C1B 2290   9.081   3.150   8.079  0.1887 -0.0011  0.0460
  150POPC   C2B 2291   9.253   3.137   7.726 -0.1525 -0.0734 -0.1442
  150POPC   C3B 2292   9.617   3.270   7.563 -0.1863 -0.0609 -0.1425
  150POPC   C4B 2293   9.770   3.690   7.556 -0.0924 -0.2346  0.0483
  151POPC   NC3 2294   8.552   1.486   8.854  0.0737  0.2406 -0.2040
  151POPC   PO4 2295   8.147   1.264   8.791  0.0604  0.2015  0.1770
  151POPC   GL1 2296   8.175   1.317   8.438 -0.1926 -0.1235  0.1023
  151POPC   GL2 2297   8.374   1.506   8.250  0.0505  0.0970  0.0521
  151POPC   C1A 2298   8.246   1.136   7.971 -0.3557  0.0437  0.0075
  151POPC   D2A 2299   8.322   0.899   7.543 -0.0279 -0.1937 -0.0799
  151POPC   C3A 2300   8.317   0.490   7.657  0.0268 -0.0798  0.1368
  151POPC   C4A 2301   8.455   0.063   7.642  0.2368 -0.1223  0.3000
  151POPC   C1B 2302   8.500   1.568   7.835  0.2477 -0.2581 -0.0778
  151POPC   C2B 2303   8.742   1.692   7.527 -0.0382  0.1351  0.2000
  151POPC   C3B 2304   8.617   1.876   7.239 -0.0252  0.0096  0.0787
  151POPC   C4B 2305   8.646   1.968   6.846 -0.2630  0.3254  0.1291
  152POPC   NC3 2306   0.445   6.616   9.310 -0.0020  0.0366 -0.1413
  152POPC   PO4 2307   0.735   6.632   8.933  0.1094 -0.2427  0.5040
  152POPC   GL1 2308   0.807   6.470   8.504 -0.1435 -0.2041 -0.2605
  152POPC   GL2 2309   0.923   6.733   8.352  0.0545  0.0328  0.1146
  152POPC   C1A 2310   1.141   6.271   8.249  0.0233  0.0561  0.1796
  152POPC   D2A 2311   1.442   6.636   7.987 -0.0020 -0.0873 -0.1197
  152POPC   C3A 2312   1.615   6.642   7.588 -0.1700 -0.5195 -0.0539
  152POPC   C4A 2313   1.941   6.743   7.325  0.3494  0.1813 -0.2550
  152POPC   C1B 2314   0.901   6.756   8.015 -0.0705 -0.1098 -0.2456
  152POPC   C2B 2315   0.615   6.729   7.649  0.1372 -0.0119 -0.0126
  152POPC   C3B 2316   0.682   6.336   7.450 -0.0765  0.2202  0.0023
  152POPC   C4B 2317   0.782   6.040   7.095  0.0313 -0.1849 -0.3003
  153POPC   NC3 2318  10.028   5.722   8.836  0.2091 -0.0021 -0.0573
  153POPC   PO4 2319   9.794   5.940   8.515  0.0391  0.2125 -0.1282
  153POPC   GL1 2320  10.009   6.040   8.107  0.1561 -0.1985  0.2055
  153POPC   GL2 2321   9.992   6.354   7.868  0.0294  0.0341 -0.3349
  153POPC   C1A 2322  10.256   5.628   7.939  0.1452  0.1427 -0.0569
  153POPC   D2A 2323  10.489   5.328   7.876  0.0342  0.0645  0.0237
  153POPC   C3A 2324  10.304   5.002   7.864  0.1145 -0.0539 -0.2975
  153POPC   C4A 2325  10.273   4.856   7.490 -0.0582 -0.0698 -0.1268
  153POPC   C1B 2326   9.910   6.359   7.469  0.0438  0.1738 -0.1612
  153POPC   C2B 2327  10.157   6.261   7.186 -0.0292  0.0736 -0.0424
  153POPC   C3B 2328  10.106   6.017   6.834 -0.0015  0.1454 -0.0729
  153POPC   C4B 2329  10.004   5.589   6.805 -0.0909 -0.1918  0.1199
  154POPC   NC3 2330   0.815   2.677  10.332  0.0121 -0.0127 -0.1869
  154POPC   PO4 2331   0.426   3.049  10.366  0.0925  0.1237 -0.0857
  154POPC   GL1 2332   0.639   3.032   9.982 -0.1815 -0.1318 -0.1902
  154POPC   GL2 2333   0.964   2.956   9.879 -0.2008 -0.0705  0.0377
  154POPC   C1A 2334   0.542   3.168   9.565  0.2553 -0.3287  0.0205
  154POPC   D2A 2335   0.375   3.130   9.265 -0.3951  0.1185  0.0890
  154POPC   C3A 2336   0.501   3.132   8.764 -0.0067  0.0290  0.0624
  154POPC   C4A 2337   0.635   2.881   8.451 -0.1712  0.1082  0.1271
  154POPC   C1B 2338   1.220   2.681   9.581  0.1217  0.0402 -0.0306
  154POPC   C2B 2339   1.665   2.532   9.387  0.2949 -0.1485  0.0041
  154POPC   C3B 2340   2.036   2.435   9.069  0.1502 -0.1102 -0.2470
  154POPC   C4B 2341   2.182   2.614   8.745 -0.1487 -0.0426 -0.0216
  155POPC   NC3 2342   9.955   8.631   9.063  0.1699 -0.1900 -0.1288
  155POPC   PO4 2343  10.078   8.924   8.713 -0.3024  0.0337  0.3806
  155POPC   GL1 2344   9.755   9.096   8.499 -0.1957  0.0476 -0.2161
  155POPC   GL2 2345   9.878   8.887   8.219  0.3737  0.0257 -0.1215
  155POPC   C1A 2346   9.482   9.424   8.292  0.1340 -0.3122  0.0694
  155POPC   D2A 2347   9.547   9.707   7.880  0.3570  0.2885  0.0642
  155POPC   C3A 2348   9.783  10.161   7.830 -0.3727 -0.1828 -0.0357
  155POPC   C4A 2349  10.007  10.336   7.481  0.0217 -0.0015 -0.0708
  155POPC   C1B 2350   9.593   9.101   7.969  0.0007  0.1259  0.0648
  155POPC   C2B 2351   9.609   9.321   7.567 -0.1209 -0.0016  0.2493
  155POPC   C3B 2352   9.810   9.399   7.216 -0.1754 -0.3203  0.0158
  155POPC   C4B 2353   9.991   9.521   6.818  0.0053 -0.3410  0.1165
  156POPC   NC3 2354  10.415   0.398   9.347  0.1775 -0.3836 -0.0759
  156POPC   PO4 2355  10.570   0.831   9.447 -0.1389  0.0503 -0.1125
  156POPC   GL1 2356  10.814   0.965   9.162 -0.0146  0.2334  0.0003
  156POPC   GL2 2357  10.607   1.175   9.053  0.4500  0.0333 -0.3307
  156POPC   C1A 2358  10.871   0.802   8.689 -0.2604  0.1728 -0.3480
  156POPC   D2A 2359  10.829   0.461   8.494  0.0028  0.0081 -0.2074
  156POPC   C3A 2360  10.588   0.265   8.215 -0.0034  0.1283 -0.1308
  156POPC   C4A 2361  10.251   0.096   7.938 -0.1477 -0.2382  0.0910
  156POPC   C1B 2362  10.770   1.361   8.776 -0.2041  0.0232  0.1526
  156POPC   C2B 2363  11.019   1.579   8.500  0.1986 -0.0219  0.1051
  156POPC   C3B 2364  11.007   1.532   8.086  0.1452 -0.1577  0.0273
  156POPC   C4B 2365  10.940   1.241   7.856  0.1087 -0.0024  0.0798
  157POPC   NC3 2366   3.028   8.339   9.291  0.0228  0.0449 -0.2402
  157POPC   PO4 2367   2.816   8.111   8.954  0.2875 -0.1002 -0.2679
  157POPC   GL1 2368   3.109   8.068   8.638 -0.0076 -0.4631  0.2675
  157POPC   GL2 2369   3.180   7.743   8.671  0.1034  0.2734 -0.0729
  157POPC   C1A 2370   3.428   8.211   8.370 -0.0665 -0.0905  0.0484
  157POPC   D2A 2371   3.408   8.278   7.912  0.1198  0.2167 -0.1747
  157POPC   C3A 2372   3.194   8.629   7.725 -0.0193  0.1300  0.3067
  157POPC   C4A 2373   2.943   8.719   7.343  0.2351  0.0954 -0.0071
  157POPC   C1B 2374   3.132   7.742   8.265 -0.1873  0.2374 -0.3214
  157POPC   C2B 2375   3.258   7.741   7.788 -0.1762 -0.1231 -0.2698
  157POPC   C3B 2376   3.548   7.594   7.380 -0.1502 -0.4235  0.0010
  157POPC   C4B 2377   3.842   7.478   7.049 -0.1663  0.0814  0.0561
  158POPC   NC3 2378   9.143   4.465   8.653 -0.0396  0.0373 -0.0614
  158POPC   PO4 2379   8.803   4.831   8.863  0.0319 -0.0974  0.1544
  158POPC   GL1 2380   8.817   5.128   8.426 -0.1659 -0.3235  0.0091
  158POPC   GL2 2381   8.500   5.268   8.401  0.3854  0.1934 -0.0476
  158POPC   C1A 2382   8.744   5.092   7.924 -0.0398 -0.3806  0.0559
  158POPC   D2A 2383   8.764   5.253   7.528 -0.1134 -0.0931 -0.2541
  158POPC   C3A 2384   8.509   4.926   7.291 -0.3876  0.0683 -0.1046
  158POPC   C4A 2385   8.289   4.734   6.911  0.1198 -0.0958  0.1262
  158POPC   C1B 2386   8.250   5.143   8.018  0.3692 -0.1273 -0.2691
  158POPC   C2B 2387   8.237   5.084   7.646 -0.4698 -0.3338  0.1046
  158POPC   C3B 2388   7.989   4.780   7.426 -0.0740 -0.0673 -0.1416
  158POPC   C4B 2389   7.916   4.324   7.390  0.3081 -0.0743  0.1248
  159POPC   NC3 2390   6.943   3.946   9.062  0.2685 -0.0725 -0.1197
  159POPC   PO4 2391   6.667   4.057   8.764 -0.1065 -0.0990 -0.0636
  159POPC   GL1 2392   6.802   3.912   8.468 -0.0910 -0.6634  0.0405
  159POPC   GL2 2393   6.552   3.658   8.344 -0.3689 -0.0915 -0.0800
  159POPC   C1A 2394   6.760   4.032   8.074  0.2838 -0.0486 -0.2933
  159POPC   D2A 2395   7.007   3.926   7.689 -0.0337 -0.2831 -0.0148
  159POPC   C3A 2396   6.967   3.497   7.497 -0.2203  0.2357 -0.0849
  159POPC   C4A 2397   6.999   3.064   7.260 -0.0536 -0.3866 -0.3183
  159POPC   C1B 2398   6.622   3.623   7.866 -0.1411  0.0824  0.0105
  159POPC   C2B 2399   6.476   3.773   7.541  0.0161 -0.0039 -0.2118
  159POPC   C3B 2400   6.301   4.104   7.255 -0.1730 -0.4494  0.1939
  159POPC   C4B 2401   6.217   4.179   6.747  0.2973 -0.2538  0.1426
  160POPC   NC3 2402  10.124   9.507   9.160  0.0960  0.1041  0.0374
  160POPC   PO4 2403  10.377   9.609   8.746 -0.2168 -0.0744  0.1098
  160POPC   GL1 2404  10.458   9.682   8.305  0.1902  0.2387  0.0614
  160POPC   GL2 2405  10.278  10.025   8.121 -0.5037  0.1008 -0.0960
  160POPC   C1A 2406  10.574   9.620   7.940 -0.1086 -0.2853 -0.2150
  160POPC   D2A 2407  10.745   9.447   7.500 -0.3133 -0.3432  0.2744
  160POPC   C3A 2408  10.718   9.564   7.051  0.2372 -0.0742  0.0287
  160POPC   C4A 2409  10.482   9.480   6.704 -0.1975  0.2362 -0.0835
  160POPC   C1B 2410  10.198   9.872   7.677 -0.0938 -0.0913  0.0409
  160POPC   C2B 2411   9.836   9.882   7.384 -0.1286 -0.3615  0.1096
  160POPC   C3B 2412   9.542  10.268   7.419 -0.3864  0.1784  0.1779
  160POPC   C4B 2413   9.656  10.637   7.169  0.0946  0.0392 -0.0379
  161POPC   NC3 2414   6.585   7.016   8.717 -0.1915  0.1118 -0.1625
  161POPC   PO4 2415   6.802   6.787   9.011  0.0647  0.1854  0.0438
  161POPC   GL1 2416   6.904   6.632   8.553 -0.0225 -0.3751  0.0890
  161POPC   GL2 2417   6.960   6.868   8.356  0.1282 -0.1061 -0.2602
  161POPC   C1A 2418   6.741   6.304   8.282 -0.2030  0.0766  0.0297
  161POPC   D2A 2419   6.854   5.825   8.074  0.0625  0.2798 -0.1625
  161POPC   C3A 2420   6.778   5.440   8.278 -0.0230 -0.0924  0.1524
  161POPC   C4A 2421   6.474   5.057   8.265 -0.3466 -0.2879  0.2595
  161POPC   C1B 2422   6.925   6.790   7.956 -0.0291 -0.1488 -0.1045
  161POPC   C2B 2423   6.638   6.490   7.747 -0.0513 -0.1120 -0.0295
  161POPC   C3B 2424   6.403   6.074   7.653  0.0118  0.1714 -0.1081
  161POPC   C4B 2425   6.572   5.876   7.208  0.4328 -0.0410  0.0845
  162POPC   NC3 2426   6.847   8.788   8.648  0.1479  0.0682 -0.0656
  162POPC   PO4 2427   6.462   9.139   8.761 -0.1635  0.1571  0.1161
  162POPC   GL1 2428   6.454   9.390   8.406  0.1323  0.0345  0.0711
  162POPC   GL2 2429   6.084   9.504   8.416 -0.1955  0.2129 -0.1382
  162POPC   C1A 2430   6.540   9.593   8.027  0.0393 -0.2761  0.0054
  162POPC   D2A 2431   6.712   9.794   7.688  0.1270  0.2032 -0.1286
  162POPC   C3A 2432   6.749   9.695   7.334  0.2514  0.0285 -0.1265
  162POPC   C4A 2433   7.013   9.509   6.897 -0.1532 -0.0610 -0.0296
  162POPC   C1B 2434   6.058   9.594   8.011 -0.0934 -0.1614  0.0536
  162POPC   C2B 2435   6.230   9.697   7.703  0.3563 -0.2587 -0.1437
  162POPC   C3B 2436   6.279   9.653   7.260 -0.0365 -0.0405  0.3364
  162POPC   C4B 2437   6.376   9.484   6.865  0.1242  0.1243  0.1015
  163POPC   NC3 2438   4.058   7.232   8.995  0.1379  0.1526  0.3409
  163POPC   PO4 2439   4.475   7.370   8.901  0.0659 -0.1142 -0.3233
  163POPC   GL1 2440   4.441   7.207   8.455 -0.0247 -0.0642 -0.1462
  163POPC   GL2 2441   4.221   6.965   8.374 -0.0399  0.2278 -0.0893
  163POPC   C1A 2442   4.667   7.017   8.151  0.1327  0.1872  0.2570
  163POPC   D2A 2443   4.865   6.902   7.783  0.1046  0.2212 -0.2882
  163POPC   C3A 2444   5.076   7.169   7.456 -0.0741 -0.2359 -0.0811
  163POPC   C4A 2445   5.297   7.001   7.085 -0.2247 -0.0036  0.1648
  163POPC   C1B 2446   4.128   7.336   7.989  0.1776  0.1185 -0.1725
  163POPC   C2B 2447   4.411   7.662   7.944 -0.0983  0.0646 -0.1684
  163POPC   C3B 2448   4.135   8.158   7.884 -0.0470  0.2304 -0.2206
  163POPC   C4B 2449   3.846   8.397   7.995 -0.0009  0.2546  0.0124
  164POPC   NC3 2450   4.496   9.047   8.806 -0.0276 -0.2196 -0.2504
  164POPC   PO4 2451   4.757   8.665   8.686  0.1266 -0.0734  0.2563
  164POPC   GL1 2452   4.787   8.449   8.245  0.0476  0.1828  0.2980
  164POPC   GL2 2453   4.761   8.144   8.302 -0.0336  0.3608 -0.0733
  164POPC   C1A 2454   4.591   8.322   7.787  0.2797  0.1005  0.4343
  164POPC   D2A 2455   4.244   8.388   7.413  0.0423  0.0971 -0.0119
  164POPC   C3A 2456   4.284   8.662   7.097 -0.1798 -0.2828  0.0314
  164POPC   C4A 2457   4.177   8.625   6.673 -0.0218 -0.1676 -0.0954
  164POPC   C1B 2458   4.971   8.040   7.993 -0.1238  0.1468  0.3261
  164POPC   C2B 2459   4.817   7.850   7.709  0.0022  0.1205  0.0254
  164POPC   C3B 2460   4.649   7.989   7.356 -0.1593  0.0306  0.0012
  164POPC   C4B 2461   4.724   7.803   6.957  0.0763 -0.2667 -0.1555
  165POPC   NC3 2462   1.554   9.902   8.688 -0.0057  0.2832  0.1393
  165POPC   PO4 2463   1.745  10.312   8.893  0.1423  0.1232 -0.1997
  165POPC   GL1 2464   1.707  10.361   8.466  0.0884 -0.2915  0.0829
  165POPC   GL2 2465   1.680  10.730   8.513 -0.1232  0.0704  0.1438
  165POPC   C1A 2466   1.557  10.479   8.086 -0.1521 -0.4193 -0.1036
  165POPC   D2A 2467   1.569  10.902   8.029  0.1521 -0.0755  0.5950
  165POPC   C3A 2468   1.820  10.970   7.801  0.1894 -0.1720  0.2324
  165POPC   C4A 2469   1.918  11.269   7.478 -0.2179  0.0550 -0.0911
  165POPC   C1B 2470   1.268  10.830   8.445 -0.2088 -0.4457 -0.2120
  165POPC   C2B 2471   0.816  10.894   8.318  0.0082 -0.0318 -0.0060
  165POPC   C3B 2472   0.678  10.947   7.928 -0.1762  0.2117 -0.1111
  165POPC   C4B 2473   0.464  11.131   7.581  0.0518 -0.0944  0.0006
  166POPC   NC3 2474   9.420   0.209   9.077 -0.0438  0.1294 -0.4692
  166POPC   PO4 2475   8.980   0.276   8.899 -0.0955  0.1086  0.1117
  166POPC   GL1 2476   9.114   0.413   8.581  0.1743  0.1172  0.1532
  166POPC   GL2 2477   9.376   0.442   8.437  0.2692 -0.1031 -0.2038
  166POPC   C1A 2478   8.944   0.350   8.172  0.2678 -0.2249 -0.0961
  166POPC   D2A 2479   8.803   0.376   7.785  0.0420  0.0948 -0.0151
  166POPC   C3A 2480   8.707   0.554   7.394 -0.1259  0.1216 -0.1827
  166POPC   C4A 2481   8.566   0.817   7.108  0.1719  0.2441 -0.0482
  166POPC   C1B 2482   9.421   0.514   8.017 -0.0939  0.1720 -0.1083
  166POPC   C2B 2483   9.575   0.563   7.515  0.1142  0.1601  0.3010
  166POPC   C3B 2484   9.482   0.782   7.176 -0.0930  0.1515 -0.0064
  166POPC   C4B 2485   9.060   0.897   7.154  0.0517  0.2335  0.1324
  167POPC   NC3 2486   6.807   9.522   8.754  0.0302  0.1029 -0.2400
  167POPC   PO4 2487   7.267   9.380   8.830 -0.0637  0.0752  0.3832
  167POPC   GL1 2488   7.118   9.182   8.471 -0.2340 -0.0457 -0.0154
  167POPC   GL2 2489   6.776   9.041   8.238  0.0282  0.3358 -0.0495
  167POPC   C1A 2490   7.131   9.372   8.182 -0.1071  0.1284  0.5903
  167POPC   D2A 2491   6.994   9.444   7.799  0.0447  0.0387  0.3151
  167POPC   C3A 2492   7.084   9.301   7.348  0.1341  0.2932 -0.1794
  167POPC   C4A 2493   6.959   9.029   7.067 -0.0575 -0.0082  0.2443
  167POPC   C1B 2494   6.509   9.154   7.811 -0.0695  0.0148  0.1177
  167POPC   C2B 2495   6.571   9.224   7.343  0.1974 -0.1238  0.1551
  167POPC   C3B 2496   6.491   8.882   7.145 -0.0232  0.0577  0.0308
  167POPC   C4B 2497   6.315   8.562   6.877  0.0198 -0.1135 -0.0648
  168POPC   NC3 2498   6.545   6.107   5.568  0.0464  0.2412 -0.3208
  168POPC   PO4 2499   6.718   5.812   5.177  0.4297  0.0201  0.0045
  168POPC   GL1 2500   6.788   5.587   5.622 -0.1680 -0.1108 -0.3932
  168POPC   GL2 2501   6.989   5.373   5.594  0.0659  0.2618  0.1303
  168POPC   C1A 2502   6.570   5.404   6.004 -0.0613  0.1260 -0.0222
  168POPC   D2A 2503   6.463   5.447   6.444 -0.0718 -0.1617  0.1538
  168POPC   C3A 2504   6.376   5.837   6.689  0.0091 -0.1087  0.1554
  168POPC   C4A 2505   6.522   6.138   6.741  0.1487  0.0298  0.0757
  168POPC   C1B 2506   7.042   5.305   6.073 -0.0453 -0.2736 -0.2295
  168POPC   C2B 2507   6.808   5.122   6.353  0.0068  0.1143 -0.0652
  168POPC   C3B 2508   6.564   5.081   6.751 -0.1114 -0.3146 -0.3055
  168POPC   C4B 2509   6.196   5.338   6.804 -0.0996 -0.1628 -0.0328
  169POPC   NC3 2510   6.887   5.105   4.613  0.1420  0.1361 -0.0151
  169POPC   PO4 2511   6.526   4.935   4.943  0.0700 -0.0244 -0.0216
  169POPC   GL1 2512   6.645   5.086   5.367  0.0659 -0.3454  0.0071
  169POPC   GL2 2513   6.441   5.163   5.613  0.2489 -0.0506 -0.1074
  169POPC   C1A 2514   6.806   4.972   5.816 -0.0617  0.2839 -0.0316
  169POPC   D2A 2515   6.495   4.688   6.026  0.0487 -0.1432 -0.1315
  169POPC   C3A 2516   6.644   4.582   6.441  0.0959 -0.1716 -0.2984
  169POPC   C4A 2517   6.964   4.311   6.584 -0.1686 -0.0829  0.2865
  169POPC   C1B 2518   6.168   5.048   5.953 -0.0826 -0.0722  0.0874
  169POPC   C2B 2519   6.231   4.945   6.404 -0.1297  0.2317 -0.3439
  169POPC   C3B 2520   6.320   4.676   6.770  0.1283  0.0085 -0.2167
  169POPC   C4B 2521   6.662   4.595   6.921  0.1578  0.1114 -0.0276
  170POPC   NC3 2522   6.054   9.980   5.074 -0.2798 -0.1385  0.1376
  170POPC   PO4 2523   5.512  10.014   5.146 -0.2505 -0.0862  0.2608
  170POPC   GL1 2524   5.512  10.099   5.582  0.1432  0.2622 -0.0852
  170POPC   GL2 2525   5.342  10.320   5.713  0.3263 -0.3594 -0.0286
  170POPC   C1A 2526   5.754  10.076   5.951 -0.2525 -0.0243  0.0319
  170POPC   D2A 2527   5.723  10.268   6.345  0.2111 -0.1470 -0.2254
  170POPC   C3A 2528   6.050  10.548   6.308  0.0394  0.1204  0.0621
  170POPC   C4A 2529   6.150  11.018   6.367  0.0502  0.1721  0.0951
  170POPC   C1B 2530   5.264  10.073   6.083  0.1526 -0.1234  0.0879
  170POPC   C2B 2531   5.367   9.914   6.431 -0.0453 -0.1237 -0.0248
  170POPC   C3B 2532   5.537   9.826   6.673 -0.3538 -0.1058  0.3294
  170POPC   C4B 2533   5.960   9.814   6.570  0.2308 -0.2708 -0.2240
  171POPC   NC3 2534   5.751   1.737   4.666  0.2260 -0.0314  0.1961
  171POPC   PO4 2535   5.770   2.107   4.462 -0.1620  0.1220 -0.1996
  171POPC   GL1 2536   5.653   2.162   4.928  0.1830 -0.0224  0.2605
  171POPC   GL2 2537   5.734   1.879   5.130 -0.1807  0.1758 -0.0060
  171POPC   C1A 2538   5.504   2.234   5.378 -0.2927  0.1139 -0.1281
  171POPC   D2A 2539   5.320   2.112   5.885 -0.1543  0.0257  0.1569
  171POPC   C3A 2540   5.499   1.841   6.158 -0.0359  0.0549 -0.1617
  171POPC   C4A 2541   5.754   1.909   6.579  0.0867  0.1057  0.0367
  171POPC   C1B 2542   5.786   1.799   5.566  0.0607  0.0665  0.2546
  171POPC   C2B 2543   5.956   1.570   5.763 -0.2068 -0.1109 -0.2935
  171POPC   C3B 2544   6.054   1.447   6.136 -0.0119  0.2979 -0.1327
  171POPC   C4B 2545   6.456   1.436   6.229  0.0909  0.0153  0.2261
  172POPC   NC3 2546   7.607   9.517   4.612 -0.3180 -0.1287  0.2101
  172POPC   PO4 2547   7.378   9.390   4.948  0.0183 -0.2591  0.0217
  172POPC   GL1 2548   7.296   9.299   5.421  0.3834 -0.2387  0.0300
  172POPC   GL2 2549   7.322   8.941   5.382 -0.0056  0.1389  0.0610
  172POPC   C1A 2550   6.987   9.059   5.701  0.0793  0.2826 -0.1021
  172POPC   D2A 2551   6.577   9.091   5.916 -0.2077 -0.1619 -0.0646
  172POPC   C3A 2552   6.571   8.921   6.335  0.2532 -0.0897 -0.0649
  172POPC   C4A 2553   6.776   8.809   6.678  0.0679 -0.2262  0.1622
  172POPC   C1B 2554   7.461   8.664   5.774  0.2829 -0.2217 -0.1476
  172POPC   C2B 2555   7.580   8.400   6.011 -0.1680 -0.1076  0.1240
  172POPC   C3B 2556   7.835   8.325   6.377  0.0671  0.0632  0.1445
  172POPC   C4B 2557   8.046   8.032   6.561  0.0171  0.1777 -0.1582
  173POPC   NC3 2558   8.428   4.841   4.792 -0.3973  0.2787 -0.0206
  173POPC   PO4 2559   8.288   4.872   5.173 -0.0287 -0.0049 -0.0281
  173POPC   GL1 2560   8.307   5.228   5.583  0.0685 -0.0308  0.0872
  173POPC   GL2 2561   8.540   5.524   5.530 -0.0466 -0.0245 -0.1757
  173POPC   C1A 2562   8.232   5.464   5.906 -0.0169  0.0579  0.2059
  173POPC   D2A 2563   8.267   5.717   6.234 -0.1503 -0.0439  0.0119
  173POPC   C3A 2564   8.193   5.593   6.639  0.1840  0.3927  0.2855
  173POPC   C4A 2565   8.183   5.267   7.041 -0.0169 -0.0735 -0.0971
  173POPC   C1B 2566   8.903   5.628   5.720 -0.0468  0.0873  0.2891
  173POPC   C2B 2567   9.285   5.640   5.901  0.0034 -0.1474  0.0462
  173POPC   C3B 2568   9.539   6.029   5.954 -0.0549  0.0026  0.1641
  173POPC   C4B 2569   9.864   6.232   5.738  0.2670  0.3027  0.0299
  174POPC   NC3 2570   4.643   5.328   4.714  0.1932  0.0759  0.0269
  174POPC   PO4 2571   4.259   5.382   4.857  0.1618 -0.2255 -0.2312
  174POPC   GL1 2572   3.993   5.100   4.911 -0.2434 -0.1332 -0.3165
  174POPC   GL2 2573   3.930   5.124   5.236 -0.1522  0.1158  0.1580
  174POPC   C1A 2574   3.615   4.777   4.964 -0.2970  0.0604 -0.0754
  174POPC   D2A 2575   3.153   4.735   5.129  0.1991  0.0789  0.0911
  174POPC   C3A 2576   3.101   4.650   5.523 -0.0342  0.0311  0.1936
  174POPC   C4A 2577   3.033   4.339   5.819  0.1355  0.0485 -0.1640
  174POPC   C1B 2578   3.854   4.793   5.654  0.1522  0.0744  0.3598
  174POPC   C2B 2579   3.606   4.633   5.898  0.2152 -0.0410  0.0572
  174POPC   C3B 2580   3.787   4.126   5.935  0.0390 -0.1168  0.3806
  174POPC   C4B 2581   3.493   3.881   5.805 -0.1639  0.2021 -0.1702
  175POPC   NC3 2582   7.230   5.800   5.198 -0.2861 -0.2614 -0.0063
  175POPC   PO4 2583   7.468   5.555   5.147  0.2080  0.0048  0.1145
  175POPC   GL1 2584   7.386   5.258   5.308 -0.2786 -0.0486 -0.4355
  175POPC   GL2 2585   7.355   5.035   5.413 -0.2935  0.0197  0.2914
  175POPC   C1A 2586   7.727   5.290   5.737  0.2126  0.1652 -0.1520
  175POPC   D2A 2587   7.700   5.331   6.184  0.2203 -0.0864  0.1211
  175POPC   C3A 2588   7.429   5.180   6.603  0.2350 -0.0478  0.0705
  175POPC   C4A 2589   7.122   4.952   6.769 -0.2203 -0.0132  0.1835
  175POPC   C1B 2590   7.332   5.031   5.847 -0.0594  0.0225 -0.1733
  175POPC   C2B 2591   7.176   4.738   6.220 -0.3199 -0.1995  0.0956
  175POPC   C3B 2592   7.481   4.652   6.630 -0.0273  0.1030  0.2629
  175POPC   C4B 2593   7.782   4.533   6.931 -0.0350 -0.1479  0.1890
  176POPC   NC3 2594   9.834   7.835   4.560  0.0900 -0.0191  0.1236
  176POPC   PO4 2595   9.934   7.834   5.032 -0.0946 -0.0135  0.0583
  176POPC   GL1 2596   9.784   7.856   5.407  0.1459 -0.0448  0.0578
  176POPC   GL2 2597   9.895   7.499   5.684  0.1593 -0.1198  0.0736
  176POPC   C1A 2598   9.956   8.157   5.713  0.0882 -0.2928  0.0822
  176POPC   D2A 2599   9.940   8.335   6.211  0.2395 -0.0046 -0.1082
  176POPC   C3A 2600  10.274   8.602   6.422  0.0703  0.1118 -0.2820
  176POPC   C4A 2601  10.626   8.917   6.550  0.2190  0.0611  0.3729
  176POPC   C1B 2602   9.612   7.415   6.096 -0.0071  0.0904  0.3895
  176POPC   C2B 2603   9.320   7.644   6.386  0.2031  0.0905  0.2106
  176POPC   C3B 2604   9.456   8.031   6.599  0.0112  0.0199  0.1699
  176POPC   C4B 2605   9.571   8.356   6.597 -0.0167 -0.1303 -0.2157
  177POPC   NC3 2606   9.360   0.274   4.963  0.0211  0.0096  0.0115
  177POPC   PO4 2607   9.154   0.617   5.189  0.0297  0.1528 -0.0375
  177POPC   GL1 2608   9.376   0.487   5.571 -0.0371 -0.0353  0.1357
  177POPC   GL2 2609   9.533   0.165   5.445 -0.0339 -0.0296 -0.0564
  177POPC   C1A 2610   9.261   0.331   5.853 -0.0575  0.1669  0.0193
  177POPC   D2A 2611   9.129   0.316   6.264 -0.0714  0.0474  0.3041
  177POPC   C3A 2612   9.093   0.090   6.645  0.1633 -0.2203  0.0203
  177POPC   C4A 2613   9.135  -0.045   7.096 -0.1288  0.2653 -0.2328
  177POPC   C1B 2614   9.775   0.111   5.852 -0.0063 -0.1464 -0.0262
  177POPC   C2B 2615   9.885   0.034   6.203 -0.2888  0.1698 -0.1377
  177POPC   C3B 2616  10.184  -0.192   6.436  0.2675 -0.1959  0.1102
  177POPC   C4B 2617  10.057  -0.298   6.795  0.1894 -0.1691 -0.4135
  178POPC   NC3 2618   8.497   6.322   5.015  0.0234  0.1511 -0.2241
  178POPC   PO4 2619   8.274   5.955   5.165  0.1818  0.0061 -0.0636
  178POPC   GL1 2620   8.499   6.051   5.525 -0.3512 -0.3157  0.0873
  178POPC   GL2 2621   8.869   6.080   5.525 -0.1329 -0.1474  0.1968
  178POPC   C1A 2622   8.606   6.002   6.058 -0.0805  0.1452  0.2155
  178POPC   D2A 2623   8.423   6.211   6.361  0.1134 -0.1395  0.0479
  178POPC   C3A 2624   8.339   6.696   6.265 -0.0699 -0.1246 -0.1186
  178POPC   C4A 2625   8.004   7.053   6.203  0.3489  0.2046  0.0519
  178POPC   C1B 2626   9.021   6.167   5.885 -0.1211  0.2222  0.0259
  178POPC   C2B 2627   9.061   5.910   6.287 -0.0908 -0.3108 -0.0719
  178POPC   C3B 2628   9.224   5.877   6.654  0.1722 -0.3049  0.2219
  178POPC   C4B 2629   9.248   5.576   6.967  0.2915 -0.1239 -0.3977
  179POPC   NC3 2630   3.548   9.370   5.019 -0.1484  0.1702  0.2639
  179POPC   PO4 2631   3.473   8.910   5.042  0.0654  0.0805  0.0162
  179POPC   GL1 2632   3.353   8.990   5.373 -0.0353 -0.0454 -0.3243
  179POPC   GL2 2633   3.118   8.902   5.601 -0.1295 -0.3421  0.2656
  179POPC   C1A 2634   3.590   9.092   5.809  0.2659  0.2641 -0.0829
  179POPC   D2A 2635   3.640   9.118   6.328  0.0082  0.0508 -0.2234
  179POPC   C3A 2636   3.621   8.753   6.674 -0.2496  0.2712 -0.1866
  179POPC   C4A 2637   3.435   8.385   6.867 -0.0282  0.1145 -0.1262
  179POPC   C1B 2638   3.228   8.855   5.961 -0.0436  0.1265  0.3280
  179POPC   C2B 2639   3.265   8.731   6.356  0.4473  0.1804 -0.0733
  179POPC   C3B 2640   3.023   8.427   6.615  0.0927 -0.3237 -0.2539
  179POPC   C4B 2641   2.723   8.459   6.915  0.0607  0.1720  0.2002
  180POPC   NC3 2642   9.171   8.408   4.943 -0.0227 -0.1615 -0.1010
  180POPC   PO4 2643   8.818   8.273   5.226 -0.2819  0.1626  0.0906
  180POPC   GL1 2644   9.107   8.271   5.511 -0.1483  0.0192  0.0715
  180POPC   GL2 2645   9.073   7.979   5.530 -0.1527 -0.0704  0.0362
  180POPC   C1A 2646   9.396   8.320   5.814  0.0081 -0.0297 -0.2022
  180POPC   D2A 2647   9.208   8.693   6.087 -0.0018 -0.0412 -0.2521
  180POPC   C3A 2648   9.309   8.990   6.455  0.3569  0.1183 -0.2507
  180POPC   C4A 2649   9.080   9.057   6.749  0.0124  0.0232  0.0305
  180POPC   C1B 2650   9.299   7.614   5.413 -0.0052 -0.0978 -0.1788
  180POPC   C2B 2651   9.438   7.306   5.595  0.0003  0.1525 -0.3880
  180POPC   C3B 2652   9.619   6.937   5.819 -0.1575 -0.2259  0.2063
  180POPC   C4B 2653   9.956   6.789   5.736  0.0107  0.2339  0.2967
  181POPC   NC3 2654   2.123   3.816   3.336 -0.0898  0.1712  0.0087
  181POPC   PO4 2655   2.279   4.258   3.386  0.1095 -0.0901  0.3363
  181POPC   GL1 2656   2.192   4.063   3.805 -0.3021 -0.2150 -0.1394
  181POPC   GL2 2657   1.911   4.173   3.967 -0.1052 -0.1674 -0.0795
  181POPC   C1A 2658   2.012   3.639   3.968 -0.0916 -0.2618 -0.0401
  181POPC   D2A 2659   1.821   3.333   4.172 -0.0054  0.0881 -0.0295
  181POPC   C3A 2660   2.102   3.228   4.513  0.2126 -0.1580 -0.0352
  181POPC   C4A 2661   2.490   3.175   4.826  0.0224  0.3717 -0.1459
  181POPC   C1B 2662   2.253   3.932   4.271 -0.0823  0.2501  0.0972
  181POPC   C2B 2663   2.530   3.699   4.649 -0.2939  0.2420  0.0952
  181POPC   C3B 2664   2.630   3.589   5.111  0.0548 -0.1677 -0.3757
  181POPC   C4B 2665   2.600   3.128   5.366  0.0033  0.2036  0.1294
  182POPC   NC3 2666   4.954   6.953   5.168 -0.1293 -0.0406 -0.0111
  182POPC   PO4 2667   5.360   6.969   5.085 -0.5625 -0.0122 -0.0374
  182POPC   GL1 2668   5.452   7.299   5.423 -0.2739  0.1996 -0.1344
  182POPC   GL2 2669   5.471   6.960   5.576 -0.0447 -0.1345  0.1059
  182POPC   C1A 2670   5.426   7.465   5.758  0.1443  0.0380 -0.1759
  182POPC   D2A 2671   5.495   7.563   6.068  0.0962 -0.4050 -0.1133
  182POPC   C3A 2672   5.488   8.026   6.014 -0.2408  0.0074  0.1909
  182POPC   C4A 2673   5.565   8.442   6.178 -0.0064  0.1251  0.0672
  182POPC   C1B 2674   5.136   6.967   5.851 -0.1507 -0.2456  0.0793
  182POPC   C2B 2675   4.926   7.227   6.067  0.1453  0.3793 -0.0538
  182POPC   C3B 2676   5.097   7.476   6.451 -0.3105  0.0471  0.1805
  182POPC   C4B 2677   5.115   7.750   6.683  0.2485 -0.0606  0.1461
  183POPC   NC3 2678   6.792   3.893   4.517  0.1664  0.0146 -0.3611
  183POPC   PO4 2679   7.092   3.871   4.840 -0.0998  0.2649 -0.2801
  183POPC   GL1 2680   6.972   4.042   5.322  0.1411 -0.0255 -0.3517
  183POPC   GL2 2681   6.740   4.290   5.284 -0.2748  0.1700  0.0457
  183POPC   C1A 2682   6.918   3.960   5.703  0.1090 -0.4673  0.0568
  183POPC   D2A 2683   6.739   4.144   6.098 -0.0663  0.0629 -0.0371
  183POPC   C3A 2684   6.280   4.212   6.226  0.0209 -0.2656  0.0353
  183POPC   C4A 2685   6.026   3.902   6.285  0.0633 -0.3625  0.2898
  183POPC   C1B 2686   7.014   4.434   5.782 -0.1482 -0.0954 -0.0996
  183POPC   C2B 2687   7.307   4.216   6.112  0.0474  0.2040  0.1206
  183POPC   C3B 2688   7.491   3.834   6.332  0.0472 -0.1240 -0.1280
  183POPC   C4B 2689   7.412   3.432   6.431  0.0502  0.0428  0.1014
  184POPC   NC3 2690   2.124   5.389   4.303 -0.0049  0.3296  0.1938
  184POPC   PO4 2691   2.229   5.807   4.495 -0.2360 -0.2303  0.0208
  184POPC   GL1 2692   2.191   5.563   4.833  0.0995 -0.3885  0.1749
  184POPC   GL2 2693   2.346   5.217   4.846 -0.2114 -0.1250  0.1856
  184POPC   C1A 2694   2.319   5.462   5.306 -0.0121 -0.1311 -0.0070
  184POPC   D2A 2695   2.359   5.379   5.735  0.3103 -0.2474 -0.0411
  184POPC   C3A 2696   2.005   5.381   6.044  0.2174 -0.2552  0.2259
  184POPC   C4A 2697   1.978   5.550   6.433  0.2612  0.0194 -0.0356
  184POPC   C1B 2698   2.231   4.973   5.221  0.1311  0.0002 -0.0256
  184POPC   C2B 2699   2.225   4.865   5.597 -0.1693 -0.0109 -0.0622
  184POPC   C3B 2700   2.208   4.909   6.051  0.3885 -0.2381 -0.1727
  184POPC   C4B 2701   2.287   5.080   6.466  0.1053  0.5226 -0.0162
  185POPC   NC3 2702   2.459   7.048   4.765 -0.0058  0.0282 -0.4066
  185POPC   PO4 2703   2.478   6.657   4.985  0.1292  0.0633 -0.0876
  185POPC   GL1 2704   2.379   6.382   5.231 -0.0290 -0.0078 -0.1534
  185POPC   GL2 2705   2.510   5.910   5.133  0.0608  0.0905  0.4366
  185POPC   C1A 2706   2.378   6.333   5.721  0.0413 -0.1191 -0.0305
  185POPC   D2A 2707   2.345   6.364   6.135 -0.2125 -0.0726  0.0840
  185POPC   C3A 2708   2.409   6.591   6.645  0.2554  0.3012  0.1994
  185POPC   C4A 2709   2.385   6.924   6.985  0.1499  0.0301  0.1531
  185POPC   C1B 2710   2.410   5.888   5.564 -0.2696  0.0085 -0.2633
  185POPC   C2B 2711   2.349   5.756   6.028 -0.0371  0.0286 -0.2164
  185POPC   C3B 2712   2.445   5.561   6.525 -0.1073  0.2834 -0.1765
  185POPC   C4B 2713   2.767   5.742   6.853 -0.0217  0.3387  0.3105
  186POPC   NC3 2714  10.028   2.494   3.725  0.2311 -0.0922 -0.1415
  186POPC   PO4 2715   9.803   2.252   3.860 -0.3686  0.0246  0.0673
  186POPC   GL1 2716  10.174   2.422   4.200 -0.0992  0.0345 -0.1016
  186POPC   GL2 2717  10.486   2.229   4.303  0.1322 -0.0242 -0.2226
  186POPC   C1A 2718  10.178   2.436   4.699 -0.1641 -0.2368  0.1126
  186POPC   D2A 2719   9.978   2.230   5.010  0.1378 -0.0544  0.1081
  186POPC   C3A 2720   9.828   2.330   5.479  0.0765 -0.0961 -0.0245
  186POPC   C4A 2721   9.794   2.231   5.829  0.0179 -0.1462  0.0760
  186POPC   C1B 2722  10.681   2.359   4.608  0.1785  0.0931  0.1590
  186POPC   C2B 2723  10.619   2.445   5.057 -0.3897  0.2825 -0.2075
  186POPC   C3B 2724  10.652   2.632   5.402 -0.0380 -0.0505 -0.0689
  186POPC   C4B 2725  10.736   2.981   5.592  0.1988 -0.0161 -0.4152
  187POPC   NC3 2726   8.330  10.140   4.802  0.0025  0.0305 -0.0832
  187POPC   PO4 2727   8.521   9.798   5.052 -0.0250 -0.1658  0.0990
  187POPC   GL1 2728   8.633  10.015   5.453  0.0374  0.1871  0.0127
  187POPC   GL2 2729   8.450   9.790   5.619 -0.2739 -0.0756 -0.0271
  187POPC   C1A 2730   8.866   9.907   5.913  0.0069 -0.1255  0.0746
  187POPC   D2A 2731   9.260   9.824   6.146 -0.1544  0.2189 -0.1119
  187POPC   C3A 2732   9.494   9.608   5.899 -0.0506  0.0977 -0.2893
  187POPC   C4A 2733   9.889   9.702   5.727  0.0501  0.1076  0.1351
  187POPC   C1B 2734   8.438   9.658   6.066 -0.2235  0.1407 -0.2709
  187POPC   C2B 2735   8.783   9.561   6.400  0.5573  0.0067  0.1180
  187POPC   C3B 2736   9.135   9.441   6.447 -0.4752  0.2381  0.1881
  187POPC   C4B 2737   9.475   9.398   6.681 -0.0099 -0.2109 -0.2231
  188POPC   NC3 2738   6.500   0.235   5.013 -0.1260  0.1550 -0.0233
  188POPC   PO4 2739   6.079   0.017   4.855  0.4178  0.0032 -0.1444
  188POPC   GL1 2740   6.188  -0.026   5.290 -0.0544  0.1547 -0.1331
  188POPC   GL2 2741   6.143  -0.285   5.523 -0.0371 -0.1672  0.1430
  188POPC   C1A 2742   5.925   0.066   5.734 -0.2017 -0.0309  0.1097
  188POPC   D2A 2743   5.846   0.538   5.959  0.0578  0.1197  0.2030
  188POPC   C3A 2744   5.403   0.696   6.092 -0.2418  0.2275  0.0107
  188POPC   C4A 2745   5.200   0.604   6.565  0.1310  0.0567  0.1897
  188POPC   C1B 2746   6.366  -0.238   5.858  0.2404 -0.0710  0.2041
  188POPC   C2B 2747   6.739   0.042   6.095 -0.0916 -0.0220  0.2559
  188POPC   C3B 2748   7.182   0.189   6.085 -0.2642  0.0181 -0.2068
  188POPC   C4B 2749   7.532   0.153   6.356  0.0039 -0.0691 -0.0784
  189POPC   NC3 2750   8.891   3.466   4.840 -0.1379 -0.0521 -0.4365
  189POPC   PO4 2751   8.628   3.792   4.892  0.1576 -0.2007  0.2531
  189POPC   GL1 2752   8.749   3.601   5.332 -0.0103 -0.2942  0.0174
  189POPC   GL2 2753   8.567   3.914   5.501 -0.0763 -0.1341 -0.0571
  189POPC   C1A 2754   8.829   3.714   5.840  0.0291 -0.1762 -0.2563
  189POPC   D2A 2755   9.065   3.704   6.242 -0.1578 -0.0429 -0.0217
  189POPC   C3A 2756   9.279   3.772   6.555 -0.3029 -0.0125 -0.1485
  189POPC   C4A 2757   9.701   3.724   6.754  0.1013 -0.1849  0.2574
  189POPC   C1B 2758   8.507   4.216   5.932  0.0523 -0.0069  0.2585
  189POPC   C2B 2759   8.719   4.273   6.292 -0.0444 -0.0024 -0.0980
  189POPC   C3B 2760   9.124   4.394   6.463  0.0940  0.0480 -0.2448
  189POPC   C4B 2761   9.576   4.198   6.628  0.0977 -0.1145 -0.0593
  190POPC   NC3 2762   5.954   6.082   5.613 -0.1073  0.0970  0.2257
  190POPC   PO4 2763   5.714   6.251   5.252 -0.0993  0.0640  0.2569
  190POPC   GL1 2764   5.627   6.489   5.673 -0.1886  0.0415  0.0497
  190POPC   GL2 2765   5.695   6.332   6.013  0.1693  0.1932 -0.0517
  190POPC   C1A 2766   5.585   6.782   5.985 -0.2743 -0.0362 -0.4487
  190POPC   D2A 2767   5.496   7.060   6.294  0.1945 -0.2585 -0.0717
  190POPC   C3A 2768   5.221   6.900   6.606  0.0521 -0.0782  0.1250
  190POPC   C4A 2769   5.105   6.441   6.717 -0.0289  0.1447  0.0471
  190POPC   C1B 2770   5.930   6.157   6.288  0.1621  0.6196  0.0103
  190POPC   C2B 2771   6.225   5.882   6.170  0.1580 -0.1240 -0.0999
  190POPC   C3B 2772   6.580   5.930   6.227  0.1655  0.1459  0.1469
  190POPC   C4B 2773   6.863   5.802   6.042  0.0121 -0.0109 -0.2255
  191POPC   NC3 2774   9.532   0.896   5.308 -0.0796 -0.2277 -0.0103
  191POPC   PO4 2775   9.720   0.662   4.919 -0.1318 -0.0257 -0.0162
  191POPC   GL1 2776   9.901   0.459   5.258  0.1245 -0.1500  0.2470
  191POPC   GL2 2777  10.126   0.232   5.236  0.3758  0.1920  0.0405
  191POPC   C1A 2778   9.905   0.579   5.659 -0.0648 -0.1291 -0.0727
  191POPC   D2A 2779   9.824   0.610   6.075 -0.2780  0.2547 -0.0438
  191POPC   C3A 2780  10.085   0.811   6.277 -0.0868  0.1736 -0.1927
  191POPC   C4A 2781  10.401   0.754   6.586  0.1365  0.1650 -0.2068
  191POPC   C1B 2782  10.317   0.267   5.629  0.1390  0.2426 -0.1453
  191POPC   C2B 2783  10.253   0.344   6.050  0.0213 -0.1565  0.1670
  191POPC   C3B 2784  10.283   0.308   6.450 -0.2033 -0.0752  0.1920
  191POPC   C4B 2785  10.000   0.251   6.747  0.1611  0.1468 -0.0850
  192POPC   NC3 2786   6.556   3.893   4.961  0.2779 -0.3519  0.1464
  192POPC   PO4 2787   6.084   3.922   4.923  0.5375 -0.1061  0.1774
  192POPC   GL1 2788   6.295   3.947   5.358 -0.0389  0.1919 -0.2615
  192POPC   GL2 2789   6.229   3.552   5.487 -0.0330  0.0982 -0.0916
  192POPC   C1A 2790   6.486   3.755   5.831  0.3420 -0.0563 -0.2109
  192POPC   D2A 2791   6.653   3.675   6.155 -0.1097 -0.0156  0.2773
  192POPC   C3A 2792   6.485   3.762   6.474 -0.1966 -0.1799 -0.0704
  192POPC   C4A 2793   6.286   3.728   6.899  0.3130  0.0300 -0.1294
  192POPC   C1B 2794   6.136   3.416   5.818 -0.1289 -0.0491 -0.0446
  192POPC   C2B 2795   6.058   3.429   6.259 -0.0182  0.0532 -0.2287
  192POPC   C3B 2796   5.821   3.621   6.610  0.1179  0.0189 -0.1867
  192POPC   C4B 2797   5.495   3.754   6.842  0.2119 -0.2113 -0.1703
  193POPC   NC3 2798   0.616   7.557   4.654 -0.0837 -0.0198 -0.0611
  193POPC   PO4 2799   1.006   7.297   4.650  0.1506  0.2920 -0.1706
  193POPC   GL1 2800   1.088   7.148   4.947 -0.1594  0.3390 -0.3256
  193POPC   GL2 2801   1.008   6.855   5.120  0.0106 -0.1104  0.3270
  193POPC   C1A 2802   1.361   7.071   5.415 -0.1345  0.1625 -0.0979
  193POPC   D2A 2803   1.487   6.748   5.739 -0.0751 -0.0803 -0.4928
  193POPC   C3A 2804   1.508   6.784   6.204  0.2256 -0.1975  0.2723
  193POPC   C4A 2805   1.465   6.500   6.618  0.0094  0.2220  0.0768
  193POPC   C1B 2806   0.884   6.912   5.539 -0.0217  0.1487  0.0760
  193POPC   C2B 2807   0.983   6.654   5.939  0.4269  0.0642 -0.0902
  193POPC   C3B 2808   1.070   6.466   6.371  0.0772 -0.1261 -0.1587
  193POPC   C4B 2809   0.937   6.432   6.822 -0.0938 -0.1519  0.1566
  194POPC   NC3 2810   9.455   6.226   4.583 -0.2100  0.1628 -0.3552
  194POPC   PO4 2811   9.483   5.838   4.678  0.0089 -0.1544 -0.0675
  194POPC   GL1 2812   9.813   5.788   5.026 -0.0319 -0.3531 -0.0607
  194POPC   GL2 2813  10.023   6.142   5.199  0.0532 -0.1533 -0.0971
  194POPC   C1A 2814   9.601   5.769   5.511 -0.0770 -0.3578  0.0251
  194POPC   D2A 2815   9.797   5.640   5.886  0.0301 -0.0301  0.2114
  194POPC   C3A 2816   9.580   5.621   6.262 -0.1384 -0.0501 -0.0808
  194POPC   C4A 2817   9.615   5.318   6.591 -0.3377  0.5289  0.1169
  194POPC   C1B 2818  10.098   5.803   5.532 -0.1052  0.0762 -0.1450
  194POPC   C2B 2819  10.278   5.429   5.757 -0.1357  0.0308  0.1426
  194POPC   C3B 2820  10.517   5.486   6.147  0.1011 -0.0124  0.0565
  194POPC   C4B 2821  10.370   5.682   6.512 -0.3751  0.1890  0.3313
  195POPC   NC3 2822   7.132   3.369   4.990 -0.1679  0.3218  0.0660
  195POPC   PO4 2823   6.736   3.599   5.291  0.0054 -0.0090 -0.2627
  195POPC   GL1 2824   6.959   3.471   5.637  0.1611 -0.2440  0.0329
  195POPC   GL2 2825   7.042   3.136   5.714 -0.0552 -0.0320 -0.4155
  195POPC   C1A 2826   7.110   3.641   6.033  0.0695 -0.2238 -0.2534
  195POPC   D2A 2827   7.007   3.753   6.446  0.0988  0.1716  0.3537
  195POPC   C3A 2828   6.903   3.512   6.799  0.0274 -0.0653  0.2120
  195POPC   C4A 2829   6.634   3.373   7.113  0.1631  0.0546 -0.1026
  195POPC   C1B 2830   6.928   2.822   5.917 -0.1031 -0.2262 -0.1271
  195POPC   C2B 2831   6.685   2.587   6.269 -0.2580 -0.0260  0.0952
  195POPC   C3B 2832   6.312   2.855   6.497  0.2359 -0.2238  0.2759
  195POPC   C4B 2833   6.351   3.278   6.680 -0.2771  0.1345 -0.0302
  196POPC   NC3 2834   4.557   6.669   4.463 -0.0428  0.1500  0.3410
  196POPC   PO4 2835   4.437   6.815   4.904  0.1422  0.0707 -0.0683
  196POPC   GL1 2836   4.465   6.721   5.357  0.2648 -0.0695  0.1509
  196POPC   GL2 2837   4.191   6.727   5.534  0.0482 -0.1285  0.0157
  196POPC   C1A 2838   4.687   6.557   5.652  0.0342  0.0203 -0.1418
  196POPC   D2A 2839   4.746   6.269   6.067  0.1471 -0.2100 -0.2099
  196POPC   C3A 2840   4.567   5.892   6.350  0.2541 -0.1227  0.0831
  196POPC   C4A 2841   4.576   5.729   6.699  0.0690  0.1963 -0.0771
  196POPC   C1B 2842   4.258   6.554   5.952 -0.1248 -0.2830 -0.3210
  196POPC   C2B 2843   4.334   6.314   6.303  0.1578  0.0144 -0.1799
  196POPC   C3B 2844   4.155   6.022   6.561  0.1589 -0.1351  0.1223
  196POPC   C4B 2845   4.216   5.972   6.948 -0.1546 -0.2501 -0.0059
  197POPC   NC3 2846   0.299   0.302   4.378 -0.0815  0.0139  0.1696
  197POPC   PO4 2847   0.169  -0.076   4.622  0.0351  0.4049 -0.1154
  197POPC   GL1 2848   0.052   0.275   4.932 -0.2924  0.0655 -0.1656
  197POPC   GL2 2849   0.245   0.287   5.116 -0.1384  0.1438  0.1139
  197POPC   C1A 2850  -0.119   0.663   5.230 -0.0849  0.2554 -0.3943
  197POPC   D2A 2851  -0.393   0.992   5.455  0.0531  0.3160 -0.4106
  197POPC   C3A 2852  -0.541   1.137   5.869  0.1573  0.1190  0.0101
  197POPC   C4A 2853  -0.217   1.273   6.201  0.1113 -0.0745 -0.0310
  197POPC   C1B 2854   0.328   0.164   5.513  0.1447 -0.2510 -0.2979
  197POPC   C2B 2855   0.235   0.500   5.866 -0.1814  0.0584  0.1109
  197POPC   C3B 2856   0.392   0.848   6.071  0.0181 -0.2794  0.2850
  197POPC   C4B 2857   0.213   1.128   6.430 -0.2072  0.0529  0.0924
  198POPC   NC3 2858   9.265   1.889   4.635 -0.2168 -0.1590 -0.2460
  198POPC   PO4 2859   9.336   2.385   4.500  0.2744  0.1369 -0.0221
  198POPC   GL1 2860   9.436   2.268   4.859 -0.1112 -0.1392 -0.1853
  198POPC   GL2 2861   9.579   2.462   5.062 -0.0277  0.1005  0.1255
  198POPC   C1A 2862   9.424   2.081   5.330 -0.1681 -0.0004  0.1362
  198POPC   D2A 2863   9.341   1.869   5.833 -0.1154  0.1881  0.3939
  198POPC   C3A 2864   9.503   1.973   6.242  0.0347 -0.1993  0.0326
  198POPC   C4A 2865   9.414   2.088   6.653  0.0159  0.1100  0.1954
  198POPC   C1B 2866   9.949   2.730   5.149 -0.3257 -0.0077  0.0964
  198POPC   C2B 2867  10.206   2.808   5.464 -0.2006 -0.4376 -0.0129
  198POPC   C3B 2868  10.070   2.709   5.759 -0.0802 -0.1228  0.1020
  198POPC   C4B 2869   9.990   2.771   6.182 -0.0898  0.0158 -0.2582
  199POPC   NC3 2870   5.480   5.168   4.153 -0.0607 -0.2394 -0.1307
  199POPC   PO4 2871   5.155   5.141   4.470 -0.0572  0.0091  0.1328
  199POPC   GL1 2872   4.993   4.802   4.798 -0.2611  0.2744 -0.0361
  199POPC   GL2 2873   4.818   4.623   4.840  0.0907  0.3309  0.0853
  199POPC   C1A 2874   4.927   4.927   5.262  0.0241 -0.1667 -0.0133
  199POPC   D2A 2875   4.751   5.212   5.471 -0.0246 -0.1140 -0.1418
  199POPC   C3A 2876   4.891   5.209   5.830 -0.1356 -0.0693  0.1253
  199POPC   C4A 2877   5.198   5.013   6.199 -0.2112 -0.3345  0.2500
  199POPC   C1B 2878   4.636   4.468   5.190  0.2668  0.5516 -0.3569
  199POPC   C2B 2879   4.419   4.329   5.562 -0.0402 -0.0818  0.1328
  199POPC   C3B 2880   4.164   4.473   5.897 -0.0300  0.1809  0.0172
  199POPC   C4B 2881   4.167   4.639   6.300  0.0089 -0.3503  0.0240
  200POPC   NC3 2882   6.418   2.767   4.644 -0.0425 -0.0617 -0.0897
  200POPC   PO4 2883   6.621   2.439   4.772 -0.0584  0.1064  0.0242
  200POPC   GL1 2884   6.857   2.517   5.120  0.0716 -0.0218 -0.0106
  200POPC   GL2 2885   6.726   2.650   5.462  0.1692  0.1996 -0.3457
  200POPC   C1A 2886   7.202   2.582   5.604  0.1208 -0.3106 -0.0280
  200POPC   D2A 2887   7.597   2.824   5.668  0.2435  0.0730 -0.2772
  200POPC   C3A 2888   7.883   2.751   6.001  0.0977  0.1163  0.1247
  200POPC   C4A 2889   7.903   2.567   6.358  0.0833 -0.0716 -0.0551
  200POPC   C1B 2890   6.795   2.352   5.713  0.0118  0.2358 -0.2640
  200POPC   C2B 2891   6.536   2.024   5.894 -0.0581  0.1024  0.0102
  200POPC   C3B 2892   6.223   1.931   5.992 -0.3470  0.3811  0.2759
  200POPC   C4B 2893   5.874   2.184   5.956 -0.3471  0.5277 -0.1588
  201POPC   NC3 2894   4.858   8.699   5.291 -0.1986  0.0506 -0.1353
  201POPC   PO4 2895   5.174   8.676   4.995 -0.0969  0.1815 -0.1639
  201POPC   GL1 2896   5.350   8.721   5.438  0.3580 -0.2704  0.1198
  201POPC   GL2 2897   5.432   8.461   5.577  0.0010  0.6890 -0.1044
  201POPC   C1A 2898   5.223   8.984   5.813  0.1116 -0.1306  0.2379
  201POPC   D2A 2899   5.148   9.043   6.145  0.2062 -0.0449  0.0558
  201POPC   C3A 2900   4.782   9.057   6.287 -0.0945  0.0534  0.0211
  201POPC   C4A 2901   4.360   9.066   6.414  0.0574 -0.0632  0.0390
  201POPC   C1B 2902   5.054   8.531   5.890  0.0660  0.0018 -0.1376
  201POPC   C2B 2903   5.043   8.625   6.388 -0.2172 -0.2043  0.0743
  201POPC   C3B 2904   5.371   8.847   6.604 -0.1072 -0.0167  0.2189
  201POPC   C4B 2905   5.700   9.004   6.790 -0.0638 -0.1274 -0.2024
  202POPC   NC3 2906   6.812   7.155   5.023 -0.1244 -0.0601  0.0863
  202POPC   PO4 2907   6.503   6.977   5.384  0.4000 -0.0086 -0.2626
  202POPC   GL1 2908   6.661   6.959   5.687 -0.0105 -0.1934 -0.2353
  202POPC   GL2 2909   6.521   7.240   5.819  0.2789 -0.0609 -0.1014
  202POPC   C1A 2910   6.950   7.123   6.016 -0.0308  0.0383  0.0989
  202POPC   D2A 2911   6.981   7.154   6.419 -0.0040  0.7331 -0.0355
  202POPC   C3A 2912   7.201   6.825   6.394  0.1390 -0.0155  0.1753
  202POPC   C4A 2913   7.595   6.748   6.505  0.1226  0.2841 -0.1861
  202POPC   C1B 2914   6.525   7.247   6.157  0.3025 -0.0891 -0.2371
  202POPC   C2B 2915   6.392   7.150   6.517 -0.1480 -0.0600  0.1766
  202POPC   C3B 2916   6.634   7.271   6.938 -0.0238  0.0627 -0.3714
  202POPC   C4B 2917   7.058   7.513   6.992 -0.1208  0.2394  0.2753
  203POPC   NC3 2918   3.900   8.630   5.157 -0.0919 -0.1333  0.1794
  203POPC   PO4 2919   3.897   9.122   5.240  0.3507 -0.2677  0.0397
  203POPC   GL1 2920   4.044   9.232   5.589  0.1860  0.1662  0.0577
  203POPC   GL2 2921   3.888   9.549   5.646 -0.0854 -0.1973 -0.2201
  203POPC   C1A 2922   4.004   9.187   6.016 -0.0445  0.3250 -0.1695
  203POPC   D2A 2923   3.968   8.734   6.221  0.0231  0.1374  0.2258
  203POPC   C3A 2924   3.795   8.353   6.036 -0.0765 -0.1019 -0.2489
  203POPC   C4A 2925   3.830   8.193   5.669  0.2206  0.2204 -0.2171
  203POPC   C1B 2926   3.625   9.587   5.947 -0.4937  0.2212  0.0653
  203POPC   C2B 2927   3.453   9.753   6.237 -0.1605 -0.1333  0.1399
  203POPC   C3B 2928   3.547  10.094   6.489  0.0788 -0.1468 -0.1772
  203POPC   C4B 2929   3.543  10.484   6.629  0.0064 -0.0763 -0.0186
  204POPC   NC3 2930   8.687   6.838   4.484  0.1797 -0.0029  0.0740
  204POPC   PO4 2931   8.721   6.765   4.955  0.3553  0.0895  0.0864
  204POPC   GL1 2932   8.903   6.534   5.305  0.0490  0.0639  0.2628
  204POPC   GL2 2933   8.629   6.626   5.515 -0.0814 -0.1198 -0.2397
  204POPC   C1A 2934   9.256   6.543   5.681  0.5015 -0.2428  0.1530
  204POPC   D2A 2935   9.240   6.688   6.042 -0.1931 -0.0197 -0.0418
  204POPC   C3A 2936   9.424   6.367   6.337  0.0324 -0.0414  0.1112
  204POPC   C4A 2937   9.677   6.058   6.510 -0.4079 -0.5115 -0.0624
  204POPC   C1B 2938   8.756   6.652   6.004  0.0217 -0.1641  0.2563
  204POPC   C2B 2939   8.906   6.399   6.370 -0.1526 -0.1278  0.0293
  204POPC   C3B 2940   8.716   6.241   6.732 -0.0735  0.5492  0.3006
  204POPC   C4B 2941   8.862   5.990   7.053 -0.0593 -0.0207  0.0454
  205POPC   NC3 2942   5.403   3.838   4.283 -0.4097  0.1763 -0.0237
  205POPC   PO4 2943   5.495   4.343   4.466  0.0634  0.1370 -0.3508
  205POPC   GL1 2944   5.423   4.421   4.859 -0.1060 -0.1261  0.0697
  205POPC   GL2 2945   5.715   4.386   5.156  0.1583  0.1795  0.3092
  205POPC   C1A 2946   5.213   4.449   5.199  0.1451 -0.1712 -0.3293
  205POPC   D2A 2947   5.048   4.384   5.541  0.0255  0.2534 -0.2253
  205POPC   C3A 2948   4.990   3.959   5.769  0.2669 -0.0583  0.2028
  205POPC   C4A 2949   5.246   3.702   5.844  0.4236 -0.0095 -0.2340
  205POPC   C1B 2950   5.933   4.191   5.561  0.0119 -0.0913 -0.0016
  205POPC   C2B 2951   5.854   3.880   5.785 -0.0285  0.0384  0.0509
  205POPC   C3B 2952   5.690   3.630   5.679  0.0212  0.0215 -0.4444
  205POPC   C4B 2953   5.402   3.336   5.443 -0.0995  0.1075  0.1657
  206POPC   NC3 2954  10.164   7.454   5.248 -0.0859 -0.4404 -0.1652
  206POPC   PO4 2955  10.653   7.462   5.295  0.1453 -0.1917  0.0931
  206POPC   GL1 2956  10.915   7.354   5.643  0.0411 -0.2897  0.0123
  206POPC   GL2 2957  11.289   7.344   5.686 -0.0970 -0.0345  0.0231
  206POPC   C1A 2958  11.083   7.004   5.966 -0.2071  0.1443  0.2225
  206POPC   D2A 2959  11.079   6.746   6.277 -0.1259 -0.2161  0.0924
  206POPC   C3A 2960  11.074   6.845   6.677 -0.3281  0.2348  0.0630
  206POPC   C4A 2961  11.159   6.829   7.159 -0.2127  0.3614  0.2692
  206POPC   C1B 2962  11.624   7.075   5.916 -0.0738 -0.1576 -0.1192
  206POPC   C2B 2963  11.469   6.990   6.317 -0.2282  0.2394 -0.1961
  206POPC   C3B 2964  11.620   6.879   6.725  0.0749 -0.2422 -0.0026
  206POPC   C4B 2965  11.521   7.194   7.155 -0.3234 -0.2063 -0.1490
  207POPC   NC3 2966   9.865   5.546   4.583 -0.3079  0.3717 -0.1547
  207POPC   PO4 2967  10.283   5.384   4.529  0.1000  0.0078 -0.1116
  207POPC   GL1 2968  10.374   5.447   4.975 -0.1236 -0.0076  0.1241
  207POPC   GL2 2969  10.719   5.610   5.010  0.2653 -0.0346 -0.2044
  207POPC   C1A 2970  10.167   5.201   5.218  0.2887 -0.1418  0.1079
  207POPC   D2A 2971   9.903   5.157   5.526  0.3365 -0.2056  0.1935
  207POPC   C3A 2972   9.658   4.816   5.685  0.0530  0.1459  0.1194
  207POPC   C4A 2973   9.666   4.317   5.719  0.0865  0.1946  0.0804
  207POPC   C1B 2974  10.622   5.614   5.422 -0.0949 -0.2646  0.0439
  207POPC   C2B 2975  10.722   5.294   5.704 -0.3562  0.1090  0.3142
  207POPC   C3B 2976  11.039   5.127   6.083 -0.0340  0.0604  0.0849
  207POPC   C4B 2977  11.341   4.920   6.418 -0.0015  0.1338  0.3441
  208POPC   NC3 2978   8.498   2.299   4.816 -0.5878  0.0634  0.1387
  208POPC   PO4 2979   8.922   2.113   4.826  0.0165 -0.3769 -0.1211
  208POPC   GL1 2980   8.867   2.264   5.202 -0.0336  0.0547 -0.0897
  208POPC   GL2 2981   8.518   2.209   5.287 -0.2992  0.1284 -0.1064
  208POPC   C1A 2982   8.808   2.348   5.660  0.2566  0.4506 -0.0942
  208POPC   D2A 2983   8.703   2.498   6.167  0.2958 -0.3133  0.1488
  208POPC   C3A 2984   9.053   2.741   6.337  0.0750  0.0514  0.0179
  208POPC   C4A 2985   9.301   3.111   6.336 -0.0097 -0.0344  0.1377
  208POPC   C1B 2986   8.850   1.868   5.459 -0.0631 -0.0068  0.2929
  208POPC   C2B 2987   8.877   1.871   5.809 -0.1645  0.1358  0.1857
  208POPC   C3B 2988   9.017   1.743   6.154  0.1702  0.1693 -0.2080
  208POPC   C4B 2989   9.187   1.661   6.521  0.1000  0.2710  0.0165
  209POPC   NC3 2990   5.258   2.712   3.640 -0.5107  0.1113  0.1259
  209POPC   PO4 2991   4.944   2.410   3.952  0.0246 -0.0281  0.3166
  209POPC   GL1 2992   4.879   2.471   4.444  0.0632 -0.0022  0.0204
  209POPC   GL2 2993   5.056   2.420   4.485  0.0654  0.1099 -0.3190
  209POPC   C1A 2994   4.660   2.620   4.898 -0.2476  0.1438  0.1272
  209POPC   D2A 2995   4.616   2.701   5.265  0.0843 -0.0571 -0.0611
  209POPC   C3A 2996   4.198   2.906   5.381 -0.2107  0.4505  0.0406
  209POPC   C4A 2997   4.035   3.188   5.778 -0.0535 -0.0302  0.0897
  209POPC   C1B 2998   4.967   2.244   4.915 -0.1843  0.2668 -0.1007
  209POPC   C2B 2999   4.609   2.175   5.132  0.0813 -0.3149 -0.3497
  209POPC   C3B 3000   4.339   2.321   5.524 -0.1123 -0.1337 -0.1833
  209POPC   C4B 3001   4.169   2.456   5.880  0.1803 -0.3096  0.0300
  210POPC   NC3 3002   8.249   3.720   5.195  0.0881 -0.3308  0.0596
  210POPC   PO4 3003   7.952   3.988   5.302  0.1356  0.0235  0.1917
  210POPC   GL1 3004   7.936   3.998   5.653  0.0685  0.1968  0.1689
  210POPC   GL2 3005   8.011   4.351   5.721 -0.3495  0.0809  0.0835
  210POPC   C1A 3006   7.927   4.012   6.114 -0.0589 -0.0142 -0.0517
  210POPC   D2A 3007   7.731   4.274   6.404 -0.2490 -0.1168 -0.2714
  210POPC   C3A 3008   7.486   4.187   6.709  0.0051  0.2940 -0.2537
  210POPC   C4A 3009   7.363   3.755   6.821 -0.0393  0.1764 -0.2569
  210POPC   C1B 3010   8.111   4.503   6.137  0.1036  0.0039  0.1795
  210POPC   C2B 3011   8.238   4.344   6.481 -0.2325 -0.0932 -0.1272
  210POPC   C3B 3012   8.227   4.063   6.774 -0.0435 -0.2485 -0.4642
  210POPC   C4B 3013   8.480   3.872   7.087 -0.2049 -0.1487  0.2127
  211POPC   NC3 3014   8.302   0.324   4.855 -0.0127  0.1133 -0.1351
  211POPC   PO4 3015   8.374   0.040   5.156  0.0415  0.0486  0.0787
  211POPC   GL1 3016   8.450   0.098   5.523  0.0884 -0.2308  0.0267
  211POPC   GL2 3017   8.183   0.044   5.720  0.0869  0.2216 -0.1659
  211POPC   C1A 3018   8.834   0.025   5.759 -0.0951 -0.1877  0.0923
  211POPC   D2A 3019   9.248  -0.204   5.864  0.0274 -0.2399 -0.1929
  211POPC   C3A 3020   9.424  -0.097   6.292  0.0115  0.2570  0.0544
  211POPC   C4A 3021   9.582  -0.117   6.721  0.1980  0.1159 -0.0885
  211POPC   C1B 3022   8.417  -0.287   6.000 -0.0668  0.3427  0.0479
  211POPC   C2B 3023   8.424  -0.321   6.366 -0.0222 -0.0022 -0.0537
  211POPC   C3B 3024   8.588  -0.096   6.669  0.0418 -0.0304 -0.1024
  211POPC   C4B 3025   8.387   0.224   7.076  0.2146  0.0083  0.1595
  212POPC   NC3 3026   2.191   4.589   3.829  0.1495 -0.3867  0.1743
  212POPC   PO4 3027   2.022   4.990   4.000 -0.1418 -0.1134  0.2482
  212POPC   GL1 3028   1.937   4.786   4.359 -0.0496  0.0634 -0.3218
  212POPC   GL2 3029   1.826   4.974   4.524  0.0951  0.1964 -0.2390
  212POPC   C1A 3030   1.804   4.426   4.490 -0.1431  0.1761  0.1358
  212POPC   D2A 3031   1.817   3.949   4.420  0.1424 -0.2353 -0.4934
  212POPC   C3A 3032   2.069   3.664   4.696  0.1528 -0.3241  0.2842
  212POPC   C4A 3033   2.140   3.633   5.085 -0.0431 -0.0370  0.1678
  212POPC   C1B 3034   1.837   4.679   4.894 -0.0886 -0.0213 -0.2604
  212POPC   C2B 3035   1.834   4.703   5.376 -0.3175  0.1108 -0.0132
  212POPC   C3B 3036   1.501   4.568   5.725 -0.0347  0.0713  0.4095
  212POPC   C4B 3037   1.396   4.552   6.114 -0.0153  0.1487 -0.2198
  213POPC   NC3 3038   0.245   5.000   4.237 -0.0119 -0.1858 -0.1047
  213POPC   PO4 3039   0.034   4.642   4.208 -0.3065 -0.1123 -0.2008
  213POPC   GL1 3040  -0.037   4.850   4.624  0.2815 -0.2390 -0.0560
  213POPC   GL2 3041   0.235   5.085   4.736 -0.0679 -0.1286 -0.2032
  213POPC   C1A 3042  -0.146   4.715   5.012 -0.2267 -0.1561 -0.1959
  213POPC   D2A 3043  -0.188   4.769   5.488  0.0909 -0.1002 -0.1627
  213POPC   C3A 3044  -0.357   4.607   5.855  0.0203  0.0313  0.0810
  213POPC   C4A 3045  -0.549   4.437   6.235 -0.0198 -0.2325 -0.0147
  213POPC   C1B 3046   0.293   5.102   5.179 -0.0328  0.2080  0.3161
  213POPC   C2B 3047   0.387   4.829   5.618  0.0156 -0.3353 -0.0172
  213POPC   C3B 3048   0.462   4.665   6.082  0.1600  0.0868 -0.1116
  213POPC   C4B 3049   0.633   4.366   6.403  0.1498  0.1421  0.0391
  214POPC   NC3 3050   9.341   7.477   4.761 -0.0529 -0.2076 -0.0646
  214POPC   PO4 3051   8.892   7.292   4.857  0.2163  0.0044  0.2339
  214POPC   GL1 3052   8.894   7.173   5.330 -0.0047 -0.4781 -0.2901
  214POPC   GL2 3053   8.583   7.260   5.506  0.2060  0.0561 -0.0231
  214POPC   C1A 3054   8.952   7.000   5.678  0.2074 -0.0882 -0.1482
  214POPC   D2A 3055   9.151   7.191   6.033  0.0256 -0.2284 -0.3042
  214POPC   C3A 3056   9.414   7.093   6.461 -0.1690  0.0555 -0.3056
  214POPC   C4A 3057   9.687   6.759   6.602  0.3204  0.2323 -0.3219
  214POPC   C1B 3058   8.952   7.555   5.698 -0.3568  0.0338  0.0225
  214POPC   C2B 3059   9.183   7.742   5.928  0.1264 -0.0843 -0.0120
  214POPC   C3B 3060   9.629   7.875   5.971 -0.0060 -0.4260  0.0075
  214POPC   C4B 3061  10.052   7.799   6.112 -0.3660 -0.4249  0.0579
  215POPC   NC3 3062   3.371   7.804   4.902  0.0613  0.1377  0.1929
  215POPC   PO4 3063   3.252   7.977   5.265 -0.1921 -0.0575 -0.5520
  215POPC   GL1 3064   3.188   7.993   5.664  0.0494 -0.1126  0.0417
  215POPC   GL2 3065   3.313   8.313   5.664  0.0708 -0.0187  0.1244
  215POPC   C1A 3066   3.417   7.899   6.025 -0.3763 -0.0339 -0.3051
  215POPC   D2A 3067   3.374   7.663   6.382  0.1824  0.0549 -0.0459
  215POPC   C3A 3068   3.516   7.352   6.539  0.1182 -0.0062  0.1567
  215POPC   C4A 3069   3.541   6.938   6.584 -0.1594  0.0624  0.1711
  215POPC   C1B 3070   3.070   8.322   6.026  0.0653 -0.3988 -0.0630
  215POPC   C2B 3071   2.684   8.362   6.137  0.0926 -0.1811 -0.1899
  215POPC   C3B 3072   2.413   8.500   6.454  0.0767 -0.1153  0.0387
  215POPC   C4B 3073   2.134   8.653   6.707  0.1138 -0.2951  0.2373
  216POPC   NC3 3074   1.389  10.172   4.981 -0.1909  0.0031 -0.0785
  216POPC   PO4 3075   1.851  10.360   4.922  0.0976  0.0170 -0.0730
  216POPC   GL1 3076   1.970  10.416   5.345 -0.0022  0.0964  0.1591
  216POPC   GL2 3077   2.351  10.258   5.364 -0.0977 -0.2066  0.0662
  216POPC   C1A 3078   1.885  10.816   5.555  0.0717 -0.5817  0.4405
  216POPC   D2A 3079   1.994  10.971   5.951  0.1248  0.1716  0.0406
  216POPC   C3A 3080   1.667  11.055   6.212 -0.0978  0.0685  0.2518
  216POPC   C4A 3081   1.627  10.955   6.560 -0.1252  0.1393 -0.4287
  216POPC   C1B 3082   2.072  10.018   5.746 -0.1074 -0.2441  0.0529
  216POPC   C2B 3083   1.762   9.855   6.093  0.2687  0.0808 -0.0331
  216POPC   C3B 3084   1.458  10.001   6.307  0.2861 -0.0446 -0.1123
  216POPC   C4B 3085   0.965   9.886   6.370  0.0963 -0.0872  0.2048
  217POPC   NC3 3086   5.800   8.971   4.512  0.0370 -0.1322 -0.0952
  217POPC   PO4 3087   5.642   8.977   4.948  0.0143  0.3410 -0.3205
  217POPC   GL1 3088   5.648   9.222   5.400 -0.2525  0.0547 -0.0737
  217POPC   GL2 3089   5.875   9.583   5.443  0.1593  0.0468  0.2099
  217POPC   C1A 3090   5.565   9.412   5.824 -0.1553 -0.3335 -0.2290
  217POPC   D2A 3091   5.723   9.602   6.192 -0.0750  0.0200 -0.0849
  217POPC   C3A 3092   5.948   9.263   6.477 -0.1322 -0.3174 -0.1613
  217POPC   C4A 3093   6.209   9.055   6.674 -0.0362 -0.0692  0.1874
  217POPC   C1B 3094   6.191   9.707   5.754 -0.0398  0.1109 -0.0783
  217POPC   C2B 3095   6.163   9.838   6.134 -0.0609 -0.1151 -0.1938
  217POPC   C3B 3096   6.325  10.176   6.530 -0.1775 -0.0949 -0.0460
  217POPC   C4B 3097   6.066  10.480   6.813  0.0615  0.1599  0.3708
  218POPC   NC3 3098  10.242  10.211   4.906  0.0020 -0.0288 -0.1548
  218POPC   PO4 3099  10.415   9.755   4.902  0.2206 -0.0568 -0.1641
  218POPC   GL1 3100  10.677  10.137   5.170  0.4466 -0.3472 -0.1501
  218POPC   GL2 3101  10.440  10.263   5.415  0.1885  0.0859  0.1042
  218POPC   C1A 3102  11.124  10.295   5.413 -0.1959 -0.3114  0.0991
  218POPC   D2A 3103  11.579  10.409   5.345  0.2205  0.0479  0.2404
  218POPC   C3A 3104  11.837  10.683   5.511  0.1878  0.2732 -0.0415
  218POPC   C4A 3105  11.788  11.020   5.832  0.1815 -0.0689  0.2017
  218POPC   C1B 3106  10.701  10.033   5.657  0.2071 -0.2032 -0.0703
  218POPC   C2B 3107  11.039  10.204   5.867  0.0723 -0.0229 -0.0060
  218POPC   C3B 3108  11.319  10.327   6.172 -0.0259  0.1020  0.2184
  218POPC   C4B 3109  11.717  10.446   6.508  0.0744  0.2518  0.0122
  219POPC   NC3 3110   5.301   1.002   4.544  0.1262  0.0391  0.3495
  219POPC   PO4 3111   5.355   1.382   4.695 -0.1138 -0.0746  0.2604
  219POPC   GL1 3112   5.140   1.327   5.076 -0.1238 -0.1255 -0.0754
  219POPC   GL2 3113   5.240   1.619   5.161 -0.1989 -0.1879  0.0867
  219POPC   C1A 3114   5.019   1.229   5.514 -0.0126  0.2084  0.0212
  219POPC   D2A 3115   5.197   1.094   5.955  0.3396 -0.3022  0.1597
  219POPC   C3A 3116   5.472   1.333   6.159  0.2155  0.1383 -0.1024
  219POPC   C4A 3117   5.696   1.435   6.547 -0.0719 -0.0636  0.0094
  219POPC   C1B 3118   5.082   2.022   5.359  0.2577 -0.1470 -0.0580
  219POPC   C2B 3119   4.819   2.079   5.683  0.1023  0.1763  0.4324
  219POPC   C3B 3120   4.481   2.087   5.954 -0.1084  0.0992 -0.1434
  219POPC   C4B 3121   4.034   1.934   6.009 -0.2305  0.0792 -0.0196
  220POPC   NC3 3122   3.651   4.109   3.655  0.1642 -0.3153  0.2135
  220POPC   PO4 3123   4.065   3.901   3.668 -0.1300  0.0263  0.0692
  220POPC   GL1 3124   3.917   3.921   4.032  0.0301  0.1137 -0.0834
  220POPC   GL2 3125   4.169   4.017   4.228  0.6767  0.2511  0.0355
  220POPC   C1A 3126   4.159   3.587   4.453 -0.0234  0.3566  0.2093
  220POPC   D2A 3127   4.048   3.200   4.750 -0.3182 -0.0850  0.3161
  220POPC   C3A 3128   4.457   3.093   4.989 -0.3571 -0.0088  0.1667
  220POPC   C4A 3129   4.618   3.235   5.416  0.2518 -0.3858  0.0465
  220POPC   C1B 3130   4.005   4.067   4.557 -0.0291  0.2561 -0.0246
  220POPC   C2B 3131   3.796   4.255   4.906  0.1593  0.1224 -0.0155
  220POPC   C3B 3132   3.330   4.304   4.988  0.1077 -0.1466 -0.0602
  220POPC   C4B 3133   3.025   3.866   4.964  0.3794  0.0473  0.0487
  221POPC   NC3 3134   3.432   2.171   3.659 -0.1203 -0.2652 -0.1641
  221POPC   PO4 3135   3.531   2.543   3.579  0.3747 -0.0093 -0.0204
  221POPC   GL1 3136   3.575   2.435   4.032 -0.0644  0.0449 -0.0608
  221POPC   GL2 3137   3.881   2.428   4.196  0.0704  0.4399 -0.3904
  221POPC   C1A 3138   3.195   2.591   4.371  0.2419 -0.0976  0.0368
  221POPC   D2A 3139   3.059   2.388   4.653  0.1703 -0.1191 -0.0365
  221POPC   C3A 3140   3.178   2.072   4.947 -0.1844  0.1017 -0.2347
  221POPC   C4A 3141   3.417   1.952   5.280 -0.3540  0.1673 -0.1822
  221POPC   C1B 3142   3.970   2.198   4.531 -0.2910 -0.2029 -0.3206
  221POPC   C2B 3143   3.981   2.060   4.889 -0.1497  0.1749 -0.0915
  221POPC   C3B 3144   4.273   1.662   4.999  0.2569  0.2093  0.0702
  221POPC   C4B 3145   4.538   1.301   5.067  0.1757 -0.1078  0.1992
  222POPC   NC3 3146   7.602   7.445   5.255  0.4082 -0.1983  0.1052
  222POPC   PO4 3147   7.348   7.081   5.093  0.1720 -0.0350 -0.0535
  222POPC   GL1 3148   7.382   7.075   5.601 -0.2348 -0.0906 -0.1021
  222POPC   GL2 3149   7.226   6.715   5.737  0.0540  0.1399  0.1559
  222POPC   C1A 3150   7.428   7.138   6.100  0.1833 -0.3022 -0.2300
  222POPC   D2A 3151   7.430   7.326   6.443  0.3474  0.0904 -0.1755
  222POPC   C3A 3152   7.343   7.756   6.691  0.1035 -0.1084 -0.2154
  222POPC   C4A 3153   7.452   8.206   6.705  0.0832  0.0794 -0.0212
  222POPC   C1B 3154   7.613   6.740   5.937 -0.2021  0.0570 -0.0248
  222POPC   C2B 3155   7.806   6.403   6.209  0.2194  0.0851  0.2940
  222POPC   C3B 3156   7.816   6.309   6.707  0.2068  0.1870  0.0632
  222POPC   C4B 3157   7.825   6.150   7.102  0.0201  0.0913 -0.3538
  223POPC   NC3 3158   9.628   1.948   4.142 -0.1684  0.1324  0.0197
  223POPC   PO4 3159   9.671   1.561   4.308 -0.1098 -0.0775 -0.1197
  223POPC   GL1 3160   9.931   1.713   4.491  0.1697 -0.0914  0.1755
  223POPC   GL2 3161  10.214   1.822   4.398  0.0220  0.0572 -0.0885
  223POPC   C1A 3162  10.042   1.729   4.902  0.2136  0.3479 -0.5309
  223POPC   D2A 3163  10.355   1.987   5.221  0.1927  0.1919  0.0582
  223POPC   C3A 3164  10.288   2.355   5.469  0.1159 -0.0142 -0.0842
  223POPC   C4A 3165  10.407   2.342   5.933 -0.1380  0.3121 -0.0558
  223POPC   C1B 3166  10.559   1.888   4.757 -0.0210 -0.1470 -0.0222
  223POPC   C2B 3167  10.864   2.011   5.202  0.0068  0.2056  0.2040
  223POPC   C3B 3168  11.068   2.271   5.441 -0.5138  0.2612  0.0657
  223POPC   C4B 3169  10.930   2.481   5.873  0.2140 -0.1942 -0.1003
  224POPC   NC3 3170   4.062   2.264   3.777  0.2183 -0.2863 -0.0268
  224POPC   PO4 3171   3.875   1.778   3.768 -0.0622  0.2691  0.1412
  224POPC   GL1 3172   3.587   1.829   4.143  0.2990 -0.2021  0.0493
  224POPC   GL2 3173   3.665   1.722   4.484 -0.2245  0.2877 -0.1278
  224POPC   C1A 3174   3.496   2.144   4.497  0.5224  0.2129 -0.3411
  224POPC   D2A 3175   3.598   2.410   4.823 -0.2467  0.1076  0.2812
  224POPC   C3A 3176   3.368   2.511   5.084  0.2147  0.1020 -0.1387
  224POPC   C4A 3177   3.155   2.503   5.451  0.1616 -0.0127 -0.0418
  224POPC   C1B 3178   3.714   1.600   4.974  0.0145 -0.1108 -0.0035
  224POPC   C2B 3179   3.649   1.472   5.409 -0.2905 -0.2213 -0.1996
  224POPC   C3B 3180   3.535   1.577   5.824 -0.2814 -0.2651  0.1387
  224POPC   C4B 3181   3.352   1.963   6.016  0.3805 -0.0524  0.2478
  225POPC   NC3 3182   6.885   1.993   4.816 -0.1590 -0.1084  0.0200
  225POPC   PO4 3183   6.648   2.012   5.217 -0.1480  0.4826  0.0877
  225POPC   GL1 3184   6.780   1.779   5.554  0.3526  0.0607 -0.1467
  225POPC   GL2 3185   6.995   1.432   5.606  0.2862 -0.6344  0.0061
  225POPC   C1A 3186   6.864   1.694   6.076 -0.3138 -0.1086 -0.1248
  225POPC   D2A 3187   6.938   1.297   6.324  0.0094  0.2222 -0.1533
  225POPC   C3A 3188   7.432   1.260   6.471 -0.1135 -0.1586  0.1660
  225POPC   C4A 3189   7.861   1.083   6.476  0.0732  0.2074 -0.0533
  225POPC   C1B 3190   7.146   1.111   5.917 -0.3135  0.0712  0.0906
  225POPC   C2B 3191   7.169   0.809   6.284  0.0399  0.0496  0.0217
  225POPC   C3B 3192   6.788   0.823   6.610  0.1475 -0.0536 -0.1436
  225POPC   C4B 3193   6.461   0.928   6.579  0.0402  0.3345 -0.0793
  226POPC   NC3 3194   3.010   3.559   3.255 -0.1174  0.1632 -0.3548
  226POPC   PO4 3195   3.230   3.783   3.434  0.2345  0.2441 -0.3143
  226POPC   GL1 3196   3.079   3.830   3.776 -0.1223  0.0395  0.2067
  226POPC   GL2 3197   3.207   4.083   4.023  0.2124  0.2234  0.1850
  226POPC   C1A 3198   2.748   3.737   4.032  0.0807 -0.2179 -0.1394
  226POPC   D2A 3199   2.882   3.988   4.464 -0.0727  0.4773 -0.1158
  226POPC   C3A 3200   3.267   4.063   4.558 -0.2153 -0.1494 -0.0069
  226POPC   C4A 3201   3.616   3.835   4.605 -0.0377  0.0238  0.1989
  226POPC   C1B 3202   3.350   3.721   4.224  0.2090 -0.2386 -0.0120
  226POPC   C2B 3203   3.091   3.540   4.545  0.0541 -0.0213  0.0072
  226POPC   C3B 3204   2.954   3.305   4.855  0.0814 -0.0803  0.1252
  226POPC   C4B 3205   3.042   3.505   5.317  0.0924  0.0013 -0.3386
  227POPC   NC3 3206   3.849   1.348   4.242  0.0158  0.0402  0.1321
  227POPC   PO4 3207   3.613   1.121   4.318 -0.1712  0.0276 -0.1186
  227POPC   GL1 3208   3.644   1.034   4.718  0.1672  0.0826  0.1345
  227POPC   GL2 3209   3.415   1.076   4.925 -0.0816  0.0214 -0.3396
  227POPC   C1A 3210   3.827   1.134   5.155 -0.0807  0.0991 -0.2223
  227POPC   D2A 3211   4.188   1.350   5.416 -0.2182 -0.2773  0.0597
  227POPC   C3A 3212   4.569   1.217   5.643  0.1536 -0.2724  0.0271
  227POPC   C4A 3213   4.559   1.495   5.961  0.2471  0.3121 -0.0300
  227POPC   C1B 3214   3.232   1.540   4.853 -0.2247  0.0192 -0.2080
  227POPC   C2B 3215   2.956   1.832   4.574 -0.0242 -0.0587 -0.2599
  227POPC   C3B 3216   2.674   2.107   4.798  0.1364  0.0992 -0.0142
  227POPC   C4B 3217   2.386   2.383   4.772 -0.3129 -0.2140  0.1049
  228POPC   NC3 3218   2.469   0.938   3.684 -0.2575  0.1630 -0.3346
  228POPC   PO4 3219   2.389   1.321   3.368 -0.3625  0.0248 -0.0844
  228POPC   GL1 3220   2.282   1.417   3.836 -0.0700 -0.0691  0.0951
  228POPC   GL2 3221   2.044   1.528   3.879  0.2575  0.0876  0.4862
  228POPC   C1A 3222   2.317   1.346   4.281 -0.1045 -0.0586  0.0956
  228POPC   D2A 3223   2.210   1.453   4.655 -0.0895 -0.0581 -0.0530
  228POPC   C3A 3224   2.612   1.484   4.903 -0.0398  0.2512 -0.0469
  228POPC   C4A 3225   2.891   1.621   5.155 -0.1875  0.2248 -0.0496
  228POPC   C1B 3226   1.987   1.772   4.289  0.0124  0.0259  0.2787
  228POPC   C2B 3227   1.644   1.944   4.581  0.0202  0.2639 -0.1510
  228POPC   C3B 3228   1.368   2.222   4.748  0.2799 -0.2346 -0.2035
  228POPC   C4B 3229   1.128   2.334   4.560 -0.0706  0.4466 -0.1193
  229POPC   NC3 3230   1.157   9.739   4.513  0.0642  0.1498 -0.0230
  229POPC   PO4 3231   1.275   9.737   4.954 -0.0675  0.0939 -0.1262
  229POPC   GL1 3232   1.395   9.510   5.416  0.0911 -0.3152 -0.0068
  229POPC   GL2 3233   1.552   9.284   5.459  0.1252  0.0348  0.0127
  229POPC   C1A 3234   1.372   9.587   5.868  0.1326  0.2973 -0.1437
  229POPC   D2A 3235   1.312   9.491   6.366 -0.0294 -0.3375  0.2840
  229POPC   C3A 3236   1.656   9.577   6.629 -0.2016  0.2224  0.0971
  229POPC   C4A 3237   1.942   9.805   6.703  0.0552 -0.2858  0.0122
  229POPC   C1B 3238   1.771   9.224   5.877 -0.2157 -0.0604  0.0430
  229POPC   C2B 3239   1.689   9.128   6.372 -0.4204 -0.0444 -0.3499
  229POPC   C3B 3240   1.784   9.005   6.761 -0.2143 -0.0626  0.1674
  229POPC   C4B 3241   2.044   9.299   7.073 -0.0633  0.1265 -0.0509
  230POPC   NC3 3242   2.130   9.375   5.000  0.1285 -0.1339 -0.2183
  230POPC   PO4 3243   2.236   8.921   4.779  0.3356  0.1323  0.0725
  230POPC   GL1 3244   2.012   8.873   5.175 -0.0252  0.1428  0.0231
  230POPC   GL2 3245   1.686   8.826   5.178  0.0740 -0.2421  0.1266
  230POPC   C1A 3246   2.023   8.912   5.561 -0.1641 -0.2304 -0.0146
  230POPC   D2A 3247   1.842   8.547   5.822 -0.0424 -0.1136  0.3069
  230POPC   C3A 3248   1.458   8.827   6.050  0.1021  0.2080 -0.2358
  230POPC   C4A 3249   1.119   9.035   6.175  0.1771  0.4028 -0.0300
  230POPC   C1B 3250   1.413   8.694   5.590  0.3060 -0.3536  0.1787
  230POPC   C2B 3251   1.030   8.773   5.737 -0.2528 -0.2946 -0.1000
  230POPC   C3B 3252   0.653   8.805   5.938 -0.2204  0.0272  0.2708
  230POPC   C4B 3253   0.502   9.131   6.186  0.1434 -0.0679 -0.5958
  231POPC   NC3 3254   7.571   2.730   4.516 -0.4195 -0.0979 -0.3963
  231POPC   PO4 3255   7.484   3.121   4.787  0.2400 -0.0582  0.0756
  231POPC   GL1 3256   7.613   3.165   5.161  0.0121  0.1014  0.1467
  231POPC   GL2 3257   7.835   3.031   5.318  0.2159 -0.4462 -0.0804
  231POPC   C1A 3258   7.485   3.326   5.603 -0.0645 -0.0493 -0.3730
  231POPC   D2A 3259   7.391   3.154   5.997 -0.1612  0.0373  0.2410
  231POPC   C3A 3260   7.742   3.167   6.142 -0.0545 -0.1894 -0.2273
  231POPC   C4A 3261   7.983   3.017   6.472 -0.0080 -0.2029  0.1075
  231POPC   C1B 3262   7.975   3.128   5.708 -0.1885  0.0605 -0.2097
  231POPC   C2B 3263   8.275   3.051   6.030 -0.1211 -0.0119 -0.0530
  231POPC   C3B 3264   8.469   2.989   6.540  0.2378  0.0057  0.2007
  231POPC   C4B 3265   8.695   2.611   6.734  0.0692  0.0939  0.2675
  232POPC   NC3 3266   6.779   9.133   4.892  0.2033  0.0353 -0.0958
  232POPC   PO4 3267   6.357   9.091   4.779  0.2909  0.1467  0.2216
  232POPC   GL1 3268   6.258   9.038   5.169 -0.1449  0.0130 -0.0126
  232POPC   GL2 3269   6.621   8.898   5.333  0.4781  0.0313  0.0391
  232POPC   C1A 3270   6.162   9.200   5.566 -0.3099 -0.1267  0.1122
  232POPC   D2A 3271   6.107   9.254   5.960 -0.0134 -0.3396  0.2392
  232POPC   C3A 3272   6.358   9.410   6.254  0.2585 -0.0089 -0.0468
  232POPC   C4A 3273   6.723   9.389   6.466 -0.0813  0.0353  0.4200
  232POPC   C1B 3274   6.369   8.736   5.595  0.1779 -0.1451  0.0405
  232POPC   C2B 3275   6.236   8.732   6.012  0.0004 -0.2522 -0.3015
  232POPC   C3B 3276   6.001   8.821   6.340  0.1456  0.2247 -0.2698
  232POPC   C4B 3277   5.852   8.604   6.610 -0.0558  0.1890  0.2698
  233POPC   NC3 3278   3.175   6.741   5.300  0.2994 -0.1407  0.0302
  233POPC   PO4 3279   2.926   6.442   5.213 -0.0267  0.1559 -0.0134
  233POPC   GL1 3280   2.735   6.671   5.556  0.3698  0.2000  0.0835
  233POPC   GL2 3281   2.336   6.806   5.649 -0.2497  0.0381 -0.0475
  233POPC   C1A 3282   2.807   6.750   5.969  0.2258 -0.3557  0.2057
  233POPC   D2A 3283   2.529   7.007   6.370  0.0122 -0.0668  0.0443
  233POPC   C3A 3284   2.295   7.396   6.323  0.0639  0.1180  0.0626
  233POPC   C4A 3285   1.972   7.657   6.466  0.1945  0.2334 -0.0958
  233POPC   C1B 3286   2.108   6.825   6.160 -0.4959  0.0645 -0.1980
  233POPC   C2B 3287   1.893   6.460   6.323 -0.3310  0.2630  0.0540
  233POPC   C3B 3288   1.875   6.267   6.760 -0.2105 -0.0860  0.2054
  233POPC   C4B 3289   1.720   5.890   6.769  0.0545  0.0085 -0.2476
  234POPC   NC3 3290   8.440   9.299   4.994 -0.0224  0.1095 -0.0301
  234POPC   PO4 3291   8.257   9.054   5.288 -0.0893  0.0154 -0.2671
  234POPC   GL1 3292   8.250   9.201   5.725 -0.0750 -0.0437  0.0502
  234POPC   GL2 3293   8.466   9.061   5.948 -0.0607 -0.3158 -0.0880
  234POPC   C1A 3294   7.985   9.443   6.101  0.0891 -0.1627  0.0147
  234POPC   D2A 3295   7.837   9.447   6.541 -0.0697 -0.0745 -0.0963
  234POPC   C3A 3296   7.501   9.668   6.784 -0.1951 -0.0280 -0.0739
  234POPC   C4A 3297   7.184   9.931   7.000 -0.2406  0.0948 -0.1225
  234POPC   C1B 3298   8.287   9.140   6.426  0.0583 -0.0324  0.4633
  234POPC   C2B 3299   8.535   9.209   6.728 -0.2578 -0.0416 -0.0141
  234POPC   C3B 3300   8.755   9.179   7.145 -0.2799 -0.0181  0.2556
  234POPC   C4B 3301   9.179   9.225   7.269 -0.2488 -0.1478 -0.1858
  235POPC   NC3 3302   6.300   6.642   5.088 -0.0238  0.3539  0.4623
  235POPC   PO4 3303   6.262   6.528   5.470  0.3721  0.0641  0.1706
  235POPC   GL1 3304   6.225   6.656   5.875 -0.0032 -0.4493  0.2484
  235POPC   GL2 3305   6.247   6.346   5.957  0.0581  0.4067 -0.0974
  235POPC   C1A 3306   6.005   6.847   6.281  0.0416 -0.2434 -0.0949
  235POPC   D2A 3307   5.892   6.920   6.683 -0.1272  0.0718  0.0821
  235POPC   C3A 3308   6.034   7.279   6.868  0.2949  0.3241  0.0018
  235POPC   C4A 3309   5.960   7.686   6.903 -0.3006  0.1073 -0.3651
  235POPC   C1B 3310   6.370   6.451   6.340  0.1505  0.3841 -0.3239
  235POPC   C2B 3311   6.130   6.492   6.666  0.0178 -0.0006 -0.2472
  235POPC   C3B 3312   6.217   6.401   7.127  0.0161  0.1974 -0.0631
  235POPC   C4B 3313   6.154   6.480   7.464 -0.0522 -0.0788 -0.2209
  236POPC   NC3 3314   5.283   9.579   5.243 -0.2279 -0.0318 -0.1969
  236POPC   PO4 3315   5.083   9.950   5.430  0.0623  0.1096  0.2511
  236POPC   GL1 3316   4.848  10.175   5.775 -0.0865  0.1151  0.1637
  236POPC   GL2 3317   4.535   9.975   5.781  0.2323 -0.3003  0.0219
  236POPC   C1A 3318   4.826   9.958   6.235  0.0330 -0.0719  0.1580
  236POPC   D2A 3319   4.899   9.956   6.605 -0.2476  0.0568 -0.0916
  236POPC   C3A 3320   5.042  10.120   7.090  0.1700 -0.0335  0.2592
  236POPC   C4A 3321   5.075  10.076   7.506 -0.2072 -0.0166  0.0090
  236POPC   C1B 3322   4.388  10.199   6.153  0.1924 -0.1166 -0.1065
  236POPC   C2B 3323   4.477  10.211   6.578 -0.1274 -0.1625 -0.0230
  236POPC   C3B 3324   4.574  10.278   7.000  0.5904  0.1951 -0.2099
  236POPC   C4B 3325   4.553  10.147   7.532  0.1209  0.1644  0.2106
  237POPC   NC3 3326   4.542   3.899   3.854  0.0429 -0.2101 -0.2975
  237POPC   PO4 3327   4.862   4.031   4.119 -0.1410  0.2630 -0.1705
  237POPC   GL1 3328   4.635   4.001   4.430  0.2153 -0.0602  0.1921
  237POPC   GL2 3329   4.664   3.666   4.537 -0.0689 -0.0089  0.2432
  237POPC   C1A 3330   4.422   4.192   4.761 -0.0165  0.0488 -0.2032
  237POPC   D2A 3331   4.186   4.029   5.101  0.1915 -0.2929 -0.2394
  237POPC   C3A 3332   3.926   3.673   5.063  0.1346 -0.0216  0.0778
  237POPC   C4A 3333   3.917   3.291   5.289  0.0718  0.1054 -0.0882
  237POPC   C1B 3334   4.444   3.664   4.901  0.0497 -0.0452 -0.2380
  237POPC   C2B 3335   4.303   3.623   5.427  0.0604  0.0346 -0.0791
  237POPC   C3B 3336   3.909   3.724   5.549 -0.1139 -0.2709  0.4697
  237POPC   C4B 3337   3.582   3.432   5.608 -0.3353  0.0961  0.0349
  238POPC   NC3 3338   5.761   0.805   5.286  0.0603  0.0922  0.0017
  238POPC   PO4 3339   5.713   1.211   5.014 -0.2456 -0.0936 -0.1725
  238POPC   GL1 3340   5.640   1.350   5.391 -0.1070 -0.0258 -0.1102
  238POPC   GL2 3341   5.554   1.148   5.642 -0.0976  0.0751  0.0578
  238POPC   C1A 3342   5.281   1.625   5.690  0.1421 -0.1488  0.3896
  238POPC   D2A 3343   5.056   1.585   6.027 -0.0076 -0.1976  0.3944
  238POPC   C3A 3344   4.847   1.823   6.361  0.1262 -0.1002  0.0932
  238POPC   C4A 3345   4.600   2.040   6.672 -0.2491  0.1577  0.0511
  238POPC   C1B 3346   5.867   1.033   5.981  0.0986 -0.1325  0.3703
  238POPC   C2B 3347   5.758   0.921   6.469 -0.0350 -0.1639 -0.0417
  238POPC   C3B 3348   5.793   0.946   6.861  0.1134  0.1981 -0.1730
  238POPC   C4B 3349   5.856   0.855   7.250 -0.1054 -0.0941 -0.0813
  239POPC   NC3 3350   1.604   1.465   3.511  0.0638 -0.3239 -0.0000
  239POPC   PO4 3351   1.976   1.560   3.371 -0.0933 -0.0184  0.2949
  239POPC   GL1 3352   2.122   1.916   3.518  0.2687 -0.0741  0.2078
  239POPC   GL2 3353   1.860   2.105   3.549  0.0814  0.0391 -0.3069
  239POPC   C1A 3354   2.396   1.888   3.924  0.1301  0.0453 -0.0884
  239POPC   D2A 3355   2.477   1.973   4.355 -0.0748 -0.2200  0.0108
  239POPC   C3A 3356   2.213   1.934   4.665 -0.0967 -0.2593 -0.2309
  239POPC   C4A 3357   2.327   1.862   5.099 -0.3025 -0.2225 -0.1150
  239POPC   C1B 3358   1.838   2.104   3.980 -0.1745 -0.2293 -0.1983
  239POPC   C2B 3359   1.597   2.319   4.238 -0.1287 -0.0269 -0.3084
  239POPC   C3B 3360   1.261   2.475   4.098  0.0979 -0.2934  0.2461
  239POPC   C4B 3361   0.885   2.661   3.755  0.0501  0.0527 -0.0652
  240POPC   NC3 3362   8.340   3.566   4.591 -0.1386 -0.1527  0.0293
  240POPC   PO4 3363   8.355   3.284   4.862 -0.0674  0.1674  0.2290
  240POPC   GL1 3364   8.309   3.274   5.301 -0.2756  0.1552  0.2649
  240POPC   GL2 3365   8.327   2.973   5.449  0.0292 -0.2529 -0.1004
  240POPC   C1A 3366   8.201   3.523   5.744  0.2306 -0.2608 -0.4899
  240POPC   D2A 3367   8.325   3.522   6.159  0.0381  0.1434 -0.1679
  240POPC   C3A 3368   8.398   3.904   6.384 -0.0036 -0.0575 -0.0684
  240POPC   C4A 3369   8.741   3.905   6.643 -0.1723 -0.0747 -0.0658
  240POPC   C1B 3370   8.663   3.246   5.651 -0.5490 -0.2481  0.1900
  240POPC   C2B 3371   8.891   3.251   6.056 -0.0060 -0.1030  0.1847
  240POPC   C3B 3372   8.825   3.360   6.493 -0.0522 -0.0266  0.0774
  240POPC   C4B 3373   8.773   3.478   6.942  0.0205 -0.2124  0.0969
  241POPC   NC3 3374   9.810   0.419   4.092 -0.1554  0.2219 -0.1868
  241POPC   PO4 3375  10.217   0.746   4.223 -0.5370  0.1108 -0.0150
  241POPC   GL1 3376  10.535   0.952   4.562  0.0729 -0.0738  0.2048
  241POPC   GL2 3377  10.703   0.661   4.716 -0.2130  0.1342  0.3334
  241POPC   C1A 3378  10.886   1.121   4.657 -0.0623  0.1635  0.0978
  241POPC   D2A 3379  11.230   1.190   4.941 -0.0660  0.1388  0.0421
  241POPC   C3A 3380  11.126   1.114   5.309 -0.1656 -0.0994  0.1459
  241POPC   C4A 3381  10.755   0.808   5.511  0.0897 -0.0063  0.2682
  241POPC   C1B 3382  10.640   0.960   5.029  0.1911  0.2089  0.0205
  241POPC   C2B 3383  10.403   1.222   5.327  0.2047 -0.0332 -0.1457
  241POPC   C3B 3384  10.294   1.417   5.668  0.0528 -0.0345 -0.2263
  241POPC   C4B 3385  10.461   1.730   6.044 -0.1828  0.0626 -0.2233
  242POPC   NC3 3386   4.520   3.148   3.770 -0.1767  0.2018  0.0114
  242POPC   PO4 3387   4.990   3.102   3.851  0.1467 -0.2538  0.2041
  242POPC   GL1 3388   4.755   2.948   4.214 -0.0716  0.3232 -0.0606
  242POPC   GL2 3389   4.774   3.102   4.475  0.1680 -0.0576  0.0249
  242POPC   C1A 3390   4.426   2.788   4.434 -0.1656  0.4982 -0.0386
  242POPC   D2A 3391   4.031   2.667   4.639  0.1906 -0.1328  0.0057
  242POPC   C3A 3392   3.789   2.780   5.061 -0.1067  0.0197  0.1181
  242POPC   C4A 3393   3.626   2.739   5.485 -0.0627  0.1002 -0.1382
  242POPC   C1B 3394   4.881   3.373   4.904 -0.0288  0.0585  0.0567
  242POPC   C2B 3395   4.955   3.557   5.379 -0.2038  0.0730 -0.2454
  242POPC   C3B 3396   4.791   3.508   5.788  0.1890 -0.0522  0.1383
  242POPC   C4B 3397   4.589   3.294   6.229  0.0521 -0.2909  0.0465
  243POPC   NC3 3398   2.684   5.341   4.461  0.1484 -0.1140  0.0739
  243POPC   PO4 3399   2.762   5.615   4.790  0.0984 -0.3374  0.2685
  243POPC   GL1 3400   2.841   5.497   5.154 -0.2916 -0.2181 -0.3058
  243POPC   GL2 3401   2.858   5.653   5.418  0.2582 -0.2990 -0.1755
  243POPC   C1A 3402   3.034   5.200   5.404  0.0605  0.0180  0.4888
  243POPC   D2A 3403   3.433   5.068   5.496 -0.1752  0.0496  0.1978
  243POPC   C3A 3404   3.521   5.139   5.963  0.0390 -0.1503 -0.0890
  243POPC   C4A 3405   3.900   5.140   6.221 -0.2188 -0.1071  0.0786
  243POPC   C1B 3406   2.862   5.416   5.834  0.2091  0.2311 -0.0326
  243POPC   C2B 3407   2.684   5.227   6.166  0.3081 -0.0340  0.1059
  243POPC   C3B 3408   2.661   4.728   6.391  0.0104 -0.2005  0.0173
  243POPC   C4B 3409   2.293   4.560   6.479 -0.1210 -0.1031 -0.0201
  244POPC   NC3 3410   8.592   0.560   5.305  0.0303  0.0754 -0.0532
  244POPC   PO4 3411   8.134   0.425   5.315 -0.1082 -0.0419  0.3181
  244POPC   GL1 3412   8.314   0.526   5.732  0.1404  0.2965 -0.5694
  244POPC   GL2 3413   8.454   0.402   5.930 -0.0049 -0.0995  0.1478
  244POPC   C1A 3414   8.257   0.820   6.275  0.1184 -0.0636  0.1427
  244POPC   D2A 3415   8.361   1.107   6.711  0.0681  0.1830  0.3955
  244POPC   C3A 3416   8.037   1.033   6.988 -0.3947  0.1165 -0.4487
  244POPC   C4A 3417   7.978   0.682   7.273 -0.3497  0.2003  0.0520
  244POPC   C1B 3418   8.650   0.243   6.175  0.1693 -0.2059  0.2236
  244POPC   C2B 3419   8.914  -0.132   6.255  0.1330  0.0738 -0.0811
  244POPC   C3B 3420   8.967  -0.458   6.626  0.1136  0.0107  0.3690
  244POPC   C4B 3421   9.029  -0.885   6.922  0.1983 -0.0419 -0.1338
  245POPC   NC3 3422   5.618   0.092   4.765  0.3399  0.1276 -0.4063
  245POPC   PO4 3423   5.504   0.364   5.022 -0.1180  0.0223  0.1564
  245POPC   GL1 3424   5.316   0.450   5.387  0.1839 -0.0677  0.6086
  245POPC   GL2 3425   5.454   0.330   5.663  0.3868  0.1773 -0.1269
  245POPC   C1A 3426   5.071   0.698   5.663 -0.0955 -0.1229 -0.2473
  245POPC   D2A 3427   4.831   0.779   6.018  0.0483  0.1675 -0.0078
  245POPC   C3A 3428   4.941   1.029   6.430  0.0328  0.1103 -0.2293
  245POPC   C4A 3429   5.086   1.394   6.504 -0.2040 -0.0806 -0.0341
  245POPC   C1B 3430   5.483   0.217   6.149  0.2919  0.0622 -0.1645
  245POPC   C2B 3431   5.690   0.457   6.504 -0.1529 -0.1075 -0.0710
  245POPC   C3B 3432   6.118   0.563   6.874  0.0129  0.1984  0.0066
  245POPC   C4B 3433   6.542   0.609   7.062 -0.0915  0.0913 -0.1332
  246POPC   NC3 3434   3.849  10.043   5.285 -0.1462  0.2154  0.2277
  246POPC   PO4 3435   4.240   9.807   5.438  0.0099  0.1625  0.0625
  246POPC   GL1 3436   3.988  10.020   5.804  0.0588  0.2374 -0.1179
  246POPC   GL2 3437   4.134   9.790   6.004  0.2645  0.3023 -0.1071
  246POPC   C1A 3438   4.013  10.450   5.957  0.0141  0.0311  0.0769
  246POPC   D2A 3439   4.031  10.668   5.764  0.0535 -0.2945 -0.1321
  246POPC   C3A 3440   3.844  10.949   6.053  0.1131  0.5355 -0.0523
  246POPC   C4A 3441   3.848  10.942   6.569  0.2487  0.0443 -0.0781
  246POPC   C1B 3442   3.986   9.974   6.326  0.0240  0.0043  0.4042
  246POPC   C2B 3443   4.040  10.026   6.775 -0.0003  0.3930  0.1651
  246POPC   C3B 3444   4.121  10.151   7.154  0.0541  0.0612 -0.1390
  246POPC   C4B 3445   4.065  10.286   7.596  0.1904 -0.0684 -0.0539
  247POPC   NC3 3446   0.423   5.851   4.120  0.0514 -0.1412 -0.2817
  247POPC   PO4 3447   0.926   5.718   4.136 -0.2671 -0.2894  0.2390
  247POPC   GL1 3448   0.971   5.259   4.261  0.0303 -0.1461  0.0139
  247POPC   GL2 3449   0.693   5.116   4.410  0.1721  0.0682 -0.2551
  247POPC   C1A 3450   1.060   4.863   4.650 -0.0691 -0.2548 -0.1145
  247POPC   D2A 3451   1.167   4.753   4.954  0.2952 -0.1156 -0.0386
  247POPC   C3A 3452   1.392   5.000   5.313 -0.1612 -0.0054  0.1128
  247POPC   C4A 3453   1.248   5.296   5.662  0.0327  0.0307 -0.0111
  247POPC   C1B 3454   0.722   5.214   4.841 -0.1311 -0.0131 -0.0848
  247POPC   C2B 3455   1.099   5.355   5.190  0.3885 -0.0495  0.0620
  247POPC   C3B 3456   1.473   5.504   5.260  0.3637  0.1467  0.0453
  247POPC   C4B 3457   1.818   5.698   5.705  0.0472  0.1456  0.1047
  248POPC   NC3 3458   2.078   9.818   4.437  0.0515  0.2130 -0.0065
  248POPC   PO4 3459   2.166   9.880   4.877 -0.2506  0.2761 -0.0629
  248POPC   GL1 3460   1.867   9.724   5.159  0.0995  0.0511  0.0998
  248POPC   GL2 3461   1.783   9.947   5.250 -0.2140 -0.0532 -0.0172
  248POPC   C1A 3462   1.903   9.587   5.599  0.0084 -0.0376  0.1544
  248POPC   D2A 3463   2.199   9.488   5.926  0.2193 -0.0678 -0.2196
  248POPC   C3A 3464   2.137   9.471   6.348  0.1394  0.3207 -0.1590
  248POPC   C4A 3465   2.192   9.190   6.543 -0.2473 -0.1648 -0.1892
  248POPC   C1B 3466   1.574  10.017   5.626  0.0777  0.1749  0.2394
  248POPC   C2B 3467   1.714  10.368   5.794  0.0115  0.0086  0.1878
  248POPC   C3B 3468   1.765  10.498   6.279  0.0662  0.0652 -0.2464
  248POPC   C4B 3469   1.917  10.392   6.627  0.0781  0.0229  0.1045
  249POPC   NC3 3470   9.930   8.928   4.678 -0.3809 -0.1589  0.3034
  249POPC   PO4 3471  10.304   8.657   4.826 -0.2148 -0.0467 -0.1981
  249POPC   GL1 3472  10.613   8.673   5.220  0.0581  0.1744  0.1974
  249POPC   GL2 3473  10.488   8.443   5.379 -0.2371 -0.1602 -0.0098
  249POPC   C1A 3474  10.692   8.829   5.659  0.0344 -0.2559  0.1108
  249POPC   D2A 3475  10.504   8.956   6.021  0.2181 -0.1943  0.0015
  249POPC   C3A 3476  10.433   9.365   6.181 -0.1937 -0.0375  0.1442
  249POPC   C4A 3477  10.224   9.769   6.306  0.0785  0.3811  0.3489
  249POPC   C1B 3478  10.370   8.464   5.873  0.0343 -0.2499  0.1292
  249POPC   C2B 3479  10.713   8.504   6.199 -0.2309 -0.3334  0.1290
  249POPC   C3B 3480  10.833   8.420   6.680 -0.1104  0.1850  0.0629
  249POPC   C4B 3481  11.199   8.134   6.839 -0.1336 -0.0440 -0.2976
  250POPC   NC3 3482   7.936   1.489   5.381  0.2652  0.3529  0.3702
  250POPC   PO4 3483   7.838   1.068   5.190 -0.2880  0.0517 -0.3013
  250POPC   GL1 3484   8.257   1.073   5.494  0.0487  0.0018 -0.0493
  250POPC   GL2 3485   8.068   1.215   5.751 -0.0757  0.4093 -0.1255
  250POPC   C1A 3486   8.523   0.939   5.835  0.2058 -0.0277  0.2933
  250POPC   D2A 3487   8.794   0.746   6.160  0.2174  0.0894 -0.0017
  250POPC   C3A 3488   8.673   0.701   6.526 -0.0767  0.1786  0.0666
  250POPC   C4A 3489   8.781   0.475   6.809  0.1119 -0.0462  0.0208
  250POPC   C1B 3490   8.219   1.416   6.249 -0.2382 -0.1714 -0.0811
  250POPC   C2B 3491   8.182   1.748   6.687 -0.2807 -0.0170 -0.1712
  250POPC   C3B 3492   7.915   2.124   6.669  0.2366  0.4550 -0.1261
  250POPC   C4B 3493   7.521   2.386   6.568 -0.2088 -0.1195 -0.1740
  251POPC   NC3 3494   7.337   0.836   5.125  0.0239 -0.0586 -0.1237
  251POPC   PO4 3495   6.992   0.532   5.093  0.4425  0.1999 -0.0878
  251POPC   GL1 3496   6.933   0.408   5.465 -0.0609  0.1020 -0.0675
  251POPC   GL2 3497   7.225   0.277   5.587 -0.0227  0.0570 -0.1711
  251POPC   C1A 3498   6.854   0.575   5.867  0.1200 -0.1182  0.2225
  251POPC   D2A 3499   6.642   0.527   6.263 -0.1837  0.0400  0.0278
  251POPC   C3A 3500   7.005   0.343   6.543 -0.0687 -0.2520 -0.2937
  251POPC   C4A 3501   6.928   0.152   6.973 -0.3068  0.2885 -0.0420
  251POPC   C1B 3502   7.368   0.612   5.892 -0.0182 -0.0011  0.2134
  251POPC   C2B 3503   7.642   0.903   5.974  0.3399 -0.2865 -0.1430
  251POPC   C3B 3504   7.620   1.342   5.987  0.0104  0.2641  0.1809
  251POPC   C4B 3505   7.360   1.573   6.095  0.1709 -0.1054  0.1441
  252POPC   NC3 3506   8.924   1.042   4.495 -0.1918  0.0352 -0.0283
  252POPC   PO4 3507   8.768   1.325   4.829 -0.1857  0.1654 -0.0374
  252POPC   GL1 3508   8.783   1.289   5.236 -0.0367  0.2071  0.0521
  252POPC   GL2 3509   8.893   1.019   5.355 -0.0714 -0.0108  0.0703
  252POPC   C1A 3510   9.051   1.454   5.639  0.0623 -0.1950 -0.0275
  252POPC   D2A 3511   9.389   1.392   5.811 -0.0247 -0.3913 -0.3257
  252POPC   C3A 3512   9.463   1.464   6.160 -0.2129 -0.0550 -0.3224
  252POPC   C4A 3513   9.662   1.505   6.553  0.3274  0.0770 -0.2303
  252POPC   C1B 3514   9.070   1.003   5.800  0.0791 -0.0747  0.4469
  252POPC   C2B 3515   9.418   0.905   6.035 -0.0718  0.0088 -0.0839
  252POPC   C3B 3516   9.591   0.922   6.398  0.0844  0.1238 -0.0095
  252POPC   C4B 3517  10.018   1.143   6.660 -0.1907 -0.2206  0.3195
  253POPC   NC3 3518   7.453   7.922   4.700  0.3543  0.0836  0.0129
  253POPC   PO4 3519   7.018   8.151   4.827  0.5309  0.2517  0.0370
  253POPC   GL1 3520   7.174   8.133   5.270 -0.0496  0.0005 -0.0795
  253POPC   GL2 3521   7.213   7.827   5.450  0.0963 -0.1318  0.0443
  253POPC   C1A 3522   7.118   8.223   5.661 -0.1067 -0.2037  0.0559
  253POPC   D2A 3523   7.080   8.193   6.053  0.3124 -0.1893  0.1146
  253POPC   C3A 3524   6.729   8.120   6.195  0.3545  0.2894  0.0275
  253POPC   C4A 3525   6.491   8.428   6.448 -0.2205  0.1183 -0.3560
  253POPC   C1B 3526   7.466   7.963   5.829 -0.1558 -0.0947  0.1325
  253POPC   C2B 3527   7.556   7.913   6.180  0.3285 -0.0790 -0.0511
  253POPC   C3B 3528   7.818   7.606   6.304  0.0112  0.1430 -0.1954
  253POPC   C4B 3529   7.895   7.298   6.642 -0.0339  0.2663  0.2221
  254POPC   NC3 3530   4.051   7.096   5.160  0.2803  0.1633  0.2678
  254POPC   PO4 3531   3.620   7.027   5.262 -0.0587  0.0272  0.1851
  254POPC   GL1 3532   3.495   6.870   5.638 -0.1289  0.0469 -0.1073
  254POPC   GL2 3533   3.764   6.698   5.860  0.0014 -0.4116  0.0464
  254POPC   C1A 3534   3.258   6.865   6.052 -0.0912 -0.0835 -0.3786
  254POPC   D2A 3535   3.005   6.870   6.464  0.2209 -0.2673  0.0511
  254POPC   C3A 3536   3.223   6.922   6.938  0.6378 -0.2279 -0.0977
  254POPC   C4A 3537   3.433   7.190   7.034  0.0666 -0.1561  0.1249
  254POPC   C1B 3538   3.834   6.575   6.332 -0.0530 -0.0855  0.1119
  254POPC   C2B 3539   4.156   6.656   6.609  0.2150  0.1263 -0.0258
  254POPC   C3B 3540   4.457   6.894   6.825  0.0239 -0.1425 -0.0575
  254POPC   C4B 3541   4.736   6.891   7.060 -0.2287 -0.0656  0.1837
  255POPC   NC3 3542   0.255   6.777   4.775 -0.1482 -0.1547  0.3108
  255POPC   PO4 3543   0.637   6.651   4.822 -0.1058  0.1014  0.2336
  255POPC   GL1 3544   0.491   6.743   5.268  0.1067 -0.0925 -0.0130
  255POPC   GL2 3545   0.150   6.696   5.370  0.1984  0.2527  0.3088
  255POPC   C1A 3546   0.529   6.619   5.741  0.1979 -0.4047 -0.1482
  255POPC   D2A 3547   0.437   6.307   6.075  0.2638  0.1612  0.0019
  255POPC   C3A 3548   0.540   6.227   6.516  0.0119 -0.0615  0.0313
  255POPC   C4A 3549   0.499   5.870   6.733  0.0025  0.0151 -0.1342
  255POPC   C1B 3550  -0.026   6.625   5.847  0.0671  0.1139 -0.1268
  255POPC   C2B 3551  -0.069   6.691   6.235 -0.0016 -0.1740 -0.1321
  255POPC   C3B 3552   0.127   6.701   6.574 -0.1122  0.0965 -0.3241
  255POPC   C4B 3553   0.251   6.735   7.023  0.1248 -0.1218 -0.0034
  256POPC   NC3 3554   2.162   2.042   2.956  0.1672  0.0795 -0.1117
  256POPC   PO4 3555   2.611   2.170   2.896 -0.0234 -0.1698 -0.2510
  256POPC   GL1 3556   2.475   2.414   3.252  0.0502  0.0506 -0.0220
  256POPC   GL2 3557   2.450   2.263   3.595  0.3600 -0.2904  0.0138
  256POPC   C1A 3558   2.104   2.659   3.354  0.2143 -0.0377  0.2252
  256POPC   D2A 3559   1.832   2.549   3.711  0.1440 -0.2749  0.2887
  256POPC   C3A 3560   1.714   2.760   4.005  0.1106 -0.1447  0.1879
  256POPC   C4A 3561   1.797   2.815   4.450  0.0124  0.0863 -0.1932
  256POPC   C1B 3562   2.364   2.411   3.940  0.1001  0.1689  0.2474
  256POPC   C2B 3563   2.188   2.370   4.316 -0.0473 -0.0156  0.3231
  256POPC   C3B 3564   1.908   2.378   4.643  0.0736 -0.2057 -0.4039
  256POPC   C4B 3565   1.973   2.190   5.028 -0.0629 -0.1690  0.1194
  257POPC   NC3 3566   0.282   8.280   4.803  0.3301 -0.0606 -0.0538
  257POPC   PO4 3567   0.393   7.952   5.108  0.1322 -0.0292  0.3397
  257POPC   GL1 3568   0.423   7.900   5.523 -0.1419  0.3028 -0.0838
  257POPC   GL2 3569   0.707   7.818   5.672 -0.2926 -0.1170 -0.2477
  257POPC   C1A 3570   0.031   7.971   5.879 -0.0984  0.1315  0.1154
  257POPC   D2A 3571  -0.006   8.142   6.337  0.1950 -0.1260  0.1289
  257POPC   C3A 3572   0.044   7.949   6.692 -0.1793  0.3586 -0.3427
  257POPC   C4A 3573   0.299   7.747   7.038 -0.1747  0.1005  0.1419
  257POPC   C1B 3574   0.464   7.661   5.997 -0.1102  0.0102 -0.0854
  257POPC   C2B 3575   0.113   7.617   6.209 -0.2151 -0.1595 -0.0625
  257POPC   C3B 3576  -0.045   7.422   6.581  0.0671  0.2807 -0.1440
  257POPC   C4B 3577  -0.345   7.117   6.720  0.3472  0.2220 -0.2671
  258POPC   NC3 3578   9.056   9.251   4.358 -0.1285  0.1078 -0.1488
  258POPC   PO4 3579   9.293   9.350   4.702  0.0941 -0.0011 -0.2370
  258POPC   GL1 3580   9.430   9.347   5.183 -0.2922  0.3508 -0.1269
  258POPC   GL2 3581   9.201   9.394   5.477 -0.1103 -0.0396  0.0949
  258POPC   C1A 3582   9.649   9.304   5.542 -0.1754  0.0229 -0.1910
  258POPC   D2A 3583   9.942   9.160   5.699  0.1249  0.0761  0.1157
  258POPC   C3A 3584  10.009   8.835   6.045 -0.0721 -0.0752 -0.6041
  258POPC   C4A 3585   9.776   8.804   6.371 -0.1669  0.1925  0.1574
  258POPC   C1B 3586   9.027   9.369   5.883  0.1046 -0.3902 -0.0411
  258POPC   C2B 3587   8.970   9.149   6.141  0.1863  0.1635 -0.1269
  258POPC   C3B 3588   8.806   8.918   6.332  0.1651  0.0134 -0.1032
  258POPC   C4B 3589   8.664   8.547   6.271 -0.3394  0.1878 -0.3531
  259POPC   NC3 3590   9.512   3.074   4.169 -0.0809 -0.0340 -0.1423
  259POPC   PO4 3591   9.713   3.302   4.575 -0.1516 -0.1432  0.0085
  259POPC   GL1 3592   9.728   3.182   4.949  0.2435 -0.0214 -0.2131
  259POPC   GL2 3593   9.412   3.259   5.135 -0.2232  0.1048 -0.1826
  259POPC   C1A 3594   9.986   3.232   5.297  0.2849 -0.0953  0.0258
  259POPC   D2A 3595  10.326   3.447   5.554 -0.0791  0.0420  0.0477
  259POPC   C3A 3596  10.367   3.117   5.915 -0.0931  0.1793 -0.2010
  259POPC   C4A 3597  10.416   2.935   6.350  0.0275  0.3650 -0.5007
  259POPC   C1B 3598   9.533   2.806   5.413  0.0935 -0.1534  0.0126
  259POPC   C2B 3599   9.336   2.454   5.652  0.1714 -0.0944  0.0269
  259POPC   C3B 3600   9.197   2.299   6.068  0.0940 -0.3195 -0.2704
  259POPC   C4B 3601   8.941   2.206   6.518  0.1030  0.0364 -0.0715
  260POPC   NC3 3602   8.706   8.995   5.452 -0.0218 -0.2910  0.2798
  260POPC   PO4 3603   9.101   8.789   5.386  0.0592 -0.0213 -0.1685
  260POPC   GL1 3604   9.316   8.886   5.651  0.2658 -0.0107 -0.0517
  260POPC   GL2 3605   9.553   8.778   5.621 -0.1742  0.1062  0.0174
  260POPC   C1A 3606   9.502   9.111   6.006 -0.0947 -0.1593  0.1141
  260POPC   D2A 3607   9.795   9.402   6.267 -0.0784 -0.0458  0.1656
  260POPC   C3A 3608  10.120   9.200   6.468  0.2744 -0.0576  0.1684
  260POPC   C4A 3609  10.193   9.023   6.904  0.1137  0.2591  0.1712
  260POPC   C1B 3610  10.056   8.632   5.560  0.0346  0.1666 -0.0814
  260POPC   C2B 3611  10.363   9.071   5.459 -0.4642 -0.3343  0.4824
  260POPC   C3B 3612  10.414   9.442   5.690  0.0516 -0.0779  0.1397
  260POPC   C4B 3613  10.351   9.764   5.806 -0.3083 -0.1369 -0.1766
  261POPC   NC3 3614   5.450   5.700   5.032 -0.1079 -0.1206  0.0959
  261POPC   PO4 3615   4.938   5.667   5.268  0.2104 -0.1829  0.0423
  261POPC   GL1 3616   4.850   5.836   5.532  0.3051 -0.5766  0.0352
  261POPC   GL2 3617   4.891   6.151   5.552 -0.0439 -0.0501  0.2888
  261POPC   C1A 3618   4.831   5.710   5.909 -0.0551 -0.0347  0.1835
  261POPC   D2A 3619   4.912   5.514   6.298  0.0519 -0.4489 -0.0881
  261POPC   C3A 3620   4.766   5.316   6.583  0.0135 -0.0437 -0.1539
  261POPC   C4A 3621   4.832   4.973   6.781 -0.0094  0.0626 -0.1097
  261POPC   C1B 3622   5.143   6.426   5.817 -0.0173  0.2638  0.1511
  261POPC   C2B 3623   5.133   6.615   6.190 -0.2121 -0.0534 -0.1941
  261POPC   C3B 3624   5.535   6.486   6.482 -0.1614  0.2123 -0.3278
  261POPC   C4B 3625   5.595   6.583   6.964 -0.2774 -0.4907  0.0361
  262POPC   NC3 3626   4.970   7.543   5.141  0.0270  0.1220 -0.1619
  262POPC   PO4 3627   4.682   7.911   5.242  0.1171  0.1869  0.1019
  262POPC   GL1 3628   4.724   7.877   5.628  0.3080  0.0466  0.0544
  262POPC   GL2 3629   4.757   8.228   5.636  0.1703  0.2917  0.1085
  262POPC   C1A 3630   4.638   7.630   6.040 -0.3668  0.0250  0.2238
  262POPC   D2A 3631   4.630   7.654   6.495  0.1094 -0.3399 -0.0533
  262POPC   C3A 3632   4.260   7.872   6.730 -0.0773  0.2971  0.2066
  262POPC   C4A 3633   4.358   8.221   6.934  0.0466  0.3712 -0.3513
  262POPC   C1B 3634   4.687   8.194   6.082 -0.0087 -0.1085  0.6023
  262POPC   C2B 3635   4.704   8.140   6.521 -0.3963 -0.2345 -0.1333
  262POPC   C3B 3636   4.910   8.294   6.859 -0.0709  0.2795  0.1910
  262POPC   C4B 3637   4.788   8.452   7.272 -0.2003  0.0056 -0.0693
  263POPC   NC3 3638   9.470   2.894   3.251 -0.1236 -0.0181 -0.1166
  263POPC   PO4 3639   9.795   2.915   3.622  0.1731 -0.0548 -0.5614
  263POPC   GL1 3640  10.218   2.918   3.988  0.0531  0.1426  0.2070
  263POPC   GL2 3641  10.070   2.925   4.353  0.1178 -0.1552 -0.1509
  263POPC   C1A 3642  10.523   2.797   4.348 -0.2590 -0.0800  0.3463
  263POPC   D2A 3643  10.737   2.817   4.734  0.2752 -0.2997  0.0146
  263POPC   C3A 3644  11.103   2.462   4.895 -0.1813  0.0836 -0.1789
  263POPC   C4A 3645  11.091   2.129   4.818 -0.2025 -0.0065 -0.2237
  263POPC   C1B 3646  10.269   2.975   4.840  0.1559 -0.0963 -0.1980
  263POPC   C2B 3647  10.529   3.074   5.099 -0.0948 -0.0505  0.1200
  263POPC   C3B 3648  10.771   3.317   5.225 -0.1248 -0.1399  0.0306
  263POPC   C4B 3649  10.840   3.577   5.432  0.1976 -0.0619  0.0796
  264POPC   NC3 3650   0.434   9.846   4.825 -0.0257  0.0493  0.3981
  264POPC   PO4 3651   0.760   9.540   4.846  0.0681  0.0037  0.0909
  264POPC   GL1 3652   0.731   9.380   5.257  0.0778 -0.0563  0.4432
  264POPC   GL2 3653   0.363   9.578   5.253 -0.1372  0.0491  0.3467
  264POPC   C1A 3654   1.016   9.301   5.615  0.1515 -0.0610 -0.2632
  264POPC   D2A 3655   0.920   9.469   6.046  0.3745  0.1860  0.1381
  264POPC   C3A 3656   0.808   9.408   6.582 -0.4480 -0.1055 -0.0300
  264POPC   C4A 3657   0.499   9.240   6.832  0.0492  0.4674  0.0197
  264POPC   C1B 3658   0.735   9.799   5.535  0.3296  0.1254 -0.1319
  264POPC   C2B 3659   1.077   9.941   5.617 -0.0846  0.3214  0.0201
  264POPC   C3B 3660   1.216  10.262   5.802 -0.0460  0.1847  0.2415
  264POPC   C4B 3661   1.342  10.526   6.060 -0.1106  0.0114  0.0678
  265POPC   NC3 3662   2.630   7.087   5.323  0.0085  0.0931  0.0539
  265POPC   PO4 3663   2.590   7.409   5.200  0.1210  0.1109  0.0608
  265POPC   GL1 3664   2.295   7.323   5.647  0.3022 -0.0144 -0.2434
  265POPC   GL2 3665   2.570   7.165   5.872 -0.4186 -0.0744 -0.0624
  265POPC   C1A 3666   1.965   7.592   5.934 -0.1085 -0.2283 -0.2846
  265POPC   D2A 3667   1.539   7.773   6.117  0.0596 -0.0352  0.1402
  265POPC   C3A 3668   1.251   7.420   6.240  0.1743 -0.1287 -0.0866
  265POPC   C4A 3669   0.825   7.410   6.269 -0.0607  0.1155  0.2028
  265POPC   C1B 3670   3.000   7.311   6.106  0.0596 -0.1196  0.0819
  265POPC   C2B 3671   2.916   7.362   6.559 -0.0908 -0.0699  0.0493
  265POPC   C3B 3672   2.865   7.272   7.020  0.2426 -0.0642  0.1378
  265POPC   C4B 3673   2.705   7.185   7.382  0.0958  0.3904 -0.3023
  266POPC   NC3 3674   7.020   6.819   5.336 -0.0556  0.0350 -0.0820
  266POPC   PO4 3675   6.745   6.513   5.386  0.1576 -0.0088  0.0296
  266POPC   GL1 3676   6.755   6.515   5.841  0.1529  0.1227 -0.2241
  266POPC   GL2 3677   6.770   6.272   6.017  0.1039 -0.1512 -0.1301
  266POPC   C1A 3678   6.727   6.733   6.237 -0.1326  0.0324  0.1642
  266POPC   D2A 3679   6.643   6.714   6.744  0.0318  0.0937  0.0066
  266POPC   C3A 3680   6.288   6.857   7.004 -0.2030 -0.2043 -0.0635
  266POPC   C4A 3681   5.948   6.926   7.282  0.0847 -0.1225 -0.3070
  266POPC   C1B 3682   6.919   6.271   6.448  0.0668 -0.0741  0.2430
  266POPC   C2B 3683   7.123   6.432   6.728 -0.3449 -0.0773 -0.4535
  266POPC   C3B 3684   7.403   6.584   7.108 -0.0670 -0.0021  0.1147
  266POPC   C4B 3685   7.450   6.254   7.510  0.0240  0.1313  0.0086
  267POPC   NC3 3686   1.244   0.505   3.728  0.0869  0.1922 -0.0422
  267POPC   PO4 3687   0.843   0.910   3.753 -0.1596 -0.0442 -0.0544
  267POPC   GL1 3688   1.061   0.898   4.218 -0.0551  0.2756 -0.1888
  267POPC   GL2 3689   1.391   0.941   4.314  0.1586  0.1467 -0.2283
  267POPC   C1A 3690   0.797   0.735   4.566  0.0717 -0.1320  0.0578
  267POPC   D2A 3691   0.733   0.706   5.060 -0.2036 -0.0580  0.2294
  267POPC   C3A 3692   0.822   0.319   5.277 -0.2110  0.3118 -0.3203
  267POPC   C4A 3693   0.912   0.226   5.751 -0.1598 -0.0501 -0.1839
  267POPC   C1B 3694   1.324   0.931   4.720  0.0660 -0.0418 -0.1905
  267POPC   C2B 3695   1.315   0.749   5.066 -0.1648 -0.0563 -0.1778
  267POPC   C3B 3696   1.158   0.807   5.420  0.2973 -0.2666 -0.1497
  267POPC   C4B 3697   0.835   0.812   5.670  0.2264 -0.3341  0.0316
  268POPC   NC3 3698   5.135  10.417   5.311  0.1455  0.1033  0.0908
  268POPC   PO4 3699   4.729  10.573   4.994  0.0033 -0.0071  0.1055
  268POPC   GL1 3700   4.757  10.637   5.505  0.0458 -0.1471  0.1368
  268POPC   GL2 3701   4.548  10.627   5.812 -0.1272 -0.1697 -0.0192
  268POPC   C1A 3702   5.010  10.654   5.902 -0.0635 -0.0049 -0.2847
  268POPC   D2A 3703   4.837  10.451   6.267 -0.1405  0.1874  0.0732
  268POPC   C3A 3704   5.196  10.343   6.586  0.0752 -0.1264 -0.2694
  268POPC   C4A 3705   5.566  10.410   6.817 -0.0453  0.0301 -0.0316
  268POPC   C1B 3706   4.379  10.706   6.186  0.1941 -0.2228  0.2644
  268POPC   C2B 3707   4.085  10.475   6.431  0.3208 -0.1113 -0.3244
  268POPC   C3B 3708   4.053  10.514   6.834 -0.0803  0.1277 -0.0105
  268POPC   C4B 3709   3.814  10.543   7.202 -0.2366  0.0565 -0.2597
  269POPC   NC3 3710   0.619   1.315   3.555  0.2891  0.0964 -0.1600
  269POPC   PO4 3711   0.527   1.251   4.008 -0.0537  0.1803 -0.1805
  269POPC   GL1 3712   0.750   1.517   4.365 -0.0433 -0.0516  0.0441
  269POPC   GL2 3713   0.898   1.306   4.465  0.1724  0.1918 -0.4235
  269POPC   C1A 3714   0.610   1.613   4.751 -0.0821  0.0513  0.2683
  269POPC   D2A 3715   0.379   1.483   5.086  0.2023  0.0174 -0.0204
  269POPC   C3A 3716   0.308   1.564   5.477  0.1355 -0.0897 -0.0934
  269POPC   C4A 3717   0.253   1.936   5.652  0.1184  0.0212 -0.0118
  269POPC   C1B 3718   1.230   1.441   4.479  0.3044 -0.2338 -0.3379
  269POPC   C2B 3719   1.379   1.357   4.927  0.1839 -0.0961  0.0341
  269POPC   C3B 3720   1.517   1.198   5.311  0.0724  0.3223  0.1472
  269POPC   C4B 3721   1.688   0.884   5.671 -0.2101  0.0098 -0.1563
  270POPC   NC3 3722   5.918   2.422   4.110 -0.1200  0.0029  0.5161
  270POPC   PO4 3723   5.798   2.648   4.411 -0.1834 -0.0378  0.2135
  270POPC   GL1 3724   5.460   2.635   4.705 -0.2866 -0.2453 -0.1528
  270POPC   GL2 3725   5.148   2.965   4.738  0.1078  0.1431  0.3808
  270POPC   C1A 3726   5.291   2.531   5.084 -0.1014  0.2434 -0.1115
  270POPC   D2A 3727   5.054   2.563   5.480  0.0271  0.2015  0.0712
  270POPC   C3A 3728   4.785   2.646   5.780  0.1528 -0.2905  0.1386
  270POPC   C4A 3729   4.487   2.965   5.826  0.0618  0.0633 -0.1851
  270POPC   C1B 3730   5.009   3.006   5.241 -0.0955 -0.0245  0.1356
  270POPC   C2B 3731   5.031   3.095   5.678 -0.2143 -0.1019  0.0954
  270POPC   C3B 3732   5.070   3.276   6.107 -0.0841  0.2516 -0.0627
  270POPC   C4B 3733   5.076   3.598   6.439  0.1281  0.0895 -0.0942
  271POPC   NC3 3734   0.787   4.236   3.627  0.3736 -0.0040 -0.1168
  271POPC   PO4 3735   1.029   4.474   4.039  0.0475 -0.0538 -0.1981
  271POPC   GL1 3736   0.781   4.340   4.475 -0.1585  0.0565  0.2384
  271POPC   GL2 3737   0.493   4.653   4.493  0.1102 -0.2633  0.1105
  271POPC   C1A 3738   0.680   4.206   4.876  0.1422 -0.1202  0.1284
  271POPC   D2A 3739   0.607   3.998   5.279  0.4998  0.1281  0.2777
  271POPC   C3A 3740   0.482   4.056   5.709 -0.0611 -0.1060  0.1891
  271POPC   C4A 3741   0.253   4.051   6.045 -0.0632 -0.1090 -0.1089
  271POPC   C1B 3742   0.663   4.703   4.924 -0.1232  0.4123 -0.0103
  271POPC   C2B 3743   0.777   4.929   5.250 -0.2266  0.2465 -0.2178
  271POPC   C3B 3744   0.939   4.973   5.618  0.2069  0.0615  0.0999
  271POPC   C4B 3745   0.959   4.659   5.906 -0.2610 -0.3763 -0.2997
  272POPC   NC3 3746   3.032   9.237   5.068 -0.1871  0.1570 -0.2167
  272POPC   PO4 3747   2.628   9.370   4.972  0.1555  0.0724 -0.1681
  272POPC   GL1 3748   2.582   9.427   5.302  0.0201 -0.0181  0.0310
  272POPC   GL2 3749   2.310   9.761   5.368  0.1245 -0.1837 -0.1675
  272POPC   C1A 3750   2.516   9.168   5.639 -0.1571 -0.1479 -0.2454
  272POPC   D2A 3751   2.744   9.021   6.038 -0.2250 -0.1182 -0.3320
  272POPC   C3A 3752   2.607   9.383   6.207  0.1634 -0.1951  0.0459
  272POPC   C4A 3753   2.487   9.853   6.293 -0.1924  0.1969  0.2975
  272POPC   C1B 3754   2.653   9.666   5.712  0.0127  0.0020 -0.0466
  272POPC   C2B 3755   2.955   9.741   6.117  0.2897  0.0761  0.3020
  272POPC   C3B 3756   3.045   9.865   6.498 -0.1355 -0.1064  0.1788
  272POPC   C4B 3757   3.316   9.736   6.854  0.2014  0.1307 -0.1731
  273POPC   NC3 3758   4.976   4.421   4.418 -0.0462 -0.2169 -0.1958
  273POPC   PO4 3759   5.066   3.924   4.584 -0.2630 -0.2232 -0.1002
  273POPC   GL1 3760   4.884   3.946   4.964  0.0933  0.3143  0.0123
  273POPC   GL2 3761   5.194   3.921   5.175 -0.0740 -0.2694  0.1476
  273POPC   C1A 3762   4.649   3.952   5.309  0.4141 -0.1905  0.0747
  273POPC   D2A 3763   4.476   3.898   5.840 -0.4005  0.3991 -0.0361
  273POPC   C3A 3764   4.154   3.635   6.061 -0.1720  0.0432  0.1832
  273POPC   C4A 3765   4.015   3.304   6.413  0.1169  0.0879  0.0266
  273POPC   C1B 3766   5.473   4.030   5.500 -0.0795 -0.2010 -0.0646
  273POPC   C2B 3767   5.454   4.211   5.903 -0.0659 -0.2356 -0.1308
  273POPC   C3B 3768   5.444   4.502   6.324  0.0863  0.3778  0.1818
  273POPC   C4B 3769   5.480   4.723   6.699  0.5425  0.0989  0.2507
  274POPC   NC3 3770   7.689   2.230   5.298 -0.3840  0.1822 -0.0584
  274POPC   PO4 3771   8.022   2.001   5.171 -0.0687  0.2299 -0.3232
  274POPC   GL1 3772   8.223   1.857   5.548 -0.1922 -0.0702  0.1534
  274POPC   GL2 3773   8.387   1.587   5.468 -0.1021  0.2841  0.1987
  274POPC   C1A 3774   8.388   1.860   6.013 -0.3739 -0.0379  0.0009
  274POPC   D2A 3775   8.580   1.853   6.345 -0.2216 -0.1031  0.3087
  274POPC   C3A 3776   8.642   1.460   6.570 -0.0961 -0.0101  0.1095
  274POPC   C4A 3777   8.857   1.208   6.811  0.1464  0.0423  0.1360
  274POPC   C1B 3778   8.502   1.440   5.724  0.0871 -0.0721 -0.1366
  274POPC   C2B 3779   8.701   1.342   6.069  0.0395  0.1164  0.1943
  274POPC   C3B 3780   9.111   1.225   6.331 -0.0233  0.0310 -0.0601
  274POPC   C4B 3781   9.155   0.839   6.642 -0.1259  0.2909 -0.0056
  275POPC   NC3 3782   8.368   5.429   5.110 -0.1979 -0.1150 -0.0527
  275POPC   PO4 3783   8.650   5.346   4.832 -0.1045  0.0036 -0.0803
  275POPC   GL1 3784   8.868   5.351   5.260  0.4561 -0.1050  0.0396
  275POPC   GL2 3785   8.779   5.078   5.582 -0.0251 -0.2195  0.0877
  275POPC   C1A 3786   9.271   5.329   5.546 -0.0057 -0.1950 -0.1320
  275POPC   D2A 3787   9.561   5.181   5.960  0.1589  0.1165 -0.1542
  275POPC   C3A 3788   9.995   5.179   6.060 -0.0073  0.0073 -0.3831
  275POPC   C4A 3789  10.373   4.991   5.965  0.1051  0.0623 -0.1457
  275POPC   C1B 3790   8.716   5.188   5.964 -0.1117 -0.1306 -0.1101
  275POPC   C2B 3791   8.705   5.444   6.279  0.2122 -0.0779  0.1458
  275POPC   C3B 3792   8.728   5.684   6.682 -0.3025  0.2599  0.1264
  275POPC   C4B 3793   8.691   5.507   7.114  0.1337  0.2725  0.2549
  276POPC   NC3 3794   0.166   3.449   3.588 -0.0558 -0.1224  0.2413
  276POPC   PO4 3795  -0.128   3.340   3.714 -0.0403  0.1114  0.1809
  276POPC   GL1 3796   0.030   3.382   4.087  0.0403 -0.0302  0.0619
  276POPC   GL2 3797   0.427   3.469   4.042 -0.1434 -0.1060 -0.2977
  276POPC   C1A 3798   0.128   3.416   4.554 -0.1087  0.0020 -0.1053
  276POPC   D2A 3799   0.420   3.613   4.798 -0.0120 -0.0615 -0.0920
  276POPC   C3A 3800   0.776   3.558   5.071 -0.2019  0.0704 -0.0086
  276POPC   C4A 3801   0.959   3.690   5.470  0.0697 -0.1284 -0.0198
  276POPC   C1B 3802   0.540   3.843   4.323 -0.1409  0.2641 -0.1400
  276POPC   C2B 3803   0.876   3.810   4.573 -0.3015  0.0597  0.0294
  276POPC   C3B 3804   1.143   3.968   4.839 -0.3179 -0.1067 -0.0444
  276POPC   C4B 3805   1.438   4.372   4.807 -0.0072  0.2011  0.0122
  277POPC   NC3 3806   7.971   5.649   4.943  0.0720 -0.1351 -0.0632
  277POPC   PO4 3807   7.770   5.982   5.208  0.1293 -0.0751  0.1430
  277POPC   GL1 3808   7.553   5.913   5.620  0.1692  0.3182  0.2992
  277POPC   GL2 3809   7.662   6.275   5.687 -0.0610 -0.1085  0.1403
  277POPC   C1A 3810   7.313   5.645   5.827 -0.3226  0.0640 -0.2050
  277POPC   D2A 3811   7.296   5.705   6.351 -0.1687  0.1004  0.1031
  277POPC   C3A 3812   6.932   5.578   6.522 -0.1633  0.1069 -0.0540
  277POPC   C4A 3813   6.860   5.732   6.891 -0.1937  0.4260  0.0258
  277POPC   C1B 3814   7.328   6.312   6.035  0.1275  0.0249 -0.0419
  277POPC   C2B 3815   7.424   6.162   6.428 -0.0555  0.3220  0.0574
  277POPC   C3B 3816   7.380   6.014   6.806  0.1366  0.1833 -0.2671
  277POPC   C4B 3817   7.268   5.934   7.168  0.2543 -0.0040  0.0518
  278POPC   NC3 3818   7.186   9.815   4.671  0.1693  0.3346 -0.2609
  278POPC   PO4 3819   6.945  10.151   4.398 -0.0183  0.0144  0.0724
  278POPC   GL1 3820   6.856  10.167   4.913 -0.0861 -0.1448  0.2032
  278POPC   GL2 3821   6.938  10.434   5.127 -0.0237  0.0228  0.0513
  278POPC   C1A 3822   6.687  10.018   5.339 -0.1236 -0.1502 -0.3491
  278POPC   D2A 3823   6.613  10.530   5.585  0.1956  0.3714 -0.0805
  278POPC   C3A 3824   6.363  10.742   5.932  0.3322  0.0349  0.1595
  278POPC   C4A 3825   6.340  11.263   5.967 -0.1094 -0.2210  0.0518
  278POPC   C1B 3826   7.058  10.308   5.514 -0.0768  0.2250  0.1775
  278POPC   C2B 3827   7.295  10.189   5.895 -0.0766 -0.2309  0.0332
  278POPC   C3B 3828   7.202  10.126   6.259 -0.2400 -0.3534 -0.1263
  278POPC   C4B 3829   7.117  10.187   6.635 -0.1165 -0.2783 -0.0349
  279POPC   NC3 3830   8.324   8.505   5.321  0.3029  0.2059 -0.1599
  279POPC   PO4 3831   8.143   8.125   5.260  0.0422  0.1216 -0.2276
  279POPC   GL1 3832   8.490   8.057   5.535 -0.1848  0.3365 -0.1261
  279POPC   GL2 3833   8.443   7.744   5.667 -0.1384  0.3091 -0.3024
  279POPC   C1A 3834   8.833   8.129   5.914 -0.0394 -0.0080 -0.1339
  279POPC   D2A 3835   9.078   8.181   6.164  0.1817 -0.0569 -0.3814
  279POPC   C3A 3836   9.022   8.483   6.619 -0.3129  0.0218  0.1607
  279POPC   C4A 3837   8.672   8.766   6.771  0.3033 -0.0800 -0.1996
  279POPC   C1B 3838   8.285   7.561   6.011 -0.6245 -0.1478 -0.0380
  279POPC   C2B 3839   8.273   7.433   6.370  0.0659 -0.1258 -0.2655
  279POPC   C3B 3840   8.379   7.149   6.603 -0.0634  0.2077 -0.1061
  279POPC   C4B 3841   8.548   6.999   6.902 -0.1322  0.0716  0.1576
  280POPC   NC3 3842   6.340   2.850   5.102 -0.0284 -0.1503 -0.0447
  280POPC   PO4 3843   6.730   3.096   5.136 -0.1033 -0.0662  0.0003
  280POPC   GL1 3844   6.535   3.109   5.500  0.1648 -0.0820  0.2152
  280POPC   GL2 3845   6.243   2.944   5.674 -0.0025  0.0580 -0.2212
  280POPC   C1A 3846   6.516   3.155   5.991  0.0253 -0.1000  0.0434
  280POPC   D2A 3847   6.820   3.199   6.309 -0.0234 -0.2116 -0.1481
  280POPC   C3A 3848   7.126   2.940   6.368 -0.0674  0.1446  0.0483
  280POPC   C4A 3849   7.425   2.661   6.139 -0.0890  0.1555 -0.1213
  280POPC   C1B 3850   6.069   2.914   6.060  0.0671 -0.1299 -0.1689
  280POPC   C2B 3851   5.737   3.053   6.430  0.0107  0.1833  0.2066
  280POPC   C3B 3852   5.400   3.169   6.508  0.0124 -0.2416 -0.0831
  280POPC   C4B 3853   5.163   3.328   6.818  0.0567 -0.1456  0.1122
  281POPC   NC3 3854   2.101   0.315   4.656 -0.1847 -0.0388  0.2320
  281POPC   PO4 3855   2.554   0.366   4.830  0.0784 -0.0063 -0.0769
  281POPC   GL1 3856   2.605   0.275   5.185  0.1919  0.2332  0.1082
  281POPC   GL2 3857   2.782   0.530   5.300 -0.1749 -0.1597 -0.2334
  281POPC   C1A 3858   2.598   0.278   5.640  0.2706 -0.2314  0.1210
  281POPC   D2A 3859   2.648   0.324   6.046 -0.5371 -0.1979  0.1589
  281POPC   C3A 3860   3.058   0.331   6.203  0.1837  0.1690  0.2703
  281POPC   C4A 3861   3.432   0.247   6.086 -0.0608  0.0846 -0.0147
  281POPC   C1B 3862   2.368   0.726   5.392  0.3013 -0.1461  0.3450
  281POPC   C2B 3863   2.162   0.991   5.668 -0.2265  0.1755  0.1889
  281POPC   C3B 3864   1.928   1.002   6.080 -0.5299 -0.0010 -0.1886
  281POPC   C4B 3865   2.042   0.842   6.490 -0.2046  0.1096 -0.2539
  282POPC   NC3 3866   2.077   3.343   2.826 -0.0227 -0.1759 -0.2150
  282POPC   PO4 3867   1.744   3.525   3.109  0.1303  0.2113  0.0973
  282POPC   GL1 3868   1.636   3.381   3.447 -0.2464 -0.1491  0.2046
  282POPC   GL2 3869   1.609   3.666   3.602 -0.2411  0.0600 -0.2141
  282POPC   C1A 3870   1.432   3.292   3.868 -0.0960  0.2038  0.0152
  282POPC   D2A 3871   1.337   3.038   4.202  0.3856 -0.1288  0.1016
  282POPC   C3A 3872   1.598   3.218   4.621  0.2610  0.0473 -0.2477
  282POPC   C4A 3873   1.865   3.292   4.935 -0.0366 -0.1391  0.3851
  282POPC   C1B 3874   1.497   3.765   4.037  0.3776 -0.1219 -0.0697
  282POPC   C2B 3875   1.378   3.654   4.474 -0.1310 -0.4753 -0.2309
  282POPC   C3B 3876   1.586   3.739   4.972  0.1143 -0.0310 -0.3111
  282POPC   C4B 3877   1.375   3.731   5.340 -0.1730 -0.0828 -0.0175
  283POPC   NC3 3878   5.418   6.497   4.946  0.1821  0.0917 -0.0256
  283POPC   PO4 3879   5.189   6.133   5.122  0.1438  0.1925 -0.0593
  283POPC   GL1 3880   5.353   6.054   5.523 -0.0623 -0.0360  0.0412
  283POPC   GL2 3881   5.383   5.720   5.597  0.2699 -0.2150 -0.0784
  283POPC   C1A 3882   5.249   5.992   6.009  0.1345 -0.0596  0.0698
  283POPC   D2A 3883   5.066   6.035   6.400  0.1207 -0.1203  0.1876
  283POPC   C3A 3884   5.118   5.647   6.771  0.0001  0.0081  0.3284
  283POPC   C4A 3885   4.910   5.448   7.043 -0.7357 -0.0210  0.2247
  283POPC   C1B 3886   5.329   5.484   5.982  0.1706 -0.3404  0.3131
  283POPC   C2B 3887   5.484   5.389   6.428 -0.0570  0.0391  0.2158
  283POPC   C3B 3888   5.280   5.193   6.773  0.1814  0.2097 -0.0316
  283POPC   C4B 3889   5.473   4.952   7.154  0.2637 -0.1388 -0.2727
  284POPC   NC3 3890   6.495   9.789   4.286  0.2673  0.2294 -0.2161
  284POPC   PO4 3891   6.617   9.543   4.593 -0.2227  0.0099  0.1651
  284POPC   GL1 3892   6.730   9.718   4.996  0.0450  0.3071  0.0207
  284POPC   GL2 3893   7.026   9.715   5.124  0.2820  0.2351 -0.1986
  284POPC   C1A 3894   6.576   9.524   5.402  0.0855 -0.0678  0.0137
  284POPC   D2A 3895   6.737   9.524   5.895  0.4980  0.1216 -0.0353
  284POPC   C3A 3896   7.073   9.702   6.042 -0.1837 -0.0583  0.0850
  284POPC   C4A 3897   7.135   9.672   6.433  0.3602  0.1107 -0.3922
  284POPC   C1B 3898   7.028   9.808   5.562 -0.4234  0.0428 -0.1366
  284POPC   C2B 3899   6.797  10.039   5.827  0.1761  0.1767 -0.2415
  284POPC   C3B 3900   6.681   9.937   6.257 -0.0853  0.1084 -0.0090
  284POPC   C4B 3901   6.715   9.880   6.697  0.0575 -0.2967 -0.0117
  285POPC   NC3 3902   9.256  10.201   5.306 -0.0639  0.3136 -0.4498
  285POPC   PO4 3903   9.724  10.284   5.019 -0.0676  0.3425  0.2534
  285POPC   GL1 3904   9.932  10.178   5.380  0.2657  0.1442 -0.0276
  285POPC   GL2 3905   9.667  10.134   5.604  0.3530 -0.0694  0.1976
  285POPC   C1A 3906  10.105  10.231   5.758 -0.1027  0.0274  0.1407
  285POPC   D2A 3907  10.535  10.427   5.973 -0.0973 -0.0629  0.0776
  285POPC   C3A 3908  10.748  10.117   6.236  0.1787 -0.4362 -0.0863
  285POPC   C4A 3909  10.561   9.999   6.704  0.1246 -0.4284 -0.2132
  285POPC   C1B 3910   9.754  10.008   6.054  0.0808 -0.2635  0.2064
  285POPC   C2B 3911   9.763   9.860   6.488 -0.0098  0.0500  0.1901
  285POPC   C3B 3912   9.564   9.844   6.941 -0.0261  0.1306  0.2480
  285POPC   C4B 3913   9.356   9.726   7.329  0.0787  0.3778 -0.0910
  286POPC   NC3 3914   1.691   6.138   4.619  0.0187 -0.1512  0.1542
  286POPC   PO4 3915   1.453   6.340   4.798 -0.4190 -0.2601 -0.0850
  286POPC   GL1 3916   1.529   6.096   5.086 -0.2053  0.1333  0.0625
  286POPC   GL2 3917   1.240   5.858   4.976  0.0490 -0.1604  0.0631
  286POPC   C1A 3918   1.486   6.212   5.599 -0.4934  0.0820  0.0391
  286POPC   D2A 3919   1.474   6.305   6.034 -0.0847  0.0040  0.3766
  286POPC   C3A 3920   1.372   6.035   6.391  0.1922 -0.1542 -0.0200
  286POPC   C4A 3921   1.205   6.069   6.817 -0.0525 -0.2041 -0.2875
  286POPC   C1B 3922   1.197   5.841   5.469  0.0096  0.0446  0.1065
  286POPC   C2B 3923   1.324   5.776   5.888  0.1197  0.0837  0.2563
  286POPC   C3B 3924   1.554   5.589   6.127 -0.0285 -0.0571  0.2241
  286POPC   C4B 3925   1.473   5.497   6.521 -0.0642 -0.0475 -0.0699
  287POPC   NC3 3926  10.239   4.247   3.921 -0.0907 -0.2099  0.0720
  287POPC   PO4 3927  10.507   3.975   3.764  0.2013  0.0063 -0.0257
  287POPC   GL1 3928  10.447   3.891   4.257 -0.0950 -0.1798  0.1237
  287POPC   GL2 3929  10.122   4.028   4.409  0.2621 -0.0674  0.0467
  287POPC   C1A 3930  10.456   3.933   4.720  0.2408  0.2646  0.0675
  287POPC   D2A 3931  10.591   3.943   5.177 -0.2552  0.0605  0.0404
  287POPC   C3A 3932  10.459   3.886   5.629 -0.0417  0.1009  0.2232
  287POPC   C4A 3933  10.115   4.061   5.908 -0.1265  0.1826 -0.1077
  287POPC   C1B 3934  10.066   4.214   4.919  0.0311 -0.2482 -0.0057
  287POPC   C2B 3935  10.322   4.312   5.336 -0.1300  0.2402 -0.0381
  287POPC   C3B 3936  10.491   4.404   5.723 -0.3234 -0.3250 -0.2391
  287POPC   C4B 3937  10.411   4.435   6.143 -0.5692  0.0570  0.3182
  288POPC   NC3 3938   4.759   0.427   4.532  0.2102 -0.3300  0.0342
  288POPC   PO4 3939   5.030   0.595   4.774  0.1431  0.2189  0.1396
  288POPC   GL1 3940   4.754   0.604   5.175 -0.0223 -0.2540 -0.1355
  288POPC   GL2 3941   4.744   0.906   5.179 -0.2838  0.1354  0.0284
  288POPC   C1A 3942   4.490   0.635   5.592 -0.2659  0.2021  0.0482
  288POPC   D2A 3943   4.318   0.779   5.889  0.2432 -0.0292 -0.2660
  288POPC   C3A 3944   4.487   1.093   6.202  0.0344  0.1326 -0.2690
  288POPC   C4A 3945   4.329   1.582   6.401  0.0196  0.1738 -0.1212
  288POPC   C1B 3946   4.254   0.867   5.207  0.0662 -0.0145  0.2028
  288POPC   C2B 3947   3.911   0.736   5.400  0.1343  0.0756 -0.0458
  288POPC   C3B 3948   3.809   1.062   5.750  0.2831  0.0284  0.2895
  288POPC   C4B 3949   3.955   1.419   6.034 -0.0212 -0.4963  0.2622
  289POPC   NC3 3950   7.558   4.089   4.903  0.1026 -0.1238 -0.3287
  289POPC   PO4 3951   7.259   4.270   5.039  0.1788 -0.3296 -0.0319
  289POPC   GL1 3952   7.417   4.204   5.512 -0.0424  0.0728  0.0338
  289POPC   GL2 3953   7.530   4.469   5.710 -0.3646  0.0886 -0.0276
  289POPC   C1A 3954   7.466   3.901   5.718 -0.0988 -0.1106 -0.2359
  289POPC   D2A 3955   7.712   3.604   5.932 -0.0361  0.2044  0.0334
  289POPC   C3A 3956   7.865   3.562   6.445 -0.1686 -0.0908  0.0087
  289POPC   C4A 3957   8.243   3.490   6.773 -0.0272  0.1063  0.4204
  289POPC   C1B 3958   7.677   4.672   6.070 -0.1110 -0.2404  0.0192
  289POPC   C2B 3959   7.835   4.887   6.397 -0.1991  0.0606  0.1056
  289POPC   C3B 3960   7.890   4.973   6.807 -0.1218 -0.4784  0.0455
  289POPC   C4B 3961   7.599   5.013   7.149  0.1396 -0.1118 -0.1619
  290POPC   NC3 3962   5.018   1.460   3.786  0.0466 -0.0721 -0.4052
  290POPC   PO4 3963   4.726   1.598   3.979  0.0650  0.2450  0.0537
  290POPC   GL1 3964   4.602   1.632   4.398 -0.0009  0.2681  0.0287
  290POPC   GL2 3965   4.444   1.890   4.591  0.3574  0.1859 -0.3311
  290POPC   C1A 3966   4.836   1.666   4.840  0.0060  0.0735  0.2544
  290POPC   D2A 3967   4.725   1.654   5.289  0.1433 -0.2868 -0.1008
  290POPC   C3A 3968   4.398   1.785   5.535 -0.4108  0.1344  0.0043
  290POPC   C4A 3969   3.996   1.896   5.478 -0.0937  0.1721 -0.0113
  290POPC   C1B 3970   4.401   2.277   4.689 -0.1271 -0.2317  0.2075
  290POPC   C2B 3971   4.215   2.484   5.025 -0.1454 -0.0972  0.2072
  290POPC   C3B 3972   3.895   2.385   5.297 -0.0613 -0.0069 -0.0324
  290POPC   C4B 3973   3.690   2.238   5.721  0.1715  0.2184  0.0307
  291POPC   NC3 3974   4.455   5.576   5.274 -0.0137 -0.0595  0.2175
  291POPC   PO4 3975   4.061   5.586   5.314  0.0814 -0.1421 -0.0609
  291POPC   GL1 3976   3.903   5.547   5.644  0.0648  0.1463  0.0022
  291POPC   GL2 3977   4.005   5.226   5.716  0.0066 -0.1135  0.0663
  291POPC   C1A 3978   3.871   5.568   6.067 -0.1510 -0.0604  0.1793
  291POPC   D2A 3979   3.790   5.520   6.482  0.0380  0.0161 -0.3327
  291POPC   C3A 3980   3.713   5.789   6.851  0.0801 -0.1406  0.1714
  291POPC   C4A 3981   3.794   6.052   7.218  0.1671 -0.2425 -0.0990
  291POPC   C1B 3982   4.330   5.001   5.975  0.0987  0.1362  0.0271
  291POPC   C2B 3983   4.744   4.934   6.308  0.2719  0.1215  0.0506
  291POPC   C3B 3984   4.995   4.573   6.514 -0.2824 -0.0324  0.1846
  291POPC   C4B 3985   5.202   4.117   6.720 -0.0164 -0.1189 -0.1278
  292POPC   NC3 3986   4.497   9.376   5.225 -0.1119 -0.2505  0.3096
  292POPC   PO4 3987   4.841   9.594   5.096  0.0124  0.2812  0.1906
  292POPC   GL1 3988   4.750   9.631   5.536 -0.3111 -0.3560 -0.1556
  292POPC   GL2 3989   5.017   9.575   5.708  0.1549  0.0752  0.0224
  292POPC   C1A 3990   4.574   9.492   5.937 -0.0116 -0.2214 -0.1299
  292POPC   D2A 3991   4.425   9.604   6.388  0.0518  0.1941  0.0212
  292POPC   C3A 3992   4.109   9.483   6.381 -0.0491 -0.0036  0.4277
  292POPC   C4A 3993   3.762   9.597   6.548 -0.2319  0.0129  0.1517
  292POPC   C1B 3994   5.198   9.575   6.151  0.3066 -0.1013  0.1695
  292POPC   C2B 3995   4.981   9.452   6.480  0.1925 -0.1862 -0.2029
  292POPC   C3B 3996   4.637   9.352   6.800 -0.0117 -0.1743  0.3273
  292POPC   C4B 3997   4.377   9.139   7.005 -0.1110 -0.0014 -0.0611
  293POPC   NC3 3998   3.763   6.026   5.032 -0.1206  0.0302 -0.3311
  293POPC   PO4 3999   3.394   6.206   5.203 -0.0239 -0.0844 -0.2959
  293POPC   GL1 4000   3.179   6.094   5.567  0.0913  0.1218  0.1396
  293POPC   GL2 4001   3.098   6.387   5.734 -0.0637 -0.3302 -0.1419
  293POPC   C1A 4002   2.818   5.950   5.824  0.3282 -0.0150 -0.0116
  293POPC   D2A 4003   2.814   5.768   6.201  0.0015  0.2723  0.1463
  293POPC   C3A 4004   3.188   5.876   6.516  0.2420  0.0122 -0.0417
  293POPC   C4A 4005   3.239   5.762   6.975 -0.3892  0.0536  0.0821
  293POPC   C1B 4006   2.906   6.300   6.160  0.4030  0.0119 -0.0641
  293POPC   C2B 4007   2.590   6.081   6.485  0.1002 -0.5588 -0.1393
  293POPC   C3B 4008   2.162   6.050   6.418 -0.1400  0.1297 -0.0333
  293POPC   C4B 4009   1.900   6.081   6.000 -0.3885  0.2142  0.4539
  294POPC   NC3 4010   2.234   8.434   4.978 -0.3166  0.1492  0.2508
  294POPC   PO4 4011   2.316   7.992   5.129 -0.3759 -0.2786 -0.1470
  294POPC   GL1 4012   2.520   7.761   5.516 -0.2838 -0.1491 -0.2132
  294POPC   GL2 4013   2.848   7.604   5.598  0.1548 -0.1132  0.0052
  294POPC   C1A 4014   2.515   7.632   5.948 -0.1067  0.0681 -0.1989
  294POPC   D2A 4015   2.466   7.931   6.341 -0.0648 -0.0077  0.7592
  294POPC   C3A 4016   2.504   7.717   6.707 -0.0344 -0.0264  0.0227
  294POPC   C4A 4017   2.367   7.388   7.105  0.0501  0.0606  0.1510
  294POPC   C1B 4018   2.965   7.806   6.046  0.4186 -0.1935  0.2166
  294POPC   C2B 4019   2.959   7.916   6.514 -0.2314  0.1508  0.1356
  294POPC   C3B 4020   2.904   8.004   6.913  0.0012  0.0070 -0.1011
  294POPC   C4B 4021   3.084   8.262   7.210  0.0172  0.5419  0.2073
  295POPC   NC3 4022   2.757   7.848   5.021 -0.1443 -0.0900  0.0288
  295POPC   PO4 4023   2.747   8.300   5.130 -0.1054  0.3570  0.2782
  295POPC   GL1 4024   2.658   8.233   5.538  0.0212 -0.0691  0.2154
  295POPC   GL2 4025   2.691   8.576   5.686  0.0129  0.0188 -0.2396
  295POPC   C1A 4026   2.267   8.163   5.821 -0.3200 -0.1237  0.2119
  295POPC   D2A 4027   2.041   8.113   6.237  0.2186  0.0938  0.0555
  295POPC   C3A 4028   1.906   8.126   6.649 -0.3109 -0.1642 -0.1677
  295POPC   C4A 4029   1.706   8.341   6.992  0.1878  0.0484 -0.2837
  295POPC   C1B 4030   2.374   8.702   5.907  0.1630 -0.2069 -0.0372
  295POPC   C2B 4031   2.162   8.863   6.202  0.1681  0.0986  0.1566
  295POPC   C3B 4032   1.787   8.621   6.382  0.2832  0.1249  0.3226
  295POPC   C4B 4033   1.438   8.604   6.633  0.2128 -0.1991  0.4551
  296POPC   NC3 4034   1.168   8.236   4.752 -0.2135  0.4269  0.0591
  296POPC   PO4 4035   1.652   8.319   4.871 -0.2701  0.2133 -0.0178
  296POPC   GL1 4036   1.555   8.320   5.290 -0.2242 -0.0490 -0.0079
  296POPC   GL2 4037   1.343   8.066   5.294 -0.2245  0.0761  0.1791
  296POPC   C1A 4038   1.649   8.129   5.801  0.0530 -0.0599  0.0411
  296POPC   D2A 4039   1.409   8.272   6.174 -0.3136  0.0103  0.2808
  296POPC   C3A 4040   1.421   8.121   6.575 -0.0678 -0.1473  0.3424
  296POPC   C4A 4041   1.245   8.143   6.966  0.2206  0.1262 -0.2103
  296POPC   C1B 4042   1.104   8.128   5.716 -0.1653  0.0818 -0.1832
  296POPC   C2B 4043   0.834   8.284   5.952 -0.0342 -0.2662 -0.0417
  296POPC   C3B 4044   0.943   8.536   6.263  0.0315  0.1348  0.2427
  296POPC   C4B 4045   0.786   8.852   6.519 -0.0745  0.0495 -0.1381
  297POPC   NC3 4046  10.140   6.700   5.111 -0.3629 -0.3543  0.3648
  297POPC   PO4 4047  10.379   7.065   5.068  0.0826 -0.0500 -0.1802
  297POPC   GL1 4048  10.385   7.143   5.583  0.0200 -0.1204  0.2549
  297POPC   GL2 4049  10.419   7.485   5.752  0.1763 -0.0973 -0.0921
  297POPC   C1A 4050  10.574   7.073   5.960 -0.2987  0.2632  0.0803
  297POPC   D2A 4051  10.759   7.146   6.317 -0.0825 -0.1227 -0.2558
  297POPC   C3A 4052  10.776   7.204   6.848 -0.0756  0.0278 -0.1004
  297POPC   C4A 4053  11.072   7.316   7.272 -0.2355 -0.1600 -0.0019
  297POPC   C1B 4054  10.155   7.298   6.074 -0.0470 -0.1162  0.3536
  297POPC   C2B 4055   9.929   7.018   6.209 -0.0246  0.2058  0.1839
  297POPC   C3B 4056   9.915   6.472   6.240  0.2506 -0.2212 -0.1645
  297POPC   C4B 4057  10.030   6.008   6.175  0.1736 -0.1058 -0.0472
  298POPC   NC3 4058   1.920   1.108   3.525 -0.2849  0.2482  0.0541
  298POPC   PO4 4059   1.579   0.863   3.840 -0.1284 -0.0621  0.2032
  298POPC   GL1 4060   1.550   1.328   3.994  0.3003 -0.0160  0.2197
  298POPC   GL2 4061   1.734   1.355   4.172 -0.2717  0.4943 -0.0473
  298POPC   C1A 4062   1.493   1.773   4.120  0.3430  0.1682  0.1197
  298POPC   D2A 4063   1.176   1.944   4.272 -0.0186 -0.3481  0.3962
  298POPC   C3A 4064   1.077   1.878   4.691 -0.2819 -0.3093 -0.0041
  298POPC   C4A 4065   1.445   1.889   5.095  0.2536  0.1161  0.1991
  298POPC   C1B 4066   1.682   1.427   4.575 -0.1570 -0.0838  0.4293
  298POPC   C2B 4067   1.824   1.539   5.018 -0.0421 -0.1102 -0.1766
  298POPC   C3B 4068   1.923   1.388   5.600 -0.0332 -0.0948  0.3012
  298POPC   C4B 4069   1.629   1.343   5.836 -0.0742 -0.0411 -0.3278
  299POPC   NC3 4070   3.785   0.095   4.729 -0.2875 -0.1104 -0.1518
  299POPC   PO4 4071   3.797   0.092   5.129  0.2987  0.0457 -0.2938
  299POPC   GL1 4072   3.569   0.384   5.373  0.0906  0.0016  0.1665
  299POPC   GL2 4073   3.427   0.546   5.162  0.1793  0.0800 -0.2118
  299POPC   C1A 4074   3.534   0.558   5.668  0.3089 -0.0211  0.0434
  299POPC   D2A 4075   3.395   0.723   6.040  0.2505  0.2298 -0.3861
  299POPC   C3A 4076   3.720   0.932   6.243  0.2053  0.2670  0.2129
  299POPC   C4A 4077   4.136   0.776   6.342 -0.2861  0.0283  0.1008
  299POPC   C1B 4078   3.354   0.920   5.433 -0.1115  0.0801  0.0053
  299POPC   C2B 4079   3.255   1.127   5.873 -0.0575  0.0507 -0.0879
  299POPC   C3B 4080   3.348   1.473   6.225  0.1245  0.1372 -0.1508
  299POPC   C4B 4081   3.344   1.392   6.714 -0.1880 -0.2270 -0.1657
  300POPC   NC3 4082   9.945   6.590   4.477 -0.0177  0.2344 -0.2734
  300POPC   PO4 4083  10.303   6.496   4.679  0.0253  0.1117  0.0166
  300POPC   GL1 4084  10.524   6.276   5.082 -0.1231 -0.3618  0.0771
  300POPC   GL2 4085  10.765   6.313   5.020  0.0451  0.0554  0.3034
  300POPC   C1A 4086  10.448   6.180   5.534 -0.0048 -0.2672  0.3206
  300POPC   D2A 4087  10.515   5.971   5.897 -0.2123  0.2129  0.0080
  300POPC   C3A 4088  10.470   6.219   6.436 -0.1291 -0.1175  0.2189
  300POPC   C4A 4089  10.559   6.306   6.853 -0.0519  0.5502  0.0455
  300POPC   C1B 4090  10.921   6.192   5.471  0.1404 -0.0331 -0.0624
  300POPC   C2B 4091  10.938   5.876   5.679 -0.2462 -0.1395  0.0458
  300POPC   C3B 4092  10.945   5.765   6.091  0.0884  0.2283  0.1830
  300POPC   C4B 4093  10.974   5.499   6.399 -0.2071 -0.0951 -0.0738
  301POPC   NC3 4094   3.906   3.313   3.524  0.2142 -0.2231  0.0936
  301POPC   PO4 4095   4.270   3.474   3.440 -0.1076 -0.1580 -0.0858
  301POPC   GL1 4096   4.121   3.458   3.942  0.1586 -0.0790 -0.1716
  301POPC   GL2 4097   4.332   3.211   4.220  0.3236 -0.0983  0.2317
  301POPC   C1A 4098   3.701   3.418   4.301  0.0518  0.3944 -0.2350
  301POPC   D2A 4099   3.576   3.328   4.752  0.1074  0.0502 -0.0958
  301POPC   C3A 4100   3.427   3.617   5.003 -0.1147 -0.2383  0.0438
  301POPC   C4A 4101   3.517   3.899   5.255 -0.3390  0.1804 -0.0855
  301POPC   C1B 4102   3.979   3.008   4.152 -0.2126  0.1825 -0.0918
  301POPC   C2B 4103   3.606   2.916   4.403 -0.0830  0.0610 -0.1631
  301POPC   C3B 4104   3.387   2.878   4.760 -0.1564  0.0662  0.1897
  301POPC   C4B 4105   3.388   3.045   5.194  0.2612 -0.3050  0.0671
  302POPC   NC3 4106   7.456  10.222   4.964  0.2927 -0.0528 -0.3659
  302POPC   PO4 4107   7.861  10.498   4.947  0.3679  0.3106 -0.0674
  302POPC   GL1 4108   7.747  10.492   5.338 -0.2173  0.0808 -0.1538
  302POPC   GL2 4109   7.564  10.229   5.511  0.0949 -0.0857  0.3152
  302POPC   C1A 4110   7.735  10.729   5.731  0.0666  0.0638 -0.0652
  302POPC   D2A 4111   7.852  10.926   6.060  0.0255  0.1139 -0.0570
  302POPC   C3A 4112   7.657  11.017   6.442  0.0243  0.1971 -0.0973
  302POPC   C4A 4113   7.271  11.095   6.760 -0.0843 -0.1532 -0.1510
  302POPC   C1B 4114   7.807  10.259   5.986 -0.0930  0.3367  0.2909
  302POPC   C2B 4115   8.146  10.504   6.230  0.2085  0.3459  0.1580
  302POPC   C3B 4116   8.297  10.759   6.582 -0.1258  0.0315  0.0361
  302POPC   C4B 4117   8.155  11.037   6.802  0.0068 -0.0386  0.2755
  303POPC   NC3 4118   0.510   2.829   2.783  0.1692 -0.0544 -0.0189
  303POPC   PO4 4119   0.332   3.091   3.173 -0.2050  0.2706 -0.0246
  303POPC   GL1 4120   0.612   3.145   3.494  0.0587 -0.0085 -0.0505
  303POPC   GL2 4121   0.835   3.360   3.641 -0.1636 -0.3343 -0.0910
  303POPC   C1A 4122   0.769   3.054   4.010  0.0046  0.2605 -0.1719
  303POPC   D2A 4123   0.528   3.098   4.352 -0.0473 -0.1824 -0.1031
  303POPC   C3A 4124   0.619   3.138   4.830  0.1096  0.0116 -0.2207
  303POPC   C4A 4125   0.544   2.892   5.195 -0.3039 -0.0380 -0.0546
  303POPC   C1B 4126   1.025   3.519   4.076 -0.1326  0.3333  0.0499
  303POPC   C2B 4127   0.960   3.308   4.506  0.0388  0.1243 -0.0440
  303POPC   C3B 4128   1.189   3.342   4.929  0.2892 -0.0173  0.0331
  303POPC   C4B 4129   1.560   3.103   5.185 -0.1267  0.0979  0.1926
  304POPC   NC3 4130   7.662   6.690   5.271 -0.1797 -0.0833  0.1663
  304POPC   PO4 4131   7.871   7.072   5.515 -0.0964 -0.2859  0.1718
  304POPC   GL1 4132   8.117   6.749   5.680 -0.1864 -0.1609  0.1794
  304POPC   GL2 4133   8.319   6.997   5.794  0.0262 -0.2287 -0.3371
  304POPC   C1A 4134   8.238   6.326   5.853  0.1457 -0.1618 -0.1348
  304POPC   D2A 4135   8.024   5.947   5.761  0.0234 -0.0400 -0.0423
  304POPC   C3A 4136   7.740   5.900   6.086 -0.0832 -0.3693 -0.1406
  304POPC   C4A 4137   7.786   5.752   6.441 -0.1235 -0.1321  0.0080
  304POPC   C1B 4138   8.611   7.130   6.088  0.1090  0.0705 -0.1060
  304POPC   C2B 4139   8.851   6.901   6.463  0.1332 -0.3502 -0.0214
  304POPC   C3B 4140   8.997   6.660   6.818  0.0024  0.1272 -0.2219
  304POPC   C4B 4141   9.233   6.404   6.963  0.0840 -0.2525 -0.0930
  305POPC   NC3 4142   2.918  10.330   5.033  0.0320  0.1273 -0.0882
  305POPC   PO4 4143   3.416  10.174   4.978  0.0850 -0.4954  0.0164
  305POPC   GL1 4144   3.351  10.240   5.321 -0.1612 -0.1976 -0.3774
  305POPC   GL2 4145   3.568  10.308   5.606  0.0525 -0.3102  0.1883
  305POPC   C1A 4146   3.097  10.657   5.604 -0.3549  0.0943 -0.0127
  305POPC   D2A 4147   3.050  10.986   5.747  0.1869  0.0443  0.3519
  305POPC   C3A 4148   2.635  11.215   5.802  0.0038 -0.1887  0.1086
  305POPC   C4A 4149   2.366  11.231   6.132 -0.0708  0.4288 -0.0590
  305POPC   C1B 4150   3.460  10.162   5.960  0.2308 -0.2556 -0.1905
  305POPC   C2B 4151   3.087  10.278   6.267 -0.0172 -0.1715  0.4102
  305POPC   C3B 4152   2.695  10.440   6.519  0.1141 -0.0742 -0.0995
  305POPC   C4B 4153   2.758  10.657   6.899  0.1645 -0.0185 -0.1457
  306POPC   NC3 4154   2.814   2.768   3.153 -0.1926 -0.2811 -0.0236
  306POPC   PO4 4155   2.740   3.131   3.272 -0.0329  0.0704  0.0106
  306POPC   GL1 4156   2.765   3.391   3.684 -0.1393 -0.0142 -0.1557
  306POPC   GL2 4157   2.406   3.540   3.704 -0.1089 -0.3443 -0.0607
  306POPC   C1A 4158   3.020   3.254   3.959 -0.0881 -0.1471  0.2199
  306POPC   D2A 4159   3.104   3.103   4.316  0.0799  0.0693 -0.1088
  306POPC   C3A 4160   2.785   2.775   4.158 -0.6022  0.1937 -0.1323
  306POPC   C4A 4161   2.712   2.387   4.333 -0.2532 -0.0069 -0.1880
  306POPC   C1B 4162   2.411   3.365   4.111 -0.0713  0.0049  0.1094
  306POPC   C2B 4163   2.660   3.248   4.382 -0.1855  0.2119 -0.2062
  306POPC   C3B 4164   2.864   2.828   4.672  0.0693 -0.0706 -0.0154
  306POPC   C4B 4165   2.961   2.917   5.110  0.0130  0.4790  0.4036
  307POPC   NC3 4166   6.176   2.153   5.077  0.2400 -0.0529  0.0256
  307POPC   PO4 4167   5.985   2.550   4.950  0.1275  0.2019 -0.0136
  307POPC   GL1 4168   5.968   2.616   5.377  0.1029  0.2323  0.0442
  307POPC   GL2 4169   6.273   2.484   5.481  0.0428  0.0920  0.1427
  307POPC   C1A 4170   5.849   2.593   5.728  0.1296  0.0899 -0.1113
  307POPC   D2A 4171   5.735   2.588   6.174 -0.4429 -0.0256 -0.0112
  307POPC   C3A 4172   5.459   2.295   6.332 -0.0541  0.1495 -0.0059
  307POPC   C4A 4173   5.280   1.979   6.673  0.0765  0.2456 -0.1112
  307POPC   C1B 4174   6.293   2.493   5.932  0.1276  0.1260 -0.0784
  307POPC   C2B 4175   6.265   2.269   6.317  0.0873  0.0853  0.0816
  307POPC   C3B 4176   6.077   2.399   6.615 -0.0679  0.2260 -0.1022
  307POPC   C4B 4177   5.979   2.180   6.944 -0.3092 -0.4744  0.2533
  308POPC   NC3 4178   1.551   7.837   4.840 -0.1797 -0.1288  0.1084
  308POPC   PO4 4179   1.444   7.463   4.684 -0.3204  0.2318  0.2465
  308POPC   GL1 4180   1.421   7.484   5.176 -0.1725  0.0499 -0.0300
  308POPC   GL2 4181   1.161   7.620   5.372 -0.0706 -0.0037  0.0852
  308POPC   C1A 4182   1.617   7.481   5.580 -0.2377 -0.3064 -0.0861
  308POPC   D2A 4183   1.638   7.252   5.992 -0.2042 -0.1447  0.0039
  308POPC   C3A 4184   1.740   7.172   6.414  0.0313 -0.0101 -0.3904
  308POPC   C4A 4185   2.049   7.217   6.774  0.5241 -0.0721 -0.4431
  308POPC   C1B 4186   1.164   7.680   5.828  0.0596  0.0844 -0.5090
  308POPC   C2B 4187   1.081   7.857   6.195  0.0195  0.0985  0.1553
  308POPC   C3B 4188   1.144   7.690   6.617  0.4656 -0.1638 -0.2607
  308POPC   C4B 4189   1.342   7.320   6.766 -0.0899  0.2676 -0.2098
  309POPC   NC3 4190   1.234   9.203   4.955  0.0175 -0.1641 -0.3285
  309POPC   PO4 4191   1.243   8.776   4.824 -0.1673  0.0280  0.0916
  309POPC   GL1 4192   1.073   8.618   5.190  0.0474 -0.2473 -0.3986
  309POPC   GL2 4193   1.005   8.931   5.232  0.0002  0.1393 -0.1200
  309POPC   C1A 4194   0.700   8.457   5.412 -0.0515  0.2539  0.0913
  309POPC   D2A 4195   0.396   8.282   5.795 -0.0629  0.0483 -0.2693
  309POPC   C3A 4196   0.521   8.084   6.259  0.0432 -0.0352  0.0499
  309POPC   C4A 4197   0.519   7.751   6.540  0.0986 -0.2109 -0.0583
  309POPC   C1B 4198   0.669   8.949   5.448  0.0915  0.0722  0.0985
  309POPC   C2B 4199   0.431   9.284   5.632 -0.0736 -0.1956  0.0336
  309POPC   C3B 4200   0.438   9.699   5.935  0.1272 -0.3672  0.2626
  309POPC   C4B 4201   0.378   9.620   6.347  0.2996 -0.0362  0.1434
  310POPC   NC3 4202   8.110  10.079   5.330  0.0097  0.1320 -0.1476
  310POPC   PO4 4203   7.794   9.915   5.122  0.3234 -0.2127 -0.2926
  310POPC   GL1 4204   7.680   9.636   5.359 -0.0126 -0.3135  0.1739
  310POPC   GL2 4205   7.759   9.274   5.321  0.0658 -0.0417  0.2187
  310POPC   C1A 4206   7.509   9.670   5.713 -0.3641  0.1714  0.2289
  310POPC   D2A 4207   7.550   9.771   6.107  0.0120 -0.0799 -0.0125
  310POPC   C3A 4208   7.961   9.940   6.309  0.0256 -0.3284 -0.0516
  310POPC   C4A 4209   8.203   9.718   6.618  0.1821 -0.3082 -0.4260
  310POPC   C1B 4210   7.649   9.219   5.732 -0.0458  0.0808 -0.3983
  310POPC   C2B 4211   7.392   9.157   6.140 -0.2304 -0.0046  0.0848
  310POPC   C3B 4212   7.286   9.088   6.574 -0.0136 -0.3933 -0.1916
  310POPC   C4B 4213   7.448   9.124   6.985  0.0173  0.1947  0.3225
  311POPC   NC3 4214   6.325   3.440   5.061  0.4421  0.0236  0.3432
  311POPC   PO4 4215   5.784   3.557   5.073 -0.0169  0.2290  0.0767
  311POPC   GL1 4216   5.914   3.206   5.253 -0.1960 -0.4860  0.0021
  311POPC   GL2 4217   5.783   2.982   5.036 -0.2680 -0.0533  0.1338
  311POPC   C1A 4218   5.764   3.109   5.690 -0.1019  0.0389 -0.3166
  311POPC   D2A 4219   5.545   3.147   5.938  0.3478 -0.0036  0.1317
  311POPC   C3A 4220   5.543   3.554   6.179  0.0715 -0.1438 -0.1547
  311POPC   C4A 4221   5.505   3.942   6.330 -0.1094  0.0997 -0.0414
  311POPC   C1B 4222   5.508   2.842   5.397  0.2698 -0.1588  0.0180
  311POPC   C2B 4223   5.307   2.660   5.856  0.1939 -0.2599 -0.0401
  311POPC   C3B 4224   5.290   2.780   6.213 -0.0346 -0.1497 -0.2292
  311POPC   C4B 4225   4.947   2.844   6.510  0.2932 -0.1369  0.0110
  312POPC   NC3 4226   1.074   6.252   4.525  0.3154 -0.2455 -0.2424
  312POPC   PO4 4227   0.734   6.099   4.478  0.0905  0.0421  0.0248
  312POPC   GL1 4228   0.790   6.165   4.945 -0.2081  0.0486  0.0594
  312POPC   GL2 4229   1.002   6.382   4.998 -0.2951 -0.0262  0.0661
  312POPC   C1A 4230   0.795   5.752   5.183 -0.2918 -0.2786 -0.1024
  312POPC   D2A 4231   0.724   5.443   5.502 -0.3996  0.1411 -0.0492
  312POPC   C3A 4232   0.886   5.499   5.908  0.3604  0.2592  0.5406
  312POPC   C4A 4233   1.015   5.359   6.335 -0.1950 -0.2337 -0.1305
  312POPC   C1B 4234   0.963   6.420   5.425  0.0844 -0.1178  0.1095
  312POPC   C2B 4235   0.974   6.225   5.738  0.1258 -0.0969  0.0728
  312POPC   C3B 4236   0.933   6.097   6.102 -0.0520  0.3941 -0.1735
  312POPC   C4B 4237   0.914   5.846   6.418 -0.4547 -0.2152  0.1223
  313POPC   NC3 4238   9.150   2.676   4.904 -0.2019 -0.2964  0.0565
  313POPC   PO4 4239   8.802   3.000   4.842 -0.0373 -0.0965 -0.1951
  313POPC   GL1 4240   8.907   3.087   5.267  0.5182  0.0479 -0.1295
  313POPC   GL2 4241   8.976   2.818   5.368  0.0543 -0.0306 -0.0091
  313POPC   C1A 4242   9.161   3.412   5.616 -0.2764 -0.2141  0.1846
  313POPC   D2A 4243   9.358   3.687   5.779  0.2661  0.0188  0.1085
  313POPC   C3A 4244   9.695   3.891   6.153  0.1730  0.1283  0.1496
  313POPC   C4A 4245  10.024   3.859   6.413 -0.1098  0.2474  0.2330
  313POPC   C1B 4246   9.180   2.885   5.829  0.1368  0.3067  0.2065
  313POPC   C2B 4247   9.528   2.753   6.042  0.0168 -0.1136  0.0520
  313POPC   C3B 4248   9.531   2.691   6.516  0.2684  0.1641 -0.2411
  313POPC   C4B 4249   9.310   2.651   6.843  0.0060  0.1420 -0.0472
  314POPC   NC3 4250   3.447   9.809   4.667  0.1490 -0.2955  0.2652
  314POPC   PO4 4251   3.176   9.735   5.011  0.0612 -0.0043  0.1067
  314POPC   GL1 4252   3.473   9.754   5.319  0.1864 -0.1920 -0.0191
  314POPC   GL2 4253   3.392   9.465   5.456 -0.1580  0.1770 -0.2271
  314POPC   C1A 4254   3.139   9.835   5.630 -0.2703  0.4501 -0.0938
  314POPC   D2A 4255   2.832  10.175   5.704 -0.3860  0.2102  0.0432
  314POPC   C3A 4256   2.566  10.251   6.051  0.1134  0.3313 -0.2163
  314POPC   C4A 4257   2.147  10.212   6.213 -0.1723  0.2872 -0.2363
  314POPC   C1B 4258   3.168   9.327   5.816 -0.1383 -0.1994 -0.1732
  314POPC   C2B 4259   3.226   9.366   6.254  0.0900 -0.0195  0.1604
  314POPC   C3B 4260   3.165   9.154   6.578  0.0061 -0.0408  0.1340
  314POPC   C4B 4261   3.077   8.853   6.824  0.3130  0.1454  0.1132
  315POPC   NC3 4262   4.485   5.231   4.241 -0.3402 -0.1778 -0.2505
  315POPC   PO4 4263   4.235   4.974   4.465 -0.3557 -0.0267 -0.4076
  315POPC   GL1 4264   4.338   4.771   4.822 -0.1076  0.0220  0.0652
  315POPC   GL2 4265   4.458   4.945   5.118  0.0304 -0.1637  0.2857
  315POPC   C1A 4266   4.147   4.579   5.108  0.0868  0.3069 -0.0459
  315POPC   D2A 4267   3.899   4.247   5.391 -0.2045 -0.3448 -0.1056
  315POPC   C3A 4268   3.499   4.352   5.493  0.2766 -0.0737  0.2471
  315POPC   C4A 4269   3.063   4.148   5.370 -0.1273  0.1801  0.1130
  315POPC   C1B 4270   4.360   4.855   5.503 -0.3119 -0.0303  0.3017
  315POPC   C2B 4271   4.718   4.745   5.787 -0.0322 -0.0406  0.1128
  315POPC   C3B 4272   5.058   4.606   6.004 -0.0447 -0.0217 -0.0392
  315POPC   C4B 4273   5.059   4.182   6.252 -0.0727  0.0957  0.3829
  316POPC   NC3 4274   6.408   8.242   4.796 -0.0215 -0.1263 -0.1345
  316POPC   PO4 4275   6.022   8.220   5.082  0.0790  0.0963 -0.2621
  316POPC   GL1 4276   5.964   8.374   5.423 -0.1933 -0.0479  0.0437
  316POPC   GL2 4277   5.916   8.711   5.371  0.2542 -0.1818  0.1233
  316POPC   C1A 4278   5.890   8.367   5.844  0.1151  0.2251  0.1592
  316POPC   D2A 4279   6.055   8.321   6.257 -0.0936  0.0731  0.0839
  316POPC   C3A 4280   6.303   7.915   6.375  0.1244  0.2859  0.0512
  316POPC   C4A 4281   6.348   7.626   6.672  0.2388 -0.4477 -0.1145
  316POPC   C1B 4282   5.770   8.869   5.772  0.0804 -0.0136  0.0935
  316POPC   C2B 4283   5.601   9.082   6.204  0.3631 -0.1703 -0.1585
  316POPC   C3B 4284   5.432   9.332   6.558 -0.2205  0.0614  0.0494
  316POPC   C4B 4285   5.085   9.142   6.853 -0.0371  0.1166 -0.0349
  317POPC   NC3 4286   3.146   5.929   4.508  0.1050 -0.0099  0.1456
  317POPC   PO4 4287   3.160   5.478   4.466  0.0818  0.0497 -0.1029
  317POPC   GL1 4288   2.920   5.108   4.816  0.0255  0.1172 -0.1784
  317POPC   GL2 4289   2.772   4.886   4.695 -0.1184 -0.0314 -0.0014
  317POPC   C1A 4290   2.660   4.974   5.207 -0.0291  0.1761  0.4549
  317POPC   D2A 4291   2.720   4.953   5.666  0.0746 -0.3353  0.1373
  317POPC   C3A 4292   2.978   4.824   6.001  0.0909  0.2528  0.0530
  317POPC   C4A 4293   3.138   4.917   6.353  0.1497  0.4263 -0.1956
  317POPC   C1B 4294   2.821   4.461   4.867  0.2975  0.1315  0.1743
  317POPC   C2B 4295   2.592   4.136   4.985 -0.2170  0.1113  0.0924
  317POPC   C3B 4296   2.445   3.961   5.381 -0.0339 -0.2592  0.0532
  317POPC   C4B 4297   2.624   3.915   5.747 -0.2539  0.1413 -0.0602
  318POPC   NC3 4298   3.037   5.998   4.958  0.3087 -0.0552 -0.1458
  318POPC   PO4 4299   3.326   5.733   4.934 -0.2331  0.2585 -0.2053
  318POPC   GL1 4300   3.464   5.698   5.353  0.2089 -0.1002  0.1248
  318POPC   GL2 4301   3.338   5.544   5.647  0.2076 -0.1537  0.1119
  318POPC   C1A 4302   3.535   5.901   5.889 -0.1109  0.2700 -0.2423
  318POPC   D2A 4303   3.509   6.322   6.070 -0.3645 -0.0054 -0.0084
  318POPC   C3A 4304   3.350   6.513   6.442  0.0992  0.0100  0.1844
  318POPC   C4A 4305   3.152   6.340   6.774  0.1708  0.0366  0.3151
  318POPC   C1B 4306   3.336   5.543   6.148 -0.1153 -0.2965  0.1147
  318POPC   C2B 4307   3.297   5.378   6.553  0.0797 -0.1281  0.2312
  318POPC   C3B 4308   3.524   5.329   7.003  0.0968 -0.4238  0.0062
  318POPC   C4B 4309   3.823   5.563   7.303  0.1850  0.0873 -0.2521
  319POPC   NC3 4310   7.799   1.595   4.786 -0.3019 -0.0705 -0.2072
  319POPC   PO4 4311   7.579   1.759   5.089  0.0785 -0.0826  0.0230
  319POPC   GL1 4312   7.500   1.835   5.498 -0.0144 -0.0025 -0.1878
  319POPC   GL2 4313   7.725   1.821   5.677 -0.0456  0.1492 -0.0454
  319POPC   C1A 4314   7.202   1.959   5.753 -0.2317  0.0475  0.3264
  319POPC   D2A 4315   7.165   2.259   6.018 -0.1153  0.0257 -0.4828
  319POPC   C3A 4316   6.780   2.140   6.312 -0.1056  0.3268  0.1558
  319POPC   C4A 4317   6.675   1.730   6.549  0.1901  0.1152  0.2414
  319POPC   C1B 4318   7.918   1.786   6.043  0.2188 -0.1366  0.1448
  319POPC   C2B 4319   7.754   1.624   6.386 -0.0391  0.1009  0.0051
  319POPC   C3B 4320   7.714   1.456   6.825  0.0702  0.0396 -0.0916
  319POPC   C4B 4321   7.553   1.083   7.119 -0.0647  0.2100  0.1609
  320POPC   NC3 4322   4.615   6.026   5.157 -0.1681 -0.1941  0.0214
  320POPC   PO4 4323   4.317   6.260   5.262  0.0435 -0.1108  0.1504
  320POPC   GL1 4324   4.313   6.186   5.620 -0.0473 -0.1825 -0.2048
  320POPC   GL2 4325   4.364   5.878   5.707  0.0258  0.1639  0.2357
  320POPC   C1A 4326   3.982   6.144   6.015 -0.0562 -0.1020  0.2417
  320POPC   D2A 4327   3.718   5.970   6.363  0.2675 -0.1880  0.2299
  320POPC   C3A 4328   3.797   6.285   6.757 -0.2167  0.0561  0.2107
  320POPC   C4A 4329   3.673   6.526   7.001 -0.2965  0.2813  0.2661
  320POPC   C1B 4330   4.354   5.519   5.950 -0.1701  0.1280 -0.3746
  320POPC   C2B 4331   4.289   5.466   6.387  0.0275 -0.1458 -0.0272
  320POPC   C3B 4332   4.269   5.054   6.653 -0.4315 -0.2099  0.0060
  320POPC   C4B 4333   4.231   4.764   6.942  0.0018 -0.1434  0.1047
  321POPC   NC3 4334   3.408   4.622   4.057  0.2160 -0.1111 -0.3816
  321POPC   PO4 4335   2.988   4.563   4.200 -0.1304  0.2235  0.0943
  321POPC   GL1 4336   2.587   4.417   4.448 -0.1011 -0.0243  0.1288
  321POPC   GL2 4337   2.281   4.403   4.282  0.0291 -0.1368 -0.0602
  321POPC   C1A 4338   2.316   4.671   4.702  0.3273 -0.2619  0.1321
  321POPC   D2A 4339   2.308   4.499   5.158  0.3823 -0.1519  0.1948
  321POPC   C3A 4340   2.648   4.430   5.385 -0.1368 -0.0643 -0.0881
  321POPC   C4A 4341   2.540   4.518   5.805  0.2073 -0.3596  0.2590
  321POPC   C1B 4342   2.224   4.180   4.706 -0.1352 -0.0111  0.0904
  321POPC   C2B 4343   1.901   4.111   4.945  0.1489  0.2474 -0.3569
  321POPC   C3B 4344   1.572   4.171   5.296  0.3279  0.1948 -0.1765
  321POPC   C4B 4345   1.170   4.465   5.339 -0.0677  0.0035 -0.1511
  322POPC   NC3 4346   4.496   7.677   4.824  0.1859  0.0454 -0.3757
  322POPC   PO4 4347   4.561   7.292   5.059 -0.1810 -0.1067  0.3055
  322POPC   GL1 4348   4.459   7.203   5.414 -0.2382  0.1677 -0.0733
  322POPC   GL2 4349   4.347   7.513   5.628  0.1844  0.2306  0.0023
  322POPC   C1A 4350   4.555   7.032   5.786  0.0392 -0.0560 -0.0823
  322POPC   D2A 4351   4.655   6.810   6.150  0.4155 -0.0032  0.0456
  322POPC   C3A 4352   4.683   6.603   6.451 -0.2182 -0.0006 -0.2251
  322POPC   C4A 4353   4.572   6.291   6.756 -0.2315 -0.0548  0.0212
  322POPC   C1B 4354   4.097   7.501   5.964 -0.0428  0.1827  0.1225
  322POPC   C2B 4355   4.062   7.467   6.497  0.4511  0.2877 -0.1621
  322POPC   C3B 4356   4.006   7.149   6.667 -0.0543  0.1848  0.2242
  322POPC   C4B 4357   3.925   6.965   7.042 -0.0422  0.0016  0.0816
  323POPC   NC3 4358   7.966   4.480   5.200  0.3008  0.0526 -0.0171
  323POPC   PO4 4359   8.326   4.284   5.102 -0.2944  0.1969  0.0612
  323POPC   GL1 4360   8.463   4.519   5.517  0.5035 -0.1031  0.0681
  323POPC   GL2 4361   8.319   4.720   5.657  0.0594 -0.3001  0.1017
  323POPC   C1A 4362   8.668   4.690   5.967 -0.0625  0.0314 -0.0141
  323POPC   D2A 4363   8.483   4.765   6.286 -0.0321  0.2014 -0.0442
  323POPC   C3A 4364   8.703   4.652   6.615  0.0566 -0.2308  0.0033
  323POPC   C4A 4365   8.667   4.365   6.873  0.2169  0.1081 -0.1419
  323POPC   C1B 4366   8.126   4.987   5.939 -0.2225 -0.0171  0.2211
  323POPC   C2B 4367   8.216   5.223   6.338  0.0807  0.0126 -0.0664
  323POPC   C3B 4368   8.495   5.161   6.612 -0.2896 -0.0838  0.2029
  323POPC   C4B 4369   8.846   5.061   6.934  0.3443  0.1016 -0.0195
  324POPC   NC3 4370   9.035   5.168   4.432  0.4000 -0.0026 -0.2599
  324POPC   PO4 4371   9.386   4.978   4.357  0.0220 -0.1023 -0.0273
  324POPC   GL1 4372   9.461   4.718   4.840 -0.1239 -0.0284  0.3602
  324POPC   GL2 4373   9.295   4.506   4.973  0.0503  0.0249 -0.1614
  324POPC   C1A 4374   9.797   4.533   5.244  0.0109  0.1889  0.0830
  324POPC   D2A 4375   9.891   4.050   5.406  0.2201 -0.0786 -0.0029
  324POPC   C3A 4376  10.129   3.817   5.203  0.0903  0.2109  0.0850
  324POPC   C4A 4377  10.236   3.465   4.941  0.0937  0.0382 -0.0476
  324POPC   C1B 4378   9.195   4.614   5.551  0.2931 -0.1012  0.1092
  324POPC   C2B 4379   9.153   4.863   5.868  0.1366 -0.0943  0.0492
  324POPC   C3B 4380   9.034   4.987   6.322  0.1099  0.0798  0.2281
  324POPC   C4B 4381   9.129   5.330   6.560 -0.2149 -0.0936  0.0609
  325POPC   NC3 4382   2.700   0.659   4.417 -0.1124 -0.2492  0.3040
  325POPC   PO4 4383   2.466   0.663   4.089  0.0403 -0.1973  0.1641
  325POPC   GL1 4384   2.285   0.883   4.470 -0.0592 -0.1560  0.0876
  325POPC   GL2 4385   2.413   0.897   4.860  0.0977 -0.2723  0.0668
  325POPC   C1A 4386   1.986   1.013   4.708  0.0214 -0.1089  0.1026
  325POPC   D2A 4387   2.011   1.091   5.067 -0.0834 -0.0026  0.1338
  325POPC   C3A 4388   2.330   1.282   5.284  0.1295  0.0519  0.1143
  325POPC   C4A 4389   2.492   1.675   5.538  0.2978 -0.0677  0.1770
  325POPC   C1B 4390   2.825   1.010   5.135  0.1601 -0.2687  0.0879
  325POPC   C2B 4391   2.791   1.167   5.533  0.0586  0.0373 -0.2749
  325POPC   C3B 4392   2.497   1.323   5.869 -0.3079 -0.2221 -0.0567
  325POPC   C4B 4393   2.404   1.223   6.315 -0.0745  0.0777  0.1112
  326POPC   NC3 4394   1.597   5.227   4.022 -0.0549 -0.0398 -0.0477
  326POPC   PO4 4395   1.516   5.394   4.363  0.1782  0.2290 -0.3152
  326POPC   GL1 4396   1.597   5.376   4.756  0.0818 -0.0907 -0.1826
  326POPC   GL2 4397   1.697   5.670   4.827  0.2729  0.1116 -0.1050
  326POPC   C1A 4398   1.804   5.191   5.077  0.0421  0.1671  0.0694
  326POPC   D2A 4399   1.882   5.251   5.512 -0.0092  0.1373 -0.0832
  326POPC   C3A 4400   1.640   5.012   5.876  0.2095  0.0157  0.1626
  326POPC   C4A 4401   1.274   5.029   6.082 -0.0376  0.2582  0.2047
  326POPC   C1B 4402   1.907   5.754   5.240 -0.1383  0.2082 -0.2989
  326POPC   C2B 4403   1.980   6.202   5.410  0.2611 -0.0880 -0.2137
  326POPC   C3B 4404   1.896   6.675   5.512  0.2979  0.0218  0.0613
  326POPC   C4B 4405   1.854   7.041   5.595 -0.0802  0.1316 -0.1379
  327POPC   NC3 4406   3.379   7.097   4.755  0.0477 -0.0354 -0.1505
  327POPC   PO4 4407   3.605   7.373   4.873 -0.2143  0.0302  0.2057
  327POPC   GL1 4408   3.625   7.512   5.331 -0.1185 -0.0797  0.0812
  327POPC   GL2 4409   3.405   7.499   5.609  0.1992 -0.1971  0.0091
  327POPC   C1A 4410   3.813   7.706   5.672 -0.1977 -0.1026  0.0364
  327POPC   D2A 4411   3.836   7.841   6.276 -0.0098 -0.0273  0.0007
  327POPC   C3A 4412   3.726   7.817   6.700  0.1791 -0.0428  0.1507
  327POPC   C4A 4413   3.373   7.701   6.905  0.0436 -0.0082 -0.2778
  327POPC   C1B 4414   3.543   7.327   5.923  0.1289  0.1591  0.1948
  327POPC   C2B 4415   3.775   7.083   6.173  0.1682 -0.0576  0.1325
  327POPC   C3B 4416   4.138   7.041   6.162  0.0259  0.1171  0.0673
  327POPC   C4B 4417   4.496   7.213   6.347 -0.0533  0.0283 -0.1978
  328POPC   NC3 4418   8.496   7.723   5.128 -0.2007 -0.2675 -0.0594
  328POPC   PO4 4419   8.087   7.525   5.258 -0.0043  0.2567  0.3316
  328POPC   GL1 4420   7.905   7.678   5.659 -0.1598 -0.0932  0.2796
  328POPC   GL2 4421   7.712   7.499   5.782  0.0480 -0.0301  0.1495
  328POPC   C1A 4422   7.987   8.007   5.997  0.1757  0.2057  0.2693
  328POPC   D2A 4423   8.358   8.130   6.028 -0.1032 -0.0726 -0.2711
  328POPC   C3A 4424   8.484   7.906   6.299 -0.2866 -0.3528 -0.0852
  328POPC   C4A 4425   8.743   7.607   6.157 -0.1679  0.0467 -0.1902
  328POPC   C1B 4426   7.260   7.533   5.890 -0.0285  0.3058 -0.1990
  328POPC   C2B 4427   6.947   7.590   6.229  0.3339  0.0929  0.1640
  328POPC   C3B 4428   6.801   7.881   6.589 -0.1711  0.0728 -0.2940
  328POPC   C4B 4429   6.594   8.104   6.807  0.0763  0.0871 -0.0234
  329POPC   NC3 4430   7.446   8.522   5.141  0.0024  0.1440  0.1130
  329POPC   PO4 4431   7.815   8.743   5.180 -0.0559 -0.1957  0.0623
  329POPC   GL1 4432   7.962   8.788   5.571 -0.1197  0.0959 -0.1829
  329POPC   GL2 4433   8.104   8.501   5.826 -0.1078  0.1589  0.0090
  329POPC   C1A 4434   7.963   8.961   6.007  0.0509 -0.0223  0.2581
  329POPC   D2A 4435   7.827   8.946   6.399 -0.0278 -0.1487  0.0280
  329POPC   C3A 4436   7.388   8.632   6.405 -0.0529  0.2494 -0.1941
  329POPC   C4A 4437   6.971   8.368   6.513  0.0399  0.1199  0.1991
  329POPC   C1B 4438   8.182   8.598   6.235 -0.1955 -0.2790 -0.0788
  329POPC   C2B 4439   8.127   8.685   6.654 -0.0151 -0.0399  0.2125
  329POPC   C3B 4440   7.677   8.698   6.842  0.1253 -0.1459  0.0625
  329POPC   C4B 4441   7.277   8.662   6.924  0.0977  0.2078  0.2957
  330POPC   NC3 4442   6.367   5.480   5.172  0.1895  0.3317  0.1649
  330POPC   PO4 4443   6.268   5.677   5.544  0.1507 -0.0613  0.0663
  330POPC   GL1 4444   5.922   5.589   5.813 -0.0139 -0.0975  0.1517
  330POPC   GL2 4445   5.710   5.821   5.947  0.1199  0.1632 -0.2759
  330POPC   C1A 4446   6.015   5.448   6.263 -0.4762  0.1059  0.0943
  330POPC   D2A 4447   5.924   5.681   6.547 -0.2544 -0.0966 -0.2176
  330POPC   C3A 4448   5.699   5.520   6.931 -0.0335 -0.3163  0.2485
  330POPC   C4A 4449   5.791   5.380   7.311 -0.0080 -0.1416 -0.1711
  330POPC   C1B 4450   5.517   5.875   6.370 -0.1275 -0.0264 -0.0085
  330POPC   C2B 4451   5.408   6.047   6.748  0.0605 -0.0894  0.1830
  330POPC   C3B 4452   5.305   6.241   7.233 -0.0470 -0.1546 -0.4041
  330POPC   C4B 4453   5.102   6.629   7.416 -0.1204 -0.3798 -0.2010
  331POPC   NC3 4454   5.551   7.953   4.909 -0.1763  0.1923 -0.1002
  331POPC   PO4 4455   5.586   7.667   4.946 -0.3858  0.1357  0.1127
  331POPC   GL1 4456   5.404   7.803   5.353  0.0348  0.0381 -0.1343
  331POPC   GL2 4457   5.636   7.998   5.401 -0.2787  0.3969 -0.2847
  331POPC   C1A 4458   5.171   7.857   5.683 -0.2837  0.3267 -0.4029
  331POPC   D2A 4459   5.100   7.844   6.140  0.1100 -0.0713 -0.2884
  331POPC   C3A 4460   5.175   8.146   6.414  0.1755 -0.0982  0.5596
  331POPC   C4A 4461   5.402   8.359   6.696 -0.0157 -0.2103 -0.1072
  331POPC   C1B 4462   5.833   7.869   5.615 -0.0166 -0.0776 -0.1079
  331POPC   C2B 4463   5.973   7.915   5.969  0.3653 -0.1097  0.3399
  331POPC   C3B 4464   6.360   7.657   5.957  0.1558  0.0098  0.2854
  331POPC   C4B 4465   6.800   7.843   5.787 -0.2010  0.1443  0.0744
  332POPC   NC3 4466   8.404   2.790   4.738 -0.0993  0.0713 -0.1437
  332POPC   PO4 4467   8.564   2.663   5.160  0.1400 -0.0140 -0.0193
  332POPC   GL1 4468   8.354   2.525   5.626  0.0593 -0.1114 -0.1096
  332POPC   GL2 4469   8.025   2.322   5.650 -0.0680  0.2186 -0.3275
  332POPC   C1A 4470   8.226   2.336   6.088  0.1674 -0.1327  0.0167
  332POPC   D2A 4471   8.384   2.240   6.555 -0.1724 -0.2706 -0.1449
  332POPC   C3A 4472   8.255   2.609   6.901 -0.2212 -0.3149 -0.0115
  332POPC   C4A 4473   8.079   3.052   6.965 -0.0482  0.0968  0.1003
  332POPC   C1B 4474   7.645   2.269   5.919  0.0966  0.0185  0.2207
  332POPC   C2B 4475   7.496   1.991   6.276 -0.3585 -0.1185  0.3872
  332POPC   C3B 4476   7.203   1.907   6.459  0.1241 -0.0440  0.0650
  332POPC   C4B 4477   7.142   1.625   6.725  0.0005 -0.1019 -0.0470
  333POPC   NC3 4478   9.728   3.715   4.245 -0.1693 -0.0460 -0.0315
  333POPC   PO4 4479   9.652   4.040   4.511 -0.0753 -0.0182  0.0097
  333POPC   GL1 4480   9.605   4.030   4.894  0.1797  0.1389 -0.3663
  333POPC   GL2 4481   9.722   3.685   4.901  0.2147  0.1214  0.0735
  333POPC   C1A 4482   9.425   4.141   5.291  0.0995  0.0909  0.4591
  333POPC   D2A 4483   9.139   4.107   5.642  0.1133  0.0224 -0.0189
  333POPC   C3A 4484   9.312   4.228   6.028  0.0488  0.0706 -0.2488
  333POPC   C4A 4485   9.459   4.664   6.145  0.1105  0.3132 -0.0334
  333POPC   C1B 4486   9.638   3.635   5.418 -0.0851  0.1415  0.0007
  333POPC   C2B 4487   9.898   3.621   5.828  0.1363 -0.2574  0.3893
  333POPC   C3B 4488  10.248   3.597   6.051 -0.1820 -0.1927 -0.1881
  333POPC   C4B 4489  10.705   3.512   5.902  0.0064  0.4435  0.0593
  334POPC   NC3 4490   0.037   1.147   3.821 -0.2864  0.1501 -0.0396
  334POPC   PO4 4491   0.128   1.582   3.710  0.0910  0.0737 -0.0193
  334POPC   GL1 4492   0.177   1.665   4.169 -0.3932  0.1038  0.0210
  334POPC   GL2 4493   0.200   1.461   4.419  0.0394  0.4303  0.0237
  334POPC   C1A 4494   0.414   1.897   4.376  0.2485 -0.0627 -0.2014
  334POPC   D2A 4495   0.743   2.171   4.273 -0.2332 -0.0436 -0.0890
  334POPC   C3A 4496   0.989   2.167   3.788  0.1811  0.0229 -0.0615
  334POPC   C4A 4497   1.409   2.133   3.762 -0.0416  0.4276  0.0177
  334POPC   C1B 4498   0.003   1.349   4.820 -0.0853  0.0045  0.2085
  334POPC   C2B 4499  -0.436   1.274   5.061 -0.0735 -0.1461  0.4068
  334POPC   C3B 4500  -0.560   1.487   5.406  0.0391 -0.3213  0.1658
  334POPC   C4B 4501  -0.651   1.679   5.873 -0.0274 -0.1625  0.0992
  335POPC   NC3 4502   6.002   4.831   5.120  0.1957 -0.1016 -0.0716
  335POPC   PO4 4503   5.764   5.271   5.002  0.2224 -0.0692 -0.0048
  335POPC   GL1 4504   5.537   5.321   5.405 -0.3061  0.3310  0.2897
  335POPC   GL2 4505   5.245   5.274   5.456  0.0958 -0.0764  0.0042
  335POPC   C1A 4506   5.702   5.163   5.782  0.0640 -0.3567  0.2278
  335POPC   D2A 4507   5.721   4.996   6.186 -0.1632 -0.0569  0.0976
  335POPC   C3A 4508   5.778   5.078   6.655 -0.0138 -0.1353  0.0012
  335POPC   C4A 4509   5.930   4.838   7.000 -0.3670 -0.1495 -0.2734
  335POPC   C1B 4510   5.304   4.862   5.662 -0.0847 -0.2254  0.2125
  335POPC   C2B 4511   5.676   4.624   5.621  0.1129 -0.1299 -0.2892
  335POPC   C3B 4512   5.875   4.462   6.017  0.0336 -0.0494  0.3688
  335POPC   C4B 4513   5.947   4.519   6.417  0.4667 -0.1430  0.2493
  336POPC   NC3 4514   4.760   8.658   4.581  0.0067  0.3818  0.0001
  336POPC   PO4 4515   4.562   8.482   4.941 -0.0021  0.0111  0.0351
  336POPC   GL1 4516   4.279   8.284   5.338 -0.0904 -0.2855 -0.0328
  336POPC   GL2 4517   4.255   7.977   5.462  0.2086  0.0011  0.1741
  336POPC   C1A 4518   4.277   8.499   5.786  0.1549  0.2875  0.1111
  336POPC   D2A 4519   4.411   8.763   6.001  0.0979  0.2004 -0.4027
  336POPC   C3A 4520   4.571   8.606   6.356 -0.0998  0.0267 -0.1985
  336POPC   C4A 4521   4.741   8.736   6.802  0.1894  0.0603  0.0575
  336POPC   C1B 4522   4.246   8.018   5.924  0.1381 -0.0706 -0.1640
  336POPC   C2B 4523   4.163   8.269   6.322 -0.2003 -0.1645  0.2504
  336POPC   C3B 4524   3.829   8.237   6.540  0.1895  0.1403  0.0967
  336POPC   C4B 4525   3.446   8.220   6.391 -0.2916  0.0238 -0.2230
  337POPC   NC3 4526   5.785   7.220   5.027 -0.0950  0.1081  0.2051
  337POPC   PO4 4527   6.061   7.534   4.771 -0.2580 -0.1413  0.2960
  337POPC   GL1 4528   5.994   7.640   5.199  0.1155  0.3836  0.0056
  337POPC   GL2 4529   6.316   7.450   5.313  0.1582 -0.0806 -0.2540
  337POPC   C1A 4530   5.905   7.430   5.682  0.0734  0.0070 -0.3864
  337POPC   D2A 4531   5.961   7.327   6.100  0.1248  0.5519  0.1171
  337POPC   C3A 4532   5.803   7.554   6.451  0.3467  0.2996 -0.1655
  337POPC   C4A 4533   5.692   8.047   6.462  0.0695  0.3199  0.0012
  337POPC   C1B 4534   6.340   7.846   5.493  0.0582 -0.1066 -0.4958
  337POPC   C2B 4535   6.387   8.215   5.737  0.0002 -0.1735  0.0836
  337POPC   C3B 4536   6.717   8.520   5.848  0.4080  0.5126  0.1728
  337POPC   C4B 4537   6.996   8.709   6.142  0.2314 -0.0787 -0.2028
  338W        W 4538   7.262   5.255  13.037  0.1816  0.2135  0.0911
  339W        W 4539   6.039   6.769   1.104  0.0163 -0.0750 -0.4525
  340W        W 4540   4.815   3.339  12.926 -0.2280  0.1656 -0.1854
  341W        W 4541   5.753   4.399   9.120 -0.2613 -0.0448 -0.2679
  342W        W 4542   0.963   3.909   1.350  0.0594  0.1378 -0.0093
  343W        W 4543   2.932   4.443   3.018  0.0172  0.1171 -0.2234
  344W        W 4544   4.173   8.727   0.490 -0.2195  0.4915  0.1330
  345W        W 4545   7.068   3.865   4.050 -0.1597  0.2216 -0.0399
  346W        W 4546  10.268   8.540   0.952  0.0222 -0.5089 -0.1746
  347W        W 4547   8.142   4.076  11.420 -0.1054  0.0117 -0.1687
  348W        W 4548   1.483   7.605  10.949 -0.1851 -0.0597 -0.0804
  349W        W 4549   5.788   6.967  10.786 -0.1647  0.0982  0.1561
  350W        W 4550   3.332   9.000  11.035 -0.2245  0.0667  0.2065
  351W        W 4551   5.316   5.802  11.159  0.0131  0.0168 -0.0702
  352W        W 4552   6.730   3.574  12.353 -0.1603 -0.0604 -0.1715
  353W        W 4553   8.891   4.925   1.416 -0.0636 -0.1082 -0.1895
  354W        W 4554   9.674   3.903  11.251 -0.3538  0.1461  0.3158
  355W        W 4555   2.394   5.079   2.888  0.0198 -0.2300  0.0841
  356W        W 4556   2.172   9.216   0.744 -0.2638 -0.0354 -0.2437
  357W        W 4557   0.695   2.261   1.919  0.2126  0.2132 -0.2296
  358W        W 4558   4.689   0.038   9.343 -0.0093  0.1191 -0.3756
  359W        W 4559   3.214   5.026  12.894 -0.2628  0.0781 -0.0072
  360W        W 4560   3.046   7.150  11.186  0.2270  0.0975  0.0191
  361W        W 4561   3.420   6.158  10.929 -0.2163  0.2451  0.0798
  362W        W 4562   8.926   0.162  13.128 -0.2122 -0.0214 -0.3324
  363W        W 4563   2.181   6.724   0.753 -0.0052 -0.0979  0.0095
  364W        W 4564   4.862   7.166   1.417 -0.0131  0.0924 -0.1586
  365W        W 4565   0.429   4.473  10.810 -0.3250 -0.0720  0.0310
  366W        W 4566   6.799   2.492  12.560 -0.0416 -0.1685 -0.4174
  367W        W 4567   5.322   5.804   1.808 -0.2726  0.1073 -0.6575
  368W        W 4568   7.307   0.370   0.867 -0.0395  0.0959  0.3616
  369W        W 4569   4.634   0.044   0.601 -0.1585  0.1696  0.0583
  370W        W 4570   8.824   2.486   2.277 -0.3001  0.1622  0.0505
  371W        W 4571   9.199   2.024   2.707  0.1043  0.2061  0.0013
  372W        W 4572   5.937   3.078   4.228  0.0114  0.0015  0.1379
  373W        W 4573   6.925   2.381  11.174 -0.1712  0.1613  0.2917
  374W        W 4574   7.754   6.864   9.225  0.1600  0.0555  0.1987
  375W        W 4575   3.375   7.899  10.610 -0.0950 -0.1146  0.2316
  376W        W 4576   4.018   6.475   4.922  0.3720  0.1455 -0.3226
  377W        W 4577   8.145   1.030  12.521  0.4713  0.1701 -0.0809
  378W        W 4578   3.962   9.257   8.641 -0.1313 -0.0776 -0.0189
  379W        W 4579   9.543   5.077  12.519  0.2433  0.0179  0.1529
  380W        W 4580   4.646   6.382  11.100  0.1502  0.1087 -0.2008
  381W        W 4581   7.584   7.106  11.042  0.1684 -0.2049  0.0864
  382W        W 4582   0.066   0.808   1.277 -0.1574 -0.1522  0.0388
  383W        W 4583   2.726   6.666   4.472  0.3242  0.0047  0.2436
  384W        W 4584   7.997   0.169   2.201 -0.0706 -0.0277  0.1957
  385W        W 4585   3.507   6.923  10.377  0.4002 -0.1970  0.0530
  386W        W 4586   4.381   2.684  12.762 -0.0461 -0.0757 -0.0366
  387W        W 4587   9.860   3.715   3.017 -0.0110  0.1933 -0.1070
  388W        W 4588   5.282   6.890  13.283 -0.0104 -0.2595  0.1372
  389W        W 4589   4.932   6.034  11.513 -0.0015 -0.1665 -0.0475
  390W        W 4590   5.655   9.806   0.232  0.0970  0.1082 -0.0659
  391W        W 4591   0.524   9.123   1.393  0.0088  0.0680 -0.1150
  392W        W 4592   9.105   9.966   0.210  0.1046 -0.1480 -0.5797
  393W        W 4593   0.122   1.549   0.657  0.2029 -0.1239  0.3089
  394W        W 4594   7.117   4.570   9.716 -0.1143 -0.2537  0.0756
  395W        W 4595   9.063   0.942  12.187  0.2043 -0.1016 -0.1383
  396W        W 4596   5.570   4.785   3.217 -0.2911 -0.1572 -0.1200
  397W        W 4597   8.389   8.522  11.109 -0.0700  0.0571  0.0594
  398W        W 4598  10.213   2.156  13.170  0.0325  0.3821 -0.0298
  399W        W 4599   5.644   6.719  11.231 -0.5962  0.0901  0.0080
  400W        W 4600  10.041   8.701   0.346  0.2722  0.1913 -0.1094
  401W        W 4601   5.349   2.504  11.124  0.1488 -0.4056  0.5744
  402W        W 4602   9.909   9.615   8.683  0.4219  0.1182  0.2595
  403W        W 4603  10.334   2.027   0.597 -0.2555  0.0265 -0.2354
  404W        W 4604   1.477   4.205   2.043  0.1183  0.3017  0.2044
  405W        W 4605   6.462   7.149   3.939 -0.1959  0.0410 -0.0494
  406W        W 4606   5.901   2.030   2.969 -0.2965  0.1459 -0.2142
  407W        W 4607   3.497   8.864   1.158 -0.0795 -0.1517 -0.0145
  408W        W 4608   1.800   1.782   1.712  0.0839  0.1685  0.1838
  409W        W 4609   6.287  10.284   2.196 -0.0899 -0.2622 -0.0296
  410W        W 4610   8.060   9.089  11.741  0.1083  0.1535 -0.1500
  411W        W 4611   8.369   3.176   9.209  0.1509  0.0841  0.2521
  412W        W 4612   6.397   1.493  11.729 -0.1342  0.0794  0.2504
  413W        W 4613   9.573   8.572   1.730 -0.0206  0.0783 -0.1715
  414W        W 4614   6.777   3.652  13.351 -0.0542 -0.0946  0.1916
  415W        W 4615   6.964   0.036  13.296 -0.3483 -0.1234 -0.2637
  416W        W 4616   4.141   6.156   9.419  0.1606  0.1996  0.3021
  417W        W 4617   1.640   2.855   8.261  0.0582  0.0134  0.3154
  418W        W 4618   2.269   8.341   2.906  0.0836  0.0909 -0.0370
  419W        W 4619   2.156   7.197  10.204  0.1635  0.0610 -0.2181
  420W        W 4620  10.307   8.649  11.731 -0.1171 -0.0892 -0.0171
  421W        W 4621   7.610   4.807  11.301  0.0690  0.1453  0.2172
  422W        W 4622   7.934   0.441   0.901  0.1266  0.2814  0.0501
  423W        W 4623   8.243   5.826  12.079  0.0713 -0.1448  0.0606
  424W        W 4624   0.385   3.142  12.634  0.2384  0.3981 -0.0940
  425W        W 4625   2.942   4.317   0.568  0.3765 -0.2015 -0.3214
  426W        W 4626   0.432   8.096  12.669  0.3708 -0.1237  0.3595
  427W        W 4627   0.356   9.389  11.817 -0.2132 -0.0542 -0.2452
  428W        W 4628   7.853   6.644  12.677 -0.2286  0.0308 -0.1397
  429W        W 4629   2.768   5.374  11.215 -0.0636  0.3374 -0.2196
  430W        W 4630   2.423   5.643  10.329  0.3376 -0.1576  0.0331
  431W        W 4631   8.192  10.202   9.382 -0.0826 -0.0998  0.0415
  432W        W 4632   1.089   6.890  13.238 -0.2263  0.0319 -0.0050
  433W        W 4633   3.266   3.754  10.061  0.0592 -0.0463 -0.0905
  434W        W 4634   3.826   9.468   4.573  0.1328  0.1045 -0.2254
  435W        W 4635   2.767   2.702  11.831 -0.1255 -0.2771  0.3366
  436W        W 4636   6.161   4.251  12.135 -0.1602 -0.1236 -0.0848
  437W        W 4637   5.752   4.670   0.217  0.1371 -0.1650  0.2390
  438W        W 4638  10.118   1.537  11.947  0.0458  0.0029  0.1645
  439W        W 4639   2.018   0.512   4.182  0.2932 -0.0778 -0.1984
  440W        W 4640   9.180   1.542  10.512 -0.4203  0.0785 -0.0765
  441W        W 4641   1.273   7.117   9.939  0.0504  0.0961 -0.0656
  442W        W 4642   2.402   2.748  12.176  0.1307  0.1545 -0.0342
  443W        W 4643   8.145   9.183  11.217  0.0319 -0.1894  0.0386
  444W        W 4644   6.432   0.164   1.460  0.3118 -0.0334 -0.4068
  445W        W 4645   6.883   7.672  11.273  0.1247  0.0587  0.5717
  446W        W 4646   3.262   5.506  12.692 -0.1863  0.1565 -0.0856
  447W        W 4647   6.910   4.946   0.845 -0.3745 -0.1828  0.0955
  448W        W 4648   6.099   0.971  12.819 -0.1042 -0.0500 -0.1978
  449W        W 4649   6.109   4.919   4.647 -0.0408 -0.1882 -0.3204
  450W        W 4650   7.455   1.370   2.640  0.1952  0.0361  0.2843
  451W        W 4651   8.143   8.863  10.746  0.0077  0.2586  0.0003
  452W        W 4652   5.397   9.984   4.645  0.0044  0.1547  0.1230
  453W        W 4653   9.477   7.220  10.446  0.0492 -0.1011 -0.0120
  454W        W 4654   8.706   6.544  10.400 -0.3230  0.1492 -0.1211
  455W        W 4655   8.481   6.201   2.480  0.6852  0.3604  0.1267
  456W        W 4656   7.015   1.582   5.106 -0.1348 -0.3045  0.0480
  457W        W 4657   1.584   5.207   1.506  0.1991 -0.0633 -0.1304
  458W        W 4658   1.343   2.087   0.457  0.0982  0.0070  0.0007
  459W        W 4659   5.612   3.551  12.652 -0.0689  0.0305  0.2968
  460W        W 4660   4.656   9.121   5.702 -0.1376  0.3558  0.0477
  461W        W 4661   7.606   2.098   1.247  0.3775  0.1079 -0.0144
  462W        W 4662   9.628   2.794   4.667  0.1483 -0.1199  0.3923
  463W        W 4663   5.522   5.909  10.717 -0.1715  0.0831 -0.2542
  464W        W 4664   8.218  10.411  11.028 -0.1591 -0.0970  0.1686
  465W        W 4665   9.149   1.007  12.809  0.3190  0.1692 -0.0368
  466W        W 4666   7.429   2.392   4.136  0.1241 -0.2468 -0.1316
  467W        W 4667   7.662   8.730   1.665  0.0457  0.0279 -0.3957
  468W        W 4668   5.842   1.555   2.716 -0.1556 -0.1108 -0.2577
  469W        W 4669   8.230   2.482  12.997  0.2321  0.4174  0.1037
  470W        W 4670   1.538   1.814   3.171  0.1078  0.0198  0.0477
  471W        W 4671   2.682   2.776  11.300  0.2921 -0.0253 -0.0976
  472W        W 4672  10.333  10.152   3.640  0.0618 -0.3131  0.4989
  473W        W 4673   4.874   4.054   2.794 -0.2891 -0.0787  0.2082
  474W        W 4674   1.864   3.145  12.316 -0.5681  0.2001  0.0371
  475W        W 4675   2.890   2.447  13.412 -0.1305  0.0216 -0.0538
  476W        W 4676   5.730   4.218   1.511 -0.0317  0.0065  0.1440
  477W        W 4677   4.792   1.738   9.797 -0.0716 -0.0228  0.1212
  478W        W 4678   1.118   7.843   4.398  0.3179 -0.0863 -0.0722
  479W        W 4679   1.078   6.939   1.739 -0.0772  0.0201 -0.1791
  480W        W 4680   9.996  10.228   2.767  0.0516  0.4776  0.1529
  481W        W 4681   8.561   8.720   3.261 -0.0291  0.0501  0.0571
  482W        W 4682   8.418   3.354  12.192 -0.0885 -0.3727 -0.1699
  483W        W 4683   2.513   1.699  11.345 -0.4027  0.0878 -0.0652
  484W        W 4684   6.513  10.394  13.555  0.0768 -0.1545  0.3793
  485W        W 4685   0.569   0.610   2.812  0.0793  0.0866 -0.0448
  486W        W 4686   6.098   0.495   5.536  0.3780  0.3441  0.0034
  487W        W 4687   1.489   2.739  12.062 -0.2907 -0.0451 -0.1468
  488W        W 4688   3.913   7.763   4.597 -0.1429 -0.0367 -0.1024
  489W        W 4689   0.945   0.328   0.588  0.0302  0.3162  0.1364
  490W        W 4690   4.859   6.486   2.052 -0.0185  0.0734  0.0283
  491W        W 4691   5.438   0.670  12.147 -0.1317 -0.1369  0.1047
  492W        W 4692   8.684   6.892  10.820 -0.1018  0.0087  0.3435
  493W        W 4693  10.434   5.530   2.213  0.1963  0.0892 -0.0011
  494W        W 4694   3.907   0.580   4.920  0.3918  0.2629  0.1714
  495W        W 4695   6.074   9.398  12.628 -0.0426  0.2524 -0.2883
  496W        W 4696   8.685   5.249   2.346 -0.3595 -0.4295 -0.2412
  497W        W 4697   2.281   4.924   0.910  0.1820  0.1274  0.1070
  498W        W 4698   2.137   9.029   9.938 -0.1109  0.2236  0.1580
  499W        W 4699   5.713   9.833  10.106  0.2092  0.0698  0.0139
  500W        W 4700   5.320   1.527   1.917 -0.2194  0.0054 -0.0321
  501W        W 4701   3.865   9.020   3.408  0.2055  0.0045  0.2278
  502W        W 4702   9.419   4.568   2.497  0.2121 -0.1224  0.2232
  503W        W 4703   3.924   1.171   2.539  0.1717 -0.4543 -0.2171
  504W        W 4704   5.948   4.312   1.881 -0.1451  0.1621 -0.1811
  505W        W 4705   4.100   7.567   1.888  0.1981 -0.0652  0.0646
  506W        W 4706   1.483   7.490   3.615  0.0904 -0.1976 -0.0999
  507W        W 4707   3.656   5.039   4.476  0.1478 -0.0476  0.2958
  508W        W 4708   5.548   2.093   2.541  0.0182 -0.0912 -0.0107
  509W        W 4709   0.711   6.627   4.299  0.4747 -0.0220 -0.1723
  510W        W 4710  10.014   0.571   3.203 -0.0692 -0.0560 -0.0231
  511W        W 4711   4.659  10.102   3.424 -0.1658  0.0657 -0.1403
  512W        W 4712   8.999   3.911  12.252 -0.1441 -0.2422 -0.0639
  513W        W 4713   6.967   9.715  11.078  0.0487 -0.3268 -0.2507
  514W        W 4714   0.586   6.674  12.527 -0.2523  0.0645  0.1498
  515W        W 4715   9.097   0.547   2.777  0.0320  0.0081  0.0340
  516W        W 4716   2.585   7.182   2.696 -0.0107 -0.2960  0.0532
  517W        W 4717   4.112   7.320   4.703 -0.0613  0.2640  0.0652
  518W        W 4718   8.875   0.344   1.664  0.1780 -0.0607 -0.0656
  519W        W 4719   7.279   1.797  12.796 -0.0608 -0.2927  0.0128
  520W        W 4720  10.198   4.204   2.302  0.2623  0.1614  0.3067
  521W        W 4721   7.762   9.658   0.108  0.0681  0.0168 -0.0127
  522W        W 4722   1.950   1.111   1.148  0.2209  0.4040 -0.2807
  523W        W 4723   5.463   0.469   3.442 -0.1193 -0.0763 -0.0196
  524W        W 4724  10.293   1.091   0.540 -0.3535 -0.0472  0.0225
  525W        W 4725   9.227   0.525  13.503 -0.2690 -0.3263  0.0351
  526W        W 4726   5.376   9.850   4.116 -0.2126 -0.2199  0.2015
  527W        W 4727   0.871  10.270   9.678 -0.1292 -0.0716  0.0139
  528W        W 4728   0.563   8.441   4.353  0.1907 -0.1125  0.1681
  529W        W 4729   5.392   1.138   4.068  0.2363 -0.0900  0.2549
  530W        W 4730   1.522   6.474  13.140  0.1554 -0.1750 -0.0228
  531W        W 4731   5.947   9.673  13.058 -0.3172 -0.0623 -0.0178
  532W        W 4732   0.517   8.717   9.103 -0.0414 -0.0677 -0.3256
  533W        W 4733   9.484   9.033   4.317 -0.2291  0.0088  0.1589
  534W        W 4734   0.142   9.220   3.386  0.0480  0.0833 -0.3369
  535W        W 4735   8.634   9.277   2.617 -0.2602  0.0496  0.1745
  536W        W 4736   4.034   6.668   0.708 -0.0298 -0.1772  0.0933
  537W        W 4737   6.075   4.533  10.604 -0.0997 -0.0783 -0.0959
  538W        W 4738   6.420   1.187   9.277  0.2219  0.2010 -0.2496
  539W        W 4739   1.474   7.989   1.777  0.1623 -0.0638  0.0008
  540W        W 4740   6.221   6.088   9.679 -0.0604  0.2520 -0.0975
  541W        W 4741   8.053   6.204   3.138  0.1089  0.3207 -0.0226
  542W        W 4742   3.225   0.227  10.778 -0.2621  0.2351 -0.1390
  543W        W 4743   6.442   3.002  13.285 -0.1873 -0.0515  0.0965
  544W        W 4744   2.959   9.642   1.573  0.0951 -0.1892 -0.2076
  545W        W 4745  10.205   0.661   4.756 -0.0735 -0.1068  0.1796
  546W        W 4746   8.920   2.722   4.439  0.1857  0.0607  0.1163
  547W        W 4747   4.059   2.992  12.439  0.0095 -0.2548 -0.1110
  548W        W 4748   9.365   4.857   9.969 -0.5608  0.0479 -0.1217
  549W        W 4749   3.067   7.120   2.560  0.2694 -0.1059 -0.0699
  550W        W 4750   4.490   4.224   9.605  0.0373 -0.3109  0.0014
  551W        W 4751   2.261   1.071   9.120  0.0638 -0.1015  0.1003
  552W        W 4752   9.990   5.129  13.420 -0.0398  0.0093  0.2972
  553W        W 4753   1.405   1.553   2.637 -0.2225  0.1035 -0.1569
  554W        W 4754   7.183   3.600  11.204 -0.0552 -0.0894  0.3732
  555W        W 4755   5.026   3.768  10.490 -0.1448 -0.0618 -0.1634
  556W        W 4756  10.084   1.641   1.273  0.0722  0.3156  0.3201
  557W        W 4757   4.724   6.963   2.208  0.1914  0.4206  0.1944
  558W        W 4758   7.243   7.693  12.357  0.4665 -0.0212  0.2034
  559W        W 4759   3.758   6.624   3.002  0.2674 -0.1392 -0.0103
  560W        W 4760   1.469   5.776   0.673  0.0132 -0.2465 -0.1471
  561W        W 4761   1.268   2.472   0.129 -0.0064 -0.0118 -0.0628
  562W        W 4762   8.327   0.932   2.213 -0.0520 -0.0753 -0.2581
  563W        W 4763   1.471   6.144   4.152  0.1105 -0.0617 -0.4281
  564W        W 4764   2.782   9.524   3.729 -0.3387 -0.0422 -0.3102
  565W        W 4765   2.361   9.204   1.229 -0.0447 -0.1761  0.0780
  566W        W 4766   5.295  10.173   1.814  0.0849  0.2408  0.1615
  567W        W 4767   8.933  10.231  13.434  0.0558  0.1109  0.1226
  568W        W 4768   1.157   9.842   1.534  0.1543  0.0644 -0.1003
  569W        W 4769   7.521   2.032  10.030 -0.2791 -0.0941  0.0677
  570W        W 4770   9.219   1.577   0.762  0.0698 -0.1324  0.1186
  571W        W 4771   2.722  10.106   1.773  0.1728 -0.1072 -0.2266
  572W        W 4772   4.451   4.940   0.378  0.1656 -0.1601  0.0491
  573W        W 4773   3.476   1.464  10.324 -0.0828 -0.0463 -0.1147
  574W        W 4774   5.773   7.700   3.440 -0.0723  0.0572 -0.2046
  575W        W 4775   7.793   9.938  10.508 -0.1354  0.1956  0.1679
  576W        W 4776   2.248   9.233   2.036  0.0376  0.1545 -0.1811
  577W        W 4777   9.444   7.921   5.004 -0.1284 -0.0763  0.0009
  578W        W 4778   6.712   2.158  11.611 -0.0876  0.0055  0.0906
  579W        W 4779   4.111   8.170  11.390  0.2366 -0.2066 -0.1891
  580W        W 4780   5.137   2.797   9.882  0.1832 -0.0553 -0.1467
  581W        W 4781   6.830   2.445   9.619  0.1616 -0.1034 -0.4411
  582W        W 4782   6.581   7.304   1.565  0.0742  0.0027  0.0174
  583W        W 4783   7.339   0.650   1.896  0.1556  0.0179  0.1413
  584W        W 4784   0.417   1.573  11.990 -0.0693  0.2166  0.1791
  585W        W 4785   6.118   2.062   8.554 -0.0805 -0.2021  0.0252
  586W        W 4786   8.516   7.612   4.641 -0.3178 -0.2405 -0.0175
  587W        W 4787   7.387   1.226   1.169  0.0130  0.3191  0.1419
  588W        W 4788  10.329   7.572   3.606 -0.0232 -0.0098  0.0405
  589W        W 4789   3.482   8.415  10.862 -0.1373  0.1666  0.0843
  590W        W 4790   4.654   9.026   3.919  0.3491 -0.0490  0.3286
  591W        W 4791   9.336   8.286   0.008 -0.1453  0.0071 -0.1248
  592W        W 4792   7.626   1.485   3.718 -0.0950  0.0743 -0.0757
  593W        W 4793   3.453   2.706  12.283  0.3194 -0.3889  0.0955
  594W        W 4794   5.168   8.361  13.269 -0.2449  0.1493  0.0686
  595W        W 4795   9.533   0.887  11.203 -0.2401  0.2477  0.1549
  596W        W 4796   3.628   6.085  10.387  0.1070 -0.2532 -0.1658
  597W        W 4797   8.836   7.083  12.067  0.3444 -0.2311  0.1999
  598W        W 4798   7.567   8.388  11.482  0.1956 -0.3349  0.1114
  599W        W 4799   8.257   5.305   3.932  0.0637  0.2758 -0.0680
  600W        W 4800   4.019   4.500   2.012  0.0647  0.1299  0.2095
  601W        W 4801   4.076   7.425   0.617  0.1738 -0.0172 -0.1648
  602W        W 4802   0.680   0.885   0.604 -0.2664  0.0020  0.1161
  603W        W 4803   5.095   5.988   4.311  0.0278  0.0295  0.1441
  604W        W 4804   1.203   3.750  13.149 -0.0045 -0.0863  0.0088
  605W        W 4805   2.771   1.382   1.386 -0.1587  0.0068 -0.0798
  606W        W 4806   0.088   6.677  12.327  0.0512 -0.1308 -0.3619
  607W        W 4807   3.802   9.795  10.206  0.0194 -0.0154 -0.3489
  608W        W 4808   4.788   3.468   4.105  0.1669 -0.2027 -0.2590
  609W        W 4809   1.687   4.214  13.228  0.0901  0.1718  0.2366
  610W        W 4810   8.677   9.687   8.805  0.2689  0.0097  0.0184
  611W        W 4811   1.264   4.541  13.496 -0.1660  0.0466 -0.0724
  612W        W 4812  10.337   5.191   9.666  0.3312 -0.1538 -0.0569
  613W        W 4813   0.043   9.531  11.387  0.0063 -0.0739 -0.2827
  614W        W 4814   7.947   2.386   4.204 -0.2935  0.0574 -0.0534
  615W        W 4815   7.916   3.243  11.854 -0.1109  0.3547  0.1488
  616W        W 4816   0.953   6.679   2.992  0.1283 -0.3148 -0.3004
  617W        W 4817   1.495   5.270  11.094  0.2219  0.0270 -0.1860
  618W        W 4818   5.738   4.132   2.458 -0.0537  0.0692 -0.2104
  619W        W 4819   9.128   7.060   4.373  0.0727 -0.2024 -0.1364
  620W        W 4820   4.356   7.733   0.144 -0.2038 -0.2066  0.0433
  621W        W 4821   5.976   7.551  11.363  0.2871  0.1677 -0.0839
  622W        W 4822   0.101   5.995   0.238 -0.1333  0.1828 -0.1019
  623W        W 4823   9.092   4.693  13.422  0.1883  0.5047 -0.1903
  624W        W 4824   7.836   5.069  10.201 -0.1218 -0.1437  0.4473
  625W        W 4825   4.581   3.683  13.209 -0.1450 -0.0693  0.1334
  626W        W 4826   6.013   8.726   2.602 -0.1961  0.2532 -0.2054
  627W        W 4827   6.307   4.091  13.546  0.4193 -0.0968 -0.4585
  628W        W 4828   1.290  10.348   3.611 -0.1589 -0.0007 -0.1758
  629W        W 4829   2.331   2.974  13.215 -0.0259  0.0342 -0.3508
  630W        W 4830   0.002   3.279  10.497 -0.1869 -0.3347  0.2745
  631W        W 4831   0.784   3.015  13.139 -0.0035 -0.0485 -0.2668
  632W        W 4832  10.027   3.760   0.244  0.0505  0.0252 -0.1721
  633W        W 4833   4.232   1.810  11.079 -0.1002 -0.2802 -0.0600
  634W        W 4834   0.709   1.531   0.463 -0.0843 -0.5170  0.0431
  635W        W 4835   6.098  10.216  10.102 -0.0291  0.4185 -0.1169
  636W        W 4836   5.606   9.810   9.218 -0.1778  0.2948 -0.0767
  637W        W 4837   3.809   1.019  13.063 -0.1943  0.3372  0.3710
  638W        W 4838   1.248   4.898   2.757  0.1010 -0.1221  0.1105
  639W        W 4839   2.087   9.805   8.805  0.1581  0.0556 -0.3031
  640W        W 4840   7.390   8.812   9.484 -0.2186  0.0079  0.0406
  641W        W 4841   2.402   4.907  13.054  0.0738  0.1308  0.2345
  642W        W 4842   4.222   0.981  11.659  0.0875 -0.2390  0.0832
  643W        W 4843   0.363   7.158   2.517 -0.1125 -0.1488  0.0937
  644W        W 4844   2.758   4.422   1.794  0.1091  0.1855  0.3077
  645W        W 4845   9.638   9.216  13.310 -0.3642  0.2623  0.0858
  646W        W 4846   6.889  10.063   0.257 -0.3101  0.2963 -0.0915
  647W        W 4847   4.815   7.932   1.440 -0.2612 -0.0199  0.0660
  648W        W 4848   3.469   1.142  12.597 -0.3811  0.0982 -0.1061
  649W        W 4849   9.463   7.698  12.487 -0.1547  0.0495  0.0619
  650W        W 4850   5.063   7.192   2.552 -0.1350 -0.0229  0.2784
  651W        W 4851   5.954   9.978   9.605 -0.1249 -0.0047 -0.3258
  652W        W 4852   2.009  10.014  10.062  0.0002  0.0580  0.0727
  653W        W 4853   0.124   6.545   1.056  0.3159 -0.1989 -0.1902
  654W        W 4854   4.202   9.529   8.997 -0.1293 -0.2814 -0.0525
  655W        W 4855  10.111   1.873  11.559 -0.0369  0.0930 -0.0191
  656W        W 4856   3.965   2.486  12.455 -0.1865 -0.2075 -0.2620
  657W        W 4857   8.454   4.530  12.644 -0.0817  0.0274 -0.0426
  658W        W 4858   8.379   3.046   1.723  0.1064  0.0789  0.1347
  659W        W 4859   3.682   8.711  12.695  0.1082  0.2873  0.0647
  660W        W 4860   1.494   8.169  10.768 -0.0373  0.1346  0.1124
  661W        W 4861   3.811   0.324   0.384 -0.1407 -0.2807  0.0496
  662W        W 4862   6.474   6.984   3.460  0.1017 -0.1580 -0.1324
  663W        W 4863   6.938   1.961   9.162 -0.0439 -0.0854  0.0971
  664W        W 4864  10.192   3.730  10.221  0.0238 -0.1487 -0.1234
  665W        W 4865   1.443   5.939  13.071 -0.1262  0.2086  0.1499
  666W        W 4866   3.843   9.160  13.363 -0.0836 -0.1254 -0.1543
  667W        W 4867   5.938   9.273  12.093 -0.2416  0.2581 -0.0394
  668W        W 4868   3.301   4.514  13.080 -0.1749 -0.0371  0.2016
  669W        W 4869   8.808  10.337  12.480  0.0341 -0.3255  0.0695
  670W        W 4870   0.404  10.069   9.702  0.2032 -0.0209 -0.2364
  671W        W 4871  10.167   6.099   1.855  0.1817  0.0527 -0.1401
  672W        W 4872   6.296   1.716  10.670 -0.0295  0.2489  0.1533
  673W        W 4873   4.225   3.640  10.383 -0.0726 -0.0042 -0.2815
  674W        W 4874   5.779   1.314  13.476  0.1566  0.0976  0.1186
  675W        W 4875   6.206   6.740  11.634  0.1995 -0.3967  0.1683
  676W        W 4876   1.246   4.195   0.544  0.0475  0.2117  0.0218
  677W        W 4877   7.929   4.021  10.029  0.1578 -0.1507 -0.0083
  678W        W 4878   6.645   8.907   1.809 -0.2626 -0.3211  0.0958
  679W        W 4879   4.225  10.306   5.511  0.0694  0.0073 -0.0386
  680W        W 4880   0.461   8.903  12.952  0.3458  0.0927  0.1103
  681W        W 4881   0.576   1.000  12.796 -0.1600 -0.1553  0.0739
  682W        W 4882   5.858   0.835   3.219 -0.1476 -0.3161 -0.0988
  683W        W 4883   8.353   6.467   3.946 -0.0516  0.0567  0.5725
  684W        W 4884   5.208   0.507  13.059  0.0826  0.1250  0.1035
  685W        W 4885   8.847   3.099   3.846  0.1660 -0.1219 -0.1217
  686W        W 4886   5.920   1.233   3.643 -0.4025 -0.1099  0.0417
  687W        W 4887   5.917   5.387   4.437 -0.1759  0.0914  0.3133
  688W        W 4888  10.045   1.165   4.538 -0.2444  0.2592  0.3029
  689W        W 4889   7.478   6.858   2.206  0.0583  0.0146  0.5052
  690W        W 4890   0.918   1.558   1.015  0.2139 -0.0625 -0.2533
  691W        W 4891   4.404   7.037   1.252  0.1291  0.1228  0.1042
  692W        W 4892   4.642   8.463  13.446  0.3219 -0.0635 -0.1124
  693W        W 4893   5.617   4.388   2.968  0.1189  0.1567 -0.1788
  694W        W 4894   8.740   9.758   1.117 -0.0611 -0.5667  0.0186
  695W        W 4895   0.347   5.473   2.977  0.0974  0.0876 -0.1137
  696W        W 4896   5.300   1.750   9.172  0.0521 -0.0859  0.1625
  697W        W 4897   9.449   8.702   0.337  0.1002 -0.4306  0.1270
  698W        W 4898   0.474   8.142   9.949  0.2120  0.0401 -0.2333
  699W        W 4899   5.109   6.653   3.555 -0.1091  0.2211  0.1031
  700W        W 4900   4.902   0.442  10.560  0.2912 -0.1889  0.0760
  701W        W 4901   3.751   9.145   0.787  0.2907  0.0505 -0.0461
  702W        W 4902   1.086   4.067   2.736 -0.0601 -0.1184  0.2505
  703W        W 4903  10.268   9.390   4.390 -0.0010  0.0684  0.0427
  704W        W 4904   7.163   8.029   1.631  0.0587  0.0746 -0.3404
  705W        W 4905   7.666   2.432   3.216 -0.1290 -0.0221 -0.3407
  706W        W 4906   1.304   5.821   4.524 -0.1692 -0.0453  0.2113
  707W        W 4907   6.100   6.362  13.064  0.0520 -0.0426  0.1833
  708W        W 4908   8.892   3.753  12.956  0.0855  0.2897 -0.0925
  709W        W 4909   5.073   8.817   1.366  0.3229 -0.1562  0.1891
  710W        W 4910   0.625   6.094  11.540  0.3899 -0.0156 -0.0840
  711W        W 4911   6.164   1.669   3.817 -0.1981  0.0790 -0.1382
  712W        W 4912   3.264   2.466  11.908  0.0163  0.3170  0.2133
  713W        W 4913   4.280   6.495   2.864 -0.1123  0.1294 -0.2988
  714W        W 4914   6.402   9.824   9.496  0.0038  0.0718  0.1102
  715W        W 4915   5.796   3.128   9.287 -0.1263 -0.1027  0.2647
  716W        W 4916   2.425   9.625   0.912 -0.1831  0.2409 -0.0229
  717W        W 4917   8.625   0.095  11.859  0.1398 -0.0912  0.3904
  718W        W 4918   3.030   8.607   1.707 -0.2773  0.2370  0.0939
  719W        W 4919   8.605   0.379  12.855 -0.0772 -0.0511  0.0422
  720W        W 4920   9.228   4.519  12.381  0.0685  0.4168  0.1881
  721W        W 4921   6.426   4.062   9.784  0.1885  0.0195 -0.2477
  722W        W 4922   9.639   4.775   2.878  0.1692  0.0496  0.0271
  723W        W 4923   2.091   0.052  10.047  0.0568  0.0111 -0.1112
  724W        W 4924   8.135  10.277  10.350  0.2379 -0.0357  0.0642
  725W        W 4925   4.197   2.175  12.112 -0.0271 -0.0501 -0.2930
  726W        W 4926   3.250   9.156  10.175  0.1929  0.1603 -0.0776
  727W        W 4927   5.617   1.399   0.870  0.3482  0.1084  0.1758
  728W        W 4928   8.364   9.949   1.970 -0.2191 -0.0533 -0.1690
  729W        W 4929   7.951   2.408  10.587  0.2444 -0.1589 -0.0717
  730W        W 4930   5.209  10.436   9.307  0.1660 -0.2855  0.0726
  731W        W 4931   6.355   2.208   3.890  0.3303  0.0643  0.1576
  732W        W 4932   1.432   1.722  11.918 -0.1302 -0.0017 -0.2329
  733W        W 4933   9.186   9.486  10.334 -0.0475 -0.0002 -0.0670
  734W        W 4934   6.634  10.201  11.019  0.0640 -0.2363 -0.0249
  735W        W 4935   3.358   9.278   3.315  0.1910  0.3116  0.1430
  736W        W 4936   2.074   5.121  12.633 -0.0216  0.0161 -0.0987
  737W        W 4937   0.623   4.011  10.576  0.1369 -0.0967  0.0381
  738W        W 4938   9.582   8.659   9.849 -0.0267  0.1093  0.0848
  739W        W 4939   0.441   8.448   0.284 -0.1326 -0.1001 -0.0214
  740W        W 4940   6.037   1.192   0.585 -0.0123  0.1095  0.0470
  741W        W 4941   5.639   0.924   1.204  0.0869  0.3955 -0.1998
  742W        W 4942   1.674   0.244   3.960  0.0403  0.0523  0.2670
  743W        W 4943   2.090   3.522  11.956 -0.0307  0.2335  0.0434
  744W        W 4944   2.601  10.173   4.331  0.2549  0.0791  0.2629
  745W        W 4945   8.626   7.465   0.555  0.0003  0.1656 -0.2951
  746W        W 4946   9.079   0.627   3.579  0.1965  0.0436 -0.0604
  747W        W 4947   9.482   5.913   8.875  0.0490  0.1738 -0.0364
  748W        W 4948   0.135   6.385   3.188 -0.2626  0.0732  0.0121
  749W        W 4949   8.451   9.399  13.233  0.0093  0.1449  0.0923
  750W        W 4950   2.262   2.646   1.891 -0.0074  0.0036  0.0253
  751W        W 4951   5.723   5.411   3.742  0.2354 -0.5056  0.3391
  752W        W 4952   6.801   6.943  10.429 -0.2525 -0.0845  0.0927
  753W        W 4953   9.503   1.883  12.457 -0.0394 -0.0723  0.1383
  754W        W 4954   7.750   7.653  12.545  0.2352  0.1079 -0.3881
  755W        W 4955   0.994   6.024   0.717 -0.0783 -0.1630  0.2874
  756W        W 4956   3.310   1.159  10.739  0.0843  0.0873  0.6315
  757W        W 4957   9.388   4.056  12.625  0.1763  0.0557  0.3148
  758W        W 4958   3.559   4.043  11.565  0.0032 -0.1246  0.0366
  759W        W 4959   3.145   8.627   3.898  0.1532 -0.1240 -0.4738
  760W        W 4960  10.086   7.769   1.301 -0.3024 -0.0211 -0.0612
  761W        W 4961   3.082   0.701  12.019 -0.0274  0.2390  0.1092
  762W        W 4962   4.391  10.125  11.055  0.1469  0.1391  0.1309
  763W        W 4963   9.835   2.737  11.588 -0.2251  0.0384  0.0352
  764W        W 4964   7.990   4.691   9.965  0.1820 -0.0389  0.3156
  765W        W 4965   0.859   4.122   0.863  0.2372  0.1597 -0.0100
  766W        W 4966   5.088   7.564  12.058 -0.0874  0.0594 -0.2055
  767W        W 4967   2.660   7.243  13.521 -0.0432 -0.2378 -0.0230
  768W        W 4968   0.559   5.388   3.949  0.0741 -0.1137 -0.2371
  769W        W 4969   6.895   6.838  12.614  0.1299  0.0504 -0.1681
  770W        W 4970   6.309   4.057   3.238 -0.3046  0.1451  0.0199
  771W        W 4971   8.529   2.260   0.371  0.0552 -0.1319  0.0699
  772W        W 4972   0.672   6.692  13.389 -0.2109 -0.0582  0.2527
  773W        W 4973   0.339   9.931   3.841 -0.1533  0.0181 -0.3795
  774W        W 4974   6.214   1.945   4.269  0.0452  0.0371  0.3674
  775W        W 4975   4.351   1.422   2.601  0.2570 -0.2745  0.3541
  776W        W 4976   0.557  10.209   2.911  0.1252 -0.2381  0.0980
  777W        W 4977   8.166   9.560   5.316 -0.0024  0.1723 -0.1665
  778W        W 4978   0.985   5.292  11.799 -0.2801  0.5213 -0.0524
  779W        W 4979   5.665   0.321  11.696 -0.0683  0.2561  0.0337
  780W        W 4980   4.379   2.779  11.073  0.0009 -0.0507 -0.1158
  781W        W 4981   5.937   4.118   9.912  0.2665 -0.5112 -0.1834
  782W        W 4982   2.102   6.099   2.968  0.1460 -0.0656  0.1836
  783W        W 4983   6.670  10.267   1.929 -0.4053 -0.0405  0.1896
  784W        W 4984   0.220   7.918   4.494 -0.0327 -0.1270 -0.1667
  785W        W 4985   6.256   7.965   3.233 -0.1265  0.0788 -0.1219
  786W        W 4986   1.672   2.089   0.095  0.0403 -0.1256  0.2939
  787W        W 4987   7.052   4.660   0.196  0.2295 -0.4643 -0.0029
  788W        W 4988   3.076   9.601   2.379 -0.1734  0.2052  0.0617
  789W        W 4989   2.555  10.349  10.221 -0.0378  0.2536  0.3912
  790W        W 4990   4.510   8.558   0.884  0.4804  0.1544  0.3453
  791W        W 4991   2.121   9.246   2.564  0.1846  0.1061  0.0049
  792W        W 4992   5.363   1.398   1.373  0.1931 -0.1996 -0.0797
  793W        W 4993   7.560   8.080  12.306  0.0839  0.4451  0.1604
  794W        W 4994  10.436   9.064  12.015  0.0241 -0.0687 -0.2024
  795W        W 4995  10.361   0.096   0.012  0.1361  0.2762  0.1491
  796W        W 4996   8.692   6.580   2.208  0.1577  0.0157 -0.0394
  797W        W 4997   5.171   0.093  12.857 -0.0823  0.1935  0.3451
  798W        W 4998   3.355   5.591  11.440  0.0394 -0.2240 -0.3108
  799W        W 4999   6.530   7.322  12.100  0.3171 -0.2666  0.1262
  800W        W 5000   4.243   7.111   2.098 -0.0480 -0.1880  0.0781
  801W        W 5001   7.884   6.091   0.943 -0.2573  0.0434 -0.0478
  802W        W 5002   7.441   5.219   1.513 -0.0266 -0.1429 -0.3473
  803W        W 5003   9.679   8.930   2.520 -0.0104 -0.0876  0.1532
  804W        W 5004   8.634   6.897   9.687 -0.2129  0.3162  0.1610
  805W        W 5005   2.566  10.127  10.881  0.1630  0.1566 -0.1859
  806W        W 5006   3.361   3.198   2.303 -0.3756  0.0136  0.0025
  807W        W 5007   6.150   1.396  12.147  0.0137  0.3050  0.0677
  808W        W 5008   2.433   9.639   0.415 -0.0309  0.1904  0.2713
  809W        W 5009   5.327   5.875  13.284  0.1202  0.0949  0.3392
  810W        W 5010   2.713   2.107   9.553  0.2741 -0.0650 -0.0489
  811W        W 5011   8.978   1.107   9.917  0.0036  0.3042  0.0200
  812W        W 5012   8.985   9.443   3.130 -0.0922  0.2960 -0.0681
  813W        W 5013   2.624   3.654   2.446 -0.1178  0.1450 -0.1962
  814W        W 5014   1.839   0.258   2.478 -0.0419 -0.2824 -0.1136
  815W        W 5015   4.414   7.828  11.689  0.1260 -0.1253 -0.0416
  816W        W 5016   7.957   6.113   4.202 -0.0264 -0.1829 -0.4070
  817W        W 5017   2.060   3.401  13.545  0.0566  0.0215 -0.0635
  818W        W 5018  10.392   2.534   1.602 -0.1736  0.1876  0.0204
  819W        W 5019   1.454   0.255   4.983 -0.4570  0.1702  0.3592
  820W        W 5020   2.215   8.637   9.608 -0.0697  0.2293  0.0363
  821W        W 5021   9.051   7.033   2.759  0.3969  0.2800 -0.0629
  822W        W 5022   4.087   8.030  10.103  0.1846  0.1617  0.0734
  823W        W 5023   4.825   6.434  11.839  0.0929 -0.0358 -0.1418
  824W        W 5024   5.280   2.774  10.568 -0.1432 -0.1092 -0.3687
  825W        W 5025   0.283   4.056  11.103  0.0798  0.0077 -0.4432
  826W        W 5026   9.301   8.456  11.412  0.1590 -0.2958 -0.1156
  827W        W 5027   7.998   9.293   3.564  0.3066 -0.1154  0.0723
  828W        W 5028  10.205   0.284   4.421 -0.0968 -0.0029  0.1961
  829W        W 5029   3.732   2.068  13.450  0.2251  0.0356 -0.0764
  830W        W 5030   6.895   1.066   4.952  0.0825 -0.3407  0.0077
  831W        W 5031   2.493   9.125  10.850  0.0674  0.2269 -0.1918
  832W        W 5032   6.907   1.663   0.084 -0.0395  0.0792  0.0827
  833W        W 5033   1.102   4.066  12.692 -0.1870  0.1144  0.0368
  834W        W 5034   9.213   6.646   4.787 -0.2906  0.1610 -0.3118
  835W        W 5035   6.418   3.398  10.365  0.0438 -0.0161  0.2592
  836W        W 5036   2.145   4.044  11.363  0.0576 -0.1949 -0.0720
  837W        W 5037   2.269   6.233   0.817 -0.1993 -0.0329  0.3779
  838W        W 5038   0.459   8.435   9.511  0.2594 -0.0841 -0.2613
  839W        W 5039   8.348   1.071  10.522  0.1568 -0.0542 -0.1873
  840W        W 5040   0.308   6.248  12.505  0.0660 -0.0406  0.1103
  841W        W 5041   8.361   7.236   3.791 -0.2003 -0.2280  0.0503
  842W        W 5042   7.090   0.472  12.502  0.4570 -0.0221 -0.3291
  843W        W 5043   6.946   2.582  11.862  0.1111 -0.0827  0.0597
  844W        W 5044   8.043   9.170   9.464 -0.0059 -0.0845  0.2571
  845W        W 5045   1.251   3.208   1.795  0.0993  0.2023  0.1842
  846W        W 5046   0.491   2.380   2.496 -0.1270 -0.0293 -0.0567
  847W        W 5047   9.566   5.475   9.327  0.0882 -0.1934 -0.3009
  848W        W 5048   5.995   5.125   1.819  0.4359 -0.1061  0.1083
  849W        W 5049   6.056   2.251  10.116 -0.1335 -0.1982 -0.0544
  850W        W 5050   0.421   9.862  13.067  0.1417 -0.0164 -0.1595
  851W        W 5051   6.082   2.339   9.004 -0.0951  0.2128 -0.1502
  852W        W 5052   1.465   5.160   1.032 -0.3446  0.2076  0.0375
  853W        W 5053   9.061   2.973  10.219 -0.1473  0.0129  0.2212
  854W        W 5054   6.287   3.621   4.595 -0.0136  0.1982 -0.2127
  855W        W 5055   3.200   0.949  11.562  0.1280  0.2122  0.0963
  856W        W 5056   9.196   1.737   4.091  0.2800  0.0445 -0.1409
  857W        W 5057   5.206   0.704   2.612 -0.2946  0.1657 -0.1308
  858W        W 5058   2.952   8.177   4.701 -0.0723 -0.0655  0.0953
  859W        W 5059   2.132   8.636  10.318 -0.0278  0.0802  0.1343
  860W        W 5060   8.836   3.044   1.276 -0.2764  0.0763 -0.4911
  861W        W 5061   4.741   2.234   1.294  0.1759 -0.0846 -0.0525
  862W        W 5062   3.791   4.203   1.608  0.3653  0.4898 -0.0257
  863W        W 5063   4.205   7.048   3.699 -0.0755  0.1826  0.1585
  864W        W 5064   6.987   9.320  11.428  0.1488 -0.1278 -0.1989
  865W        W 5065  10.137   9.962   9.076 -0.2705 -0.5597 -0.0641
  866W        W 5066   1.397   8.477   9.588 -0.0206  0.2254 -0.1467
  867W        W 5067   8.877   6.103   0.160 -0.5640  0.0121  0.4604
  868W        W 5068   9.755   3.335   0.268 -0.2044 -0.0469  0.3054
  869W        W 5069   6.693   4.170   1.192 -0.0337  0.0699  0.0167
  870W        W 5070   6.883   9.407  13.174 -0.1626  0.1389  0.1700
  871W        W 5071   1.800   7.155  10.712  0.2381 -0.0585 -0.1187
  872W        W 5072   7.888   1.702  13.520  0.0943 -0.1817  0.3156
  873W        W 5073   5.486   7.655  11.001 -0.2135 -0.0239  0.4680
  874W        W 5074   6.297   9.845   2.451 -0.1176 -0.0222  0.1683
  875W        W 5075   7.031   5.632  10.342  0.3098  0.2913  0.2215
  876W        W 5076   9.797   4.140   4.039  0.3739  0.0093 -0.1185
  877W        W 5077   3.469   7.573  13.328 -0.0370  0.1407  0.4480
  878W        W 5078   3.456   6.947  10.937 -0.0829 -0.2563  0.4353
  879W        W 5079  10.237   7.035   2.850 -0.2526 -0.1768 -0.2781
  880W        W 5080   6.588   4.165  10.816  0.0665  0.0598 -0.0539
  881W        W 5081   8.153   0.680   1.290 -0.3264 -0.0334  0.0942
  882W        W 5082   5.224   6.084   0.971 -0.1370  0.0935  0.0719
  883W        W 5083   8.247   6.431  11.902  0.2152 -0.3534  0.1108
  884W        W 5084   7.281   5.527  13.508 -0.1049  0.0779  0.0702
  885W        W 5085   3.121   7.271  13.146 -0.0795 -0.3631 -0.0219
  886W        W 5086   5.381   4.649  11.835  0.0136  0.4190  0.3509
  887W        W 5087  10.198   3.519   2.679  0.0359  0.0509  0.1133
  888W        W 5088   2.468   4.845  11.750  0.2160 -0.2274 -0.1868
  889W        W 5089   3.425   3.697  11.087  0.1772 -0.0289  0.1104
  890W        W 5090   7.951   9.005   3.988  0.0420  0.3360  0.0127
  891W        W 5091   9.218   9.775   4.472 -0.2598 -0.1565  0.2314
  892W        W 5092   1.490   5.248   0.552 -0.0139  0.0937 -0.1589
  893W        W 5093   5.545   6.087   2.180 -0.2569 -0.1808  0.4314
  894W        W 5094   0.341   0.616  13.093  0.0322 -0.0799 -0.1183
  895W        W 5095   2.621   8.671   1.389 -0.3551  0.2679 -0.3048
  896W        W 5096   9.440   4.165  12.088  0.0540  0.1563  0.0270
  897W        W 5097   1.086   4.863   1.380  0.2992  0.0058  0.0018
  898W        W 5098  10.368   8.612  13.584 -0.0089  0.1038  0.1386
  899W        W 5099   0.557   6.715  10.706  0.0126 -0.2100 -0.1262
  900W        W 5100   6.902   5.373   1.884  0.3806  0.1897  0.3208
  901W        W 5101   8.568   3.855  11.383  0.3587  0.2798 -0.0105
  902W        W 5102   7.211   3.561  13.554  0.0125  0.1091  0.0608
  903W        W 5103  10.338   2.848  13.345 -0.1203  0.6681  0.1173
  904W        W 5104   9.464   3.111   9.838  0.1306 -0.2891  0.2855
  905W        W 5105   6.109   3.188   4.725  0.0873  0.3176  0.1698
  906W        W 5106   4.080   7.748   3.800  0.0870 -0.0429 -0.0856
  907W        W 5107   7.900   3.834   1.752 -0.1740  0.3973  0.0030
  908W        W 5108   0.052   8.436   4.372 -0.1162 -0.0343  0.1382
  909W        W 5109   9.405   6.343   0.118  0.0706 -0.1340  0.0620
  910W        W 5110   3.402   2.553  11.000  0.2390  0.1156  0.1848
  911W        W 5111   7.853   5.230   5.118 -0.0370  0.0894 -0.2248
  912W        W 5112   7.874   4.318   0.728  0.0557  0.5409 -0.1338
  913W        W 5113   4.202   6.445   9.906 -0.1370  0.0663 -0.1947
  914W        W 5114  10.435   0.813   1.819 -0.0561  0.4338 -0.1459
  915W        W 5115   2.202   4.483  12.011 -0.2572  0.0388 -0.2528
  916W        W 5116   4.195   5.332   3.792  0.2051 -0.0214 -0.3713
  917W        W 5117   6.034   2.887   3.234  0.1905  0.3280 -0.0696
  918W        W 5118   0.445   8.394   3.117 -0.4491 -0.0794 -0.1989
  919W        W 5119   2.522   1.025   2.701  0.3368  0.1275 -0.0822
  920W        W 5120   2.990   9.645  10.048  0.4089  0.1124 -0.2311
  921W        W 5121   3.412   8.385   8.942 -0.3821  0.1170  0.3620
  922W        W 5122   5.619   1.100   1.885  0.0262  0.1174 -0.3038
  923W        W 5123   3.777   6.713  11.602 -0.1783 -0.0090 -0.0298
  924W        W 5124   2.316   8.551  11.605  0.0561 -0.0536 -0.4049
  925W        W 5125   6.782   6.866   1.753  0.0234 -0.0744 -0.0951
  926W        W 5126   4.649   5.651  10.329  0.2545  0.1881  0.0605
  927W        W 5127   0.436  10.248  11.623  0.2496  0.0719 -0.1047
  928W        W 5128   7.801   1.933   4.359 -0.0891  0.1647 -0.2749
  929W        W 5129   9.173   7.287   8.931  0.3316  0.1122  0.1225
  930W        W 5130   9.480   5.025  13.556  0.0261 -0.0488 -0.1007
  931W        W 5131   9.806   4.175   1.387 -0.0178  0.0359  0.0494
  932W        W 5132   4.745  10.212  10.714  0.3342 -0.2845 -0.0394
  933W        W 5133   6.229   9.800   1.943 -0.1245 -0.3104 -0.2132
  934W        W 5134   8.965   5.091  10.864  0.0058 -0.0826 -0.1010
  935W        W 5135   3.824   9.660  13.490 -0.0995 -0.0057  0.1368
  936W        W 5136   8.992   8.622  10.504  0.0295 -0.1907 -0.1492
  937W        W 5137   9.798   9.449  11.765 -0.3096  0.4900  0.1290
  938W        W 5138  10.321   1.387   9.537  0.1479 -0.4318  0.2256
  939W        W 5139   1.251   4.518   1.685 -0.0232 -0.0774  0.6291
  940W        W 5140   8.895   5.969   1.351 -0.1629  0.1134  0.0836
  941W        W 5141   5.373   4.215  10.557  0.2217 -0.1237  0.1101
  942W        W 5142   8.809   2.501   9.847  0.1221 -0.2375  0.1560
  943W        W 5143   4.498   3.598   2.043 -0.3905  0.2703 -0.2117
  944W        W 5144   0.482   5.690   9.769 -0.3003  0.0019  0.2896
  945W        W 5145   8.251   6.694   9.394 -0.3902 -0.0039  0.2027
  946W        W 5146   7.588   7.755   3.840  0.1531 -0.0417  0.2722
  947W        W 5147   3.795   6.556  10.560 -0.0579 -0.2827  0.0301
  948W        W 5148   9.311   4.128   3.748  0.0876  0.0907 -0.1082
  949W        W 5149   2.955   8.350   3.026 -0.0637 -0.0284 -0.2758
  950W        W 5150   4.929   3.907   9.920  0.0939  0.0720 -0.1198
  951W        W 5151   2.635   6.888   1.850  0.3986  0.0810 -0.2826
  952W        W 5152   9.793   0.176   3.359 -0.4104  0.1524  0.1773
  953W        W 5153   9.520   5.724  10.925  0.3510  0.1603  0.3223
  954W        W 5154   5.755   4.887  12.228  0.1981  0.1782 -0.1193
  955W        W 5155   1.541   7.818   0.233 -0.1412 -0.1875 -0.2364
  956W        W 5156   9.379   3.567  11.572  0.1305  0.0096  0.0454
  957W        W 5157   4.917   8.589   3.050  0.0460  0.0230 -0.0921
  958W        W 5158   5.883  10.151   0.550 -0.3008 -0.1392  0.0562
  959W        W 5159   1.161   4.505  10.070 -0.3909 -0.1157  0.2069
  960W        W 5160   3.552   3.643   3.797 -0.1728  0.0087  0.0303
  961W        W 5161   6.974   8.674   9.299 -0.1465  0.2076  0.1652
  962W        W 5162   4.788   4.428   2.259  0.1659  0.2718 -0.0551
  963W        W 5163   3.092   9.278  12.814 -0.0370 -0.1030  0.0053
  964W        W 5164   2.250   3.414   1.022  0.0384  0.1719 -0.0638
  965W        W 5165   9.003   2.280   9.366  0.1285 -0.2118 -0.0147
  966W        W 5166   8.927   7.445   2.964 -0.1885 -0.0471 -0.2546
  967W        W 5167   8.904   6.606  13.561 -0.3503 -0.0861 -0.0595
  968W        W 5168   9.871   4.554  10.015  0.2359 -0.0512  0.2366
  969W        W 5169   2.267   8.195  10.031 -0.1518 -0.0320 -0.3569
  970W        W 5170   5.341  10.240  11.056  0.0276  0.1307  0.2172
  971W        W 5171   6.339   9.929   3.767  0.1843  0.0923  0.1457
  972W        W 5172   4.003   5.720  11.708 -0.0396 -0.5123  0.2982
  973W        W 5173   2.684   9.246   1.671  0.0407 -0.0650 -0.3411
  974W        W 5174   1.057   6.612   0.074 -0.0945  0.4838  0.0428
  975W        W 5175   2.759   2.190  12.024 -0.1640 -0.0358  0.0295
  976W        W 5176  10.192   6.668   3.978  0.2093  0.2201 -0.1564
  977W        W 5177   6.894   4.984  11.966 -0.0939  0.0877 -0.2845
  978W        W 5178   3.304   6.436   3.721 -0.0477  0.0194  0.0653
  979W        W 5179  10.055   7.799  11.739  0.0512  0.2230  0.0997
  980W        W 5180   3.280   7.208   0.232  0.1664 -0.3410 -0.0189
  981W        W 5181   4.962   8.946  13.495 -0.2120  0.0943  0.0190
  982W        W 5182   6.400   4.802  10.278  0.0861 -0.1047  0.0428
  983W        W 5183   6.682   4.444   1.870  0.5145 -0.0790 -0.2606
  984W        W 5184   5.245   2.533   8.530  0.0481  0.1365 -0.2198
  985W        W 5185   6.087   9.697   3.241 -0.0186  0.0813 -0.0547
  986W        W 5186   2.915   7.360   0.531  0.0008 -0.1940  0.1294
  987W        W 5187   8.261   6.644   2.993 -0.5400 -0.2214 -0.0283
  988W        W 5188   1.204   3.260  10.848  0.1677 -0.5692  0.4094
  989W        W 5189   5.921   4.993   2.867  0.1174  0.1158  0.0421
  990W        W 5190   5.324   3.111   1.570 -0.4557 -0.0693  0.1172
  991W        W 5191   5.904   3.750  11.336 -0.1106 -0.2692 -0.1454
  992W        W 5192   4.044   9.845   4.240  0.0810  0.1669 -0.3918
  993W        W 5193   4.960   9.977  12.814  0.1267  0.2486  0.1880
  994W        W 5194   8.869   2.276   2.954 -0.0694 -0.0974  0.2623
  995W        W 5195   3.895   2.622  11.939  0.2967  0.1600  0.2789
  996W        W 5196   6.056   6.203   2.518 -0.0782  0.0665  0.1008
  997W        W 5197   6.100   6.174   3.551 -0.1036  0.1407 -0.0729
  998W        W 5198   8.433   7.688   3.551 -0.1083  0.3708  0.0150
  999W        W 5199   8.533   8.596   1.952 -0.0180  0.0378  0.2030
 1000W        W 5200  10.418   8.293   0.419 -0.1600 -0.2896  0.2392
 1001W        W 5201   3.525   4.037  13.354  0.1784  0.3376 -0.0349
 1002W        W 5202   7.566   3.362   3.521 -0.5551  0.0445 -0.3086
 1003W        W 5203   5.328   8.084  10.106 -0.2969 -0.0130 -0.0158
 1004W        W 5204   1.256   8.404   3.728 -0.1826  0.2869  0.0683
 1005W        W 5205   4.792   0.348  11.468  0.0306 -0.2564  0.3009
 1006W        W 5206   0.497   3.449   0.509 -0.1135  0.0384  0.0575
 1007W        W 5207   4.120   0.168   1.317 -0.2244  0.1093 -0.1463
 1008W        W 5208   1.082   1.537  10.705 -0.0309  0.1424  0.3082
 1009W        W 5209   8.134   1.731  12.801  0.1576  0.3996 -0.0071
 1010W        W 5210   7.412   1.609   0.852 -0.0243  0.1871  0.1045
 1011W        W 5211  10.406   7.754   4.875 -0.2055  0.1075  0.0905
 1012W        W 5212   7.256   2.303   1.528  0.2515  0.2370 -0.3987
 1013W        W 5213   5.583   9.234   1.946 -0.2462 -0.1390 -0.0343
 1014W        W 5214   4.287   9.194   3.009  0.1055 -0.0700  0.0293
 1015W        W 5215   3.750   7.307   4.383  0.4103  0.2294 -0.0388
 1016W        W 5216   0.103  10.239  12.740 -0.2300 -0.0721  0.0495
 1017W        W 5217   9.302   1.287   1.504 -0.0929  0.1925  0.1715
 1018W        W 5218   9.320  10.263   3.463  0.0778  0.1288  0.0085
 1019W        W 5219   0.761  10.372  10.598  0.2793 -0.1277 -0.2329
 1020W        W 5220   1.464   7.559   9.550 -0.0481 -0.1499  0.0816
 1021W        W 5221   8.474   7.941   1.129  0.0850  0.0278 -0.0599
 1022W        W 5222   7.479   3.768   2.608  0.0772 -0.1289  0.1877
 1023W        W 5223   7.998   9.670   3.203 -0.0291 -0.1614  0.2434
 1024W        W 5224   9.288   3.494  10.135  0.1328  0.1511  0.0482
 1025W        W 5225   7.189   1.750   1.309  0.0900  0.1989 -0.2303
 1026W        W 5226   6.663   3.224   1.540 -0.0025 -0.5157 -0.3332
 1027W        W 5227   7.948   8.658   2.102  0.0515 -0.0907  0.0661
 1028W        W 5228   2.608   7.627   0.984  0.1697 -0.2688 -0.4530
 1029W        W 5229   9.267   5.780   3.223 -0.0792 -0.0043 -0.0477
 1030W        W 5230   4.044   2.219  10.290  0.0423  0.2779  0.2773
 1031W        W 5231   1.162   3.156   3.312  0.1185 -0.4531 -0.1201
 1032W        W 5232   8.782   8.124   3.680  0.2209 -0.0027 -0.0433
 1033W        W 5233   0.908   9.329   4.087  0.0147 -0.0455 -0.0925
 1034W        W 5234   7.227   7.449   2.319 -0.0284 -0.1228 -0.0696
 1035W        W 5235   6.119   4.190   3.722 -0.0407  0.0955 -0.0682
 1036W        W 5236   0.386   3.119   2.274 -0.1201 -0.2902 -0.0642
 1037W        W 5237   0.410   8.225   1.674  0.0132 -0.2192  0.0953
 1038W        W 5238   5.354   4.511   8.813 -0.1553  0.1448 -0.2830
 1039W        W 5239   1.928   0.652   9.452  0.0200 -0.0729  0.0365
 1040W        W 5240   6.605   3.703   2.288  0.2090 -0.0459  0.0179
 1041W        W 5241   9.109   2.584   0.883 -0.1897 -0.1004 -0.0273
 1042W        W 5242   7.595   3.567   3.968  0.0979  0.1571 -0.1268
 1043W        W 5243   4.142   5.687   9.612  0.3465  0.2867 -0.1618
 1044W        W 5244   7.285   6.606   3.098 -0.0164 -0.1106 -0.1421
 1045W        W 5245   2.028   4.460   0.567 -0.2381 -0.3013 -0.1697
 1046W        W 5246   7.503   4.787  10.006 -0.2000  0.0389  0.2826
 1047W        W 5247   6.864   3.571   1.877 -0.1506 -0.2307  0.0788
 1048W        W 5248   0.509   6.320   3.756 -0.2880  0.1172 -0.2682
 1049W        W 5249   6.824   9.436  12.032  0.1758 -0.1414 -0.2312
 1050W        W 5250   1.425   4.458   9.621  0.0791  0.2253 -0.2659
 1051W        W 5251   0.950   3.182  10.426 -0.0115  0.1008 -0.0426
 1052W        W 5252   1.806  10.285  13.070  0.1757 -0.1612  0.1242
 1053W        W 5253   6.544   6.388  11.410  0.0073  0.2030 -0.1093
 1054W        W 5254   1.982   9.355   0.329  0.0977  0.1594  0.1280
 1055W        W 5255   3.948   1.330  12.413 -0.0882  0.1451  0.1658
 1056W        W 5256   4.094   4.835   3.538  0.2015 -0.1692  0.2916
 1057W        W 5257   0.722   8.651  12.594 -0.0655  0.0697 -0.1557
 1058W        W 5258   4.773   5.885  11.022 -0.0997 -0.1502  0.1628
 1059W        W 5259   9.876   8.873   4.100  0.1354  0.3468  0.0308
 1060W        W 5260   3.704   2.908  10.571 -0.2645  0.1154 -0.0022
 1061W        W 5261   8.608   4.862  13.529  0.1975 -0.1037 -0.1701
 1062W        W 5262   3.759   0.885   0.351  0.3192  0.0664 -0.3945
 1063W        W 5263   3.881   2.035   2.532  0.0297  0.1306  0.0112
 1064W        W 5264  10.147   1.635  13.253 -0.3764 -0.1557 -0.0682
 1065W        W 5265   5.426   8.874  13.299  0.1417 -0.0970 -0.0659
 1066W        W 5266   2.988   6.220   2.966 -0.2123 -0.1046 -0.1087
 1067W        W 5267   5.359   9.451   3.768 -0.1797 -0.0271 -0.2146
 1068W        W 5268   1.905   1.652   1.216 -0.1709  0.2236  0.0003
 1069W        W 5269   3.731   0.271   9.582  0.0688  0.1569 -0.1148
 1070W        W 5270   2.889   9.094   1.261  0.0519 -0.0697  0.1546
 1071W        W 5271   4.965   6.180   3.359  0.0245 -0.2296 -0.3789
 1072W        W 5272   2.122   2.739  11.276 -0.1313  0.0275 -0.0641
 1073W        W 5273   8.700   3.993   3.441 -0.1768 -0.3120  0.5324
 1074W        W 5274   4.249   8.012  12.320 -0.0259  0.0248  0.1494
 1075W        W 5275   3.442   0.896   3.608 -0.2313 -0.1670  0.0035
 1076W        W 5276   5.109   5.296  11.014  0.1306 -0.0461  0.0723
 1077W        W 5277   0.343   2.517  10.157  0.4391 -0.1842 -0.1099
 1078W        W 5278   1.382   5.674  11.907 -0.1595 -0.0934 -0.1301
 1079W        W 5279   3.130   3.864  11.660  0.1776  0.1084 -0.0472
 1080W        W 5280   8.679   8.337  12.279  0.1208 -0.0978  0.0258
 1081W        W 5281   2.568   8.948  13.351 -0.0667 -0.1191  0.0860
 1082W        W 5282   3.402   9.171   2.460 -0.1113 -0.1621  0.1012
 1083W        W 5283   4.873   3.932  12.272  0.2260  0.2642  0.0777
 1084W        W 5284   5.390  10.133   8.926  0.2331 -0.1261  0.3144
 1085W        W 5285   4.831   1.587   2.366 -0.3262  0.0316  0.1044
 1086W        W 5286   0.547   7.433   3.593 -0.0282 -0.3552 -0.0858
 1087W        W 5287   6.507   6.333  11.899 -0.2272 -0.3345  0.0648
 1088W        W 5288   7.431   1.487  10.407  0.0074  0.0126  0.0711
 1089W        W 5289  10.267   8.049   3.705 -0.0879  0.4630 -0.1572
 1090W        W 5290   1.975   3.582  12.610 -0.1296 -0.1382  0.0405
 1091W        W 5291   8.778  10.241   5.042  0.2127 -0.0365  0.0826
 1092W        W 5292   5.590   0.736  12.802  0.3248  0.2929 -0.1902
 1093W        W 5293   5.167   0.256  10.913  0.0077  0.2812  0.2144
 1094W        W 5294   5.473   7.452   0.684  0.1067 -0.0952 -0.2028
 1095W        W 5295   9.271   4.993   8.735  0.1144 -0.2791  0.0204
 1096W        W 5296   1.295   7.259   2.867 -0.0729  0.2075  0.3950
 1097W        W 5297   0.713   2.405  11.183  0.1214  0.3079  0.1091
 1098W        W 5298   3.037   3.524   1.934 -0.0685 -0.2292  0.1593
 1099W        W 5299   0.492   0.281  11.560 -0.0390 -0.2107 -0.0574
 1100W        W 5300   5.765   2.064  10.485 -0.1097  0.0850  0.1370
 1101W        W 5301   4.457   7.793   3.426  0.1351  0.2785 -0.0639
 1102W        W 5302   8.691   9.017  10.542 -0.0348 -0.2758 -0.1912
 1103W        W 5303   0.210   9.465   0.509  0.0725  0.1996  0.0739
 1104W        W 5304   4.330   6.364   1.764  0.1487  0.1319 -0.1751
 1105W        W 5305   2.103   4.126   0.042 -0.1906 -0.0636  0.5475
 1106W        W 5306   2.298   9.450   3.490  0.2084 -0.1740  0.1466
 1107W        W 5307   0.285   1.886   0.268  0.1237 -0.3266  0.1626
 1108W        W 5308   6.065   5.170   3.306 -0.0650  0.2690  0.2397
 1109W        W 5309   7.460   2.716   8.909  0.1717  0.0389  0.4647
 1110W        W 5310   0.333   0.947   2.194  0.0170  0.2471  0.0816
 1111W        W 5311   2.227   8.760  13.080 -0.1004 -0.0607  0.1117
 1112W        W 5312   7.978   4.759   3.607  0.0540 -0.0503  0.0461
 1113W        W 5313  10.377   5.908   4.665 -0.2356  0.0649  0.0046
 1114W        W 5314   7.368   5.557   1.902  0.3451  0.2330 -0.0228
 1115W        W 5315   2.043   5.416   1.657 -0.2348  0.1848  0.1507
 1116W        W 5316   4.096   1.293   9.331  0.1643  0.2307 -0.1300
 1117W        W 5317   4.791   4.857   1.331  0.0145  0.0382 -0.1109
 1118W        W 5318   6.168   7.219   8.905 -0.0703  0.2151  0.0061
 1119W        W 5319   3.671   3.598   2.473  0.0269 -0.1519 -0.0815
 1120W        W 5320   9.308  10.153   4.798 -0.0198  0.4547  0.1086
 1121W        W 5321   9.143   7.446   0.199 -0.0872  0.1192  0.2205
 1122W        W 5322   1.293   2.512   2.187  0.0968 -0.0519 -0.0769
 1123W        W 5323   6.229   4.682   1.910 -0.0877 -0.0802  0.1343
 1124W        W 5324  10.041   3.974   1.788  0.2133 -0.2169  0.2448
 1125W        W 5325   3.339   6.038  12.993  0.1112 -0.0861 -0.0124
 1126W        W 5326   0.608   0.591   0.236  0.1313  0.0827 -0.0823
 1127W        W 5327  10.116   7.282   1.124  0.1941 -0.0696 -0.1035
 1128W        W 5328   7.743   5.930   1.982 -0.3053 -0.1893  0.2762
 1129W        W 5329   7.076   8.961  13.304 -0.0551 -0.3483  0.1812
 1130W        W 5330   2.044   2.591  10.724  0.1670  0.0572 -0.1736
 1131W        W 5331   5.535   0.387   1.615 -0.0340 -0.2414  0.0819
 1132W        W 5332   7.830   0.935   9.723  0.1359  0.4282 -0.1089
 1133W        W 5333   0.008   3.411  11.821  0.0012 -0.1174  0.1561
 1134W        W 5334   3.687   0.394   1.272 -0.0673  0.1995 -0.1929
 1135W        W 5335   0.594   8.980   4.187  0.0909 -0.2997  0.0828
 1136W        W 5336   4.881   0.875   4.298 -0.3078  0.1142  0.2730
 1137W        W 5337   5.998   5.904   2.068  0.1578 -0.1395 -0.2947
 1138W        W 5338   7.848   6.733   9.732 -0.0828  0.2670 -0.1101
 1139W        W 5339   9.257   0.774   2.345 -0.0243 -0.0667  0.1246
 1140W        W 5340   5.694   4.899   1.090  0.2548 -0.0712  0.0182
 1141W        W 5341   6.029   6.960   5.496 -0.0625  0.2242 -0.2204
 1142W        W 5342   7.592   6.688   4.757  0.1931 -0.1960  0.0870
 1143W        W 5343   1.048   2.904   2.663 -0.1313 -0.1057  0.0801
 1144W        W 5344   1.823   1.076  10.516  0.0454  0.0420 -0.2303
 1145W        W 5345   7.752   9.480   2.500  0.0687  0.1483 -0.1792
 1146W        W 5346   5.625   1.516   9.645 -0.0656  0.0810 -0.1259
 1147W        W 5347   5.622   0.240  11.063 -0.1710 -0.0898 -0.0826
 1148W        W 5348   4.142   9.963  12.273  0.4701  0.3478  0.1741
 1149W        W 5349   8.925   8.428   3.257 -0.2950  0.0504  0.2111
 1150W        W 5350   1.335   1.287  11.430  0.5490  0.3541  0.1084
 1151W        W 5351   4.448   5.289   9.881 -0.1825  0.0776  0.2193
 1152W        W 5352   6.702   7.304   2.086 -0.0912 -0.3317 -0.2298
 1153W        W 5353   2.982   6.959  11.970 -0.1332 -0.1563 -0.0393
 1154W        W 5354   5.760  10.267  11.413 -0.2178  0.1249  0.0009
 1155W        W 5355   3.934   6.199   0.771  0.0118 -0.1601  0.0562
 1156W        W 5356   3.310   6.518   1.535 -0.1108  0.1231  0.0539
 1157W        W 5357   7.369   1.021  10.711  0.1132  0.0449  0.2145
 1158W        W 5358   7.139   1.914  10.416 -0.0068  0.0785 -0.0964
 1159W        W 5359   7.440   6.079   0.613  0.0907  0.0762  0.0417
 1160W        W 5360   9.374   4.079   1.892 -0.0413 -0.1428  0.0803
 1161W        W 5361   0.919   0.320   2.992  0.0801  0.1172 -0.3885
 1162W        W 5362   0.053   7.594   1.114 -0.0892 -0.0292 -0.3226
 1163W        W 5363   5.317   3.410  11.811 -0.1976 -0.0212  0.2105
 1164W        W 5364   8.550   8.288  13.503  0.1011  0.2039  0.1208
 1165W        W 5365   0.859   5.068   1.762 -0.2129  0.1631 -0.2295
 1166W        W 5366   4.030   8.326  10.947  0.0716 -0.1869  0.1693
 1167W        W 5367   5.515   1.998   0.168 -0.0913  0.0747 -0.3251
 1168W        W 5368   0.049  10.425  11.935  0.0526 -0.1286  0.1746
 1169W        W 5369   8.293   3.835   9.601  0.2550  0.0213 -0.1686
 1170W        W 5370   7.281   6.156  12.151  0.0565 -0.0915 -0.0742
 1171W        W 5371   7.803   9.864   2.818  0.2485 -0.0881 -0.1949
 1172W        W 5372   9.390   9.590   2.217 -0.0240  0.0684  0.0699
 1173W        W 5373   7.182   2.950   5.299  0.0605 -0.2375 -0.1070
 1174W        W 5374   9.861  10.298  13.177  0.1068  0.1259  0.0430
 1175W        W 5375   7.296   3.740  12.546 -0.0080 -0.2956 -0.2488
 1176W        W 5376   4.919  10.035   9.358 -0.5772 -0.1577 -0.0974
 1177W        W 5377   5.113   5.295   4.979  0.1474 -0.2907  0.0720
 1178W        W 5378   1.693   8.624  10.579 -0.1342  0.1176  0.0578
 1179W        W 5379   4.818   3.277   9.798  0.0713 -0.1034  0.0137
 1180W        W 5380   9.563   9.857   3.523  0.0194  0.0001  0.1384
 1181W        W 5381  10.436   0.287   3.459 -0.1715 -0.1194  0.1286
 1182W        W 5382   1.021   1.928   2.848 -0.2432 -0.3275  0.1111
 1183W        W 5383   3.243   0.711   9.822 -0.2610 -0.0475  0.2329
 1184W        W 5384   1.203   8.491  12.646  0.1301  0.1476 -0.1751
 1185W        W 5385   7.287   0.028  11.748 -0.1003  0.0574 -0.1359
 1186W        W 5386   2.038   9.325   3.967  0.3874  0.1833  0.2923
 1187W        W 5387   3.306   9.309  10.659 -0.1546  0.0009  0.2277
 1188W        W 5388   4.709   5.174   1.760  0.2916 -0.1962 -0.2935
 1189W        W 5389   2.920   8.896  10.770 -0.1686 -0.1380  0.1225
 1190W        W 5390   6.188   4.116  11.053  0.2657 -0.2153 -0.0471
 1191W        W 5391   7.804   8.189  11.899  0.3786  0.0094 -0.2952
 1192W        W 5392   4.699   1.677   1.119 -0.1321 -0.5128  0.0623
 1193W        W 5393   7.492   8.317   1.420  0.3065  0.1357  0.0394
 1194W        W 5394   4.073   3.754   2.246 -0.1228  0.2093 -0.1466
 1195W        W 5395   3.130   1.056   0.695  0.0943  0.2061  0.1440
 1196W        W 5396   4.313   8.910  10.415  0.2573 -0.2951 -0.0460
 1197W        W 5397  10.264   4.864   3.733 -0.0190 -0.1305  0.1746
 1198W        W 5398   4.255   0.303   4.699 -0.0400  0.2487 -0.0573
 1199W        W 5399   7.090   8.085  10.826 -0.0963  0.2231  0.0648
 1200W        W 5400   6.430   3.779   0.910 -0.3316 -0.0872 -0.2189
 1201W        W 5401   8.408   7.443   1.081  0.0505  0.1195 -0.0547
 1202W        W 5402   0.538   2.881   0.450 -0.1049 -0.0927 -0.1074
 1203W        W 5403   8.929   3.692   3.076  0.2783  0.0502 -0.0490
 1204W        W 5404   0.020   0.854  10.886  0.1959  0.1230 -0.2969
 1205W        W 5405   5.497   5.751   4.037  0.0213 -0.1447 -0.1607
 1206W        W 5406   3.936   0.931   3.940 -0.3119  0.1136  0.1085
 1207W        W 5407   5.819   0.516   1.006 -0.1822 -0.1043 -0.1577
 1208W        W 5408   2.329   2.915   2.982 -0.1757 -0.2075  0.4646
 1209W        W 5409   2.332   6.871  10.629 -0.0520 -0.1049 -0.0409
 1210W        W 5410   4.311   4.173  11.133 -0.4134  0.0737 -0.2035
 1211W        W 5411   5.128   9.827   3.597  0.2116 -0.1506 -0.0707
 1212W        W 5412   5.858  10.036   2.335 -0.0723 -0.2113  0.3514
 1213W        W 5413   4.338   2.269   1.968 -0.2914  0.3150  0.3934
 1214W        W 5414   6.000   1.441  12.600  0.0653 -0.0553  0.0911
 1215W        W 5415   6.424   5.065   0.931  0.0722 -0.2477 -0.1462
 1216W        W 5416   6.639   0.249   0.824  0.1175  0.1154 -0.1427
 1217W        W 5417   1.682   5.954   2.198  0.1444 -0.1826 -0.1867
 1218W        W 5418   1.960   2.871   0.653 -0.0362 -0.2957  0.1136
 1219W        W 5419   5.804   1.598   2.153  0.0471 -0.1799 -0.2360
 1220W        W 5420   0.578   5.346  10.893 -0.1205 -0.0393 -0.0878
 1221W        W 5421   0.700   1.801   3.293 -0.1700  0.0188  0.1748
 1222W        W 5422   3.039   9.115  13.347  0.0540 -0.0830  0.3619
 1223W        W 5423   4.763   0.868   0.060 -0.3936  0.0981  0.0013
 1224W        W 5424   4.790   6.823  11.476  0.0117  0.4772 -0.0571
 1225W        W 5425   1.564   3.991   2.951 -0.0103 -0.0371 -0.1757
 1226W        W 5426   1.736   9.474   0.779  0.1738 -0.1452  0.1034
 1227W        W 5427   2.019   8.726   2.190  0.1657 -0.1554  0.2219
 1228W        W 5428   0.005   5.843  12.511 -0.0631  0.2090  0.2824
 1229W        W 5429   8.541   2.078  10.099 -0.0491 -0.0236  0.0180
 1230W        W 5430   6.378   0.776  11.219 -0.0618 -0.0910  0.0943
 1231W        W 5431   3.385   9.850   0.253 -0.0580 -0.0664  0.0417
 1232W        W 5432   0.850   4.718  11.870  0.1428 -0.2158  0.0246
 1233W        W 5433   6.666   2.119   4.356 -0.3390  0.1980  0.1120
 1234W        W 5434   4.668   1.847   1.991  0.2254 -0.1930 -0.4664
 1235W        W 5435   8.947   6.596   9.448  0.0084  0.1616 -0.0053
 1236W        W 5436   1.709   0.609   1.087  0.0857 -0.0526  0.3117
 1237W        W 5437   1.947   2.043  13.189  0.0789  0.0794  0.1958
 1238W        W 5438   4.831   3.584   3.627 -0.3922  0.1124 -0.0277
 1239W        W 5439   8.663   1.661  13.079  0.1495 -0.1989 -0.0979
 1240W        W 5440   0.788   9.451   0.510  0.0203  0.1880  0.1530
 1241W        W 5441   7.576   7.660  13.521  0.0126 -0.4233  0.0682
 1242W        W 5442   5.153   2.433   2.495 -0.4152  0.1091  0.1216
 1243W        W 5443   3.336   1.223   9.865  0.0534  0.1511 -0.0217
 1244W        W 5444   4.359   8.513   4.059 -0.1659 -0.1245 -0.2854
 1245W        W 5445   8.246   7.268   1.531  0.2861  0.0658 -0.0490
 1246W        W 5446   0.832   4.725   0.052 -0.1055  0.1953  0.0905
 1247W        W 5447   1.444   5.578  12.409 -0.2127 -0.0216  0.2196
 1248W        W 5448   1.631   4.604  10.291 -0.1258  0.1256 -0.0756
 1249W        W 5449   0.288   8.277   9.110  0.0378 -0.2343  0.0736
 1250W        W 5450   7.438   8.006  13.182  0.4443 -0.0420 -0.5318
 1251W        W 5451   3.220   3.069  11.969  0.0801 -0.0764 -0.4425
 1252W        W 5452   5.113   8.679  12.492 -0.0559  0.2906  0.0574
 1253W        W 5453   5.064   3.926   0.910  0.2303 -0.1763  0.2457
 1254W        W 5454   2.418   4.903   4.313  0.0272  0.0126 -0.0618
 1255W        W 5455   1.743   7.040   1.731 -0.2874  0.0558 -0.0033
 1256W        W 5456   8.844   5.640   2.963 -0.1065 -0.3400  0.0141
 1257W        W 5457   8.735   0.185  11.037  0.1407  0.1523 -0.2194
 1258W        W 5458   2.932   7.156   3.119  0.3163 -0.0346  0.1913
 1259W        W 5459   4.372   8.002   4.355 -0.1132 -0.0351 -0.0366
 1260W        W 5460   7.134   2.719   0.366  0.1114 -0.0355  0.0717
 1261W        W 5461   4.004   2.792   2.855 -0.1152 -0.3015  0.0494
 1262W        W 5462   0.460  10.242  10.193  0.2044  0.1582  0.2003
 1263W        W 5463   1.415   9.496   1.813  0.0218  0.4319 -0.1493
 1264W        W 5464   6.713   6.350   3.863 -0.0291 -0.1680  0.2477
 1265W        W 5465   1.865   3.253  10.153 -0.1856 -0.2513  0.2110
 1266W        W 5466   3.331   8.914   2.877 -0.1762  0.1682  0.1387
 1267W        W 5467   3.950  10.011   4.733 -0.3382  0.0891 -0.0557
 1268W        W 5468   7.450   2.346  10.381  0.1399 -0.1348  0.3371
 1269W        W 5469   8.967   4.306   9.888  0.1090  0.0047 -0.4636
 1270W        W 5470  10.384   0.817  12.269  0.1766 -0.0321  0.0780
 1271W        W 5471   3.500   5.065   9.830  0.0328 -0.1891 -0.0372
 1272W        W 5472   4.586   6.570   0.853  0.0724 -0.0986  0.0296
 1273W        W 5473   6.382   6.357   9.291 -0.0795 -0.2105 -0.1745
 1274W        W 5474   5.237   9.553   9.437  0.1499 -0.1451 -0.0317
 1275W        W 5475   1.009   9.154   0.152 -0.0000 -0.1920 -0.1215
 1276W        W 5476  10.288   4.429  12.378  0.0443 -0.0992 -0.1787
 1277W        W 5477   3.445   6.168   2.683 -0.0583  0.1311  0.1787
 1278W        W 5478   9.328   0.414  11.326  0.2632 -0.2555 -0.1174
 1279W        W 5479   0.984   4.166   1.897 -0.0572 -0.0495  0.1214
 1280W        W 5480   5.316   2.203  10.150  0.3855  0.0695 -0.2120
 1281W        W 5481   2.129  10.276  10.491  0.0582 -0.0810  0.0015
 1282W        W 5482   2.023   3.572  11.009  0.1524  0.2434 -0.0914
 1283W        W 5483   5.086  10.233  12.159 -0.3908 -0.0328 -0.0061
 1284W        W 5484   9.659   4.902  10.421  0.1525 -0.1558  0.1114
 1285W        W 5485   5.195   4.263   3.202 -0.1362 -0.1227 -0.2385
 1286W        W 5486   2.521   3.880   9.892 -0.3240 -0.0539  0.2144
 1287W        W 5487   8.457   4.392   3.474  0.1016 -0.0474  0.0516
 1288W        W 5488   4.218   6.153   3.407  0.0343 -0.1154 -0.0025
 1289W        W 5489   4.708   9.004   3.209 -0.0836  0.1213  0.2003
 1290W        W 5490  10.340   7.000   9.872  0.1353 -0.2624 -0.3369
 1291W        W 5491   3.589   4.532  11.313  0.3387 -0.0476  0.1281
 1292W        W 5492   4.321   3.433   1.496  0.0092 -0.1910 -0.1264
 1293W        W 5493   0.952   3.332   0.330 -0.1195 -0.0527  0.0488
 1294W        W 5494   5.345   6.467   9.458 -0.3610  0.0527 -0.0932
 1295W        W 5495   4.564   7.038   4.095 -0.2140 -0.2914  0.0998
 1296W        W 5496   5.026   9.852  11.097 -0.1477 -0.2416 -0.0042
 1297W        W 5497   9.267   0.052   0.183  0.0968  0.1099  0.1131
 1298W        W 5498   2.144   5.121  13.505 -0.1496 -0.0845 -0.1861
 1299W        W 5499   9.632   0.425   0.286  0.2926 -0.0078 -0.0765
 1300W        W 5500   2.850   0.667  13.040  0.2442 -0.2090  0.0154
 1301W        W 5501   2.202   7.884   2.549 -0.0068 -0.0112 -0.0632
 1302W        W 5502   5.210   3.334   3.421  0.1472 -0.0776 -0.0495
 1303W        W 5503   6.506  10.187   9.817  0.1041 -0.0672  0.3558
 1304W        W 5504   6.454   6.870  10.873  0.0188  0.2074 -0.1042
 1305W        W 5505   0.813   1.448   9.689 -0.0281  0.0422 -0.4362
 1306W        W 5506   5.009   8.519  10.142 -0.0303 -0.0342 -0.1337
 1307W        W 5507   0.056   0.379  10.706  0.0941 -0.0276  0.1482
 1308W        W 5508   2.116   8.673   0.320  0.2597  0.2096  0.0691
 1309W        W 5509   1.895   5.390   2.175 -0.1905 -0.2191  0.0295
 1310W        W 5510   9.295   9.121   3.780  0.0085 -0.3852 -0.3419
 1311W        W 5511   4.702   5.975   0.909  0.0297 -0.0064  0.0485
 1312W        W 5512   8.048   5.628   4.284 -0.1103  0.3276 -0.1887
 1313W        W 5513   7.051   6.428   9.538  0.1586 -0.1123  0.0237
 1314W        W 5514   7.138  10.199   2.100 -0.0085  0.3285 -0.2614
 1315W        W 5515   0.202   5.370  12.835 -0.2526 -0.2746  0.3520
 1316W        W 5516   5.337   6.528   4.324 -0.2552  0.0614  0.0180
 1317W        W 5517   4.838   7.551  10.887 -0.1453  0.3702  0.1270
 1318W        W 5518   4.087   2.824   1.009 -0.0157 -0.2014 -0.1759
 1319W        W 5519   9.568   1.388   4.746  0.1209 -0.2792 -0.1843
 1320W        W 5520   3.931   4.585   4.504  0.1586  0.1786  0.2061
 1321W        W 5521   2.041   2.540   2.779  0.0007 -0.2642  0.1847
 1322W        W 5522   6.534   3.549   9.592 -0.2994 -0.0733 -0.1014
 1323W        W 5523   8.439   4.827   3.815  0.2826  0.3124  0.1973
 1324W        W 5524   1.842   9.642  12.888 -0.2853  0.2235 -0.1274
 1325W        W 5525   5.553   3.533   0.533 -0.1525  0.1523 -0.1284
 1326W        W 5526   6.327   0.782   3.016  0.3135  0.2165  0.1985
 1327W        W 5527   7.499   8.959   0.678  0.1757  0.2432 -0.2582
 1328W        W 5528   1.599   9.943   1.060  0.0507 -0.2235 -0.0397
 1329W        W 5529  10.377   2.109   3.885  0.0641  0.0745 -0.1461
 1330W        W 5530   1.114   1.240   2.914  0.2094  0.0040  0.0567
 1331W        W 5531   4.142   4.685  13.057  0.1077  0.2009  0.1707
 1332W        W 5532   0.054   1.494  13.589  0.1527  0.1375  0.0800
 1333W        W 5533   3.273   2.406  10.476  0.1967 -0.1001 -0.0267
 1334W        W 5534   9.764   7.215  10.007 -0.0788  0.4318 -0.3618
 1335W        W 5535   1.350   2.423  10.333 -0.3860 -0.2082  0.2522
 1336W        W 5536   3.579   5.719   4.370  0.1091 -0.1618  0.0121
 1337W        W 5537   1.568   9.910   3.083  0.0644  0.1140  0.1585
 1338W        W 5538   2.896   3.825   0.365 -0.0362 -0.1419  0.4514
 1339W        W 5539   5.752   7.024  12.435 -0.2198 -0.0751 -0.2055
 1340W        W 5540   2.732   1.502   3.658 -0.1856  0.6058  0.1467
 1341W        W 5541   1.573   9.801  11.007  0.1639  0.1883 -0.0581
 1342W        W 5542   6.871   4.797   4.149  0.0262 -0.0269  0.2134
 1343W        W 5543   7.466   7.959  11.156  0.0839  0.0099  0.1225
 1344W        W 5544   4.731   2.731  10.551 -0.1498 -0.0222 -0.3914
 1345W        W 5545   0.546   1.906   2.655  0.1259  0.0725  0.0260
 1346W        W 5546   5.133   9.684   1.918 -0.1337 -0.1423  0.0788
 1347W        W 5547   9.797   0.754   4.432  0.0083 -0.1540 -0.1963
 1348W        W 5548  10.141   8.991  10.792 -0.0348  0.0163  0.1180
 1349W        W 5549   8.505   8.537  10.601 -0.3235  0.1001 -0.0150
 1350W        W 5550   3.494   9.563  11.179  0.2240  0.3240  0.0215
 1351W        W 5551   2.704   3.634  11.759 -0.0298 -0.0549  0.1115
 1352W        W 5552   2.255  10.235   9.652  0.1183  0.1072  0.2234
 1353W        W 5553   1.972   8.888  10.894  0.1324 -0.2811  0.0426
 1354W        W 5554   4.988   1.883   3.109  0.2709 -0.1573  0.3086
 1355W        W 5555   0.474   7.275   2.030 -0.0641  0.1155 -0.1053
 1356W        W 5556   4.046   3.289   1.954 -0.2820 -0.1281 -0.0712
 1357W        W 5557   5.085   3.259   2.102  0.1189 -0.1642 -0.0601
 1358W        W 5558   4.493   7.228  10.247 -0.0969 -0.1133 -0.1626
 1359W        W 5559   5.323   9.967   0.596 -0.0408 -0.2592 -0.2438
 1360W        W 5560   9.151   9.504   1.324 -0.0816  0.0810  0.0724
 1361W        W 5561   1.272  10.311   2.385  0.0012 -0.0589  0.0072
 1362W        W 5562   8.237   9.286   8.951 -0.1688 -0.2630  0.0968
 1363W        W 5563   5.653   7.061   2.973 -0.0958 -0.3405 -0.0915
 1364W        W 5564   7.794   1.359  12.143 -0.0802 -0.1307 -0.1657
 1365W        W 5565   5.283   5.080  12.060  0.0991 -0.1118 -0.0857
 1366W        W 5566   6.917   0.168   4.675 -0.1046 -0.0049  0.1577
 1367W        W 5567   9.628   5.632   0.540 -0.0109  0.3986 -0.3257
 1368W        W 5568   9.390   2.266   9.655 -0.1371 -0.1936  0.4741
 1369W        W 5569   2.199  10.253  11.313  0.1062 -0.0511 -0.2979
 1370W        W 5570   7.678   1.720   9.617  0.1942 -0.0218  0.1951
 1371W        W 5571   9.502   7.132  11.570 -0.2049 -0.0304 -0.2164
 1372W        W 5572   5.009   2.829   3.179 -0.3089 -0.0797 -0.1885
 1373W        W 5573   5.294   3.212   9.703 -0.2634  0.2638  0.5640
 1374W        W 5574   6.614  10.141  11.945 -0.0419 -0.1437 -0.1648
 1375W        W 5575   9.026   3.594   2.433 -0.1461 -0.3074  0.1002
 1376W        W 5576   5.960   0.725   2.647 -0.1623 -0.1162  0.2045
 1377W        W 5577   9.467   1.900   3.639 -0.0052  0.1502  0.1373
 1378W        W 5578   6.532   7.298  12.923 -0.0878 -0.0786  0.0584
 1379W        W 5579   4.847   7.031   0.905 -0.0566  0.0632  0.0674
 1380W        W 5580   3.628   1.145   0.731  0.0643 -0.2983  0.0902
 1381W        W 5581   5.111   0.237   8.900 -0.0331  0.3982  0.2437
 1382W        W 5582   6.837   6.154  12.408  0.2435 -0.2646 -0.1320
 1383W        W 5583   0.039   8.772   9.794  0.0506  0.1613 -0.0267
 1384W        W 5584   7.416   0.270   5.081  0.0075  0.2486  0.1368
 1385W        W 5585   6.818   8.574   0.065  0.0891 -0.1091  0.4143
 1386W        W 5586   9.626   8.093  12.232 -0.1305  0.2514 -0.0401
 1387W        W 5587   3.587   7.680   9.715  0.0101 -0.0652 -0.0386
 1388W        W 5588   3.796  10.234  10.419 -0.0481 -0.2871 -0.0008
 1389W        W 5589   0.758   9.728   8.883  0.1292 -0.0141  0.1775
 1390W        W 5590   3.029   7.133   5.641  0.1562  0.0956 -0.1643
 1391W        W 5591   5.782   2.241  11.803  0.1397  0.0108 -0.1385
 1392W        W 5592   8.584   2.910  10.112  0.0131 -0.2744  0.0186
 1393W        W 5593   8.951   4.641   4.619  0.0234  0.0652 -0.2415
 1394W        W 5594   7.165   2.846  11.377 -0.5155  0.0940  0.0555
 1395W        W 5595   4.011   3.767   1.210 -0.1389 -0.1346  0.1467
 1396W        W 5596   7.901   6.195   0.370  0.1883  0.1348  0.2586
 1397W        W 5597   0.641   2.329  12.403  0.1176  0.3330 -0.0645
 1398W        W 5598   9.334   1.115   0.713 -0.1085  0.0639  0.0884
 1399W        W 5599   6.485   0.726   5.275 -0.0356 -0.1053  0.1433
 1400W        W 5600   2.506   6.795  11.824  0.0091  0.0374  0.2996
 1401W        W 5601   1.246   7.434   0.336  0.2688 -0.1000 -0.2386
 1402W        W 5602   7.201   5.426  11.086  0.0875 -0.0105 -0.3606
 1403W        W 5603   7.790   0.973   2.641  0.0209 -0.0906  0.1267
 1404W        W 5604   5.916   3.660   8.384  0.1814  0.2165  0.1039
 1405W        W 5605   7.360   6.292   5.115 -0.1756  0.1784  0.3288
 1406W        W 5606   8.640   9.271   1.206 -0.2187  0.0931  0.0774
 1407W        W 5607   2.391   9.497  10.069 -0.1676 -0.0410 -0.0102
 1408W        W 5608   6.086   1.868   1.378 -0.0541  0.2960 -0.2647
 1409W        W 5609   5.319   9.338   0.081 -0.0305  0.0157 -0.1713
 1410W        W 5610   6.706   0.097  10.109 -0.1352  0.0268  0.0307
 1411W        W 5611   7.522   3.065  10.873 -0.0324  0.1671  0.0256
 1412W        W 5612   0.233   8.676   1.353 -0.2836  0.0569  0.2187
 1413W        W 5613   1.930   3.369   0.473  0.2048 -0.2920 -0.0323
 1414W        W 5614   7.132   1.172   4.409 -0.1059 -0.3706  0.1293
 1415W        W 5615   2.394   1.557   2.870  0.1437 -0.0390 -0.0537
 1416W        W 5616  10.121   7.119   0.345  0.0048 -0.0797 -0.4466
 1417W        W 5617   5.493   3.402  11.351 -0.2271  0.2830  0.1562
 1418W        W 5618   5.242   1.926   4.643 -0.0333 -0.0465  0.5729
 1419W        W 5619  10.034  10.132  11.753 -0.1969 -0.0370  0.0523
 1420W        W 5620   9.653   0.155   1.791  0.2275 -0.0862  0.0888
 1421W        W 5621   8.938   9.138  11.885  0.0554 -0.2006 -0.1933
 1422W        W 5622   7.541   9.534   3.384 -0.0925 -0.1812 -0.0164
 1423W        W 5623   8.981   5.748   2.338 -0.1546  0.1829  0.1565
 1424W        W 5624   6.529   8.659  12.557  0.0276  0.0082 -0.1934
 1425W        W 5625   2.151   6.612  11.481  0.0333 -0.0080  0.2185
 1426W        W 5626   5.837   0.970  12.387  0.0017  0.1999 -0.0927
 1427W        W 5627   7.288   3.963   8.709 -0.0621 -0.1992  0.1521
 1428W        W 5628   9.385   5.435  12.200 -0.1205 -0.1245  0.1338
 1429W        W 5629   5.578   0.787  13.441 -0.0225  0.0249  0.2698
 1430W        W 5630   8.841   2.567  10.378 -0.1357  0.0861  0.2323
 1431W        W 5631   6.603   0.790   2.628  0.0016 -0.2134 -0.2231
 1432W        W 5632  10.359   8.871  13.123 -0.2237  0.0747 -0.0247
 1433W        W 5633   2.112   2.111   1.089 -0.2327  0.0341 -0.2909
 1434W        W 5634   8.250   1.985  13.194 -0.1594 -0.2745  0.2506
 1435W        W 5635   9.602   1.930   0.891  0.3025 -0.1961 -0.3205
 1436W        W 5636   2.374   0.644  10.521  0.3744 -0.2552  0.2360
 1437W        W 5637   9.730   5.665  13.238 -0.1900  0.4362 -0.1774
 1438W        W 5638   6.023   3.738   9.524  0.0032  0.1100  0.1476
 1439W        W 5639   7.474   6.276  12.694 -0.1139  0.1771 -0.1797
 1440W        W 5640   5.986   4.613   9.863 -0.0458 -0.1371  0.3059
 1441W        W 5641   8.036   9.295  13.535 -0.0269  0.0874 -0.0115
 1442W        W 5642   4.670   3.164   2.357 -0.3607 -0.1324 -0.0104
 1443W        W 5643   4.624   5.897  12.904  0.2556 -0.1092  0.0265
 1444W        W 5644   5.338   3.434   4.877 -0.2714  0.1541 -0.1622
 1445W        W 5645   6.350   7.037  12.512  0.0960  0.0754 -0.2105
 1446W        W 5646   5.839   3.858  12.271 -0.0829 -0.0517  0.0976
 1447W        W 5647  10.034   5.576   1.830 -0.1119 -0.0060  0.0595
 1448W        W 5648   5.336   6.412   1.902  0.1563 -0.2501 -0.0288
 1449W        W 5649   6.665   7.397   3.202 -0.1402 -0.0893  0.0815
 1450W        W 5650   7.111   9.307  12.741 -0.2833  0.0731  0.0523
 1451W        W 5651   4.365   9.459   8.475 -0.0615  0.0010 -0.1593
 1452W        W 5652   1.697   7.056   2.631 -0.0358 -0.0170  0.0037
 1453W        W 5653   3.797   3.189  10.192 -0.1815 -0.2804  0.1523
 1454W        W 5654   4.578   4.162  13.249 -0.1015 -0.1013 -0.3447
 1455W        W 5655   1.220   1.109   2.454  0.2766  0.0900  0.1009
 1456W        W 5656   4.159   9.678   2.104  0.1299  0.1496  0.0603
 1457W        W 5657   0.119   2.264  13.519 -0.0004 -0.0406 -0.4144
 1458W        W 5658   2.090   7.793  11.772 -0.3208  0.2627 -0.0243
 1459W        W 5659   4.519   7.963  13.339 -0.4668  0.3417  0.1002
 1460W        W 5660   0.478   4.900   1.479 -0.0404  0.0549  0.1750
 1461W        W 5661   9.223   2.675   0.071 -0.1669  0.1322 -0.0688
 1462W        W 5662   6.344  10.218  11.436 -0.0822 -0.2328 -0.1070
 1463W        W 5663   8.260   9.827   9.054 -0.2080  0.1208  0.0607
 1464W        W 5664   8.507   1.318   1.917  0.1981  0.0205  0.1551
 1465W        W 5665  10.275   3.799   3.351  0.0559 -0.2353 -0.1981
 1466W        W 5666   5.154   3.434   4.418 -0.0474 -0.0197 -0.1503
 1467W        W 5667   5.024   2.003  12.246  0.3580 -0.1547 -0.3242
 1468W        W 5668   9.877   5.065   4.669 -0.1639 -0.0656  0.0084
 1469W        W 5669   2.563   7.669  10.207 -0.1661 -0.2253  0.0713
 1470W        W 5670   5.808   5.759   2.508 -0.3328  0.1707  0.1349
 1471W        W 5671   1.394   4.713   0.353 -0.1608  0.0039  0.1030
 1472W        W 5672   5.178   0.801  10.366 -0.2240  0.0652 -0.2095
 1473W        W 5673   9.381   1.331   2.386 -0.0238  0.1536 -0.1081
 1474W        W 5674   9.825   6.291  12.124 -0.1669 -0.1996  0.2647
 1475W        W 5675   5.696   4.559   2.209 -0.1362 -0.2868 -0.0993
 1476W        W 5676   8.159   6.781   4.782 -0.1122  0.3858  0.1313
 1477W        W 5677   0.203   7.956  12.226 -0.2444 -0.1963 -0.1953
 1478W        W 5678   6.252   3.106   9.586 -0.0546 -0.0031  0.2769
 1479W        W 5679   5.712   4.545  11.455 -0.0812  0.2808 -0.1048
 1480W        W 5680   5.213   0.621   0.155  0.2151  0.1505  0.1077
 1481W        W 5681   1.715   2.626  13.502 -0.0235 -0.1886  0.0446
 1482W        W 5682   5.793  10.436   2.673 -0.0250 -0.1936  0.1275
 1483W        W 5683   2.898   5.211   2.248 -0.0950 -0.0906 -0.0085
 1484W        W 5684   8.388   2.536  11.526 -0.1762  0.2243  0.0451
 1485W        W 5685   0.262   4.501  10.338  0.0012  0.1763  0.1705
 1486W        W 5686   1.415   0.290  11.074 -0.2273 -0.1566  0.0932
 1487W        W 5687   3.831   2.909   2.332 -0.0319 -0.2040 -0.1838
 1488W        W 5688   2.553   6.771   9.384  0.1700 -0.0515  0.3747
 1489W        W 5689   4.430   7.572  12.638  0.0979  0.0436 -0.0899
 1490W        W 5690   2.999   9.836  10.921  0.0519  0.0099  0.2664
 1491W        W 5691   9.583   7.933  11.253 -0.0739 -0.0609  0.2353
 1492W        W 5692   1.543   2.447  10.767 -0.2435  0.0699 -0.2303
 1493W        W 5693   2.733   7.367  12.207 -0.0567 -0.1119 -0.0353
 1494W        W 5694   3.873   4.257   2.495 -0.0033  0.0566 -0.0408
 1495W        W 5695   7.165   4.821   9.229 -0.0328 -0.2112 -0.1769
 1496W        W 5696   8.089   2.987   1.193  0.0651 -0.2317  0.0091
 1497W        W 5697   4.911   8.791   0.830 -0.1605  0.0367  0.0824
 1498W        W 5698   2.344   3.259  12.499 -0.0187 -0.0049  0.2545
 1499W        W 5699   5.332   7.952   2.469  0.1989 -0.0568 -0.2808
 1500W        W 5700   2.867   6.743   2.861 -0.1497  0.2468  0.1278
 1501W        W 5701   2.690   8.808   4.069 -0.3418 -0.2024  0.0193
 1502W        W 5702  10.164   5.847   0.634  0.0926  0.2920  0.0196
 1503W        W 5703   9.884   0.399   1.210  0.0324 -0.1285 -0.1083
 1504W        W 5704   7.481   4.870  10.487  0.1585  0.2859  0.0474
 1505W        W 5705   7.578   5.869   4.710  0.1492  0.1927 -0.4050
 1506W        W 5706   4.188   2.976   3.301  0.0989 -0.3449  0.0334
 1507W        W 5707   0.613   7.957   4.141  0.2132  0.3087  0.1071
 1508W        W 5708   2.932   6.943   4.887 -0.2144  0.0664  0.1535
 1509W        W 5709   9.941   6.178   4.731  0.1037  0.0997  0.2878
 1510W        W 5710   9.747   6.678   0.082  0.1669  0.1250  0.0079
 1511W        W 5711   3.880   3.715  13.539 -0.0216 -0.0572  0.1452
 1512W        W 5712   6.221   5.335  12.059 -0.0319  0.1321 -0.2180
 1513W        W 5713   9.125   9.673  10.879 -0.1738 -0.3391  0.0668
 1514W        W 5714   9.177   9.903   3.152  0.0145 -0.1747 -0.1259
 1515W        W 5715   5.566   7.218  11.243 -0.3197 -0.2447 -0.1185
 1516W        W 5716   1.512   6.528  11.603 -0.1032  0.3840 -0.1185
 1517W        W 5717   9.641   6.440   0.679  0.0271 -0.2123  0.0970
 1518W        W 5718   4.637   1.706  12.184  0.3459 -0.2741  0.0725
 1519W        W 5719  10.120   0.005   9.006  0.2345  0.0489  0.1532
 1520W        W 5720   3.103   1.655  12.955 -0.0516 -0.0383 -0.1941
 1521W        W 5721   2.208   0.129   8.864  0.3510 -0.2040  0.0192
 1522W        W 5722   0.182   0.134   8.880 -0.3619  0.0848  0.0174
 1523W        W 5723   8.101   7.237  11.931  0.3209  0.0997  0.4011
 1524W        W 5724   5.371   7.943  12.459 -0.0593 -0.1908  0.0828
 1525W        W 5725   9.329   3.069  12.542  0.0479  0.2340 -0.0838
 1526W        W 5726   7.961   3.537  13.197 -0.3022 -0.1774  0.0612
 1527W        W 5727   3.805   0.040   1.706 -0.0027  0.1839 -0.0064
 1528W        W 5728   2.702   7.351   1.453  0.1449 -0.1115  0.3378
 1529W        W 5729   7.061   6.291  10.127 -0.0923 -0.0253  0.2648
 1530W        W 5730   2.662   6.102  10.242 -0.0958  0.1102  0.2301
 1531W        W 5731   0.617  10.297  13.028 -0.4376 -0.2497 -0.1183
 1532W        W 5732   3.911   9.349   3.799 -0.3634  0.0298  0.0357
 1533W        W 5733   0.617   9.416   3.174 -0.2308  0.4436  0.1663
 1534W        W 5734   4.561   6.050   3.037 -0.0732  0.0718  0.0920
 1535W        W 5735   1.807   7.585   1.068  0.0721  0.1461  0.1224
 1536W        W 5736  10.334   9.694   2.511 -0.1726  0.0445 -0.0110
 1537W        W 5737   4.228   8.110   4.872  0.3454  0.0670  0.0038
 1538W        W 5738   4.494   3.101   2.856  0.0712 -0.2328  0.5723
 1539W        W 5739   7.231   1.613   9.358  0.0639  0.0027 -0.1416
 1540W        W 5740   1.460   5.504  10.101  0.3605  0.0565  0.0756
 1541W        W 5741   6.243   4.350   0.997  0.1601  0.2061  0.0776
 1542W        W 5742  10.422   0.675  10.331  0.2403 -0.3508 -0.1634
 1543W        W 5743   7.690   0.067   0.613 -0.0922 -0.0255 -0.0458
 1544W        W 5744   2.793   8.095  12.885 -0.0415  0.0304 -0.0830
 1545W        W 5745   5.101   0.185   4.084  0.0947  0.1095  0.2169
 1546W        W 5746   5.239   1.643  11.108 -0.1067 -0.2190  0.0345
 1547W        W 5747   3.347   8.171  13.509 -0.2831 -0.0982  0.1870
 1548W        W 5748   2.437   8.030   4.572 -0.5358 -0.2593 -0.0174
 1549W        W 5749   1.562   3.728  10.780 -0.1836 -0.1431  0.3028
 1550W        W 5750   3.677   8.689   2.568 -0.0871  0.2606 -0.1683
 1551W        W 5751   5.124   9.334   3.230  0.2309  0.1235 -0.1331
 1552W        W 5752   2.457   6.444   2.725  0.2983  0.2113 -0.0273
 1553W        W 5753   5.028   7.231  11.229  0.2649 -0.0580 -0.3150
 1554W        W 5754   2.616   3.206  12.050 -0.0541 -0.0885 -0.1328
 1555W        W 5755  10.331   4.543   0.925 -0.0191  0.2200 -0.0767
 1556W        W 5756   6.688  10.051   0.808 -0.0391 -0.2948  0.1832
 1557W        W 5757   6.339   2.571   1.961 -0.0250 -0.0592  0.3252
 1558W        W 5758   8.537   0.464   9.208 -0.0594 -0.1927 -0.1260
 1559W        W 5759   1.298   4.026  13.572  0.2335  0.1329  0.0200
 1560W        W 5760   4.621   3.173  10.785  0.0127 -0.0997 -0.2398
 1561W        W 5761   9.768   9.417   4.371  0.1137  0.0046 -0.2643
 1562W        W 5762   9.866   8.224   1.168 -0.1599  0.1846  0.0799
 1563W        W 5763   8.744   9.369  10.040 -0.1007 -0.1222 -0.0038
 1564W        W 5764   0.677   9.147  13.361 -0.2082  0.3507  0.1518
 1565W        W 5765   9.259   6.242   0.955  0.2829  0.0119 -0.0407
 1566W        W 5766   1.548   8.932   3.118 -0.1251 -0.0031 -0.2141
 1567W        W 5767   9.516   0.733  10.498  0.1260 -0.1156 -0.0861
 1568W        W 5768   4.534   3.690  11.107  0.0528 -0.0219 -0.2561
 1569W        W 5769   0.952   8.676  13.115 -0.2727 -0.0102  0.0386
 1570W        W 5770   3.205   1.934  12.019  0.1938 -0.0072  0.0079
 1571W        W 5771   4.470   8.305  11.144  0.0693 -0.1382  0.2044
 1572W        W 5772   2.706   7.135  11.492 -0.2072 -0.2442 -0.2363
 1573W        W 5773   4.648   2.687   0.984  0.1468 -0.1631 -0.1722
 1574W        W 5774   5.253  10.076  13.198 -0.1368 -0.1859 -0.0568
 1575W        W 5775   5.064   7.256  12.947 -0.0057 -0.0684 -0.4798
 1576W        W 5776   4.138   8.171   9.222 -0.0136  0.1376 -0.0884
 1577W        W 5777   5.203   1.603  10.040  0.1948 -0.0879 -0.0635
 1578W        W 5778   7.000   0.446   9.603  0.0060  0.0177 -0.1245
 1579W        W 5779   1.553   4.291   6.528  0.0784 -0.2765  0.1803
 1580W        W 5780   6.745   7.374  11.664  0.0767 -0.2153  0.0741
 1581W        W 5781   7.697   3.977  12.522 -0.1261 -0.1768  0.1691
 1582W        W 5782   6.589   6.275  10.913  0.1690 -0.0173 -0.1872
 1583W        W 5783   7.799   3.825   0.679  0.3787 -0.2071  0.1163
 1584W        W 5784   7.770   1.227  11.687 -0.2159  0.1400 -0.1485
 1585W        W 5785   9.826  10.118   1.523 -0.3108  0.0948 -0.0254
 1586W        W 5786   5.253   6.920   1.235  0.1277 -0.0412  0.3322
 1587W        W 5787   8.708   4.721   0.912  0.2929 -0.1804  0.0527
 1588W        W 5788   6.533   0.375   0.330 -0.1710 -0.0396 -0.1317
 1589W        W 5789   6.037   1.489   9.322 -0.5532 -0.1360 -0.2165
 1590W        W 5790   9.656   2.471   0.954 -0.0297 -0.0617  0.0898
 1591W        W 5791   7.013   1.530  12.372  0.0799 -0.0467 -0.2663
 1592W        W 5792   1.573  10.284  10.157 -0.2738 -0.1681  0.1333
 1593W        W 5793   9.549   1.567   2.771 -0.1092 -0.3995 -0.0246
 1594W        W 5794   0.983   3.282  11.393 -0.0606  0.0645 -0.0231
 1595W        W 5795   3.423   4.914   0.213 -0.1551 -0.2716  0.3904
 1596W        W 5796   0.153  10.203   3.205  0.0119 -0.2042  0.2363
 1597W        W 5797   6.125   6.075  13.477 -0.1615 -0.2526  0.0577
 1598W        W 5798   5.432   6.129   9.927  0.2108  0.0821 -0.0628
 1599W        W 5799   7.128   0.398  11.462 -0.1613 -0.0259  0.0190
 1600W        W 5800   8.824   2.435   8.869  0.1217  0.1649  0.0147
 1601W        W 5801   7.945   8.363  13.298  0.0844  0.2775  0.3820
 1602W        W 5802   9.866   5.006   9.614 -0.1237 -0.3568  0.1274
 1603W        W 5803   6.299   0.391  10.923  0.0294  0.1141 -0.0885
 1604W        W 5804   0.280   8.822   4.596  0.0602  0.0831 -0.0119
 1605W        W 5805   4.531   0.095  10.152 -0.0695 -0.0019 -0.3041
 1606W        W 5806   4.412   6.509   2.323  0.1503  0.0276  0.3483
 1607W        W 5807   7.833   2.856   1.657  0.0246  0.0332  0.1004
 1608W        W 5808   3.891   0.072   3.186 -0.0969 -0.2375 -0.3660
 1609W        W 5809   7.436   7.329   3.537 -0.0768  0.4151  0.1890
 1610W        W 5810   3.871   2.818   3.710 -0.1367 -0.0488 -0.0407
 1611W        W 5811   4.261   6.496  10.794 -0.1281  0.2748 -0.0527
 1612W        W 5812   2.855   2.612  10.280  0.1248 -0.0191  0.2698
 1613W        W 5813   6.873   3.816   2.738 -0.1185  0.3854 -0.1126
 1614W        W 5814   0.467   9.507  10.393  0.1656  0.0268  0.2435
 1615W        W 5815   1.951   4.636   3.382  0.2211 -0.0710 -0.2842
 1616W        W 5816   1.959   8.846  11.982  0.0823 -0.0129  0.1587
 1617W        W 5817   5.989   1.910  12.832 -0.3136  0.2152  0.0314
 1618W        W 5818   1.970   5.224   2.676 -0.0915  0.0553 -0.0909
 1619W        W 5819   0.281  10.324  10.659 -0.0374 -0.1897 -0.0169
 1620W        W 5820   4.704   7.891   0.951  0.0119  0.0564 -0.1553
 1621W        W 5821   1.344   0.060  12.916  0.0947 -0.1323 -0.1340
 1622W        W 5822   7.052   1.043   2.581  0.0505 -0.1818  0.0285
 1623W        W 5823   6.795  10.273   2.451 -0.1787  0.0024  0.0050
 1624W        W 5824  10.304   6.521   2.133  0.1334 -0.3117  0.2926
 1625W        W 5825   3.441   8.832  10.547 -0.0349 -0.2274  0.1199
 1626W        W 5826   7.981   2.932   4.868 -0.1352 -0.0462 -0.3093
 1627W        W 5827   8.453   6.896  12.737  0.1062 -0.0861 -0.1208
 1628W        W 5828   2.010   5.792   3.361  0.0812  0.1538 -0.1457
 1629W        W 5829   4.803   1.854  10.796 -0.1116  0.0020  0.1013
 1630W        W 5830   4.540   6.813   1.695 -0.3256 -0.2200 -0.0618
 1631W        W 5831   3.889   0.591  10.400 -0.0783 -0.0366  0.3619
 1632W        W 5832   4.170   3.651   0.680 -0.1858 -0.1140 -0.1708
 1633W        W 5833   1.896   9.180   1.166 -0.2848  0.0625  0.2437
 1634W        W 5834   2.620   3.349  13.392 -0.0427 -0.1386 -0.0703
 1635W        W 5835   5.426   6.645  11.989  0.0742  0.1657 -0.0677
 1636W        W 5836   8.465   3.995  11.955 -0.2765  0.3232 -0.0327
 1637W        W 5837   1.512   5.358   2.466  0.0659  0.0333 -0.3386
 1638W        W 5838  10.159   6.470   9.291 -0.2217 -0.5207  0.2744
 1639W        W 5839   1.105   9.543  10.248  0.2994  0.0199  0.1066
 1640W        W 5840   1.752   2.486   1.030  0.1580  0.0248  0.0300
 1641W        W 5841   6.445   8.144  12.443  0.0853 -0.0266  0.1408
 1642W        W 5842   8.666   5.120   1.793 -0.4710  0.3195 -0.0773
 1643W        W 5843  10.381   4.133   0.618 -0.2296 -0.0394 -0.0258
 1644W        W 5844  10.072   7.481   9.086 -0.0496 -0.0311 -0.1852
 1645W        W 5845   8.452   3.593  13.161 -0.2636 -0.1899 -0.0906
 1646W        W 5846   5.476   7.146  12.040 -0.1612  0.1865  0.1187
 1647W        W 5847   1.577   9.254   3.707  0.1196 -0.1644 -0.0851
 1648W        W 5848   3.692   3.829  12.863  0.0838  0.2212  0.2876
 1649W        W 5849   2.168   3.867   1.548  0.0683 -0.0412  0.1990
 1650W        W 5850   1.630   8.027   4.369  0.1304 -0.1264 -0.1581
 1651W        W 5851   8.511   9.448   9.318  0.0711 -0.0571  0.1029
 1652W        W 5852   5.254   2.775   0.798 -0.4896 -0.0688  0.1897
 1653W        W 5853   8.615   6.383   9.880  0.0027  0.1525 -0.0576
 1654W        W 5854   4.393   5.715   3.527 -0.4675 -0.0926 -0.2856
 1655W        W 5855   7.773   9.940  12.546  0.0945 -0.0992 -0.1956
 1656W        W 5856   9.014   7.380   2.323  0.0389  0.4288 -0.1584
 1657W        W 5857   6.853   0.665   3.100  0.0702 -0.0600  0.0124
 1658W        W 5858   9.772   0.264   2.877 -0.0245  0.1889  0.0973
 1659W        W 5859   9.319   0.894   9.655  0.1993  0.1847  0.1311
 1660W        W 5860   2.180   1.387  11.854  0.0746 -0.4269  0.0229
 1661W        W 5861   0.544   0.019   2.023  0.2678 -0.1735  0.0582
 1662W        W 5862   1.452   4.706   4.326  0.0929 -0.0648  0.1054
 1663W        W 5863   3.445   8.732  11.776 -0.4187  0.0971  0.0031
 1664W        W 5864  10.435   4.966   1.396 -0.2376  0.0787  0.4127
 1665W        W 5865   5.266   6.922  11.589  0.2910  0.1488  0.0631
 1666W        W 5866   0.538   8.741   9.937 -0.0124 -0.1769  0.3353
 1667W        W 5867   8.948   8.900   2.918 -0.0420 -0.0259 -0.1534
 1668W        W 5868   9.502   5.894   9.574  0.3493 -0.3866 -0.1008
 1669W        W 5869   5.889   6.171  12.638  0.1919  0.2514 -0.2441
 1670W        W 5870   0.874   7.367  13.127 -0.0843  0.1203 -0.0641
 1671W        W 5871   9.450  10.135  13.430  0.0030  0.2643  0.1736
 1672W        W 5872   8.491   8.842  12.315  0.0691  0.4429 -0.0875
 1673W        W 5873   1.288   7.515   2.014  0.1272  0.2271  0.3074
 1674W        W 5874   0.316   0.771   4.055  0.2192  0.0858 -0.2005
 1675W        W 5875   7.532   9.008   3.206 -0.0901  0.1378 -0.2151
 1676W        W 5876   2.549   2.802  10.771 -0.0242 -0.0393 -0.0999
 1677W        W 5877   3.058   2.295   1.842 -0.0309 -0.3564 -0.0343
 1678W        W 5878   4.784   0.781   2.145 -0.0943  0.0252 -0.0321
 1679W        W 5879   5.786   6.168  10.310  0.1686 -0.2553  0.1714
 1680W        W 5880   5.975   2.655   1.157 -0.1254  0.0965  0.1986
 1681W        W 5881   9.499   2.932   1.034 -0.1891  0.1620 -0.2413
 1682W        W 5882   4.828   2.713   2.130 -0.0698 -0.2288 -0.1878
 1683W        W 5883   8.491   6.912   0.175  0.0965  0.2733  0.2813
 1684W        W 5884   9.147   2.628   2.734 -0.0497 -0.0734  0.0245
 1685W        W 5885   8.867   9.152  13.228  0.1060 -0.0023  0.2469
 1686W        W 5886   0.220   7.053   1.238  0.0043 -0.1511  0.0286
 1687W        W 5887   2.856   3.887  12.547  0.1980  0.0759 -0.3851
 1688W        W 5888  10.011   9.755  12.197 -0.0589 -0.0422 -0.1456
 1689W        W 5889   1.405   9.109  10.443 -0.0793 -0.0816 -0.2627
 1690W        W 5890   3.111  10.420   8.779 -0.1693  0.1474  0.2147
 1691W        W 5891   3.459   5.988  11.904  0.0227 -0.1433  0.2101
 1692W        W 5892   1.817   6.835   0.463  0.1379 -0.0881  0.0416
 1693W        W 5893   2.786   2.311  11.508  0.1610 -0.1030 -0.1866
 1694W        W 5894   7.003   4.279  11.898 -0.0338 -0.3254  0.0098
 1695W        W 5895   1.707   4.837  11.884  0.1947  0.1050 -0.0167
 1696W        W 5896   0.216   0.845   0.799  0.0285  0.0428  0.1186
 1697W        W 5897   0.888  10.268   3.363  0.2395  0.2173 -0.1398
 1698W        W 5898   6.210   9.716  10.025  0.0384  0.2056  0.1777
 1699W        W 5899   5.022   0.963   3.657 -0.1448 -0.1832 -0.2106
 1700W        W 5900   1.976   3.094  12.875 -0.1131  0.2579  0.0309
 1701W        W 5901  10.403   2.500   9.368 -0.1784 -0.1820 -0.0833
 1702W        W 5902   6.595   7.352   9.996  0.2992 -0.2056 -0.2274
 1703W        W 5903   0.293   1.498   1.317 -0.1058 -0.2849  0.1551
 1704W        W 5904   9.866   6.860   0.820  0.1606  0.1760  0.0181
 1705W        W 5905   2.187   7.560   8.755 -0.0034 -0.0919  0.3420
 1706W        W 5906   7.950   2.915  10.419  0.0518  0.1095  0.1451
 1707W        W 5907   4.684   4.582  12.943  0.1832  0.0016 -0.0925
 1708W        W 5908   7.788   0.943   3.634 -0.0634 -0.3574  0.0867
 1709W        W 5909   9.809   7.337   0.637 -0.0411 -0.3061 -0.0626
 1710W        W 5910   5.442   8.473   4.090 -0.0480  0.3415 -0.3063
 1711W        W 5911   1.778   7.560   1.691 -0.1857  0.3350 -0.3798
 1712W        W 5912   1.769   4.137   3.414  0.1100 -0.2418  0.1134
 1713W        W 5913   9.492   9.232  12.639 -0.1762  0.0934  0.1140
 1714W        W 5914   8.498   3.985   0.293  0.1420 -0.0729  0.2938
 1715W        W 5915   2.782   4.899   3.088 -0.3655 -0.0698  0.1214
 1716W        W 5916   0.072   7.948   2.255 -0.1678  0.1050  0.2192
 1717W        W 5917   8.671   0.368  12.331  0.0389 -0.0986  0.2061
 1718W        W 5918   7.945   4.413  12.784  0.1800 -0.3946 -0.1402
 1719W        W 5919   6.205   6.478   0.256 -0.2457 -0.0538  0.5561
 1720W        W 5920   0.247   3.031   3.819 -0.2881  0.2897 -0.2156
 1721W        W 5921   5.939   8.663  12.153 -0.0185 -0.0164 -0.0107
 1722W        W 5922   1.187   0.684  12.037 -0.0527  0.1389 -0.0948
 1723W        W 5923   9.993   7.193   3.295 -0.1208  0.0439 -0.0279
 1724W        W 5924   7.390   3.587   0.970 -0.0260  0.0335  0.3333
 1725W        W 5925   5.243   1.951   9.675  0.0082 -0.0196  0.1606
 1726W        W 5926   7.733   4.383  13.413  0.2785  0.0390  0.1045
 1727W        W 5927   2.159   4.942   2.270  0.1941 -0.2412 -0.0871
 1728W        W 5928   8.738   9.700   1.679  0.0919  0.1171 -0.2483
 1729W        W 5929   3.674   4.982   9.326 -0.3947  0.1967  0.1908
 1730W        W 5930   4.783   8.089  10.216 -0.0415  0.1101 -0.0586
 1731W        W 5931   0.482   0.015   1.274 -0.0186  0.0308  0.0770
 1732W        W 5932   7.323   6.786   1.034  0.1657  0.2610 -0.5110
 1733W        W 5933   3.074   1.605  10.122 -0.0198 -0.1042 -0.0583
 1734W        W 5934  10.011   2.604   1.259  0.0570 -0.1648  0.1909
 1735W        W 5935   0.389   7.673   2.493 -0.0625  0.2984  0.2688
 1736W        W 5936   1.992   9.681   1.348  0.0124  0.2527  0.0012
 1737W        W 5937   9.351   0.420  12.309 -0.1344  0.2520  0.0543
 1738W        W 5938   8.523   7.991   0.629 -0.2774 -0.2255 -0.1704
 1739W        W 5939   7.300   3.608   4.476  0.0242 -0.1066  0.2413
 1740W        W 5940   9.009  10.108  11.727  0.1483  0.0811  0.0654
 1741W        W 5941   5.175   8.943   3.491 -0.3729  0.0462 -0.2501
 1742W        W 5942   7.920  10.028  11.400  0.1496 -0.0417  0.1921
 1743W        W 5943   0.503   6.691   3.362 -0.4102  0.0622  0.0897
 1744W        W 5944   2.389   9.379  13.518 -0.1212  0.1363 -0.2120
 1745W        W 5945   6.071   1.987  11.013 -0.3054 -0.0542 -0.0222
 1746W        W 5946   3.547   7.188   1.013 -0.2832 -0.2235 -0.0979
 1747W        W 5947   0.387   1.415   1.845  0.1430  0.2519  0.3972
 1748W        W 5948   8.370   3.595   1.841  0.0838 -0.1773  0.4575
 1749W        W 5949   6.803   4.154  13.457 -0.2128  0.1420 -0.2681
 1750W        W 5950   5.438   8.641   1.696  0.0444  0.0451  0.2161
 1751W        W 5951   4.957   0.680  11.062  0.0992  0.1434  0.0241
 1752W        W 5952   7.376   6.681   1.497  0.1348  0.0316 -0.2735
 1753W        W 5953   5.741   1.993   3.915 -0.4134  0.0201 -0.1862
 1754W        W 5954   2.575   6.444   9.795  0.0717  0.2145 -0.0694
 1755W        W 5955   5.331   7.263   4.741  0.1451  0.1328  0.1338
 1756W        W 5956   2.680   1.025   0.236 -0.1248 -0.3024 -0.2060
 1757W        W 5957   7.167  10.347   0.664  0.3107  0.0996 -0.4220
 1758W        W 5958   9.161   0.607   4.641 -0.0828 -0.0883  0.3730
 1759W        W 5959   9.527   9.739  12.510  0.0102  0.0358  0.0497
 1760W        W 5960   7.038   9.076   3.463 -0.1778 -0.0864 -0.0929
 1761W        W 5961   7.626   2.869   2.140 -0.1779  0.2855 -0.1719
 1762W        W 5962   5.944   9.618  10.534 -0.0036  0.3117 -0.1541
 1763W        W 5963   3.776   0.700   1.899  0.0708  0.2815 -0.0342
 1764W        W 5964   3.134   7.353   5.229 -0.2404  0.1191  0.2609
 1765W        W 5965   4.900   9.623   1.475 -0.1253  0.0921 -0.3169
 1766W        W 5966   1.068   2.008   1.196 -0.1292  0.5114  0.2970
 1767W        W 5967   5.163   6.837   2.920  0.0383 -0.1070  0.1872
 1768W        W 5968   9.337   8.771  11.803  0.0393  0.1122 -0.2145
 1769W        W 5969   4.082   6.267  11.763  0.0248  0.0161  0.1175
 1770W        W 5970   1.825   7.117   1.223 -0.1282  0.1888 -0.1184
 1771W        W 5971   8.192   7.093   9.698 -0.0235  0.0790 -0.3252
 1772W        W 5972   8.804   5.499   1.408 -0.2003 -0.0291 -0.0000
 1773W        W 5973  10.123   0.085  12.764 -0.2201  0.3948 -0.0881
 1774W        W 5974   3.566   4.541  11.850  0.3759 -0.1282  0.0449
 1775W        W 5975   2.362   7.027  12.304 -0.3000 -0.1632 -0.1379
 1776W        W 5976   8.213   9.728  13.481 -0.1678 -0.2091 -0.1318
 1777W        W 5977   8.157   8.043  12.893 -0.0593  0.0587 -0.0556
 1778W        W 5978   9.762   3.837   8.887 -0.4024  0.1654 -0.0595
 1779W        W 5979   2.214   7.910   0.841 -0.2544 -0.0243  0.3780
 1780W        W 5980   2.233   1.002   2.140 -0.4900 -0.0902  0.0475
 1781W        W 5981   9.070   4.010   0.405  0.2097 -0.2259  0.0483
 1782W        W 5982   6.396   5.533   9.735  0.1298 -0.1636  0.0838
 1783W        W 5983   1.528   1.986   1.015  0.2971  0.2962 -0.1764
 1784W        W 5984   9.517   4.834   1.411 -0.0096 -0.3298 -0.3127
 1785W        W 5985   1.671   0.505   1.554  0.1027 -0.1521 -0.4996
 1786W        W 5986   4.227   1.341  11.332  0.0902  0.0638 -0.0843
 1787W        W 5987   4.941   9.611   4.613 -0.1049  0.0177 -0.2551
 1788W        W 5988   0.859   1.128   2.126  0.2921  0.1523 -0.3055
 1789W        W 5989   5.592   8.428  11.883  0.3184 -0.0764 -0.1236
 1790W        W 5990   4.130   5.533  11.198 -0.1842 -0.0175  0.0726
 1791W        W 5991   3.793   4.361   0.766 -0.0024  0.1605  0.0348
 1792W        W 5992   1.349   7.745   0.742 -0.2751 -0.1730  0.1358
 1793W        W 5993   1.932   7.265   3.546  0.1676  0.3759  0.0237
 1794W        W 5994   1.197   8.354   2.697  0.1477 -0.2798  0.1293
 1795W        W 5995   3.157   0.120   0.349  0.2596  0.2443 -0.4361
 1796W        W 5996   4.311   9.319   9.505 -0.0058  0.4327 -0.2708
 1797W        W 5997   0.704   4.544   1.106  0.0707 -0.1491  0.1110
 1798W        W 5998   9.885   1.558  12.360 -0.0034  0.0129 -0.0615
 1799W        W 5999   0.514   9.234   8.916  0.0459 -0.2295  0.1950
 1800W        W 6000   8.239   7.738   1.566 -0.1057  0.2604 -0.0328
 1801W        W 6001   8.743  10.315   0.381 -0.2354 -0.1943 -0.2282
 1802W        W 6002   8.620   4.503   1.613 -0.1663 -0.3477  0.0211
 1803W        W 6003   8.960   9.655  11.902  0.1111 -0.2039  0.1119
 1804W        W 6004   2.587   9.728  11.712 -0.0761 -0.2318  0.3033
 1805W        W 6005   2.107   0.823  13.245 -0.1986  0.1724  0.0208
 1806W        W 6006   6.551   1.047  10.167 -0.0083  0.3051 -0.0990
 1807W        W 6007   2.309   2.056   1.583 -0.0356 -0.2245  0.5837
 1808W        W 6008   3.322   6.930   3.911  0.0075 -0.0445  0.0695
 1809W        W 6009  10.157   9.296   0.495 -0.0484  0.0171  0.0112
 1810W        W 6010   6.705   3.048  12.236  0.1954 -0.1155 -0.0908
 1811W        W 6011   7.518   6.158  13.227  0.2103  0.0864  0.4219
 1812W        W 6012   9.176   5.738  10.286 -0.0648 -0.0053  0.3377
 1813W        W 6013   3.045   0.494   0.776  0.0388 -0.2486 -0.1903
 1814W        W 6014   2.870   5.928   8.955 -0.0241  0.0525 -0.4059
 1815W        W 6015   5.859   7.961   0.907  0.1299 -0.0277 -0.1583
 1816W        W 6016   4.498   7.649   9.899 -0.0588  0.2549 -0.1821
 1817W        W 6017   7.467   1.276   5.476  0.0678 -0.1528 -0.1440
 1818W        W 6018   5.729  10.420   2.008  0.0733  0.0531  0.0388
 1819W        W 6019   4.807   1.932   3.630  0.1413  0.1159 -0.3084
 1820W        W 6020   6.305   6.182   4.088  0.5179 -0.1690 -0.2801
 1821W        W 6021   5.386   7.387  13.378  0.1501 -0.0473 -0.0216
 1822W        W 6022   7.497   5.958   0.106  0.0342  0.0194 -0.2523
 1823W        W 6023   9.826   2.215   4.549 -0.1302  0.1017  0.2839
 1824W        W 6024   0.504   7.521   9.276 -0.2779 -0.1517  0.0411
 1825W        W 6025   9.964  10.120   9.561 -0.1621 -0.0213 -0.0866
 1826W        W 6026   3.513   0.939  12.179 -0.2581  0.0847  0.3685
 1827W        W 6027   9.574   6.992   3.001  0.0887  0.1750  0.0047
 1828W        W 6028   4.352   8.611   9.086  0.2694  0.0237  0.2554
 1829W        W 6029   2.415   1.673   9.793  0.0617  0.2754 -0.0877
 1830W        W 6030   0.480   2.719  13.507 -0.0692 -0.3285  0.1758
 1831W        W 6031   6.000   7.309  10.099 -0.1619  0.1277 -0.3373
 1832W        W 6032   9.277   3.909   9.822 -0.0469  0.3590 -0.1400
 1833W        W 6033   2.104   2.266  12.769  0.1006  0.1284 -0.2041
 1834W        W 6034   8.162   9.689  12.195  0.0543 -0.0844  0.0309
 1835W        W 6035   3.277   9.318   0.931 -0.1291  0.1903 -0.3519
 1836W        W 6036   1.426  10.422  13.401 -0.1559 -0.0260  0.2085
 1837W        W 6037   1.159   8.023   9.681 -0.0164  0.0517 -0.0450
 1838W        W 6038  10.074   4.994   2.684 -0.0820 -0.0591  0.3107
 1839W        W 6039   4.620   8.924  12.602 -0.2280  0.1541 -0.0409
 1840W        W 6040   9.157   2.176   1.666 -0.5086  0.0509 -0.0618
 1841W        W 6041   0.728   5.007   2.819 -0.4645  0.0255 -0.1212
 1842W        W 6042   6.926   2.283   3.937  0.0347  0.0263  0.1704
 1843W        W 6043   3.412   1.935   2.857 -0.2744 -0.3479 -0.3091
 1844W        W 6044   1.617   8.035  11.925  0.2770 -0.0599  0.0624
 1845W        W 6045   3.160   9.888   1.963  0.0748 -0.2789 -0.1153
 1846W        W 6046   5.102   6.190   3.861 -0.2323  0.0403  0.2002
 1847W        W 6047   5.906   4.822   4.256  0.0671  0.2097 -0.0766
 1848W        W 6048   2.012   6.865   9.460 -0.0991 -0.2553  0.4179
 1849W        W 6049   7.107   7.009   4.560 -0.1497  0.0815 -0.0354
 1850W        W 6050  10.197   1.926   0.057  0.1441 -0.0547  0.0829
 1851W        W 6051   7.215   9.968  11.800 -0.1588  0.0071  0.4214
 1852W        W 6052  10.209   6.525  11.961 -0.1565  0.2735  0.1171
 1853W        W 6053   5.981   0.268   1.372  0.2337 -0.1410 -0.2625
 1854W        W 6054   6.516   1.611   9.527  0.1205 -0.0509 -0.1582
 1855W        W 6055   6.348   8.617   3.090 -0.0756  0.1985  0.0034
 1856W        W 6056   8.984   7.605   9.227  0.4924 -0.1586  0.1900
 1857W        W 6057   4.738   4.476  10.879 -0.0536 -0.1655 -0.1108
 1858W        W 6058   5.674   0.729   4.777  0.0998  0.0436 -0.1065
 1859W        W 6059   6.818   1.472   4.653 -0.2475  0.0906 -0.0432
 1860W        W 6060   4.685   2.273  12.954  0.2801  0.1132  0.2891
 1861W        W 6061   6.247   2.316   1.498  0.1071 -0.0375  0.1741
 1862W        W 6062   8.736   1.172   2.902  0.1189 -0.1548  0.0247
 1863W        W 6063  10.298   7.484   0.650 -0.3143  0.1241  0.0982
 1864W        W 6064   2.987   6.502  10.154 -0.2402 -0.1116  0.0828
 1865W        W 6065   5.791   3.383  13.118 -0.1276  0.0595 -0.1264
 1866W        W 6066   2.157   8.731   1.187 -0.2719  0.0119  0.3035
 1867W        W 6067   4.982   1.368  12.033  0.1699  0.0596  0.0416
 1868W        W 6068   3.069   4.676  11.113 -0.4507 -0.1705  0.2838
 1869W        W 6069   2.375   2.427   2.399  0.0529  0.0616 -0.4881
 1870W        W 6070   8.999   0.857   8.327  0.0638 -0.1927 -0.3395
 1871W        W 6071   0.957   7.706   3.805 -0.0370  0.1832 -0.0226
 1872W        W 6072   1.966   5.017   1.271  0.1323  0.0802  0.0002
 1873W        W 6073   2.994   8.138   3.663 -0.1212 -0.4046  0.1820
 1874W        W 6074   9.230   6.798   8.956  0.1628 -0.1061  0.2271
 1875W        W 6075   1.481   0.664   2.330  0.1470  0.1756 -0.1916
 1876W        W 6076   8.664   5.206   1.038  0.1122 -0.2155  0.2064
 1877W        W 6077   9.794   3.660  12.876 -0.2647 -0.1153  0.0456
 1878W        W 6078   9.172   8.342  11.986  0.1870  0.1432  0.1402
 1879W        W 6079   0.838   7.368   1.650 -0.0985 -0.1435 -0.1027
 1880W        W 6080   6.114   0.166   3.898  0.0140 -0.1883 -0.1327
 1881W        W 6081   5.099   7.808   0.648 -0.2402 -0.0098  0.0207
 1882W        W 6082   3.674   8.017  11.086 -0.3380  0.0945 -0.2248
 1883W        W 6083   9.756   1.045   4.054  0.1910 -0.0028 -0.1596
 1884W        W 6084   1.284   9.306   0.503 -0.0293  0.0756 -0.3953
 1885W        W 6085   0.256   2.482  13.051 -0.4187 -0.0268 -0.2523
 1886W        W 6086   5.990   6.750  12.107  0.2098  0.0560  0.1144
 1887W        W 6087   4.923   7.760  12.584 -0.2278  0.0116 -0.0090
 1888W        W 6088   2.713   9.054   4.585  0.0014 -0.0556 -0.2399
 1889W        W 6089   0.107   7.785   9.628  0.2975  0.0809 -0.0841
 1890W        W 6090   3.994   2.008   3.343 -0.0027  0.1161 -0.1413
 1891W        W 6091   5.456   1.881  12.508  0.5536  0.1905 -0.0523
 1892W        W 6092   2.210   7.402   3.919  0.0748 -0.2139 -0.1221
 1893W        W 6093   5.248   7.646   9.557 -0.2704 -0.1411  0.1605
 1894W        W 6094   2.694   5.514   9.857  0.0809 -0.1950  0.2194
 1895W        W 6095   9.114  10.340  10.361 -0.4814  0.1691 -0.1445
 1896W        W 6096   6.655   8.700  13.163 -0.1386  0.2630  0.0322
 1897W        W 6097   0.679   4.880  10.610  0.1563  0.3087  0.1216
 1898W        W 6098   0.972   0.716  10.165 -0.0380 -0.3077 -0.1748
 1899W        W 6099   2.290   4.620  12.655 -0.5805  0.2565 -0.1537
 1900W        W 6100   0.425   7.829   8.340  0.2017 -0.0348 -0.1053
 1901W        W 6101   6.083   0.120  13.170  0.0031 -0.1952  0.1901
 1902W        W 6102   1.174   2.072  12.316  0.0864  0.2048 -0.1586
 1903W        W 6103   6.816   0.133   8.574  0.1879  0.0373 -0.0344
 1904W        W 6104   3.750   7.472   0.143  0.1925 -0.2694  0.2107
 1905W        W 6105   4.796   0.558   3.869  0.2788  0.0390 -0.0374
 1906W        W 6106   1.598   6.528  10.948 -0.2206  0.3461  0.0842
 1907W        W 6107   4.567   2.267  12.432 -0.0741 -0.0100 -0.1014
 1908W        W 6108   6.133   0.799   1.592  0.0199  0.1501  0.1670
 1909W        W 6109   8.203   1.795   8.646 -0.1154  0.1199 -0.0435
 1910W        W 6110   9.673   0.506   9.906  0.4284  0.1411 -0.1439
 1911W        W 6111   0.245   2.202  10.933 -0.0676  0.1521  0.1622
 1912W        W 6112   4.316   9.939   0.015 -0.0234  0.2468 -0.2484
 1913W        W 6113   4.050   3.768  11.460 -0.2685 -0.2808 -0.2113
 1914W        W 6114   4.029   6.188   0.007  0.3690  0.1360 -0.0744
 1915W        W 6115   8.185   5.023   0.925  0.0332  0.0548  0.3021
 1916W        W 6116   3.850   3.425  12.592  0.1473 -0.0107 -0.1432
 1917W        W 6117   9.891   0.295   9.401 -0.0847  0.1659 -0.0393
 1918W        W 6118   5.343   6.386  13.279  0.1018 -0.2875 -0.2474
 1919W        W 6119   8.009   7.744  12.162 -0.2517  0.1320  0.1111
 1920W        W 6120   9.947   7.978  10.930  0.0509 -0.1961 -0.1714
 1921W        W 6121   7.670   4.386   1.211 -0.0467  0.0921  0.0001
 1922W        W 6122   6.949   3.275   3.359  0.1402  0.2102  0.1157
 1923W        W 6123   4.207   1.364  11.955 -0.0652 -0.0285 -0.4249
 1924W        W 6124   3.720   3.725   3.303  0.0258 -0.3576  0.3402
 1925W        W 6125   3.818   9.131  11.103 -0.1437 -0.1114 -0.2140
 1926W        W 6126   5.619   0.388   2.376 -0.0001  0.1114 -0.1845
 1927W        W 6127   9.181   5.173  10.321  0.0220  0.0228 -0.0830
 1928W        W 6128   4.613   9.481  11.600  0.2396  0.0450 -0.1083
 1929W        W 6129   4.041   8.016   8.375  0.0756 -0.1283  0.0089
 1930W        W 6130   5.085   9.467  13.223  0.0269 -0.0808  0.3206
 1931W        W 6131   4.740   8.612  10.557 -0.0255  0.1741  0.0303
 1932W        W 6132   8.248   8.014   9.649 -0.1521  0.0651 -0.3027
 1933W        W 6133   7.248   8.149   3.854  0.0816 -0.1467 -0.2284
 1934W        W 6134   5.201   6.568   5.376 -0.0309  0.2216 -0.4014
 1935W        W 6135   9.653   0.859   1.169 -0.0986  0.1578 -0.1694
 1936W        W 6136  10.080   8.450  12.705 -0.0344  0.1852  0.0829
 1937W        W 6137   5.175   4.663   9.753  0.2131 -0.1106 -0.1448
 1938W        W 6138   0.488   9.451   3.644 -0.0157 -0.0877  0.2047
 1939W        W 6139   7.809   1.982   2.173 -0.0241  0.3829 -0.3454
 1940W        W 6140   3.929   9.802  13.017  0.0160  0.0061 -0.4057
 1941W        W 6141   8.621   0.850  12.757  0.0084  0.1363 -0.0967
 1942W        W 6142   7.101   0.759   4.096  0.1270  0.1525 -0.0578
 1943W        W 6143   1.275  10.327   0.741  0.1610 -0.0131  0.4968
 1944W        W 6144   1.090   4.225  12.219 -0.2664  0.2068  0.1430
 1945W        W 6145   4.663   9.232  12.995 -0.1794  0.0250 -0.1459
 1946W        W 6146   4.605   7.589  12.065  0.4063 -0.1940 -0.1110
 1947W        W 6147   4.231   4.108   0.853 -0.0402 -0.0754  0.3243
 1948W        W 6148   1.013   0.270  11.609  0.1160 -0.1820 -0.1129
 1949W        W 6149   2.798   5.690   2.293 -0.4523 -0.1534 -0.0788
 1950W        W 6150  10.409   8.682   9.284  0.3414 -0.1392 -0.2088
 1951W        W 6151   4.331   7.335  10.976 -0.0823  0.0591 -0.2019
 1952W        W 6152   7.042   7.177  12.974 -0.1108  0.1525  0.0662
 1953W        W 6153   2.554   2.118  10.030 -0.0665 -0.1648 -0.1161
 1954W        W 6154   9.065   9.250  11.169 -0.1886 -0.0753  0.1129
 1955W        W 6155   3.980   8.011   1.576  0.1910 -0.2032  0.1185
 1956W        W 6156   5.061   5.805   3.046 -0.0424  0.0545 -0.0857
 1957W        W 6157   9.095   7.119   3.339  0.1109  0.1896  0.0533
 1958W        W 6158   6.993   2.500   2.694 -0.1630  0.0283  0.0802
 1959W        W 6159   3.348   8.017   4.441  0.3360  0.0612 -0.1006
 1960W        W 6160   9.534   3.206  12.952 -0.0276 -0.2092  0.3748
 1961W        W 6161  10.253   7.473  13.018  0.2091  0.0261  0.0474
 1962W        W 6162   3.431   8.398   4.839 -0.1111 -0.0562 -0.0125
 1963W        W 6163  10.060  10.059   0.074 -0.1061  0.2271  0.0087
 1964W        W 6164   6.629   0.291  12.589 -0.0681  0.1022 -0.1965
 1965W        W 6165  10.136  10.010   0.951 -0.0523 -0.1345  0.0937
 1966W        W 6166   7.335   2.336  12.569 -0.1747  0.3973 -0.3962
 1967W        W 6167  10.059   7.877   9.455  0.0993 -0.1391  0.0360
 1968W        W 6168   5.130   1.043   1.745  0.0197  0.1910  0.0134
 1969W        W 6169   4.717  10.080  11.878  0.0236 -0.1963 -0.1902
 1970W        W 6170   9.802   8.337   3.726  0.0771 -0.0319 -0.2694
 1971W        W 6171   0.939   8.821  10.458 -0.1052 -0.1797  0.0595
 1972W        W 6172   1.586   1.296   3.047  0.2583  0.1959  0.1619
 1973W        W 6173   1.653   7.555   2.624  0.0423 -0.0387 -0.1899
 1974W        W 6174   4.647   3.538   2.884  0.0274 -0.0555 -0.2298
 1975W        W 6175   4.634   5.926   9.399  0.1127 -0.1059 -0.2648
 1976W        W 6176   1.491   6.579   1.806  0.0248 -0.1305  0.2060
 1977W        W 6177   2.352   1.954  10.739 -0.0493 -0.0941 -0.3231
 1978W        W 6178   6.722   3.715  10.078  0.1527 -0.2865  0.0391
 1979W        W 6179   7.997   1.552   0.820  0.0733 -0.0106 -0.1774
 1980W        W 6180   3.937   9.866   3.723 -0.3198 -0.0060  0.0080
 1981W        W 6181   7.857   0.279  11.152 -0.1630 -0.0743  0.0371
 1982W        W 6182   9.138   7.189   9.942  0.1596 -0.2620  0.0721
 1983W        W 6183   8.522   1.813   5.059  0.0030  0.3046  0.3001
 1984W        W 6184   4.318   7.173  12.369  0.3454  0.2201 -0.0199
 1985W        W 6185   1.871   6.878   3.916 -0.0328 -0.1163 -0.0751
 1986W        W 6186   6.136   5.957   0.341 -0.0461  0.0159 -0.0689
 1987W        W 6187   8.109   7.775   2.448  0.1193 -0.2098  0.1031
 1988W        W 6188   0.866   9.118  12.616  0.2583  0.1376  0.0781
 1989W        W 6189   7.244   6.944   9.295  0.0469  0.0134  0.1755
 1990W        W 6190   2.926   0.199   2.969 -0.3719 -0.0260  0.1270
 1991W        W 6191   7.039   8.515   1.610 -0.0077 -0.1790  0.0781
 1992W        W 6192   4.630   6.254   3.710 -0.0553 -0.1384  0.1438
 1993W        W 6193   4.444   7.188   9.384  0.3610  0.2209 -0.0245
 1994W        W 6194   1.746   0.278   3.435 -0.1581  0.1296  0.0107
 1995W        W 6195   0.108   3.648   0.184 -0.0518  0.3928  0.0260
 1996W        W 6196   2.231   6.100  11.597 -0.0624  0.1239 -0.1396
 1997W        W 6197   6.274   0.810   2.124 -0.1114  0.0230 -0.0135
 1998W        W 6198   7.001   3.414   0.680 -0.1851 -0.0167  0.3671
 1999W        W 6199  10.289   7.285  10.368  0.1780  0.2856  0.0552
 2000W        W 6200   9.991   1.120  12.233 -0.1410  0.2419 -0.2824
 2001W        W 6201   1.473   4.994   9.524 -0.1770  0.2574 -0.1189
 2002W        W 6202   9.917   7.175   9.447 -0.1370 -0.1421 -0.1228
 2003W        W 6203   9.232   0.107  10.914 -0.0722 -0.4320  0.5682
 2004W        W 6204   5.299   6.982   0.703 -0.2757  0.2353  0.0626
 2005W        W 6205   9.302   5.628   5.106  0.1977 -0.5744 -0.2726
 2006W        W 6206   6.398   5.038   4.126 -0.4239 -0.2309 -0.0803
 2007W        W 6207   9.155   1.674   1.772 -0.1811  0.0422  0.0524
 2008W        W 6208   7.479   7.448   0.953  0.0062  0.1188  0.0694
 2009W        W 6209   6.342   7.793   0.598 -0.2447  0.1706  0.5001
 2010W        W 6210   0.584   6.289   0.324 -0.1452 -0.0066  0.1049
 2011W        W 6211  10.215   3.676  12.242 -0.1440  0.0540 -0.3775
 2012W        W 6212   4.686  10.382  12.938  0.3870  0.1523  0.0566
 2013W        W 6213   5.548   2.113  10.931 -0.2799 -0.0538  0.2418
 2014W        W 6214   3.316   8.680  12.298  0.1098 -0.2834 -0.2154
 2015W        W 6215   0.405   6.828  11.411  0.0535  0.0489  0.1414
 2016W        W 6216   2.167   7.863   4.150  0.0725 -0.2286 -0.0723
 2017W        W 6217   9.583   3.921   1.047 -0.0832 -0.2428  0.0700
 2018W        W 6218  10.093   8.756   1.710  0.0068  0.2161 -0.0395
 2019W        W 6219   2.440   7.651   9.707  0.1769  0.1657 -0.2769
 2020W        W 6220   7.280   4.083  13.532 -0.0663 -0.5149 -0.1196
 2021W        W 6221   6.175   9.397   3.710  0.2079  0.0844 -0.2093
 2022W        W 6222   1.940   7.731   9.201 -0.0931  0.1750  0.0354
 2023W        W 6223   4.671   9.097   2.156 -0.0691 -0.1183  0.0719
 2024W        W 6224   1.284   2.723   3.042  0.0587 -0.0988 -0.0648
 2025W        W 6225   0.445   7.922   0.782  0.1068  0.0971 -0.0003
 2026W        W 6226   4.849   6.839  10.210 -0.0939  0.1706 -0.0728
 2027W        W 6227   6.817   6.051  10.519  0.0471  0.2036  0.0074
 2028W        W 6228   1.535   6.484   0.109 -0.1510  0.0801  0.3460
 2029W        W 6229   2.512   1.070  10.355  0.1002  0.0455 -0.5375
 2030W        W 6230   2.919   8.695   0.933  0.1955  0.1567  0.1724
 2031W        W 6231   7.225   3.106   4.388 -0.1666 -0.0222 -0.1925
 2032W        W 6232   0.785   9.022   4.783 -0.2468  0.0629 -0.1486
 2033W        W 6233   2.398   1.655   1.091  0.1640  0.0210 -0.0245
 2034W        W 6234   8.864   0.341   3.163 -0.1216  0.1285  0.1919
 2035W        W 6235   9.659   2.094   9.219  0.0273  0.1753 -0.2345
 2036W        W 6236   6.312   2.730  12.403  0.0019  0.1253  0.0388
 2037W        W 6237   1.585   3.002   0.294 -0.1516 -0.0802 -0.2643
 2038W        W 6238   2.528   6.324  12.670 -0.0477  0.2063  0.1208
 2039W        W 6239   1.625   7.282  11.284  0.1352  0.3906 -0.3587
 2040W        W 6240   2.557   1.796   3.271  0.2517 -0.1719  0.1167
 2041W        W 6241   1.017   7.821   1.538 -0.0277 -0.3704 -0.0912
 2042W        W 6242   6.057   1.560   5.030 -0.1382  0.0329  0.1489
 2043W        W 6243   7.174   4.179   4.415 -0.1364  0.1284  0.0197
 2044W        W 6244   6.736   2.208   2.128 -0.3736  0.0510 -0.2368
 2045W        W 6245  10.096   5.635   4.152  0.1878  0.0691 -0.1105
 2046W        W 6246   9.354   8.552   1.271  0.0348  0.3104  0.0168
 2047W        W 6247  10.163   2.391  11.276  0.0451  0.0027 -0.0943
 2048W        W 6248   5.562   6.412  10.839  0.2322 -0.0578  0.1319
 2049W        W 6249   5.303   8.394   1.184  0.0527 -0.1523 -0.0659
 2050W        W 6250   6.552   7.827   9.773  0.0519  0.0511  0.0835
 2051W        W 6251   6.506   8.858   0.390  0.3419 -0.1270  0.1349
 2052W        W 6252   1.139   9.540  11.932 -0.0684  0.1729 -0.4675
 2053W        W 6253   8.111   3.690  12.686  0.2792  0.3830  0.0019
 2054W        W 6254   4.706   5.115  11.635 -0.1029 -0.6692 -0.0937
 2055W        W 6255  10.148   2.466   0.776  0.0502  0.2630  0.1720
 2056W        W 6256   4.366   4.333   3.659  0.2364  0.1700  0.1937
 2057W        W 6257   1.839   6.191  12.874 -0.0839 -0.0179 -0.1657
 2058W        W 6258   5.135   6.575   0.859  0.0224  0.3704 -0.0777
 2059W        W 6259   9.280   9.308  11.596  0.0810  0.1915  0.1399
 2060W        W 6260   9.427   9.299   2.836  0.2238  0.0482 -0.2512
 2061W        W 6261   6.352   9.209   0.721 -0.2109  0.2126 -0.0638
 2062W        W 6262   0.478   8.905   0.948  0.2559 -0.2930 -0.2741
 2063W        W 6263   5.392   1.572   2.406  0.0239  0.0996  0.0360
 2064W        W 6264   4.120   0.680   9.485  0.1210 -0.2683  0.2850
 2065W        W 6265   8.469   8.101  10.437 -0.3048 -0.0461  0.0443
 2066W        W 6266   6.373   9.266   4.181  0.2413  0.1250 -0.2774
 2067W        W 6267   8.989   0.985  10.500  0.1070  0.0283 -0.0325
 2068W        W 6268   6.399   9.339   1.743 -0.0623 -0.0257 -0.0425
 2069W        W 6269   7.952   6.179  12.875  0.2323 -0.1348  0.1920
 2070W        W 6270   3.497   3.065  13.144  0.2033 -0.0607 -0.2774
 2071W        W 6271   8.523   6.977   1.882 -0.2035 -0.0433 -0.3654
 2072W        W 6272   1.114   1.463   3.354 -0.0782  0.1400 -0.4086
 2073W        W 6273   5.321   2.272   2.957 -0.2284 -0.1594  0.1445
 2074W        W 6274   3.681   9.182   1.884 -0.2122 -0.2765 -0.2639
 2075W        W 6275   6.941   6.513  10.619 -0.0407 -0.0407 -0.0064
 2076W        W 6276   7.783   8.757   4.437  0.2028 -0.0181 -0.1000
 2077W        W 6277   8.061   0.321   9.259 -0.1239  0.0074  0.0210
 2078W        W 6278   2.929   2.840   0.547  0.0247 -0.0931 -0.1051
 2079W        W 6279   5.362   0.193  12.098 -0.0997 -0.2895  0.0583
 2080W        W 6280   0.798   9.937   1.119  0.2621  0.0599 -0.0695
 2081W        W 6281  10.243   5.073   0.937  0.2373  0.0339  0.0674
 2082W        W 6282   9.218   2.737   9.597  0.3890 -0.3616  0.2941
 2083W        W 6283   8.573   3.609  10.628  0.2384  0.0752  0.2091
 2084W        W 6284  10.167   2.380   0.298 -0.0120  0.0507  0.0080
 2085W        W 6285   5.719   2.785   3.856  0.0282  0.0700 -0.0196
 2086W        W 6286   3.353  10.401  10.372  0.2628  0.3931  0.0579
 2087W        W 6287   7.801   7.914   2.875  0.1049  0.2039  0.0320
 2088W        W 6288   1.495   7.576  12.147 -0.0677  0.2406 -0.0476
 2089W        W 6289   0.513   0.586  10.839  0.1279 -0.0399  0.2622
 2090W        W 6290   1.762  10.046  11.466 -0.1092 -0.1034  0.0235
 2091W        W 6291   5.799   5.868   9.900  0.0783  0.0801  0.2287
 2092W        W 6292   8.168   9.782  12.926 -0.0792 -0.2145 -0.1019
 2093W        W 6293   9.719   3.796  11.853 -0.4278  0.3521 -0.0932
 2094W        W 6294   9.273   2.571  10.793 -0.5643  0.1478 -0.0419
 2095W        W 6295   2.081   2.486   1.397 -0.3443  0.2697  0.0633
 2096W        W 6296   7.115   7.909   2.130 -0.0981  0.2429  0.2256
 2097W        W 6297   3.095   7.387  11.649  0.0446 -0.1134  0.1100
 2098W        W 6298   5.791   9.375   1.087  0.3510 -0.0458  0.1503
 2099W        W 6299   0.575   7.619  13.571  0.0703  0.1290  0.2299
 2100W        W 6300   0.411   4.081  11.609 -0.2314  0.0193  0.1213
 2101W        W 6301   1.061   3.531   2.691  0.0426 -0.0826 -0.1589
 2102W        W 6302   2.971   9.908   9.630 -0.0446  0.0327 -0.2811
 2103W        W 6303   3.912   5.259   0.452 -0.0243  0.0044  0.3317
 2104W        W 6304   8.961   5.157   0.129  0.0069  0.1996  0.0766
 2105W        W 6305   5.279   0.099   2.708 -0.0360  0.2786 -0.0150
 2106W        W 6306   6.034  10.073  10.544 -0.3255 -0.1407 -0.2884
 2107W        W 6307   9.146   1.525  13.262 -0.1393 -0.2540 -0.0157
 2108W        W 6308   2.204   1.979   5.887 -0.3912  0.1144  0.1544
 2109W        W 6309   5.114   8.957  10.483  0.0398 -0.0589 -0.0115
 2110W        W 6310   1.146   9.879   9.289  0.2267  0.1296  0.1468
 2111W        W 6311   8.571   7.308   4.250  0.2057 -0.2369 -0.0903
 2112W        W 6312   9.367   9.914  10.506 -0.2532 -0.0051  0.1429
 2113W        W 6313   0.861   7.601   8.470  0.0525  0.2293  0.0341
 2114W        W 6314   2.337   7.523  11.393  0.4094  0.1591  0.1724
 2115W        W 6315   2.032   9.838   0.772 -0.0064  0.3242 -0.1061
 2116W        W 6316   1.837   1.943  10.680  0.0430 -0.0548 -0.2987
 2117W        W 6317   1.235   2.291   3.323 -0.0300  0.2350 -0.3186
 2118W        W 6318   0.458   6.981  10.230 -0.1924 -0.0200 -0.3225
 2119W        W 6319   8.577   6.151   9.476 -0.1075 -0.0253  0.0244
 2120W        W 6320   1.641   5.098  10.533 -0.2531  0.4604  0.0968
 2121W        W 6321   7.391   6.663  11.886 -0.3436  0.1437 -0.0215
 2122W        W 6322  10.062   3.731   0.777  0.0416 -0.0553  0.2652
 2123W        W 6323   3.416   5.359   4.007 -0.0131  0.0228  0.2139
 2124W        W 6324   6.522  10.387   3.646  0.0084 -0.0964 -0.1058
 2125W        W 6325   5.786   9.682   2.735 -0.0628 -0.2641  0.0073
 2126W        W 6326   4.652   9.929  12.359  0.2062 -0.1674  0.1371
 2127W        W 6327   0.823   1.914  12.031 -0.2327 -0.0043 -0.0505
 2128W        W 6328   7.195   8.990   1.336 -0.4137  0.0110  0.0261
 2129W        W 6329   2.339   8.118  10.552 -0.1604 -0.2154  0.1273
 2130W        W 6330   0.644   5.708   0.142 -0.0748 -0.2430 -0.2439
 2131W        W 6331   8.996   8.327  10.047 -0.1897 -0.1917  0.1633
 2132W        W 6332   6.654   8.321  11.618 -0.2502  0.0786  0.1369
 2133W        W 6333  10.025   1.643   2.881  0.1281 -0.0994  0.1037
 2134W        W 6334   1.791   3.054  13.325  0.1924  0.3815 -0.0978
 2135W        W 6335   5.520   2.398   9.738  0.0959 -0.2628  0.0409
 2136W        W 6336   8.484   1.057   1.091 -0.0953 -0.2969 -0.1055
 2137W        W 6337   9.605   7.621  11.679  0.1108  0.3108 -0.1820
 2138W        W 6338   8.303   0.840   5.016 -0.0300  0.1633 -0.1051
 2139W        W 6339   2.186   3.566   2.353 -0.2176  0.0504 -0.1624
 2140W        W 6340   4.261   8.347   1.293 -0.2041  0.4444  0.2949
 2141W        W 6341   6.353   7.710  10.299 -0.0861 -0.1296 -0.0670
 2142W        W 6342   2.222   4.108   2.434  0.0862 -0.2603  0.2333
 2143W        W 6343   6.695   8.117  11.111 -0.1097  0.1340 -0.4802
 2144W        W 6344   7.621   0.881   1.503  0.4470  0.2305 -0.2455
 2145W        W 6345   0.954   0.083  13.279 -0.2611  0.2024  0.2022
 2146W        W 6346   6.706   2.994   4.328  0.2104  0.2198 -0.1213
 2147W        W 6347   8.537  10.366   3.223  0.2361  0.1995 -0.0796
 2148W        W 6348   6.279   1.651   0.523  0.0729 -0.0859  0.1123
 2149W        W 6349   0.679   9.869  10.741 -0.0086 -0.2741 -0.2425
 2150W        W 6350   7.921   1.879  12.307  0.0604  0.1883  0.2891
 2151W        W 6351   1.167   9.877   0.172  0.1948 -0.0705  0.0560
 2152W        W 6352   6.032   7.019   3.703  0.0232  0.2183  0.0394
 2153W        W 6353   3.640   4.958   1.864 -0.0886  0.0395 -0.0183
 2154W        W 6354   9.714   5.977   0.874 -0.2189 -0.0111 -0.1360
 2155W        W 6355   6.171   0.695   0.475 -0.0210 -0.2172  0.1344
 2156W        W 6356   7.800   2.230  13.301 -0.0176 -0.2802  0.0887
 2157W        W 6357   5.710   2.022   9.386  0.1526 -0.0742 -0.0782
 2158W        W 6358   8.113   4.337   1.531  0.2214 -0.2089 -0.0293
 2159W        W 6359   0.409   0.985   1.550 -0.2023  0.4543 -0.0044
 2160W        W 6360   5.280   4.244  10.008 -0.1575  0.0743  0.1687
 2161W        W 6361   3.031   2.517   3.855 -0.0958  0.0720  0.1197
 2162W        W 6362  10.085   0.473  13.144 -0.1549 -0.2205 -0.1505
 2163W        W 6363   8.819   2.652  13.316  0.2048  0.2872  0.0385
 2164W        W 6364   6.756   9.449   2.813 -0.1330 -0.3298  0.0023
 2165W        W 6365   3.064   0.912  12.552 -0.1119 -0.0341  0.3875
 2166W        W 6366   9.817   7.761   0.947 -0.1028  0.1662  0.0658
 2167W        W 6367   2.758   1.847   1.625 -0.3431  0.0449  0.0873
 2168W        W 6368   6.225   7.718  12.002  0.0366 -0.0477 -0.0216
 2169W        W 6369   2.825   5.886  12.825 -0.0769  0.0424 -0.1744
 2170W        W 6370   1.492   8.838   2.059 -0.1556 -0.2006 -0.0471
 2171W        W 6371   8.094   0.563   2.817 -0.0563  0.1234  0.1185
 2172W        W 6372   7.763   6.807  10.634  0.2343 -0.0549 -0.1379
 2173W        W 6373   7.894   8.705  11.363 -0.0637 -0.2610 -0.0216
 2174W        W 6374   5.588   8.894  12.570 -0.2099 -0.2297  0.0365
 2175W        W 6375   3.001   6.957  10.655  0.0797 -0.1521 -0.1284
 2176W        W 6376   3.944   9.786   0.405 -0.0034 -0.1740  0.2340
 2177W        W 6377   5.876   1.950  12.321  0.0314 -0.0859  0.2418
 2178W        W 6378   8.796   5.797   5.125  0.0800  0.0429 -0.2080
 2179W        W 6379   9.128   6.939  11.059 -0.0925  0.1370 -0.0155
 2180W        W 6380   8.754   0.305   0.677  0.0223  0.0793  0.2813
 2181W        W 6381   8.258   1.495   4.502  0.0317  0.1707  0.0703
 2182W        W 6382   7.118   2.084   0.390  0.0835 -0.1867  0.0857
 2183W        W 6383   6.862   7.432   4.085  0.1876  0.0466 -0.2213
 2184W        W 6384   2.125   2.022  11.475 -0.0717  0.1337 -0.2914
 2185W        W 6385   0.740   8.614   2.755  0.1753 -0.1092 -0.3031
 2186W        W 6386   8.186   3.707   3.498 -0.1674 -0.4621  0.0130
 2187W        W 6387   2.841   6.296   0.126  0.1281  0.0455  0.1439
 2188W        W 6388   2.497   3.677  12.291  0.0337 -0.0710  0.0469
 2189W        W 6389   3.412   0.406   1.765 -0.0199  0.2582  0.2927
 2190W        W 6390   8.654   6.882   4.026  0.1070  0.0429  0.1391
 2191W        W 6391   6.305   3.503   1.808  0.3585 -0.0847 -0.0738
 2192W        W 6392   9.019   3.854   9.310 -0.0797 -0.1021  0.4090
 2193W        W 6393   4.784   8.099   4.735 -0.1352  0.4253 -0.0885
 2194W        W 6394   6.580   0.392   2.332 -0.1223  0.2760 -0.0628
 2195W        W 6395   4.145   3.338   2.525  0.0792 -0.0318 -0.2261
 2196W        W 6396   4.088   0.688   1.440 -0.2005 -0.1867  0.0795
 2197W        W 6397   2.662   4.411  11.761 -0.0780  0.2618 -0.1080
 2198W        W 6398   1.787   8.164   1.172  0.3257  0.1017  0.0198
 2199W        W 6399   4.124   7.509  11.906  0.0197 -0.1458 -0.0317
 2200W        W 6400   0.209   0.468  12.004 -0.2235  0.0557 -0.2786
 2201W        W 6401   1.840   2.360  10.330 -0.1779 -0.0970 -0.1660
 2202W        W 6402   9.037   7.328  10.726  0.1108 -0.1262  0.3429
 2203W        W 6403   9.992   2.997  13.052  0.2415 -0.0591  0.2330
 2204W        W 6404   1.127   0.141  12.104  0.2044  0.0931 -0.0957
 2205W        W 6405   8.580   2.118   9.577 -0.3850  0.0693  0.2413
 2206W        W 6406   6.852   1.450   1.109  0.0020 -0.4182  0.1143
 2207W        W 6407   9.625   1.106  12.873 -0.0263 -0.2984 -0.0417
 2208W        W 6408   9.028   0.065  11.483  0.2300 -0.1359  0.0706
 2209W        W 6409   5.663   6.697   1.686  0.2334  0.0009  0.2074
 2210W        W 6410   0.244   6.805   4.207 -0.0004  0.0052  0.0387
 2211W        W 6411   9.161   7.811   3.926  0.3064 -0.2110  0.2326
 2212W        W 6412   1.740   4.052  11.123 -0.1118 -0.1317  0.0902
 2213W        W 6413   7.599   8.486  10.465  0.0824  0.3395  0.1305
 2214W        W 6414   3.332   1.469  11.651  0.1124  0.1180  0.0439
 2215W        W 6415   1.660   5.396  11.583  0.1502  0.0472 -0.1071
 2216W        W 6416   8.120   8.643  10.218  0.0648  0.0556  0.2524
 2217W        W 6417   2.142   2.952   0.171  0.1222 -0.0699  0.0386
 2218W        W 6418   6.820   3.485   4.251 -0.0206  0.0184  0.0095
 2219W        W 6419   7.337   6.677  10.275 -0.1500  0.0250 -0.4495
 2220W        W 6420   4.752   4.971   3.116  0.1603 -0.0723  0.0627
 2221W        W 6421   0.937   7.516   1.125 -0.0216  0.0408 -0.2158
 2222W        W 6422   6.185   7.745   1.237 -0.0993  0.1944 -0.0886
 2223W        W 6423   2.039   4.041  12.339  0.0624 -0.0579  0.2893
 2224W        W 6424   6.098   5.156  12.590  0.3078 -0.1282  0.0022
 2225W        W 6425   6.234   1.360   1.912  0.2679  0.0777  0.2681
 2226W        W 6426   0.261  10.220  13.450 -0.1506  0.0468 -0.0092
 2227W        W 6427   8.612   9.833   0.182 -0.2357  0.2297 -0.4904
 2228W        W 6428   6.665   1.798   1.524 -0.0180 -0.1432  0.0951
 2229W        W 6429   5.731   2.804  12.014  0.0703 -0.3173 -0.1443
 2230W        W 6430   7.160   0.533  11.984  0.1334  0.0717 -0.1953
 2231W        W 6431   8.522   2.379   0.949  0.5100  0.1897 -0.0240
 2232W        W 6432   4.792   0.083  12.453 -0.1541  0.1566 -0.1798
 2233W        W 6433   8.724   2.828   2.923  0.1186 -0.0391  0.2445
 2234W        W 6434   1.715   8.078   2.646  0.0043  0.1362  0.0645
 2235W        W 6435   7.373   1.263   4.916  0.1438  0.1575  0.1508
 2236W        W 6436   7.931   2.732  12.008  0.0906  0.1892 -0.0015
 2237W        W 6437   2.804   9.356   3.239  0.1503  0.0535 -0.0169
 2238W        W 6438   8.941   7.831   4.849  0.1229 -0.1640 -0.2770
 2239W        W 6439   6.405   0.086  12.177  0.2801  0.0921  0.1773
 2240W        W 6440   5.440   3.180   3.992 -0.0971  0.0239 -0.1058
 2241W        W 6441   7.205   3.296   3.891  0.1071  0.1044 -0.1570
 2242W        W 6442   7.385   8.341   1.930 -0.1116 -0.1174 -0.1489
 2243W        W 6443   6.373   7.628  12.488  0.1256  0.0195 -0.4593
 2244W        W 6444   0.755   5.188   0.069  0.0285 -0.3619  0.1425
 2245W        W 6445   4.981  10.082   1.428  0.0147 -0.4071  0.1823
 2246W        W 6446   7.732   6.354   8.844  0.1050 -0.0635  0.0122
 2247W        W 6447   7.737   9.460  12.647 -0.1700  0.1578  0.4257
 2248W        W 6448   8.297   1.002   2.751 -0.0392 -0.0653 -0.0597
 2249W        W 6449   7.659   4.329  11.558 -0.3727 -0.0170 -0.2196
 2250W        W 6450   8.712   1.529  10.629  0.0527 -0.1330  0.1420
 2251W        W 6451   7.289   0.187   9.986  0.1087  0.0129  0.0004
 2252W        W 6452   8.933   7.092  12.554 -0.3742  0.1077 -0.0194
 2253W        W 6453   4.308   5.521  12.990  0.4160  0.1334  0.1568
 2254W        W 6454   9.389  10.408   1.388  0.2123 -0.0871  0.2592
 2255W        W 6455   4.748   1.312   1.973  0.0356 -0.1839  0.0324
 2256W        W 6456   9.980   1.936   2.462 -0.0777 -0.0627  0.1505
 2257W        W 6457   3.897   8.381  12.230  0.0669 -0.0769  0.2248
 2258W        W 6458   5.492   5.327   2.463 -0.0856  0.0523 -0.0906
 2259W        W 6459   1.964   0.179   0.360 -0.1168 -0.0267 -0.3993
 2260W        W 6460   0.487   3.636   9.692  0.0411 -0.0133 -0.0144
 2261W        W 6461  10.013   2.160   1.561 -0.0291  0.2933 -0.1455
 2262W        W 6462   2.413   7.668   2.959  0.0535  0.3608  0.1588
 2263W        W 6463   7.991   1.921   3.853  0.0645  0.3435 -0.1759
 2264W        W 6464   6.739   8.627  11.173  0.2221  0.2377  0.3085
 2265W        W 6465   5.264   7.222  10.769  0.0372 -0.2377  0.0273
 2266W        W 6466   3.986   8.067  11.857  0.2405  0.2431 -0.0783
 2267W        W 6467   0.199   3.796  10.316  0.1760 -0.1296  0.1481
 2268W        W 6468   0.329   1.135  10.680  0.0844 -0.3959 -0.1597
 2269W        W 6469   1.140   7.621   9.949 -0.1223  0.0927  0.1300
 2270W        W 6470   6.892   0.760   2.157  0.0331 -0.0162 -0.1598
 2271W        W 6471   6.223   3.034   2.770  0.3795  0.1093 -0.0418
 2272W        W 6472   0.507   6.925   1.675  0.2031 -0.1008  0.1306
 2273W        W 6473   9.124   6.509   0.567 -0.3145 -0.3899  0.1761
 2274W        W 6474   5.821   8.488  13.298 -0.2241  0.2250  0.1020
 2275W        W 6475   1.339   7.335  13.368  0.0052  0.3971 -0.1361
 2276W        W 6476   9.485   9.075   1.059  0.3418  0.0943 -0.0526
 2277W        W 6477   9.975  10.053   3.305 -0.1229  0.0371  0.1433
 2278W        W 6478   4.206   4.648   9.311  0.0919  0.3650 -0.0238
 2279W        W 6479   4.495   6.894  11.110 -0.0477  0.1219 -0.2629
 2280W        W 6480   1.323   8.643  13.482  0.0779  0.1524  0.1747
 2281W        W 6481  10.300   6.783  11.547  0.2637 -0.1396  0.3147
 2282W        W 6482   5.381   8.399   2.090 -0.0350  0.0256  0.3442
 2283W        W 6483   6.649   5.761  13.133 -0.3987  0.1824 -0.2671
 2284W        W 6484   3.531   1.994  11.650  0.0545 -0.1102  0.0305
 2285W        W 6485   7.599   8.416   2.371  0.2818  0.1049  0.1221
 2286W        W 6486   7.650   8.314   5.546  0.0103  0.0319  0.0452
 2287W        W 6487   8.183   4.153  12.408 -0.0202 -0.3632  0.1457
 2288W        W 6488   8.016   0.275   3.709  0.0430 -0.0978 -0.1137
 2289W        W 6489   1.214   7.435   4.142 -0.1849  0.4591  0.2116
 2290W        W 6490   8.848   0.689  13.197  0.3037 -0.2868 -0.0028
 2291W        W 6491   7.065   3.317   9.792 -0.0216 -0.0386 -0.2784
 2292W        W 6492   7.226   4.528   3.134 -0.3202  0.0683 -0.0111
 2293W        W 6493   9.165   7.389  13.081  0.0691 -0.0227 -0.1118
 2294W        W 6494   3.476   0.198   0.791  0.0525  0.2453 -0.3142
 2295W        W 6495   7.361   7.499  11.348 -0.3023  0.1155 -0.1329
 2296W        W 6496   0.863   5.627   4.648  0.1500  0.0095  0.1670
 2297W        W 6497   1.126   9.987  12.205 -0.2137 -0.0058 -0.1024
 2298W        W 6498   7.126   5.158   0.254  0.1031 -0.1157  0.0130
 2299W        W 6499   3.935   5.942  12.153 -0.0145  0.0953  0.0178
 2300W        W 6500   2.351   3.552  10.535  0.1514 -0.1535 -0.3772
 2301W        W 6501   1.972   3.453   1.808 -0.2532 -0.2198  0.2730
 2302W        W 6502   1.348   1.960   2.365  0.2189  0.0079 -0.0003
 2303W        W 6503   5.149   4.752  12.879 -0.2095  0.1158  0.1075
 2304W        W 6504   3.640   6.284   4.055  0.1237 -0.4428  0.2195
 2305W        W 6505   1.962   5.431   3.682 -0.1518 -0.2701 -0.1021
 2306W        W 6506   5.874   3.534   4.057 -0.2724 -0.0598  0.2097
 2307W        W 6507   3.343   5.258   1.499 -0.1464 -0.3857 -0.3264
 2308W        W 6508   4.213   4.503  11.922 -0.2631  0.3293 -0.5801
 2309W        W 6509   9.475   9.273   0.603 -0.1032 -0.2966  0.0630
 2310W        W 6510   0.067   4.279  11.970  0.4464 -0.0978 -0.2695
 2311W        W 6511   9.782  10.302  10.341  0.1827  0.1415  0.0739
 2312W        W 6512   4.654   1.826  12.703  0.1391  0.0122 -0.2596
 2313W        W 6513   5.027   6.651  12.892  0.0568 -0.1350  0.0274
 2314W        W 6514   5.678   1.943   9.912  0.2682  0.1888 -0.3550
 2315W        W 6515   8.592   3.506   3.972 -0.1634 -0.0984  0.1600
 2316W        W 6516   1.888   9.695   1.971 -0.2544 -0.0276 -0.1824
 2317W        W 6517   6.961   0.370  10.940  0.2178  0.0352  0.3281
 2318W        W 6518   7.302   9.044   0.186 -0.3752  0.0544 -0.0293
 2319W        W 6519   8.970   3.639  11.199  0.1547 -0.1466 -0.3767
 2320W        W 6520   0.258   2.488   2.025  0.1585  0.0737  0.1895
 2321W        W 6521   9.376   8.373  13.105 -0.1761  0.3241  0.0469
 2322W        W 6522   7.442   4.638   2.307 -0.0494  0.1100 -0.2414
 2323W        W 6523   6.406   4.640   2.399 -0.1080  0.0115 -0.0898
 2324W        W 6524   4.301  10.174  12.693  0.0437 -0.0212 -0.1431
 2325W        W 6525   1.665   4.986   1.929 -0.1158  0.1799 -0.1890
 2326W        W 6526   5.854   2.629   1.699  0.1133  0.1314  0.2209
 2327W        W 6527   4.045   6.290  12.624 -0.0534  0.0261 -0.2149
 2328W        W 6528   6.477   1.215  10.870 -0.1424 -0.0599  0.2445
 2329W        W 6529   1.467   9.306   9.944  0.0367  0.0190 -0.3185
 2330W        W 6530   6.233   0.368   1.894  0.2650  0.4202 -0.2002
 2331W        W 6531   1.174  10.364   4.576 -0.2279 -0.1927 -0.2071
 2332W        W 6532   6.035   0.104   9.763  0.2410 -0.4968  0.0209
 2333W        W 6533   6.594   1.437  13.357  0.1079 -0.1036  0.0134
 2334W        W 6534   9.148   1.723   9.512 -0.1638  0.1947  0.2747
 2335W        W 6535   0.744   8.531   4.810  0.1582  0.3924 -0.0464
 2336W        W 6536   8.907   7.359   3.873 -0.1230  0.4505  0.1759
 2337W        W 6537   4.881   5.104  12.484  0.3243 -0.0061 -0.4022
 2338W        W 6538   9.542   2.582  12.576  0.2020  0.2272 -0.1615
 2339W        W 6539   8.181   7.113   9.095 -0.3345 -0.1204 -0.1306
 2340W        W 6540   8.642   7.998   3.222 -0.1404  0.0314  0.0143
 2341W        W 6541   9.021   8.871   4.703 -0.0763 -0.1481  0.4356
 2342W        W 6542   2.219   6.826   2.542  0.0890 -0.1558 -0.0259
 2343W        W 6543   6.506   2.451  11.998 -0.1546  0.0930 -0.1135
 2344W        W 6544   4.776   5.750   1.383 -0.2242  0.0402 -0.1925
 2345W        W 6545   9.695   6.779   3.915 -0.1197 -0.0080  0.0952
 2346W        W 6546   7.966   1.142   1.304  0.2866 -0.4043 -0.0740
 2347W        W 6547   3.058   1.646  10.651 -0.2730  0.1789  0.1829
 2348W        W 6548   7.641   8.076  10.736 -0.0423  0.3173 -0.1709
 2349W        W 6549   4.973   2.868  11.035  0.3706 -0.0461 -0.0234
 2350W        W 6550   5.775   3.410   9.781 -0.0694 -0.2794  0.0325
 2351W        W 6551   4.866   8.667  12.014  0.1618 -0.3032  0.1382
 2352W        W 6552   2.466   6.886   3.139  0.4825 -0.0514 -0.0426
 2353W        W 6553   8.724   6.642  12.319 -0.1601 -0.2796  0.0433
 2354W        W 6554   0.985   9.691  11.275  0.0293 -0.0873  0.1797
 2355W        W 6555   8.082   2.486   1.260  0.2001  0.1715  0.0696
 2356W        W 6556   6.182   9.996  12.757 -0.0878  0.2988 -0.1027
 2357W        W 6557   1.849   4.712   9.808  0.0341 -0.1539 -0.0862
 2358W        W 6558   3.658   9.608   2.238  0.2412  0.0612  0.2446
 2359W        W 6559  10.244   2.191   2.072  0.0523  0.1502 -0.0460
 2360W        W 6560   6.858   1.867   9.881  0.3215 -0.0334  0.0894
 2361W        W 6561   3.359   3.103  11.147 -0.1520  0.2410  0.0200
 2362W        W 6562  10.010   5.318   0.564 -0.0685 -0.2124  0.0460
 2363W        W 6563   4.632   7.428   2.177 -0.3009  0.0158 -0.0755
 2364W        W 6564   4.429   0.674   4.182  0.1351 -0.3439 -0.3618
 2365W        W 6565   3.983   3.758   1.776  0.3055  0.0499 -0.2464
 2366W        W 6566   7.209   3.988  10.888  0.1276 -0.1332 -0.0202
 2367W        W 6567   0.095   3.911   2.009  0.0176  0.3533 -0.1303
 2368W        W 6568   8.801   1.097   2.384 -0.1754 -0.4369  0.0294
 2369W        W 6569   7.969   3.978   3.134 -0.3954 -0.1854  0.2931
 2370W        W 6570   9.788   5.796   3.109 -0.1238  0.0762 -0.2447
 2371W        W 6571   2.289   8.187   1.319 -0.0098  0.0815  0.1135
 2372W        W 6572   3.376   3.567   2.876  0.0880 -0.0873  0.1476
 2373W        W 6573   2.992   2.990  13.299 -0.0025 -0.1324 -0.1012
 2374W        W 6574   4.542   7.425   0.984  0.1469 -0.0743  0.1561
 2375W        W 6575   8.147   5.412  12.484 -0.0034 -0.1740  0.2325
 2376W        W 6576   1.433   1.331   0.029 -0.2461  0.2808 -0.0122
 2377W        W 6577   9.950   6.625  13.183  0.1545  0.1510 -0.1205
 2378W        W 6578   7.905   2.787   2.581  0.2221 -0.3596  0.2892
 2379W        W 6579   9.610   2.475  10.411  0.0460  0.0581  0.1829
 2380W        W 6580  10.076   3.706   2.205  0.3382  0.0767  0.0909
 2381W        W 6581   7.999  10.156   3.429  0.1135  0.1052 -0.3484
 2382W        W 6582   9.020   7.507  11.717  0.1547  0.2511  0.1247
 2383W        W 6583   2.024   4.498   1.081 -0.0065  0.0480  0.1377
 2384W        W 6584   2.396   9.010   3.040 -0.0564 -0.1819 -0.0481
 2385W        W 6585   3.709   8.578   0.739 -0.1137 -0.0155  0.0997
 2386W        W 6586   2.045   6.204   2.482  0.0013 -0.0057  0.0389
 2387W        W 6587   4.804   5.807   3.791  0.3266 -0.4180  0.1624
 2388W        W 6588   4.097   3.235  10.649 -0.0416 -0.0441 -0.1966
 2389W        W 6589   8.422   5.335   0.158  0.0749  0.0394 -0.2546
 2390W        W 6590   7.507   8.905   2.407 -0.2681  0.2875  0.0444
 2391W        W 6591   5.651   5.520   1.993  0.3204 -0.1466  0.0808
 2392W        W 6592   8.651   5.592  12.419  0.0306  0.1290 -0.2683
 2393W        W 6593   9.743   4.137  13.551 -0.2716  0.1050  0.2972
 2394W        W 6594   9.354   2.411   2.333 -0.1015  0.0888  0.0301
 2395W        W 6595   8.249   3.285  10.303 -0.4614 -0.0514  0.1671
 2396W        W 6596   2.874   2.411   0.320 -0.1227 -0.1090 -0.0567
 2397W        W 6597   4.928   0.249   0.200 -0.1983 -0.0073 -0.1456
 2398W        W 6598   9.824   2.353  10.816 -0.1226 -0.0877  0.1327
 2399W        W 6599   1.233   7.792   2.439  0.1344 -0.0121 -0.1328
 2400W        W 6600   7.859   2.258   0.849 -0.1469  0.0617  0.1328
 2401W        W 6601   9.719   6.561  10.530 -0.3718 -0.0180 -0.0998
 2402W        W 6602   5.115   9.676  11.588 -0.3515 -0.3194  0.0591
 2403W        W 6603   0.900   0.774   3.222  0.0544 -0.0233 -0.1953
 2404W        W 6604   5.695   0.904   0.710  0.3253 -0.1218 -0.2053
 2405W        W 6605   3.180   4.927   3.770 -0.2611  0.0643  0.0323
 2406W        W 6606  10.148   9.242   2.220 -0.0900 -0.1385  0.2548
 2407W        W 6607   7.098   0.540   9.128  0.1808 -0.2637 -0.2114
 2408W        W 6608   1.762   6.797   3.393 -0.2181  0.1520 -0.2138
 2409W        W 6609   2.513   1.070   1.714 -0.2532  0.0378 -0.3179
 2410W        W 6610   1.225   0.466   4.587  0.4394  0.0363  0.0095
 2411W        W 6611   5.629   3.307   1.911  0.0971  0.0642 -0.3677
 2412W        W 6612   9.159   8.435   9.546  0.1693  0.1345 -0.1622
 2413W        W 6613   6.857   2.815   1.329  0.1225 -0.0037  0.2857
 2414W        W 6614   8.347   9.024   0.375  0.1903 -0.2394 -0.2183
 2415W        W 6615   7.195   2.862   2.349 -0.0149 -0.0857  0.0433
 2416W        W 6616   1.707   7.501  11.716  0.2107  0.0040  0.0943
 2417W        W 6617   8.492   7.362   9.423 -0.3567  0.0356  0.0465
 2418W        W 6618   3.968   8.203   4.123 -0.1832 -0.5150 -0.1009
 2419W        W 6619   7.488   6.392   9.339  0.4182  0.0421  0.4734
 2420W        W 6620   9.376   6.380   3.897 -0.1863 -0.1613  0.0849
 2421W        W 6621   1.093   5.364   2.859  0.0459  0.4217  0.0097
 2422W        W 6622   6.237   4.186   2.318  0.0104 -0.2349  0.1080
 2423W        W 6623   2.132   2.953   2.503 -0.0861 -0.0894 -0.1311
 2424W        W 6624   8.042   0.947   1.742  0.0072  0.2881  0.0746
 2425W        W 6625   3.375   1.153   0.255  0.3381  0.2781 -0.3675
 2426W        W 6626   1.961   9.267  12.232  0.4195  0.1795 -0.0612
 2427W        W 6627   8.001   3.505  11.344 -0.0309  0.1035  0.0445
 2428W        W 6628   6.720   7.703   0.231  0.2332  0.0760  0.2225
 2429W        W 6629  10.290  10.081  13.118 -0.1403  0.1789  0.1455
 2430W        W 6630   3.994   4.866   0.116 -0.3127  0.0980  0.1455
 2431W        W 6631   1.551   5.614   1.754  0.2667  0.2253  0.4241
 2432W        W 6632   8.249   3.992   0.815 -0.0850  0.0843  0.0698
 2433W        W 6633   9.812   9.456   4.872  0.0192  0.3059 -0.1925
 2434W        W 6634   6.548   0.343   9.093  0.1917 -0.0447  0.1770
 2435W        W 6635  10.150   6.779   1.284 -0.2272  0.2461 -0.1495
 2436W        W 6636   0.766   7.495  11.888 -0.3927 -0.0045 -0.1179
 2437W        W 6637   2.344   3.982  11.817 -0.0924 -0.0152  0.0304
 2438W        W 6638   6.682   2.203  13.013  0.2169 -0.1021  0.0563
 2439W        W 6639   7.126   9.247   4.531  0.2402  0.0861 -0.2502
 2440W        W 6640   2.151   6.396   3.577 -0.6061 -0.3578 -0.2513
 2441W        W 6641  10.199   9.141   9.471  0.2595  0.0073 -0.1600
 2442W        W 6642   8.487   6.894  11.822  0.2025 -0.1307 -0.0947
 2443W        W 6643   3.540   8.894   0.115 -0.0611  0.1559 -0.1729
 2444W        W 6644   7.808   4.531  12.295  0.2277 -0.4294  0.0819
 2445W        W 6645   7.680   1.772   2.647 -0.0621 -0.1756 -0.1955
 2446W        W 6646   7.729   8.822  13.365  0.1422  0.1141 -0.1079
 2447W        W 6647   1.265  10.234   1.834 -0.1239 -0.0997 -0.0655
 2448W        W 6648   5.887   2.489   2.790  0.2300  0.0717  0.0217
 2449W        W 6649   0.947   5.376   1.348  0.3795 -0.2821  0.0327
 2450W        W 6650   9.980   5.542   9.641 -0.0899  0.1234  0.0619
 2451W        W 6651   8.882   3.695   4.430  0.1419 -0.0845  0.0998
 2452W        W 6652   1.781  10.201   2.127  0.0422  0.4122 -0.2989
 2453W        W 6653   5.775   7.668   1.646  0.2419 -0.2290  0.0657
 2454W        W 6654   0.889   7.227   9.611  0.2153  0.0579  0.0102
 2455W        W 6655   9.910   3.290   4.026 -0.0840 -0.1125 -0.0555
 2456W        W 6656   4.839   5.678   1.870 -0.0438  0.1213  0.3055
 2457W        W 6657   9.954   1.478  11.294  0.3146 -0.2691  0.0466
 2458W        W 6658  10.381   2.821  12.786 -0.1356  0.4843  0.0124
 2459W        W 6659   1.241   3.480   1.336 -0.1802 -0.2422  0.0380
 2460W        W 6660   6.628   4.933   0.290 -0.0260 -0.1292 -0.2074
 2461W        W 6661   8.429   8.858   2.804 -0.0609 -0.1524  0.2514
 2462W        W 6662   8.876   1.295   0.546  0.2447  0.0505  0.1907
 2463W        W 6663   3.609   1.579   2.478  0.0259 -0.1141 -0.0389
 2464W        W 6664   6.217   1.225   2.660  0.1649  0.0634 -0.1206
 2465W        W 6665   2.481   0.077   2.736 -0.2701 -0.1821 -0.1333
 2466W        W 6666   5.455   8.172   0.570 -0.2093 -0.0294 -0.0180
 2467W        W 6667   4.772  10.044   2.876 -0.0912  0.0478 -0.1680
 2468W        W 6668   9.852   4.680  13.195 -0.0042  0.0089  0.1869
 2469W        W 6669   8.102   2.084   9.307 -0.0077 -0.1205 -0.1186
 2470W        W 6670   7.489   3.625   9.726  0.2054 -0.0058 -0.0599
 2471W        W 6671  10.297   8.343   2.497 -0.3251  0.1110 -0.1683
 2472W        W 6672   9.702   9.836   4.636 -0.0701  0.0967  0.2505
 2473W        W 6673   6.411   5.315   4.604  0.0067 -0.0094  0.1219
 2474W        W 6674   8.401   3.034  11.766 -0.1041  0.1319  0.1931
 2475W        W 6675   0.518   7.146   4.971  0.0768 -0.0637 -0.1961
 2476W        W 6676   1.734   4.434   1.641  0.0979  0.0502 -0.0234
 2477W        W 6677   8.715   1.754   0.436 -0.0189 -0.0795 -0.1017
 2478W        W 6678   6.673   4.478   3.288  0.2246 -0.0960 -0.1225
 2479W        W 6679   9.880   5.945   9.275  0.0294 -0.1669  0.1216
 2480W        W 6680  10.024   4.989   1.794 -0.1047 -0.4013 -0.0766
 2481W        W 6681   9.909   6.755   9.745 -0.1335 -0.0320  0.0924
 2482W        W 6682   5.923   8.391   1.843  0.4322 -0.2635  0.1169
 2483W        W 6683   0.128   7.879  13.092 -0.2059 -0.0349  0.0096
 2484W        W 6684   5.566   9.516   3.178  0.3174  0.2599  0.1488
 2485W        W 6685   9.710   9.976   4.103  0.1728  0.0115 -0.3194
 2486W        W 6686   7.656   8.591  12.473 -0.0405  0.4150  0.2704
 2487W        W 6687   0.583   6.274   2.892 -0.1004  0.1773  0.1617
 2488W        W 6688   2.445   0.234   4.360 -0.1053  0.1934  0.1857
 2489W        W 6689   2.871   8.236   1.416  0.1365  0.0045 -0.1931
 2490W        W 6690   9.567  10.201   3.006 -0.0448  0.2013 -0.0035
 2491W        W 6691   4.087   1.225   0.723 -0.1131 -0.0673 -0.0767
 2492W        W 6692   9.974   5.819  11.526 -0.2815  0.0164  0.1905
 2493W        W 6693   9.998   8.449   4.333 -0.0263 -0.0289 -0.1481
 2494W        W 6694   0.403   2.572   0.889  0.2710 -0.0014  0.1233
 2495W        W 6695   0.330   9.132   5.080  0.1766  0.1612 -0.3965
 2496W        W 6696   2.804   8.244   4.172 -0.0790 -0.0653  0.3119
 2497W        W 6697   1.003   5.552  10.312 -0.2559 -0.1248 -0.2035
 2498W        W 6698   3.938   0.209  10.048  0.0647 -0.3824 -0.1354
 2499W        W 6699   0.891   4.257  11.742  0.0606 -0.0616 -0.0671
 2500W        W 6700   3.140   2.920   3.569 -0.1057  0.4721 -0.1446
 2501W        W 6701   6.541   4.529  11.823  0.0776 -0.1598 -0.2890
 2502W        W 6702   1.463   6.799   1.337 -0.0293  0.0246  0.0196
 2503W        W 6703   7.445   1.257   9.720  0.0946  0.3192  0.1236
 2504W        W 6704   3.089   4.275   1.456  0.0806  0.3292  0.1118
 2505W        W 6705  10.020   1.768   3.896 -0.1921 -0.0379  0.1426
 2506W        W 6706   6.537   9.481   9.139 -0.0500 -0.1912 -0.2030
 2507W        W 6707   1.236   6.801   2.599 -0.2806 -0.0824  0.1490
 2508W        W 6708   8.117   4.598  11.619  0.0481  0.0897  0.2948
 2509W        W 6709   2.274   9.244  13.012  0.3018  0.1067  0.1032
 2510W        W 6710   9.867   4.188   3.077 -0.2728  0.0052 -0.0088
 2511W        W 6711   0.780   2.851  11.344 -0.0986 -0.2179  0.1345
 2512W        W 6712   4.280   5.877   1.738 -0.1979  0.2691 -0.0053
 2513W        W 6713   8.032   7.357   4.639 -0.5179 -0.3326 -0.2574
 2514W        W 6714   7.716   6.384   2.834 -0.2665  0.0466  0.3979
 2515W        W 6715   3.800   9.903   1.367  0.0890 -0.0196  0.1349
 2516W        W 6716   9.174   4.467   1.620 -0.3139  0.2130 -0.1923
 2517W        W 6717   3.218   5.959   2.033  0.0151 -0.0915 -0.1369
 2518W        W 6718   5.098   2.110  11.258 -0.0693 -0.0050 -0.3672
 2519W        W 6719  10.271   6.264   3.666 -0.1192 -0.2561  0.0575
 2520W        W 6720   8.497   2.911   0.910  0.1037 -0.2826 -0.0582
 2521W        W 6721   7.398   6.087   2.372  0.0659  0.3436 -0.1728
 2522W        W 6722   2.287   7.590   4.802  0.0274  0.0410  0.1964
 2523W        W 6723  10.274   5.003  12.995 -0.0341  0.0190 -0.2466
 2524W        W 6724   8.933   8.415   0.275  0.1601 -0.1369  0.3872
 2525W        W 6725   7.589   3.545  12.165  0.0455 -0.2360  0.2402
 2526W        W 6726   5.106   3.452  11.018 -0.0246  0.4356 -0.0435
 2527W        W 6727   2.935   7.714   9.402  0.2274  0.1105  0.0753
 2528W        W 6728   0.065   1.673  12.761 -0.1311 -0.1715 -0.0308
 2529W        W 6729   2.158   4.406  13.161 -0.2411  0.2371  0.1595
 2530W        W 6730   6.603  10.098   1.388 -0.1624 -0.3419 -0.0485
 2531W        W 6731   9.452   0.148  13.150  0.0238 -0.1212  0.1720
 2532W        W 6732   7.318   3.259   2.126 -0.4735 -0.3001 -0.3062
 2533W        W 6733   1.270   2.199  11.122  0.1026  0.4515 -0.1294
 2534W        W 6734   8.288   5.870  13.237 -0.1739 -0.1591  0.2562
 2535W        W 6735   7.097   0.947   1.532 -0.2708  0.1922 -0.0491
 2536W        W 6736   3.092   7.059  10.150  0.2310  0.1815 -0.2556
 2537W        W 6737   2.616   8.205   9.558  0.1089  0.1446  0.1504
 2538W        W 6738   6.918   8.682   9.795  0.1512 -0.1962  0.0177
 2539W        W 6739   1.763   5.887   8.988 -0.0609 -0.3355  0.0195
 2540W        W 6740   3.590  10.265   0.470  0.2322 -0.0482 -0.2513
 2541W        W 6741   0.737   1.317   1.401  0.1805  0.1908  0.1454
 2542W        W 6742   1.016   8.600   0.966 -0.2943 -0.0544  0.0199
 2543W        W 6743   8.742   9.458   5.376  0.1374 -0.3642 -0.2194
 2544W        W 6744   6.637   0.214  11.258 -0.0202 -0.0067  0.0941
 2545W        W 6745   8.681   4.860   3.252 -0.1317 -0.3055 -0.1234
 2546W        W 6746   7.972   5.875  11.654  0.1734  0.0048  0.0679
 2547W        W 6747   6.700   8.930  11.863  0.0655  0.1735 -0.0365
 2548W        W 6748   2.491   7.864  10.947 -0.1242  0.1028 -0.0102
 2549W        W 6749   1.413   9.425   9.325  0.2604 -0.3600  0.2171
 2550W        W 6750   0.740   2.044  11.532  0.0838 -0.2115  0.0460
 2551W        W 6751   0.744   4.067   3.141  0.0408 -0.0027  0.1205
 2552W        W 6752   8.687   0.759   3.264 -0.4261  0.1192  0.0340
 2553W        W 6753   4.277   1.706   0.646 -0.2764  0.2834  0.1444
 2554W        W 6754   4.786   7.712   9.447 -0.1257 -0.3475 -0.3034
 2555W        W 6755   5.483  10.116   3.382 -0.0600 -0.1006 -0.1167
 2556W        W 6756   7.339  10.260  10.437 -0.0539  0.2172  0.0458
 2557W        W 6757   0.531   2.491  11.648  0.0354 -0.2732  0.1797
 2558W        W 6758   3.462   5.004  11.987 -0.2375 -0.0055 -0.1756
 2559W        W 6759   9.082   4.868   1.962 -0.2790  0.2035  0.1954
 2560W        W 6760   0.300   4.665  12.410 -0.4042  0.2270  0.0625
 2561W        W 6761   8.247   4.907   2.454 -0.3101 -0.2837  0.2511
 2562W        W 6762   6.601   6.953  11.381  0.0284  0.1743 -0.1660
 2563W        W 6763   3.876   2.548   1.851 -0.0919 -0.1515 -0.0207
 2564W        W 6764   5.752   5.315  13.027 -0.0848 -0.0783 -0.3232
 2565W        W 6765   8.406   0.903  13.350  0.0972 -0.0600  0.0233
 2566W        W 6766   0.483   9.340   1.870  0.0919 -0.1336  0.0033
 2567W        W 6767   8.578   4.355  11.612 -0.0498  0.2885  0.0273
 2568W        W 6768   9.252   3.202   2.666 -0.1995 -0.3188 -0.2663
 2569W        W 6769   8.024   5.508  11.077 -0.1864  0.5198  0.1740
 2570W        W 6770   1.026   5.814   1.798 -0.1278  0.0214  0.0911
 2571W        W 6771   4.176   5.131   1.780  0.2472  0.5397  0.1577
 2572W        W 6772   2.275   5.907  13.110 -0.0127  0.1097  0.4261
 2573W        W 6773   8.545   5.333   3.486  0.0378 -0.1944  0.0576
 2574W        W 6774   5.547   7.148   3.557 -0.0151 -0.2517 -0.2157
 2575W        W 6775   6.076   4.261   9.421 -0.0563  0.3222  0.0521
 2576W        W 6776   1.768   4.632  13.434 -0.0790 -0.0170 -0.2293
 2577W        W 6777   6.703   9.065   4.414 -0.1601  0.4125  0.0902
 2578W        W 6778   5.403   8.624   0.782 -0.0044  0.1503  0.1084
 2579W        W 6779   3.748   5.729  12.545  0.2513  0.1150 -0.0278
 2580W        W 6780   6.247   0.489  13.520 -0.3450 -0.4467  0.3170
 2581W        W 6781   4.962   4.903  13.347 -0.1845  0.2076  0.3949
 2582W        W 6782   1.595   2.190   1.468 -0.0059 -0.1437  0.0471
 2583W        W 6783   7.452   6.346   4.458 -0.1272  0.0399  0.2078
 2584W        W 6784   0.723   9.339  12.122 -0.0931 -0.1801 -0.1533
 2585W        W 6785   0.687   7.439   4.111  0.0063  0.2080  0.1803
 2586W        W 6786   5.185  10.160  11.683  0.1111  0.1299  0.3005
 2587W        W 6787   3.002   3.286   0.214  0.0217  0.1109  0.1588
 2588W        W 6788   4.375   4.260   2.909  0.0313 -0.3022  0.0704
 2589W        W 6789   9.186   5.481  13.267 -0.1203  0.3228 -0.0621
 2590W        W 6790   5.306   3.891  11.238 -0.0143  0.0509  0.2179
 2591W        W 6791   6.380   8.893  10.058 -0.2099  0.3140 -0.0912
 2592W        W 6792   4.269   0.360   5.232 -0.0660  0.2736  0.2136
 2593W        W 6793   5.493   9.004   3.109 -0.0037  0.3721  0.0946
 2594W        W 6794   1.194   1.777   7.053  0.0605 -0.1984 -0.0509
 2595W        W 6795   6.720   5.480   2.371 -0.0225 -0.0934 -0.1688
 2596W        W 6796   5.701   0.933  10.415 -0.2160  0.1216 -0.1613
 2597W        W 6797   8.310   4.891   8.763  0.0421 -0.2388 -0.0398
 2598W        W 6798   6.076   7.007   0.672  0.0325 -0.3473  0.2464
 2599W        W 6799   3.621   4.615   2.819  0.0484  0.1032 -0.0422
 2600W        W 6800   6.985   6.608  12.154 -0.2583 -0.0933  0.0648
 2601W        W 6801  10.182   3.712  10.769 -0.1546  0.1253  0.0617
 2602W        W 6802   0.668   3.285   2.692 -0.0527  0.0003  0.1605
 2603W        W 6803   6.021  10.337  10.984 -0.0751  0.0014 -0.2438
 2604W        W 6804   4.954   9.115  11.731 -0.4429  0.1238 -0.1717
 2605W        W 6805   3.234   1.733  11.248 -0.2971  0.2542  0.2862
 2606W        W 6806   5.702   6.616   2.189  0.1694  0.1217 -0.3025
 2607W        W 6807   5.301   4.653  10.286  0.2198 -0.0046  0.0696
 2608W        W 6808   2.918   6.179   3.776 -0.2865 -0.0286  0.2208
 2609W        W 6809   2.816   5.377   1.590 -0.0406 -0.2242  0.1391
 2610W        W 6810   4.730   2.907  11.822  0.2660  0.1017  0.1513
 2611W        W 6811   9.582   4.630   9.603 -0.0601 -0.2908  0.0198
 2612W        W 6812   2.461   5.420   1.986 -0.2173  0.1659 -0.1255
 2613W        W 6813  10.396   7.469   3.131  0.2802  0.1377  0.0755
 2614W        W 6814   9.257   3.860   1.440  0.2253  0.2629 -0.0348
 2615W        W 6815   7.038   2.486   3.182  0.0279 -0.3062 -0.0212
 2616W        W 6816   4.118   1.519   3.377 -0.0167 -0.0607 -0.1848
 2617W        W 6817   4.698   0.538   3.338 -0.0662  0.1007  0.4677
 2618W        W 6818   6.568   2.251   0.705 -0.1038 -0.0358  0.0955
 2619W        W 6819   8.372   8.834   9.157 -0.0797  0.0037  0.0048
 2620W        W 6820   1.263   3.819   2.278  0.0899 -0.2055  0.0184
 2621W        W 6821   6.372   2.411  11.194 -0.0293 -0.0837 -0.1623
 2622W        W 6822  10.357   3.474  11.155 -0.3588  0.1091  0.3024
 2623W        W 6823   5.745   4.740   1.645 -0.0114  0.4182 -0.0897
 2624W        W 6824   0.179   9.856   4.386  0.0763  0.1232 -0.0470
 2625W        W 6825   9.082   5.215  12.675 -0.0175 -0.5064 -0.1621
 2626W        W 6826   3.596   0.521   4.515  0.0668 -0.0477 -0.0128
 2627W        W 6827   8.152   3.168   2.179 -0.4994 -0.2456  0.2077
 2628W        W 6828   6.865   3.246   8.534  0.0556 -0.2069  0.2475
 2629W        W 6829   5.786   3.455  10.344  0.0381  0.0411  0.2656
 2630W        W 6830   2.506   3.102   7.996 -0.0796 -0.1722 -0.3653
 2631W        W 6831   0.999   4.676  12.840 -0.4737  0.1746 -0.2203
 2632W        W 6832  10.171   6.266  11.510 -0.0881  0.4796  0.0673
 2633W        W 6833   5.615   3.594   1.393  0.0618  0.0712  0.0354
 2634W        W 6834   0.011   7.680  11.425  0.0071 -0.1340  0.0482
 2635W        W 6835   1.065   2.466  11.493  0.1859 -0.0272 -0.2516
 2636W        W 6836  10.076   9.552   0.069 -0.0337  0.0814  0.1491
 2637W        W 6837   2.021   5.290   3.226 -0.0288  0.2843  0.2196
 2638W        W 6838   0.049   4.175  10.659 -0.1420 -0.2762 -0.3041
 2639W        W 6839   0.562   5.555   1.958  0.1118 -0.1325  0.0145
 2640W        W 6840   8.971   8.793  11.458  0.1656  0.2717 -0.0076
 2641W        W 6841  10.231   5.358  11.602 -0.0217  0.0325  0.2341
 2642W        W 6842   9.164   2.673  12.265 -0.0421 -0.3985  0.1021
 2643W        W 6843   4.458   9.793   1.164 -0.0080 -0.0924  0.1209
 2644W        W 6844   9.014   2.568   1.412  0.4246 -0.0180 -0.0328
 2645W        W 6845   0.489   6.400  11.087  0.0068 -0.0770  0.0848
 2646W        W 6846   2.578   1.190  12.088  0.1553 -0.0988 -0.0253
 2647W        W 6847   5.466   6.065   2.710 -0.2553 -0.0118  0.0309
 2648W        W 6848   4.798   4.946  11.201 -0.3056 -0.3208 -0.0601
 2649W        W 6849   1.842   1.388  12.675  0.0433  0.3082  0.1477
 2650W        W 6850   3.942  10.087  10.847  0.1660 -0.0528 -0.2358
 2651W        W 6851   0.729   4.439   1.585  0.1065  0.3013 -0.0548
 2652W        W 6852   4.815   1.412  12.965 -0.1875 -0.2211  0.4029
 2653W        W 6853   6.019  10.422   0.136  0.1604 -0.1223 -0.0560
 2654W        W 6854   0.385   9.038  12.419  0.1265  0.0618 -0.1720
 2655W        W 6855   0.946   8.527   2.270 -0.3256 -0.2205 -0.0830
 2656W        W 6856   9.638   7.192  12.566  0.0927  0.2760  0.1221
 2657W        W 6857   8.614   1.343   3.382  0.2598  0.2527  0.1178
 2658W        W 6858   3.096   1.738   1.300 -0.0762  0.2615  0.0306
 2659W        W 6859   1.975   5.721   2.528  0.0448  0.1341  0.2237
 2660W        W 6860   7.495  10.374  13.086 -0.1298 -0.0698 -0.2143
 2661W        W 6861   0.970   5.144  11.181  0.3648  0.1466  0.3395
 2662W        W 6862   4.929   4.098   3.632 -0.0863 -0.0749  0.2000
 2663W        W 6863   6.332   0.971   3.486  0.0087 -0.2764  0.0196
 2664W        W 6864   9.652   5.551  10.461 -0.0077  0.3148  0.1365
 2665W        W 6865   6.946  10.313   1.118 -0.1374 -0.1189  0.0599
 2666W        W 6866   4.039   3.487  13.127 -0.2117 -0.3074 -0.0745
 2667W        W 6867   4.859   9.036   4.880 -0.0581 -0.0852  0.1533
 2668W        W 6868   1.619   4.368   0.851 -0.2629  0.1511  0.0342
 2669W        W 6869   9.355   2.924  11.641 -0.1037  0.1171 -0.2452
 2670W        W 6870   4.447   4.980  12.738  0.3447 -0.0606  0.1090
 2671W        W 6871   5.756   5.093   0.434 -0.1866 -0.0564 -0.0558
 2672W        W 6872   8.007   9.892   2.373 -0.3036  0.2464  0.1169
 2673W        W 6873   8.723   0.760  10.908  0.2068 -0.2239 -0.0724
 2674W        W 6874   8.658   7.848  11.423 -0.0747  0.0689 -0.0994
 2675W        W 6875   9.033   7.778  13.433 -0.0731  0.1261  0.3162
 2676W        W 6876   4.103   6.973   4.311 -0.2878  0.3321 -0.1517
 2677W        W 6877   6.062   2.896   8.886  0.0795 -0.0282 -0.0557
 2678W        W 6878   4.306  10.116   3.908 -0.0833 -0.0477 -0.1574
 2679W        W 6879   5.194   8.305  12.183  0.0577 -0.1824 -0.0726
 2680W        W 6880  10.401   2.744   3.019 -0.0798  0.1329  0.2721
 2681W        W 6881   8.951   1.212   1.064 -0.0929 -0.0681  0.2311
 2682W        W 6882   2.094   1.012   3.998 -0.0394 -0.1274  0.2720
 2683W        W 6883   7.255   9.727   8.487 -0.1142  0.2250  0.1423
 2684W        W 6884   7.287  10.050   9.389  0.3099 -0.2969  0.0681
 2685W        W 6885   6.846   1.301  10.535  0.2249 -0.0446  0.1187
 2686W        W 6886   0.488   3.065   1.295  0.4141  0.3556 -0.2419
 2687W        W 6887   0.252   5.751  13.434  0.0046  0.1812  0.1845
 2688W        W 6888   5.787   3.049  12.554 -0.2010  0.1387  0.2455
 2689W        W 6889   3.516  10.184   9.458  0.1276  0.3382 -0.3372
 2690W        W 6890   8.918   2.966  10.672  0.1152  0.0323  0.1119
 2691W        W 6891   0.827   8.699   0.004  0.3189 -0.2597  0.0366
 2692W        W 6892   7.225   7.199  10.168 -0.0146  0.4048 -0.0506
 2693W        W 6893   8.514   0.350  13.349 -0.0734 -0.0114 -0.1210
 2694W        W 6894   7.617   1.103   2.040  0.3008 -0.0725 -0.2020
 2695W        W 6895   3.870   4.936   4.040  0.3758  0.0382  0.3729
 2696W        W 6896   6.321   7.260  10.491 -0.2886  0.5870 -0.4021
 2697W        W 6897   8.489   5.570  10.616 -0.0564 -0.3076  0.1923
 2698W        W 6898   9.812   0.845  11.601  0.0886  0.0568  0.0879
 2699W        W 6899   6.832   9.074  10.134  0.2474  0.1511 -0.0295
 2700W        W 6900   0.413   7.128  13.482 -0.1673  0.3215 -0.3290
 2701W        W 6901   5.118   6.238   2.379  0.3637 -0.3198  0.1468
 2702W        W 6902   4.473   4.007  10.131  0.3263 -0.1004 -0.0922
 2703W        W 6903   7.572   6.195   3.295 -0.1858  0.0144 -0.4009
 2704W        W 6904   3.384   5.729   0.353 -0.0624  0.0009 -0.3150
 2705W        W 6905   9.284   7.807  11.994 -0.1392  0.0800 -0.1115
 2706W        W 6906   1.176   8.837   9.965 -0.0016  0.0305  0.1790
 2707W        W 6907   4.974   2.864   2.640  0.2423  0.1510 -0.1215
 2708W        W 6908   6.608   4.078   0.598  0.0382  0.1331  0.0498
 2709W        W 6909   2.346   5.183  10.512 -0.2954  0.0257 -0.1830
 2710W        W 6910  10.067   8.463   8.604  0.2157 -0.1083  0.1103
 2711W        W 6911   9.882   9.217  12.309  0.1265  0.1079  0.0549
 2712W        W 6912   2.863   7.933  10.573 -0.1133  0.1211 -0.0853
 2713W        W 6913   8.577   9.212   4.470 -0.1519 -0.2564 -0.0683
 2714W        W 6914   6.601   4.684   4.550  0.0875  0.4614 -0.0603
 2715W        W 6915   7.541   2.865   3.749  0.0404 -0.1565  0.0870
 2716W        W 6916   7.739   0.125  10.219  0.1213  0.1882  0.0217
 2717W        W 6917   6.872   9.811  10.590 -0.1689 -0.2155  0.1882
 2718W        W 6918   8.484   2.842   0.135 -0.3461 -0.2337  0.0622
 2719W        W 6919   5.011   8.230  12.645  0.0012 -0.3207  0.3722
 2720W        W 6920   8.994   1.085   8.867 -0.4354 -0.1044 -0.0223
 2721W        W 6921   0.102  10.123   0.315 -0.1234 -0.0220 -0.1010
 2722W        W 6922   3.539   6.201   4.570 -0.0910 -0.0638 -0.1651
 2723W        W 6923   0.398   4.925  10.151 -0.1550  0.0016 -0.1779
 2724W        W 6924   7.654   1.616  13.088  0.0603  0.0336 -0.0888
 2725W        W 6925   1.423   4.225   4.273  0.1674 -0.0167  0.1516
 2726W        W 6926  10.326   6.040   2.390 -0.0874 -0.2185  0.3867
 2727W        W 6927  10.062   0.079  10.754  0.4368  0.0470  0.0097
 2728W        W 6928   0.456   5.087   1.975  0.0005 -0.2431 -0.3531
 2729W        W 6929   4.397   3.966   0.096  0.0638  0.0231 -0.0769
 2730W        W 6930   7.635   5.492   8.661 -0.1998  0.1175  0.1726
 2731W        W 6931   7.052   4.494   1.479  0.2766 -0.1829 -0.3705
 2732W        W 6932   9.987   1.126  10.966  0.1118 -0.4170  0.2103
 2733W        W 6933   6.240   8.828  10.979  0.0245  0.1851  0.1598
 2734W        W 6934   4.914   6.223   1.619 -0.5188  0.2104  0.2527
 2735W        W 6935   9.492  10.314   9.521  0.1176  0.2266 -0.0375
 2736W        W 6936   8.723   0.457  11.471 -0.0586  0.3896  0.0550
 2737W        W 6937   9.394   5.636  11.701  0.2364 -0.1508  0.1052
 2738W        W 6938   7.446   4.037   3.131 -0.0504  0.1737 -0.0978
 2739W        W 6939   4.488   4.635  11.543  0.5292 -0.0555  0.1584
 2740W        W 6940   5.042   7.724   9.990 -0.0267 -0.0556 -0.2973
 2741W        W 6941   1.936   6.579  10.610  0.1161  0.0074  0.0220
 2742W        W 6942   3.719   4.052   2.956 -0.0553 -0.0094 -0.1537
 2743W        W 6943   5.658   2.557  10.208  0.0584 -0.4247  0.0471
 2744W        W 6944   8.897   0.095   3.568  0.0858 -0.0302  0.4694
 2745W        W 6945   0.311   5.010   3.642 -0.1064 -0.0341 -0.2797
 2746W        W 6946   3.727   3.847   0.710 -0.1458 -0.4441 -0.4127
 2747W        W 6947   0.983   4.191  13.187 -0.0740 -0.2882  0.0815
 2748W        W 6948   0.294   4.113   0.014 -0.1508  0.3026 -0.3285
 2749W        W 6949  10.133   5.741  12.882  0.1230  0.1585 -0.0903
 2750W        W 6950   3.519   1.297   1.604  0.0223  0.1471  0.1892
 2751W        W 6951   6.635   2.698  11.484  0.1199 -0.1460 -0.0815
 2752W        W 6952   5.578   5.294   3.232 -0.0804  0.1851 -0.1201
 2753W        W 6953   4.221   0.599   3.190 -0.1635 -0.1409 -0.0869
 2754W        W 6954   1.840   0.566  11.668 -0.2611  0.3980 -0.1532
 2755W        W 6955   1.517   4.416   2.555  0.2172  0.1394  0.1610
 2756W        W 6956   6.511   4.590   3.784  0.1186  0.0383  0.0608
 2757W        W 6957   7.947   2.275   2.793 -0.1344 -0.0056  0.2229
 2758W        W 6958   4.470   9.415   4.673  0.4291  0.0186  0.2117
 2759W        W 6959  10.175   5.101   4.147 -0.0384 -0.0434  0.2081
 2760W        W 6960   0.938   8.871   1.393  0.1856  0.1741  0.2742
 2761W        W 6961   0.303   4.684   3.151 -0.2234  0.2945 -0.2901
 2762W        W 6962   2.558   9.934   9.935  0.1116  0.0290 -0.1392
 2763W        W 6963   1.171   2.076   1.752  0.2301  0.2506  0.0232
 2764W        W 6964   0.420   7.391   2.986  0.1529 -0.0152  0.0380
 2765W        W 6965   7.452   7.870   1.223  0.0377  0.1676 -0.1237
 2766W        W 6966   9.139   5.843   1.838  0.0725  0.1122  0.2167
 2767W        W 6967   9.960   7.620  13.517  0.1106  0.1716 -0.3264
 2768W        W 6968   1.634   9.210   4.249 -0.0584  0.0933 -0.2502
 2769W        W 6969   4.938   2.554  12.593 -0.0314 -0.2888 -0.3861
 2770W        W 6970   0.640   3.008  11.803 -0.1763  0.0896  0.2538
 2771W        W 6971   3.229   7.317   9.544  0.1706  0.1725  0.4193
 2772W        W 6972   6.911   6.998   3.107  0.2746  0.4297  0.0824
 2773W        W 6973   8.736   3.338   2.788  0.2186  0.3152 -0.4368
 2774W        W 6974   5.317   1.144  12.386  0.0542 -0.2337 -0.2245
 2775W        W 6975   9.791   8.301   0.170  0.1029  0.1026 -0.1463
 2776W        W 6976   7.929   0.133   3.105  0.1208 -0.1398 -0.0803
 2777W        W 6977   9.538   8.748   9.308  0.1269  0.0450  0.1200
 2778W        W 6978  10.315   5.064   0.180  0.2605  0.1933 -0.0024
 2779W        W 6979   2.514   5.081  12.566  0.1419  0.2045  0.3990
 2780W        W 6980   9.146   4.131   4.708  0.2193  0.0099  0.0780
 2781W        W 6981   3.436   4.679  10.769 -0.3226  0.0373  0.2047
 2782W        W 6982   8.285   4.571  12.109  0.0099  0.1848  0.2095
 2783W        W 6983   7.817   5.882  12.391 -0.2772  0.0410 -0.0885
 2784W        W 6984   4.660   2.237   2.339  0.0282  0.0520 -0.2514
 2785W        W 6985   0.999   1.332  12.685  0.3175 -0.2717 -0.2803
 2786W        W 6986   8.847   0.243  10.131  0.2284  0.0882 -0.0179
 2787W        W 6987   3.751   6.296  13.174 -0.3834  0.1018 -0.3731
 2788W        W 6988   3.317   9.920   3.210 -0.0137  0.0160  0.1506
 2789W        W 6989   7.188   3.272   1.657  0.0813 -0.1721 -0.4369
 2790W        W 6990   6.236   7.887   1.697 -0.2991 -0.2519  0.1828
 2791W        W 6991   7.731   1.330   9.264  0.2391  0.0276 -0.0706
 2792W        W 6992   4.209   1.394   0.283 -0.0415  0.0737  0.1261
 2793W        W 6993   5.619   6.630   3.670 -0.0082 -0.1805 -0.0941
 2794W        W 6994   7.977   8.069  10.110 -0.2867  0.0411  0.0663
 2795W        W 6995   8.863   8.396   2.235 -0.0073 -0.2649 -0.1045
 2796W        W 6996   5.416   2.784   2.330 -0.0494  0.1227 -0.0341
 2797W        W 6997   9.581   3.897   0.518  0.0795 -0.2679  0.3127
 2798W        W 6998   5.367   4.021   9.162  0.2575 -0.1166 -0.0667
 2799W        W 6999   5.062   7.108   3.840  0.2214  0.1448 -0.0161
 2800W        W 7000   8.162   1.320   9.529  0.0354 -0.1109 -0.2097
 2801W        W 7001   3.360   0.709  13.036  0.2144  0.2196  0.2963
 2802W        W 7002   4.965   9.374  11.174  0.1668 -0.5208 -0.2960
 2803W        W 7003   6.819   7.855   0.779  0.1283 -0.0411 -0.1520
 2804W        W 7004   2.556   1.780   7.173  0.0697 -0.0283  0.1594
 2805W        W 7005   6.937   7.836  13.201  0.1474  0.0398  0.1113
 2806W        W 7006   6.128   6.662  10.584  0.1510  0.1293  0.1523
 2807W        W 7007   9.704   1.593   3.285  0.1227  0.2404  0.0594
 2808W        W 7008   6.467   1.748  12.354 -0.1226 -0.0739 -0.1868
 2809W        W 7009   3.292   6.905   8.737  0.1794  0.3194 -0.2110
 2810W        W 7010   7.308   4.544   4.132  0.0405 -0.0779  0.0713
 2811W        W 7011   6.078   2.363   9.568  0.1526  0.2222 -0.2386
 2812W        W 7012   0.474   7.403   0.900 -0.1095  0.0451 -0.2289
 2813W        W 7013   9.932   2.623   3.242 -0.0220 -0.0685  0.2502
 2814W        W 7014   5.593   6.581   2.751 -0.1975 -0.1646  0.2835
 2815W        W 7015   9.300   8.975  13.036  0.3653  0.0629 -0.1289
 2816W        W 7016   0.578   5.021  11.540 -0.0242 -0.1907 -0.0204
 2817W        W 7017   9.878   5.860  12.397 -0.0892 -0.0064 -0.0673
 2818W        W 7018   4.193   6.925   2.540  0.0152 -0.0140 -0.0299
 2819W        W 7019   4.009   6.910  10.875 -0.0882 -0.3179 -0.2223
 2820W        W 7020   6.102   4.529   3.329 -0.2059 -0.0133 -0.0850
 2821W        W 7021   8.427   5.428  12.973  0.1208  0.0410 -0.0425
 2822W        W 7022   7.922   9.130   4.844  0.2112  0.3159 -0.3184
 2823W        W 7023   0.723   2.834  10.839 -0.0358  0.0639 -0.0169
 2824W        W 7024   3.448   4.635  12.385 -0.2498 -0.1229  0.1032
 2825W        W 7025   6.513   2.694  12.925 -0.1141  0.0453  0.4923
 2826W        W 7026   3.563   5.187  10.713  0.0690 -0.0164 -0.1985
 2827W        W 7027   0.491   7.024   3.855  0.1811 -0.2104  0.1955
 2828W        W 7028   1.126   4.372   1.228  0.0673 -0.2091  0.2055
 2829W        W 7029   6.705   9.033   3.118 -0.2482  0.3044  0.1205
 2830W        W 7030   3.622   8.002   8.754 -0.0873  0.1887 -0.2778
 2831W        W 7031   7.748   2.776  13.216  0.2874 -0.1072  0.0853
 2832W        W 7032   3.595   8.671   4.396  0.1348 -0.0192 -0.1107
 2833W        W 7033   6.605   6.743   4.719  0.0639 -0.0548 -0.2118
 2834W        W 7034   3.412   9.751   9.316 -0.3666  0.2307 -0.0267
 2835W        W 7035   2.761   0.095  13.402 -0.0861  0.3493 -0.1603
 2836W        W 7036   4.017   0.879   4.432 -0.1852  0.0815 -0.1646
 2837W        W 7037   8.323   1.513  12.363  0.0596 -0.0722  0.3097
 2838W        W 7038   6.522   9.986  10.276  0.4330 -0.0794  0.2738
 2839W        W 7039   9.347   9.842   0.662  0.0615  0.0152  0.1348
 2840W        W 7040   8.994   4.666   0.462 -0.0752 -0.0586 -0.1237
 2841W        W 7041   6.017   0.956   0.097 -0.0887  0.1655 -0.1634
 2842W        W 7042   9.655   3.126  11.286  0.0365 -0.0402 -0.0945
 2843W        W 7043   0.038   9.723  12.779  0.3274  0.0844 -0.0376
 2844W        W 7044   5.264   8.140   1.621  0.3634 -0.0038  0.1599
 2845W        W 7045   7.000   5.411   2.952  0.0156  0.1584 -0.0975
 2846W        W 7046   4.509   9.715  12.888  0.1889  0.1849  0.0333
 2847W        W 7047   6.552   9.375   9.805 -0.0056  0.3617 -0.0100
 2848W        W 7048   6.301   8.620   0.801  0.3735  0.2606 -0.2642
 2849W        W 7049   8.682   8.920  10.992  0.3879  0.1116  0.0791
 2850W        W 7050   8.337   6.407   1.086  0.0336  0.0626  0.1330
 2851W        W 7051   2.953   7.853   0.604 -0.3149 -0.0952  0.0141
 2852W        W 7052   8.782   6.118  12.653  0.2240  0.2302 -0.1498
 2853W        W 7053   8.645   2.043   1.356 -0.1572  0.0174  0.0697
 2854W        W 7054   3.520   3.557  13.258  0.0377  0.0563  0.0586
 2855W        W 7055   7.678   0.855  12.602  0.0425  0.1141 -0.0181
 2856W        W 7056   0.270   3.674  10.760  0.5704 -0.3090 -0.2218
 2857W        W 7057   2.922   9.733   4.173  0.0679  0.0216  0.2708
 2858W        W 7058   6.949   7.566   1.705 -0.0359 -0.1579  0.0179
 2859W        W 7059   1.743   4.984   0.204  0.1510 -0.0664  0.2113
 2860W        W 7060   0.562   0.424   2.335  0.1026  0.0103 -0.1476
 2861W        W 7061   2.246  10.195   0.529 -0.0155 -0.1990 -0.3368
 2862W        W 7062   7.699   5.305   3.604  0.0231  0.1226  0.1330
 2863W        W 7063   8.455   2.829  11.116  0.0834 -0.2945  0.0833
 2864W        W 7064   3.751   7.776   2.302 -0.0584  0.1079  0.3493
 2865W        W 7065   8.004   0.788  11.529  0.6898  0.0874  0.1361
 2866W        W 7066   7.606   5.863   9.105 -0.1020 -0.0256 -0.0974
 2867W        W 7067   8.133   2.568   0.493  0.4081  0.1061 -0.2364
 2868W        W 7068   1.283   8.313  11.370 -0.1376 -0.2309 -0.1582
 2869W        W 7069   5.303   6.567  10.021  0.0956 -0.0847  0.0625
 2870W        W 7070   1.090   2.810   0.446 -0.0841 -0.0114  0.0546
 2871W        W 7071   4.400   1.142   4.343  0.2175 -0.0317 -0.1644
 2872W        W 7072   5.976   9.851  11.216  0.1382 -0.2926  0.0907
 2873W        W 7073   2.526   7.335   3.383  0.1681 -0.0776  0.0197
 2874W        W 7074   5.304   2.589   1.818  0.2262  0.0003 -0.1762
 2875W        W 7075   3.433   4.231  10.244 -0.3123  0.2917 -0.2503
 2876W        W 7076   8.936   9.584   9.585 -0.2621 -0.2082  0.2293
 2877W        W 7077   6.552   8.302   1.533 -0.2676 -0.2945  0.1097
 2878W        W 7078   6.375   3.720   2.742  0.2986 -0.1600 -0.1417
 2879W        W 7079   9.417   7.404   3.829 -0.5903  0.1578  0.3618
 2880W        W 7080   5.126   0.962  12.903 -0.2470  0.0717  0.2265
 2881W        W 7081   0.558   7.093   4.523 -0.1871  0.1590  0.0490
 2882W        W 7082   5.495   4.894   5.139  0.1362  0.1119  0.1617
 2883W        W 7083   9.721   7.132   4.306  0.2553  0.0317 -0.1980
 2884W        W 7084   7.735   6.986   0.878  0.2502 -0.3060 -0.1538
 2885W        W 7085   5.575   1.119   2.636  0.1146 -0.0151 -0.2558
 2886W        W 7086   9.029   2.009   9.870 -0.2818 -0.0543  0.1384
 2887W        W 7087   2.838   5.388  12.864  0.0409  0.4252  0.0231
 2888W        W 7088   8.822   3.618   0.713 -0.1618  0.0518 -0.0454
 2889W        W 7089   8.900   3.610   0.159 -0.0081  0.2191 -0.0050
 2890W        W 7090   2.014   6.455  12.443  0.0534 -0.0674  0.0456
 2891W        W 7091   6.681   8.608   4.177 -0.2416 -0.1747  0.1374
 2892W        W 7092   6.143   1.125   8.421  0.0789  0.0010  0.1194
 2893W        W 7093   4.585   3.289   0.972  0.0734  0.0390  0.0819
 2894W        W 7094   8.085   4.959  11.240  0.1815 -0.0677  0.2152
 2895W        W 7095   2.400   5.230   1.278  0.1646 -0.0776 -0.0063
 2896W        W 7096   7.171   8.764   2.041  0.2805 -0.3425 -0.1107
 2897W        W 7097   7.988   8.899  12.631 -0.2880 -0.1258 -0.1986
 2898W        W 7098   2.456   2.628   0.472 -0.1268  0.1292 -0.0889
 2899W        W 7099   5.508   4.901  13.280  0.2632 -0.6388  0.2200
 2900W        W 7100   5.238   2.941   0.324  0.0973  0.5189 -0.0064
 2901W        W 7101   6.072   9.019   1.196 -0.1156 -0.5696 -0.0934
 2902W        W 7102   2.097   9.338   4.445 -0.3472 -0.0001 -0.0472
 2903W        W 7103   9.975   3.685   1.347  0.2148  0.1968 -0.2616
 2904W        W 7104   3.463   8.966  13.068  0.2109 -0.1778 -0.1333
 2905W        W 7105   9.964   8.924   0.779  0.2811  0.1265  0.0714
 2906W        W 7106   5.040   9.124  12.269 -0.1239 -0.1932 -0.5437
 2907W        W 7107   7.382   1.211  12.388  0.1813 -0.0508  0.1668
 2908W        W 7108   8.304   1.488   3.945 -0.0734  0.2426 -0.2641
 2909W        W 7109   6.768   5.863   8.983  0.3476  0.1292  0.0227
 2910W        W 7110   5.185   3.029  11.461  0.2677  0.2815 -0.0493
 2911W        W 7111   5.581   4.907   9.944  0.1067 -0.5218  0.0288
 2912W        W 7112   2.253   0.268  12.840 -0.0084  0.0727 -0.2502
 2913W        W 7113   7.530   4.676   5.015 -0.4366  0.1971  0.0589
 2914W        W 7114   4.243   1.057  12.792 -0.0143  0.1506  0.0874
 2915W        W 7115   9.047   6.269   3.285  0.0138  0.0515 -0.1152
 2916W        W 7116   3.677   7.025   0.571 -0.0992 -0.0202  0.3760
 2917W        W 7117   5.280   7.898   1.157 -0.1065  0.0182 -0.0194
 2918W        W 7118   9.313   1.931  12.019 -0.4910  0.2489 -0.2728
 2919W        W 7119   0.280   7.425  10.021  0.0337  0.1718  0.2832
 2920W        W 7120  10.209   5.913  13.374 -0.1484 -0.3822  0.2286
 2921W        W 7121   6.253   1.945   1.910 -0.0550  0.0960 -0.0204
 2922W        W 7122   8.645   1.859  11.004  0.0355 -0.1324 -0.2012
 2923W        W 7123   0.284   4.383   2.015  0.0713  0.1799  0.1593
 2924W        W 7124   2.025   3.766  10.043 -0.2756 -0.1534 -0.0041
 2925W        W 7125   8.463   4.520   4.260 -0.0720 -0.2009  0.1209
 2926W        W 7126   3.586  10.286   1.163 -0.3020 -0.0759 -0.0044
 2927W        W 7127   1.883   1.857  11.910 -0.1336  0.0500 -0.0492
 2928W        W 7128   0.425   8.394   2.260 -0.0388 -0.1444 -0.2007
 2929W        W 7129   6.219   0.494  12.481  0.0225 -0.1536 -0.1029
 2930W        W 7130   1.409   0.598  10.676  0.3048 -0.0226 -0.2012
 2931W        W 7131   5.679   8.895  11.674  0.0664 -0.1721  0.0367
 2932W        W 7132   5.510   5.688  10.281  0.2678 -0.0479  0.0133
 2933W        W 7133   7.199   7.002  10.750 -0.2036 -0.0681  0.2887
 2934W        W 7134   3.824   3.378   1.454  0.0309  0.1392  0.1928
 2935W        W 7135   9.903   9.049   5.216 -0.2106 -0.1256  0.4408
 2936W        W 7136   2.889   3.169  11.078 -0.1936 -0.1314  0.1076
 2937W        W 7137   1.668   7.410  10.148 -0.0645  0.2580  0.0454
 2938W        W 7138   4.353   8.828   5.410  0.2488  0.2670  0.2083
 2939W        W 7139   5.268   5.794   3.566  0.1024 -0.3380  0.1920
 2940W        W 7140   0.455   1.425  12.539 -0.3620 -0.3367 -0.1461
 2941W        W 7141   6.686   2.793   2.385 -0.0563  0.0611 -0.3767
 2942W        W 7142   8.931   5.821   9.775 -0.2941  0.0732  0.0385
 2943W        W 7143   7.791   4.439   3.141  0.0792 -0.1755  0.1395
 2944W        W 7144   7.995   8.516   1.328 -0.1374 -0.1107 -0.1738
 2945W        W 7145   3.392  10.253  12.570 -0.0607  0.0592 -0.1642
 2946W        W 7146   8.190   8.657   9.640 -0.0285 -0.2394  0.3282
 2947W        W 7147   4.929   3.078  10.278  0.1674 -0.0976  0.0174
 2948W        W 7148   8.962   5.177   9.198  0.2219 -0.1112 -0.2507
 2949W        W 7149   2.894   0.534   1.855  0.3890 -0.2800  0.0996
 2950W        W 7150   6.423   5.320   1.422  0.0639  0.0028 -0.1332
 2951W        W 7151   8.589   0.743  10.116 -0.0587 -0.2416 -0.4001
 2952W        W 7152   9.662   6.506   5.012 -0.1961 -0.1553 -0.0943
 2953W        W 7153   5.245   1.303  10.393 -0.0879 -0.1375  0.1752
 2954W        W 7154   3.649   5.839  13.441  0.0751 -0.2305  0.0654
 2955W        W 7155   7.997   9.865   5.782 -0.0549  0.0224  0.1415
 2956W        W 7156   4.881   4.996   9.972 -0.2957 -0.1272 -0.0548
 2957W        W 7157   1.136  10.045   4.024 -0.3964  0.2279 -0.0150
 2958W        W 7158   8.045   3.860   4.002  0.3906  0.0597  0.0331
 2959W        W 7159   2.692   0.106   2.216 -0.2171 -0.2299 -0.1569
 2960W        W 7160   7.935   0.070   0.132  0.0860  0.0437 -0.1077
 2961W        W 7161   9.032   6.451  10.870  0.1973 -0.1423 -0.1921
 2962W        W 7162   7.222   1.439  13.298 -0.3087  0.2582  0.0952
 2963W        W 7163   2.107   6.117   4.907  0.3539 -0.1016  0.1099
 2964W        W 7164   3.234   9.953  11.371 -0.1810 -0.0528 -0.0039
 2965W        W 7165   1.823   6.472   1.473  0.0529 -0.2946 -0.1771
 2966W        W 7166   2.886   5.818   0.237  0.1633  0.1657 -0.1637
 2967W        W 7167   2.265   6.544  11.004  0.0661 -0.2541 -0.2260
 2968W        W 7168   7.932   6.180  13.468 -0.4228  0.0987  0.0608
 2969W        W 7169   3.396   3.775   0.208 -0.2531  0.2592 -0.1566
 2970W        W 7170   7.911  10.232   3.958  0.3292 -0.0377 -0.0496
 2971W        W 7171   7.081   5.702  11.481 -0.0337  0.1673 -0.0916
 2972W        W 7172   2.213  10.016  11.825  0.1995 -0.1762  0.0632
 2973W        W 7173   5.783   9.382   4.044  0.2865  0.0364 -0.1480
 2974W        W 7174   7.614   1.917  11.240 -0.2773  0.1173  0.2451
 2975W        W 7175   2.635   0.735  12.216 -0.0377 -0.0160 -0.0881
 2976W        W 7176   9.859   0.054   0.066 -0.1758  0.2386 -0.2046
 2977W        W 7177   6.540   0.818   9.650 -0.3038  0.0451  0.1768
 2978W        W 7178   2.772   9.190   9.952  0.1080  0.1055  0.1830
 2979W        W 7179   4.490   8.497  10.111  0.0358 -0.0327  0.4185
 2980W        W 7180   9.300   5.137   3.871 -0.0241 -0.3075 -0.0936
 2981W        W 7181   8.658   1.887  12.635  0.1733 -0.2390 -0.1786
 2982W        W 7182   2.780   3.455  10.698  0.1300  0.2146  0.0027
 2983W        W 7183   5.990   6.120  10.802  0.0039  0.2462  0.2007
 2984W        W 7184   6.301   4.484   4.189  0.2865  0.0917 -0.2584
 2985W        W 7185   9.445   4.382   0.617 -0.1227  0.0878  0.0907
 2986W        W 7186   3.411   5.754   3.049  0.0276 -0.0081 -0.0521
 2987W        W 7187   5.562   1.345   9.079  0.2439 -0.1861 -0.1652
 2988W        W 7188   3.871   8.715   2.104 -0.1125  0.0276  0.1797
 2989W        W 7189  10.025   8.958  13.509 -0.1605 -0.2487  0.0466
 2990W        W 7190  10.379   4.622   2.380 -0.2700 -0.0997  0.0654
 2991W        W 7191   0.861  10.066   2.105  0.2704  0.1221 -0.4217
 2992W        W 7192   5.113   5.475  10.116  0.0907 -0.0747  0.0822
 2993W        W 7193   8.620   8.545  11.837 -0.0472  0.0282 -0.0134
 2994W        W 7194   7.165   2.120   4.413  0.0555 -0.2577  0.0302
 2995W        W 7195   0.942   7.125   2.198  0.0124 -0.3426 -0.0884
 2996W        W 7196   8.874   3.441  12.407 -0.2718  0.3617 -0.2344
 2997W        W 7197   9.661   0.406  10.859 -0.2276  0.1243 -0.0226
 2998W        W 7198   2.782  10.153   0.212  0.1424 -0.0556 -0.1613
 2999W        W 7199   4.815   1.422  13.436  0.0656 -0.1986  0.2455
 3000W        W 7200   7.600   5.745  10.413 -0.1942  0.0696  0.3887
 3001W        W 7201   4.120   6.701   3.346 -0.4067 -0.3613 -0.2011
 3002W        W 7202   5.686   7.499   2.144 -0.1278 -0.3575 -0.0782
 3003W        W 7203   8.984   4.403   2.712  0.0032 -0.1465  0.1459
 3004W        W 7204   2.206   7.522  13.499  0.0014  0.0782 -0.0839
 3005W        W 7205  10.312   1.781  11.131 -0.0104 -0.1781  0.2833
 3006W        W 7206   6.444   8.502  12.053 -0.2214 -0.0553 -0.3175
 3007W        W 7207   8.770   1.195  13.147  0.1970 -0.0116  0.1069
 3008W        W 7208   1.318   1.627   1.508 -0.1814  0.0315  0.3396
 3009W        W 7209   8.822   3.925  10.300 -0.2509 -0.2365  0.1495
 3010W        W 7210   7.958   1.845   3.059  0.1202  0.0299 -0.0362
 3011W        W 7211   4.973   6.202   9.684  0.0759  0.4481 -0.0311
 3012W        W 7212   6.122   2.578  11.708  0.4797 -0.2085  0.2121
 3013W        W 7213   7.717   9.901  11.974  0.0681 -0.2671  0.2203
 3014W        W 7214   8.041   7.259  10.607 -0.0870 -0.1511  0.1424
 3015W        W 7215   5.672   7.597   1.185  0.1606 -0.1679 -0.3055
 3016W        W 7216   0.837   0.944  12.319 -0.0019 -0.0813 -0.1109
 3017W        W 7217   5.778   5.327  11.844  0.0968  0.4259 -0.1783
 3018W        W 7218   7.905   7.447   3.564 -0.3065  0.3416 -0.3987
 3019W        W 7219   6.187   5.827  10.155  0.3075  0.1523  0.2714
 3020W        W 7220   1.327  10.432  10.617 -0.0327  0.0215 -0.0361
 3021W        W 7221   7.579   5.319   3.045  0.0145 -0.1307 -0.3591
 3022W        W 7222   6.371   5.637   4.243  0.2280 -0.1586  0.2467
 3023W        W 7223   0.915   3.979   4.070 -0.1687 -0.1688 -0.0864
 3024W        W 7224   8.973   6.987  11.577 -0.0507  0.0535  0.0446
 3025W        W 7225   4.240   2.507   9.685 -0.1884  0.0582  0.2455
 3026W        W 7226   8.840   9.578   4.707  0.0380 -0.1460  0.1874
 3027W        W 7227   6.339   4.175  10.284 -0.2488 -0.1642  0.3669
 3028W        W 7228   8.190   8.422   4.434 -0.0601 -0.0762  0.2141
 3029W        W 7229   9.188   9.163  13.578 -0.2006  0.3065 -0.0307
 3030W        W 7230   3.983   9.702   9.687 -0.1236 -0.1732 -0.1018
 3031W        W 7231   0.906   8.131   8.360  0.3018 -0.0765  0.1629
 3032W        W 7232   2.957   6.196   1.582 -0.0133 -0.3089 -0.2484
 3033W        W 7233   6.835   6.307   1.685  0.3489  0.1113  0.2988
 3034W        W 7234   3.446   7.495   0.663 -0.3169  0.0737 -0.1068
 3035W        W 7235   0.842   9.290  10.620  0.1465  0.3694  0.4014
 3036W        W 7236   8.883   4.390   1.186  0.0027  0.0905  0.1765
 3037W        W 7237   3.683   4.867  13.272  0.0729  0.1885 -0.0127
 3038W        W 7238   1.022   7.035   0.596 -0.5115  0.1023  0.3563
 3039W        W 7239   2.219   3.285   3.311 -0.0737  0.1530 -0.0524
 3040W        W 7240   2.438   5.540   0.823  0.0334 -0.0046  0.1431
 3041W        W 7241   6.443   1.293  12.608 -0.3104  0.0576 -0.0110
 3042W        W 7242   7.787   5.695   1.442  0.3368  0.1448 -0.3829
 3043W        W 7243   8.028   9.207   0.731  0.1538  0.2724 -0.0096
 3044W        W 7244   4.776   4.314  11.882 -0.1974  0.0528  0.0695
 3045W        W 7245   4.611   3.853   1.589  0.0507 -0.0214  0.1476
 3046W        W 7246   1.300   1.966  10.697 -0.2706 -0.2257 -0.2379
 3047W        W 7247   4.749   8.092  10.730 -0.0914  0.0043  0.0994
 3048W        W 7248   9.189   3.157   4.544  0.2350 -0.1832 -0.0045
 3049W        W 7249   0.233   3.672   2.999 -0.1530  0.2283  0.1327
 3050W        W 7250   1.991   5.444   0.289  0.4761  0.0492 -0.2309
 3051W        W 7251   4.375   6.603   3.950  0.0030 -0.1140  0.1772
 3052W        W 7252   6.454   4.015   9.248  0.0305  0.1692 -0.0954
 3053W        W 7253   5.268   4.407  11.065 -0.1947  0.0888 -0.1081
 3054W        W 7254   9.740   0.971   2.155 -0.1748  0.2377 -0.0177
 3055W        W 7255   8.244   7.514   3.095  0.0968 -0.2010  0.2224
 3056W        W 7256   0.379   1.031  12.104  0.1040  0.1231  0.1505
 3057W        W 7257   6.414   8.100   8.993  0.2483  0.1214  0.1112
 3058W        W 7258   2.252   1.696   1.896  0.1611  0.1791 -0.0062
 3059W        W 7259   0.607   5.067  12.107 -0.0414  0.1784  0.0403
 3060W        W 7260   4.378   5.692  12.062  0.0720  0.0339 -0.0588
 3061W        W 7261   6.475   6.711   4.213 -0.1417  0.2484  0.0146
 3062W        W 7262   8.044   9.671   9.481 -0.2094 -0.1944  0.1822
 3063W        W 7263   6.148   5.481  11.522  0.2581 -0.1989  0.0633
 3064W        W 7264   6.913   3.761  11.606  0.2149 -0.1231 -0.2126
 3065W        W 7265   1.467   6.086   1.616  0.0040 -0.1111 -0.0122
 3066W        W 7266   2.271   1.287   0.007  0.1129 -0.1058 -0.0898
 3067W        W 7267   4.996   8.791  13.011  0.2143  0.0101  0.0724
 3068W        W 7268   4.542   5.933   9.893 -0.0537  0.2367 -0.1053
 3069W        W 7269   5.802   3.029  10.621 -0.1313  0.1462 -0.1348
 3070W        W 7270   1.374   9.886   2.130 -0.0709 -0.0802 -0.0260
 3071W        W 7271   6.521   7.603  10.775 -0.0198 -0.0844  0.1788
 3072W        W 7272   7.790   4.853   5.487  0.0595  0.1953 -0.1593
 3073W        W 7273  10.386   0.591   0.443  0.2060  0.2474  0.0656
 3074W        W 7274   7.957   3.674   0.271 -0.0296  0.0565  0.2118
 3075W        W 7275   6.689   6.258   4.901  0.0709  0.1384 -0.1031
 3076W        W 7276   9.271   3.507   0.610 -0.0430 -0.3633 -0.0456
 3077W        W 7277   4.850   0.155  11.894 -0.1240  0.0240  0.0850
 3078W        W 7278   5.565   4.869   4.599 -0.1146 -0.1965 -0.1839
 3079W        W 7279   9.494   0.251   0.978  0.3602 -0.2031  0.2928
 3080W        W 7280   9.868   0.971   0.284  0.0012  0.1529 -0.1480
 3081W        W 7281   0.232   8.545  11.175 -0.0003 -0.1566 -0.1759
 3082W        W 7282   0.882   6.186   1.213  0.0954 -0.0065 -0.0569
 3083W        W 7283   4.973   8.491   1.894 -0.0641 -0.0749  0.1413
 3084W        W 7284   1.430   7.019   2.121  0.0040  0.1146  0.2829
 3085W        W 7285   7.772   9.968   9.227  0.1338  0.1106 -0.0708
 3086W        W 7286   1.241   4.679  10.530 -0.0842  0.0732 -0.3216
 3087W        W 7287   7.924   5.380  10.594  0.0113 -0.0897  0.0437
 3088W        W 7288   3.606   3.514   1.938  0.3316  0.1108 -0.2470
 3089W        W 7289   7.472  10.366   0.174  0.3377  0.1415 -0.1203
 3090W        W 7290   8.073   4.316   2.675  0.1337 -0.0648  0.0038
 3091W        W 7291  10.135   8.977   3.526  0.0008 -0.0828  0.1890
 3092W        W 7292   5.961   4.944   2.305 -0.1113  0.0081  0.0395
 3093W        W 7293   8.085   7.813  13.386 -0.1177 -0.1138  0.1127
 3094W        W 7294   7.983   0.642   4.040  0.0167  0.1136 -0.0377
 3095W        W 7295   9.458   5.788   1.373 -0.2310  0.0466  0.0162
 3096W        W 7296   3.304   0.922   3.080 -0.0131  0.2649  0.1088
 3097W        W 7297   3.409   9.153  11.505  0.2730 -0.0572 -0.0002
 3098W        W 7298   3.680   2.925   3.241  0.3731  0.2395 -0.1162
 3099W        W 7299   2.832   8.562  11.606  0.2478 -0.2787  0.1428
 3100W        W 7300   8.962   0.172   1.210  0.1186 -0.3179 -0.2351
 3101W        W 7301   9.580   5.037   1.905  0.1540  0.2028 -0.3182
 3102W        W 7302   8.697   2.916  12.406  0.2327  0.0286 -0.0784
 3103W        W 7303   3.901   9.513   3.321  0.0459  0.0730  0.1413
 3104W        W 7304   6.326   1.665   8.864  0.0163 -0.2753  0.0819
 3105W        W 7305   2.246   0.224   3.338  0.1388 -0.3027  0.1073
 3106W        W 7306   1.968   3.916  10.500  0.1543  0.2775  0.0840
 3107W        W 7307   1.500   9.693   2.650  0.2923 -0.1801  0.0813
 3108W        W 7308   2.823   7.978   9.905  0.0109  0.2803  0.0255
 3109W        W 7309   4.329   6.726  10.361 -0.2906 -0.0413 -0.2223
 3110W        W 7310  10.107   6.179   3.217 -0.2565  0.1670  0.0276
 3111W        W 7311   7.022   7.342   9.729  0.2158  0.2780 -0.0013
 3112W        W 7312   6.969   2.573  13.029  0.0225 -0.0057 -0.1766
 3113W        W 7313   5.206   6.878  12.481 -0.0487 -0.0892  0.0916
 3114W        W 7314   2.719   1.861  12.541  0.0315 -0.0092 -0.0380
 3115W        W 7315   9.242  10.091  11.190  0.0628 -0.0174  0.0675
 3116W        W 7316   8.727   8.513   5.645  0.1793 -0.0573 -0.1149
 3117W        W 7317   6.704   2.243   3.458 -0.5465 -0.0040 -0.1895
 3118W        W 7318   9.644  10.344   0.494  0.0152 -0.1620  0.2452
 3119W        W 7319   2.800   4.258   2.523 -0.2462  0.1380  0.1488
 3120W        W 7320   1.236   0.719   9.639 -0.3329  0.0941 -0.1369
 3121W        W 7321   4.033  10.323  11.724 -0.2653  0.0737 -0.0152
 3122W        W 7322   4.435   4.458   4.335 -0.2972 -0.0906 -0.0019
 3123W        W 7323   2.270   3.942  12.758 -0.0047  0.0258 -0.1070
 3124W        W 7324   9.268   7.883   8.846  0.1956 -0.1408 -0.2135
 3125W        W 7325   2.003  10.187   1.237  0.1371  0.2461 -0.3003
 3126W        W 7326   5.666   9.832   1.862  0.0181  0.0965 -0.2105
 3127W        W 7327   3.801  10.344  12.921  0.0982  0.3223 -0.1093
 3128W        W 7328   1.049   3.403   0.830 -0.0778  0.1829 -0.2573
 3129W        W 7329   6.461   7.633   3.656 -0.2152 -0.0291  0.1016
 3130W        W 7330   8.035   8.591  11.803  0.1567  0.0259 -0.0729
 3131W        W 7331   8.291   6.688   2.468 -0.3333 -0.0875 -0.1074
 3132W        W 7332   0.783   3.815  12.002  0.1514  0.0701  0.0366
 3133W        W 7333   1.439   3.110  11.456 -0.3232 -0.0509 -0.0466
 3134W        W 7334   4.850   5.178  10.416  0.1243 -0.0547  0.1568
 3135W        W 7335   0.605  10.329   0.229  0.0736  0.0760 -0.4939
 3136W        W 7336   4.901   9.659   4.056  0.0935  0.1068 -0.0550
 3137W        W 7337   2.082   1.152   2.928  0.1736 -0.3806  0.1589
 3138W        W 7338   1.555   8.542   0.362 -0.1112 -0.1804 -0.0558
 3139W        W 7339   3.599   4.220   4.242 -0.3529 -0.0018 -0.1407
 3140W        W 7340   0.244   4.574  12.860  0.1331 -0.3179  0.0488
 3141W        W 7341   9.555   6.765   1.964  0.1796  0.0209  0.1204
 3142W        W 7342   6.724   5.668   4.680 -0.0542 -0.1872  0.4177
 3143W        W 7343   1.806   5.726  13.323  0.0528  0.0479 -0.1918
 3144W        W 7344   6.374   9.402  11.728 -0.0761 -0.1993  0.0084
 3145W        W 7345   0.909   9.036   2.369 -0.0350  0.0936 -0.0582
 3146W        W 7346   3.327  10.020   0.782  0.1227  0.0894  0.0026
 3147W        W 7347   2.847   7.406   9.856  0.0622 -0.0731 -0.3483
 3148W        W 7348  10.071   9.764   3.905 -0.0013  0.0130  0.0083
 3149W        W 7349   6.817   0.742  11.637 -0.0734 -0.1631  0.1580
 3150W        W 7350   7.687  10.197   1.534  0.0815 -0.0225  0.3014
 3151W        W 7351   3.971   8.531  11.696 -0.2781 -0.0657  0.0289
 3152W        W 7352   6.990   1.182   0.659  0.0317  0.0603  0.4430
 3153W        W 7353   5.619   2.898   8.801  0.2309 -0.0295 -0.2588
 3154W        W 7354   6.815   5.926   3.071 -0.0467  0.0596  0.1134
 3155W        W 7355   6.686   4.652   1.209  0.2973 -0.2621  0.1951
 3156W        W 7356   7.920   2.891   9.441  0.1520 -0.0997 -0.0191
 3157W        W 7357   9.031  10.352   2.965 -0.0611 -0.1246 -0.2227
 3158W        W 7358   6.703   3.689  11.090 -0.3431  0.0776 -0.0785
 3159W        W 7359   3.497   1.700   1.980  0.2155 -0.1616 -0.0757
 3160W        W 7360   8.375   0.300  10.228  0.1363 -0.1595  0.2936
 3161W        W 7361   0.297   6.324   4.531 -0.1646 -0.1996 -0.0985
 3162W        W 7362   5.299   0.075   3.671 -0.0533  0.1443  0.1457
 3163W        W 7363   3.807   4.308  13.028 -0.1620  0.3444  0.1260
 3164W        W 7364   0.860   2.532   1.099  0.0106  0.0082  0.3072
 3165W        W 7365   6.928   2.260  13.514  0.1923 -0.3708 -0.5190
 3166W        W 7366   0.496   9.785  11.573  0.0990 -0.4018  0.1211
 3167W        W 7367   6.512   1.420   5.111 -0.3303  0.3342 -0.1864
 3168W        W 7368   8.722  10.294   0.949 -0.0002  0.0894 -0.0700
 3169W        W 7369   2.382   3.413   9.989 -0.0356 -0.1005  0.2053
 3170W        W 7370   4.526   1.052  12.190  0.3393 -0.1672  0.4345
 3171W        W 7371   1.738   8.997   0.575 -0.3576 -0.3078  0.0620
 3172W        W 7372   8.049   8.323  10.593 -0.0996  0.1908  0.0519
 3173W        W 7373   5.378   3.958   3.537 -0.0056  0.3261 -0.2357
 3174W        W 7374   5.046   7.969   2.032  0.0328 -0.2397 -0.0267
 3175W        W 7375   2.300   6.412  11.997 -0.0712  0.3395 -0.0417
 3176W        W 7376   8.261   4.830  10.397  0.1789  0.1638  0.1693
 3177W        W 7377   8.155   8.665   4.865  0.0951 -0.0003  0.1485
 3178W        W 7378   8.828   6.457   1.157  0.0401  0.1253 -0.4733
 3179W        W 7379   3.543   9.786  12.674 -0.2576  0.2986  0.2279
 3180W        W 7380   8.955   2.732  11.311  0.0038 -0.0127 -0.0053
 3181W        W 7381   1.871   4.630  12.393 -0.3067 -0.0941  0.5417
 3182W        W 7382   8.663   1.619  11.449  0.1537  0.3431  0.0688
 3183W        W 7383   7.250   0.006   2.661 -0.0345  0.0970 -0.1169
 3184W        W 7384   0.982   6.703   1.140 -0.0428 -0.0874 -0.2092
 3185W        W 7385   2.277   3.774   0.592 -0.1583  0.0623  0.1444
 3186W        W 7386   2.527   7.734  12.648  0.0964  0.0073 -0.0540
 3187W        W 7387   3.048   3.550  12.089  0.0847  0.0068 -0.1428
 3188W        W 7388  10.098   0.524   0.072 -0.2080 -0.3448 -0.1600
 3189W        W 7389   2.594   4.937   1.864  0.0454 -0.0725 -0.0494
 3190W        W 7390   1.843   5.713   9.902 -0.2349  0.3143 -0.0772
 3191W        W 7391   5.056   1.372   4.270  0.0022 -0.1495  0.3082
 3192W        W 7392   8.052   6.121   9.258 -0.2186 -0.0117  0.3344
 3193W        W 7393   9.424   1.065   4.414 -0.1781  0.2094 -0.3499
 3194W        W 7394   0.972   8.209  10.567  0.1511  0.0991  0.1532
 3195W        W 7395   6.082   8.925  13.472 -0.2477 -0.0881  0.1283
 3196W        W 7396   8.545   0.872   1.631  0.1602  0.0302  0.3291
 3197W        W 7397   9.060   2.407   8.464  0.0928 -0.1764  0.0954
 3198W        W 7398   9.564   8.107   4.193 -0.0224 -0.2541  0.2860
 3199W        W 7399   4.211   6.701  12.279  0.0285  0.0395 -0.0197
 3200W        W 7400   8.208   1.099  10.052  0.4875  0.1019 -0.0918
 3201W        W 7401   9.507   7.247   1.032  0.0376  0.4045 -0.2258
 3202W        W 7402   3.055   7.335   1.023  0.0931  0.3523  0.4141
 3203W        W 7403   9.822  10.312   1.066  0.0036  0.1842 -0.2750
 3204W        W 7404   3.549   3.549   1.078 -0.1130  0.0924  0.0284
 3205W        W 7405   2.552   9.622   4.577  0.2668 -0.0075  0.2173
 3206W        W 7406   0.968   9.758   3.106  0.0135  0.0371  0.0365
 3207W        W 7407   5.326   2.330   9.306 -0.1573 -0.5007 -0.2355
 3208W        W 7408   2.629   2.437   1.629 -0.0304  0.1324  0.1636
 3209W        W 7409   8.012   8.309   2.557 -0.2550  0.0021  0.1360
 3210W        W 7410   0.976   6.413  10.752 -0.3126 -0.0297 -0.2179
 3211W        W 7411   8.150   5.841   2.209 -0.1933  0.0025  0.1495
 3212W        W 7412   5.444   4.877  11.181 -0.1154 -0.0026  0.0199
 3213W        W 7413   9.664  10.142   9.099 -0.0912 -0.0016  0.0567
 3214W        W 7414   1.405   6.495  10.536 -0.0492  0.0701  0.0395
 3215W        W 7415   6.667   2.744   3.019 -0.2121 -0.2187 -0.0022
 3216W        W 7416   0.355   4.307   0.861  0.0548 -0.4033  0.0335
 3217W        W 7417   6.397   8.198  10.106  0.1068  0.0073  0.0588
 3218W        W 7418  10.072   1.397  12.806 -0.0013  0.2619  0.0808
 3219W        W 7419   7.893   6.819   8.626 -0.1873  0.0973 -0.3080
 3220W        W 7420   1.667   6.969  10.296 -0.0519  0.3485 -0.1007
 3221W        W 7421   7.456   8.616   3.474  0.1288  0.1713  0.0610
 3222W        W 7422   2.657   0.295   1.060 -0.1170  0.1034 -0.0258
 3223W        W 7423   2.349   3.540  11.513  0.2789  0.2387  0.0819
 3224W        W 7424   3.809   6.435   1.720 -0.0667 -0.0162  0.2736
 3225W        W 7425   0.282   0.203   0.382  0.0124 -0.2214 -0.1166
 3226W        W 7426   3.468   1.728   9.863  0.3159 -0.1866 -0.2194
 3227W        W 7427   9.489   7.179   2.360  0.2240  0.3278 -0.2732
 3228W        W 7428   8.555   4.392   2.405  0.0212  0.4213 -0.0978
 3229W        W 7429   4.491   4.530   1.098  0.1222  0.1117 -0.0655
 3230W        W 7430   1.906   2.022   0.619  0.2066  0.3792  0.0610
 3231W        W 7431   7.318   1.534  12.007 -0.1048 -0.1170  0.0657
 3232W        W 7432   0.682   9.799  10.080 -0.1340  0.0086  0.0621
 3233W        W 7433   7.438   8.567  13.046 -0.0949  0.3220 -0.0747
 3234W        W 7434  10.119   0.755   3.768  0.0195 -0.2288 -0.0694
 3235W        W 7435  10.266   4.377  13.032 -0.1766 -0.0225 -0.2058
 3236W        W 7436   3.558   6.337   2.215  0.2148 -0.0860  0.0250
 3237W        W 7437   2.131   9.288  11.680  0.1273  0.1554 -0.1798
 3238W        W 7438   1.662   8.523  11.107 -0.0190  0.1058  0.1004
 3239W        W 7439   7.481   9.874   4.291  0.0903 -0.1505  0.1028
 3240W        W 7440   0.831   3.296  12.159  0.0458 -0.2140 -0.0668
 3241W        W 7441   4.752   8.608   3.629 -0.0168  0.2943 -0.2488
 3242W        W 7442   8.766   4.772  12.369  0.0009  0.0819  0.1272
 3243W        W 7443   2.935   8.836   3.174 -0.1877  0.1241 -0.0530
 3244W        W 7444   2.884   2.505   9.815 -0.2629  0.1260  0.0043
 3245W        W 7445   0.642   8.285   1.197 -0.0818 -0.0320  0.0026
 3246W        W 7446   9.997   3.535  11.447  0.2625  0.1526  0.0368
 3247W        W 7447   3.617   9.642   0.786 -0.4396 -0.0943 -0.1172
 3248W        W 7448   3.192   5.604   9.808  0.1555  0.3383  0.1561
 3249W        W 7449   4.448   3.185  13.299 -0.1554  0.0387 -0.0419
 3250W        W 7450   6.310   6.926  10.100 -0.2770  0.0770  0.2535
 3251W        W 7451   8.565   7.507   2.559 -0.0317 -0.0928 -0.0293
 3252W        W 7452  10.064   4.744   0.553  0.2582  0.0096  0.0358
 3253W        W 7453   8.568   9.322  11.526  0.3501 -0.1778 -0.1739
 3254W        W 7454   6.327   7.608   2.323  0.0462 -0.3252  0.0109
 3255W        W 7455   8.303   6.514   8.920  0.0074  0.3306 -0.1421
 3256W        W 7456   7.092   0.915  12.707  0.2621  0.1750  0.1922
 3257W        W 7457   2.790   5.121   3.507 -0.0214 -0.1709 -0.4371
 3258W        W 7458   2.920   1.777   2.697  0.1100 -0.1280  0.1481
 3259W        W 7459   0.946   8.056   2.041 -0.0008 -0.1536  0.3849
 3260W        W 7460   9.276   2.101   8.899  0.0747  0.2795 -0.1414
 3261W        W 7461  10.284   4.136   1.185  0.0198 -0.2002  0.0740
 3262W        W 7462   5.972   3.345  11.017 -0.1392 -0.1214  0.2297
 3263W        W 7463   0.493   9.535   2.359 -0.1452  0.0023 -0.4768
 3264W        W 7464   7.053   6.446  13.332 -0.5186  0.1134 -0.1076
 3265W        W 7465   1.367   2.281   2.766  0.2372 -0.2281  0.0379
 3266W        W 7466   7.848   5.407   1.849 -0.1743  0.0683  0.1477
 3267W        W 7467   8.059   6.626  13.143 -0.0268 -0.0933 -0.1866
 3268W        W 7468  10.255   0.592  11.786 -0.1159 -0.0947 -0.0149
 3269W        W 7469   5.382   9.332  11.901 -0.1487  0.0174 -0.1853
 3270W        W 7470   3.804   1.224   1.198  0.3451 -0.0850  0.2269
 3271W        W 7471   9.113   1.690   1.246 -0.2896  0.0665  0.1088
 3272W        W 7472   2.927   1.862  11.638 -0.2022  0.1720  0.1019
 3273W        W 7473   8.975   9.847   9.986 -0.0576  0.2906 -0.0342
 3274W        W 7474   4.450   9.074   0.774 -0.4407 -0.0311 -0.2655
 3275W        W 7475   0.448   9.522  12.487 -0.2769 -0.2534 -0.4030
 3276W        W 7476   4.420   2.677  12.204  0.0509  0.1815 -0.0330
 3277W        W 7477   9.117   9.677   9.011  0.0038  0.2997 -0.2384
 3278W        W 7478   4.973   1.764  11.649  0.0970  0.0360 -0.1799
 3279W        W 7479   9.635   5.514  12.726  0.2911 -0.1209 -0.0640
 3280W        W 7480   7.458   3.278   9.341 -0.0347  0.1644  0.1544
 3281W        W 7481   4.285   4.648   1.612  0.1547  0.0267  0.0918
 3282W        W 7482  10.202   8.714  11.231  0.1533 -0.0533 -0.2217
 3283W        W 7483   5.937   4.148  12.709 -0.0457  0.0293 -0.5796
 3284W        W 7484   9.067   8.547  12.793  0.0285  0.0377  0.0770
 3285W        W 7485   9.172   8.156  12.498  0.1559  0.0466  0.0883
 3286W        W 7486   1.069   6.248  10.157 -0.1485 -0.0065  0.2926
 3287W        W 7487   3.208   6.072   9.307 -0.0803  0.2580 -0.0273
 3288W        W 7488   2.075   8.773   2.699 -0.4208  0.1384 -0.3295
 3289W        W 7489   6.970   3.138  10.875 -0.1523  0.0246 -0.0903
 3290W        W 7490   5.428   1.030   8.101  0.2791 -0.0278 -0.0587
 3291W        W 7491   6.619   3.686   3.758 -0.1849 -0.0433 -0.2564
 3292W        W 7492   4.387   4.066  11.660  0.1566  0.0525 -0.2251
 3293W        W 7493  10.229   4.279   3.434  0.1971  0.1041  0.0803
 3294W        W 7494   8.483   7.574  11.936  0.0155 -0.1032 -0.0561
 3295W        W 7495   3.436   7.558  11.322 -0.3138  0.1377 -0.1038
 3296W        W 7496  10.317   7.594  10.872 -0.1083 -0.1231 -0.1768
 3297W        W 7497   4.368   1.753  11.693 -0.1041  0.1635 -0.3180
 3298W        W 7498   0.100   8.683   8.755  0.0510  0.0468 -0.0484
 3299W        W 7499   0.831   4.156   0.218 -0.2482  0.0490  0.0388
 3300W        W 7500   5.977   7.419   2.630  0.1469  0.1184  0.1637
 3301W        W 7501   9.196   5.297   1.737  0.1907 -0.3549  0.2253
 3302W        W 7502   5.603   0.533   2.900  0.1736  0.1971  0.2224
 3303W        W 7503   6.318   4.198   4.604  0.4009 -0.3480  0.5513
 3304W        W 7504   6.642   9.347  10.919  0.1106  0.0154  0.1508
 3305W        W 7505   5.514   3.607   2.301 -0.0922 -0.0087 -0.0172
 3306W        W 7506   6.233   9.485   2.837  0.4856  0.0297 -0.0419
 3307W        W 7507   1.714   6.879  13.419 -0.3099  0.4898  0.0329
 3308W        W 7508   0.253   1.433   3.247 -0.0852 -0.0492  0.2059
 3309W        W 7509   5.244   5.089  11.559 -0.2890  0.0580 -0.0764
 3310W        W 7510   7.807   4.055  10.802  0.2323 -0.0589 -0.0740
 3311W        W 7511   8.045   3.197   3.462 -0.2051 -0.1992  0.4510
 3312W        W 7512  10.232   9.798   2.950 -0.2911 -0.0526 -0.0869
 3313W        W 7513   1.431   9.047   1.460 -0.0754  0.0733  0.2931
 3314W        W 7514   3.984   7.458  10.080  0.0611 -0.4819 -0.1853
 3315W        W 7515   4.310   5.002   1.309  0.1210  0.0223 -0.3280
 3316W        W 7516   5.759   7.262   0.318 -0.0252  0.0745 -0.2798
 3317W        W 7517   4.397   2.667  13.288 -0.1516 -0.2754 -0.0128
 3318W        W 7518   6.784   0.946   8.995 -0.3359  0.0424 -0.1310
 3319W        W 7519   0.459   7.370  11.338 -0.1087 -0.1782  0.0181
 3320W        W 7520   2.333   3.130   2.013  0.1564 -0.1824 -0.1203
 3321W        W 7521  10.202   6.474  10.617 -0.0540 -0.1792 -0.2217
 3322W        W 7522   7.107   5.975   4.749  0.0053 -0.1030  0.0636
 3323W        W 7523   9.712   4.016  10.234 -0.0770 -0.1241  0.0128
 3324W        W 7524   2.934   0.856   1.117  0.1673 -0.1895  0.2524
 3325W        W 7525   4.762   3.332   0.306 -0.2015  0.2398  0.1138
 3326W        W 7526   1.633   8.987   0.066 -0.2618 -0.1979 -0.0110
 3327W        W 7527   8.898   4.824   2.407 -0.0935  0.4170  0.0198
 3328W        W 7528   9.430   2.521   3.591 -0.0760  0.1616 -0.2820
 3329W        W 7529   1.911   8.322  11.560 -0.0459  0.0781 -0.0713
 3330W        W 7530   6.071   8.688   4.888  0.0977 -0.0069  0.2061
 3331W        W 7531   6.965  10.386   9.666 -0.0413  0.0112  0.0734
 3332W        W 7532   6.933   4.092  12.563  0.2351 -0.1474 -0.4577
 3333W        W 7533   5.331   2.791  12.437 -0.1516 -0.0622 -0.1900
 3334W        W 7534  10.161   4.012  12.620 -0.3122  0.1359  0.4600
 3335W        W 7535   2.024   4.327  10.265  0.0988  0.0512 -0.3038
 3336W        W 7536   4.853   7.262  12.473 -0.0404  0.0805 -0.1196
 3337W        W 7537   8.305   5.057  11.687 -0.1812  0.1838  0.0902
 3338W        W 7538   0.440  10.272   4.223 -0.0368 -0.2570 -0.1072
 3339W        W 7539   1.310   0.185   9.832  0.3011  0.1222 -0.1478
 3340W        W 7540   2.449   0.764  12.777  0.1558  0.1897  0.0197
 3341W        W 7541   8.414  10.289   2.410  0.1462 -0.3147  0.3186
 3342W        W 7542   1.559   0.837  10.020  0.0941  0.0748  0.1661
 3343W        W 7543   7.078   4.865   1.857  0.0378 -0.0443 -0.0135
 3344W        W 7544   3.817   9.397   9.323 -0.0023  0.0034  0.0994
 3345W        W 7545   4.023   8.530  10.163  0.1608  0.1492  0.0392
 3346W        W 7546   3.115   6.042  10.525  0.0382 -0.5832 -0.2985
 3347W        W 7547   1.045   5.575  10.936  0.1802 -0.0659 -0.0652
 3348W        W 7548   5.777   7.516  11.800 -0.1779  0.0337 -0.0222
 3349W        W 7549   9.995   1.064   1.434 -0.1209  0.0096  0.0175
 3350W        W 7550   1.942   8.082  10.943 -0.3527  0.0740 -0.3847
 3351W        W 7551   4.988   3.526   2.529  0.0719  0.0493  0.1076
 3352W        W 7552   8.643   5.614   9.331  0.0463 -0.1198  0.0556
 3353W        W 7553   8.893   9.787  11.367 -0.0739  0.0174  0.0608
 3354W        W 7554   3.060  10.172  10.084  0.1218 -0.1302 -0.0393
 3355W        W 7555   9.610   4.613   8.743  0.1970  0.0232  0.3809
 3356W        W 7556   6.458   2.455  13.409 -0.0854 -0.1120 -0.1114
 3357W        W 7557   9.906   5.223  10.060  0.2546  0.0373  0.1099
 3358W        W 7558   2.494   7.251  12.883 -0.0429 -0.0489  0.2450
 3359W        W 7559   2.319   2.513  11.695  0.3402 -0.1905  0.2677
 3360W        W 7560   0.385   1.196   0.279 -0.4039 -0.1244  0.0774
 3361W        W 7561   0.490   4.752   2.373  0.3168  0.0421 -0.0185
 3362W        W 7562   9.462   2.253  13.567 -0.0563  0.0038  0.0512
 3363W        W 7563   1.640   2.964  10.976  0.3320 -0.5020 -0.1228
 3364W        W 7564   5.149   9.858   3.120  0.0975  0.0219  0.2593
 3365W        W 7565   1.007   8.263   4.153  0.2705 -0.0444 -0.5265
 3366W        W 7566   3.262   5.435   2.011  0.0059 -0.0681  0.0838
 3367W        W 7567   4.901   5.989  12.473  0.0411  0.1322 -0.1374
 3368W        W 7568   6.360   3.328   4.136 -0.0075 -0.0547  0.0143
 3369W        W 7569   5.761   6.067   1.673  0.0054  0.2368 -0.2767
 3370W        W 7570   7.701   4.793   0.899 -0.1452  0.0439  0.1008
 3371W        W 7571   0.043   6.838   1.731  0.2247 -0.0557 -0.1485
 3372W        W 7572   0.765   3.500  10.765  0.0117  0.1603  0.1459
 3373W        W 7573   8.718   5.562   4.201 -0.3623  0.1590 -0.3593
 3374W        W 7574   2.340   6.928   3.643  0.0626  0.0623  0.0091
 3375W        W 7575   5.506   5.705   1.357 -0.2102 -0.1215 -0.0586
 3376W        W 7576   7.877   3.495   5.434  0.1799  0.1859  0.0477
 3377W        W 7577   4.946   4.690   0.507  0.0251  0.2981  0.1108
 3378W        W 7578   4.821   4.188   1.259  0.0157 -0.3850 -0.2569
 3379W        W 7579  10.114   7.247  12.519 -0.1432 -0.3411  0.2798
 3380W        W 7580   3.259   6.863  12.896 -0.3180 -0.0793 -0.1466
 3381W        W 7581   3.078  10.362  11.640 -0.0516  0.2964 -0.2249
 3382W        W 7582   4.524   8.281   1.741  0.0002  0.0172 -0.1694
 3383W        W 7583   4.301  10.215   2.170  0.3520 -0.0856 -0.1328
 3384W        W 7584   6.179   0.757  10.177 -0.0671  0.1731  0.1333
 3385W        W 7585   0.006   9.474  12.314 -0.0910 -0.1936  0.0912
 3386W        W 7586   0.354   7.432   1.546 -0.0870  0.1155  0.1226
 3387W        W 7587   2.694   7.641  11.673 -0.0379 -0.0871 -0.2486
 3388W        W 7588   2.157   0.916   0.730  0.1762  0.2960 -0.1252
 3389W        W 7589   0.792   1.955  10.862 -0.4997 -0.0758 -0.1354
 3390W        W 7590  10.417   1.339  12.372 -0.0597 -0.0851 -0.4453
 3391W        W 7591   2.511   0.379  10.135  0.3334  0.2405  0.2469
 3392W        W 7592   5.282   4.005   1.389 -0.1670 -0.1292  0.3691
 3393W        W 7593   8.235   8.900   1.668 -0.0760  0.0928  0.0680
 3394W        W 7594  10.365   2.900   3.475 -0.1719  0.3902  0.2404
 3395W        W 7595   8.724   4.036  13.378  0.0108 -0.3284 -0.2928
 3396W        W 7596   5.897   3.271   0.268  0.1167  0.0704  0.4136
 3397W        W 7597   0.596   1.644  13.565  0.1773 -0.0643 -0.3292
 3398W        W 7598   5.718   4.332  12.306 -0.0297 -0.4622 -0.0350
 3399W        W 7599   1.299   9.935  13.308  0.0096  0.0752 -0.1505
 3400W        W 7600   6.984   9.299   2.017  0.2406  0.2923  0.0349
 3401W        W 7601   2.438   4.235   1.276 -0.0712  0.0388 -0.1037
 3402W        W 7602   9.940   7.522  11.307  0.1842 -0.1144  0.3367
 3403W        W 7603   8.362   8.272   1.562 -0.0148 -0.2328  0.0589
 3404W        W 7604   4.829   8.308  11.554 -0.1692  0.0117 -0.0724
 3405W        W 7605   1.222   4.981   3.908 -0.0840  0.2792 -0.3060
 3406W        W 7606   6.150   6.049  11.260 -0.0976  0.1437 -0.1092
 3407W        W 7607   0.764   9.193  10.072  0.0162 -0.3360  0.0677
 3408W        W 7608   0.922   3.607   1.770  0.2029 -0.1304 -0.0419
 3409W        W 7609   1.549   6.604  12.653 -0.1577 -0.0241  0.0630
 3410W        W 7610   8.619  10.013  12.176  0.2893 -0.0665 -0.1036
 3411W        W 7611  10.387  10.072  11.391 -0.1898  0.3463 -0.2430
 3412W        W 7612   2.510   9.393  11.360  0.2539  0.0216 -0.1337
 3413W        W 7613   6.243   4.741   0.061  0.0685 -0.1780  0.1045
 3414W        W 7614   8.823   0.925   0.143  0.0142  0.0159 -0.0455
 3415W        W 7615   7.516   4.527   3.556 -0.0495 -0.1536  0.2138
 3416W        W 7616   0.243   6.055   1.162  0.1654  0.0487  0.0210
 3417W        W 7617   1.747   9.282   2.202  0.0669  0.1825  0.2521
 3418W        W 7618   1.393   3.556  11.312 -0.2764  0.1906  0.0237
 3419W        W 7619   1.871   9.313   9.619  0.0563  0.0092 -0.0933
 3420W        W 7620   1.094  10.204   2.861  0.4529  0.0519  0.4006
 3421W        W 7621  10.252   0.186  11.494 -0.1559 -0.0321  0.0912
 3422W        W 7622   3.179   6.970   0.671 -0.2296  0.1225 -0.0382
 3423W        W 7623  10.354   8.960   4.177 -0.1640 -0.1620 -0.2171
 3424W        W 7624   8.653   6.686   0.704 -0.3795 -0.2712 -0.1574
 3425W        W 7625   5.786   1.161  11.803  0.0968 -0.2052  0.2458
 3426W        W 7626   1.927   5.957   0.191 -0.2350  0.1613 -0.2471
 3427W        W 7627   4.700   8.626   0.357  0.1101  0.0272 -0.2829
 3428W        W 7628   7.771   6.897  12.086 -0.2300 -0.3816  0.2454
 3429W        W 7629   0.038   6.859   9.395  0.3956  0.2241  0.1539
 3430W        W 7630   2.576   6.272   4.211 -0.2924  0.0022  0.2376
 3431W        W 7631   6.444   6.973   0.205  0.1111  0.0259  0.1812
 3432W        W 7632   0.690   4.201   2.304 -0.1443  0.0109  0.0857
 3433W        W 7633   9.438   4.250   2.878  0.0754  0.2327  0.0858
 3434W        W 7634   9.365   6.468   2.365 -0.0180 -0.3231  0.2919
 3435W        W 7635   0.010   8.287  10.112 -0.0637  0.0720  0.3534
 3436W        W 7636   3.192   2.997  10.657  0.0700  0.0471  0.0138
 3437W        W 7637   4.670   3.520  10.232 -0.3008  0.2395 -0.3258
 3438W        W 7638   4.015   2.521   3.337 -0.0725  0.1057  0.1392
 3439W        W 7639   1.235   6.544   4.080  0.1386 -0.1292 -0.0807
 3440W        W 7640   1.450  10.279  12.426 -0.1359  0.2748 -0.0833
 3441W        W 7641   9.820   6.463   3.573  0.1631  0.0109 -0.0651
 3442W        W 7642   7.563   0.706   9.332 -0.2499 -0.0867 -0.2998
 3443W        W 7643   5.465   8.541   9.903 -0.1799  0.0768  0.0674
 3444W        W 7644   2.144   0.791  11.346  0.2483  0.2123 -0.1383
 3445W        W 7645   3.421   8.161   1.552  0.0419  0.0959  0.0048
 3446W        W 7646   8.778   5.168   3.891  0.2592 -0.0153  0.3167
 3447W        W 7647   1.695   1.214   2.508 -0.0971  0.1288  0.2293
 3448W        W 7648   1.573   2.317   9.854  0.1137  0.2327 -0.0628
 3449W        W 7649   3.995   4.558   1.224 -0.2705 -0.0914 -0.0774
 3450W        W 7650   8.054   0.269   8.634 -0.0957 -0.1154  0.1096
 3451W        W 7651   8.308   3.208   3.053  0.2495  0.1445 -0.1758
 3452W        W 7652   9.573   9.718   1.201 -0.1474  0.1887 -0.0026
 3453W        W 7653   6.223  10.241   4.208 -0.0505  0.0033 -0.1595
 3454W        W 7654   8.708   8.574   9.637  0.1885 -0.1097  0.0383
 3455W        W 7655   8.222   9.531   0.364  0.0480 -0.1046  0.1888
 3456W        W 7656   8.065   0.843  11.029  0.0965  0.1355 -0.0200
 3457W        W 7657   1.751   6.819  11.279 -0.2524 -0.1175  0.1651
 3458W        W 7658   7.768   0.667  10.673 -0.2665 -0.1831 -0.1821
 3459W        W 7659   2.582   6.745  13.524  0.0856  0.0158  0.0825
 3460W        W 7660   3.464   7.676   1.819 -0.0588  0.3336 -0.0521
 3461W        W 7661   9.964   5.808   1.407  0.0272  0.1555  0.0493
 3462W        W 7662   5.832   5.720  11.104  0.1802 -0.1783  0.1185
 3463W        W 7663   3.717   8.454  13.313  0.0651 -0.0006 -0.0559
 3464W        W 7664   1.682   1.179   9.614 -0.1101  0.0466 -0.1712
 3465W        W 7665   7.648   7.878   0.720 -0.1029 -0.0651  0.1702
 3466W        W 7666   8.813   6.585   1.688  0.2968  0.0136 -0.0963
 3467W        W 7667   1.887   5.502  10.369 -0.1330 -0.1286  0.3065
 3468W        W 7668   4.543   9.263   1.633  0.1373 -0.2178  0.2835
 3469W        W 7669   3.109   7.214   2.066 -0.2219  0.2605  0.1794
 3470W        W 7670   1.741   7.879  11.382 -0.1122  0.2588 -0.0118
 3471W        W 7671   5.233   4.739   0.123 -0.0227 -0.3625  0.0542
 3472W        W 7672   5.363   6.454   1.315 -0.0404 -0.0036  0.1711
 3473W        W 7673   6.720   5.900  10.056 -0.0049  0.1729  0.0709
 3474W        W 7674   5.905   1.129   2.254  0.2792  0.0828  0.0598
 3475W        W 7675   2.684   8.624   0.370  0.1735 -0.1342 -0.0455
 3476W        W 7676   7.874   7.374  11.512  0.0436 -0.0624  0.0662
 3477W        W 7677   7.574   7.315  10.583 -0.0219  0.1672 -0.3318
 3478W        W 7678   0.056   8.106  11.743 -0.1009 -0.0646 -0.2013
 3479W        W 7679   3.733   4.990  11.139  0.2066  0.0522  0.1146
 3480W        W 7680   0.469   4.525  11.401  0.0806  0.1737  0.4446
 3481W        W 7681   7.448   0.875   0.097 -0.0863 -0.0401 -0.1562
 3482W        W 7682   4.249   4.347  12.676  0.2454 -0.0260 -0.0785
 3483W        W 7683   8.794   2.399  10.839  0.0509  0.0475 -0.0861
 3484W        W 7684   1.055   0.776  12.805  0.0955  0.0326  0.3085
 3485W        W 7685   7.395   3.717   1.898 -0.1996 -0.2123  0.0231
 3486W        W 7686   9.537   5.112   2.562 -0.1708 -0.1677  0.3817
 3487W        W 7687   1.669   5.979  11.437  0.0452 -0.1781  0.0397
 3488W        W 7688   6.030   9.475   9.567  0.0760 -0.0070  0.0699
 3489W        W 7689   6.358   7.109   2.491  0.0049 -0.3353 -0.2179
 3490W        W 7690   0.866   1.778  12.516 -0.0997 -0.1719 -0.0754
 3491W        W 7691   8.689   8.627  13.108  0.3921  0.0849  0.0599
 3492W        W 7692   2.594   7.608   2.456 -0.0721  0.1197 -0.0833
 3493W        W 7693   9.879   4.488   4.597 -0.0458 -0.2483 -0.1910
 3494W        W 7694  10.233   6.239   1.320  0.0094  0.0780 -0.0231
 3495W        W 7695   8.902   1.936  10.392  0.1558  0.0878 -0.0665
 3496W        W 7696   1.051   5.795  12.731  0.2027  0.1686 -0.0570
 3497W        W 7697   9.341   9.481   9.837 -0.0187  0.0172  0.1138
 3498W        W 7698   6.308   2.400   3.198  0.0832 -0.0626  0.3574
 3499W        W 7699   7.322   4.787   1.207 -0.0447  0.0929  0.1365
 3500W        W 7700  10.025   3.218   1.157 -0.1756 -0.0418 -0.2662
 3501W        W 7701   8.021   2.970  11.438  0.0414  0.0487  0.2805
 3502W        W 7702   6.153   5.735  12.585 -0.0509  0.2779  0.1964
 3503W        W 7703   6.017   3.417  11.661 -0.0441  0.1039 -0.3981
 3504W        W 7704   6.187   2.761  10.839 -0.3652  0.2880  0.1835
 3505W        W 7705   8.410   4.182   3.020  0.1563 -0.1961  0.0972
 3506W        W 7706   8.122   1.982  11.396 -0.0422  0.0684 -0.0418
 3507W        W 7707   6.320  10.391   2.661  0.1822 -0.2114  0.2744
 3508W        W 7708   0.884   5.815  11.920 -0.0076  0.0902 -0.1487
 3509W        W 7709   0.900   6.634   9.804 -0.0175  0.1245  0.0871
 3510W        W 7710   4.294   0.551   9.985  0.2580  0.0422 -0.2848
 3511W        W 7711   4.248   6.186  10.323  0.0402 -0.2051  0.0322
 3512W        W 7712   6.756   8.195   9.430  0.1102  0.1289  0.0910
 3513W        W 7713   2.450   8.957  11.888 -0.1711  0.3114  0.0335
 3514W        W 7714   2.562   4.561  10.485  0.0861  0.4305 -0.1804
 3515W        W 7715   3.002   1.141  12.993  0.1931  0.2194  0.1943
 3516W        W 7716   3.173   9.756  13.386  0.4591  0.2333  0.0778
 3517W        W 7717   2.351   9.108   9.509  0.1698  0.0959 -0.0894
 3518W        W 7718   6.219   8.623  10.513  0.2094 -0.1897 -0.1144
 3519W        W 7719   9.150  10.194   9.149  0.0170  0.0482 -0.0133
 3520W        W 7720   7.357   2.906  12.957 -0.2369 -0.2664  0.3176
 3521W        W 7721   0.887   2.422   2.845  0.0571 -0.1149  0.0564
 3522W        W 7722   5.537   0.127  13.278 -0.1265 -0.0206  0.1430
 3523W        W 7723   3.298   1.242   1.132 -0.0600  0.0511 -0.2173
 3524W        W 7724   0.627   7.677   9.746  0.0171  0.1451 -0.1375
 3525W        W 7725   4.248   2.074  12.784  0.1584 -0.0077  0.3331
 3526W        W 7726   1.027   2.378  10.762  0.1145  0.0098  0.2157
 3527W        W 7727   1.691   0.390   0.016  0.2547  0.2651  0.1340
 3528W        W 7728   9.233   1.765   0.173  0.2956 -0.0523  0.0795
 3529W        W 7729   8.258   9.595   1.124 -0.0526 -0.0612 -0.1212
 3530W        W 7730   6.197   9.855  11.757  0.0241 -0.2953  0.1165
 3531W        W 7731   9.752   0.764  13.412  0.4000 -0.3903 -0.0016
 3532W        W 7732   5.791   2.456   0.659 -0.3619  0.0184  0.3024
 3533W        W 7733   4.448   7.673  10.462 -0.4274 -0.0425 -0.0350
 3534W        W 7734   7.489   2.522  13.526 -0.1895  0.0746  0.1384
 3535W        W 7735   9.601   0.729   0.666 -0.1793 -0.0440 -0.1460
 3536W        W 7736   7.267   1.677   4.653 -0.2091 -0.2547  0.3299
 3537W        W 7737   9.786   1.079   3.197 -0.0322  0.0559 -0.2574
 3538W        W 7738   1.333   7.993  12.509 -0.0323 -0.1491  0.1093
 3539W        W 7739   9.783   7.459   2.756 -0.0233  0.0574  0.1133
 3540W        W 7740   6.776   5.523   1.097 -0.0113 -0.1276  0.0234
 3541W        W 7741   9.516   3.683   2.190  0.1051  0.2029 -0.3781
 3542W        W 7742   6.719   5.719   1.558  0.3749  0.0040 -0.0822
 3543W        W 7743   4.318   2.643  11.624 -0.0291 -0.0179 -0.0306
 3544W        W 7744   2.895   0.396  12.636 -0.2780  0.0091  0.0026
 3545W        W 7745   4.621   6.521   3.319 -0.0172 -0.1605  0.2726
 3546W        W 7746   1.812   9.854  13.349  0.0275 -0.0349  0.0509
 3547W        W 7747   8.073   4.842  13.520 -0.1901 -0.1250 -0.1830
 3548W        W 7748   0.543   8.407  13.092 -0.1703 -0.1269 -0.2343
 3549W        W 7749   2.806   1.066  10.766  0.1394  0.0579  0.2328
 3550W        W 7750   4.291   3.287   9.182  0.0342 -0.2699  0.0660
 3551W        W 7751   6.704   2.900  10.503  0.0559  0.0052 -0.3088
 3552W        W 7752   9.691   9.814  10.986  0.1777 -0.1717 -0.2355
 3553W        W 7753   1.700   7.258   0.717 -0.0229  0.2223 -0.0258
 3554W        W 7754   0.710   5.811   3.668  0.0970 -0.3423  0.1027
 3555W        W 7755   7.194   9.052  11.949 -0.1705  0.1377 -0.0502
 3556W        W 7756   9.321   9.607  13.051  0.0541  0.2906 -0.2260
 3557W        W 7757   4.361   7.815   1.376 -0.1094 -0.0593  0.0989
 3558W        W 7758   1.242   5.678  11.361 -0.0054  0.0591  0.0015
 3559W        W 7759   4.684   7.467   3.811  0.0965 -0.0712  0.0733
 3560W        W 7760   2.957   4.404  12.431 -0.1778  0.0106 -0.0751
 3561W        W 7761   5.587   3.863  13.050 -0.1355  0.0706 -0.0717
 3562W        W 7762   4.491   2.145   0.430  0.5895  0.0036  0.1906
 3563W        W 7763   6.795   6.362   4.439 -0.2174 -0.1474 -0.1293
 3564W        W 7764   4.671   1.306   0.826 -0.1143  0.2078 -0.0515
 3565W        W 7765   5.498   6.066   4.652  0.3046 -0.0678  0.1662
 3566W        W 7766   3.257   3.485  10.498 -0.1941 -0.0584  0.2052
 3567W        W 7767   4.332   4.523   2.378 -0.2733 -0.0113 -0.1402
 3568W        W 7768   5.103   5.876   9.193  0.0036  0.1986  0.0771
 3569W        W 7769   0.917   1.195  11.153 -0.2033 -0.0388  0.0629
 3570W        W 7770   3.892   1.630  11.536 -0.0073  0.2785  0.0363
 3571W        W 7771   9.914   0.355   0.698 -0.1020  0.2090  0.2742
 3572W        W 7772   6.877   7.244  10.965 -0.0025 -0.1155 -0.1086
 3573W        W 7773  10.248   2.163   2.981 -0.3724 -0.5970  0.1956
 3574W        W 7774   7.770   1.299   0.325 -0.0354  0.0388  0.0353
 3575W        W 7775   8.593   0.213   8.545  0.2047  0.5391  0.0625
 3576W        W 7776   8.521   0.167   2.758 -0.2881 -0.0320 -0.2219
 3577W        W 7777   5.407   9.111  10.861 -0.1282 -0.1430 -0.0098
 3578W        W 7778   8.254   9.418  10.759  0.2167  0.0733 -0.4476
 3579W        W 7779   2.672   2.726   2.660 -0.1018 -0.2362 -0.2335
 3580W        W 7780   2.772   3.413   7.778  0.0109 -0.0639  0.1155
 3581W        W 7781   7.714   1.817   0.431 -0.1015 -0.0907  0.2081
 3582W        W 7782   0.630   1.454  13.026 -0.0829 -0.0552 -0.0241
 3583W        W 7783   0.297   7.411  10.524  0.1505 -0.2641 -0.0461
 3584W        W 7784   0.753   8.014   2.552 -0.2746 -0.1673  0.2494
 3585W        W 7785   8.169   6.618   0.665  0.1499 -0.0705  0.0099
 3586W        W 7786   6.973   6.951   4.048  0.2754  0.4232  0.0872
 3587W        W 7787   6.546   5.829  12.147  0.0412  0.0996 -0.5178
 3588W        W 7788   7.968   6.327   4.812 -0.1286 -0.2811 -0.0016
 3589W        W 7789   9.032   7.562   4.354 -0.1127 -0.0884  0.1968
 3590W        W 7790   1.884   8.236   2.112 -0.2446 -0.1345 -0.1267
 3591W        W 7791   9.041   0.543  12.680 -0.0792  0.0065  0.0480
 3592W        W 7792   9.608   2.925  13.496 -0.0472 -0.0440 -0.1908
 3593W        W 7793   7.358   9.690  10.277 -0.2275  0.2591  0.0912
 3594W        W 7794  10.157   0.458   2.123  0.2316  0.0502 -0.2473
 3595W        W 7795   7.050   4.717  12.891  0.2571  0.2366  0.2612
 3596W        W 7796   7.025   8.756  12.876  0.0807 -0.0888  0.3219
 3597W        W 7797   8.799   1.265  11.041  0.0685  0.2341  0.0680
 3598W        W 7798   2.406   5.488   3.492 -0.0730 -0.0127  0.1733
 3599W        W 7799   5.955   0.741  11.538  0.0975  0.1528  0.0070
 3600W        W 7800   3.671   2.221  12.124  0.1200 -0.0169  0.0564
 3601W        W 7801   3.031  10.147   1.287  0.2210 -0.0980 -0.2017
 3602W        W 7802   6.389   4.751   2.977  0.1376  0.4123 -0.2056
 3603W        W 7803   2.602   4.732  12.244 -0.2879 -0.0415 -0.1150
 3604W        W 7804   1.745   9.472  11.391  0.0898 -0.1520 -0.0256
 3605W        W 7805   7.233   5.183   3.357  0.1112 -0.3494  0.1162
 3606W        W 7806   5.667   3.757  11.799 -0.1688  0.2438 -0.1753
 3607W        W 7807   6.086   2.708   2.376 -0.4211 -0.2562  0.1078
 3608W        W 7808   7.710   1.024  10.243  0.2807  0.1942 -0.2515
 3609W        W 7809   9.841   6.997   5.309  0.0761  0.2705 -0.2439
 3610W        W 7810   4.259  10.332   4.995  0.1689  0.0241 -0.0136
 3611W        W 7811   9.654   1.270  11.931 -0.0181  0.0654  0.0228
 3612W        W 7812   2.623   5.298  13.309 -0.0196  0.1910 -0.2203
 3613W        W 7813   3.657   2.888  12.725  0.0195  0.1812 -0.0687
 3614W        W 7814   1.818   1.060   0.279 -0.2757 -0.1061  0.4326
 3615W        W 7815   3.376   6.564  13.278  0.0542 -0.2249 -0.3639
 3616W        W 7816   9.655   7.932   1.600  0.2413  0.0472  0.0323
 3617W        W 7817   1.527   8.623  11.823 -0.0535 -0.0641  0.3153
 3618W        W 7818   6.308   5.594  13.494  0.0729  0.0053  0.2203
 3619W        W 7819   8.810   3.126   9.716 -0.5022  0.0289  0.1838
 3620W        W 7820   5.965   6.285   4.808 -0.0541 -0.0146  0.0941
 3621W        W 7821   7.467   1.937   0.031 -0.2564  0.1589  0.1089
 3622W        W 7822   5.943   5.697   4.850 -0.0436 -0.0429 -0.2547
 3623W        W 7823   8.306   6.400  10.934 -0.0940  0.5220 -0.0284
 3624W        W 7824   8.554   2.836  12.916 -0.4361  0.0664 -0.0017
 3625W        W 7825   3.060   9.814  12.846 -0.1074  0.3799  0.1793
 3626W        W 7826   5.290   0.664   3.912  0.0173 -0.1840  0.2176
 3627W        W 7827   7.641   4.903   3.319 -0.0270  0.1183  0.0206
 3628W        W 7828   8.456   7.119   8.142  0.1113  0.0261  0.0014
 3629W        W 7829   3.552   0.002  11.248  0.1014 -0.0154  0.0985
 3630W        W 7830   9.329   3.856  10.497  0.1535 -0.0113  0.0070
 3631W        W 7831   5.619   5.285  10.891  0.0414 -0.2191  0.0299
 3632W        W 7832   7.783   8.457   9.761 -0.1855  0.1544  0.0680
 3633W        W 7833   0.445   5.319  13.275  0.0866  0.0979 -0.0668
 3634W        W 7834   6.377   9.752   8.776 -0.1662 -0.0124  0.1349
 3635W        W 7835   9.694   8.816   3.505 -0.0751  0.1091 -0.1224
 3636W        W 7836   4.662   5.578  12.495 -0.2948  0.4380 -0.2936
 3637W        W 7837   4.877   2.262   9.875  0.1271  0.0447 -0.1215
 3638W        W 7838   2.281   1.723  13.336 -0.3095 -0.1184  0.1656
 3639W        W 7839  10.178   1.378   4.129 -0.1441  0.0581 -0.0621
 3640W        W 7840   5.506   9.743  11.267 -0.1021  0.0816 -0.0504
 3641W        W 7841   9.876   8.567  12.246  0.1186 -0.2942 -0.1033
 3642W        W 7842   0.079   2.577   3.846  0.1379  0.0581 -0.1855
 3643W        W 7843   9.517   9.356   3.320 -0.0296  0.1698 -0.0112
 3644W        W 7844   6.531   6.966   1.154 -0.3589  0.0619 -0.0678
 3645W        W 7845   8.557   7.799  13.254 -0.3308 -0.1189  0.0262
 3646W        W 7846   9.119  10.005  12.242 -0.1531 -0.1240  0.0589
 3647W        W 7847   0.233   1.103   2.664 -0.2539  0.0331 -0.4703
 3648W        W 7848   4.775   7.647   4.288  0.0301 -0.0280  0.0070
 3649W        W 7849   6.607   5.797  11.521 -0.0814 -0.0950  0.1624
 3650W        W 7850   3.619   0.843   1.423 -0.2082  0.0712 -0.1698
 3651W        W 7851   8.454   0.984  11.344 -0.0778 -0.1704  0.0940
 3652W        W 7852   8.970   8.751  12.250  0.1262  0.0390 -0.0063
 3653W        W 7853   8.097   3.732  12.180 -0.3649  0.2128 -0.1330
 3654W        W 7854   6.004   9.238   2.296  0.0798 -0.0484 -0.0987
 3655W        W 7855   8.850   2.727   0.434  0.0253  0.0636 -0.0201
 3656W        W 7856   6.324   7.632   9.332 -0.4007 -0.0266  0.1993
 3657W        W 7857   4.492   1.756  13.162 -0.1550 -0.1989  0.0051
 3658W        W 7858   7.345   9.200  10.041  0.2523 -0.3726  0.0630
 3659W        W 7859   0.586  10.431   4.884 -0.1432 -0.1919  0.4415
 3660W        W 7860   6.275   8.203   2.184 -0.1482 -0.3042 -0.3340
 3661W        W 7861   2.839   0.909   9.108 -0.2067  0.0700 -0.1181
 3662W        W 7862   9.405   7.187   8.434  0.2610 -0.2098 -0.2781
 3663W        W 7863   8.956   2.271   0.184 -0.0908 -0.1112 -0.2803
 3664W        W 7864   4.457   0.587  11.802  0.0045  0.2883  0.0067
 3665W        W 7865  10.017   9.672   2.047  0.1153 -0.0067  0.1170
 3666W        W 7866   9.196   2.744   4.032  0.2960  0.2008  0.1112
 3667W        W 7867   6.661   1.965  10.344  0.1225 -0.3318 -0.0247
 3668W        W 7868   5.733   9.226   3.522 -0.0239  0.1983 -0.2303
 3669W        W 7869   6.935   2.171  12.111  0.0435  0.0673 -0.1051
 3670W        W 7870   3.420   9.606  11.769  0.3597  0.1127 -0.0690
 3671W        W 7871   0.588   6.416   0.912  0.0142 -0.2760  0.0115
 3672W        W 7872   0.853  10.092  13.451 -0.0667  0.0087  0.4316
 3673W        W 7873   4.518   6.206   1.358 -0.3923  0.0128 -0.0038
 3674W        W 7874   2.737   9.852  10.471 -0.0641  0.1871 -0.0175
 3675W        W 7875   5.941   8.154  12.187 -0.2532 -0.1365  0.0661
 3676W        W 7876   1.539  10.189   0.245 -0.1433 -0.0982 -0.1947
 3677W        W 7877   8.168   6.239   9.731 -0.2544  0.3046 -0.0444
 3678W        W 7878   8.584   5.985  10.784 -0.1761 -0.1846 -0.2473
 3679W        W 7879   1.145   6.142  11.547  0.0673  0.0121 -0.1570
 3680W        W 7880   0.474   4.127   1.288 -0.0572 -0.3276 -0.1222
 3681W        W 7881   2.496   9.601  10.872  0.0287 -0.0810  0.0837
 3682W        W 7882   2.514   3.324   0.384  0.3456 -0.1187 -0.0013
 3683W        W 7883   6.820   0.191  11.865  0.0189  0.1006  0.0300
 3684W        W 7884  10.237   8.882  12.482  0.0837 -0.0013  0.3522
 3685W        W 7885   7.495   4.320   9.493 -0.0844 -0.1679  0.0755
 3686W        W 7886   3.224   6.597   2.570 -0.2616  0.1406 -0.3318
 3687W        W 7887   3.161   0.390   4.271  0.4456  0.0201 -0.4288
 3688W        W 7888   8.545   1.633   9.403 -0.4207 -0.0354  0.1422
 3689W        W 7889   8.328   8.001   2.835 -0.2509  0.2085 -0.2536
 3690W        W 7890   1.558   4.689   1.282 -0.1375  0.3204  0.2178
 3691W        W 7891   0.885   9.585   1.987 -0.0177 -0.0333  0.0820
 3692W        W 7892   6.060   0.298  11.340  0.1346 -0.0760 -0.1197
 3693W        W 7893   6.412   5.226   2.728  0.2182  0.0628 -0.1346
 3694W        W 7894   1.136   6.466  11.209  0.3485 -0.2618  0.0116
 3695W        W 7895   5.035   3.250   2.944  0.4169  0.0710  0.0055
 3696W        W 7896   5.417   6.414   3.172 -0.0867 -0.1551 -0.0243
 3697W        W 7897   6.002   4.669  11.099  0.0515  0.1375 -0.3079
 3698W        W 7898  10.417  10.161   4.101 -0.1126 -0.1872  0.2160
 3699W        W 7899   3.402   3.327   3.366  0.0961  0.4192  0.1419
 3700W        W 7900   8.880   6.272   4.634 -0.1737 -0.2100 -0.0099
 3701W        W 7901   7.492   6.367   9.840  0.1544  0.2015 -0.3195
 3702W        W 7902  10.262   4.242  10.219  0.1187 -0.2827  0.1055
 3703W        W 7903   8.956   6.164  13.241  0.1408  0.0716  0.0693
 3704W        W 7904   2.516   3.603   3.116 -0.0924  0.0939  0.0150
 3705W        W 7905   4.657   3.797   0.560  0.0942  0.2018  0.0821
 3706W        W 7906   6.847   3.024   1.995  0.1284 -0.4227 -0.2883
 3707W        W 7907   1.585   9.067   9.023  0.0029 -0.0207 -0.0415
 3708W        W 7908   7.792   0.434   9.735  0.3569  0.0811 -0.1079
 3709W        W 7909   7.126   4.573  10.248 -0.2211  0.0113  0.0385
 3710W        W 7910   5.105   3.983   2.335  0.1433 -0.0361 -0.1669
 3711W        W 7911   0.459   6.519   1.982  0.3215  0.0317 -0.2832
 3712W        W 7912   9.005   6.729  10.011  0.0188 -0.0925 -0.1700
 3713W        W 7913   7.445   9.949  11.292  0.1744 -0.2728  0.2769
 3714W        W 7914   2.529   1.503  10.896  0.0554  0.0384 -0.1948
 3715W        W 7915   4.785   9.269   1.128  0.1818  0.1551  0.2285
 3716W        W 7916   0.237   0.802  11.646 -0.0580  0.1072 -0.0590
 3717W        W 7917   0.564   9.453   9.686 -0.1272 -0.1172  0.0616
 3718W        W 7918   7.707   7.372   9.826  0.1232  0.4700  0.2600
 3719W        W 7919   5.925   2.255   3.537 -0.1073  0.4217  0.1690
 3720W        W 7920   3.347   9.264   1.496 -0.0171 -0.1788  0.0112
 3721W        W 7921   7.745   0.697   0.494 -0.1542  0.0511  0.2118
 3722W        W 7922   3.796   7.287   3.837 -0.0536  0.0398 -0.1391
 3723W        W 7923   2.583   2.790   3.596 -0.1823 -0.0904  0.1330
 3724W        W 7924   8.565   7.305  11.514  0.1016 -0.2196 -0.1349
 3725W        W 7925   2.734   9.522  13.147 -0.3741  0.0668 -0.3989
 3726W        W 7926   9.401   2.402   3.075 -0.0495  0.0922 -0.3792
 3727W        W 7927   8.806   2.422   3.873  0.0630 -0.0332 -0.2954
 3728W        W 7928   2.167   1.875  10.238  0.1673  0.0755  0.0937
 3729W        W 7929   3.096   6.362   4.215  0.1862 -0.2663  0.2246
 3730W        W 7930   4.644   9.608   1.981 -0.1447  0.1285  0.2258
 3731W        W 7931   4.658   0.222  10.984 -0.1493 -0.1326 -0.3800
 3732W        W 7932   4.709   5.433   2.328 -0.0651 -0.3105  0.1781
 3733W        W 7933   2.442  10.345   4.785 -0.0891  0.3309 -0.0945
 3734W        W 7934   4.755   1.580   8.704  0.0131 -0.0758  0.0701
 3735W        W 7935   6.915   6.710   3.500  0.0858  0.3967 -0.4731
 3736W        W 7936   8.492   9.029  12.866  0.1441  0.0614  0.2543
 3737W        W 7937  10.346   9.764   9.606  0.3021  0.1695  0.1095
 3738W        W 7938   4.133   6.536  11.299 -0.1221 -0.0455 -0.2192
 3739W        W 7939   7.448   8.727  10.012 -0.0695  0.2266  0.2876
 3740W        W 7940   5.276   2.782   4.225  0.3250  0.2192  0.3186
 3741W        W 7941   9.290   7.962   9.344  0.1820  0.0396 -0.1891
 3742W        W 7942   3.135   3.389  12.962 -0.2912  0.4093  0.3032
 3743W        W 7943   1.859   8.285   4.028  0.1580  0.1330  0.1371
 3744W        W 7944   0.595   0.025  12.094 -0.2022  0.1250  0.0207
 3745W        W 7945   0.549   7.952  10.435 -0.0404  0.2161  0.2292
 3746W        W 7946   6.361   7.652   2.821  0.1715  0.0191 -0.0923
 3747W        W 7947   1.210  10.065   9.937 -0.3713  0.1766 -0.0539
 3748W        W 7948   7.329   4.433   9.017 -0.1059 -0.0042  0.0777
 3749W        W 7949   3.957   3.640  10.972 -0.1994  0.1888 -0.2030
 3750W        W 7950   4.021   5.915   4.399  0.0583 -0.0142  0.2573
 3751W        W 7951   7.904   6.927   0.372  0.0402  0.4114 -0.2970
 3752W        W 7952   7.640   2.374   0.445  0.2606 -0.1433 -0.4379
 3753W        W 7953   3.774   5.218   0.956 -0.0396  0.1265 -0.1418
 3754W        W 7954   6.835   1.647  11.345 -0.0673  0.0220  0.0167
 3755W        W 7955   0.720  10.324   8.252  0.0899  0.1471 -0.1141
 3756W        W 7956   8.642   7.371   9.945  0.1600 -0.2260  0.2885
 3757W        W 7957   3.878   5.385   2.224  0.3068  0.3559  0.2022
 3758W        W 7958   8.688   8.421   2.753  0.1449  0.1868 -0.0025
 3759W        W 7959   1.261   6.501   3.468  0.0402  0.1797 -0.0403
 3760W        W 7960   4.903   7.258   9.233  0.0662  0.0478  0.2845
 3761W        W 7961   9.111   3.972  11.752 -0.2698 -0.2236  0.0121
 3762W        W 7962   8.774   3.373   2.079  0.0926  0.0378 -0.0090
 3763W        W 7963   7.375   4.291  12.891  0.0144  0.0019 -0.1067
 3764W        W 7964  10.343   9.516   0.905 -0.0736 -0.2643  0.0490
 3765W        W 7965   9.225   4.840   0.862  0.2043  0.3077 -0.0276
 3766W        W 7966   1.887   0.587   2.037  0.2252 -0.0990 -0.0243
 3767W        W 7967   2.141   1.980   9.404 -0.1350 -0.2348 -0.0516
 3768W        W 7968   3.913   6.089  10.854 -0.1152  0.4194 -0.2152
 3769W        W 7969   8.258   1.368  13.393 -0.0331  0.0536 -0.0760
 3770W        W 7970   8.076   2.520   5.142 -0.0182  0.0401 -0.0960
 3771W        W 7971   2.911   5.165   1.132 -0.0095 -0.1916 -0.0103
 3772W        W 7972   1.828   9.777   3.921 -0.0315 -0.0546 -0.0621
 3773W        W 7973   5.705   2.801   0.292  0.1121  0.0563 -0.0436
 3774W        W 7974   5.482   7.209   1.576 -0.1019 -0.0012  0.2875
 3775W        W 7975   9.714   5.447  11.290 -0.0403  0.1128  0.2174
 3776W        W 7976   5.997   1.233  10.797  0.0548  0.2066  0.3636
 3777W        W 7977   5.305   9.554   2.759  0.1603  0.0404  0.3806
 3778W        W 7978   7.402   1.894   3.916  0.2163  0.1001  0.2006
 3779W        W 7979   6.149   0.237   0.711  0.0080  0.0600 -0.1498
 3780W        W 7980   3.452   0.735   0.951 -0.2675 -0.2239  0.2833
 3781W        W 7981   4.753   3.208   8.825  0.2289 -0.0444 -0.1204
 3782W        W 7982   5.084   3.682  12.689 -0.0238 -0.0129  0.1314
 3783W        W 7983   7.887   0.192   1.318  0.0357 -0.1858  0.1260
 3784W        W 7984   2.273   5.495  12.252 -0.3090 -0.3385  0.1724
 3785W        W 7985   6.288   2.221  10.642 -0.0524 -0.0960  0.0410
 3786W        W 7986   8.572   9.859   3.898  0.2568  0.0981 -0.0666
 3787W        W 7987   3.986   7.862   0.986  0.1350 -0.1043  0.0606
 3788W        W 7988   3.466   4.624   1.438 -0.2219 -0.1362 -0.1586
 3789W        W 7989   8.014   3.120  12.869 -0.0961  0.2298  0.0103
 3790W        W 7990   8.068   1.410   3.495  0.2186 -0.1573  0.4097
 3791W        W 7991  10.385   7.094   2.140 -0.0666 -0.2646 -0.0242
 3792W        W 7992   1.680   3.279  11.883  0.4311 -0.2704  0.0741
 3793W        W 7993   0.322   9.917  11.104  0.1806  0.0605  0.0038
 3794W        W 7994   2.771   0.439   9.598 -0.2008  0.0647 -0.1081
 3795W        W 7995   0.162   9.023  11.499 -0.0683  0.0888 -0.2148
 3796W        W 7996   6.088   9.015   9.720 -0.2174  0.2159  0.3478
 3797W        W 7997   2.466   3.808  11.032 -0.0890 -0.2486  0.1418
 3798W        W 7998  10.142   9.549  10.963 -0.0671 -0.0226  0.0308
 3799W        W 7999   1.745  10.125   3.463  0.2810 -0.2694  0.0056
 3800W        W 8000   4.490   4.899  10.804 -0.3573  0.1641 -0.0388
 3801W        W 8001   7.086   6.202  11.200 -0.0081  0.2248 -0.1558
 3802W        W 8002   2.935   7.671   0.064  0.0760 -0.2298 -0.0629
 3803W        W 8003   2.314   9.858   3.975 -0.1791 -0.1796 -0.0271
 3804W        W 8004   9.517   0.286   4.536 -0.1950  0.0305 -0.0121
 3805W        W 8005   7.391   0.418   1.373 -0.1932  0.0289 -0.0634
 3806W        W 8006   1.035   4.784   9.691  0.1271 -0.3288  0.0520
 3807W        W 8007   4.719   3.195   3.324  0.2165 -0.0888  0.2007
 3808W        W 8008   7.468   9.324  13.413  0.0429 -0.3020 -0.0062
 3809W        W 8009  10.355   8.884  10.296 -0.1025 -0.0625  0.0974
 3810W        W 8010   2.751   4.252  10.916  0.0372 -0.1849  0.2614
 3811W        W 8011   0.160   0.523  11.260 -0.0817  0.0552 -0.1334
 3812W        W 8012   0.034   9.134   0.095 -0.1295 -0.2538  0.0402
 3813W        W 8013   5.587   0.086   3.122  0.1646  0.2802 -0.3581
 3814W        W 8014   3.289   0.842   2.140 -0.2993  0.2840  0.2094
 3815W        W 8015   1.226   1.695   6.529  0.0753  0.1535 -0.0293
 3816W        W 8016   6.517   1.771   0.988 -0.0113 -0.1891  0.2250
 3817W        W 8017   7.095   0.238  10.450 -0.4014 -0.3291  0.2443
 3818W        W 8018   5.851   3.801   1.791  0.1779 -0.0958 -0.0960
 3819W        W 8019   5.875   6.757   3.247 -0.1091 -0.1475 -0.0465
 3820W        W 8020   5.796   2.885   9.728 -0.2991  0.2260  0.0631
 3821W        W 8021   4.023   7.663   5.089 -0.1979 -0.0260  0.1828
 3822W        W 8022   7.716   3.442  10.138  0.0499  0.1776 -0.0069
 3823W        W 8023   7.560   2.384  10.938 -0.2086 -0.2835 -0.0902
 3824W        W 8024   5.648   7.966   2.068  0.0762  0.0033  0.1922
 3825W        W 8025   0.599   5.230   9.778 -0.0821 -0.0245  0.0929
 3826W        W 8026   9.930   4.234   0.483  0.1224 -0.1518  0.1211
 3827W        W 8027   7.420   0.412   0.317  0.0394  0.1264  0.0051
 3828W        W 8028   2.296   9.958   0.008 -0.0277 -0.2238 -0.1298
 3829W        W 8029   9.974   4.168  12.018 -0.0015 -0.0688  0.3304
 3830W        W 8030   5.172   0.503  11.729  0.3163 -0.0855  0.0296
 3831W        W 8031   7.405   1.101   3.952  0.0434 -0.0988 -0.1296
 3832W        W 8032   6.551   2.023   0.216  0.1853  0.1930  0.2461
 3833W        W 8033   7.849   6.314  10.760 -0.0920  0.2165  0.1212
 3834W        W 8034   0.755   0.375   9.880 -0.1719  0.2756  0.1337
 3835W        W 8035   7.982   8.699   3.507  0.0239  0.0229  0.1478
 3836W        W 8036   5.199  10.355  10.507  0.1360  0.0217  0.2656
 3837W        W 8037   2.617   8.301   0.935  0.3628  0.0155 -0.1147
 3838W        W 8038   7.004   6.133   0.310  0.4101  0.0627  0.2114
 3839W        W 8039   0.175   2.917  12.062 -0.1953  0.1166  0.0290
 3840W        W 8040  10.382   8.341   1.951 -0.1607 -0.1484 -0.1097
 3841W        W 8041   4.107   8.508   1.695  0.3492  0.3495 -0.0399
 3842W        W 8042   0.751  10.199   1.642 -0.0246  0.1581  0.0576
 3843W        W 8043   0.770   6.158   9.674  0.0733  0.0671  0.1277
 3844W        W 8044   9.738   3.822  12.367 -0.2080 -0.0283  0.0275
 3845W        W 8045   1.771   3.797   0.725 -0.1795 -0.0831 -0.3680
 3846W        W 8046   2.842   1.199   4.601  0.3018 -0.0794  0.3285
 3847W        W 8047   9.138   4.468  11.859  0.1074 -0.3026  0.2039
 3848W        W 8048   7.812   9.504   9.043  0.0927 -0.1979  0.1117
 3849W        W 8049   2.510   4.076   2.949  0.1580 -0.1769  0.1083
 3850W        W 8050   8.818   1.367  12.526  0.2614  0.2324  0.0887
 3851W        W 8051   1.846   1.266  11.066 -0.0995 -0.1268  0.0748
 3852W        W 8052   0.165   7.098  12.736 -0.0386  0.0333 -0.1033
 3853W        W 8053   5.071   4.546   1.013  0.1816  0.0270  0.0966
 3854W        W 8054   5.328   4.246  11.538  0.2502  0.1694  0.0960
 3855W        W 8055   7.545   0.440   8.473 -0.0393  0.1249 -0.0235
 3856W        W 8056   7.149  10.176   1.559 -0.4085 -0.1683  0.1330
 3857W        W 8057   0.837   1.051  11.856  0.1399 -0.0014 -0.0356
 3858W        W 8058   0.937   4.525   3.036 -0.2493  0.3406 -0.4521
 3859W        W 8059   3.707   7.774   4.159  0.0039  0.0312 -0.2022
 3860W        W 8060   7.413   2.336  11.445  0.0360 -0.3418 -0.1591
 3861W        W 8061   1.787   6.097  10.731  0.0111 -0.2863 -0.0922
 3862W        W 8062   7.725   8.473  10.992 -0.3126  0.2159  0.0905
 3863W        W 8063   3.791   9.201  10.410 -0.2163 -0.0993 -0.0558
 3864W        W 8064   5.886   0.595   3.737 -0.2893  0.0226 -0.4061
 3865W        W 8065   4.276   5.525   2.568 -0.0119  0.1239  0.0334
 3866W        W 8066   1.759   2.583  13.000 -0.0558  0.1660  0.0514
 3867W        W 8067   7.762   2.408  12.326  0.0850 -0.1381  0.0711
 3868W        W 8068   7.301   5.629   0.440  0.0698 -0.0138  0.0987
 3869W        W 8069   9.758   8.971   3.032 -0.1559 -0.1139  0.0716
 3870W        W 8070   3.183   6.055  10.027 -0.0154 -0.4467 -0.1263
 3871W        W 8071   7.831   0.630   4.945 -0.0830 -0.1339  0.1158
 3872W        W 8072   2.831   1.624  12.097  0.2653  0.3115 -0.4198
 3873W        W 8073   0.069   9.563   1.994  0.1904 -0.1112  0.3010
 3874W        W 8074   2.395   7.297  11.897 -0.2477  0.3067  0.1241
 3875W        W 8075   7.677   0.375   8.967  0.1605  0.1032 -0.1380
 3876W        W 8076   1.551   6.071   9.729  0.0174  0.0499 -0.0972
 3877W        W 8077   6.186   1.043   4.027 -0.1680 -0.0628 -0.0851
 3878W        W 8078   0.806   2.427   0.624  0.1533 -0.0420  0.0044
 3879W        W 8079   9.001   8.114  10.502  0.2867 -0.0798  0.3111
 3880W        W 8080   2.160   9.985   3.519 -0.2595 -0.0880 -0.2669
 3881W        W 8081   0.784   4.145  11.235 -0.2041  0.1986 -0.0069
 3882W        W 8082   3.962   2.155   0.674  0.2174 -0.2437  0.1595
 3883W        W 8083   3.512   6.854   1.855  0.0999 -0.1713  0.1745
 3884W        W 8084   9.482   7.530  13.399 -0.1197  0.3272  0.0950
 3885W        W 8085   8.811   3.565  11.941 -0.2538  0.2157 -0.0233
 3886W        W 8086   8.746   5.570  10.154 -0.0016 -0.0335 -0.0483
 3887W        W 8087   8.231   2.657   3.043 -0.1153 -0.0451  0.0248
 3888W        W 8088   7.759  10.227  10.904  0.1037 -0.2754 -0.0869
 3889W        W 8089   1.548   9.111   2.664  0.0214 -0.1473 -0.2092
 3890W        W 8090  10.373   5.688   3.195 -0.1458 -0.4603  0.3153
 3891W        W 8091   3.025   5.964   3.356 -0.1981  0.1364 -0.0028
 3892W        W 8092   1.260   7.758  13.118 -0.0019  0.0227  0.3212
 3893W        W 8093   1.433   4.443  12.823  0.0800 -0.1978 -0.0259
 3894W        W 8094   0.619   6.434  12.001  0.1240  0.1399  0.1373
 3895W        W 8095   1.279   7.009   3.331 -0.0240  0.3730  0.2939
 3896W        W 8096   1.453   1.640   0.673 -0.3698 -0.0265 -0.1066
 3897W        W 8097   1.624   8.594   2.546  0.4298  0.3354  0.1493
 3898W        W 8098   0.136   6.593   8.911 -0.1126 -0.1703 -0.0775
 3899W        W 8099   5.845   6.938   9.249 -0.0483 -0.2113  0.1279
 3900W        W 8100   1.172   6.808  11.881  0.0532 -0.3591 -0.0060
 3901W        W 8101   7.066   8.831  11.501  0.1377 -0.0561  0.2456
 3902W        W 8102   0.029   4.355  11.478 -0.1026  0.3198  0.0355
 3903W        W 8103   3.033   6.436   9.590 -0.0490 -0.2016  0.0791
 3904W        W 8104   5.755   2.264   1.416 -0.0169  0.1928 -0.2585
 3905W        W 8105   8.665   8.824   0.079  0.3492 -0.0351 -0.2774
 3906W        W 8106   8.475   8.834   4.165  0.0827  0.1169 -0.0502
 3907W        W 8107   4.683   1.436   2.974 -0.0059 -0.1674 -0.1067
 3908W        W 8108   7.656   5.343  12.461 -0.0503 -0.0397  0.0887
 3909W        W 8109  10.269   4.195   0.126 -0.3517  0.1220  0.0699
 3910W        W 8110   6.635   9.554   0.958  0.3361  0.0161  0.4429
 3911W        W 8111   3.352   9.921   2.629  0.0566 -0.3221 -0.0516
 3912W        W 8112   1.592   1.505  10.596 -0.3342  0.2415 -0.1518
 3913W        W 8113   8.163   7.524   9.963 -0.0693 -0.3540  0.0312
 3914W        W 8114   0.298   9.118   9.477  0.1351  0.3541 -0.3356
 3915W        W 8115  10.232   7.498   4.290 -0.3418 -0.1807  0.2705
 3916W        W 8116   6.617   8.161   3.530 -0.0003 -0.1042 -0.0192
 3917W        W 8117   2.950   4.777   1.411 -0.1966  0.3690 -0.2818
 3918W        W 8118   8.793   3.226  13.390 -0.2543 -0.0977 -0.3263
 3919W        W 8119   1.885   4.857   2.958 -0.1679  0.1751  0.0291
 3920W        W 8120   7.659   8.165   0.081  0.1516  0.1941  0.3813
 3921W        W 8121   4.822   8.350   4.224 -0.0467  0.1085  0.3946
 3922W        W 8122   2.214   8.737   3.818 -0.0897 -0.2039 -0.2633
 3923W        W 8123   3.725   2.490  11.458 -0.0847 -0.3858  0.0775
 3924W        W 8124   0.180   7.374   4.636 -0.1221  0.4578 -0.2253
 3925W        W 8125   3.846   6.073   5.563 -0.1446  0.1028  0.1580
 3926W        W 8126   1.822   2.424  11.911  0.0412 -0.0705 -0.0124
 3927W        W 8127   5.019  10.318   9.754 -0.2291  0.0364  0.0198
 3928W        W 8128   1.074   3.748  11.025  0.1893 -0.0451  0.0264
 3929W        W 8129   2.435   5.954  11.120 -0.0622  0.1695 -0.0756
 3930W        W 8130   2.546   7.025   4.123  0.0662 -0.1855  0.0493
 3931W        W 8131   6.932   8.226  12.321  0.0723 -0.0923 -0.1395
 3932W        W 8132   1.247   5.916   3.543 -0.1008  0.0616 -0.1407
 3933W        W 8133   6.847   7.462  10.432  0.2173 -0.0397  0.3044
 3934W        W 8134   3.124   8.823   9.167 -0.3052  0.1990 -0.0293
 3935W        W 8135   6.979   2.828   9.984 -0.3909  0.1513  0.0673
 3936W        W 8136  10.013   7.869   2.397 -0.2321 -0.0016  0.0930
 3937W        W 8137   2.496  10.234   1.297  0.0697 -0.2071 -0.0391
 3938W        W 8138   5.948   8.497   9.082  0.2545 -0.3791 -0.1245
 3939W        W 8139   9.572   6.171  11.462 -0.2073 -0.2000 -0.1307
 3940W        W 8140   3.634   4.789  12.815  0.1068  0.1886 -0.3698
 3941W        W 8141   8.310   4.637   0.580 -0.0398 -0.0486  0.3057
 3942W        W 8142   0.684   2.855  12.289 -0.2920 -0.1447 -0.1245
 3943W        W 8143   7.685   7.932   5.252  0.0913  0.2087 -0.2428
 3944W        W 8144   3.456   8.724   3.312  0.4259  0.1263 -0.2161
 3945W        W 8145   4.772   8.013  12.201 -0.3029  0.2226  0.3034
 3946W        W 8146   4.535   7.237   0.269 -0.1182  0.2504  0.1636
 3947W        W 8147   5.685   4.174  10.967  0.2987  0.2195 -0.3036
 3948W        W 8148   1.497   9.701  12.273  0.1135  0.0918 -0.1481
 3949W        W 8149   5.621   6.844   4.571  0.2084  0.0166  0.0404
 3950W        W 8150  10.299   3.212  12.462 -0.0035 -0.1065  0.1500
 3951W        W 8151   2.992   2.785   1.397  0.2888 -0.0322 -0.0772
 3952W        W 8152   2.474   8.666  10.683  0.0015  0.1146  0.1123
 3953W        W 8153   8.422   8.845  11.493  0.0275 -0.0871 -0.1829
 3954W        W 8154   0.008   6.962   0.717  0.3826 -0.3123 -0.0780
 3955W        W 8155   7.684   0.188   4.122  0.0752 -0.1016  0.2022
 3956W        W 8156   4.695   6.802   9.101  0.0007 -0.3941 -0.1053
 3957W        W 8157   4.922   7.006   3.279 -0.0371  0.0027  0.2171
 3958W        W 8158   1.588  10.190  11.925 -0.0737 -0.2228 -0.0065
 3959W        W 8159   9.250   1.038  13.348 -0.1454 -0.3175 -0.0454
 3960W        W 8160   4.544   4.688  13.428 -0.0730  0.0051  0.0902
 3961W        W 8161   4.592   9.002   2.644  0.0050 -0.0127 -0.0331
 3962W        W 8162   4.746   6.636  10.676  0.2126 -0.1044 -0.1212
 3963W        W 8163   1.351   8.980  12.788 -0.2376 -0.2349 -0.5783
 3964W        W 8164   0.884   1.149   0.184 -0.0227  0.1982 -0.1980
 3965W        W 8165   2.121   7.724  12.969  0.2427  0.3656  0.1083
 3966W        W 8166   7.746   9.693  13.192  0.2463 -0.0401 -0.2386
 3967W        W 8167   7.332   5.036   4.381 -0.3308 -0.0476 -0.0983
 3968W        W 8168   3.062   5.297  11.739  0.4951 -0.2387  0.0412
 3969W        W 8169   8.693   1.883   1.833  0.1014 -0.1058  0.2150
 3970W        W 8170   1.087   6.403   1.628 -0.0822 -0.0528  0.1275
 3971W        W 8171   6.300   1.622   2.341  0.3669  0.0262 -0.1536
 3972W        W 8172   1.825   1.713   2.212 -0.3273 -0.0694  0.0633
 3973W        W 8173   0.288   7.233   0.458  0.2240 -0.3185  0.0810
 3974W        W 8174   4.704   8.899   9.249  0.0775 -0.2004  0.1853
 3975W        W 8175   4.045   6.126   2.139 -0.1133 -0.2079 -0.1037
 3976W        W 8176   2.656   8.987  12.858  0.1482 -0.0229 -0.3312
 3977W        W 8177   3.768   9.960  11.339 -0.2122  0.2883 -0.1566
 3978W        W 8178   5.820   3.619   2.722  0.1835 -0.2705 -0.1674
 3979W        W 8179   0.301   2.672  12.505  0.0401  0.2516  0.1348
 3980W        W 8180   2.913   3.132  11.586  0.0252 -0.1977 -0.1417
 3981W        W 8181   1.326   2.830   5.668  0.0301  0.2400 -0.1737
 3982W        W 8182   1.346   7.842  10.363  0.0589  0.0981  0.2995
 3983W        W 8183   5.908   8.804  10.101 -0.1731 -0.0010  0.2687
 3984W        W 8184   6.330   6.173  10.455  0.0023  0.1665  0.0543
 3985W        W 8185   2.286   1.911   2.465 -0.2046 -0.1268  0.0115
 3986W        W 8186   0.770   5.793  13.196  0.3117  0.0068 -0.0524
 3987W        W 8187   5.848   9.033  10.623  0.0436  0.0919  0.1489
 3988W        W 8188   2.295   7.503  10.597 -0.0845 -0.3335  0.0806
 3989W        W 8189   3.651   1.321   3.751 -0.0134 -0.2518 -0.0949
 3990W        W 8190   7.436   9.523   2.885  0.1339  0.2182  0.0230
 3991W        W 8191   3.665   6.897   2.575 -0.0946 -0.1140  0.0218
 3992W        W 8192   0.055  10.103   2.677 -0.0856  0.0513 -0.0398
 3993W        W 8193   4.875   9.772   9.779 -0.0857 -0.2582 -0.0644
 3994W        W 8194   4.647   1.645  11.287  0.2464 -0.0250  0.0958
 3995W        W 8195   9.327   1.350   5.253  0.1354  0.0578  0.1070
 3996W        W 8196   7.029   3.356   2.510 -0.0395  0.0794  0.4009
 3997W        W 8197   6.899   3.515  12.805 -0.1707  0.1385 -0.2273
 3998W        W 8198  10.125   9.895   4.416 -0.1359 -0.1028  0.0697
 3999W        W 8199   0.916   6.709   3.747 -0.4331  0.0439 -0.1834
 4000W        W 8200   8.961   4.755   4.114 -0.4072 -0.2646  0.1227
 4001W        W 8201   1.330   7.978   3.410 -0.1822  0.2134 -0.1160
 4002W        W 8202   0.537   1.278   0.903 -0.1323 -0.0339  0.1846
 4003W        W 8203   5.022   3.061   1.167 -0.2303  0.1411 -0.3206
 4004W        W 8204   1.710   7.474   3.131 -0.5257 -0.1032  0.0826
 4005W        W 8205   3.317   6.540  10.561 -0.1215  0.0357 -0.0419
 4006W        W 8206   5.656   7.131   1.090  0.2758  0.3940  0.0806
 4007W        W 8207   9.729   4.257  12.916 -0.3339  0.2697 -0.1689
 4008W        W 8208   6.849   7.368  12.545 -0.1722 -0.1944 -0.0974
 4009W        W 8209   9.536   4.938   3.377 -0.5343 -0.1703 -0.1426
 4010W        W 8210   9.263   5.261   1.224 -0.3303  0.0284 -0.1052
 4011W        W 8211   6.420   5.610   1.911  0.1532 -0.1161 -0.0322
 4012W        W 8212   4.011   0.595  10.854  0.0768 -0.0796 -0.2331
 4013W        W 8213  10.220   6.257  12.375 -0.2877 -0.0836 -0.1628
 4014W        W 8214   5.140   8.949   2.694  0.0969  0.1949 -0.1283
 4015W        W 8215   2.107   1.358  10.082  0.1606 -0.0441  0.1307
 4016W        W 8216   8.307   6.315  10.435 -0.2865  0.1207  0.1260
 4017W        W 8217   3.562   7.746   1.337 -0.0255 -0.0275  0.3357
 4018W        W 8218   3.305   6.661   0.208  0.0021  0.1623  0.2011
 4019W        W 8219   6.577   6.184   3.405  0.3180 -0.1049  0.0125
 4020W        W 8220   9.893   3.156   3.090  0.2107 -0.2137 -0.0256
 4021W        W 8221   5.543   2.759   1.259  0.0151 -0.1749 -0.0184
 4022W        W 8222   0.617   6.242  12.900 -0.2091 -0.1908  0.1479
 4023W        W 8223   6.936   1.446  12.893  0.2290 -0.2156 -0.2100
 4024W        W 8224   1.836   7.867   3.760 -0.0766  0.2141  0.1058
 4025W        W 8225   2.625   2.164   1.202  0.1533 -0.0529 -0.1079
 4026W        W 8226   2.661   7.526   1.951 -0.0034 -0.0992  0.1539
 4027W        W 8227   9.383   4.415   1.122  0.0559  0.0145 -0.2322
 4028W        W 8228   9.250   3.729   5.127 -0.0467 -0.0379 -0.1242
 4029W        W 8229   6.360   9.014  12.245 -0.3041 -0.1941 -0.1413
 4030W        W 8230   1.905   5.439   9.225  0.0144 -0.3140 -0.1252
 4031W        W 8231   3.755   1.215  11.833  0.0252  0.3157 -0.0082
 4032W        W 8232   6.570   9.958   2.887 -0.1079  0.0755 -0.0093
 4033W        W 8233   6.319   2.247  12.486 -0.0173  0.1384  0.0923
 4034W        W 8234   1.410   9.575   4.104  0.4496 -0.2961  0.1037
 4035W        W 8235   8.075   3.766   2.702  0.2819  0.0375 -0.1190
 4036W        W 8236   1.472   8.470  13.047 -0.1959  0.2293 -0.0286
 4037W        W 8237   5.692  10.181  11.897 -0.0455 -0.0298 -0.1325
 4038W        W 8238   6.147   4.837   0.574  0.1832  0.1990 -0.1113
 4039W        W 8239   3.401   2.527   2.125 -0.0273  0.0186  0.1646
 4040W        W 8240   6.619   6.411   9.746  0.2490  0.0879 -0.1184
 4041W        W 8241   2.907   1.994   3.697 -0.0037 -0.0630  0.1992
 4042W        W 8242   4.943   6.183  13.099  0.2216  0.0233 -0.0370
 4043W        W 8243   7.198   7.508  11.827 -0.1565  0.1267  0.2302
 4044W        W 8244   9.780   6.970   4.792  0.1324 -0.1158  0.0309
 4045W        W 8245   4.980   5.950  10.099 -0.0563 -0.2281 -0.1415
 4046W        W 8246   7.858   9.740   1.410 -0.2336  0.0157  0.0733
 4047W        W 8247   1.401   6.273   0.574 -0.0566  0.1538 -0.0143
 4048W        W 8248   4.246   7.449   4.208 -0.1733 -0.3399 -0.0451
 4049W        W 8249   0.640   7.970   0.323  0.0455 -0.0641  0.1723
 4050W        W 8250   6.112   6.933   1.723  0.2539 -0.0785  0.0820
 4051W        W 8251   3.025   1.331  11.125 -0.2290  0.0929 -0.2837
 4052W        W 8252   7.580   6.991   3.188  0.0671  0.0770  0.2085
 4053W        W 8253   4.672   4.539  12.425  0.0497 -0.0983  0.1414
 4054W        W 8254   8.537  10.303  11.419 -0.0154  0.2183  0.0303
 4055W        W 8255   2.990   0.262  10.092  0.0397 -0.2122 -0.0691
 4056W        W 8256   3.434  10.171  10.830  0.0377  0.0651 -0.2046
 4057W        W 8257   2.158   1.400   2.430 -0.0871 -0.3006 -0.0520
 4058W        W 8258   5.657   6.805   0.389  0.2898 -0.0775 -0.1664
 4059W        W 8259   2.227   1.640  12.274 -0.1405  0.4177  0.0135
 4060W        W 8260   5.739   4.245  11.854  0.3122  0.1650 -0.0265
 4061W        W 8261   6.384   0.479  11.664  0.2384  0.1124 -0.0387
 4062W        W 8262   4.318   8.978   4.931 -0.1388  0.0099 -0.1367
 4063W        W 8263  10.033   6.825  10.256  0.1199 -0.0562 -0.1521
 4064W        W 8264   1.868   2.294  11.120 -0.0460 -0.1077 -0.1648
 4065W        W 8265   6.561   3.626   3.223  0.0550  0.2449  0.1235
 4066W        W 8266   5.139   7.831   3.002 -0.0332 -0.3215  0.2061
 4067W        W 8267   0.178   8.936   1.746 -0.1037  0.4538 -0.3299
 4068W        W 8268   2.985   1.445   0.409 -0.2147 -0.1363 -0.2001
 4069W        W 8269   5.067   1.345   3.301 -0.2506 -0.2790 -0.3222
 4070W        W 8270   3.317   8.108   9.645  0.4317  0.2473  0.0064
 4071W        W 8271   7.385   2.193   2.919 -0.0143 -0.0302  0.0271
 4072W        W 8272   6.928   2.560   4.357 -0.0216  0.0024 -0.3544
 4073W        W 8273   8.202  10.162  12.487  0.0752  0.0961 -0.1007
 4074W        W 8274   5.913   5.634  10.596  0.1253  0.1821 -0.0217
 4075W        W 8275   0.272   2.462   0.387  0.0005 -0.1645 -0.0208
 4076W        W 8276   9.260   5.724   0.904 -0.0070  0.4072  0.2246
 4077W        W 8277   2.784   3.237   1.258 -0.2451 -0.0489  0.0034
 4078W        W 8278   6.386  10.401   3.161 -0.1046 -0.1669  0.2916
 4079W        W 8279   9.044   3.124  12.005 -0.1189  0.3849  0.0775
 4080W        W 8280   0.245   6.233  10.646  0.0828 -0.1045 -0.0199
 4081W        W 8281   0.932   2.243  12.826  0.0671  0.1566  0.3164
 4082W        W 8282   9.540   8.893  11.337 -0.0705 -0.2767  0.3883
 4083W        W 8283   6.418   1.832   4.782  0.0247  0.1516  0.0709
 4084W        W 8284   1.086   8.731   0.488 -0.4779  0.0886  0.1295
 4085W        W 8285   6.667   1.338   2.768 -0.0305  0.0556  0.4214
 4086W        W 8286   7.356   8.059   8.773  0.0572 -0.2740  0.0096
 4087W        W 8287   7.743  10.366  12.192 -0.2542  0.3491  0.0559
 4088W        W 8288   2.389   2.411  10.413 -0.3728  0.1365 -0.0359
 4089W        W 8289   9.398   5.318   3.056 -0.3482  0.0122  0.4712
 4090W        W 8290   8.238   2.720  12.528 -0.0930 -0.1793 -0.2246
 4091W        W 8291   7.614   2.872  12.475 -0.0800  0.0056  0.0672
 4092W        W 8292   9.562   8.142   9.804  0.1373  0.0108  0.0557
 4093W        W 8293   7.668   6.188  11.315  0.1117 -0.0671  0.1436
 4094W        W 8294   9.272   8.271   3.621  0.1011 -0.1343  0.0994
 4095W        W 8295   2.545   3.036   0.827  0.1853  0.1575  0.1397
 4096W        W 8296   0.991   8.352  11.747 -0.0068 -0.1795  0.0002
 4097W        W 8297   1.250   8.930   4.059  0.1230  0.0037  0.0441
 4098W        W 8298   9.858   1.436   2.257  0.3280  0.1077 -0.0193
 4099W        W 8299   1.565   2.649   1.718 -0.0960 -0.2477 -0.0689
 4100W        W 8300   0.378   1.730  11.350  0.0940  0.6030 -0.1003
 4101W        W 8301   9.270   1.044   4.873  0.0987  0.0696 -0.0901
 4102W        W 8302   4.519   8.406   2.736  0.1391  0.0444  0.2636
 4103W        W 8303   6.901   7.411   5.427 -0.3105  0.1901 -0.1111
 4104W        W 8304   9.280   5.076   9.535 -0.2093  0.2269  0.0858
 4105W        W 8305   6.975  10.070  10.076 -0.0120  0.0640  0.1796
 4106W        W 8306   3.944   4.073   0.343 -0.0462 -0.2214 -0.0487
 4107W        W 8307   0.479   1.961  12.838  0.1211 -0.0086 -0.1274
 4108W        W 8308   8.196   5.306   4.644 -0.1762  0.0017  0.3026
 4109W        W 8309   8.505   7.315  12.348  0.3667 -0.3232 -0.2589
 4110W        W 8310   0.800   2.813   3.195 -0.0942  0.0708 -0.0044
 4111W        W 8311   0.115   0.543   2.474 -0.0933  0.0623  0.1723
 4112W        W 8312   7.456   2.484  11.984 -0.0768  0.0875  0.0421
 4113W        W 8313   9.240  10.037   1.093  0.3422  0.0589  0.1163
 4114W        W 8314   0.955   4.518   2.525  0.1697 -0.2552 -0.0610
 4115W        W 8315   9.848   6.867   2.591  0.0666  0.1904  0.1191
 4116W        W 8316   3.588   7.951  13.076 -0.2373 -0.1096 -0.4653
 4117W        W 8317   4.176   8.743  11.266 -0.0670  0.1653  0.0229
 4118W        W 8318   6.807   0.248   3.350  0.0253  0.2359  0.1295
 4119W        W 8319   7.160   1.479   3.549  0.0899  0.1529 -0.2908
 4120W        W 8320   5.177   6.680   8.862  0.1212  0.2008 -0.0064
 4121W        W 8321   9.241   2.138  11.174  0.0964 -0.0308  0.2404
 4122W        W 8322   1.708   9.756   9.179  0.1227  0.1645  0.3925
 4123W        W 8323   3.561  10.270  11.747  0.3525 -0.2174 -0.0537
 4124W        W 8324   1.021   2.656   1.753 -0.4033 -0.2717  0.0337
 4125W        W 8325   3.081   4.026   1.977  0.2584 -0.1646  0.0878
 4126W        W 8326   6.882   1.049  12.258 -0.0444  0.1636 -0.1532
 4127W        W 8327   8.294   8.926  13.306  0.1314  0.2998  0.1674
 4128W        W 8328   1.661   0.645   4.667 -0.1267  0.0784 -0.0795
 4129W        W 8329   9.287   8.632   2.172  0.1075 -0.2293  0.2098
 4130W        W 8330   1.948   0.585  12.533  0.1762 -0.0960 -0.0655
 4131W        W 8331   3.119   2.853  12.780 -0.1127 -0.1166 -0.2058
 4132W        W 8332   6.051   1.611   0.949  0.2484  0.4625 -0.1766
 4133W        W 8333   7.029   9.135   9.635  0.1285  0.1119 -0.4165
 4134W        W 8334   4.899   3.421  12.050 -0.1091  0.1016  0.3353
 4135W        W 8335   2.428   6.327   1.681  0.1469  0.2627  0.2735
 4136W        W 8336   3.138   7.851   4.020  0.1827  0.0459  0.1053
 4137W        W 8337   1.080   5.481   0.876 -0.0138 -0.0082  0.1151
 4138W        W 8338   7.109   8.795   4.281 -0.0243  0.2231 -0.1684
 4139W        W 8339   3.011   7.898   1.740  0.0193  0.0646 -0.0181
 4140W        W 8340   6.721   1.814   3.810  0.0546  0.1148  0.2313
 4141W        W 8341   2.109   7.400   2.548 -0.0671  0.1860  0.2063
 4142W        W 8342   3.280   1.434   2.811  0.3295 -0.1874 -0.0969
 4143W        W 8343   6.235   8.362  11.193  0.1609  0.1868 -0.1062
 4144W        W 8344   4.452   2.163   0.903 -0.0823 -0.1196  0.2947
 4145W        W 8345   7.740   8.982  10.373 -0.1089 -0.2418  0.0785
 4146W        W 8346   8.406   7.235   4.900  0.3389  0.0319  0.0836
 4147W        W 8347   9.681   4.524   1.781 -0.0772  0.4040  0.1368
 4148W        W 8348   1.974   2.435   0.271  0.1580 -0.1128 -0.3310
 4149W        W 8349   4.443   1.475   1.578 -0.0778 -0.0876  0.2954
 4150W        W 8350   4.512  10.005   0.575  0.0646  0.3854 -0.0125
 4151W        W 8351   9.424   9.749  11.542  0.0583 -0.2477 -0.0884
 4152W        W 8352   9.298   3.136   3.685  0.0872  0.0719 -0.1255
 4153W        W 8353   7.278   5.831   9.935 -0.1429  0.0750 -0.1843
 4154W        W 8354   1.065   1.053   1.085  0.0019 -0.0740 -0.1501
 4155W        W 8355   7.161   4.344   2.050  0.3420 -0.0881  0.1873
 4156W        W 8356   3.510   3.124   3.882  0.1730 -0.1458  0.1056
 4157W        W 8357   6.558   0.800  12.704 -0.0237 -0.0263 -0.1671
 4158W        W 8358   9.474   5.372   9.876  0.1831  0.0325 -0.2027
 4159W        W 8359   2.583   5.593  11.714 -0.2068  0.2168 -0.1303
 4160W        W 8360   4.401   1.810  10.363 -0.1055  0.1548 -0.0211
 4161W        W 8361   1.833   3.588   1.241  0.1686  0.1966 -0.3574
 4162W        W 8362   4.148   7.239  12.833 -0.0083  0.3764 -0.1470
 4163W        W 8363   8.179   1.878   2.570  0.3574  0.2038  0.2896
 4164W        W 8364   6.285   4.410   1.480  0.1148  0.0088 -0.0721
 4165W        W 8365   5.799   7.648  13.491 -0.0775 -0.3395 -0.1721
 4166W        W 8366   0.075   0.023   2.231 -0.3459  0.0580 -0.2012
 4167W        W 8367   8.011   1.032   0.807  0.0179  0.3471 -0.1505
 4168W        W 8368  10.315   5.489  12.133  0.0730  0.4457  0.1762
 4169W        W 8369   0.487   0.796  10.316  0.2554  0.1799  0.0414
 4170W        W 8370  10.294   5.703  11.166 -0.2578 -0.1025 -0.1101
 4171W        W 8371   8.429   2.905   4.078  0.2626 -0.2162 -0.1003
 4172W        W 8372   3.253   2.811   9.730  0.1408 -0.3312  0.2859
 4173W        W 8373   0.868   2.938   7.791 -0.0362 -0.0245 -0.2462
 4174W        W 8374   9.628   3.615   1.685  0.0697  0.0324 -0.2290
 4175W        W 8375   3.074   8.579   4.391  0.0867 -0.0976  0.0696
 4176W        W 8376   2.780   3.151   1.717 -0.0159 -0.0292 -0.0724
 4177W        W 8377   1.435   5.487   3.433  0.2587  0.1752 -0.0321
 4178W        W 8378   6.225   2.663   0.635  0.1144 -0.3652  0.0860
 4179W        W 8379   8.100   4.870  12.577 -0.3776 -0.1349 -0.0821
 4180W        W 8380  10.347   5.663   9.213  0.4039  0.3329 -0.1270
 4181W        W 8381   6.069   8.412  12.610  0.4199 -0.0089  0.1254
 4182W        W 8382   2.593   6.422   3.289 -0.0088 -0.1358 -0.4231
 4183W        W 8383   3.814   1.665   0.833 -0.0457 -0.2969  0.0868
 4184W        W 8384   5.185   7.733   4.650  0.1760 -0.4133  0.1989
 4185W        W 8385   6.581   2.212   8.882 -0.2965  0.1917  0.2690
 4186W        W 8386   7.119   7.068  11.477  0.0478  0.1482  0.1729
 4187W        W 8387   5.844   2.640   9.269  0.0437  0.0441 -0.3778
 4188W        W 8388   6.618   0.637   1.550  0.1356  0.0247  0.0400
 4189W        W 8389   2.703   8.314  10.258 -0.1839  0.1820  0.1797
 4190W        W 8390   8.578   9.058   9.606  0.3344 -0.1043  0.2906
 4191W        W 8391   6.515   2.050   9.325  0.0575 -0.1497  0.1192
 4192W        W 8392   0.830   6.806  11.106  0.2179 -0.1951 -0.1839
 4193W        W 8393   8.272   9.960  10.719 -0.0887  0.0314  0.1506
 4194W        W 8394   0.648   3.734  12.455  0.1066  0.2607 -0.3011
 4195W        W 8395   2.812   2.129  10.517  0.1383 -0.2011 -0.2227
 4196W        W 8396   6.813  10.284  10.539 -0.3705  0.2775  0.1044
 4197W        W 8397   3.597   2.290   3.156  0.1459 -0.0973 -0.0817
 4198W        W 8398   2.935   9.045   0.232  0.0537  0.2252 -0.2469
 4199W        W 8399   4.820   6.314   0.494 -0.0954  0.1241 -0.0302
 4200W        W 8400   3.603   6.538  11.190  0.2027 -0.1582 -0.0353
 4201W        W 8401  10.086   9.695   1.370  0.1691  0.2008  0.2193
 4202W        W 8402   1.042   9.052   1.883  0.4057 -0.0118 -0.2511
 4203W        W 8403   0.657   3.830   2.695 -0.1114 -0.0585 -0.2830
 4204W        W 8404   8.856  10.037   3.519 -0.0037 -0.0102 -0.1422
 4205W        W 8405   6.869   6.600   1.282 -0.0406 -0.1283  0.0438
 4206W        W 8406  10.010  10.295  12.257  0.1553 -0.1620  0.1772
 4207W        W 8407  10.419   7.368   9.385  0.1611  0.2182  0.0109
 4208W        W 8408   6.300   4.384   5.073  0.0992 -0.0271  0.3264
 4209W        W 8409   3.352   0.169  12.944 -0.0158 -0.0648  0.0979
 4210W        W 8410   1.436   8.480   4.255  0.0370  0.0534 -0.4252
 4211W        W 8411   3.328   3.362  11.572  0.0955 -0.1789 -0.3037
 4212W        W 8412   4.356   1.110   1.236 -0.0679  0.0869  0.1448
 4213W        W 8413   6.477   5.104   2.141 -0.1187  0.2428 -0.2632
 4214W        W 8414   8.644   5.866  11.672 -0.1800 -0.0921 -0.3080
 4215W        W 8415   4.478   0.093   3.150  0.1334 -0.2161  0.0247
 4216W        W 8416   9.101   5.045   4.956 -0.1162 -0.0212 -0.0571
 4217W        W 8417   3.797   4.066  11.112  0.0052 -0.0127  0.0224
 4218W        W 8418   3.305   2.735   3.001  0.0744  0.0942 -0.2934
 4219W        W 8419   0.317   8.996  10.916 -0.1198 -0.2300  0.1972
 4220W        W 8420   2.602   9.982  12.845  0.2973  0.2202 -0.1929
 4221W        W 8421   9.375   5.982   2.269 -0.0667  0.1775 -0.0149
 4222W        W 8422   9.123   6.794   1.376  0.1472  0.2062 -0.4165
 4223W        W 8423   5.240   6.262  10.394 -0.1775  0.1832 -0.0725
 4224W        W 8424   8.570   2.016   9.002 -0.1148 -0.1163  0.7019
 4225W        W 8425  10.199   6.001  11.931 -0.2646  0.2139  0.1173
 4226W        W 8426   3.249   6.105  13.499  0.0481  0.2434 -0.2408
 4227W        W 8427   8.737   9.234   3.974  0.2376  0.1186 -0.1462
 4228W        W 8428   2.445   9.533   9.129  0.1001 -0.3098 -0.2010
 4229W        W 8429   4.346  10.206   8.989 -0.1348  0.2221  0.1654
 4230W        W 8430   8.532   2.897   3.439 -0.3101 -0.0329  0.0328
 4231W        W 8431   4.106   3.532  12.045  0.0545 -0.1676 -0.2957
 4232W        W 8432   1.876   0.785   2.588  0.2726  0.0908 -0.1476
 4233W        W 8433   3.968   6.955  10.072  0.3258  0.3624  0.0625
 4234W        W 8434   3.219   7.933   3.213  0.0643  0.3818  0.0035
 4235W        W 8435   0.567   5.802  10.708 -0.3765  0.4360 -0.1206
 4236W        W 8436   3.746   9.135   4.239  0.0399 -0.1740 -0.2754
 4237W        W 8437   9.300   6.307  10.306  0.2371 -0.1263 -0.0808
 4238W        W 8438   2.874   0.450  11.396 -0.1347  0.4736 -0.2313
 4239W        W 8439   7.015   3.996  10.452 -0.1811 -0.0465 -0.0607
 4240W        W 8440   0.986   3.798   3.575 -0.2796  0.0433  0.0037
 4241W        W 8441   4.555   2.144  11.306  0.2395  0.0577  0.1383
 4242W        W 8442   8.141   3.962   2.228 -0.2926 -0.2413 -0.1032
 4243W        W 8443   7.204   8.645  12.375  0.1023  0.1245  0.3853
 4244W        W 8444   6.804   4.893  11.249 -0.1756  0.1961  0.0014
 4245W        W 8445  10.027   2.096   1.083  0.1291  0.0441  0.2319
 4246W        W 8446   0.998   7.998   1.007  0.1819 -0.1897  0.0836
 4247W        W 8447   1.313   4.241  10.964  0.0515  0.0816  0.0795
 4248W        W 8448   3.411   2.060  13.069 -0.2922 -0.0703 -0.0039
 4249W        W 8449   3.381   0.499  11.405  0.0448  0.0346 -0.0455
 4250W        W 8450   7.236   0.177   8.798  0.2057  0.0107  0.2528
 4251W        W 8451   3.604   7.840  11.636 -0.1307 -0.1557  0.1947
 4252W        W 8452   9.273   2.549  10.050 -0.1771 -0.2202  0.1322
 4253W        W 8453   5.439   4.807   2.555 -0.0151 -0.2509 -0.0894
 4254W        W 8454   1.963   8.398  12.843  0.0746 -0.0016 -0.0330
 4255W        W 8455   7.874   4.899   1.347  0.0693 -0.4676 -0.2333
 4256W        W 8456   8.102   2.330   8.341 -0.1314  0.2226  0.0354
 4257W        W 8457   3.374   9.073   4.588 -0.0081  0.1521 -0.3063
 4258W        W 8458   0.574   6.197  13.419  0.0969  0.1030 -0.0821
 4259W        W 8459   1.621   1.094   0.699  0.2478 -0.3644  0.1393
 4260W        W 8460   9.116   4.016   0.917 -0.1643  0.4051  0.2350
 4261W        W 8461   6.551   3.510  11.876  0.0201 -0.2057  0.0524
 4262W        W 8462   5.746   0.550   0.296 -0.1193 -0.0125 -0.2296
 4263W        W 8463   0.261   4.170   3.288  0.0299 -0.0032  0.1607
 4264W        W 8464   2.743   8.153  11.354  0.0628  0.1392 -0.2947
 4265W        W 8465   0.859   7.104   2.666 -0.1610 -0.0811  0.0863
 4266W        W 8466   1.660   2.108  11.543  0.1399 -0.2839 -0.0229
 4267W        W 8467   2.242   1.069  10.896 -0.0075 -0.0620  0.1411
 4268W        W 8468   2.975  10.311  12.943  0.2942 -0.1437 -0.0272
 4269W        W 8469   9.785  10.374   3.854 -0.1919 -0.5146  0.0104
 4270W        W 8470   7.089   6.619   4.852  0.0782  0.1285  0.0979
 4271W        W 8471   6.970  10.420   9.178 -0.0969 -0.1007  0.1529
 4272W        W 8472   6.998   1.259  11.701 -0.0528 -0.3988  0.3351
 4273W        W 8473   9.544   7.698   2.194  0.2813  0.3157  0.0823
 4274W        W 8474   7.115   1.268  11.075 -0.1367  0.4621  0.3296
 4275W        W 8475   5.889   8.414   0.945 -0.0428 -0.2105  0.0296
 4276W        W 8476   0.600   7.692  12.334 -0.2933  0.0049  0.1444
 4277W        W 8477   0.297   3.121  13.206 -0.0451 -0.1489  0.2832
 4278W        W 8478   1.242   9.568   8.884 -0.0720 -0.1137  0.2252
 4279W        W 8479   9.960   7.056  12.911  0.0422 -0.0565 -0.1084
 4280W        W 8480   2.677   4.259  12.871 -0.0259 -0.0171 -0.3034
 4281W        W 8481   8.734   5.662   0.424  0.2826  0.2757  0.1365
 4282W        W 8482   0.117   5.882  11.550  0.1758 -0.3073 -0.0182
 4283W        W 8483   1.262   3.138  12.247 -0.4063 -0.0600  0.0396
 4284W        W 8484   2.616   2.360  12.622 -0.1061 -0.1000 -0.4001
 4285W        W 8485   9.353   8.279  10.782  0.0016 -0.1847  0.0004
 4286W        W 8486   0.145   3.718  11.454 -0.0891  0.0031 -0.2271
 4287W        W 8487   0.418   5.409   1.470 -0.4495  0.0107  0.0652
 4288W        W 8488   5.811   9.368  13.501 -0.0165  0.2228 -0.0872
 4289W        W 8489   3.464   2.941   9.317  0.0544  0.0579  0.1707
 4290W        W 8490   8.677   7.031   2.388  0.1465  0.0437  0.0630
 4291W        W 8491   9.167   4.784   3.059  0.2266 -0.1296 -0.0085
 4292W        W 8492  10.145   0.505   9.853 -0.0446  0.0089 -0.1268
 4293W        W 8493   0.762   8.396  11.260  0.0533 -0.1761 -0.0281
 4294W        W 8494   5.279   4.468   1.511 -0.1962  0.3710 -0.1348
 4295W        W 8495   6.740   8.632   3.440 -0.1756  0.0583 -0.0655
 4296W        W 8496   1.445   3.212   2.892 -0.0664 -0.0951  0.2317
 4297W        W 8497   6.058   7.831   9.884 -0.0036  0.1622  0.1068
 4298W        W 8498   3.323   2.973  10.203  0.1003  0.1448  0.0696
 4299W        W 8499   3.676   0.129  13.422 -0.0071  0.1749 -0.0342
 4300W        W 8500   5.792   8.056  11.077  0.0454  0.0171  0.1441
 4301W        W 8501   1.010   0.713  11.048  0.0640 -0.2472 -0.0519
 4302W        W 8502   8.482   4.689  11.283  0.1874 -0.0101 -0.1884
 4303W        W 8503   2.702   1.732   0.675 -0.2315 -0.3471 -0.2076
 4304W        W 8504   8.325   8.132  12.026 -0.2776  0.4117  0.1073
 4305W        W 8505   5.137   1.891   1.105 -0.0167  0.1005 -0.5375
 4306W        W 8506   7.293   8.145   2.923 -0.3885  0.2354 -0.0178
 4307W        W 8507   1.575   3.912  12.856  0.0865  0.0284 -0.1231
 4308W        W 8508   7.231   7.813   4.201  0.2924 -0.2343  0.0062
 4309W        W 8509   4.294   6.621   8.772 -0.2550 -0.0519 -0.1749
 4310W        W 8510   7.282   0.919  11.462 -0.1405  0.0668 -0.1005
 4311W        W 8511   5.882   3.177   2.431  0.2588 -0.1198  0.0653
 4312W        W 8512   8.527   5.107   4.335  0.1399 -0.0642 -0.1285
 4313W        W 8513   2.660   0.098   0.566  0.4055 -0.2179 -0.3997
 4314W        W 8514   9.402   2.084  10.166 -0.1127 -0.3842 -0.0762
 4315W        W 8515   0.414  10.335   3.586 -0.1515  0.2975 -0.2200
 4316W        W 8516   9.699   0.362  12.733  0.1176  0.1590  0.2930
 4317W        W 8517   0.252   3.055  11.492 -0.1848 -0.0514 -0.0963
 4318W        W 8518   3.771   6.563   5.349  0.2487 -0.2513  0.1983
 4319W        W 8519   6.281   9.341  13.234  0.0558  0.1403 -0.0488
 4320W        W 8520   7.502   4.272  10.013 -0.1862 -0.0910 -0.3265
 4321W        W 8521   3.105   0.035   2.487 -0.0006 -0.2044 -0.1915
 4322W        W 8522   2.533   8.518   4.550  0.1468 -0.0455 -0.0065
 4323W        W 8523   1.077   5.133  12.612  0.2056  0.0302  0.0339
 4324W        W 8524   7.323   9.942  13.559  0.0328 -0.0802 -0.0950
 4325W        W 8525   5.558   5.022   2.060  0.2211  0.0011 -0.1454
 4326W        W 8526   3.352   6.007  12.385  0.0323  0.2653 -0.0617
 4327W        W 8527   5.434   9.449   0.587 -0.0668  0.0002 -0.4464
 4328W        W 8528   0.132   0.587   3.039 -0.3592 -0.0743  0.0732
 4329W        W 8529   4.432   0.359   0.902  0.2993  0.0173 -0.3433
 4330W        W 8530   7.997   4.276   9.591  0.1344 -0.3073 -0.1328
 4331W        W 8531   8.232   1.037   0.237  0.1177  0.0999 -0.0043
 4332W        W 8532   2.448   1.818  11.815 -0.1214 -0.1222  0.1950
 4333W        W 8533   1.157   8.175   9.245  0.0039 -0.0794  0.0139
 4334W        W 8534   4.334   6.016   0.498 -0.0830  0.1955 -0.0457
 4335W        W 8535   5.738   8.458   4.626  0.0528 -0.1799  0.0733
 4336W        W 8536   5.131   2.297  10.646 -0.1817 -0.0127  0.0408
 4337W        W 8537   1.520   3.409  13.525 -0.0156 -0.0932 -0.1906
 4338W        W 8538   0.800   0.013   2.530 -0.0847  0.2090  0.0206
 4339W        W 8539   2.929  10.158   2.881 -0.0913  0.1052 -0.2438
 4340W        W 8540   9.218   0.011  12.047  0.1212  0.0307 -0.2911
 4341W        W 8541   7.040   4.401   0.951 -0.0461  0.0093  0.2226
 4342W        W 8542   4.532   2.206   4.175  0.2299  0.1618 -0.2246
 4343W        W 8543   4.319   5.301   3.261  0.2176  0.1571 -0.2825
 4344W        W 8544   9.106   6.068  11.744 -0.0589 -0.2592  0.2172
 4345W        W 8545   3.256   8.341  13.013  0.3558  0.2384 -0.2391
 4346W        W 8546   2.906   5.540   0.638 -0.0510  0.0468 -0.0625
 4347W        W 8547   1.081   9.393   3.561  0.1232 -0.2331 -0.1754
 4348W        W 8548   5.819   6.747   5.112 -0.2660 -0.2534  0.1523
 4349W        W 8549   2.853   3.404  12.523 -0.2144 -0.3027 -0.0272
 4350W        W 8550   7.340   8.584   0.035 -0.1899  0.1144  0.0012
 4351W        W 8551   5.404   2.845   9.372  0.3266  0.2042  0.1628
 4352W        W 8552   0.170   6.687   3.730  0.0484  0.0861 -0.2897
 4353W        W 8553   4.963   5.905  12.010 -0.2650 -0.1774  0.1085
 4354W        W 8554   7.179   4.131  11.443  0.0626 -0.3374  0.0384
 4355W        W 8555   3.050  10.268   9.296 -0.0970 -0.0777 -0.0093
 4356W        W 8556   2.582   2.080   2.000  0.1019 -0.0766 -0.3705
 4357W        W 8557   8.149   1.645   9.112  0.1199  0.0664 -0.0850
 4358W        W 8558   2.750   6.748  13.072 -0.1384  0.0905 -0.0883
 4359W        W 8559   0.165  10.246   0.939 -0.2104 -0.3716  0.2391
 4360W        W 8560   4.620  10.350   4.593  0.0978  0.2757 -0.0339
 4361W        W 8561   9.991   1.867  12.813  0.3497  0.1628 -0.1120
 4362W        W 8562   3.814   4.437  10.507 -0.2326  0.0309  0.2541
 4363W        W 8563   2.270   5.053  11.087  0.3221  0.1410  0.0653
 4364W        W 8564   4.045   9.024   1.567 -0.0169 -0.4051 -0.0478
 4365W        W 8565   5.806   8.887   0.755  0.0799  0.1508 -0.2247
 4366W        W 8566   7.772   4.084   4.344  0.0328  0.2183  0.0395
 4367W        W 8567   1.676   2.831   2.571  0.3212 -0.0308  0.1140
 4368W        W 8568   1.117   6.187   2.965 -0.1143  0.0862  0.0759
 4369W        W 8569   3.492   8.982   3.825  0.2159  0.5059  0.2091
 4370W        W 8570   7.971   7.199  12.468 -0.0352  0.0524 -0.5542
 4371W        W 8571   8.886   3.949  10.795  0.2281 -0.1726  0.1665
 4372W        W 8572   8.719   3.929   2.169  0.1106 -0.4934 -0.0757
 4373W        W 8573   5.995   4.865  13.187 -0.0343  0.0638  0.4460
 4374W        W 8574   5.202   7.029   0.162 -0.1237  0.1949 -0.2083
 4375W        W 8575   8.778   4.028   1.616  0.1983 -0.4154 -0.1659
 4376W        W 8576   5.532   8.025   9.684 -0.1421  0.0401 -0.0841
 4377W        W 8577   2.240   9.810  10.397  0.0559  0.1229 -0.3112
 4378W        W 8578   0.678   8.046   4.663  0.1102  0.0757 -0.2949
 4379W        W 8579   6.037   6.713   2.547 -0.1478  0.0552 -0.2160
 4380W        W 8580   6.593   1.170  11.391  0.0119  0.1495  0.2251
 4381W        W 8581   5.343   9.745  12.190  0.0215  0.2394 -0.3184
 4382W        W 8582   2.040   6.805  11.998 -0.2037 -0.0263 -0.0071
 4383W        W 8583   3.038  10.281   4.114  0.0358  0.1345  0.2895
 4384W        W 8584   5.214   0.174   2.084 -0.0375  0.6162  0.0875
 4385W        W 8585   5.313   2.063   1.603  0.2402  0.0487  0.1786
 4386W        W 8586   7.432   5.823   3.653 -0.0481 -0.0095  0.1444
 4387W        W 8587   4.205   9.171   2.018  0.0605 -0.1736  0.1421
 4388W        W 8588   2.815   6.055   0.660  0.2658 -0.0399 -0.0056
 4389W        W 8589   8.501   0.493   3.753 -0.2781  0.0308 -0.0294
 4390W        W 8590   3.989   4.751  12.503  0.0115  0.1234 -0.1976
 4391W        W 8591   8.262  10.082   2.857 -0.2116 -0.0755 -0.1150
 4392W        W 8592  10.411   6.145   4.184  0.1118 -0.0534 -0.0752
 4393W        W 8593   6.454   1.306   0.848  0.1010  0.1068 -0.1219
 4394W        W 8594   0.005   1.310  11.018 -0.3678  0.0225 -0.0398
 4395W        W 8595   9.411   1.338   9.648  0.2402 -0.3251  0.2194
 4396W        W 8596   8.412  10.255  13.562 -0.1418  0.0871 -0.2502
 4397W        W 8597   7.716   2.014  12.768  0.3749  0.0640  0.4843
 4398W        W 8598   5.151   5.322   2.030  0.1647  0.1754  0.1150
 4399W        W 8599   2.623   0.052  11.212  0.0100 -0.2229  0.0959
 4400W        W 8600   1.451   6.038  13.532 -0.3171  0.0772 -0.3646
 4401W        W 8601   5.837   2.458  12.363 -0.0367 -0.2704  0.2605
 4402W        W 8602   7.634   1.474   4.310  0.0794  0.0611 -0.1266
 4403W        W 8603   6.019  10.132   3.448 -0.0559 -0.2643  0.2961
 4404W        W 8604   9.551   1.594   9.240  0.2713  0.0134  0.3512
 4405W        W 8605   8.498   4.737   2.072 -0.0510 -0.0300 -0.1213
 4406W        W 8606   8.609   3.412   3.490  0.0916  0.0470  0.1855
 4407W        W 8607  10.118   7.485   9.831 -0.0814  0.0642 -0.1482
 4408W        W 8608   5.225   3.270  12.411 -0.0317  0.0878 -0.2425
 4409W        W 8609   0.875   2.100   2.359 -0.1812  0.0589  0.1028
 4410W        W 8610   7.793   6.364  11.755 -0.0044  0.1892 -0.1110
 4411W        W 8611   0.527   5.373  10.401  0.1366  0.1761  0.0813
 4412W        W 8612   6.833   5.594   0.135  0.0100 -0.1069  0.0300
 4413W        W 8613   6.580   6.294  13.220  0.0829 -0.1542 -0.5216
 4414W        W 8614   5.400   9.019  10.064  0.0390  0.0973 -0.1098
 4415W        W 8615   8.579   0.895  12.271  0.2124  0.0418  0.1383
 4416W        W 8616   8.295   1.955   0.626  0.2784 -0.4016 -0.1341
 4417W        W 8617   9.658   9.768   5.196 -0.3282  0.1142  0.2901
 4418W        W 8618   6.615   0.429  10.471  0.3325 -0.0198  0.1617
 4419W        W 8619   6.958   2.593   0.773  0.1011 -0.0503 -0.3094
 4420W        W 8620   5.907  10.016   4.569  0.2086  0.1386  0.0573
 4421W        W 8621   8.333   0.250   4.124 -0.1294 -0.0227 -0.0045
 4422W        W 8622   9.114   7.818   9.811  0.0471 -0.1674  0.5213
 4423W        W 8623   8.371   2.505  12.050 -0.0757  0.1347 -0.1303
 4424W        W 8624   1.690   1.879  12.760  0.1601 -0.1426  0.5654
 4425W        W 8625   1.059   7.742   4.860  0.0372 -0.1601 -0.0620
 4426W        W 8626   5.953   3.453   0.832 -0.0475 -0.2579 -0.1292
 4427W        W 8627   8.377   4.045  10.538  0.3414 -0.2707  0.1067
 4428W        W 8628   9.076   9.768   5.135 -0.3411  0.0678 -0.2278
 4429W        W 8629   3.982   7.059  11.906  0.0947 -0.2182 -0.0390
 4430W        W 8630   7.722   3.514  10.893 -0.2013  0.0734 -0.3201
 4431W        W 8631   3.599   8.633   1.683  0.3366 -0.1357  0.0413
 4432W        W 8632   9.648   5.858  10.061 -0.2341  0.2956  0.1658
 4433W        W 8633   8.022   8.950   2.560 -0.1586 -0.4050 -0.3377
 4434W        W 8634   7.609   0.470  11.796 -0.4672 -0.2792  0.0686
 4435W        W 8635   5.755   5.791  11.623 -0.0434 -0.3521 -0.3460
 4436W        W 8636   0.031   2.890  10.128  0.0730  0.2955 -0.1227
 4437W        W 8637   9.623   5.437   3.526 -0.2151  0.2661  0.0473
 4438W        W 8638   9.253   4.267   9.447  0.1571 -0.3414 -0.1716
 4439W        W 8639   9.869   3.288   1.977 -0.0515  0.0414 -0.2501
 4440W        W 8640   7.284   5.046   9.673  0.0514  0.1487  0.0554
 4441W        W 8641   8.694   4.792  11.845 -0.2109 -0.0976 -0.1655
 4442W        W 8642   3.970   5.392   4.359 -0.0974 -0.2467 -0.0693
 4443W        W 8643   0.844   7.392   8.919 -0.0346  0.2177  0.1552
 4444W        W 8644   5.508   9.134   2.488  0.0934 -0.2137  0.0399
 4445W        W 8645   3.397  10.139   1.628  0.0016  0.2323  0.0286
 4446W        W 8646   2.164   0.858  11.941 -0.0931 -0.0347 -0.0846
 4447W        W 8647   6.503   5.043  11.652 -0.1054  0.1259  0.2777
 4448W        W 8648   7.764   3.557   2.284 -0.2523  0.1049  0.2047
 4449W        W 8649   6.903   1.846  13.231 -0.6506  0.0618  0.1417
 4450W        W 8650   4.486   5.085   2.692 -0.0975  0.3445 -0.1573
 4451W        W 8651   9.067   8.956   1.430  0.1540  0.0185  0.1661
 4452W        W 8652   6.046   2.061   2.427  0.1154  0.0998 -0.1003
 4453W        W 8653   1.230   8.492  12.167 -0.1367 -0.2677 -0.0751
 4454W        W 8654   0.751   5.094   0.987  0.0754  0.4384  0.1634
 4455W        W 8655   9.057   8.656  13.446 -0.0115  0.0238  0.2782
 4456W        W 8656  10.153   5.594  10.289  0.0167 -0.2622 -0.0340
 4457W        W 8657   0.046   2.344   1.162  0.0849  0.2938 -0.0447
 4458W        W 8658   7.050   8.256   4.305  0.2873  0.0847  0.1745
 4459W        W 8659   6.830   6.456   2.998  0.0942  0.1447  0.1308
 4460W        W 8660   3.847   6.743   9.627 -0.1749  0.0573  0.2792
 4461W        W 8661  10.210   6.990  12.106  0.0603 -0.0202  0.0145
 4462W        W 8662   6.540   7.834   8.551  0.1799 -0.1779  0.0608
 4463W        W 8663   7.493   7.381   4.660 -0.0402  0.2172  0.1315
 4464W        W 8664   1.648   9.923   1.584 -0.0613  0.1367 -0.0903
 4465W        W 8665   7.259   5.463   3.870 -0.2187  0.0584  0.1122
 4466W        W 8666   4.511   8.872   9.781 -0.0359  0.0367 -0.1290
 4467W        W 8667  10.097   5.135  10.550  0.2082  0.1389 -0.0587
 4468W        W 8668   3.162   0.369  13.344  0.2054  0.2841 -0.3049
 4469W        W 8669   9.932   5.487  10.825 -0.1679  0.2972 -0.2689
 4470W        W 8670   0.106   1.606   2.805  0.3167  0.0655  0.2071
 4471W        W 8671   7.097   8.295  11.421 -0.2404  0.0498 -0.1526
 4472W        W 8672   6.337   3.493  13.576 -0.0084 -0.1141 -0.5618
 4473W        W 8673   6.225   9.520   4.945  0.0325  0.4226 -0.1184
 4474W        W 8674   3.500   7.069  13.375  0.0399  0.1772 -0.0174
 4475W        W 8675   8.360   1.593   1.485 -0.0921  0.0200 -0.2921
 4476W        W 8676   0.201   2.199  11.459  0.1424 -0.0488 -0.2619
 4477W        W 8677   1.724   0.362   2.942  0.0321 -0.0579 -0.0459
 4478W        W 8678   2.916   1.033   3.468  0.0552 -0.2157  0.0629
 4479W        W 8679   6.546   1.219   2.280  0.0548  0.3529  0.1716
 4480W        W 8680   6.292   5.315  13.035  0.1050 -0.1605  0.0581
 4481W        W 8681   0.809   4.642   2.036 -0.2682 -0.0699 -0.1654
 4482W        W 8682   9.727   3.355   0.749 -0.2863  0.1836 -0.1304
 4483W        W 8683   1.453   2.864   3.605  0.3171 -0.1446  0.2209
 4484W        W 8684   8.395   8.582   2.386  0.0194 -0.2558 -0.0107
 4485W        W 8685   8.742   5.699   0.904 -0.1949 -0.2299 -0.0042
 4486W        W 8686   9.524  10.301  12.434 -0.0345  0.3408  0.4561
 4487W        W 8687   0.885   6.016  11.148  0.0300 -0.1375 -0.1788
 4488W        W 8688   7.341   3.684   5.296  0.1311  0.0387 -0.3199
 4489W        W 8689   7.861   2.867   0.759 -0.3468 -0.1548  0.0624
 4490W        W 8690   5.572   7.611   9.986 -0.3068 -0.0148 -0.0966
 4491W        W 8691   8.466   8.549   0.477 -0.0338 -0.3229  0.0143
 4492W        W 8692   3.776   9.485  12.214  0.1476 -0.1440  0.2335
 4493W        W 8693   9.312   5.907   8.359 -0.0695  0.2057 -0.0056
 4494W        W 8694  10.375   1.227   1.025 -0.0355 -0.3789 -0.1766
 4495W        W 8695   5.874   0.482  10.612  0.2784 -0.0415  0.0359
 4496W        W 8696   4.767   2.417  10.966  0.0605 -0.0883  0.4260
 4497W        W 8697   3.017   1.958   0.332 -0.0612 -0.1268  0.0944
 4498W        W 8698   6.013   0.640  13.112  0.1086  0.1556 -0.2111
 4499W        W 8699   4.934   0.842  12.053 -0.3957 -0.1220 -0.1793
 4500W        W 8700   3.210   1.212   3.882 -0.1623  0.1936  0.0164
 4501W        W 8701   1.363   4.644  12.383  0.1461 -0.0506 -0.0366
 4502W        W 8702   1.726   4.000   2.437  0.2513  0.0943  0.1941
 4503W        W 8703   4.866   7.087   8.722 -0.0316 -0.2047  0.0917
 4504W        W 8704   2.716   5.803   4.202  0.2308  0.1642  0.0478
 4505W        W 8705   7.940   3.298  12.388 -0.1540  0.0537  0.1973
 4506W        W 8706   8.322  10.122   4.231  0.0216 -0.3236  0.0421
 4507W        W 8707   5.492   3.878   9.765  0.0564 -0.0181 -0.0045
 4508W        W 8708   3.827   4.092  11.970 -0.0753 -0.2077 -0.3191
 4509W        W 8709   0.045   4.875  11.460 -0.0764  0.1015  0.2339
 4510W        W 8710   9.187   3.233   1.592 -0.1295 -0.1215  0.0470
 4511W        W 8711   4.292   5.278   0.832  0.3268  0.0617  0.1258
 4512W        W 8712   3.847   9.898   9.233 -0.2720 -0.2152 -0.3525
 4513W        W 8713   2.357   6.566   2.164 -0.0437 -0.0261  0.1108
 4514W        W 8714   0.590   1.654  10.421  0.0105  0.2298  0.3354
 4515W        W 8715   9.976   7.841   0.458  0.0014  0.0426 -0.0030
 4516W        W 8716   9.313   3.556  12.666  0.2664 -0.0904  0.2092
 4517W        W 8717   3.894   9.820  11.847 -0.0723 -0.1105 -0.0525
 4518W        W 8718   9.403   5.922   3.689 -0.0952  0.0865 -0.2102
 4519W        W 8719   5.498   6.934   4.052  0.2845 -0.3169  0.1141
 4520W        W 8720   6.125   3.685   0.372  0.1925 -0.1186 -0.3616
 4521W        W 8721  10.421   3.078   9.640 -0.2396 -0.1559 -0.0699
 4522W        W 8722   9.940   5.261   3.133  0.2566 -0.0595  0.0537
 4523W        W 8723   8.615   8.209  12.810  0.3459  0.1623 -0.0149
 4524W        W 8724   5.310   5.612  11.843  0.3985  0.2609 -0.1189
 4525W        W 8725   9.132   7.697   1.895  0.1856 -0.0580 -0.1210
 4526W        W 8726   2.737   8.730   9.539 -0.1168  0.1638 -0.0218
 4527W        W 8727   9.776   4.872  10.941  0.0773 -0.0690 -0.0427
 4528W        W 8728   1.277   5.071   0.018 -0.0212  0.4572  0.3128
 4529W        W 8729   3.261   3.168   1.021  0.1162 -0.0016  0.0928
 4530W        W 8730   1.524   2.922  12.612 -0.0313  0.0331  0.0083
 4531W        W 8731   5.753   7.625  12.321 -0.3390  0.1289  0.3558
 4532W        W 8732   3.244   1.339   2.252 -0.0811  0.0667 -0.0513
 4533W        W 8733   2.224   1.255  11.372  0.0607 -0.3035 -0.0678
 4534W        W 8734   7.034   1.680   4.158  0.0992 -0.0349 -0.1596
 4535W        W 8735   9.251   8.814   3.318 -0.2409 -0.2151  0.1244
 4536W        W 8736   3.483   1.964  10.360 -0.2767 -0.1819  0.1786
 4537W        W 8737   7.224   3.577   3.032 -0.2212 -0.0955 -0.0054
 4538W        W 8738   0.891   2.111   6.112  0.0236 -0.0479  0.1230
 4539W        W 8739   8.681   1.903   2.631 -0.0381  0.0576  0.1465
 4540W        W 8740   6.343   7.105   2.972 -0.0119 -0.2765  0.5048
 4541W        W 8741   3.291   8.808   2.129  0.0299  0.3167  0.1070
 4542W        W 8742   0.296   6.055  12.020 -0.0351 -0.0395 -0.1226
 4543W        W 8743   5.323   0.878   3.105 -0.0646  0.4757 -0.1703
 4544W        W 8744   9.290   6.593   2.835 -0.1427 -0.3434  0.0633
 4545W        W 8745   2.357   6.802  12.742 -0.1793  0.1523  0.1170
 4546W        W 8746   6.945   3.490   9.335  0.2463 -0.1876  0.0315
 4547W        W 8747   6.000   4.524   2.657  0.0636 -0.0555  0.0121
 4548W        W 8748   5.416   9.238  11.379 -0.1488  0.0834 -0.0573
 4549W        W 8749   5.446   4.367  13.140 -0.0198  0.1962  0.1415
 4550W        W 8750   5.521   5.439   9.368 -0.1600  0.2061  0.1044
 4551W        W 8751   6.974   7.081   1.353  0.1158  0.1202 -0.0904
 4552W        W 8752   3.817   5.166  10.253  0.1257 -0.0635 -0.0516
 4553W        W 8753   0.032   7.479  13.496 -0.0360  0.2314 -0.0271
 4554W        W 8754   8.645   7.936   1.825 -0.1322 -0.3677  0.0257
 4555W        W 8755   9.878   4.732   2.250  0.1801  0.1840 -0.0615
 4556W        W 8756   4.633   7.558  11.349  0.0304 -0.2388 -0.1795
 4557W        W 8757   3.665   7.285   1.629 -0.0040  0.0005  0.2674
 4558W        W 8758   2.148   7.072  11.053  0.0219 -0.2563 -0.0346
 4559W        W 8759   3.731   0.008   2.573 -0.0959 -0.2086  0.0325
 4560W        W 8760   7.982   2.747  10.967 -0.1122  0.1692 -0.0313
 4561W        W 8761   7.448   2.003  12.168  0.1945 -0.0785 -0.0730
 4562W        W 8762   8.613   8.794   1.370 -0.1285  0.0204  0.0098
 4563W        W 8763   9.938   8.376  10.013 -0.2850  0.0286 -0.1958
 4564W        W 8764   2.746   6.599   1.361  0.2254 -0.3610  0.2952
 4565W        W 8765   9.357   4.453   4.362  0.1289 -0.0618 -0.1206
 4566W        W 8766   7.267   1.648   9.966 -0.0148  0.0853  0.3592
 4567W        W 8767   9.727   3.503  10.476  0.2966  0.2981 -0.2891
 4568W        W 8768   8.589   4.429   0.099  0.0819  0.0331  0.0438
 4569W        W 8769   2.089   4.783   1.783  0.0540  0.1145  0.2158
 4570W        W 8770   1.616   5.001   3.531 -0.2211 -0.0563  0.0381
 4571W        W 8771   7.529   0.001  12.606 -0.1777  0.2161 -0.3164
 4572W        W 8772   9.413   4.347  10.078 -0.0819 -0.1377  0.1777
 4573W        W 8773   2.608   5.910   3.055  0.0123  0.1963 -0.3075
 4574W        W 8774   3.491   7.768   3.600 -0.2238  0.0270  0.2774
 4575W        W 8775   6.611   1.069   1.749 -0.2132 -0.0878 -0.2547
 4576W        W 8776   0.763   7.470   0.441 -0.1439  0.0906  0.0243
 4577W        W 8777   2.706   0.865  11.719 -0.0884 -0.1118 -0.2302
 4578W        W 8778   2.226   4.630   0.119  0.0713  0.3239  0.0740
 4579W        W 8779   8.423   6.321   3.468  0.0113  0.0472  0.0029
 4580W        W 8780   8.727   8.513   4.532  0.0716 -0.3726  0.2602
 4581W        W 8781   1.994   9.740   2.511  0.2221  0.4569 -0.0814
 4582W        W 8782   6.678   0.056   4.206 -0.1176  0.0373  0.0143
 4583W        W 8783   0.045   0.982  12.784  0.3860 -0.2906  0.2877
 4584W        W 8784   0.440   1.450   2.373  0.1678 -0.1220  0.2057
 4585W        W 8785   4.817   6.495   5.103 -0.1546 -0.0319  0.3123
 4586W        W 8786   4.830   2.272   1.802 -0.1603 -0.1649  0.0215
 4587W        W 8787   8.068   7.415   4.143 -0.0113  0.0297 -0.1194
 4588W        W 8788   5.154   6.743  11.019  0.0178  0.5023 -0.1377
 4589W        W 8789   3.893   7.916  13.523 -0.1464 -0.3312  0.0031
 4590W        W 8790   4.147   9.222   9.987  0.1275  0.1166 -0.3038
 4591W        W 8791   6.863   5.396  10.745  0.0338  0.0077 -0.3844
 4592W        W 8792   0.037   6.745  11.031 -0.0644  0.0381  0.0130
 4593W        W 8793   3.035   4.800  11.931 -0.0300  0.0160 -0.0994
 4594W        W 8794   2.436   8.162  12.410 -0.0613 -0.1941 -0.0114
 4595W        W 8795   1.503   7.037  12.232  0.1225 -0.1136  0.2343
 4596W        W 8796   6.445  10.157   4.661  0.0166  0.2150 -0.0478
 4597W        W 8797   7.086   0.804   1.063 -0.0875 -0.2666  0.5045
 4598W        W 8798   0.353   7.883   3.660  0.2552 -0.3768  0.5426
 4599W        W 8799   8.269   9.401   9.810 -0.0533  0.2565  0.0934
 4600W        W 8800   7.695   8.543   0.460 -0.0320  0.0294  0.0424
 4601W        W 8801   1.363   1.120  10.908 -0.0641  0.1684  0.0097
 4602W        W 8802   2.201   5.868   2.111 -0.1991  0.1689  0.0041
 4603W        W 8803   0.275   6.825   2.951  0.0284  0.0258 -0.0677
 4604W        W 8804   6.550   3.113   9.979  0.0460 -0.0640 -0.2870
 4605W        W 8805   3.242   0.170   9.708 -0.1248 -0.0867 -0.0639
 4606W        W 8806   6.207   9.855   0.860  0.1615  0.1919  0.0020
 4607W        W 8807   2.692   9.242   0.634 -0.1941  0.0739  0.1429
 4608W        W 8808   3.706   0.406   3.471 -0.0472 -0.1515  0.0267
 4609W        W 8809   5.004   4.590  11.477  0.1592  0.0638  0.2012
 4610W        W 8810   4.885   4.222  10.357 -0.2167 -0.1353 -0.3341
 4611W        W 8811   6.613   4.518   9.905  0.0590  0.2004  0.0723
 4612W        W 8812   6.909   1.676   0.550  0.3427  0.2576 -0.0720
 4613W        W 8813   7.093  10.130   3.442  0.2535 -0.2767  0.0318
 4614W        W 8814   6.307   6.593   3.003 -0.4489 -0.1808  0.1667
 4615W        W 8815   5.288   7.088   9.454  0.0168  0.6416 -0.0250
 4616W        W 8816   9.784   8.171   2.024 -0.1444  0.2309 -0.3563
 4617W        W 8817   4.317   9.373   2.456  0.0921 -0.3861  0.1397
 4618W        W 8818   2.547   9.982   9.358  0.0988 -0.4217  0.1789
 4619W        W 8819   3.753   2.174   9.850 -0.0100  0.2330 -0.3301
 4620W        W 8820   9.391   9.923   8.714  0.1183  0.0523  0.1763
 4621W        W 8821   2.874   9.746   1.110  0.0633 -0.3932 -0.1556
 4622W        W 8822   6.886   0.952   5.480 -0.1109 -0.0567  0.1846
 4623W        W 8823   4.596   2.300  11.888  0.0733 -0.0338 -0.1497
 4624W        W 8824   3.966  10.324   4.308 -0.0629 -0.0775  0.0674
 4625W        W 8825   2.906   7.659   3.486  0.0669 -0.1914 -0.2169
 4626W        W 8826   1.658   3.548   2.610 -0.1285  0.0581 -0.2768
 4627W        W 8827   5.460   1.923  11.977 -0.4602 -0.2914  0.1385
 4628W        W 8828   1.034   7.625   9.324 -0.3864 -0.3316 -0.0969
 4629W        W 8829  10.410   7.098   3.892  0.1319 -0.0958  0.0682
 4630W        W 8830   9.133   1.649  10.982  0.1010 -0.3388  0.1864
 4631W        W 8831   2.432   4.564   2.942  0.0204  0.1817 -0.1362
 4632W        W 8832   6.527   7.277   0.597 -0.1218 -0.0656 -0.0565
 4633W        W 8833   4.720   0.435   9.708 -0.0355 -0.1579  0.1220
 4634W        W 8834   6.372   1.902  13.304  0.1448 -0.0056 -0.0768
 4635W        W 8835   6.277   7.092   4.921 -0.2184 -0.3092 -0.0274
 4636W        W 8836   0.858   0.425  12.411  0.0254  0.1507  0.2826
 4637W        W 8837   0.083   1.905  11.867 -0.0271 -0.2215 -0.0914
 4638W        W 8838   2.148   9.755  11.297  0.3948  0.0467  0.0300
 4639W        W 8839   2.990   5.344  10.639 -0.1926  0.2179  0.1418
 4640W        W 8840   1.401   3.200   2.356 -0.0253  0.0069  0.1644
 4641W        W 8841   9.939   8.464  13.225  0.0782 -0.0411  0.1881
 4642W        W 8842   4.281   4.159   1.378  0.0386 -0.0410  0.2110
 4643W        W 8843   9.837   8.601  11.561 -0.1121 -0.0146 -0.1294
 4644W        W 8844   3.412   2.956   0.514 -0.2457 -0.2001  0.1570
 4645W        W 8845   8.469   5.640   2.559 -0.2629 -0.0267  0.2553
 4646W        W 8846   8.919   4.111   5.206 -0.0293  0.0091 -0.2274
 4647W        W 8847   8.000   2.049  10.242  0.0660  0.0683  0.1148
 4648W        W 8848   8.895   9.655   4.149 -0.3653  0.0509  0.4479
 4649W        W 8849   9.955   3.292  10.929 -0.2515  0.1651 -0.3052
 4650W        W 8850   9.032   9.332   0.851  0.1787  0.1329  0.2726
 4651W        W 8851   4.687   0.900  13.085 -0.0697  0.3277 -0.0723
 4652W        W 8852   0.797   7.128  10.662 -0.0961  0.3133  0.2701
 4653W        W 8853   0.320   6.153   9.967 -0.0305  0.0533 -0.2449
 4654W        W 8854   9.021   2.754   3.524 -0.1186 -0.0038  0.0007
 4655W        W 8855   8.824   6.494  11.825  0.3242 -0.1555  0.0928
 4656W        W 8856   7.874   9.234   2.929 -0.0647  0.2081 -0.3529
 4657W        W 8857   8.539   1.617   0.987  0.3533 -0.3650  0.0421
 4658W        W 8858   9.715   6.349   9.537 -0.2078 -0.0913 -0.0105
 4659W        W 8859   4.174   8.421  13.258  0.1354  0.0356 -0.2113
 4660W        W 8860   1.932   7.271  12.082 -0.3117  0.0382  0.4994
 4661W        W 8861   9.996  10.050  12.720  0.2701 -0.0467  0.0226
 4662W        W 8862   4.155   9.464   0.771 -0.0266 -0.4741 -0.1748
 4663W        W 8863   0.841   8.069   5.194  0.1145  0.0367 -0.1204
 4664W        W 8864   7.566   8.683  11.911 -0.0433  0.1496 -0.1724
 4665W        W 8865   3.600   3.098   2.723 -0.0325  0.0199  0.0362
 4666W        W 8866   3.698   4.864   0.586  0.0476  0.1111  0.0650
 4667W        W 8867   8.242   1.175  11.830  0.1388 -0.1796 -0.1898
 4668W        W 8868   9.773   6.044  10.521 -0.3014  0.2072  0.1496
 4669W        W 8869   8.862   1.740   3.166  0.1501 -0.1048 -0.2606
 4670W        W 8870   9.848   0.088   2.246 -0.2536  0.0640 -0.1378
 4671W        W 8871   5.241   7.423   1.104  0.0962 -0.2331  0.1909
 4672W        W 8872   0.023   9.725   3.368  0.0780  0.0781  0.1411
 4673W        W 8873   1.259   3.641   3.157  0.2210  0.0330 -0.0344
 4674W        W 8874  10.425   8.066  11.047 -0.0292  0.3210 -0.0736
 4675W        W 8875   9.433   6.953   0.496  0.2453  0.2150 -0.0324
 4676W        W 8876   0.857   0.335   8.877 -0.0034 -0.1509  0.1555
 4677W        W 8877   9.125   8.685  10.994 -0.0986 -0.1002  0.2729
 4678W        W 8878   5.286   3.521  13.221 -0.3128 -0.0969 -0.0811
 4679W        W 8879   2.364   0.372  12.368  0.0989  0.2588  0.1509
 4680W        W 8880   6.657   2.828  11.008  0.3911  0.0172  0.1434
 4681W        W 8881   7.236   7.072   1.794 -0.3118 -0.0207 -0.2213
 4682W        W 8882   7.383   0.203   9.365  0.1268  0.1652 -0.0931
 4683W        W 8883   8.010   9.222  13.034 -0.1881  0.2785  0.1249
 4684W        W 8884   4.569   8.007   3.867  0.1030 -0.0153 -0.1834
 4685W        W 8885   7.836   7.077   4.987  0.0293 -0.0305 -0.0971
 4686W        W 8886   7.327   3.516  10.590 -0.1109 -0.2362 -0.3205
 4687W        W 8887   2.043   5.949   1.637  0.0373 -0.2472 -0.1074
 4688W        W 8888   9.252   4.069   2.390 -0.3310  0.0241 -0.3236
 4689W        W 8889   7.099   9.025   2.800 -0.0208 -0.0574  0.1502
 4690W        W 8890   3.766   8.256   1.985 -0.0831  0.0059 -0.0380
 4691W        W 8891   3.342   4.205   2.674  0.2127 -0.1400  0.0514
 4692W        W 8892   0.545   7.045   9.136 -0.1280  0.0480  0.2605
 4693W        W 8893   5.702   6.108  13.121  0.1003 -0.1237 -0.0363
 4694W        W 8894   7.832  10.152  13.418 -0.1298 -0.0635 -0.1224
 4695W        W 8895   2.822   9.184   9.334  0.0208  0.1595  0.3259
 4696W        W 8896   0.294   4.841   0.999  0.0276  0.1192 -0.2799
 4697W        W 8897   5.272   6.175  12.758  0.0456  0.2006  0.0052
 4698W        W 8898   3.491   9.643   3.655  0.3106 -0.0475  0.2388
 4699W        W 8899   8.003   6.867  11.601 -0.0712 -0.3723 -0.0225
 4700W        W 8900   0.500   6.186   9.059  0.2026  0.2117  0.2613
 4701W        W 8901   3.208   9.592  12.370  0.1372 -0.3867 -0.1746
 4702W        W 8902   1.878   9.402  13.358 -0.1540  0.0604 -0.1348
 4703W        W 8903  10.344   8.328   2.978 -0.0920  0.1560  0.0343
 4704W        W 8904   7.971   1.157  12.988  0.1907  0.0404  0.2254
 4705W        W 8905   5.837   0.617   1.947  0.1205 -0.2669 -0.0091
 4706W        W 8906   9.888   6.162  12.805  0.0189  0.0336  0.0269
 4707W        W 8907   3.010   9.473  11.482 -0.0947 -0.0809 -0.0043
 4708W        W 8908   1.337   6.163  12.593  0.1256 -0.0206  0.2085
 4709W        W 8909   9.122   6.502  12.767  0.0249  0.1577 -0.0979
 4710W        W 8910   1.351   7.311   1.549 -0.3139 -0.2427 -0.1568
 4711W        W 8911   3.078   7.474  10.708  0.1221  0.1149 -0.2935
 4712W        W 8912   8.435   3.680   3.066  0.1377 -0.0007 -0.1642
 4713W        W 8913   4.968   6.619   0.006 -0.0545  0.1799 -0.2181
 4714W        W 8914   0.134   4.490   1.419 -0.2460 -0.1454 -0.1156
 4715W        W 8915   1.289   0.301   2.672 -0.0017  0.0122  0.1596
 4716W        W 8916   2.571   4.280   0.214 -0.0468 -0.1282  0.1486
 4717W        W 8917  10.228   0.126   3.071 -0.0537 -0.2159 -0.2950
 4718W        W 8918   2.702   4.906   0.199 -0.1391  0.1569 -0.1232
 4719W        W 8919   4.779   6.110  10.566  0.0485 -0.0678  0.1253
 4720W        W 8920   0.340   7.136  10.890 -0.1827 -0.1235 -0.3759
 4721W        W 8921   2.133   7.391  12.517  0.1476 -0.0327 -0.0974
 4722W        W 8922   7.710   5.350   4.610  0.1227  0.3721 -0.3000
 4723W        W 8923   4.658   6.887   3.649 -0.1683  0.2257 -0.1776
 4724W        W 8924   8.480   0.327   2.255  0.1868 -0.0507 -0.2587
 4725W        W 8925   7.972   4.211  11.949 -0.2143 -0.1730  0.1933
 4726W        W 8926   8.456   1.053   4.572  0.1513 -0.2861  0.0765
 4727W        W 8927   4.387   2.191  10.701  0.0622 -0.0266  0.1159
 4728W        W 8928   9.179   3.153  11.081 -0.0074 -0.3214 -0.0165
 4729W        W 8929   4.130   5.610  10.236 -0.1086  0.1086 -0.0057
 4730W        W 8930   5.198   3.643   3.910  0.1999  0.1135 -0.0857
 4731W        W 8931   2.289   6.482   4.557  0.0504 -0.2374  0.1368
 4732W        W 8932   9.805   6.314   8.813  0.2907  0.1340 -0.5161
 4733W        W 8933   8.058   2.782   3.785 -0.3523  0.2399 -0.2386
 4734W        W 8934   5.281   1.614  13.560  0.3111 -0.0944 -0.2473
 4735W        W 8935   5.961   2.992   8.394  0.1437 -0.1111  0.0721
 4736W        W 8936   7.221   2.103   9.566 -0.1843  0.2619  0.1583
 4737W        W 8937   3.147   4.750   2.712 -0.0386 -0.1365  0.0849
 4738W        W 8938   1.278  10.333  11.396 -0.3230  0.4427  0.1342
 4739W        W 8939   9.192   5.610   0.257 -0.0006  0.0179  0.1360
 4740W        W 8940   1.221   4.168   3.296  0.0422  0.3349  0.2689
 4741W        W 8941   0.120   7.595  12.642 -0.0903  0.1144 -0.2287
 4742W        W 8942   0.176   7.813   0.347  0.0219 -0.0049 -0.0647
 4743W        W 8943   8.108   4.433   4.603  0.2811 -0.0398 -0.3340
 4744W        W 8944   6.928   4.401  11.090  0.0197 -0.0165  0.0160
 4745W        W 8945   1.289   1.026  10.426 -0.3136 -0.0788 -0.0998
 4746W        W 8946   2.639   8.051   3.244  0.2808 -0.0988  0.0598
 4747W        W 8947   6.524   3.115   9.056  0.7279 -0.0139 -0.2322
 4748W        W 8948   7.048   7.517   1.133 -0.1451  0.1056  0.2986
 4749W        W 8949   6.789   5.449  11.816 -0.1984 -0.0804  0.0005
 4750W        W 8950   7.576   9.985   0.516  0.2559  0.0446  0.2068
 4751W        W 8951   3.795   2.490   1.250 -0.0378 -0.1303 -0.2253
 4752W        W 8952   5.330   0.545   0.673  0.0058 -0.0342 -0.1466
 4753W        W 8953   5.072   1.978   2.607  0.0339  0.1455 -0.2923
 4754W        W 8954   5.236   4.563   1.992  0.1020 -0.2396  0.1656
 4755W        W 8955   9.098   7.844  11.010 -0.0617  0.1145 -0.2889
 4756W        W 8956  10.361   8.245   9.607 -0.4461  0.2053 -0.0303
 4757W        W 8957   9.869   4.665   0.062 -0.3089  0.0385 -0.3293
 4758W        W 8958   1.189   8.837   2.741 -0.1971 -0.0417  0.3777
 4759W        W 8959  10.121   9.225  11.347 -0.1233 -0.1496 -0.1273
 4760W        W 8960   9.775   7.485   1.491  0.5667 -0.2012 -0.0166
 4761W        W 8961   3.082   3.725   1.293 -0.0929 -0.0228 -0.0373
 4762W        W 8962   4.062   2.447   2.343  0.1835  0.1422  0.0986
 4763W        W 8963   4.642   7.030  12.903  0.1876 -0.1777  0.0571
 4764W        W 8964   7.693   5.035   2.140 -0.0612  0.1618 -0.0183
 4765W        W 8965   4.898   7.297  11.686  0.0985  0.4794  0.0626
 4766W        W 8966   5.946   9.453   0.594  0.0157  0.3058 -0.0456
 4767W        W 8967   1.277   3.167  13.057  0.1031 -0.0352 -0.2172
 4768W        W 8968   0.220   5.925   2.799 -0.2103  0.0713  0.0798
 4769W        W 8969   1.642   0.309  12.087  0.2505 -0.4481 -0.2415
 4770W        W 8970   5.401   3.197   2.597 -0.3031 -0.1323 -0.1588
 4771W        W 8971   0.313   8.120   2.734  0.0077  0.1074  0.1705
 4772W        W 8972   7.509   3.371  13.202 -0.1135  0.0016 -0.1193
 4773W        W 8973   0.291   7.668  11.804  0.0806 -0.0752  0.2354
 4774W        W 8974   2.431   6.420   0.398 -0.3647  0.0294 -0.0957
 4775W        W 8975   9.712   9.799   0.324  0.3258  0.1545  0.0671
 4776W        W 8976   1.253   6.415   9.518  0.1106  0.0181 -0.2687
 4777W        W 8977   8.445   8.231   4.878 -0.1815 -0.2682 -0.1818
 4778W        W 8978   3.612   7.285   2.118 -0.0224 -0.2625  0.2415
 4779W        W 8979   7.139   3.731  12.073 -0.0376 -0.1373 -0.0293
 4780W        W 8980   9.033   0.913  11.310 -0.0181  0.0701  0.6184
 4781W        W 8981   2.728   3.888   1.610  0.0760  0.0581 -0.1441
 4782W        W 8982  10.201   3.949  11.667  0.0599  0.0439  0.1802
 4783W        W 8983   2.074  10.088   1.725 -0.1203 -0.0137  0.2437
 4784W        W 8984   8.324   3.899   1.436  0.1568  0.0410  0.1120
 4785W        W 8985   1.973   8.478   0.800 -0.1537 -0.1290  0.3806
 4786W        W 8986   3.480   2.123   0.978  0.1092  0.0995 -0.3199
 4787W        W 8987   8.313   5.731   3.074  0.1019  0.2065 -0.1491
 4788W        W 8988   4.110   9.013   9.177 -0.2667  0.0629  0.0611
 4789W        W 8989   0.336   3.493   1.900 -0.0837  0.0191 -0.4450
 4790W        W 8990   7.221   5.576   2.418  0.1885 -0.1836  0.0653
 4791W        W 8991   4.353   1.887   3.825  0.0398  0.1721 -0.2803
 4792W        W 8992   5.120   5.583   0.999  0.1261 -0.1727 -0.0643
 4793W        W 8993   6.885   0.362   3.844  0.0412 -0.1084  0.0400
 4794W        W 8994   5.404   1.526  11.654 -0.0821  0.1941 -0.1195
 4795W        W 8995   2.320   5.529   9.502 -0.1269 -0.1040 -0.1511
 4796W        W 8996   7.456   0.036   3.147 -0.2808  0.1476  0.2821
 4797W        W 8997   2.398   9.479   2.961  0.1847  0.0919  0.0579
 4798W        W 8998   6.939   6.929   2.257  0.1324 -0.1060  0.0326
 4799W        W 8999   7.145   1.959   3.401  0.6375  0.1180  0.1937
 4800W        W 9000   3.314   8.333  11.396 -0.1973  0.1300 -0.2800
 4801W        W 9001   3.130   0.653   4.764  0.0332  0.0402  0.2596
 4802W        W 9002   8.936   9.034  12.657 -0.2911 -0.2835 -0.1239
 4803W        W 9003   8.850   2.913   1.797  0.1960 -0.1279 -0.0712
 4804W        W 9004   6.795   1.734  11.885  0.1273  0.1370 -0.0771
 4805W        W 9005   1.350   7.873   2.913 -0.1877  0.3479 -0.1174
 4806W        W 9006   7.130   7.139  12.120  0.1074  0.0116 -0.3043
 4807W        W 9007   0.633   9.651   1.510  0.0598  0.0630 -0.0671
 4808W        W 9008  10.154   0.462  11.071  0.0725  0.1400  0.0020
 4809W        W 9009   9.190   0.076  12.698 -0.1799 -0.3260  0.2174
 4810W        W 9010   6.691   8.443   2.073  0.1203 -0.1847  0.0539
 4811W        W 9011   9.147   9.084   1.934  0.0113 -0.3034  0.0674
 4812W        W 9012   8.189   8.091   0.285 -0.0525  0.0501  0.1497
 4813W        W 9013   6.481   3.404   0.524 -0.2650  0.0126  0.1084
 4814W        W 9014   6.947   1.569   2.370 -0.2930  0.1628 -0.0194
 4815W        W 9015   7.828   9.675  10.962 -0.2064  0.1840 -0.0902
 4816W        W 9016   8.708   7.599   1.493 -0.3409 -0.0285 -0.0798
 4817W        W 9017   4.970   6.308   4.627  0.0813  0.2374 -0.0970
 4818W        W 9018   6.093   1.072   1.093 -0.2213 -0.1319 -0.1511
 4819W        W 9019   6.084   4.861   3.766 -0.2302  0.0177  0.3333
 4820W        W 9020   8.758   1.907   3.930  0.1643 -0.0241  0.0247
 4821W        W 9021   1.849   1.891   5.510  0.0228  0.1308 -0.2719
 4822W        W 9022   1.893   6.589   4.828 -0.0420  0.1633 -0.0819
 4823W        W 9023   1.739   3.536  13.092 -0.1468  0.2955  0.1928
 4824W        W 9024  10.176   6.451   2.761  0.1022  0.3545  0.1973
 4825W        W 9025   8.097   7.040   3.225  0.1224 -0.2216 -0.4010
 4826W        W 9026  10.293   0.978   2.311  0.2016  0.2273  0.3219
 4827W        W 9027   4.394  10.401  12.097 -0.1151 -0.0320 -0.2907
 4828W        W 9028   5.758  10.140  13.441 -0.1549  0.0691  0.0263
 4829W        W 9029   8.434   5.528   9.757 -0.1343 -0.3499  0.3455
 4830W        W 9030   0.778   0.324   3.488 -0.0011 -0.2259  0.0081
 4831W        W 9031   9.083   3.664   1.860 -0.5306 -0.2437  0.1619
 4832W        W 9032   3.546   1.616  12.647  0.0606  0.0000 -0.0776
 4833W        W 9033   2.946   0.519   2.464 -0.3622  0.2575  0.0032
 4834W        W 9034   0.342   5.514   3.522 -0.3241 -0.2987 -0.1122
 4835W        W 9035   4.534   2.924   0.128  0.0432 -0.1890 -0.1121
 4836W        W 9036  10.361   8.733   2.207  0.0660  0.3626  0.1680
 4837W        W 9037   8.984   8.760   4.185  0.2632  0.1516  0.3352
 4838W        W 9038   0.865   3.195   2.259 -0.0822  0.1860 -0.4862
 4839W        W 9039   0.370   5.820  12.798 -0.0598 -0.2326  0.0502
 4840W        W 9040   7.849   8.301   4.905 -0.1425  0.2691  0.2804
 4841W        W 9041   1.347   1.112  11.881  0.2395  0.2528 -0.2154
 4842W        W 9042   0.516   3.842   3.617  0.0310  0.2114 -0.2950
 4843W        W 9043   1.030   6.808   9.268  0.4622 -0.2391 -0.0102
 4844W        W 9044   4.644   8.095   9.138  0.0699  0.0596 -0.0668
 4845W        W 9045   4.992   5.515  11.496  0.1647 -0.4990  0.0348
 4846W        W 9046   4.793   5.550   9.713  0.0231  0.0879  0.0968
 4847W        W 9047   6.220   6.011   5.196 -0.3519 -0.1624  0.0262
 4848W        W 9048   4.192   8.577   9.573  0.0958 -0.0983 -0.2060
 4849W        W 9049   7.026   2.333  10.128 -0.1933  0.3410  0.1622
 4850W        W 9050   7.564   0.415  12.287  0.0020 -0.1147 -0.2469
 4851W        W 9051   4.877   1.238   1.276  0.1418 -0.3732 -0.1366
 4852W        W 9052   0.624  10.363   0.734 -0.0788 -0.0497  0.0996
 4853W        W 9053   8.640   9.381  11.029  0.1015 -0.0767  0.2499
 4854W        W 9054   2.185   7.712   2.040  0.0794 -0.2359 -0.0109
 4855W        W 9055   4.241   2.453   0.123  0.4207  0.2092 -0.0307
 4856W        W 9056   7.414   0.762   2.388  0.0830  0.1927  0.1435
 4857W        W 9057   6.890   5.035  10.010 -0.1036 -0.0317  0.2087
 4858W        W 9058   9.912   7.604  10.356 -0.0190 -0.0460 -0.0698
 4859W        W 9059   3.796  10.145   0.012 -0.0882  0.1736 -0.2090
 4860W        W 9060   9.131   5.895  11.135  0.0403 -0.1050  0.3181
 4861W        W 9061   7.787   6.944   1.373 -0.1191 -0.0483 -0.0076
 4862W        W 9062   7.605   4.885  12.668  0.1118 -0.2273  0.0064
 4863W        W 9063   9.781   2.131   3.360 -0.1494  0.4489 -0.0442
 4864W        W 9064   1.612   4.588   3.825  0.0239  0.0437 -0.1914
 4865W        W 9065   3.314   4.871   3.265 -0.2164 -0.1304 -0.2856
 4866W        W 9066   5.765   9.698   3.621 -0.1347 -0.1479 -0.2018
 4867W        W 9067   4.890   0.228   1.026  0.2626  0.4826 -0.0972
 4868W        W 9068   7.634   7.907   2.341 -0.2077  0.1952 -0.0740
 4869W        W 9069   7.902   6.152   3.664  0.0455  0.1652  0.2524
 4870W        W 9070   4.609   8.456  12.402  0.0911  0.1864  0.2071
 4871W        W 9071   0.691   8.513   3.875  0.4021 -0.2830  0.0214
 4872W        W 9072   7.241   7.574  10.896  0.0252 -0.3044  0.1339
 4873W        W 9073   6.363   6.033   4.609  0.3411 -0.1379 -0.0701
 4874W        W 9074   6.130   4.309  11.589 -0.0911  0.4083 -0.2668
 4875W        W 9075   2.104   8.929  13.520 -0.0283  0.2074 -0.1609
 4876W        W 9076   4.246   6.745  12.805 -0.1807 -0.3182  0.0247
 4877W        W 9077   9.993   3.126  10.060 -0.0611 -0.0950 -0.1482
 4878W        W 9078   3.447   0.459  10.214 -0.1262  0.1476 -0.3924
 4879W        W 9079   1.777   8.002   8.799  0.3717  0.1370 -0.0092
 4880W        W 9080   1.789   1.362  12.098  0.0826 -0.1195  0.0049
 4881W        W 9081   7.821  10.066   4.642  0.0871  0.0043  0.1557
 4882W        W 9082   7.452   4.367  11.090 -0.1071 -0.0766  0.1999
 4883W        W 9083   4.512   8.777   1.806  0.0225  0.0005 -0.1434
 4884W        W 9084   9.918   6.680  12.405  0.0470  0.1134 -0.3413
 4885W        W 9085   9.458   0.433  11.791 -0.0923  0.0947 -0.3108
 4886W        W 9086   5.490   3.262   1.023  0.0560  0.0781  0.3630
 4887W        W 9087  10.189   2.624   9.775 -0.0747  0.0353 -0.1377
 4888W        W 9088   5.304   7.335   3.206 -0.0075  0.1802  0.0352
 4889W        W 9089   3.341   6.014   0.841 -0.2579  0.1350 -0.0369
 4890W        W 9090   3.330   5.474   0.997  0.0047 -0.0219 -0.0440
 4891W        W 9091   8.981   4.191  11.260 -0.0772  0.1322  0.1608
 4892W        W 9092   7.985   4.214   3.587  0.0805 -0.1022  0.1381
 4893W        W 9093   8.256   9.375   3.980  0.0912  0.1010 -0.1759
 4894W        W 9094   3.042   2.415  12.387  0.0038  0.1594  0.1318
 4895W        W 9095   0.978   0.398  10.584  0.1391  0.0075 -0.1800
 4896W        W 9096   9.648   7.587   9.631  0.0085  0.2980 -0.1208
 4897W        W 9097   1.805   1.570  11.496  0.0406  0.3313  0.2327
 4898W        W 9098   9.330   0.226   3.967 -0.1769 -0.3347 -0.1858
 4899W        W 9099   4.718   0.488   9.243  0.0505 -0.1543 -0.0502
 4900W        W 9100   2.903   7.599   2.875 -0.1653  0.1153 -0.1281
 4901W        W 9101   1.045   1.716  11.232  0.2796  0.0684  0.0294
 4902W        W 9102   5.789  10.176   3.855  0.2680 -0.1774  0.3731
 4903W        W 9103   0.664  10.297   8.779  0.2767 -0.3856 -0.3299
 4904W        W 9104   7.544   8.599   4.005  0.2195 -0.1804 -0.2678
 4905W        W 9105   6.972  10.192  11.415  0.2816  0.0488  0.0631
 4906W        W 9106   4.706   1.130   9.955 -0.1726 -0.2593 -0.0311
 4907W        W 9107   7.831   2.465   9.126 -0.2929 -0.3854  0.0710
 4908W        W 9108   8.421   1.639   2.980  0.1279 -0.1867  0.5510
 4909W        W 9109   2.819   2.969   9.891 -0.0404 -0.0199 -0.3339
 4910W        W 9110   3.094   7.892  13.172 -0.2089  0.1616 -0.3198
 4911W        W 9111   5.648   4.729  12.826 -0.4507 -0.0049 -0.1649
 4912W        W 9112   0.535   6.797   0.281 -0.0550  0.3236  0.3601
 4913W        W 9113   0.722   2.683  12.782  0.2978 -0.0193  0.1650
 4914W        W 9114   9.135   1.412  11.815 -0.3580  0.4184  0.1099
 4915W        W 9115   3.996   5.711   0.233 -0.2938 -0.1728 -0.4258
 4916W        W 9116   7.494   7.160  13.101 -0.1381 -0.1419 -0.0359
 4917W        W 9117   9.934   9.810  10.528 -0.0150 -0.1651 -0.0239
 4918W        W 9118   9.536   4.506  11.528  0.0496 -0.0157  0.1474
 4919W        W 9119   3.215   1.951  12.553  0.0967 -0.0867 -0.0384
 4920W        W 9120   5.798   7.748   2.968 -0.0253 -0.2927  0.0661
 4921W        W 9121   5.794   8.780   2.114 -0.1733 -0.0965 -0.0605
 4922W        W 9122   9.538   8.161   2.409  0.2595  0.1796 -0.4977
 4923W        W 9123   3.414   9.141  12.053  0.0460 -0.0473 -0.0834
 4924W        W 9124   7.413   6.769   3.660  0.1149 -0.0310 -0.1184
 4925W        W 9125   8.085   3.358   1.513 -0.1302 -0.2513  0.1484
 4926W        W 9126   4.561   8.104  12.846 -0.0637  0.1677  0.0677
 4927W        W 9127   6.803   3.702   0.317  0.1874  0.0205  0.0090
 4928W        W 9128   4.761   0.105   3.597  0.1330 -0.4619 -0.1679
 4929W        W 9129   4.127   9.228  11.954 -0.1403  0.1628 -0.2363
 4930W        W 9130   0.658   9.447  12.917  0.0047 -0.0022 -0.0480
 4931W        W 9131   0.009   5.684   9.787  0.2489 -0.3645 -0.0390
 4932W        W 9132   6.665   9.542   3.833 -0.1383 -0.0885 -0.0178
 4933W        W 9133  10.227   3.467  12.922  0.0046  0.0073 -0.0410
 4934W        W 9134   3.836   8.252   4.624 -0.1738  0.0246 -0.3452
 4935W        W 9135   5.459   4.099   2.010  0.4671  0.0750 -0.0183
 4936W        W 9136   2.001   8.440   4.532 -0.0122  0.0689 -0.0584
 4937W        W 9137   8.786   6.724   3.117  0.0882  0.1102 -0.2428
 4938W        W 9138   0.216   4.142   2.464  0.0747  0.1898  0.1781
 4939W        W 9139  10.415   2.866   0.602  0.3175 -0.0015  0.0505
 4940W        W 9140   7.487   7.442   1.475  0.0377  0.0421  0.2508
 4941W        W 9141   1.271   9.301  11.409  0.0193 -0.2051  0.0374
 4942W        W 9142   9.989   9.877  10.066 -0.0690 -0.0966  0.2789
 4943W        W 9143   5.665   6.236   4.001 -0.0459 -0.2661 -0.5031
 4944W        W 9144   7.297   9.900  13.018 -0.3011  0.2166  0.2752
 4945W        W 9145  10.201  10.400   0.562 -0.2490 -0.2619 -0.1681
 4946W        W 9146   1.886   4.478   2.118  0.0633 -0.0955  0.2698
 4947W        W 9147   2.085   6.629   0.114 -0.0311 -0.1045 -0.2941
 4948W        W 9148   6.922   6.813   9.990  0.1706  0.3258 -0.1526
 4949W        W 9149   1.881   7.328   4.849 -0.2026 -0.1872  0.0069
 4950W        W 9150   1.321   8.491   3.196  0.1006 -0.0927  0.3022
 4951W        W 9151   1.801   4.281  11.624  0.2745  0.0356 -0.0210
 4952W        W 9152   9.307   3.998   4.184  0.0976  0.1513 -0.3658
 4953W        W 9153   6.789   5.271   3.663  0.2275 -0.0826  0.2089
 4954W        W 9154   8.860   9.468  12.887  0.1315  0.0229  0.2544
 4955W        W 9155   7.643   7.679  11.839  0.3139  0.1301  0.1257
 4956W        W 9156   7.145   0.701   4.661 -0.0769  0.0485 -0.0610
 4957W        W 9157   2.128   5.290  11.812  0.0879  0.0706 -0.1833
 4958W        W 9158   3.665   0.745  11.741  0.0170 -0.1251  0.3275
 4959W        W 9159   6.449   3.911  13.064 -0.2730 -0.1178 -0.1024
 4960W        W 9160   6.400   4.871  12.153  0.0380 -0.2491 -0.0112
 4961W        W 9161  10.210   1.858   3.350  0.1203 -0.0781 -0.0317
 4962W        W 9162   2.354   7.998  13.281 -0.3076  0.0294 -0.3279
 4963W        W 9163   1.036   8.951  11.787 -0.2505 -0.0804  0.0131
 4964W        W 9164   5.751   6.493  11.646 -0.0928  0.1966 -0.0831
 4965W        W 9165   8.975   5.680  11.989 -0.2460  0.2803  0.3354
 4966W        W 9166   1.013  10.432  10.221 -0.1964  0.1286  0.0130
 4967W        W 9167   9.091   7.829   0.527  0.0222 -0.0499 -0.0823
 4968W        W 9168   2.012  10.341   3.062  0.0094 -0.0222 -0.0116
 4969W        W 9169   1.291   0.238   1.585 -0.3267 -0.2578  0.0376
 4970W        W 9170   3.552   6.547   0.892 -0.0970 -0.1018 -0.1278
 4971W        W 9171   7.639   2.764  11.604  0.3899  0.0134  0.0351
 4972W        W 9172   4.273   0.712   2.585 -0.0447  0.0764 -0.3756
 4973W        W 9173   7.863   6.577   3.871 -0.1412  0.0820  0.0532
 4974W        W 9174   9.600   7.682   9.117  0.4133 -0.1890  0.0274
 4975W        W 9175   6.091   2.492   0.135 -0.4058 -0.1130 -0.0651
 4976W        W 9176   6.755   4.308   4.788  0.0032 -0.1064  0.3021
 4977W        W 9177   4.618   6.035   2.149  0.0193  0.1129  0.0397
 4978W        W 9178   4.514   3.763   1.092 -0.0952 -0.1959 -0.0666
 4979W        W 9179   5.729   4.059   8.667 -0.1629 -0.4429 -0.1105
 4980W        W 9180   5.110   5.405   1.448 -0.2462 -0.1093 -0.0093
 4981W        W 9181   1.370   2.900  10.106 -0.0246 -0.3663  0.2252
 4982W        W 9182   3.233   1.460   4.355  0.0626  0.2218 -0.0938
 4983W        W 9183   6.493   8.500   2.541 -0.2978  0.0813 -0.1037
 4984W        W 9184   2.085   9.371  11.014  0.1016  0.0118 -0.1845
 4985W        W 9185   9.617   8.128  11.731 -0.2367 -0.1301  0.1069
 4986W        W 9186   6.002   7.904  12.694 -0.1182  0.2946  0.0158
 4987W        W 9187   7.233   1.625   8.887 -0.0491 -0.1009 -0.0818
 4988W        W 9188   1.468   9.806   0.571  0.1457  0.2032  0.2124
 4989W        W 9189   8.752  10.017  10.975 -0.1404 -0.0894 -0.1474
 4990W        W 9190   3.655   2.640  10.105  0.1244 -0.0568 -0.1339
 4991W        W 9191   3.382   7.396   4.037  0.1475 -0.0049  0.1099
 4992W        W 9192   6.345   2.828   1.475 -0.2688  0.1154  0.0167
 4993W        W 9193   6.976   3.867   9.628 -0.0816  0.1965 -0.2725
 4994W        W 9194   5.276   8.872   4.518  0.1648  0.3231  0.0056
 4995W        W 9195   8.779   5.120   9.726 -0.0590  0.2227 -0.0083
 4996W        W 9196   5.086   0.385   3.093  0.0647 -0.0775 -0.4561
 4997W        W 9197   2.838   9.108   2.744  0.0777  0.0120  0.2811
 4998W        W 9198   5.900   1.701   3.309  0.1537  0.0552  0.0182
 4999W        W 9199   7.334   6.722  12.935 -0.1999 -0.1898  0.0083
 5000W        W 9200   6.034   5.496   2.933 -0.4166  0.1240 -0.1555
 5001W        W 9201  10.194   1.311   1.900 -0.0576 -0.0617 -0.0658
 5002W        W 9202   0.575   9.727   0.127  0.0458  0.0089  0.0164
 5003W        W 9203   9.846   8.876  10.218 -0.0973 -0.0538  0.5047
 5004W        W 9204   7.864   0.706  13.419 -0.2280 -0.0184  0.0633
 5005W        W 9205   2.672   7.285  10.441 -0.1244 -0.0824  0.1099
 5006W        W 9206   8.795   6.554   2.669 -0.1417 -0.2192 -0.1384
 5007W        W 9207   1.521   6.009  10.284  0.0870 -0.0204 -0.1548
 5008W        W 9208   3.663   3.593  11.858  0.1928  0.1373  0.0682
 5009W        W 9209   8.089   6.425   5.293 -0.2034  0.0351 -0.0214
 5010W        W 9210   7.498   0.449  12.809  0.0486 -0.0801  0.1963
 5011W        W 9211   7.898   1.041   3.127  0.1300  0.1458 -0.2935
 5012W        W 9212   8.970   4.666  11.406 -0.1248 -0.1563 -0.0910
 5013W        W 9213   7.068   0.749   0.410  0.3469 -0.0597  0.3124
 5014W        W 9214   3.450   2.598   1.583 -0.1465  0.0612 -0.0673
 5015W        W 9215   4.843  10.113   3.876 -0.1157 -0.3401 -0.4236
 5016W        W 9216   6.733   8.331  12.871 -0.1005 -0.0368  0.0967
 5017W        W 9217   5.113   3.864  11.823  0.0033  0.0093  0.2194
 5018W        W 9218   2.384   5.902  12.045 -0.1194  0.0438 -0.0228
 5019W        W 9219   3.169   4.360  11.641  0.0020 -0.0189 -0.2106
 5020W        W 9220   4.996   6.898  11.980  0.1241  0.1528  0.1597
 5021W        W 9221   5.515  10.325   4.295 -0.1407 -0.0512  0.0331
 5022W        W 9222   5.343   4.221   0.047  0.0805 -0.2295  0.0610
 5023W        W 9223   0.439   1.864   2.019  0.0262 -0.0807 -0.3294
 5024W        W 9224   6.118   7.260  13.339  0.1820  0.1838 -0.1346
 5025W        W 9225   6.386   0.002  10.666  0.2453  0.1915 -0.0474
 5026W        W 9226   4.049   0.462  11.565  0.4484 -0.0249 -0.0722
 5027W        W 9227   6.851   0.828  11.095  0.0955  0.0850 -0.0780
 5028W        W 9228   8.937   0.818   0.644 -0.3993  0.2305 -0.0399
 5029W        W 9229   1.936  10.321  13.577  0.0763 -0.0374  0.0764
 5030W        W 9230   2.813   0.296  12.079 -0.0827 -0.0220 -0.0766
 5031W        W 9231   1.746   8.424   3.543  0.0151  0.0263 -0.0720
 5032W        W 9232   9.210  10.030   3.883 -0.1383 -0.0791  0.2809
 5033W        W 9233   7.783   2.367   3.736  0.1032 -0.0379 -0.0478
 5034W        W 9234   4.529   9.824   4.319  0.1664 -0.2814  0.0444
 5035W        W 9235   6.563   5.359  10.180  0.1732 -0.0019 -0.2159
 5036W        W 9236   8.287   0.532   0.258  0.1822 -0.0116  0.1904
 5037W        W 9237   6.471   6.366   1.121 -0.3807  0.0879  0.0658
 5038W        W 9238   4.125   8.158   2.989 -0.2339 -0.1868  0.2080
 5039W        W 9239   7.335   9.430   1.552 -0.1645 -0.2420  0.0317
 5040W        W 9240   9.541   6.947  10.824 -0.1181  0.0766  0.5144
 5041W        W 9241   6.156   4.851   1.356  0.0187 -0.0244  0.0282
 5042W        W 9242   6.194   3.041  11.907 -0.0676  0.2966 -0.3434
 5043W        W 9243   4.260   6.028  11.247 -0.0875  0.0201  0.3609
 5044W        W 9244   1.969   7.524  11.017 -0.2199 -0.1297  0.2401
 5045W        W 9245   1.883   6.812   2.168 -0.2291 -0.1735 -0.2555
 5046W        W 9246   0.271   8.907   3.751 -0.1127 -0.1367 -0.0512
 5047W        W 9247   5.051   2.076  12.732  0.3795 -0.0939 -0.2416
 5048W        W 9248   5.631  10.327  10.251  0.2772  0.0135 -0.0448
 5049W        W 9249   2.399   3.269  11.006 -0.1531  0.0977 -0.0295
 5050W        W 9250  10.277   9.951   1.751 -0.4554  0.0473  0.0049
 5051W        W 9251   8.015   4.471   4.086 -0.0097  0.0184 -0.2034
 5052W        W 9252   7.305   5.133   4.886  0.0110  0.5066 -0.0922
 5053W        W 9253   1.788   5.333  12.134 -0.0401  0.0138  0.3522
 5054W        W 9254   5.125   0.497  12.489 -0.0894  0.2236  0.2094
 5055W        W 9255   7.853   4.867  10.772 -0.2287  0.2054  0.0724
 5056W        W 9256   2.018   8.081   0.032 -0.0217  0.1672 -0.0968
 5057W        W 9257   7.359   0.831   2.917  0.3128  0.1704  0.2937
 5058W        W 9258   7.829   3.560   4.396 -0.4731 -0.0942 -0.0722
 5059W        W 9259   7.362   6.089  11.696  0.1218  0.0848  0.0939
 5060W        W 9260   6.465   4.933   3.437  0.0007  0.1183  0.0598
 5061W        W 9261   4.503   1.353  12.548  0.2746  0.0783 -0.0459
 5062W        W 9262   0.462   4.310   4.061 -0.0332  0.1054  0.1204
 5063W        W 9263   0.149   6.331   1.618  0.1674  0.0476 -0.0390
 5064W        W 9264   1.577   9.775   9.634 -0.0182  0.1383 -0.2462
 5065W        W 9265   7.524   9.108   4.282  0.5282 -0.2494  0.3630
 5066W        W 9266   3.362   5.482  12.148 -0.0274 -0.1335 -0.0132
 5067W        W 9267   8.152   8.205   0.818 -0.1056 -0.1369 -0.0803
 5068W        W 9268   2.543   8.534   9.050 -0.3670 -0.0096 -0.1267
 5069W        W 9269   9.053   8.762   0.908  0.0597 -0.3802  0.2590
 5070W        W 9270  10.243   6.599  12.771  0.0434  0.3936 -0.0464
 5071W        W 9271   2.423   5.579  12.712  0.0189  0.1566  0.0139
 5072W        W 9272   4.254   5.669   9.133  0.0054 -0.2594  0.1093
 5073W        W 9273   0.297   4.885   9.467 -0.1984 -0.2994 -0.0123
 5074W        W 9274   4.002   7.264  13.324  0.3047 -0.1645 -0.1247
 5075W        W 9275   9.034   5.347   3.398 -0.2477 -0.0603  0.1868
 5076W        W 9276   1.191   3.453  11.819 -0.0763  0.2415 -0.1746
 5077W        W 9277   5.207   8.427  10.576 -0.0051  0.0204 -0.3612
 5078W        W 9278   0.039   6.219  11.136 -0.2942 -0.3345 -0.0102
 5079W        W 9279   4.253   2.343   2.895 -0.0422 -0.4936  0.2559
 5080W        W 9280   1.461   9.418   3.187  0.0463  0.2225  0.0949
 5081W        W 9281   8.451   9.044   2.179  0.1600  0.0660  0.2856
 5082W        W 9282  10.375  10.214   9.849  0.1007 -0.1673  0.5498
 5083W        W 9283   8.441   2.739   2.133  0.1403  0.0614  0.0495
 5084W        W 9284   2.911   7.634  11.217 -0.1164  0.0180  0.1606
 5085W        W 9285   4.888   5.505   3.368  0.0010 -0.0368  0.0707
 5086W        W 9286   9.666   5.335   1.519 -0.2877  0.2578 -0.3225
 5087W        W 9287   7.623   1.968   3.399 -0.0448 -0.3069  0.2312
 5088W        W 9288   7.293   2.685  10.733  0.3617  0.3528  0.0505
 5089W        W 9289   3.277   2.647   0.111 -0.0835  0.1518  0.0532
 5090W        W 9290   2.228   2.158  12.110  0.0479  0.1532  0.1125
 5091W        W 9291   2.493  10.229   3.195  0.0925 -0.1708 -0.2250
 5092W        W 9292   7.191   5.082   2.283 -0.1466 -0.1014 -0.4388
 5093W        W 9293   6.138   6.397   2.023  0.1764  0.0166  0.0851
 5094W        W 9294   6.020   0.277   2.988  0.2706 -0.0839 -0.1442
 5095W        W 9295   6.649   3.304   2.871 -0.0155  0.1419 -0.1924
 5096W        W 9296   4.435   9.024  13.462 -0.5073  0.2327 -0.2974
 5097W        W 9297   5.622   9.361  12.407  0.1439  0.1711  0.2119
 5098W        W 9298   5.582   5.816   0.701 -0.1144 -0.0047  0.3259
 5099W        W 9299   1.850   8.512   3.031 -0.0700  0.1043  0.0160
 5100W        W 9300   3.959   0.124   0.795 -0.1127  0.1206 -0.2914
 5101W        W 9301   4.849  10.255  11.335  0.1369 -0.0166  0.1215
 5102W        W 9302   0.304   8.424   0.796 -0.0899 -0.0954 -0.0929
 5103W        W 9303   7.018   6.155   5.582  0.2204  0.0725 -0.2359
 5104W        W 9304   2.361  10.071   2.130 -0.0127  0.1395 -0.2906
 5105W        W 9305   2.924   9.720   0.586  0.0596  0.2379  0.1057
 5106W        W 9306   4.583   1.411  10.799  0.0410 -0.0325 -0.1125
 5107W        W 9307   2.890   9.122   2.243 -0.0932 -0.1459  0.2483
 5108W        W 9308   6.174   6.727   9.665  0.0152  0.1112  0.1850
 5109W        W 9309   0.913   8.475   9.713 -0.0245  0.1052  0.1044
 5110W        W 9310   6.883   2.999  12.788  0.1760 -0.1885  0.1526
 5111W        W 9311   4.106   2.356  11.063 -0.1603 -0.1459 -0.2539
 5112W        W 9312   4.411   7.259   3.293  0.1117  0.1484 -0.0328
 5113W        W 9313  10.373   1.629   2.299 -0.0416  0.1065  0.0727
 5114W        W 9314   9.036   2.102   3.511 -0.0740 -0.1731  0.0729
 5115W        W 9315   7.812   9.215   1.592  0.2185 -0.1359  0.1521
 5116W        W 9316   9.825   0.028   9.863 -0.0909 -0.1521  0.0134
 5117W        W 9317   2.997   0.069   3.466 -0.1740  0.4379 -0.0844
 5118W        W 9318   5.754   5.588   0.311  0.4658  0.4325  0.1213
 5119W        W 9319   7.255   4.062   1.307 -0.0812  0.0943  0.1273
 5120W        W 9320  10.420   6.130  12.925 -0.2309 -0.4721  0.1075
 5121W        W 9321   0.714   4.650   0.620 -0.0645  0.0428  0.0532
 5122W        W 9322   2.476   9.105  10.361  0.2632  0.0351 -0.1061
 5123W        W 9323   5.013   7.296  10.326  0.0190  0.1397 -0.2539
 5124W        W 9324   3.155   5.724  10.981  0.0118 -0.1541  0.1161
 5125W        W 9325   0.969   3.040   1.332 -0.3682 -0.1050  0.0768
 5126W        W 9326   2.935   0.738   3.874  0.1530 -0.0953  0.4215
 5127W        W 9327   5.009   2.335   0.781  0.0550 -0.0886 -0.1609
 5128W        W 9328   2.233   5.737   3.952  0.0460  0.3059  0.0322
 5129W        W 9329   4.430   6.920   9.827  0.0557 -0.0064 -0.4553
 5130W        W 9330   3.109   6.322   1.068  0.1254  0.2238  0.1224
 5131W        W 9331   1.456   8.177  13.485  0.2361 -0.0324  0.0059
 5132W        W 9332   2.849   7.857  12.181 -0.0968  0.4028  0.0100
 5133W        W 9333  10.133   2.578  10.312 -0.0394  0.1141  0.0045
 5134W        W 9334   8.753   3.374  10.220  0.1125 -0.2455  0.2375
 5135W        W 9335   1.053   7.995  11.088 -0.1914 -0.3176 -0.1349
 5136W        W 9336   3.047   1.429  12.503 -0.1618  0.2159 -0.1389
 5137W        W 9337   4.327   1.010  10.315  0.1041 -0.0228 -0.2100
 5138W        W 9338   6.671   4.663  13.368 -0.1357  0.1431 -0.0638
 5139W        W 9339  10.368   2.364   3.404  0.0639  0.0927 -0.4009
 5140W        W 9340   6.872   2.371  10.666  0.2176  0.1940  0.1884
 5141W        W 9341   3.935   9.498  11.503 -0.1713  0.0162  0.1710
 5142W        W 9342   9.488   8.544  10.414  0.2028  0.0980 -0.1092
 5143W        W 9343   2.239   8.194   3.647 -0.0652  0.2801  0.2422
 5144W        W 9344   2.471   0.436  11.676  0.1051  0.0832  0.1237
 5145W        W 9345   8.006   2.434   4.698 -0.0792 -0.0727  0.0505
 5146W        W 9346   3.912   8.820  10.766 -0.2450  0.0317  0.1178
 5147W        W 9347   9.290   5.542   4.315  0.1540  0.2972 -0.0468
 5148W        W 9348   7.163   1.047  10.111 -0.3072  0.0170 -0.4586
 5149W        W 9349   9.361   4.148  10.940  0.3052  0.1561  0.2967
 5150W        W 9350   6.339   5.598  11.051 -0.2383 -0.0952 -0.0833
 5151W        W 9351   4.705   6.739  12.376 -0.2452 -0.2733 -0.0995
 5152W        W 9352   5.160   1.147   2.287  0.0913  0.2406  0.0462
 5153W        W 9353   2.475   1.106   1.112  0.0111 -0.2176 -0.1345
 5154W        W 9354   2.836   5.741   1.081 -0.1661 -0.1779 -0.2110
 5155W        W 9355   1.753   2.862   3.135  0.2365 -0.2092  0.4480
 5156W        W 9356   6.606   8.160   0.387 -0.0082 -0.1765  0.4322
 5157W        W 9357   6.982   5.891   2.089  0.1399 -0.0081  0.4362
 5158W        W 9358   3.169   6.351  12.099 -0.0477  0.0267 -0.1227
 5159W        W 9359   4.389   9.733   9.953  0.1208  0.2600 -0.0314
 5160W        W 9360   7.281   7.631  12.892  0.0795 -0.4045 -0.0754
 5161W        W 9361   9.713   9.241   0.184  0.2214 -0.1664  0.1972
 5162W        W 9362   3.536  10.082   3.955 -0.4307  0.1708  0.2159
 5163W        W 9363  10.160  10.138   2.220 -0.0237  0.3465 -0.1776
 5164W        W 9364   2.782   8.533   2.242  0.0254 -0.3361 -0.1372
 5165W        W 9365   3.546   7.498   3.152 -0.0717 -0.2698  0.0160
 5166W        W 9366   3.734   2.402  10.641  0.2624  0.0734 -0.2048
 5167W        W 9367   2.461   7.559   0.506 -0.2112 -0.1090 -0.0109
 5168W        W 9368  10.200   8.156   4.707 -0.0189 -0.0202 -0.0899
 5169W        W 9369   9.891   5.831   3.688 -0.1676 -0.0006 -0.2395
 5170W        W 9370   9.721   9.716   3.001 -0.0191 -0.0000  0.0998
 5171W        W 9371   7.641   3.799  13.467  0.0279  0.2214  0.1235
 5172W        W 9372   6.328   0.612   1.138 -0.1191 -0.1245 -0.1323
 5173W        W 9373   6.882   7.707   9.410  0.1038 -0.0862  0.0914
 5174W        W 9374   3.432   5.662  10.597 -0.0243  0.0103 -0.0664
 5175W        W 9375   1.379   9.923  12.809 -0.1489 -0.0110  0.0972
 5176W        W 9376   3.185   6.865   1.135 -0.0392  0.0094 -0.2423
 5177W        W 9377   7.677   1.096  11.166  0.1285 -0.1628  0.2449
 5178W        W 9378   4.507   2.960   1.379  0.0826  0.3132  0.0718
 5179W        W 9379   1.899   9.893   0.281 -0.1201 -0.0011 -0.2715
 5180W        W 9380   5.389   5.124  12.669  0.0206 -0.3301  0.0808
 5181W        W 9381   2.563   0.596  13.453  0.0660  0.1897 -0.1098
 5182W        W 9382   5.912   7.893   2.493 -0.2485 -0.2475 -0.0174
 5183W        W 9383   9.543   6.200   3.158  0.2912 -0.0709 -0.1349
 5184W        W 9384   4.197   1.366   3.886  0.0713 -0.3677 -0.0291
 5185W        W 9385   8.204   4.472   1.086  0.2186 -0.1751 -0.2231
 5186W        W 9386   4.465   4.054   2.500 -0.0586  0.2405  0.0678
 5187W        W 9387   4.678   5.830   0.160  0.1008 -0.1048 -0.0459
 5188W        W 9388   2.404   7.832   9.231 -0.0624 -0.2591  0.0500
 5189W        W 9389   4.342   1.522   9.944  0.0654  0.0532  0.0909
 5190W        W 9390   8.825   4.383   3.761 -0.1447  0.1052 -0.1614
 5191W        W 9391   0.614   8.736   1.849  0.0125  0.0273 -0.0124
 5192W        W 9392   2.958   3.859   2.855 -0.0081  0.0841 -0.3693
 5193W        W 9393   4.183   1.783   2.219  0.0919 -0.1832  0.0212
 5194W        W 9394   5.105   1.171  10.936 -0.1018  0.0201 -0.0719
 5195W        W 9395   3.515   1.972   0.488 -0.0059 -0.0837  0.1586
 5196W        W 9396  10.313   0.253   3.938 -0.0544  0.3792 -0.1127
 5197W        W 9397   1.220   3.721  12.314  0.0671 -0.2350  0.0148
 5198W        W 9398   1.625   8.864  12.351 -0.0051  0.0476 -0.1191
 5199W        W 9399   2.092   0.127   0.934 -0.1473  0.2276  0.0417
 5200W        W 9400   0.551   3.450  11.641  0.4255 -0.0427 -0.1746
 5201W        W 9401   9.884   5.508   2.708  0.3953  0.0450  0.2972
 5202W        W 9402   9.194   1.216   4.017 -0.0665 -0.2031 -0.0876
 5203W        W 9403   9.367   5.896  12.924 -0.0775 -0.0321 -0.1955
 5204W        W 9404   4.015   5.439  13.389  0.1561  0.2398  0.3897
 5205W        W 9405   4.074   2.149  11.585  0.0176 -0.1525 -0.3938
 5206W        W 9406   9.758   3.930   2.607  0.2276 -0.3305 -0.1627
 5207W        W 9407   8.825   0.340   4.093  0.0247 -0.0626  0.1148
 5208W        W 9408   4.806   2.508   0.349 -0.0238 -0.1022 -0.0044
 5209W        W 9409   5.387   3.945   2.791  0.1057 -0.0174 -0.0103
 5210W        W 9410   7.187   5.507   4.534  0.0781 -0.4004 -0.0274
 5211W        W 9411   1.000   0.661   2.364  0.2511  0.3445  0.0325
 5212W        W 9412   9.464   8.351   3.135 -0.2517 -0.1722 -0.0895
 5213W        W 9413   8.105   6.612   0.066  0.1467 -0.0137  0.3261
 5214W        W 9414   3.552   6.709   4.374  0.1017  0.0183 -0.2126
 5215W        W 9415   3.514   1.304  11.213 -0.2369  0.2250  0.0236
 5216W        W 9416   3.419   8.557   9.483  0.0612 -0.4933  0.2174
 5217W        W 9417   6.605   8.139  13.425 -0.2521 -0.0517 -0.0669
 5218W        W 9418  10.289   1.160   2.969  0.2218 -0.0936 -0.1580
 5219W        W 9419   4.872   5.195   0.191 -0.0003 -0.1441  0.0914
 5220W        W 9420   6.167   5.847  13.045  0.1420  0.2890 -0.2586
 5221W        W 9421   7.247   2.490   2.014 -0.0954 -0.0250 -0.0109
 5222W        W 9422   8.703   9.511  10.526  0.1761  0.1450 -0.0797
 5223W        W 9423   5.903   4.482   4.690  0.0234 -0.2331  0.0245
 5224W        W 9424   6.296   5.355   3.741 -0.1664 -0.0504 -0.0483
 5225W        W 9425   9.922   5.792   2.233 -0.3104 -0.4562 -0.1220
 5226W        W 9426   2.561   4.039   2.073 -0.1287 -0.2940 -0.0344
 5227W        W 9427   7.349   0.359  13.428  0.2138 -0.2552 -0.0248
 5228W        W 9428   1.287   4.698   2.177 -0.0255 -0.2477  0.0502
 5229W        W 9429   9.450   4.490   0.157 -0.1253  0.1775  0.1249
 5230W        W 9430   6.178   8.916  11.751 -0.2122 -0.0496  0.0100
 5231W        W 9431   1.863   9.708  11.976 -0.0205 -0.0482 -0.0404
 5232W        W 9432   6.421   6.814   2.070  0.1584 -0.1927  0.3367
 5233W        W 9433   6.592   8.008   2.593 -0.0226 -0.1807  0.4093
 5234W        W 9434   9.619  10.278  10.810  0.1778 -0.0846  0.1547
 5235W        W 9435   7.489   3.544   1.425  0.0151 -0.0931 -0.0147
 5236W        W 9436   3.544   8.276  12.553 -0.0920  0.0681 -0.0238
 5237W        W 9437   1.961   5.315   0.829  0.0255 -0.0050  0.0725
 5238W        W 9438   7.140   2.813  12.343 -0.0830 -0.1946  0.0775
 5239W        W 9439   7.206   6.146   2.879  0.3995  0.0539 -0.3555
 5240W        W 9440   4.502  10.153   9.698  0.2286 -0.2613 -0.2064
 5241W        W 9441   9.645   0.587   3.581  0.1083 -0.1767  0.0959
 5242W        W 9442   7.846   3.512   1.055 -0.0573 -0.1116 -0.1391
 5243W        W 9443   3.311   0.762   8.874  0.0995  0.0216  0.1215
 5244W        W 9444   4.453   0.751   4.753 -0.0785 -0.0282  0.1528
 5245W        W 9445   6.713   7.972   5.256 -0.0336  0.0297  0.0305
 5246W        W 9446   9.285   1.173  10.828 -0.1974 -0.4532 -0.2403
 5247W        W 9447   0.411   0.507   1.451 -0.3044  0.1399  0.0890
 5248W        W 9448   0.977   6.593  12.866 -0.3515  0.2725 -0.1028
 5249W        W 9449   1.692   4.265  10.691  0.0125 -0.0645  0.0394
 5250W        W 9450   4.279   1.046  10.849  0.0682  0.2041  0.0020
 5251W        W 9451   8.586   9.901  13.168 -0.0675  0.0943 -0.0028
 5252W        W 9452   6.319   5.079  11.115  0.1917  0.2042  0.3269
 5253W        W 9453   5.758   3.153   2.929 -0.0473  0.1499 -0.0224
 5254W        W 9454   8.807   0.594   9.670 -0.0494  0.1157 -0.2977
 5255W        W 9455   5.029   0.660   1.360  0.1499  0.1255 -0.0423
 5256W        W 9456   2.609   7.832   3.849  0.1251  0.0384 -0.1873
 5257W        W 9457   0.318   2.695   9.650  0.2349  0.0925  0.2605
 5258W        W 9458   7.059   8.051   0.120 -0.1195  0.1705  0.0122
 5259W        W 9459   1.902   9.281   1.658 -0.1264 -0.2323  0.1913
 5260W        W 9460   4.052   9.647  11.026 -0.0661 -0.1620  0.0913
 5261W        W 9461   3.589   9.619   4.168 -0.1006  0.1072 -0.1697
 5262W        W 9462   8.354   1.948   4.217 -0.2268  0.2166  0.0211
 5263W        W 9463   7.790   5.355   1.057  0.1997  0.0426  0.2662
 5264W        W 9464   2.063   6.594   3.001 -0.0461 -0.0962  0.1902
 5265W        W 9465   5.721   0.498   9.379  0.0672 -0.0696  0.0634
 5266W        W 9466   6.807   2.772   3.547  0.1018  0.0020 -0.2155
 5267W        W 9467   0.977   6.226   9.143 -0.1302 -0.4302  0.1459
 5268W        W 9468   0.858   2.479  11.982  0.2461  0.2177  0.2403
 5269W        W 9469   0.235   9.853   1.301  0.0740 -0.1731  0.3192
 5270W        W 9470   6.990   5.983   8.570 -0.1817  0.0997  0.2784
 5271W        W 9471   0.892   8.292   1.630 -0.3465  0.2456  0.2521
 5272W        W 9472   2.922   0.092   4.573  0.2951 -0.4137  0.2152
 5273W        W 9473   5.610   6.141   3.546  0.0312  0.1322  0.1945
 5274W        W 9474   3.860   0.049   3.862 -0.1952 -0.1365 -0.1993
 5275W        W 9475   9.521   3.421   1.221  0.1045  0.1483  0.2725
 5276W        W 9476   7.538   7.147  11.743  0.1895 -0.1222  0.0021
 5277W        W 9477   8.155   7.792  10.619  0.4287 -0.0269  0.0129
 5278W        W 9478   4.601   9.144  12.064  0.1470  0.3786  0.1536
 5279W        W 9479   0.964   3.754  11.530  0.0515 -0.1342  0.0453
 5280W        W 9480  10.282  10.192  10.391 -0.0541  0.5555  0.1610
 5281W        W 9481   5.910   4.904  10.284  0.2425  0.0042 -0.0658
 5282W        W 9482   0.462   5.608  11.814  0.2429  0.1144 -0.2001
 5283W        W 9483   5.909   8.310  10.192 -0.0516 -0.2066  0.0556
 5284W        W 9484   4.975   4.127   1.846 -0.1918  0.0906 -0.0307
 5285W        W 9485   7.252   7.765  10.451  0.2454 -0.3319  0.1332
 5286W        W 9486   7.130   9.617   3.676  0.1380 -0.4283 -0.1180
 5287W        W 9487   9.439   9.626  13.550 -0.0091  0.2983  0.0216
 5288W        W 9488   4.461   9.859   4.914  0.0833  0.0010  0.0753
 5289W        W 9489   5.227   3.039  12.903  0.1177 -0.1829  0.1323
 5290W        W 9490   7.377   6.933   0.479 -0.0896 -0.1129 -0.4600
 5291W        W 9491   5.723   8.718   3.610  0.0382  0.0352  0.2247
 5292W        W 9492   1.563   6.933   4.878 -0.2999  0.0291 -0.2144
 5293W        W 9493   6.765   6.456   2.170  0.2298 -0.0456  0.2088
 5294W        W 9494   6.802   7.763  12.200  0.3747 -0.2363 -0.0172
 5295W        W 9495   9.905   1.847   1.958  0.3323 -0.0114 -0.1135
 5296W        W 9496   5.666   1.415  10.171 -0.1525 -0.0235 -0.3671
 5297W        W 9497   6.812   5.686  12.662 -0.1920 -0.0202  0.0808
 5298W        W 9498   9.688   8.053  13.348  0.0108 -0.2569  0.2640
 5299W        W 9499   5.025   4.922   3.930  0.1108  0.0586 -0.1419
 5300W        W 9500   8.888   6.891  13.092 -0.2165 -0.2940 -0.0650
 5301W        W 9501   9.042   3.464  10.662  0.0797 -0.1654 -0.1765
 5302W        W 9502   3.879   9.027  11.635  0.0704 -0.2004 -0.2115
 5303W        W 9503   5.977   1.236   8.869  0.0751 -0.2559  0.1364
 5304W        W 9504   2.312   8.368   4.173 -0.2862 -0.3479  0.1838
 5305W        W 9505   0.007   0.907   3.392 -0.3647  0.0212 -0.1699
 5306W        W 9506   5.836   1.434   4.077  0.1431  0.0059  0.0676
 5307W        W 9507   8.558   6.036   4.275 -0.0260  0.0211  0.2011
 5308W        W 9508   8.476   9.820  11.725 -0.0175 -0.1376  0.2174
 5309W        W 9509   7.806   7.150   1.788 -0.0082  0.1963 -0.0691
 5310W        W 9510   9.718   4.099   9.641 -0.0813  0.1950 -0.3449
 5311W        W 9511   4.218   5.264  11.780 -0.0034 -0.1723  0.2023
 5312W        W 9512   7.101   9.300   0.924  0.0728  0.1308  0.2484
 5313W        W 9513   1.136   2.766   8.182  0.0810 -0.0161 -0.1359
 5314W        W 9514   0.193   5.002   2.803 -0.1470  0.0221  0.1758
 5315W        W 9515   2.375   7.162   2.168  0.0729  0.1872 -0.4345
 5316W        W 9516   1.140   8.551  10.950  0.1276  0.2304  0.1148
 5317W        W 9517   8.923   2.166   4.306 -0.0383 -0.2678 -0.1744
 5318W        W 9518   6.265   0.796  10.629  0.1835 -0.0827  0.2305
 5319W        W 9519   5.838   7.761   0.424 -0.2205  0.0888  0.2641
 5320W        W 9520   7.155  10.191  10.941 -0.1277 -0.0949  0.2242
 5321W        W 9521   2.938  10.301  10.626 -0.2072  0.0741  0.0053
 5322W        W 9522   7.419   6.711  12.419 -0.1717  0.3486  0.2079
 5323W        W 9523   8.756   2.692  11.807 -0.1099 -0.0389  0.1400
 5324W        W 9524   4.915   2.538  11.433  0.2932 -0.0242 -0.3756
 5325W        W 9525   3.779   0.730   2.927 -0.0721 -0.0003  0.3166
 5326W        W 9526   0.791   0.239   1.607  0.1827  0.0301 -0.0518
 5327W        W 9527   2.678   8.020   2.115  0.2368 -0.2546 -0.3364
 5328W        W 9528   9.260   8.985  10.231  0.1152  0.0490  0.0134
 5329W        W 9529   5.592   8.649  10.388 -0.0501 -0.3215  0.1824
 5330W        W 9530   4.606   7.213   4.563  0.1859 -0.1511  0.0215
 5331W        W 9531   7.589   1.841   1.759 -0.0324  0.1044 -0.0269
 5332W        W 9532   2.199   6.389   9.330 -0.0109  0.1335  0.3796
 5333W        W 9533   1.888   8.946   3.486 -0.1656  0.0622  0.4785
 5334W        W 9534   2.833   1.973  11.029  0.2190  0.0841 -0.1122
 5335W        W 9535   7.154   5.977   9.338 -0.3109  0.3242  0.1665
 5336W        W 9536   3.524   7.427   2.635 -0.1855  0.1975 -0.0361
 5337W        W 9537   4.219   8.030   2.041  0.2595  0.1120 -0.0806
 5338W        W 9538   5.132   0.082   0.598 -0.1986  0.1088 -0.0367
 5339W        W 9539   1.477   2.318  12.679  0.0701  0.3162 -0.1810
 5340W        W 9540   9.229   0.659   1.020  0.2483 -0.0505 -0.0023
 5341W        W 9541   8.353   3.504   0.618  0.2424  0.0016 -0.0447
 5342W        W 9542   7.647   0.675   5.471 -0.0393  0.2017 -0.0578
 5343W        W 9543   7.697   5.439   0.208  0.0779  0.0809  0.0997
 5344W        W 9544   0.384   1.904  12.351  0.2381  0.1093  0.0441
 5345W        W 9545   5.663   8.787   1.262 -0.3064 -0.1257 -0.1449
 5346W        W 9546   6.174   8.052   3.779 -0.0600 -0.0806  0.3819
 5347W        W 9547   8.003   2.251  11.884 -0.2292  0.1670 -0.1856
 5348W        W 9548   7.748   7.116   4.326 -0.2456 -0.1246  0.0468
 5349W        W 9549   3.820   0.445  13.068 -0.0029 -0.0787  0.0523
 5350W        W 9550   8.919   8.194  13.165 -0.2581 -0.0526  0.3281
 5351W        W 9551   6.918   2.543   9.110  0.0163 -0.0726  0.0523
 5352W        W 9552   0.728   0.539  11.923  0.0321 -0.0004 -0.5278
 5353W        W 9553   6.777   5.239  12.932  0.1515  0.1525  0.1039
 5354W        W 9554   2.688   3.092  10.353  0.2766 -0.1583 -0.4888
 5355W        W 9555   8.625   2.387  12.495 -0.3813  0.2848 -0.0870
 5356W        W 9556   6.375   2.649   9.277 -0.2490 -0.1528 -0.2592
 5357W        W 9557   8.365   1.458   2.427 -0.0074  0.1845  0.1521
 5358W        W 9558   8.206   9.624   8.604 -0.3468  0.3445 -0.5514
 5359W        W 9559  10.065   7.376   4.753  0.1062  0.2032  0.2280
 5360W        W 9560   4.759   0.664  10.137 -0.1963 -0.1952 -0.1671
 5361W        W 9561   5.756   0.803   4.183  0.1103  0.0887  0.2346
 5362W        W 9562   0.683   4.690   3.502 -0.0365  0.1575 -0.0558
 5363W        W 9563   4.119   4.845   0.856 -0.2158  0.0430  0.1871
 5364W        W 9564   4.684   4.446   3.255 -0.2705  0.2502  0.2069
 5365W        W 9565   2.082   9.737   9.556  0.0905 -0.0588  0.0047
 5366W        W 9566  10.393   7.484   2.550 -0.0556 -0.3988 -0.0831
 5367W        W 9567   8.311   5.461   0.696 -0.1252  0.0732 -0.1761
 5368W        W 9568   8.850   8.824   2.444 -0.1543  0.2030  0.0620
 5369W        W 9569   5.431   5.169  10.391  0.0068 -0.2481 -0.2788
 5370W        W 9570   7.856   1.675   1.264 -0.1768 -0.1052  0.0358
 5371W        W 9571   9.590   7.054   3.523  0.0987 -0.0395  0.4877
 5372W        W 9572   7.732   5.176  11.622  0.0270  0.1115 -0.0758
 5373W        W 9573  10.077   2.887   0.198  0.3721 -0.1076  0.0869
 5374W        W 9574   4.938   9.635   0.523 -0.0001  0.3716  0.1724
 5375W        W 9575   2.956   9.359  10.972 -0.1993 -0.0530 -0.0228
 5376W        W 9576   6.860   9.054  12.395 -0.2709  0.2850  0.0441
 5377W        W 9577   1.216   5.809   1.204 -0.0400  0.1726  0.0268
 5378W        W 9578   2.186   4.213  10.823  0.2174  0.0416 -0.2266
 5379W        W 9579   1.764   7.335   0.150  0.2170 -0.0838 -0.2703
 5380W        W 9580   8.067   5.955   2.695 -0.0936  0.1290 -0.2587
 5381W        W 9581   4.087   8.781   1.030 -0.0688 -0.0217  0.0265
 5382W        W 9582   7.265   0.471   3.378 -0.1450 -0.0188 -0.2372
 5383W        W 9583   3.052   6.905  13.455  0.1169  0.0427  0.4261
 5384W        W 9584   5.139   2.537   1.262  0.1235  0.0866 -0.2271
 5385W        W 9585   9.494   1.320   0.268  0.0365  0.0424 -0.4696
 5386W        W 9586   3.215   9.347   1.963  0.0317  0.2578 -0.3150
 5387W        W 9587   2.375   8.316   1.885  0.1061 -0.0413  0.0555
 5388W        W 9588   4.076   6.455   4.375  0.0322 -0.2605  0.1425
 5389W        W 9589   6.028   5.726   3.380 -0.0829 -0.0191  0.2307
 5390W        W 9590   4.411   9.898   1.620  0.1647 -0.4632 -0.2138
 5391W        W 9591   9.778   3.247  11.747  0.0215 -0.1144  0.2324
 5392W        W 9592   5.132   0.081   4.669 -0.0008 -0.0414 -0.2187
 5393W        W 9593   3.625   1.571  13.173 -0.3078  0.1798 -0.3180
 5394W        W 9594   8.426   2.452   4.322 -0.1631  0.1057 -0.1633
 5395W        W 9595   8.794   5.791  13.017 -0.3335  0.2622  0.0953
 5396W        W 9596   3.337   4.186  12.109  0.0153 -0.0723  0.1637
 5397W        W 9597   9.213   0.409   0.538  0.0823 -0.1052  0.0147
 5398W        W 9598   5.430   5.243   0.074  0.1564  0.4931 -0.2065
 5399W        W 9599   4.022   6.033   1.289 -0.3610 -0.1772  0.1815
 5400W        W 9600   8.510   3.373  11.139  0.0740 -0.0746  0.1420
 5401W        W 9601   9.881  10.356   4.366 -0.1443  0.1612 -0.2134
 5402W        W 9602   8.596   0.968   9.154 -0.1057 -0.2428  0.1793
 5403W        W 9603  10.114   2.979   2.623 -0.0764  0.1402  0.0942
 5404W        W 9604   8.922   5.181   2.786  0.1080  0.1504  0.1370
 5405W        W 9605  10.244   8.048  13.586  0.1358  0.0072  0.1855
 5406W        W 9606   4.886   2.668   9.475 -0.1172  0.0269  0.1149
 5407W        W 9607   7.046   1.182   2.050 -0.2430  0.2427  0.3236
 5408W        W 9608   8.686   5.022  10.486  0.1620 -0.3719 -0.1732
 5409W        W 9609   1.340   0.851   0.265 -0.0017  0.0737  0.0656
 5410W        W 9610   3.059   4.912  13.368  0.2123  0.1297  0.1186
 5411W        W 9611   8.162   6.907   4.140 -0.1270  0.0352  0.2776
 5412W        W 9612   8.757   7.973   4.432 -0.1090 -0.6243 -0.0823
 5413W        W 9613   5.425   1.026   9.446  0.0866 -0.2703  0.0857
 5414W        W 9614   1.306   8.309   1.292  0.1826  0.0022 -0.0070
 5415W        W 9615   1.945   6.689  12.971 -0.1561  0.2534 -0.0183
 5416W        W 9616   9.169   3.462   4.060 -0.0460  0.0024 -0.0737
 5417W        W 9617   8.515   0.984   9.632  0.2739 -0.2773  0.1109
 5418W        W 9618   7.916   0.903   8.429  0.0565  0.2019  0.2024
 5419W        W 9619   3.344   9.858  10.412  0.1305  0.1197 -0.0484
 5420W        W 9620   1.063   9.629   9.699  0.0808 -0.1806  0.0873
 5421W        W 9621   4.776   2.871  13.031 -0.0528  0.1165  0.1080
 5422W        W 9622   5.508   9.694  13.319  0.1658 -0.4568  0.2633
 5423W        W 9623   3.898   6.705  13.545  0.2585 -0.1393  0.1928
 5424W        W 9624   0.571   1.770   3.802 -0.0499 -0.0144  0.0845
 5425W        W 9625   2.831   9.507   0.134  0.1254 -0.0399 -0.1235
 5426W        W 9626   2.473   4.623   0.545  0.0513 -0.2751 -0.0845
 5427W        W 9627   6.599   1.335   0.340  0.1511  0.0590  0.0615
 5428W        W 9628   9.856   9.626   9.553  0.1073  0.2055 -0.3831
 5429W        W 9629   9.946   7.221  11.705 -0.2138 -0.0004 -0.1426
 5430W        W 9630   2.215   2.474  13.338  0.0949  0.2054 -0.2434
 5431W        W 9631  10.391   4.685   9.921 -0.3413  0.3189  0.0333
 5432W        W 9632   7.814   5.699  13.403  0.4583  0.1167 -0.0504
 5433W        W 9633   4.339   2.006   9.818  0.1595 -0.0549  0.1150
 5434W        W 9634   3.609   8.225   2.466 -0.1596 -0.1812  0.1485
 5435W        W 9635   1.295   1.638   9.684  0.0282  0.1555  0.0799
 5436W        W 9636   2.460   9.918  12.351  0.0188  0.1127 -0.0825
 5437W        W 9637   9.303   6.661  11.796 -0.0166  0.3004 -0.2206
 5438W        W 9638   9.559   5.521   2.037  0.1621 -0.3402 -0.2552
 5439W        W 9639   5.239   8.865   2.111  0.0729 -0.2485 -0.1469
 5440W        W 9640   5.899   5.982   4.369 -0.0944  0.1374  0.2901
 5441W        W 9641   8.871   7.732   0.943  0.0342 -0.0023  0.1828
 5442W        W 9642   1.289   2.548   1.297 -0.2407  0.2109  0.2043
 5443W        W 9643   2.758   1.411   2.401 -0.2794 -0.1768  0.2291
 5444W        W 9644   8.376   9.912   0.710  0.1597  0.4359  0.0794
 5445W        W 9645   5.706   1.569   0.318  0.0378  0.4599  0.0172
 5446W        W 9646   8.386   5.773   4.669  0.1209  0.0327  0.0579
 5447W        W 9647   1.762   0.401   9.870 -0.1993  0.2801 -0.0678
 5448W        W 9648   7.174   4.218   3.583  0.2281  0.2297  0.1817
 5449W        W 9649   1.739   2.359   3.143  0.0421 -0.1047 -0.1205
 5450W        W 9650   5.967   0.514  12.011 -0.4626  0.2090 -0.1438
 5451W        W 9651   6.981   3.685   1.377 -0.0797 -0.1644  0.1273
 5452W        W 9652   4.010   7.403   2.482  0.2087  0.0529  0.1297
 5453W        W 9653   5.169   5.090   3.466  0.1203 -0.0800 -0.0518
 5454W        W 9654   4.524   3.472  11.677 -0.0915  0.2182 -0.1363
 5455W        W 9655   6.138   0.039  12.670  0.0751 -0.2701 -0.1678
 5456W        W 9656   4.269   8.786   3.418 -0.2577 -0.2132  0.0069
 5457W        W 9657   9.612   1.843   5.006 -0.0213 -0.1155  0.4290
 5458W        W 9658   8.709   3.453   1.495 -0.0904 -0.1859 -0.1836
 5459W        W 9659   2.063   1.699  11.072  0.3717  0.1468 -0.1842
 5460W        W 9660   1.288   0.510   3.232  0.0275 -0.0940 -0.4128
 5461W        W 9661   4.237   0.646  12.524  0.0802 -0.3581  0.1943
 5462W        W 9662   1.936   3.214  10.684  0.0499  0.0288  0.1273
 5463W        W 9663   5.987   4.079   2.905 -0.1732  0.2561  0.1464
 5464W        W 9664   6.428   8.565   9.662  0.1735  0.0456  0.4446
 5465W        W 9665   3.138   8.035  11.042 -0.2660 -0.0885  0.0796
 5466W        W 9666   8.038   7.588   2.010  0.0361  0.1534  0.2351
 5467W        W 9667   0.419   8.074  11.358  0.3619 -0.1238 -0.1090
 5468W        W 9668   8.136   9.029   1.204 -0.1228 -0.2858 -0.2997
 5469W        W 9669   1.083  10.422   0.220  0.1992 -0.1201 -0.1453
 5470W        W 9670   6.705   9.964   8.465  0.0152 -0.2993  0.1941
 5471W        W 9671   8.129  10.198  11.846  0.1816  0.2270 -0.3330
 5472W        W 9672   1.720   7.001   9.840  0.3565  0.1184  0.1291
 5473W        W 9673   4.787   5.221  12.969 -0.0079  0.2277 -0.0974
 5474W        W 9674   6.571   6.749   0.710 -0.0330  0.1647 -0.4675
 5475W        W 9675   1.374   6.074  11.017  0.1111  0.1543 -0.3110
 5476W        W 9676   5.762   9.223  12.976  0.2028  0.3174  0.3174
 5477W        W 9677  10.428   3.007  10.897 -0.2112  0.1006 -0.2427
 5478W        W 9678   0.462   0.972   3.104 -0.3745 -0.2350 -0.0070
 5479W        W 9679   8.113   2.245   3.397 -0.1859  0.3290 -0.0591
 5480W        W 9680   0.824   9.812   3.781 -0.0396  0.0132  0.0315
 5481W        W 9681   3.022   1.136  10.312  0.2722 -0.2026 -0.0416
 5482W        W 9682   3.419   0.170   9.213 -0.0375  0.1037  0.0558
 5483W        W 9683   2.328   1.380   6.782  0.0994  0.0183  0.2041
 5484W        W 9684   0.759   5.447  12.831  0.2153 -0.0552 -0.1680
 5485W        W 9685   3.348   9.767   1.263  0.1826  0.0730  0.0714
 5486W        W 9686   5.609   6.513  12.472  0.2244 -0.2082  0.1746
 5487W        W 9687   7.022   6.484   0.815  0.1395  0.1267 -0.0103
 5488W        W 9688   8.939  10.191   1.552 -0.0019 -0.1627 -0.3935
 5489W        W 9689  10.210   3.051  11.377  0.0900 -0.1766 -0.1200
 5490W        W 9690   2.793   0.959   2.172  0.1272 -0.4205 -0.0221
 5491W        W 9691   1.851   8.183  10.348  0.0601  0.1566 -0.2657
 5492W        W 9692   6.727   7.993   4.020 -0.1370 -0.0385 -0.0057
 5493W        W 9693   4.994   6.784   4.668 -0.3083 -0.2768  0.1819
 5494W        W 9694   1.817   3.784   0.214 -0.2314  0.1822 -0.0515
 5495W        W 9695   5.038   2.683  13.526  0.0995 -0.1399  0.2738
 5496W        W 9696   7.063   3.016   2.857 -0.1679 -0.1259 -0.2102
 5497W        W 9697   6.980   6.126  12.925  0.0378  0.2729 -0.0926
 5498W        W 9698   5.421   8.796  12.101 -0.0084 -0.2551  0.0887
 5499W        W 9699   8.208   3.902  13.481 -0.1956  0.0511  0.3540
 5500W        W 9700   8.893   8.145   1.468  0.1575 -0.3907  0.0898
 5501W        W 9701   5.428   9.255   1.477  0.1928 -0.0364 -0.0678
 5502W        W 9702   8.324   7.358  13.383  0.4140  0.0305  0.1918
 5503W        W 9703   6.207   7.436   0.234  0.0840 -0.1985  0.1589
 5504W        W 9704   6.818   4.283   9.400 -0.1737 -0.1589  0.0909
 5505W        W 9705   3.680   6.051  11.427  0.0156 -0.4565 -0.0961
 5506W        W 9706   3.189   7.434   1.541  0.2559 -0.2125 -0.0073
 5507W        W 9707   2.359   8.919  11.267  0.0646 -0.3703 -0.0232
 5508W        W 9708   2.647   1.648   0.126 -0.0918 -0.0930  0.1887
 5509W        W 9709   7.060   7.894   2.588  0.0107  0.3210  0.2512
 5510W        W 9710   2.091   6.916   5.177  0.2058 -0.2642  0.2368
 5511W        W 9711   6.274   8.675   4.441 -0.2840 -0.2422 -0.2606
 5512W        W 9712   0.585   0.296  10.303 -0.0341  0.1862  0.2058
 5513W        W 9713   4.241   9.947  11.531  0.2149  0.2197  0.0250
 5514W        W 9714   8.378   9.776  10.222  0.1707  0.2690  0.1521
 5515W        W 9715   6.592   0.687   4.797 -0.1741  0.3646  0.2380
 5516W        W 9716   1.017   6.051   0.197 -0.1648 -0.1529  0.1057
 5517W        W 9717   1.666   2.117  12.278 -0.0974 -0.1135 -0.3270
 5518W        W 9718   5.792   6.788  10.219  0.1604 -0.2656  0.2439
 5519W        W 9719   5.283   6.484   0.341  0.0235  0.0894 -0.0989
 5520W        W 9720   6.795   5.887   4.097  0.0209  0.1095  0.1554
 5521W        W 9721   5.619   0.254   3.970 -0.0349  0.1751 -0.3135
 5522W        W 9722   5.491   0.084   9.773 -0.0033  0.1463  0.0574
 5523W        W 9723   3.592   5.649  10.092 -0.0646 -0.0593 -0.3844
 5524W        W 9724   9.689   5.320   4.180 -0.2081 -0.0134  0.2643
 5525W        W 9725   0.914   1.556  11.693  0.0140  0.4007  0.1931
 5526W        W 9726   8.852   2.280  12.030 -0.1952  0.1611 -0.0034
 5527W        W 9727   9.759   5.450   0.104  0.1716  0.0875  0.0634
 5528W        W 9728   3.041   3.192   2.762 -0.4281 -0.6672  0.0619
 5529W        W 9729   8.225   0.242  11.532  0.6685 -0.0185 -0.1947
 5530W        W 9730   2.180   4.951  12.174 -0.2227 -0.1169 -0.2229
 5531W        W 9731   4.794  10.370   2.370  0.2060 -0.1232  0.2628
 5532W        W 9732   3.886   5.466  12.078  0.0189  0.1531 -0.1915
 5533W        W 9733   2.116   8.218  12.047  0.1936  0.0703  0.2027
 5534W        W 9734   8.858   1.558   2.166  0.0452  0.2395  0.0337
 5535W        W 9735   7.250   4.786  10.921 -0.0697  0.2147  0.3401
 5536W        W 9736   4.743   2.043   9.359 -0.2485 -0.0716 -0.0824
 5537W        W 9737   0.379   5.898  11.160  0.0646  0.2840 -0.1968
 5538W        W 9738   0.944   7.023   4.174 -0.2723  0.0299  0.0863
 5539W        W 9739   5.136   5.648   0.103 -0.2021  0.0718 -0.0277
 5540W        W 9740   3.536   6.421  12.744  0.0292 -0.1093  0.0218
 5541W        W 9741   9.066   6.923   1.984  0.2173 -0.1912 -0.1227
 5542W        W 9742   5.426   2.058  13.270  0.1598  0.0031  0.0753
 5543W        W 9743   6.296   6.606   3.776  0.2329  0.1675  0.2718
 5544W        W 9744   9.323   3.667   4.629 -0.0982  0.0663  0.1933
 5545W        W 9745   8.636   4.189   9.465  0.0924 -0.0680  0.0961
 5546W        W 9746   3.099   4.349  10.590 -0.4318  0.0340 -0.1195
 5547W        W 9747   7.707   2.996   4.174 -0.4986 -0.0548  0.0066
 5548W        W 9748   0.950  10.293  12.657 -0.1423  0.0828 -0.0662
 5549W        W 9749   3.946   1.446  10.976  0.1153  0.3092  0.2559
 5550W        W 9750   0.500   8.865   3.244  0.0510 -0.1784  0.0202
 5551W        W 9751   6.231   3.383   1.336 -0.3547  0.0637 -0.1508
 5552W        W 9752   4.623   1.073   3.940  0.3422  0.0473  0.3973
 5553W        W 9753   3.570   7.441  10.847 -0.1209  0.3636 -0.1323
 5554W        W 9754   8.988   0.185   5.323 -0.2225  0.3474 -0.2203
 5555W        W 9755   5.876   3.933   9.115 -0.3848 -0.1209 -0.0705
 5556W        W 9756   4.850   7.100  13.382  0.0513  0.0150 -0.1399
 5557W        W 9757   1.501   4.135  10.246 -0.2094 -0.0231 -0.0520
 5558W        W 9758   3.364   5.039   2.304  0.0477  0.3688 -0.2019
 5559W        W 9759   7.626   7.368  12.192  0.0584 -0.0468 -0.0317
 5560W        W 9760   8.280   6.926   5.256  0.1513 -0.1255  0.3249
 5561W        W 9761   4.713   4.723  10.353  0.1283 -0.1009  0.0196
 5562W        W 9762   5.551   8.202   2.902 -0.0678  0.1568  0.3556
 5563W        W 9763   2.548   8.683  10.027  0.0812 -0.5153 -0.0305
 5564W        W 9764   1.493   1.402   1.086  0.0772  0.1959 -0.4577
 5565W        W 9765   5.650   8.179  10.600 -0.1635  0.3753  0.0311
 5566W        W 9766   3.808   8.218  10.488  0.0255  0.0323  0.0489
 5567W        W 9767   6.009   5.806   3.885  0.0862  0.1790 -0.0467
 5568W        W 9768   7.686   6.393   1.836 -0.0032 -0.1943  0.0047
 5569W        W 9769   1.376   5.684   3.965 -0.1102 -0.1007 -0.2515
 5570W        W 9770   3.555   1.646  10.807  0.2929  0.3877  0.0792
 5571W        W 9771   5.474  10.232  12.518  0.3121  0.0370 -0.0264
 5572W        W 9772   7.904   6.015  10.101  0.1398 -0.1514  0.1477
 5573W        W 9773   6.913   4.076   3.149  0.0461  0.2507 -0.4004
 5574W        W 9774  10.209   6.987   4.434 -0.0911 -0.0982  0.3936
 5575W        W 9775   3.994   4.837  11.574  0.5408 -0.3208 -0.0527
 5576W        W 9776   1.224   9.237   4.493  0.1088 -0.0155 -0.1333
 5577W        W 9777   6.031   4.665  11.866  0.0104 -0.3035 -0.2246
 5578W        W 9778   2.729   3.691  12.962  0.0328  0.1364  0.0571
 5579W        W 9779   1.202   2.789  11.088 -0.0653 -0.0636  0.2428
 5580W        W 9780   4.075   8.309   2.450 -0.3046  0.0185 -0.1670
 5581W        W 9781   0.951   9.110   0.947  0.0201 -0.0285 -0.3796
 5582W        W 9782   7.567   0.756   1.015  0.3750 -0.3083 -0.0052
 5583W        W 9783   9.713   4.652  11.968  0.1451  0.3203 -0.1009
 5584W        W 9784   5.485   4.729   0.586  0.3072  0.1830  0.0088
 5585W        W 9785   7.933   7.989   1.271  0.1575 -0.2825  0.1896
 5586W        W 9786   4.170   9.029   4.415 -0.0095 -0.1202  0.0375
 5587W        W 9787   2.335   0.466   0.630 -0.1630  0.0830  0.0642
 5588W        W 9788   6.749   4.223   4.186  0.0290 -0.0031  0.2219
 5589W        W 9789   5.103   4.002  13.155 -0.0390 -0.1450 -0.0942
 5590W        W 9790   5.221   3.639   1.763 -0.2954 -0.0278 -0.2378
 5591W        W 9791   9.416   6.343   9.176  0.1251  0.0063 -0.1287
 5592W        W 9792   3.015   2.278  12.961  0.1576 -0.0636  0.1236
 5593W        W 9793   1.742   8.948  13.110  0.0578  0.0033 -0.1299
 5594W        W 9794   7.274   7.962   9.277  0.3155  0.0221  0.2609
 5595W        W 9795   4.501   1.865   3.220 -0.0612  0.0414 -0.1834
 5596W        W 9796   7.721   3.341   1.821  0.1640 -0.0625  0.0325
 5597W        W 9797   5.253   9.905  10.215  0.1150 -0.0379 -0.1260
 5598W        W 9798   8.423   0.526  11.902  0.1720 -0.1856  0.2407
 5599W        W 9799   8.948   5.719   3.721  0.0039  0.1303  0.4641
 5600W        W 9800   1.828   1.788   9.799 -0.0409 -0.0653  0.0015
 5601W        W 9801   6.552   2.472  10.246  0.0338  0.1366 -0.2007
 5602W        W 9802   1.420   1.462   2.002 -0.1394 -0.0720 -0.1249
 5603W        W 9803   5.193   9.825   0.127 -0.0796  0.2453 -0.1190
 5604W        W 9804   9.685   9.367  10.248 -0.1612 -0.0714  0.0250
 5605W        W 9805   1.742   8.818   4.002  0.1833  0.1299  0.1979
 5606W        W 9806   1.997   8.004   4.742 -0.0751 -0.0365  0.0817
 5607W        W 9807   2.942   2.361   2.364 -0.2047 -0.1141  0.3923
 5608W        W 9808   3.138   2.133   4.150 -0.1059  0.1592 -0.0419
 5609W        W 9809   9.193   0.624  10.142  0.4072  0.1062  0.1585
 5610W        W 9810   8.457   7.441  10.443 -0.1366 -0.3799  0.2004
 5611W        W 9811   2.689   5.732  10.726 -0.2138  0.0448 -0.0851
 5612W        W 9812   6.080   0.052  11.797  0.3333  0.0595  0.1258
 5613W        W 9813   9.011   1.096   3.574  0.4210 -0.0638  0.0984
 5614W        W 9814   4.851   4.776  12.012 -0.2314  0.1344  0.4134
 5615W        W 9815   1.603   2.190   1.954 -0.2705  0.0434  0.0598
 5616W        W 9816   3.417  10.433   2.960  0.0879  0.0716 -0.2866
 5617W        W 9817   9.287   2.685   1.864 -0.1374 -0.2572 -0.1062
 5618W        W 9818   9.381   8.564   4.459  0.0154  0.2102  0.0628
 5619W        W 9819   8.210   8.524  12.922 -0.2487  0.0686 -0.1026
 5620W        W 9820   4.318   5.102  11.305 -0.0699 -0.1375  0.1686
 5621W        W 9821   0.084   5.419  10.752 -0.0183  0.0342 -0.0157
 5622W        W 9822   8.742   1.344   4.117 -0.1824  0.2326  0.0215
 5623W        W 9823   6.727   6.873  13.370 -0.1917  0.3090 -0.2904
 5624W        W 9824   7.413   5.290  12.009 -0.1795 -0.0814 -0.1412
 5625W        W 9825   0.080   1.845   1.072  0.1869  0.3667  0.4017
 5626W        W 9826   7.149   7.534   3.190 -0.0608 -0.1438  0.2558
 5627W        W 9827   0.202   5.982   1.979 -0.1759 -0.0705  0.1236
 5628W        W 9828   7.353   2.974  13.443 -0.2664 -0.0467  0.2801
 5629W        W 9829   1.438   6.980   3.771  0.3758 -0.0293 -0.1272
 5630W        W 9830   3.885   0.925   3.392  0.0272 -0.0585  0.1086
 5631W        W 9831   1.961   7.915  12.442 -0.2696 -0.0733 -0.2379
 5632W        W 9832  10.229   4.774  11.903 -0.1702  0.1888  0.1654
 5633W        W 9833   1.506   6.980  12.968  0.1564  0.1724  0.1569
 5634W        W 9834   5.862   6.353   9.341  0.0928 -0.2442 -0.1041
 5635W        W 9835   5.264   4.687  12.352  0.0307  0.1227  0.2568
 5636W        W 9836   9.368   1.334  11.344  0.3635 -0.0728 -0.1612
 5637W        W 9837   9.000   3.205   3.303 -0.3817  0.2817 -0.1797
 5638W        W 9838   7.348   7.109   2.667 -0.1326  0.1550 -0.1006
 5639W        W 9839  10.219   9.377   9.920  0.2333  0.2440  0.0984
 5640W        W 9840   5.145   6.872   1.808 -0.0703 -0.0021 -0.0422
 5641W        W 9841   3.513   8.236  11.941  0.1604  0.1910 -0.0552
 5642W        W 9842   6.415   2.618   4.129 -0.0776  0.0289  0.0688
 5643W        W 9843   7.674   8.365   0.897 -0.1280  0.3385  0.2175
 5644W        W 9844   4.680   4.304   0.695  0.2377 -0.0132 -0.2112
 5645W        W 9845   4.259   0.197  13.128 -0.1852 -0.1064 -0.1783
 5646W        W 9846   8.215   1.819   9.794 -0.1868  0.0592 -0.0942
 5647W        W 9847   3.587   0.600  13.500 -0.2031  0.0571  0.0507
 5648W        W 9848   4.235   8.554   4.586  0.0458 -0.1443  0.2276
 5649W        W 9849   9.812   9.566   0.812  0.1258 -0.0011  0.3081
 5650W        W 9850   3.697   5.116   3.602  0.1904  0.2403  0.0006
 5651W        W 9851   1.423   1.081  12.418  0.0798  0.1620  0.0593
 5652W        W 9852   7.413   2.761   9.373 -0.2783  0.4519  0.2060
 5653W        W 9853   8.614   5.147  12.629 -0.1700 -0.3222 -0.0216
 5654W        W 9854   2.855   7.066   3.621  0.2650 -0.0979 -0.4163
 5655W        W 9855   9.210   9.664   1.762 -0.1080 -0.2172  0.1168
 5656W        W 9856   5.566   5.205   1.508 -0.0202 -0.2703 -0.0202
 5657W        W 9857   0.767   5.812   2.783 -0.2161  0.0622 -0.0297
 5658W        W 9858   5.817   8.631   3.035 -0.0299  0.0135  0.1768
 5659W        W 9859  10.298  10.267   1.343 -0.0283 -0.4245  0.2365
 5660W        W 9860   0.130   1.334  13.114  0.0199 -0.0516  0.4432
 5661W        W 9861   6.093   2.203   0.982 -0.1617 -0.1211 -0.0576
 5662W        W 9862   1.319   4.510  11.860  0.0731 -0.0227  0.1106
 5663W        W 9863   5.957   5.134   9.547 -0.3595 -0.0245  0.1447
 5664W        W 9864   5.128   7.316   2.016  0.1097 -0.3199 -0.0855
 5665W        W 9865   2.483   2.187   0.620 -0.4258 -0.2384 -0.4174
 5666W        W 9866  10.042   4.605   1.426 -0.1681 -0.2261  0.3837
 5667W        W 9867   0.946   9.929   0.633  0.0736 -0.2291 -0.0679
 5668W        W 9868   4.311   2.491   1.418  0.3411  0.3084  0.1049
 5669W        W 9869   8.756   6.666   3.619 -0.0621  0.1265 -0.0973
 5670W        W 9870   9.042   1.508   2.689  0.1194 -0.0855  0.0603
 5671W        W 9871   6.710   1.159   3.236 -0.0523  0.1041  0.1523
 5672W        W 9872   9.806   3.333  12.296 -0.2108 -0.2535  0.0310
 5673W        W 9873   2.759   0.136   1.564  0.2151 -0.0081  0.1141
 5674W        W 9874   1.261   9.390   2.333 -0.1853  0.0690 -0.4560
 5675W        W 9875   9.969   7.039   1.887 -0.1051  0.3218 -0.3256
 5676W        W 9876   7.795   9.014   0.293  0.0946 -0.0663  0.0305
 5677W        W 9877   1.569   2.575   0.522  0.2071 -0.0583  0.1789
 5678W        W 9878   3.567   7.922  10.140  0.0572  0.0026  0.0183
 5679W        W 9879   8.894  10.339   2.474  0.5522 -0.1841  0.1572
 5680W        W 9880   7.478   9.987   3.201  0.1235 -0.1500  0.2278
 5681W        W 9881   4.950   0.035  13.347 -0.0467  0.0034 -0.1723
 5682W        W 9882   9.803   5.107  12.956 -0.1205 -0.2394 -0.0229
 5683W        W 9883   5.792   6.426   9.784  0.3653 -0.1512 -0.0172
 5684W        W 9884   5.242   5.721   2.369  0.2059 -0.1824  0.1710
 5685W        W 9885   0.312   6.816  11.910 -0.0347  0.1059 -0.2070
 5686W        W 9886   8.487   8.480   1.021  0.0768  0.3567  0.2023
 5687W        W 9887   8.256   0.136  12.167  0.3408 -0.2167  0.4101
 5688W        W 9888   2.628   4.601  13.369  0.1502  0.1066 -0.1146
 5689W        W 9889   0.344   9.357   4.602  0.3253  0.0233  0.1717
 5690W        W 9890   8.990  10.025  12.863  0.2312  0.1308 -0.3878
 5691W        W 9891   8.573   7.785   4.023  0.0685  0.0567 -0.3534
 5692W        W 9892   8.171   2.362   9.795 -0.1721 -0.1220 -0.0307
 5693W        W 9893   0.723   3.097   1.776  0.0850 -0.0079  0.0046
 5694W        W 9894   0.734   1.028   2.616 -0.0200 -0.1338 -0.0554
 5695W        W 9895  10.237   3.325  13.521 -0.0131 -0.1802  0.1503
 5696W        W 9896   0.282   0.036  11.176  0.1832  0.1077  0.1355
 5697W        W 9897   7.291   2.179  13.114  0.1245 -0.2690  0.0982
 5698W        W 9898   8.797   2.270  11.325  0.2431  0.1455 -0.0635
 5699W        W 9899   0.885   2.517  13.284  0.2901 -0.1549 -0.0041
 5700W        W 9900   8.508   2.675   1.405 -0.0189 -0.2923 -0.0401
 5701W        W 9901   1.871   0.572  10.386  0.1521 -0.0738  0.1292
 5702W        W 9902   7.871   8.967   9.877  0.0073  0.1992  0.0500
 5703W        W 9903   9.584   5.205   5.150  0.2078  0.0933 -0.1565
 5704W        W 9904  10.084   6.817   8.916  0.0405  0.3251 -0.4033
 5705W        W 9905   4.684   4.917   0.830 -0.0851  0.2564  0.0521
 5706W        W 9906  10.027   4.470   9.504  0.0091  0.0052 -0.1204
 5707W        W 9907   6.437   9.749  10.711 -0.1754  0.0889 -0.0588
 5708W        W 9908   7.441   7.637   2.761  0.4188 -0.1137 -0.1122
 5709W        W 9909   6.738   2.965   0.540  0.0401 -0.2581 -0.0511
 5710W        W 9910   8.102   0.058   9.857  0.0832 -0.2509 -0.2858
 5711W        W 9911   6.437   3.129   3.430 -0.0066  0.0621 -0.2081
 5712W        W 9912   9.174  10.371   0.729 -0.3944  0.0247  0.6058
 5713W        W 9913   0.305   6.396   8.453 -0.1057 -0.2404 -0.1828
 5714W        W 9914   7.989   0.626  10.196 -0.5811 -0.0999 -0.1555
 5715W        W 9915   5.089   6.298  10.854 -0.1975  0.0696  0.0251
 5716W        W 9916   1.002   9.358   1.428 -0.1976 -0.0368 -0.2162
 5717W        W 9917   5.248   8.285   4.580 -0.1535  0.1613 -0.0905
 5718W        W 9918   9.284   0.103   9.918  0.0803 -0.1490  0.0349
 5719W        W 9919   8.475   7.074   2.829 -0.0344  0.0410 -0.1620
 5720W        W 9920  10.406   8.816   3.105  0.1875 -0.3211  0.1959
 5721W        W 9921  10.429   9.134   8.936 -0.1967 -0.1696  0.0228
 5722W        W 9922   0.804   8.125   3.514  0.1633 -0.1135  0.2639
 5723W        W 9923   5.988   7.481   0.815  0.4305 -0.1357  0.1762
 5724W        W 9924   5.198   1.125  13.394  0.0381  0.2458 -0.1885
 5725W        W 9925   4.096   4.050  10.671  0.0291  0.0070  0.0024
 5726W        W 9926   8.443   2.816  10.638  0.3779  0.1963  0.0280
 5727W        W 9927   4.814  10.157   0.183  0.1519  0.0616 -0.3676
 5728W        W 9928   3.784   5.398   1.742  0.0392  0.2154 -0.3468
 5729W        W 9929   8.378   4.827   1.308 -0.0268 -0.3805 -0.0982
 5730W        W 9930   8.525   6.801  11.362  0.1538  0.1665  0.2726
 5731W        W 9931   0.084   3.860   1.518 -0.1845 -0.1975  0.1721
 5732W        W 9932   5.455   0.362  10.392  0.0386  0.0803  0.0073
 5733W        W 9933   7.438   1.237  12.891 -0.0218  0.1414  0.3505
 5734W        W 9934   7.531   9.253   2.027  0.2753 -0.0798 -0.3802
 5735W        W 9935  10.135   4.470   1.933 -0.2264  0.0285  0.3675
 5736W        W 9936   8.716   4.482  13.155  0.2993 -0.0336 -0.1592
 5737W        W 9937   2.694   5.204  12.040 -0.0377  0.1784  0.0343
 5738W        W 9938   0.131   4.930  10.568  0.0397  0.2715  0.0193
 5739W        W 9939   3.455   5.180   5.017  0.2099 -0.2005 -0.0519
 5740W        W 9940   4.906   9.355   3.663  0.1385 -0.0692  0.1799
 5741W        W 9941   8.624   2.435   3.412 -0.0208  0.2059  0.2278
 5742W        W 9942   6.822   5.485   9.304  0.0310  0.2514 -0.2936
 5743W        W 9943   6.943   5.371   5.073 -0.0007 -0.0933  0.2853
 5744W        W 9944   8.161   0.617   4.498  0.2744 -0.2628 -0.0271
 5745W        W 9945   5.307   2.422   0.352  0.0184  0.1014 -0.2232
 5746W        W 9946   0.553   5.979   1.560  0.0850  0.0776 -0.0064
 5747W        W 9947   0.226   9.899  10.519  0.2277  0.0039  0.0987
 5748W        W 9948   8.649   4.270   4.689 -0.0816  0.1430 -0.0227
 5749W        W 9949   2.159   7.692   3.377  0.0625 -0.1969  0.0741
 5750W        W 9950   0.194   4.064  12.406  0.0474  0.0261 -0.0464
 5751W        W 9951   3.209  10.316  13.432 -0.1262 -0.0599  0.0299
 5752W        W 9952   6.000   5.659   1.524  0.0223  0.3123 -0.1800
 5753W        W 9953   4.124   8.294   0.749  0.3360  0.0961 -0.5466
 5754W        W 9954   5.870   0.764  11.035 -0.3093  0.0644 -0.1644
 5755W        W 9955   7.153   4.198   2.552  0.1380  0.1505 -0.1403
 5756W        W 9956   4.056   1.529  12.904 -0.1498 -0.0005 -0.0933
 5757W        W 9957   8.559   9.397   0.693  0.1702  0.1484 -0.0762
 5758W        W 9958   3.953   7.273   9.597  0.2164  0.0692  0.2268
 5759W        W 9959   6.620   9.444   3.323 -0.0129 -0.2515  0.0578
 5760W        W 9960   3.715   8.966   9.508  0.0873 -0.4535 -0.0136
 5761W        W 9961   7.256   8.907  10.525 -0.1467  0.1877 -0.2490
 5762W        W 9962   3.074   2.387   3.378  0.2694  0.2132 -0.3035
 5763W        W 9963   9.807   4.375  11.038 -0.1328  0.2646 -0.2014
 5764W        W 9964  10.355   2.072  10.527  0.1465  0.2090 -0.3189
 5765W        W 9965   3.218   0.502   3.378 -0.1395  0.0962 -0.1399
 5766W        W 9966   4.428   8.040   9.580  0.0780  0.0050 -0.3552
 5767W        W 9967   8.324   6.734  10.030  0.0151  0.2863 -0.0878
 5768W        W 9968   2.699   2.709   2.091 -0.3344 -0.1211 -0.2558
 5769W        W 9969   3.181   8.029   2.687  0.3487 -0.0102 -0.0316
 5770W        W 9970   8.597  10.426   1.957  0.0397  0.0434  0.1492
 5771W        W 9971   5.430   1.728   4.213  0.4314  0.1790 -0.2212
 5772W        W 9972   4.080   7.429   1.380  0.0900 -0.3623  0.1441
 5773W        W 9973   4.204   0.726  13.196  0.0039  0.0827 -0.2872
 5774W        W 9974   5.557   3.601   3.140 -0.0704  0.2530 -0.0957
 5775W        W 9975   6.118   4.611  12.612  0.0694  0.0313  0.2124
 5776W        W 9976   3.762   9.436   1.245  0.0446 -0.3192 -0.2922
 5777W        W 9977   0.928   4.538  10.857  0.3038 -0.1941  0.2929
 5778W        W 9978   7.265   5.272   0.960  0.0464  0.0120  0.0492
 5779W        W 9979   7.384   6.525  10.816 -0.1724  0.1681  0.1535
 5780W        W 9980   0.099   7.941   3.230 -0.3253  0.0239  0.2660
 5781W        W 9981  10.131   3.539   4.459  0.2249 -0.0542 -0.2168
 5782W        W 9982   9.306   9.381  12.114  0.1965 -0.0250 -0.1496
 5783W        W 9983   0.623   4.291  12.772 -0.0548  0.1244  0.0493
 5784W        W 9984   5.635   1.272   3.147  0.1356 -0.3295  0.3776
 5785W        W 9985   1.665   8.090   9.424  0.1735 -0.2660 -0.0663
 5786W        W 9986   5.456   8.468   9.372 -0.1464 -0.0286 -0.1675
 5787W        W 9987   9.770   6.415   1.254  0.0814 -0.0488 -0.0684
 5788W        W 9988   9.164   9.141  10.708  0.0295  0.0606 -0.2314
 5789W        W 9989   0.631   1.375   9.212 -0.2612  0.0954 -0.1422
 5790W        W 9990   9.720   2.219  11.633  0.0832 -0.0936 -0.0943
 5791W        W 9991   6.834   9.728  12.543  0.0698 -0.1172 -0.1304
 5792W        W 9992   6.881   8.673   4.696  0.3111  0.0920 -0.1058
 5793W        W 9993   9.715   8.281   9.298  0.0915 -0.0804  0.1787
 5794W        W 9994   5.222   0.916   0.938 -0.0810  0.1795 -0.3335
 5795W        W 9995   2.069   2.265   9.822 -0.1409 -0.0271  0.1350
 5796W        W 9996   6.474   6.057   2.199  0.1780  0.0857 -0.2019
 5797W        W 9997   3.515   6.825  11.981  0.2314  0.2724  0.0838
 5798W        W 9998   3.594   7.296  11.727 -0.2045  0.2654 -0.1439
 5799W        W 9999   1.254   7.303  11.796 -0.0141 -0.2772 -0.2820
 5800W        W10000   6.321   7.844  11.504 -0.1119 -0.0858  0.0726
 5801W        W10001   3.497  10.330   3.459  0.2762  0.1902  0.0449
 5802W        W10002   0.791   0.607  13.224 -0.2785  0.1761  0.0580
 5803W        W10003   5.653   6.577   0.885 -0.1048 -0.1954 -0.0755
 5804W        W10004   1.645   8.708   1.176 -0.1703  0.3633 -0.0198
 5805W        W10005   0.108   6.541  10.217  0.0459 -0.0665 -0.0946
 5806W        W10006   1.535   0.220  11.638 -0.1109 -0.1270  0.0138
 5807W        W10007   4.599   1.309  11.672  0.2107  0.0432  0.0385
 5808W        W10008   6.849   9.835   9.651  0.2379  0.3088 -0.0580
 5809W        W10009   9.835   4.462   0.908  0.0135 -0.0916 -0.0339
 5810W        W10010   6.103   7.344   3.355 -0.0396 -0.1127 -0.0264
 5811W        W10011   8.058   2.127   0.151  0.1099 -0.1142  0.1955
 5812W        W10012   1.691   3.680  12.214 -0.1380 -0.1665  0.2269
 5813W        W10013   2.450   8.770   0.750  0.1736 -0.2070  0.0080
 5814W        W10014   2.711   1.149   4.029 -0.2810  0.0490  0.1852
 5815W        W10015   1.230   0.542   1.000 -0.1071  0.1457 -0.1238
 5816W        W10016   0.300   0.156   9.734  0.0726 -0.0061 -0.0914
 5817W        W10017   3.701   8.691  11.325 -0.2199  0.0851 -0.0454
 5818W        W10018   9.590   7.829   3.529  0.0753 -0.2485 -0.2245
 5819W        W10019   0.379   7.396  13.104 -0.0285  0.2899  0.5343
 5820W        W10020   8.024   0.221  12.647 -0.0751 -0.0961 -0.2916
 5821W        W10021   3.050   6.511   2.000 -0.0267 -0.3331 -0.1824
 5822W        W10022   2.263   1.264  12.932  0.2829 -0.0915  0.0054
 5823W        W10023   6.230  10.032  13.317 -0.1840 -0.4443  0.0340
 5824W        W10024   6.655   4.145   3.639  0.1253 -0.1743 -0.2407
 5825W        W10025   1.225   5.264   2.015 -0.0569  0.1392  0.0756
 5826W        W10026   8.023  10.167   0.950 -0.0778  0.0150 -0.1492
 5827W        W10027   6.952   0.109   0.229 -0.3240 -0.3363  0.1496
 5828W        W10028   5.778   7.017  11.641  0.1412 -0.1020  0.0769
 5829W        W10029   9.916   0.922   9.699 -0.0498 -0.0172  0.0794
 5830W        W10030   8.884   9.962   2.112 -0.2368  0.0237  0.0104
 5831W        W10031   6.501   6.568  12.351  0.1706 -0.2514  0.1086
 5832W        W10032   4.156  10.335   0.387  0.2861  0.0751  0.0418
 5833W        W10033   3.659   4.604   9.875 -0.1574  0.0805 -0.0780
 5834W        W10034   2.678   3.157  12.918 -0.4126  0.0260 -0.1041
 5835W        W10035   7.839   6.348   2.346  0.2242 -0.0622  0.3199
 5836W        W10036   7.741   6.374  12.236  0.1270 -0.2904  0.0563
 5837W        W10037   1.675   6.458   3.811  0.1781 -0.0135  0.1809
 5838W        W10038   7.383   5.331  10.605 -0.0454  0.0328  0.0935
 5839W        W10039   5.038   8.565   9.092  0.0879 -0.2531  0.0522
 5840W        W10040   7.728   7.660  10.282 -0.1585 -0.0376  0.2769
 5841W        W10041   6.096   5.405   2.281  0.1430  0.1500  0.3212
 5842W        W10042   3.871   1.734   9.117 -0.1860 -0.1570  0.1147
 5843W        W10043   8.834   9.417   2.152  0.0953 -0.1754 -0.0810
 5844W        W10044   0.974   7.227   3.710  0.0158 -0.0582  0.0728
 5845W        W10045   9.794   3.964  10.748  0.2388 -0.2911  0.1955
 5846W        W10046   1.670   9.915   4.701  0.2123  0.1533 -0.1637
 5847W        W10047   7.663   9.513   3.903 -0.2665 -0.2135 -0.2365
 5848W        W10048   8.375   1.300  12.832  0.0605  0.0859  0.0954
 5849W        W10049   0.623   9.727   4.249  0.1133 -0.0430 -0.1943
 5850W        W10050   7.356   2.235   9.108 -0.1549  0.1747  0.1037
 5851W        W10051   3.259   4.464   0.905 -0.1396  0.1434 -0.1391
 5852W        W10052   8.032   4.934   4.249  0.3178 -0.0711  0.0409
 5853W        W10053   2.055   0.651   3.682 -0.0038 -0.0391  0.2598
 5854W        W10054   7.044   3.173  11.766 -0.0997  0.3138  0.0603
 5855W        W10055   2.652   2.837   0.073 -0.0650 -0.1881  0.0257
 5856W        W10056   4.674   6.605  13.209  0.0737 -0.4106  0.0349
 5857W        W10057   1.047   6.630   2.105  0.1474  0.3274  0.0518
 5858W        W10058   1.305   3.812   0.962 -0.0345  0.3756  0.2467
 5859W        W10059   4.157   7.740   8.803  0.0553  0.3006  0.0281
 5860W        W10060   7.535   7.847   3.338  0.0892 -0.3248  0.1509
 5861W        W10061   2.061   9.842   2.997  0.0764 -0.2009  0.2779
 5862W        W10062   0.712   0.329  12.849 -0.1255 -0.0132  0.2012
 5863W        W10063   8.040   1.945  10.927 -0.1142  0.0332 -0.0673
 5864W        W10064  10.347   9.335   3.818 -0.0477  0.0473 -0.1598
 5865W        W10065   1.265   7.313  10.480  0.1685  0.1901 -0.1311
 5866W        W10066   3.863   7.905   3.282 -0.1189  0.0110 -0.1763
 5867W        W10067   8.210   5.363   2.174  0.1823 -0.0692 -0.0861
 5868W        W10068   1.198   0.096   4.095 -0.1698  0.0489 -0.1474
 5869W        W10069   7.255   8.523  11.003 -0.1465 -0.0213 -0.0113
 5870W        W10070   0.214   2.401  12.038 -0.4897 -0.0571 -0.0195
 5871W        W10071   8.022   0.942   9.207 -0.0541 -0.3274 -0.1135
 5872W        W10072   4.522   8.811   1.309 -0.0875 -0.1367  0.1701
 5873W        W10073   0.057   8.515  10.690 -0.2771  0.1772  0.1027
 5874W        W10074   2.865   6.678   3.984 -0.0707  0.1832  0.3843
 5875W        W10075   3.320   0.604   0.359 -0.0425  0.1341  0.0906
 5876W        W10076   9.152   3.466   9.610 -0.3348  0.2187 -0.0670
 5877W        W10077  10.424   2.237  12.712 -0.0291 -0.2009 -0.1119
 5878W        W10078   4.324   9.391   4.101  0.2921  0.1126  0.0863
 5879W        W10079   6.855  10.035   3.843  0.0918  0.2294  0.0538
 5880W        W10080   4.330   7.675   9.277 -0.0023  0.2009  0.0808
 5881W        W10081   3.602   9.435  13.061 -0.0734 -0.0627  0.0606
 5882W        W10082   1.582   0.110   1.145 -0.3859  0.4443 -0.1332
 5883W        W10083   9.528   6.258  10.932  0.2466 -0.2119 -0.1498
 5884W        W10084  10.120   5.290  12.568  0.1603 -0.0924 -0.4586
 5885W        W10085  10.261   5.578   0.153 -0.2314 -0.2722  0.1354
 5886W        W10086   3.144   8.957   9.667 -0.2374  0.1415 -0.0539
 5887W        W10087   1.410   7.757   1.257  0.2962  0.0088  0.1164
 5888W        W10088   5.094   4.840  10.749  0.1083 -0.0710 -0.0825
 5889W        W10089   5.545   3.076  10.124 -0.0595 -0.1762 -0.0562
 5890W        W10090   7.405   4.339  10.571 -0.2959 -0.0653  0.1055
 5891W        W10091   3.986   7.883   0.434  0.6432  0.1311 -0.4065
 5892W        W10092   4.843   4.090  11.404  0.3222 -0.1516  0.0667
 5893W        W10093   4.404   9.478  12.437 -0.0607  0.1775 -0.0969
 5894W        W10094   1.883   4.295  12.766 -0.3370  0.2261  0.2454
 5895W        W10095   6.076   8.882   1.718 -0.3208  0.1733  0.0373
 5896W        W10096   7.577   9.869   1.044  0.0871 -0.1627 -0.0600
 5897W        W10097   2.066   8.428   5.423  0.1200  0.0357  0.0793
 5898W        W10098   3.117   5.537  13.322  0.0886 -0.1377 -0.2781
 5899W        W10099   6.821   2.571   1.769 -0.1164 -0.1654  0.2221
 5900W        W10100   4.833   3.403   1.665  0.2004  0.0474 -0.1895
 5901W        W10101   6.509   5.160  13.467  0.0347 -0.0507  0.0587
 5902W        W10102   8.888   4.196  12.709 -0.0713  0.1683 -0.3608
 5903W        W10103   8.933   7.742  12.756  0.1669  0.1687 -0.0746
 5904W        W10104   5.216   2.999  12.001  0.0234  0.3039 -0.0892
 5905W        W10105   3.760   3.354  11.307 -0.1190  0.1478  0.0980
 5906W        W10106   7.615   6.229   7.976  0.1198  0.2074  0.0964
 5907W        W10107   3.199   1.691   0.801  0.0966  0.2043  0.1331
 5908W        W10108   7.218   7.511   0.433  0.1055 -0.1567  0.1660
 5909W        W10109   2.435   9.022   0.255  0.0699 -0.2424 -0.0880
 5910W        W10110   8.280   2.344   3.848 -0.1610  0.2183 -0.1003
 5911W        W10111   4.020   7.801   9.644 -0.0066 -0.1168  0.0214
 5912W        W10112   7.454   5.764   1.049  0.1748 -0.1122  0.0779
 5913W        W10113   6.076   0.217   9.158 -0.1443  0.0470 -0.0683
 5914W        W10114   9.310   2.279   0.570  0.2248  0.3130  0.2434
 5915W        W10115   0.940   0.303   9.397 -0.0436  0.0351  0.1142
 5916W        W10116   5.551   9.422   9.859 -0.0788  0.1614  0.1023
 5917W        W10117  10.076   7.981  13.078 -0.0138 -0.3369 -0.0620
 5918W        W10118   4.164  10.160  10.068 -0.1082 -0.2499 -0.4927
 5919W        W10119   3.947   7.756  10.554  0.0129  0.1140 -0.1189
 5920W        W10120   8.365   9.943   1.458  0.0180  0.0633 -0.0289
 5921W        W10121   5.954   9.884   1.357  0.0700  0.0420 -0.0694
 5922W        W10122   1.510   4.107  12.426 -0.1932  0.0118 -0.0995
 5923W        W10123  10.194   9.419  13.163 -0.0259  0.4562 -0.1712
 5924W        W10124   3.498   8.702  10.046 -0.0990 -0.0203  0.2512
 5925W        W10125   5.432   4.024  12.637 -0.1118  0.0205  0.2249
 5926W        W10126   8.534   8.305   4.122  0.0537  0.0376  0.0201
 5927W        W10127   2.344   8.448  13.532  0.5542  0.2334 -0.0409
 5928W        W10128   2.658  10.091   0.806 -0.1108  0.2884  0.1801
 5929W        W10129   9.611   8.677   8.696 -0.1623 -0.1191 -0.1860
 5930W        W10130   8.942   6.304   8.316 -0.0902  0.1710  0.2594
 5931W        W10131   2.069   2.154   2.055  0.0989  0.0526 -0.0910
 5932W        W10132   8.340   5.858  10.215  0.2953 -0.2844  0.1024
 5933W        W10133   9.939   6.564   1.732  0.0846  0.1225  0.2606
 5934W        W10134   3.166   5.007   4.338  0.1086 -0.0084  0.0286
 5935W        W10135   4.834   7.276   9.829  0.1171  0.1828 -0.0673
 5936W        W10136   6.748   9.741  11.632 -0.1217  0.2452 -0.0005
 5937W        W10137   8.896   4.268   4.260 -0.4277 -0.1786  0.0002
 5938W        W10138   2.642   6.169   1.231  0.0062  0.1552 -0.1731
 5939W        W10139   2.602   6.162   4.724  0.0702  0.2868 -0.0052
 5940W        W10140   8.620   5.065   0.535 -0.1847 -0.0205 -0.0256
 5941W        W10141   6.108   9.379  10.962 -0.2070  0.0368 -0.1385
 5942W        W10142   2.973   1.334  13.524  0.0527  0.1972  0.5433
 5943W        W10143   2.590   5.792   1.592  0.0292  0.1159  0.1207
 5944W        W10144   7.806   5.658   0.650  0.0642  0.1265  0.0067
 5945W        W10145   2.056   4.271   9.743 -0.0531  0.0663 -0.2481
 5946W        W10146   9.412   2.954   0.543  0.0494  0.0689 -0.1306
 5947W        W10147   2.805  10.044  13.310  0.3349 -0.1799  0.0811
 5948W        W10148   2.478   9.527   2.423 -0.0426 -0.0770 -0.0449
 5949W        W10149   5.689   9.813   0.926 -0.2257 -0.1018 -0.1615
 5950W        W10150   9.707   2.613   0.320 -0.0096 -0.0997 -0.1863
 5951W        W10151   2.436   1.317   0.553 -0.1865 -0.0473 -0.3759
 5952W        W10152   9.628   1.735  11.656 -0.1765 -0.1538 -0.0155
 5953W        W10153   0.383   1.030  11.175 -0.1803 -0.3970 -0.4101
 5954W        W10154   4.477   9.691   3.739 -0.1572  0.1439 -0.0833
 5955W        W10155   1.721   0.832  12.135  0.0972 -0.0395 -0.0286
 5956W        W10156   1.661  10.173   2.659 -0.1012  0.0047  0.2466
 5957W        W10157   3.021   0.841  13.560 -0.2518 -0.0514 -0.0793
 5958W        W10158   2.059   6.004  10.303  0.3050 -0.0009 -0.1330
 5959W        W10159   9.496   7.414  11.103 -0.2649  0.1488 -0.1980
 5960W        W10160   8.515   4.197  11.021 -0.0347 -0.1338 -0.2068
 5961W        W10161   5.032   4.332  12.630 -0.0537 -0.1130 -0.4164
 5962W        W10162   4.941  10.046   4.906  0.2276 -0.1066 -0.0821
 5963W        W10163   8.051   9.260   4.418  0.0890 -0.2747  0.3492
 5964W        W10164   1.700   8.860  10.074  0.0277 -0.0752  0.1658
 5965W        W10165   3.001  10.030   4.586  0.1293  0.2012 -0.4393
 5966W        W10166   1.961   8.001   1.670  0.1383 -0.2763 -0.0905
 5967W        W10167   7.496   4.938   3.858  0.0255  0.0349 -0.0657
 5968W        W10168   7.122   7.414  13.482  0.0920 -0.1370  0.0728
 5969W        W10169   0.259   4.112   9.895  0.3845 -0.2309  0.0257
 5970W        W10170   7.806   6.484   1.260 -0.0040 -0.1690  0.0140
 5971W        W10171   3.307   3.352   1.542 -0.2121  0.0045 -0.3132
 5972W        W10172   2.226   8.617   3.304  0.0109 -0.0336 -0.0180
 5973W        W10173   0.672   5.198   3.325 -0.0596  0.0368  0.2520
 5974W        W10174  10.294   1.888  12.328  0.2162 -0.2284  0.1047
 5975W        W10175   1.263   6.905  10.850 -0.2302 -0.1971  0.1155
 5976W        W10176   4.216   5.866   4.944  0.1648 -0.0270  0.0665
 5977W        W10177   1.460   6.618   3.019  0.1189 -0.0653 -0.1791
 5978W        W10178   3.144   4.953   1.848 -0.2636  0.0593  0.1139
 5979W        W10179   8.742   7.051  10.321 -0.2183  0.0270 -0.1253
 5980W        W10180   1.068   8.210   0.291 -0.2125  0.1004 -0.1034
 5981W        W10181   4.800   1.764   0.647  0.2397 -0.0622 -0.1778
 5982W        W10182   0.324   0.157   2.702  0.1312 -0.1455  0.3968
 5983W        W10183   2.576   4.108  13.300  0.2750  0.1540 -0.0209
 5984W        W10184   9.661   6.081   1.786 -0.1913  0.0309 -0.2289
 5985W        W10185   0.915   7.712  12.716  0.0501  0.1888 -0.1287
 5986W        W10186   1.685  10.424   1.629  0.1609  0.1638 -0.0855
 5987W        W10187   6.630   9.010   3.834  0.0559 -0.4658 -0.0548
 5988W        W10188   8.812   6.149   0.664 -0.0755 -0.1492  0.1154
 5989W        W10189   4.679   0.426  12.832 -0.3348 -0.1351 -0.5641
 5990W        W10190  10.314   7.547  12.149  0.0872  0.1131 -0.1262
 5991W        W10191   6.420   0.943  13.183 -0.3060  0.3009 -0.0562
 5992W        W10192   2.666   6.084   1.998  0.1422  0.0504 -0.0344
 5993W        W10193   0.698   0.730  11.435 -0.0927  0.1528 -0.1842
 5994W        W10194   6.324   0.461   3.413 -0.0943  0.3477  0.1180
 5995W        W10195   4.925   7.407   5.610 -0.0826 -0.0099  0.2701
 5996W        W10196   8.421   8.991   3.684 -0.1051  0.0133 -0.0192
 5997W        W10197   1.311   5.057  12.088 -0.0809  0.0026  0.0192
 5998W        W10198   7.313   5.742  12.999 -0.0697  0.0976  0.3278
 5999W        W10199   9.758   0.656  12.119  0.0582 -0.2129 -0.1055
 6000W        W10200   9.122   2.231  12.535  0.0748 -0.3848 -0.0470
 6001W        W10201   7.279   6.572   2.532  0.1862  0.1765  0.1941
 6002W        W10202   1.461   4.576   3.084 -0.1526 -0.2023 -0.0879
 6003W        W10203   7.203   4.518  13.354 -0.0934  0.2173 -0.1645
 6004W        W10204   8.664   9.327   0.074 -0.0810 -0.0097 -0.2236
 6005W        W10205   8.402   1.984  12.187  0.0591 -0.0061 -0.0643
 6006W        W10206   5.916   7.395  12.784 -0.3068 -0.2814 -0.0271
 6007W        W10207   8.207   5.333   1.365  0.0200  0.3071  0.0499
 6008W        W10208   9.367   4.621  11.083  0.0156  0.1312  0.0771
 6009W        W10209   6.948   6.671  11.062 -0.1845  0.0608 -0.0534
 6010W        W10210   6.466   8.582   9.118  0.1177 -0.2195  0.2045
 6011W        W10211   4.648   3.971  12.746  0.1297 -0.2367  0.2412
 6012W        W10212   2.978   8.740  10.323  0.0431 -0.1014  0.1293
 6013W        W10213   6.073   8.853  12.854  0.2989 -0.1335  0.3474
 6014W        W10214   1.239   8.903   9.429 -0.1998 -0.0496  0.0998
 6015W        W10215   8.893   4.783  10.062  0.0906  0.2340  0.0982
 6016W        W10216   3.771   0.729  12.610 -0.0883 -0.1219 -0.2299
 6017W        W10217   3.887   5.016   3.122 -0.1365 -0.2313  0.1495
 6018W        W10218   5.078   3.622   8.923 -0.2058  0.1212 -0.0803
 6019W        W10219   7.517   9.079   3.737  0.2691 -0.2670  0.1580
 6020W        W10220   5.563   1.276  11.173  0.1526 -0.0785 -0.0104
 6021W        W10221   4.253   0.161   9.629 -0.0380 -0.0338 -0.0673
 6022W        W10222   7.589   0.814   4.331  0.0268 -0.3917 -0.0646
 6023W        W10223   6.612   4.069  12.038  0.3406  0.1222  0.4691
 6024W        W10224  10.279   8.073  10.578  0.2159 -0.0994  0.1438
 6025W        W10225   7.412   7.150  12.624  0.1889 -0.0759 -0.0355
 6026W        W10226   6.887   0.397   1.200 -0.1027 -0.2632 -0.0425
 6027W        W10227   8.309   8.243  11.508 -0.1120  0.0033  0.2409
 6028W        W10228   8.020   5.430   2.787  0.2806  0.1138  0.1527
 6029W        W10229   7.372   9.513  11.656  0.2513 -0.1866  0.4326
 6030W        W10230   3.535   4.579   2.318 -0.1525 -0.1813 -0.0595
 6031W        W10231   1.522   9.505   1.299  0.0115  0.0866  0.1406
 6032W        W10232   8.750   2.822   9.255  0.0399 -0.0310 -0.0733
 6033W        W10233   0.194   1.712  10.757 -0.2430  0.1718  0.3160
 6034W        W10234   8.254   5.688   1.755  0.2081 -0.0215  0.0427
 6035W        W10235   6.071   3.999   1.271  0.2741  0.3407  0.0544
 6036W        W10236   8.899   7.915   2.792 -0.4117 -0.1885  0.0081
 6037W        W10237   0.571   9.125   2.768 -0.1422  0.1134  0.0039
 6038W        W10238   6.061  10.289   1.692 -0.1625  0.2031 -0.0120
 6039W        W10239   8.567   0.085   4.528  0.0085 -0.1313 -0.0904
 6040W        W10240   9.786   6.333  10.068  0.0994 -0.1563  0.1901
 6041W        W10241   3.997   0.400   4.224  0.1160  0.1337 -0.0638
 6042W        W10242   5.861   0.186   3.498  0.0365  0.1235  0.1596
 6043W        W10243   8.109   7.720   0.806 -0.0985 -0.0917  0.0626
 6044W        W10244   8.874   8.623   3.691  0.0558  0.3467  0.2584
 6045W        W10245   7.173   5.636   1.409 -0.0244 -0.0064 -0.2138
 6046W        W10246   6.874   0.580  10.059 -0.0236 -0.3115 -0.0950
 6047W        W10247   2.280   1.770   0.445 -0.0807  0.0600  0.1820
 6048W        W10248   5.025   4.183   9.554 -0.0036 -0.1259  0.1106
 6049W        W10249   8.756   8.358  11.404 -0.4490  0.1317 -0.2174
 6050W        W10250   1.142   5.815   9.903 -0.0935 -0.1212  0.0791
 6051W        W10251   0.160   9.724  10.018 -0.0317  0.3878 -0.0410
 6052W        W10252   9.774   7.519  12.184  0.1515 -0.0031 -0.0792
 6053W        W10253   3.504   4.809  10.288 -0.0088 -0.1416  0.1506
 6054W        W10254   9.959   0.868  10.217 -0.4723  0.0824 -0.0069
 6055W        W10255   1.544   1.709  11.062 -0.1808 -0.0834 -0.0495
 6056W        W10256   7.193   3.827  13.083  0.2716 -0.1144 -0.1087
 6057W        W10257   3.449   9.962  12.145 -0.2129 -0.0499  0.1013
 6058W        W10258   8.211   7.554  12.861 -0.3214  0.3444  0.1209
 6059W        W10259   8.778   9.190   8.979 -0.0800 -0.1928  0.0158
 6060W        W10260   6.822   4.997   9.531  0.1003 -0.1304  0.0602
 6061W        W10261   3.781   6.818  13.006 -0.1196 -0.1449  0.1754
 6062W        W10262   5.311   4.259   3.947  0.0783 -0.3691 -0.1370
 6063W        W10263   6.175   6.709  13.411 -0.2742 -0.1340 -0.4087
 6064W        W10264   9.538   7.746   0.259  0.0227 -0.0418  0.1071
 6065W        W10265   4.412   0.280   2.309  0.4889  0.2212  0.1879
 6066W        W10266   6.110   8.372  11.716 -0.1201 -0.0877  0.0762
 6067W        W10267   0.458   0.470   9.368  0.1022  0.2635  0.0720
 6068W        W10268   1.140   3.659  10.494  0.2272  0.0383  0.2184
 6069W        W10269   0.612   3.709  11.172 -0.0913  0.0379 -0.2615
 6070W        W10270   3.870  10.038   1.907 -0.0536  0.1626 -0.0001
 6071W        W10271   8.530  10.426   9.033 -0.2699 -0.0006 -0.1419
 6072W        W10272   3.143   5.244   9.470  0.1614 -0.1795 -0.2851
 6073W        W10273   8.925   0.509  11.914 -0.1253 -0.0772  0.2703
 6074W        W10274   5.524   3.865   0.977 -0.1560  0.3745  0.0807
 6075W        W10275   0.519   8.412  10.423  0.0855 -0.2032  0.1565
 6076W        W10276   1.701   4.868   2.465  0.0226 -0.3376  0.0836
 6077W        W10277   1.377   1.355  13.071  0.0207  0.2403 -0.0880
 6078W        W10278   9.334   6.768  12.324  0.5370  0.1140  0.2588
 6079W        W10279   5.436   2.321   4.146  0.2450 -0.1899 -0.2332
 6080W        W10280   9.374   4.622   3.866 -0.0052  0.3601  0.4748
 6081W        W10281  10.382   8.020   0.851 -0.3168  0.2209 -0.0114
 6082W        W10282  10.290   8.537   3.892  0.2151  0.2127  0.3577
 6083W        W10283   3.665   6.367  12.207 -0.2846 -0.0216  0.2890
 6084W        W10284   7.694   8.179  12.805 -0.0000  0.0493 -0.3620
 6085W        W10285   5.236   0.513   9.318  0.2125  0.0097  0.1270
 6086W        W10286   5.183   5.148   0.559  0.2576 -0.0221 -0.1339
 6087W        W10287   6.240   8.117   9.541 -0.0436 -0.2989 -0.3884
 6088W        W10288   9.378   7.958   1.066  0.5197 -0.2240 -0.0456
 6089W        W10289   4.975   6.767   9.730 -0.0508  0.0487 -0.0075
 6090W        W10290  10.184   3.015   1.626  0.0205 -0.0087 -0.2039
 6091W        W10291   8.966   4.363   3.212  0.0947  0.0590  0.1042
 6092W        W10292   1.119   6.567  12.364  0.3840 -0.0611  0.0125
 6093W        W10293   9.958   7.372   2.256 -0.2135  0.0869  0.0974
 6094W        W10294   6.447   3.453  13.072  0.2570  0.1850 -0.0494
 6095W        W10295   2.941   9.671   2.891  0.0365  0.0087  0.0713
 6096W        W10296   5.553   6.178  11.335  0.0515 -0.4093 -0.1787
 6097W        W10297   1.752   8.848   9.463 -0.0410 -0.0055  0.2275
 6098W        W10298   5.394   0.270   1.139 -0.0407  0.1499  0.3616
 6099W        W10299   4.376   0.646  11.221 -0.0118  0.2228 -0.1798
 6100W        W10300   5.598   2.802  13.068 -0.0365  0.3062 -0.0584
 6101W        W10301   3.463   4.498  13.534 -0.1881 -0.2327  0.0349
 6102W        W10302   7.201   8.228  12.774  0.1851 -0.0501 -0.1253
 6103W        W10303   0.910   0.206   1.065 -0.5977 -0.3884 -0.2633
 6104W        W10304   2.652   4.780   3.869  0.1004 -0.0094 -0.0892
 6105W        W10305   9.180   5.427  11.235  0.0616  0.0552 -0.3285
 6106W        W10306   9.676   9.578   1.639  0.0555 -0.1074 -0.1666
 6107W        W10307   3.576   4.081   1.125  0.3133  0.0422  0.4420
 6108W        W10308   3.564   7.298  12.735  0.1233 -0.0627  0.0078
 6109W        W10309   1.577   3.846   1.644 -0.2961  0.1059  0.2647
 6110W        W10310   8.359   9.749  11.218 -0.2008  0.6596  0.0298
 6111W        W10311   3.542   6.169   1.255 -0.1628  0.2192 -0.2463
 6112W        W10312   3.351   0.396  12.446 -0.3370 -0.0844 -0.0949
 6113W        W10313   9.721   8.440  11.058  0.3755  0.0487 -0.1350
 6114W        W10314   9.755   9.137   9.722 -0.2601 -0.0818  0.1945
 6115W        W10315   7.735   7.448   3.099  0.0317 -0.1083  0.3132
 6116W        W10316   6.224   2.675   3.647 -0.3531 -0.0280  0.0009
 6117W        W10317   6.499   6.619  12.902 -0.1887 -0.1460  0.3315
 6118W        W10318   2.505   4.009  10.457 -0.0756  0.0234  0.0574
 6119W        W10319  10.048   7.877   3.284  0.0940  0.0361 -0.1871
 6120W        W10320   5.760   9.019   0.260  0.2150 -0.0106  0.2291
 6121W        W10321   7.377   3.767   0.390  0.1900 -0.1486 -0.1152
 6122W        W10322   8.028   7.119  13.049  0.1543 -0.3683 -0.1269
 6123W        W10323   3.502   4.052  10.702  0.0979 -0.0142  0.1149
 6124W        W10324   5.859   3.127   1.496 -0.1531 -0.1569 -0.0829
 6125W        W10325   9.104   6.336  12.234 -0.0440  0.1054 -0.1617
 6126W        W10326   5.214   8.518   0.274 -0.3381 -0.1506  0.0055
 6127W        W10327   8.702   3.193   0.396 -0.2124  0.0595 -0.2970
 6128W        W10328   0.098   9.899  11.852  0.0072  0.0402 -0.2571
 6129W        W10329   9.600   4.414  10.580  0.1242 -0.1846  0.2168
 6130W        W10330   7.213   2.053  10.940 -0.2449  0.1450  0.1131
 6131W        W10331   7.688   1.848   9.096  0.0952 -0.1380  0.3592
 6132W        W10332   3.035   9.060   3.671  0.0042  0.2643 -0.0542
 6133W        W10333   8.273   1.348   5.007 -0.3375  0.2109  0.1965
 6134W        W10334   4.110   6.993   0.315 -0.2754 -0.2228 -0.1062
 6135W        W10335   3.745   5.887   1.722 -0.0834 -0.1078 -0.3384
 6136W        W10336   9.628   7.262   0.168  0.0056 -0.1807 -0.1518
 6137W        W10337   2.528   9.264   4.115  0.1413  0.1048 -0.0474
 6138W        W10338   1.661   6.233   2.801 -0.1419  0.1804  0.2438
 6139W        W10339  10.047   7.748  12.574 -0.1363  0.1324 -0.5610
 6140W        W10340   3.589   1.754   3.287  0.3237  0.0704  0.2091
 6141W        W10341   8.218   8.399   3.077  0.1873  0.5332  0.1473
 6142W        W10342   1.201   1.810  12.924 -0.0021 -0.0459 -0.1821
 6143W        W10343   2.196   8.481  11.077 -0.1176 -0.1223  0.0337
 6144W        W10344   7.422   6.474   0.277 -0.1751 -0.1384  0.1011
 6145W        W10345   7.938   4.462  10.380 -0.2678  0.2402  0.0975
 6146W        W10346   4.634   7.749   8.564  0.0345 -0.0195 -0.2732
 6147W        W10347   7.590   5.776   2.754  0.1746  0.1533  0.2201
 6148W        W10348   2.599   1.675  10.334 -0.2233 -0.0470 -0.0468
 6149W        W10349   3.947   1.911  10.645  0.1377 -0.1332 -0.1676
 6150W        W10350   9.870   5.554  11.948 -0.0682  0.1735 -0.0510
 6151W        W10351   2.495   2.884   1.359 -0.1193  0.0534 -0.0606
 6152W        W10352   4.615   6.416  12.714 -0.0276  0.0403 -0.1264
 6153W        W10353   4.352   2.638   0.597  0.0131  0.0356 -0.2145
 6154W        W10354   2.377   0.215   0.149 -0.1760  0.1147  0.0373
 6155W        W10355   9.393   3.869  13.148 -0.0971 -0.1707  0.0439
 6156W        W10356   3.727   0.516   9.116  0.0142 -0.1302 -0.1468
 6157W        W10357   5.486   3.838  10.266 -0.1178 -0.2246  0.0574
 6158W        W10358   0.244   9.336  13.237  0.0598 -0.0382  0.2953
 6159W        W10359   4.862   8.861  11.290  0.0293  0.3779 -0.1450
 6160W        W10360   6.939   7.237   3.640  0.2932  0.0257 -0.1466
 6161W        W10361   3.804   6.079   3.099  0.2338 -0.1648 -0.1245
 6162W        W10362   4.799   0.574   0.592  0.3759 -0.0531 -0.0766
 6163W        W10363   3.207   3.903   0.740  0.2594  0.2311  0.0886
 6164W        W10364   0.603   7.854  13.083 -0.2723  0.1627 -0.2801
 6165W        W10365   8.290   6.790   3.602 -0.2256 -0.0309 -0.0097
 6166W        W10366   0.756   3.698   2.247  0.1507  0.6874  0.3187
 6167W        W10367   6.616   7.304  13.504  0.1395 -0.1664  0.1656
 6168W        W10368   1.666   8.546   9.100  0.0787 -0.0272  0.0556
 6169W        W10369   7.765   9.476   9.798 -0.1540  0.2120  0.0081
 6170W        W10370   0.941   6.537   0.590 -0.1231 -0.0577 -0.0831
 6171W        W10371   7.957  10.237  12.932 -0.4560  0.2480 -0.1411
 6172W        W10372   2.775   6.265  13.174 -0.1237 -0.0238  0.0056
 6173W        W10373   1.897   6.330   0.483  0.0113  0.2450  0.2138
 6174W        W10374   6.896   4.058   1.681  0.0671  0.1596 -0.2094
 6175W        W10375   6.940   1.667  10.858 -0.1056  0.1614  0.0118
 6176W        W10376   9.907   8.933  12.873  0.3761 -0.1566 -0.1496
 6177W        W10377   9.507   3.693   3.729 -0.2358 -0.3363 -0.0644
 6178W        W10378   1.616   4.284   0.273 -0.0289  0.0014  0.3766
 6179W        W10379   5.753   6.252  12.091  0.2330 -0.0070  0.1576
 6180W        W10380   2.472   2.333  11.162  0.0021  0.2060 -0.2528
 6181W        W10381   9.053   6.449  11.366  0.0718  0.0658  0.0861
 6182W        W10382   6.217   5.392   0.458 -0.0036  0.4128  0.3280
 6183W        W10383   6.118   8.259   2.767  0.1897 -0.0649 -0.0070
 6184W        W10384   1.928   3.195  11.422 -0.1788 -0.0938 -0.0468
 6185W        W10385   8.224   7.557   0.268 -0.1035  0.2364 -0.0392
 6186W        W10386   1.723   8.866   4.566  0.2756  0.3948 -0.1888
 6187W        W10387   3.694   1.505   0.347  0.0460 -0.1185  0.2647
 6188W        W10388   7.534   4.941  13.493  0.1554 -0.0510  0.4422
 6189W        W10389   0.644   9.800   9.336  0.0468 -0.1235 -0.1892
 6190W        W10390   1.100   7.338  11.082  0.0970  0.0789  0.0864
 6191W        W10391   7.417   8.209  10.053 -0.1049  0.1720 -0.0109
 6192W        W10392   6.277   5.877   1.045 -0.2734 -0.0323  0.0219
 6193W        W10393   8.092   0.680  12.905  0.1122 -0.2292 -0.2434
 6194W        W10394   9.963   4.746   3.284 -0.0142  0.2477  0.0636
 6195W        W10395   2.912   7.479  12.691 -0.1580  0.0745  0.2440
 6196W        W10396   4.285   1.266   2.069 -0.0095 -0.3384  0.1863
 6197W        W10397   9.203   3.201   0.143  0.0111 -0.0115 -0.2516
 6198W        W10398   8.314   7.116   0.659  0.0171 -0.0336 -0.0164
 6199W        W10399   2.499   6.013   3.580  0.1269  0.3008  0.0891
 6200W        W10400  10.231   3.342   0.554 -0.1681 -0.0404  0.0004
 6201W        W10401   2.063   5.390  13.078  0.1685  0.0113 -0.3648
 6202W        W10402   5.981   1.982   0.153 -0.1631  0.0174  0.1242
 6203W        W10403   8.995   3.116   0.795  0.1547 -0.3413 -0.1120
 6204W        W10404   7.611   9.005  10.920  0.1244  0.1026  0.1305
 6205W        W10405   3.807   5.656   0.733  0.0771 -0.2044  0.4406
 6206W        W10406   9.336   3.714   2.755  0.1122  0.0326 -0.2718
 6207W        W10407   7.016   7.175   0.790  0.2841 -0.1485 -0.0134
 6208W        W10408   3.114   2.238   1.316 -0.2361 -0.0898  0.0439
 6209W        W10409   7.210   2.179   5.151 -0.1868  0.2714  0.0111
 6210W        W10410   1.767   0.475  13.018 -0.0416  0.1038 -0.0700
 6211W        W10411   4.304   2.752   3.915 -0.1023 -0.1803  0.1125
 6212W        W10412   7.528   3.140   8.603  0.3253 -0.2385  0.0735
 6213W        W10413   9.021   7.607  10.325 -0.1252 -0.1151 -0.0593
 6214W        W10414   8.241   1.729   2.064  0.1645 -0.1387  0.4240
 6215W        W10415   7.604   5.754  11.973  0.1879 -0.3939  0.1833
 6216W        W10416   4.633   2.739  10.005 -0.1900 -0.2056 -0.0207
 6217W        W10417   1.426   0.016   3.152  0.3471 -0.4093 -0.0976
 6218W        W10418   2.810   6.795   0.347 -0.2556 -0.1818 -0.0922
 6219W        W10419   4.734   4.875   4.400  0.1840  0.2244 -0.0405
 6220W        W10420   7.500   2.500   2.438 -0.2897 -0.0979  0.2340
 6221W        W10421   3.858   6.880   4.732  0.1576  0.1036 -0.1764
 6222W        W10422   6.040   5.198  13.564  0.4284  0.1361 -0.2156
 6223W        W10423   8.614   3.616   9.346  0.3033  0.0214 -0.4764
 6224W        W10424   4.792  10.089   1.963  0.0842 -0.0390 -0.0764
 6225W        W10425   9.799   5.942   0.196 -0.1411 -0.0043  0.0702
 6226W        W10426   9.946   7.276   3.852 -0.1104 -0.0696 -0.0941
 6227W        W10427   9.776   1.976  11.211 -0.0039 -0.1255  0.1829
 6228W        W10428   5.352   0.735   2.137 -0.0821  0.2454 -0.3335
 6229W        W10429   3.839   4.271  12.430  0.0214  0.0020 -0.3194
 6230W        W10430   2.218   7.985  11.317 -0.2872  0.0528 -0.1668
 6231W        W10431   6.347   7.714  13.367  0.1274  0.1171  0.2224
 6232W        W10432   0.809  10.341   3.872 -0.1535 -0.2548 -0.0339
 6233W        W10433   7.992   9.962   9.895 -0.0886  0.5103  0.0149
 6234W        W10434   5.749  10.187  12.949 -0.2691  0.1370  0.0936
 6235W        W10435   6.095   3.671   2.295  0.1843 -0.0594  0.1915
 6236W        W10436   7.667   3.820   3.498  0.2971 -0.0745  0.2852
 6237W        W10437   2.812   4.926  11.450  0.0654 -0.1042  0.1934
 6238W        W10438   7.194   2.477   4.757  0.1587  0.1180 -0.1226
 6239W        W10439   0.295   8.167  13.486 -0.2155  0.0809  0.0819
 6240W        W10440   7.198   5.145  11.503 -0.0375 -0.0179 -0.0155
 6241W        W10441   3.856   8.947   4.728 -0.3101  0.1166  0.0655
 6242W        W10442   6.610   8.363  10.687  0.3189  0.1479 -0.0455
 6243W        W10443   5.514   3.020  11.041  0.1803 -0.0003  0.0233
 6244W        W10444   0.769   7.121   3.278 -0.0642  0.0220  0.1098
 6245W        W10445   8.228   0.597   3.290  0.0121  0.2532  0.2740
 6246W        W10446   6.772   1.470   9.101 -0.2046 -0.0200 -0.0889
 6247W        W10447   0.998   9.018  11.026 -0.2494 -0.1870 -0.1740
 6248W        W10448   0.626   1.449   2.939 -0.4150  0.2072 -0.1455
 6249W        W10449   9.973   6.516  11.064 -0.0784 -0.2836 -0.1096
 6250W        W10450   5.432   8.600  12.917  0.0024 -0.0762  0.2486
 6251W        W10451   9.039   1.689   5.023 -0.2887 -0.3253  0.1685
 6252W        W10452   9.710   3.366   2.546 -0.0048 -0.1727 -0.0258
 6253W        W10453   7.190   9.486   2.428 -0.2815  0.0392 -0.1930
 6254W        W10454   5.376   8.663  10.960 -0.0331 -0.1134 -0.0618
 6255W        W10455   2.994   8.906  11.873  0.0758  0.1529 -0.0212
 6256W        W10456   7.179  10.401   3.934 -0.2440 -0.0394 -0.1272
 6257W        W10457   7.112   3.790   2.276 -0.3153  0.1569 -0.1595
 6258W        W10458   5.065   7.195   4.305 -0.4242 -0.1494 -0.2679
 6259W        W10459   3.353   2.575  13.187 -0.0763 -0.4635  0.2249
 6260W        W10460   7.400   8.442   4.572  0.0227 -0.2509 -0.4429
 6261W        W10461   9.777   4.362  12.396  0.1474  0.1863  0.2518
 6262W        W10462   8.644   8.725   4.983 -0.1028  0.1253 -0.1659
 6263W        W10463   5.651   7.994   4.387  0.4889 -0.1819  0.3382
 6264W        W10464   7.959   0.595   2.334  0.2319 -0.2142  0.1184
 6265W        W10465   9.731   7.967   2.874  0.3850 -0.0629  0.1842
 6266W        W10466   8.352   5.302  10.195  0.1515  0.1016  0.3757
 6267W        W10467   4.140   6.569   1.270  0.2928  0.0013 -0.3329
 6268W        W10468   9.119   0.015   1.973 -0.0014 -0.3673 -0.0609
 6269W        W10469   3.948  10.202   9.621 -0.2243 -0.0423 -0.1544
 6270W        W10470   8.041   3.975   4.815  0.0352 -0.0837  0.2624
 6271W        W10471   3.790   8.078   5.141 -0.0997 -0.4247 -0.0426
 6272W        W10472   8.494   5.946   9.001  0.1649 -0.1748 -0.0794
 6273W        W10473  10.243   5.125  11.111 -0.0827 -0.1130  0.0433
 6274W        W10474   3.764   2.635   0.710 -0.0134  0.0294  0.2700
 6275W        W10475   3.913   1.762  10.146  0.1467  0.2322  0.0844
 6276W        W10476   3.347   5.548   2.486 -0.1185 -0.1034  0.2524
 6277W        W10477   9.281   2.275   4.016 -0.1364  0.4121 -0.1021
 6278W        W10478   4.361   5.123  10.359  0.3168 -0.0694 -0.0062
 6279W        W10479   0.420   1.296  11.595  0.1763  0.1922 -0.2134
 6280W        W10480   5.010   8.251   2.657 -0.3731 -0.2805  0.0954
 6281W        W10481   7.022   4.179   0.318  0.2959 -0.0853 -0.0464
 6282W        W10482  10.374   6.880  13.149  0.2045  0.2745  0.0567
 6283W        W10483   1.801   8.414   9.836  0.2515 -0.1406  0.0725
 6284W        W10484   5.707   9.453   4.988  0.0879 -0.1307 -0.0758
 6285W        W10485   0.217   0.417   1.933  0.0103  0.0404 -0.0251
 6286W        W10486   3.957   5.124  12.893 -0.1044 -0.1668 -0.0072
 6287W        W10487   2.450   4.214   0.751 -0.0643  0.0274 -0.1287
 6288W        W10488   8.438   6.872  13.241  0.0882 -0.1262  0.0986
 6289W        W10489   7.751   1.750  11.728 -0.0565  0.2815  0.0572
 6290W        W10490   1.284   7.736  11.570 -0.0069 -0.2698 -0.1587
 6291W        W10491   6.819   5.802  11.028  0.1013 -0.1107  0.0118
 6292W        W10492   4.098   1.814   4.260  0.0303 -0.2497 -0.0209
 6293W        W10493   5.737   4.398  10.275 -0.0420  0.1452  0.1960
 6294W        W10494   9.436   0.248  10.405 -0.1009  0.2461  0.1467
 6295W        W10495   3.284   5.295  10.278 -0.0774  0.0629  0.5429
 6296W        W10496   6.480   1.772  12.827  0.1495  0.3211  0.0350
 6297W        W10497   6.550   9.068  12.827 -0.0827  0.0058  0.1201
 6298W        W10498   7.993   5.429  11.983  0.1338  0.0340  0.2049
 6299W        W10499   4.763   0.819   2.939  0.0420 -0.0948  0.2131
 6300W        W10500   1.445   8.244   0.771 -0.0336  0.3020 -0.3639
 6301W        W10501   6.676   7.889   1.918  0.1871 -0.0034 -0.0884
 6302W        W10502   1.357   3.952  11.918  0.0983  0.3108 -0.2726
 6303W        W10503   3.345   2.645   1.016 -0.0703  0.0440 -0.3624
 6304W        W10504   6.802   5.197   8.858 -0.1943 -0.2695  0.1262
 6305W        W10505   6.567   4.558   0.695 -0.3178 -0.0221 -0.3720
 6306W        W10506   4.203   5.764   3.079 -0.0958  0.3288  0.1018
 6307W        W10507   2.067   7.165   3.054 -0.1810 -0.0479  0.0582
 6308W        W10508   7.355   6.619  11.375 -0.1925  0.1833  0.0233
 6309W        W10509   0.080   7.798  10.272 -0.1366 -0.1160 -0.1442
 6310W        W10510   2.411   3.434   5.714  0.0458 -0.1761 -0.1413
 6311W        W10511   2.942   6.627  11.536 -0.1895 -0.1812 -0.0278
 6312W        W10512   4.544  10.378   1.520  0.0653  0.1264  0.3194
 6313W        W10513   8.975   7.382  11.221 -0.0345  0.1353  0.1088
 6314W        W10514   9.423   0.443   1.426  0.2441 -0.0873 -0.1732
 6315W        W10515   1.324   0.990   3.358 -0.2906 -0.0274 -0.0990
 6316W        W10516   8.060   4.336   0.176 -0.1244 -0.1231 -0.0253
 6317W        W10517   0.920   8.066  10.101 -0.2468  0.2205  0.0420
 6318W        W10518   6.084   6.653  12.592  0.1677  0.3039  0.1304
 6319W        W10519  10.207   0.197   2.561  0.5179 -0.0371  0.4352
 6320W        W10520   1.371   5.361  12.952  0.0435 -0.2561  0.0483
 6321W        W10521   2.094   8.290   9.232  0.1813  0.0128 -0.0601
 6322W        W10522   1.902   9.368  10.215 -0.0753 -0.0492 -0.3137
 6323W        W10523   8.868   3.900   3.911  0.0418 -0.2927 -0.1240
 6324W        W10524   6.533   0.404  13.104 -0.2822 -0.1985 -0.0743
 6325W        W10525   9.697   1.303  13.373 -0.0816  0.0600  0.4353
 6326W        W10526   8.685   1.412  11.969 -0.0043 -0.2518 -0.1271
 6327W        W10527   4.938   2.608  12.117 -0.1038  0.0150  0.2288
 6328W        W10528   1.361   6.720   0.792  0.0024 -0.1434 -0.0236
 6329W        W10529   5.421   7.529   2.743  0.1446 -0.1625 -0.0433
 6330W        W10530   0.811   4.614  12.398 -0.2496 -0.4105  0.1984
 6331W        W10531   4.811   2.421   2.899  0.1501 -0.1122  0.0918
 6332W        W10532   0.463   8.897  11.881  0.3389 -0.1659  0.0421
 6333W        W10533   9.657   9.203   2.054 -0.3417  0.5186 -0.3032
 6334W        W10534   2.816   0.245   3.935 -0.0080  0.3012  0.1253
 6335W        W10535   4.215   5.838  12.510  0.3270 -0.0823 -0.4816
 6336W        W10536   4.159   3.804   2.981  0.2937  0.1327 -0.0913
 6337W        W10537   5.631   1.794   1.179 -0.1940 -0.2361 -0.1009
 6338W        W10538  10.070   1.657   0.774  0.0407  0.3451 -0.4544
 6339W        W10539   8.175   5.107   9.723  0.0358  0.0881 -0.0446
 6340W        W10540   9.233   2.891  13.212 -0.0509 -0.0070  0.1161
 6341W        W10541   6.287   9.467   1.247 -0.0841  0.1237 -0.0454
 6342W        W10542   5.691   0.249  12.677  0.0514 -0.1985  0.0129
 6343W        W10543   8.475   6.383  12.943 -0.0588  0.0917  0.4305
 6344W        W10544   1.575   1.919  10.227  0.0498  0.1101  0.1993
 6345W        W10545   2.518   3.577   1.934  0.0454 -0.1111  0.0680
 6346W        W10546   2.944   0.361   9.123  0.1073 -0.0957  0.0952
 6347W        W10547   9.999   0.790  12.658  0.2243 -0.1362  0.1213
 6348W        W10548   3.724   1.950  11.147 -0.1221 -0.0465 -0.1081
 6349W        W10549   3.526   3.715  12.328 -0.1535 -0.0246 -0.1283
 6350W        W10550   0.804  10.090   4.544 -0.0519 -0.1620 -0.0259
 6351W        W10551   7.788  10.346   2.627 -0.1759  0.1207 -0.0961
 6352W        W10552   0.404   7.695  10.932 -0.2940 -0.1372 -0.3213
 6353W        W10553   2.277   0.510   2.363 -0.0476  0.1948  0.1361
 6354W        W10554   6.929   5.470   9.827  0.0558  0.1561 -0.0826
 6355W        W10555   5.962   5.302   9.053 -0.0179  0.4145 -0.1292
 6356W        W10556   3.564   8.078   0.750  0.0089 -0.0496  0.0470
 6357W        W10557   3.977   4.412   3.962 -0.1374 -0.0202  0.0021
 6358W        W10558   9.576   8.764   4.931  0.0569 -0.1981 -0.1920
 6359W        W10559   1.619   0.763  11.195  0.2852 -0.1760 -0.4043
 6360W        W10560   4.757   9.451   2.817 -0.2592 -0.1527 -0.0315
 6361W        W10561   5.192   5.213   9.659  0.4034 -0.0996  0.2366
 6362W        W10562   2.698   8.542   3.529 -0.2551  0.0222 -0.1242
 6363W        W10563   5.809   3.333   8.761  0.2807 -0.2621 -0.0653
 6364W        W10564   7.461   7.401   9.404  0.0130  0.2276 -0.1320
 6365W        W10565   9.987   9.548  12.655  0.0653  0.2377 -0.0994
 6366W        W10566   1.716  10.323   9.678  0.1645  0.2220  0.0548
 6367W        W10567   4.329   5.514   2.038  0.1266 -0.0782 -0.0120
 6368W        W10568   6.164   6.444  10.078 -0.0534 -0.0954 -0.0155
 6369W        W10569   5.323   8.134  11.510 -0.2368 -0.0050 -0.0303
 6370W        W10570   8.793   0.336   4.899 -0.2032  0.0314 -0.0425
 6371W        W10571   1.703   8.389  12.431 -0.3596 -0.1030  0.3308
 6372W        W10572   9.236   4.309  13.037  0.1516 -0.4253 -0.0265
 6373W        W10573   9.682   3.027   1.545 -0.0663 -0.0431  0.0778
 6374W        W10574   1.309   8.800  11.332 -0.2916  0.0169  0.0472
 6375W        W10575   7.656   4.548   4.513 -0.2045 -0.0386 -0.0314
 6376W        W10576   1.479   5.531   0.164  0.1610  0.1746  0.0926
 6377W        W10577   1.818   7.177   9.047 -0.1224 -0.0586  0.1089
 6378W        W10578   6.200   2.020  11.564 -0.1670  0.0885 -0.1837
 6379W        W10579   7.995   2.627   0.014  0.0598 -0.1927 -0.0831
 6380W        W10580   0.720   7.073   1.260  0.1179  0.0984 -0.0710
 6381W        W10581   4.485   6.266   4.771  0.3533  0.1301  0.4110
 6382W        W10582   9.305   7.332  12.098 -0.1303 -0.0984  0.0203
 6383W        W10583   8.549   7.353   8.879 -0.1914 -0.1351 -0.3932
 6384W        W10584   8.725   2.277  12.972 -0.1168  0.0410 -0.1288
 6385W        W10585   2.792   1.731   4.102 -0.1210 -0.2706 -0.0889
 6386W        W10586   4.923   9.599  12.036  0.0979 -0.0742 -0.1014
 6387W        W10587   9.857   1.249   9.348  0.0510 -0.1590  0.1735
 6388W        W10588   5.517   8.961   4.009 -0.0039  0.0305  0.0202
 6389W        W10589   0.063   5.461   0.627 -0.1950 -0.0176 -0.0195
 6390W        W10590   9.621   5.922   4.143 -0.0843  0.1885 -0.0622
 6391W        W10591   6.729   8.962   0.848 -0.0272  0.1207  0.0966
 6392W        W10592   3.061   2.364   2.840  0.1837  0.0348 -0.1043
 6393W        W10593   0.072   8.404   3.458 -0.1916 -0.2631  0.4275
 6394W        W10594   8.462   4.199   9.957  0.1932  0.1387  0.1279
 6395W        W10595   5.860   1.418   1.511  0.0631 -0.0487  0.1914
 6396W        W10596   9.297   4.926  12.061 -0.0680 -0.2189 -0.0132
 6397W        W10597   4.741   2.725   3.590  0.3344 -0.0908 -0.2887
 6398W        W10598   5.425   1.036   0.292  0.1782  0.1353 -0.1280
 6399W        W10599   9.905   2.215  12.475 -0.3770 -0.0807  0.0570
 6400W        W10600   7.717   4.179   2.229  0.3461  0.0994  0.4502
 6401W        W10601   4.856   3.814   0.029 -0.0953 -0.3034 -0.0287
 6402W        W10602   6.341   8.207   4.279 -0.2858 -0.1290 -0.3107
 6403W        W10603   2.734   4.018   3.416  0.1331  0.2364  0.0261
 6404W        W10604   6.033   2.501  12.819 -0.2449  0.1812  0.0874
 6405W        W10605   3.364   4.273   3.212  0.0177 -0.2851  0.3648
 6406W        W10606   7.562   5.171   0.586  0.0371  0.3481 -0.0875
 6407W        W10607   5.557   9.541   4.484 -0.1618 -0.0519 -0.1152
 6408W        W10608   9.355   0.418   9.531 -0.0893  0.2235  0.2271
 6409W        W10609   2.571   8.815   1.902  0.0145 -0.1066  0.1599
 6410W        W10610   4.154   7.592   2.985  0.2185  0.1032  0.0766
 6411W        W10611   7.305   3.181   0.277 -0.0571  0.2074  0.3759
 6412W        W10612   2.880   9.399  12.015 -0.1072 -0.2847  0.2730
 6413W        W10613   0.190   9.579   9.191 -0.1201  0.2975  0.1159
 6414W        W10614   0.325   5.319   1.011  0.0075 -0.0127  0.1267
 6415W        W10615   3.148   5.720   1.505  0.3628 -0.0730  0.0179
 6416W        W10616   8.971   0.359   2.334  0.0062 -0.0336 -0.1285
 6417W        W10617   8.298   4.018   4.411 -0.0388  0.1029  0.6776
 6418W        W10618   7.049   8.168   1.143  0.0974  0.0278  0.1858
 6419W        W10619   9.364   4.991  11.350  0.2649  0.2694  0.1119
 6420W        W10620   5.908   0.997   9.351  0.3246  0.1011 -0.0819
 6421W        W10621   8.216   4.362  13.265 -0.0357 -0.0278 -0.1683
 6422W        W10622   3.895   9.131   2.411  0.1766 -0.0003  0.0446
 6423W        W10623   3.086   1.491   1.794  0.3318  0.1141 -0.0269
 6424W        W10624  10.320   5.893  10.695 -0.1806 -0.0822  0.1086
 6425W        W10625   8.834   0.736   2.005 -0.1271 -0.1900 -0.1823
 6426W        W10626   7.190   8.195   0.598 -0.0166 -0.2048  0.1101
 6427W        W10627   0.914   7.126   0.075  0.1527 -0.4017  0.4363
 6428W        W10628   6.812   8.612   2.895  0.1227 -0.0522 -0.2280
 6429W        W10629   8.048   8.474   3.958  0.1355  0.0166 -0.0212
 6430W        W10630   8.172   6.977  11.062  0.1306  0.0550  0.0557
 6431W        W10631   0.083   5.079  12.343 -0.1650 -0.3284 -0.2464
 6432W        W10632   8.468  10.362  12.887  0.2798  0.2869  0.1254
 6433W        W10633   5.740   9.714  11.882  0.0311  0.1716 -0.0745
 6434W        W10634   8.386   4.138   3.873  0.1477  0.0440  0.0678
 6435W        W10635   1.161   5.139  10.690 -0.0723 -0.1958 -0.0614
 6436W        W10636   9.125   5.984   4.212 -0.2147  0.0082  0.1607
 6437W        W10637   3.308   0.205   4.842  0.0830  0.3727 -0.0960
 6438W        W10638   7.962   9.503  10.237  0.0302 -0.2826 -0.1467
 6439W        W10639   6.686   6.815   2.687 -0.1282 -0.0122 -0.0688
 6440W        W10640   9.330   5.072  13.035 -0.2289  0.0144  0.0398
 6441W        W10641   6.828   9.765   1.697  0.1272  0.2382 -0.1280
 6442W        W10642   2.818   7.783   4.429  0.0666  0.0129  0.0062
 6443W        W10643  10.339   1.085  11.858  0.3720 -0.0685  0.2850
 6444W        W10644   7.638   1.487   3.158 -0.0140  0.3254 -0.1414
 6445W        W10645   4.674   2.270  13.478 -0.1292 -0.3379 -0.1791
 6446W        W10646  10.016   2.495  12.867  0.1873 -0.0967  0.0386
 6447W        W10647   7.264   7.762   9.770 -0.3261 -0.0019  0.1860
 6448W        W10648   4.953   8.178   9.750 -0.1416 -0.1312  0.0702
 6449W        W10649   7.628   3.414  12.735 -0.2506  0.2360 -0.0671
 6450W        W10650   4.242   9.300  10.781  0.0924  0.4786  0.0113
 6451W        W10651   5.886   7.505   3.856  0.0864  0.1791  0.0067
 6452W        W10652   4.951   1.982   0.244 -0.1839 -0.2027 -0.1160
 6453W        W10653   7.998   0.302  13.170  0.1020  0.0704 -0.3995
 6454W        W10654   9.364   3.920   3.230 -0.1376  0.0695  0.1491
 6455W        W10655   6.333   1.541  11.196  0.2927 -0.0477  0.1122
 6456W        W10656   6.508   7.627   4.935  0.2116 -0.3260  0.0007
 6457W        W10657   5.023   9.626  10.632  0.1907  0.0602  0.1859
 6458W        W10658   8.260   7.541  11.197 -0.0824 -0.1713 -0.0609
 6459W        W10659   9.195   2.387  11.644 -0.3427 -0.0943 -0.0903
 6460W        W10660   4.405   3.071  10.291  0.0961  0.0403 -0.0327
 6461W        W10661   7.320   9.687   9.721  0.1096  0.2419 -0.1769
 6462W        W10662   1.485   9.474   0.059 -0.3704  0.1937  0.0058
 6463W        W10663   6.886   6.051   1.253  0.0218  0.1881  0.1899
 6464W        W10664   2.518   4.249  12.315 -0.1263  0.1992  0.0249
 6465W        W10665   2.943  10.032  12.430 -0.1971  0.1036 -0.0468
 6466W        W10666   7.022   0.481  13.005 -0.1214  0.0381  0.2234
 6467W        W10667   9.345   1.922   3.146 -0.2836  0.0499  0.0796
 6468W        W10668   6.918   1.059  13.189  0.0924  0.1229 -0.3489
 6469W        W10669   2.794   4.725  12.784 -0.0955  0.1978 -0.3974
 6470W        W10670   9.244   1.380   3.167  0.0142 -0.0325 -0.0140
 6471W        W10671   8.018   3.655  10.522 -0.1424  0.0103  0.0581
 6472W        W10672   4.254   3.114   0.593  0.0776 -0.0790  0.3539
 6473W        W10673   6.124   8.528   1.350 -0.1208  0.3073  0.1911
 6474W        W10674   7.830   7.394   0.507  0.2534  0.0759 -0.1518
 6475W        W10675   7.917   8.031  11.282 -0.0115  0.1375 -0.3080
 6476W        W10676   0.605   3.882  13.168 -0.1602 -0.1154  0.2704
 6477W        W10677   6.236   2.030  12.023  0.2363  0.2250 -0.3634
 6478W        W10678   1.934   7.504   4.426  0.0597 -0.4020 -0.1853
 6479W        W10679   1.891   6.950  12.514  0.0980 -0.1443  0.1642
 6480W        W10680   6.333   7.669   4.105  0.1158 -0.1139 -0.0663
 6481W        W10681   4.876   8.640   2.383  0.1238 -0.0632  0.2456
 6482W        W10682   5.727   8.148   1.483 -0.0885 -0.0830 -0.4776
 6483W        W10683   2.748  10.340   9.690  0.2270 -0.0712  0.1005
 6484W        W10684   0.188   5.165  11.847  0.1843  0.0738  0.0982
 6485W        W10685   6.297   2.678   9.867 -0.1309  0.1706 -0.0594
 6486W        W10686   4.894   2.797   1.629  0.0752  0.2520 -0.1311
 6487W        W10687   8.086   8.618   0.100  0.2522  0.1421 -0.0052
 6488W        W10688  10.100   0.774   0.893 -0.3260 -0.1433 -0.3230
 6489W        W10689   5.094   6.427  12.302  0.1244  0.0995  0.1279
 6490W        W10690   2.134  10.298  12.280 -0.2739 -0.0240  0.0645
 6491W        W10691   9.699   2.818   2.209 -0.0239  0.1386 -0.1707
 6492W        W10692   5.273   3.326  10.544 -0.3348 -0.0624 -0.1567
 6493W        W10693   5.439   5.607   4.582 -0.4321 -0.0693  0.1678
 6494W        W10694   0.568   3.483   1.463  0.1888 -0.3526  0.1012
 6495W        W10695   8.195   1.989   1.142 -0.1072 -0.1287 -0.2115
 6496W        W10696   4.467   1.805   0.105  0.2492  0.1175 -0.0287
 6497W        W10697   4.757   5.613  13.302 -0.0374 -0.2669 -0.3118
 6498W        W10698   4.465   0.952   0.516 -0.1554 -0.1792  0.3498
 6499W        W10699   1.568  10.109   4.251 -0.1645 -0.1533  0.1851
 6500W        W10700   1.869   7.951   5.330  0.0198  0.0131  0.3603
 6501W        W10701   2.235   0.120  10.903  0.0432  0.0217 -0.1848
 6502W        W10702   1.386   8.244   2.209 -0.0289  0.1124 -0.0677
 6503W        W10703   4.970   1.979   4.234 -0.0848  0.2463  0.0084
 6504W        W10704   1.202   0.637   1.910  0.1980  0.0805 -0.4205
 6505W        W10705   3.629   5.813   9.611 -0.0598  0.0595  0.1110
 6506W        W10706   2.884   1.918  13.345 -0.1336 -0.2715  0.0436
 6507W        W10707   3.127   8.568   2.589 -0.2404  0.0003 -0.2264
 6508W        W10708   3.969   4.330  11.528  0.1321 -0.0057 -0.0292
 6509W        W10709   8.034   7.917   3.357  0.2598 -0.2787 -0.0268
 6510W        W10710   6.107   6.673   4.600  0.0119  0.1585  0.0526
 6511W        W10711   8.679   9.978   9.222 -0.1597  0.0431 -0.2823
 6512W        W10712   8.670   0.572   1.189  0.0210  0.1876 -0.2533
 6513W        W10713   0.191   3.201   2.709  0.0402 -0.4387  0.0596
 6514W        W10714   1.367   2.270  11.894 -0.1201  0.0935  0.2386
 6515W        W10715   3.422   9.799   9.780  0.1212 -0.0401 -0.1701
 6516W        W10716   5.785   8.540   0.408 -0.0467  0.6034  0.1416
 6517W        W10717   2.835   8.232  13.549  0.0584  0.0765  0.2881
 6518W        W10718   1.916   1.313   1.899 -0.0198 -0.1053 -0.0159
 6519W        W10719   2.251   5.800   1.204  0.3232 -0.1839 -0.0235
 6520W        W10720   8.443   2.089  10.623  0.3443  0.1619  0.1593
 6521W        W10721   5.727   1.962   0.607  0.0190  0.2546  0.0116
 6522W        W10722   1.391   6.608   9.996 -0.0983  0.0511  0.2901
 6523W        W10723   5.607   4.707  10.701  0.1436 -0.0441  0.0599
 6524W        W10724   7.223   8.594   1.010  0.0134 -0.3416  0.0915
 6525W        W10725   2.494   7.883   0.161 -0.1398 -0.0197  0.1663
 6526W        W10726   7.887   7.070  10.172  0.1123  0.2620  0.1698
 6527W        W10727   7.071   5.639  12.162 -0.0426 -0.1181  0.0126
 6528W        W10728   4.143   6.135   3.892 -0.1699 -0.2883 -0.1029
 6529W        W10729   7.640   4.957   8.824 -0.1218 -0.2193  0.2725
 6530W        W10730   5.480   1.975   3.327  0.0014 -0.1132 -0.2153
 6531W        W10731   7.636   9.405  10.590 -0.1027 -0.0313 -0.3955
 6532W        W10732   2.989   8.447   9.865 -0.1343 -0.2497  0.2327
 6533W        W10733   8.273   6.312  12.401  0.3803 -0.1127  0.1760
 6534W        W10734   4.335   3.232  12.783  0.0372  0.0456 -0.0213
 6535W        W10735   0.297   2.705  11.198  0.1344  0.1534  0.3305
 6536W        W10736   6.041   8.942   3.991  0.1135  0.2481 -0.1560
 6537W        W10737  10.364   4.566   2.850 -0.5460  0.1400 -0.1580
 6538W        W10738   1.560   6.498   2.350  0.2431  0.0647 -0.2003
 6539W        W10739   3.792   3.169  12.028 -0.1763 -0.2166  0.0813
 6540W        W10740   0.837   9.019   9.618 -0.0391  0.2440 -0.0802
 6541W        W10741  10.326   4.686  13.467  0.0799  0.0495  0.1359
 6542W        W10742   9.932   2.799  11.031  0.1425  0.2565  0.0575
 6543W        W10743   5.488   6.002   0.148 -0.1074  0.1884 -0.1007
 6544W        W10744   5.161   5.571  12.374  0.0047  0.1377 -0.1473
 6545W        W10745   5.816   2.461  11.272  0.0023  0.3140 -0.0000
 6546W        W10746   2.140   5.578  11.416  0.1404 -0.3255  0.0607
 6547W        W10747   4.487   2.702   2.565  0.2036  0.0969 -0.2185
 6548W        W10748   9.979   4.389  11.542 -0.3462  0.4495  0.2441
 6549W        W10749   6.930   4.934  10.518  0.0377 -0.0702 -0.0686
 6550W        W10750   1.766   3.711  11.606  0.2710 -0.1610 -0.1725
 6551W        W10751   5.829   9.855   8.751  0.0437  0.3544  0.0678
 6552W        W10752   4.162   8.938   3.886  0.0650  0.2537  0.0480
 6553W        W10753   8.170   4.166   9.127  0.1635  0.0240  0.0024
 6554W        W10754   1.020   7.450  12.327 -0.3883  0.0515  0.0062
 6555W        W10755   1.026   6.758  10.336  0.0174  0.0137  0.1080
 6556W        W10756   8.552   9.401  12.032  0.1513 -0.2705  0.1351
 6557W        W10757   6.303   3.039   0.963 -0.3008  0.2450  0.1100
 6558W        W10758   1.483   2.216  13.255 -0.2354 -0.2997 -0.0949
 6559W        W10759   0.083   5.321  10.120 -0.2345  0.0733  0.2522
 6560W        W10760   4.339   4.792   3.979  0.1877 -0.0151 -0.1354
 6561W        W10761   0.866   0.988  10.660 -0.4251 -0.0543 -0.5651
 6562W        W10762   7.055   8.431   2.483 -0.1896  0.1228  0.3156
 6563W        W10763   0.846   7.122  11.550 -0.0256 -0.0302  0.0084
 6564W        W10764   2.871   4.027  12.048  0.3409 -0.1004 -0.3199
 6565W        W10765   8.732   3.960   2.676  0.1210 -0.1215  0.2456
 6566W        W10766   3.757   5.618   1.284 -0.2900 -0.2457 -0.0378
 6567W        W10767   6.849   4.926   3.114 -0.0458 -0.0664 -0.1351
 6568W        W10768   3.399   4.924   1.037 -0.0542  0.0720  0.2372
 6569W        W10769   9.686   6.179   2.680 -0.2909  0.0326 -0.1978
 6570W        W10770   7.940   7.411   1.115  0.2722  0.2365  0.1394
 6571W        W10771   5.609   5.673  12.694 -0.3237  0.0342 -0.2225
 6572W        W10772   1.407   0.499  12.528 -0.2383  0.1757 -0.0572
 6573W        W10773   0.571   7.906   8.967 -0.0030  0.0572  0.1298
 6574W        W10774  10.183   2.261  11.874 -0.1502 -0.2171  0.1725
 6575W        W10775   1.836   8.127   0.502 -0.1929 -0.0701  0.1376
 6576W        W10776   8.644   4.274   0.665 -0.1496  0.0624 -0.1298
 6577W        W10777   8.885   2.976   2.430  0.0548 -0.1539 -0.1458
 6578W        W10778   3.401   1.113  13.325 -0.0257  0.0537 -0.1166
 6579W        W10779   0.183   8.708   2.679  0.0128  0.3636 -0.0845
 6580W        W10780   9.283   6.333   9.819 -0.0863  0.0086 -0.1755
 6581W        W10781   2.176   7.081  11.550  0.1775 -0.0122  0.0437
 6582W        W10782   1.617   6.560  12.134 -0.2878 -0.1687 -0.1201
 6583W        W10783   2.172   1.064  12.409 -0.0310 -0.1409  0.3289
 6584W        W10784   8.988   5.582  10.758  0.1432  0.1408  0.1438
 6585W        W10785   7.452   9.330   9.333  0.0416 -0.0587  0.0462
 6586W        W10786   2.521   7.877   1.637 -0.3412 -0.0364  0.0323
 6587W        W10787   0.341   6.303   2.434  0.0001  0.1395  0.0459
 6588W        W10788   4.703   8.493   9.480  0.0052 -0.0833  0.0424
 6589W        W10789   1.735   2.810  10.424 -0.0348  0.2420  0.1654
 6590W        W10790   0.627   0.814   1.128 -0.2895  0.0852  0.1331
 6591W        W10791   8.900   1.825  12.231 -0.0840  0.0723 -0.2320
 6592W        W10792   7.057   8.545  11.902 -0.0625 -0.1353  0.0690
 6593W        W10793   7.381   6.025   1.638 -0.0194 -0.1097 -0.2566
 6594W        W10794   9.290   3.183   2.140 -0.0597  0.0207  0.0626
 6595W        W10795   3.911   7.676  12.602  0.0796  0.2361 -0.1486
 6596W        W10796   9.235   6.982  13.578 -0.2823  0.1708  0.0155
 6597W        W10797   0.803   7.668  11.411 -0.2359 -0.1460 -0.2427
 6598W        W10798   4.032   9.549   1.624 -0.2531 -0.2280  0.1801
 6599W        W10799   9.201   4.770  10.606 -0.1861  0.0071  0.1163
 6600W        W10800   9.445   8.625   3.916  0.2066  0.0387  0.1327
 6601W        W10801   2.948   5.674  10.276  0.3425 -0.1405 -0.0810
 6602W        W10802   7.699   7.308   2.347 -0.0953  0.2177  0.2610
 6603W        W10803   2.677   6.518   0.846  0.0682 -0.1085 -0.2847
 6604W        W10804   8.416   0.851   4.146 -0.2857 -0.0191 -0.0320
 6605W        W10805   0.408   5.305   2.469 -0.0454  0.0008  0.1852
 6606W        W10806   6.049   3.785  13.304  0.2056 -0.1782  0.1018
 6607W        W10807   2.182   5.982  12.486 -0.0344  0.3073 -0.0557
 6608W        W10808   6.195   1.456   0.092 -0.0210 -0.0060  0.0575
 6609W        W10809   3.839   3.388   9.433 -0.3013 -0.3169 -0.1709
 6610W        W10810   8.306   5.882  12.659  0.2422  0.0995 -0.4493
 6611W        W10811   7.966   9.744   4.287  0.1163  0.0168  0.1775
 6612W        W10812   6.653   3.238  11.407  0.2232 -0.0806  0.1101
 6613W        W10813   3.827   5.502   3.301 -0.0720  0.0565 -0.0380
 6614W        W10814   0.912   8.141   2.994  0.2780 -0.1363 -0.1150
 6615W        W10815   9.510  10.150   2.013 -0.0452 -0.2869  0.0033
 6616W        W10816   4.333   5.861  13.301  0.0940  0.1785  0.0144
 6617W        W10817  10.390   7.440   8.490 -0.1892  0.0062  0.2622
 6618W        W10818   0.730   8.022   9.430  0.1916  0.2585 -0.2600
 6619W        W10819   9.475   7.272   1.862  0.1587  0.0046  0.3463
 6620W        W10820   0.326   3.371  12.195 -0.2109  0.0535 -0.1619
 6621W        W10821   5.184   8.029   9.211  0.1030 -0.3656  0.0577
 6622W        W10822  10.405   0.490  12.682 -0.1951  0.1145 -0.2111
 6623W        W10823   6.969   9.663   4.171 -0.0732 -0.3934  0.2982
 6624W        W10824   8.446   8.322  10.003 -0.0195  0.0673 -0.2209
 6625W        W10825   2.835   3.468   0.784 -0.2009  0.0099  0.2187
 6626W        W10826   8.320   9.500   2.171 -0.0620  0.0202 -0.2280
 6627W        W10827   8.764   8.247  10.921  0.0317 -0.1455  0.2857
 6628W        W10828  10.268   4.620  11.065  0.2805 -0.3234  0.0321
 6629W        W10829   6.116   4.300   0.401  0.1264 -0.0034  0.0146
 6630W        W10830   2.666   4.544   3.398 -0.2346  0.1666  0.0835
 6631W        W10831   7.124   8.375  10.460 -0.2524  0.0340  0.2146
 6632W        W10832   3.291   7.252  12.235 -0.0233 -0.0958 -0.1672
 6633W        W10833   7.305   9.967  12.367  0.3788 -0.2653 -0.1591
 6634W        W10834   6.373   4.966   9.805  0.0978 -0.2633 -0.2120
 6635W        W10835   6.266   8.430  13.051  0.4077  0.2170  0.0325
 6636W        W10836   9.358   6.986   5.154 -0.2829  0.1118 -0.0319
 6637W        W10837   6.672   9.048  13.550 -0.0657  0.2241  0.0517
 6638W        W10838   0.884   5.636   3.263 -0.0203 -0.1407  0.0295
 6639W        W10839   8.644   0.660   2.625 -0.1234  0.0076  0.2258
 6640W        W10840   9.986   8.566   3.253  0.0199  0.0430  0.3952
 6641W        W10841  10.323   1.772   1.725  0.2500 -0.2733 -0.1827
 6642W        W10842   8.157   2.241   8.828  0.1859 -0.0612  0.0335
 6643W        W10843   0.570   7.818   1.282 -0.0681  0.0903 -0.0757
 6644W        W10844   5.883   0.058  12.276 -0.1781 -0.1481 -0.0027
 6645W        W10845   4.540   0.137   4.129 -0.2286 -0.2094  0.1175
 6646W        W10846   0.455   2.209   3.900 -0.3967  0.0654  0.1761
 6647W        W10847   4.431   8.294  11.854  0.5136  0.1497 -0.1530
 6648W        W10848   9.893   4.407   2.626 -0.2154  0.1586  0.1353
 6649W        W10849   8.551   7.200   3.359 -0.0533 -0.1998 -0.0838
 6650W        W10850   7.095   8.301   3.374 -0.1399  0.2430  0.0283
 6651W        W10851   8.442   2.360  13.465 -0.0956 -0.1701  0.1975
 6652W        W10852   3.975   1.605   1.794 -0.3680 -0.3313  0.1580
 6653W        W10853   2.204   1.410   1.512  0.1470 -0.0507  0.1666
 6654W        W10854   0.779   8.561   8.078  0.1231 -0.3068 -0.2562
 6655W        W10855   8.760   7.260  13.503  0.1061 -0.2344 -0.1250
 6656W        W10856   6.302   1.028  11.743  0.2527  0.0431 -0.1447
 6657W        W10857   8.971   9.185   5.067  0.1255  0.0428  0.2898
 6658W        W10858   0.136   6.441   0.557  0.2694  0.2763 -0.0578
 6659W        W10859   5.675   2.521   3.243  0.1550  0.1538  0.4153
 6660W        W10860   3.661   9.380   9.876  0.1833 -0.1689  0.0593
 6661W        W10861   1.686   6.218   3.307  0.1660  0.0681 -0.0134
 6662W        W10862   5.291  10.235   1.094  0.2065  0.0850  0.0189
 6663W        W10863   4.155   7.729  13.018  0.0281 -0.1871  0.0753
 6664W        W10864   6.535  10.322  13.000 -0.1602 -0.2227  0.0067
 6665W        W10865  10.159   9.793   0.524  0.1090 -0.3739  0.0363
 6666W        W10866   1.159   4.567   3.566 -0.1268 -0.1447 -0.0082
 6667W        W10867   5.473   8.592   2.551 -0.0368  0.3151 -0.1814
 6668W        W10868   6.007   8.025  13.239 -0.0405 -0.2855  0.1521
 6669W        W10869   6.504   4.847  12.934 -0.0356  0.2240  0.2099
 6670W        W10870   7.774   5.270   9.403 -0.1301  0.1985 -0.1976
 6671W        W10871   3.058   6.696   3.359 -0.0415  0.0065  0.0608
 6672W        W10872   5.145   9.730   8.960  0.0123 -0.0042 -0.0248
 6673W        W10873   1.605   0.882  13.428 -0.0546  0.1031  0.0077
 6674W        W10874   8.531   5.462  11.968  0.0308 -0.0871 -0.0817
 6675W        W10875   1.028   1.439  12.191  0.2939  0.0054 -0.0971
 6676W        W10876   0.987   3.052  12.686 -0.1754 -0.0505  0.1338
 6677W        W10877   7.780   6.610  11.145  0.0385 -0.0968 -0.1309
 6678W        W10878   0.871   6.183   2.486 -0.1940 -0.0859 -0.3455
 6679W        W10879   7.379   0.946  11.963 -0.4470 -0.0506 -0.3350
 6680W        W10880   8.269   9.135  10.269  0.0704 -0.0912 -0.0685
 6681W        W10881   6.421   9.004   2.693  0.0587 -0.1338 -0.2561
 6682W        W10882   4.400   1.956   1.583  0.2921 -0.1777  0.1312
 6683W        W10883   3.658   5.546  11.054 -0.3801 -0.0808  0.2125
 6684W        W10884   7.997   7.515   9.409  0.1500 -0.0742 -0.0723
 6685W        W10885   9.993   0.328  10.331  0.0958  0.0171 -0.2966
 6686W        W10886   0.073   4.813   1.839 -0.0232  0.1651  0.0140
 6687W        W10887   1.981   9.026  12.693 -0.2120  0.0262  0.3437
 6688W        W10888   8.307   0.574   9.767  0.1468  0.1501 -0.1967
 6689W        W10889   5.623   6.598  12.919 -0.0052  0.0593  0.0140
 6690W        W10890   5.219   2.459  13.066  0.1170  0.0095 -0.4088
 6691W        W10891   8.226   8.131   2.050 -0.1744  0.1896  0.2688
 6692W        W10892   5.817   8.258   3.447 -0.2516 -0.6029  0.0638
 6693W        W10893   8.766   0.842   4.899  0.0546  0.3043 -0.2971
 6694W        W10894   4.535   2.310  10.256 -0.2278  0.1924  0.0176
 6695W        W10895   9.799   6.577   3.046  0.2401 -0.3936 -0.1880
 6696W        W10896   6.178   1.221   9.730  0.3462 -0.1256 -0.0484
 6697W        W10897   6.847   7.858  12.664  0.0411 -0.2035 -0.3786
 6698W        W10898   8.466   2.196   2.213 -0.2907  0.0762 -0.0938
 6699W        W10899   0.731   4.528  10.285 -0.1757 -0.5369 -0.3164
 6700W        W10900   4.406   4.769   9.832 -0.1482  0.1613 -0.1356
 6701W        W10901   7.417   5.334  10.058 -0.0675 -0.2365 -0.0451
 6702W        W10902  10.409   0.265   0.951 -0.0895 -0.3101  0.1101
 6703W        W10903   2.726   9.977  11.342 -0.2794 -0.2498  0.0233
 6704W        W10904   7.695   2.368   1.832 -0.0104  0.2204 -0.0084
 6705W        W10905   1.153   1.632  10.155  0.0512 -0.1346 -0.2609
 6706W        W10906   5.058   6.283   2.869 -0.1413  0.0210 -0.0774
 6707W        W10907   8.418   3.349   9.752 -0.2374 -0.0831 -0.0297
 6708W        W10908   1.051   2.049  13.361 -0.2661 -0.1046 -0.2152
 6709W        W10909   4.368   5.882  10.750  0.1949 -0.3482  0.0808
 6710W        W10910   4.588   9.585  10.916 -0.1073  0.1564  0.0758
 6711W        W10911   4.011   2.042   1.215 -0.1033  0.0382 -0.3805
 6712W        W10912   4.498   8.746  13.031  0.2775  0.2081 -0.2427
 6713W        W10913   5.220   5.019   1.064  0.1742 -0.0563  0.2752
 6714W        W10914   0.655   8.659  10.847 -0.2051 -0.0100  0.0018
 6715W        W10915   1.197  10.226   1.228 -0.0526  0.1476  0.0854
 6716W        W10916   6.035  10.063   2.938 -0.0924 -0.3019  0.0073
 6717W        W10917   6.444   3.261  10.952 -0.1611 -0.0740  0.3782
 6718W        W10918   3.070   1.213  12.015  0.0044  0.2980  0.0911
 6719W        W10919   9.590   8.434   5.275 -0.0400  0.0235  0.0208
 6720W        W10920   6.746   2.990   9.498  0.1045 -0.3697  0.1700
 6721W        W10921   3.265   1.377   3.341 -0.1666  0.1051 -0.0287
 6722W        W10922   0.913   1.966   0.736  0.1647 -0.0703  0.0305
 6723W        W10923   2.899   8.995  11.348 -0.0106 -0.1945  0.1361
 6724W        W10924   0.959   9.581  13.395  0.0447 -0.2828 -0.1125
 6725W        W10925   7.485   0.212  10.741 -0.1828 -0.1782  0.0621
 6726W        W10926   8.590   7.320  10.907 -0.1923  0.3276  0.0912
 6727W        W10927   3.005   2.117   0.870  0.2421  0.2459 -0.0462
 6728W        W10928  10.067   1.249   3.572  0.0786 -0.0306 -0.2080
 6729W        W10929   9.965   4.815  12.598  0.3520  0.0390 -0.2671
 6730W        W10930   5.779   4.403   4.049 -0.0842 -0.0262  0.4569
 6731W        W10931   0.158   3.803   0.910  0.4802 -0.0895  0.1276
 6732W        W10932   2.377   8.283   0.526 -0.2001  0.2442  0.3962
 6733W        W10933   9.417   5.152   0.449  0.2141 -0.1295 -0.0968
 6734W        W10934   7.740   7.092   3.857 -0.0567 -0.0427  0.0614
 6735W        W10935   8.389   4.198   1.935  0.0503  0.0210  0.0317
 6736W        W10936   4.396   0.542  10.540  0.1213  0.0352  0.3730
 6737W        W10937   5.549   7.897   8.711 -0.0246  0.2137  0.2154
 6738W        W10938   0.585   9.859  12.083  0.0549 -0.0122  0.0205
 6739W        W10939   8.597   9.811   2.452  0.0066  0.0062 -0.0665
 6740W        W10940   1.634   3.587   2.119 -0.0265 -0.0464  0.1799
 6741W        W10941   6.324  10.330   1.077 -0.1912  0.0147  0.1300
 6742W        W10942   2.859  10.057   2.397 -0.0744  0.0321 -0.1205
 6743W        W10943   1.377   0.437  10.246 -0.1907 -0.0508 -0.3547
 6744W        W10944   6.778   0.537   4.324 -0.2324 -0.1191 -0.1577
 6745W        W10945   5.756   9.841  12.496 -0.1535  0.2965 -0.2081
 6746W        W10946   8.588   9.857  12.635  0.0088  0.0889 -0.3058
 6747W        W10947   3.736   2.714  13.440 -0.1851 -0.0407 -0.0383
 6748W        W10948   0.526   9.384  11.171 -0.1777  0.2467  0.0539
 6749W        W10949   3.772   8.540   3.768  0.2555 -0.4495  0.4235
 6750W        W10950   1.846   1.306  13.330  0.1804 -0.1933  0.0213
 6751W        W10951   7.702   7.951   9.691 -0.0978  0.0307  0.0260
 6752W        W10952   4.065   1.773   2.923  0.3778 -0.1516  0.1271
 6753W        W10953   7.701   5.537   2.299  0.2339 -0.1573 -0.3332
 6754W        W10954   7.452   6.223  10.433  0.0832  0.1979  0.0818
 6755W        W10955   8.222   7.914   4.387  0.0924 -0.2909 -0.1046
 6756W        W10956   3.698   8.679   5.583  0.1668  0.4987 -0.0180
 6757W        W10957   8.990   1.535   3.682 -0.0782 -0.4981 -0.0582
 6758W        W10958   2.183  10.179  12.737  0.1765  0.1742  0.1073
 6759W        W10959   4.443   8.859  11.681  0.0056  0.0885  0.0999
 6760W        W10960   2.765   6.264  11.854  0.1082 -0.3153  0.2297
 6761W        W10961   5.190   3.492  10.071  0.0629 -0.3015  0.0889
 6762W        W10962   4.392   2.882   1.974 -0.0804  0.2000  0.1625
 6763W        W10963   3.785   7.362  12.231 -0.1367  0.2445  0.0276
 6764W        W10964   3.094   0.713  11.086 -0.2397 -0.1439 -0.0858
 6765W        W10965   9.306   9.316   9.336 -0.1079  0.1200 -0.0967
 6766W        W10966   8.689   3.230   4.398 -0.1725  0.0680 -0.1117
 6767W        W10967   4.232   5.498   1.429 -0.2855  0.3137 -0.0863
 6768W        W10968   9.100   8.562   8.581 -0.0673  0.1135  0.2912
 6769W        W10969   9.167   6.369   1.933  0.1434 -0.1795 -0.0503
 6770W        W10970   9.343   7.828  13.027  0.0892 -0.0928 -0.2409
 6771W        W10971   1.909   9.291   3.023  0.1344 -0.0252 -0.1627
 6772W        W10972   2.313   2.205   5.454  0.1438  0.1867 -0.1136
 6773W        W10973   0.720   6.687   2.461  0.2721  0.0121 -0.0220
 6774W        W10974   3.531   8.386   2.961 -0.0352 -0.0180  0.0250
 6775W        W10975   3.471   3.133   0.022 -0.0424 -0.1739 -0.1993
 6776W        W10976   6.574   6.239   0.570 -0.0705  0.2275  0.0349
 6777W        W10977   9.842   8.506   2.686 -0.0007 -0.0722  0.0417
 6778W        W10978   4.214   3.380   9.837  0.2155 -0.1848 -0.1633
 6779W        W10979   2.704   6.609  12.240 -0.1360  0.2997  0.2438
 6780W        W10980   7.732   4.732   0.323 -0.0302  0.3008 -0.0964
 6781W        W10981   3.033   4.580   0.195 -0.0289  0.0492  0.0534
 6782W        W10982   7.690   9.400  11.971 -0.0221 -0.1200 -0.0477
 6783W        W10983   8.180   8.422  12.425 -0.2691 -0.1295 -0.1926
 6784W        W10984   3.832   8.861  12.204 -0.1832  0.1255 -0.2465
 6785W        W10985   4.061   7.246  10.492  0.2167 -0.0085 -0.0154
 6786W        W10986   7.373   5.758  12.498 -0.2163 -0.0921  0.0501
 6787W        W10987   1.821   0.797   3.177 -0.1893  0.1981 -0.0611
 6788W        W10988   7.654   7.877   1.838  0.3615  0.3884  0.2015
 6789W        W10989   8.977   4.757  12.847  0.0712  0.1281  0.1337
 6790W        W10990   2.309   3.349   1.484  0.0068 -0.0777 -0.2285
 6791W        W10991   4.359   0.440   0.375  0.0035  0.1684  0.1910
 6792W        W10992   2.599  10.266   3.807  0.1442  0.0753  0.1279
 6793W        W10993   1.634   9.404   4.714  0.2710  0.0307  0.0743
 6794W        W10994   0.209   6.387  11.629  0.3680 -0.0827 -0.1581
 6795W        W10995   9.685   4.227   2.210 -0.2987  0.2832  0.1318
 6796W        W10996   7.425   0.605  11.126  0.4250  0.2119  0.0430
 6797W        W10997   8.913   6.468   4.206  0.4043 -0.2701  0.0246
 6798W        W10998   2.168   0.163   1.547  0.0503 -0.1506 -0.0414
 6799W        W10999   3.341   5.266   0.529  0.3186 -0.1387 -0.0510
 6800W        W11000  10.273   9.512  11.862  0.2154 -0.3211 -0.1215
 6801W        W11001   6.756   3.621  10.611 -0.2078  0.0560  0.2493
 6802W        W11002   6.167  10.039  12.229  0.1070 -0.0786  0.1104
 6803W        W11003   5.552   7.945  12.008 -0.0810 -0.0064 -0.1566
 6804W        W11004   6.354   4.041   1.843  0.0002 -0.3003 -0.0764
 6805W        W11005   2.811   7.410   4.733 -0.2137 -0.1663  0.1171
 6806W        W11006   6.063   1.751  10.245  0.0306 -0.0884  0.1001
 6807W        W11007   9.732   8.143  12.770  0.0658  0.0719  0.1965
 6808W        W11008   3.771   8.318   1.196 -0.1622 -0.0972  0.0650
 6809W        W11009   7.419   2.619   1.127  0.1735 -0.2558 -0.2968
 6810W        W11010   5.602   3.021   3.361  0.1699  0.0405 -0.0442
 6811W        W11011   4.181   8.654  12.611 -0.0790 -0.1448 -0.0980
 6812W        W11012   8.703   5.105  11.360  0.1863  0.1994  0.1363
 6813W        W11013   6.276   9.244   0.237 -0.1530 -0.1916  0.3404
 6814W        W11014   7.497   2.564   8.224 -0.2077  0.1745  0.0639
 6815W        W11015   3.734   7.858  12.212  0.0673  0.0545  0.1090
 6816W        W11016   5.831   7.995   9.263 -0.4522 -0.1118  0.0794
 6817W        W11017   5.818   5.688   5.329  0.1115 -0.1786  0.0422
 6818W        W11018   8.435   9.379  12.548  0.0259 -0.0772  0.0919
 6819W        W11019   7.408   3.561  11.678  0.2631 -0.2481 -0.1164
 6820W        W11020   6.986   9.322  10.557  0.1912 -0.1057 -0.1181
 6821W        W11021  10.261   2.593  12.247  0.0886 -0.2756 -0.2792
 6822W        W11022   5.749   8.475  11.332  0.0974  0.0539  0.0927
 6823W        W11023   2.680   1.027  11.242 -0.2379 -0.0344  0.0997
 6824W        W11024   6.433   7.876  12.931  0.0829 -0.0214 -0.0014
 6825W        W11025   5.133   9.634   1.024 -0.2766 -0.0667 -0.0915
 6826W        W11026   0.066   7.219  11.692 -0.3039 -0.0749 -0.0416
 6827W        W11027   5.368   7.707   0.243 -0.0026  0.1844  0.3698
 6828W        W11028   9.490   7.662  10.120 -0.0202  0.2960  0.1277
 6829W        W11029   7.637   2.842   0.297  0.1382 -0.1516  0.0707
 6830W        W11030   3.455   0.349   2.254  0.2633  0.1546  0.0222
 6831W        W11031   5.654   5.420   9.827  0.2356 -0.3320  0.1872
 6832W        W11032   9.657   3.641   9.775 -0.2807 -0.0456 -0.0006
 6833W        W11033   1.899   6.353   1.970 -0.1085 -0.3120  0.1558
 6834W        W11034   7.147   1.268   3.054 -0.0980 -0.3243 -0.0216
 6835W        W11035   0.747   7.525  10.278 -0.0356 -0.0562  0.1170
 6836W        W11036  10.332   6.491   9.809 -0.1986 -0.2609 -0.0787
 6837W        W11037   2.149   6.790   1.676 -0.2045  0.0413  0.0433
 6838W        W11038   3.726   8.309   0.240  0.0929 -0.0425  0.1273
 6839W        W11039   1.510   3.029   1.318 -0.0516  0.4713  0.0846
 6840W        W11040   0.954   1.554   2.523  0.0970  0.1006  0.0386
 6841W        W11041   0.304   2.059   3.416  0.1819 -0.1853  0.0169
 6842W        W11042   5.369   8.525   3.355  0.0919 -0.1275 -0.1342
 6843W        W11043   6.242   7.307  11.665  0.0759 -0.1734 -0.0922
 6844W        W11044   1.722   4.071   5.906 -0.1831  0.0793  0.1083
 6845W        W11045   3.423   4.268   0.399  0.1348 -0.0535 -0.3570
 6846W        W11046   7.091   9.204   3.996  0.2179 -0.1025 -0.1116
 6847W        W11047   5.316   1.583  12.944  0.4763  0.1893  0.2123
 6848W        W11048   6.891   1.219   4.016  0.2825 -0.0230 -0.2495
 6849W        W11049   5.758   6.289   0.481 -0.0797  0.0914 -0.1979
 6850W        W11050   8.209   5.767   0.233 -0.0724 -0.1069  0.0444
 6851W        W11051   2.999   8.807   4.833 -0.1924 -0.1000 -0.1022
 6852W        W11052   8.343   4.891  13.073 -0.2573 -0.0862 -0.0382
 6853W        W11053   0.345   4.853   0.012  0.0832 -0.3702  0.3178
 6854W        W11054   2.485   2.146   0.135  0.3119  0.1669 -0.0682
 6855W        W11055   2.280   5.598   2.905 -0.2330 -0.2393  0.0270
 6856W        W11056   6.582   4.408   0.231 -0.0917 -0.4214  0.0738
 6857W        W11057   0.097   9.274   2.672  0.1562  0.1469  0.1354
 6858W        W11058   0.432   3.240  10.979  0.3222 -0.1361  0.1102
 6859W        W11059   9.946   7.712   1.885 -0.1025 -0.0078  0.0587
 6860W        W11060   2.370   4.737   1.387 -0.3689 -0.2330 -0.2231
 6861W        W11061   2.906   2.760   7.892  0.0365 -0.1257  0.1255
 6862W        W11062   6.396   0.597   3.963 -0.0500  0.0572  0.1028
 6863W        W11063   1.081   9.341   2.832 -0.1948  0.1553 -0.0619
 6864W        W11064   5.848  10.289   1.042  0.0322 -0.0686 -0.1418
 6865W        W11065   7.699   7.713   4.343  0.1529  0.0508 -0.0193
 6866W        W11066   3.795   2.074  12.629 -0.3784 -0.1535  0.2015
 6867W        W11067   5.928   4.034  10.512  0.0675  0.1469  0.0785
 6868W        W11068   8.263   6.815  12.244  0.2383 -0.3421 -0.0943
 6869W        W11069   2.545   9.019   3.578  0.1180 -0.4098  0.1021
 6870W        W11070   3.306   1.682   3.795  0.0257 -0.2635  0.0787
 6871W        W11071   8.032   2.996   9.939  0.1230 -0.1183 -0.2101
 6872W        W11072   0.743   5.534  11.447  0.0511 -0.1368  0.0150
 6873W        W11073   4.395   5.706   4.052  0.1252  0.2588 -0.0063
 6874W        W11074   0.143   4.029  12.912 -0.1974  0.1939 -0.1072
 6875W        W11075   7.760   0.046  11.601 -0.1466  0.1331 -0.0004
 6876W        W11076   7.881   6.518  10.222  0.0138  0.2786  0.2125
 6877W        W11077   3.961   3.298   3.028 -0.1479 -0.0296 -0.0319
 6878W        W11078   6.901   0.179   1.644 -0.5011  0.1942 -0.0586
 6879W        W11079   2.637  10.394  12.511  0.3429  0.0284 -0.2064
 6880W        W11080   7.335   7.329   4.114 -0.1539 -0.2064  0.3617
 6881W        W11081   3.108   9.443   9.606  0.3574 -0.2048 -0.3771
 6882W        W11082   9.420   7.449   3.225  0.0307 -0.0000  0.0136
 6883W        W11083   5.150   1.186   2.831  0.4202 -0.1981  0.0623
 6884W        W11084   3.786   2.972   9.726 -0.2399 -0.2942 -0.1707
 6885W        W11085   8.556   6.224   1.502 -0.1133  0.0602 -0.2697
 6886W        W11086   6.428   4.595  11.288  0.1042  0.0283  0.0527
 6887W        W11087   3.310   3.425   0.581  0.3046  0.3069 -0.0833
 6888W        W11088   9.676   2.825  12.144 -0.0174 -0.2945 -0.2521
 6889W        W11089   1.539   0.248   2.063 -0.1147 -0.2948 -0.2582
 6890W        W11090   9.698   0.519   2.374  0.1582 -0.1248 -0.0767
 6891W        W11091   1.659   6.962  11.754 -0.1878  0.0297 -0.0959
 6892W        W11092   1.720   5.639   2.937 -0.2818 -0.1716  0.0096
 6893W        W11093   8.107   2.008   1.613 -0.0640 -0.2413 -0.0989
 6894W        W11094   7.394   1.574   2.184  0.2343 -0.1289 -0.1885
 6895W        W11095   0.854   1.614   1.995 -0.0429  0.3683  0.0391
 6896W        W11096   0.746   1.224  10.155  0.2146  0.0446 -0.0907
 6897W        W11097   1.257   5.873   2.491  0.1756  0.0751 -0.0693
 6898W        W11098   0.998   0.172   2.054  0.1072 -0.2885 -0.0828
 6899W        W11099   5.139   4.929   1.668 -0.1011  0.2205 -0.3245
 6900W        W11100   7.419  10.329   4.485 -0.0136 -0.1543 -0.0626
 6901W        W11101   6.498   5.515   3.188  0.1428 -0.3012 -0.0525
 6902W        W11102   4.779   7.503   2.969  0.2670 -0.0218  0.0118
 6903W        W11103   4.949   8.439  11.022 -0.2030  0.2890 -0.0034
 6904W        W11104   9.719   7.024  12.095  0.1972 -0.1191 -0.0754
 6905W        W11105   0.751   1.786   1.562 -0.1830 -0.1496  0.0230
 6906W        W11106   2.963   5.771  11.919 -0.2470 -0.1215 -0.3019
 6907W        W11107   3.763   8.279   9.819  0.1487  0.0123 -0.0303
 6908W        W11108   5.749   1.653  10.823 -0.3133  0.0366 -0.1292
 6909W        W11109   9.749   2.106   2.885  0.2270  0.1324 -0.1371
 6910W        W11110   4.430   9.830   9.316 -0.2915  0.1217  0.0241
 6911W        W11111   8.194   2.491   1.792  0.0395 -0.1669 -0.0536
 6912W        W11112   7.289   1.902  11.713  0.1945 -0.0946 -0.1002
 6913W        W11113   0.562   4.380   2.797 -0.0506 -0.0805 -0.0030
 6914W        W11114   3.060   7.080   4.335  0.1967  0.1489 -0.5183
 6915W        W11115   1.672   7.710  13.392 -0.0444  0.0048  0.0434
 6916W        W11116   7.378   3.000  10.320 -0.1496 -0.3921  0.1858
 6917W        W11117   2.524   5.466   0.323  0.0403  0.0216  0.0255
 6918W        W11118   9.320   9.895   9.481 -0.0339  0.1181  0.3180
 6919W        W11119   3.994   0.344   2.762 -0.3576  0.4671  0.1122
 6920W        W11120   1.244   0.771  11.494 -0.1028 -0.0269 -0.0276
 6921W        W11121   9.771   1.831  10.542 -0.2221  0.0781  0.0278
 6922W        W11122   9.029   3.507   1.154 -0.0935 -0.1081  0.2010
 6923W        W11123   1.319   4.129   3.763 -0.0786 -0.4763 -0.0442
 6924W        W11124   3.748   5.714   3.916 -0.1447  0.1708  0.0509
 6925W        W11125   2.088  10.087   9.216  0.3099  0.0151 -0.0155
 6926W        W11126   3.068   5.292   0.127 -0.0493  0.0877  0.5540
 6927W        W11127   0.934   4.258   9.568  0.1472 -0.5048  0.2505
 6928W        W11128   4.832   2.948   0.614  0.0944 -0.0420 -0.2386
 6929W        W11129   3.585   6.261   0.366 -0.0636 -0.0907  0.2970
 6930W        W11130  10.370   7.877   5.380  0.2421 -0.2525 -0.1516
 6931W        W11131   9.175   9.560   3.613  0.1797 -0.0636  0.0753
 6932W        W11132   9.956   5.984  11.008  0.0451  0.3965  0.1970
 6933W        W11133   3.248   5.223  11.098  0.0775 -0.2071 -0.4220
 6934W        W11134   8.118   3.139   0.376  0.2488 -0.1050 -0.2001
 6935W        W11135   2.642   4.802   2.521 -0.0319  0.0405  0.0745
 6936W        W11136   5.950   5.754  12.086  0.3450 -0.2545 -0.1443
 6937W        W11137   3.116   7.653  10.231  0.0259  0.0016 -0.1400
 6938W        W11138   8.180   6.418  11.419 -0.2092  0.2329 -0.2363
 6939W        W11139   3.267   7.745  12.019 -0.1642 -0.0842 -0.0189
 6940W        W11140   5.088  10.352   3.198 -0.2400  0.5364 -0.2103
 6941W        W11141   7.317   1.482   0.348 -0.0057 -0.0605  0.1636
 6942W        W11142   3.585  10.281   9.951  0.0418  0.1524  0.0066
 6943W        W11143   5.224   4.293   0.573  0.0106 -0.1802 -0.3069
 6944W        W11144   4.589   4.848   3.565 -0.2129 -0.0013  0.1221
 6945W        W11145   9.144   6.871   3.866  0.3457  0.0258  0.2447
 6946W        W11146   6.506   7.468   1.042 -0.2118  0.1991  0.2373
 6947W        W11147   4.946   9.532  12.588 -0.0724 -0.2116  0.3092
 6948W        W11148   5.600   4.925   9.228  0.2736 -0.1841 -0.1550
 6949W        W11149   9.095   4.337  10.454  0.0515 -0.0135 -0.0252
 6950W        W11150   3.749   9.993   2.993 -0.0997 -0.0784  0.2470
 6951W        W11151   0.065   5.848   3.734  0.1246 -0.2287 -0.1605
 6952W        W11152   4.073   4.600  11.124  0.1592 -0.0185  0.1935
 6953W        W11153   3.227   2.250  11.367 -0.0218 -0.0620  0.0372
 6954W        W11154   7.331   3.816   9.303  0.1740  0.0273  0.0874
 6955W        W11155   9.963   1.363  10.067 -0.0338 -0.0757  0.2910
 6956W        W11156   3.749   5.294  11.634  0.2522  0.0777  0.2364
 6957W        W11157   5.007   3.430   0.713  0.0189  0.2307 -0.2239
 6958W        W11158   8.191   3.761  10.969 -0.0632 -0.1310 -0.0347
 6959W        W11159   6.197   7.861  11.040 -0.0355 -0.1723  0.1844
 6960W        W11160   4.461   5.652  11.556 -0.0408  0.0066  0.3818
 6961W        W11161   2.012   5.814   0.706  0.0911  0.3232 -0.0275
 6962W        W11162   0.303  10.044   9.026 -0.0212  0.3412  0.1103
 6963W        W11163   4.849   7.711   2.544 -0.2328 -0.1176  0.1120
 6964W        W11164   1.625  10.033  10.601 -0.1577  0.3334  0.1196
 6965W        W11165   4.509   1.859   2.711 -0.0679 -0.2907  0.0411
 6966W        W11166   4.482   6.911   2.979 -0.2347  0.0834  0.4340
 6967W        W11167   9.427   8.228   0.501 -0.1847 -0.1700  0.1361
 6968W        W11168  10.284   7.373   1.683  0.0798  0.3724 -0.1459
 6969W        W11169   0.419   8.492  11.639  0.0989 -0.4716 -0.0539
 6970W        W11170   3.989   7.091   0.992  0.0025  0.0897 -0.0745
 6971W        W11171   7.055   1.158   0.061  0.0493 -0.3225 -0.0808
 6972W        W11172   0.078   9.212  12.781 -0.0961 -0.1564  0.1956
 6973W        W11173   7.467   3.037  12.014  0.1697 -0.0734 -0.0009
 6974W        W11174   2.928   9.726   9.146  0.1767 -0.1046  0.1108
 6975W        W11175   3.960   0.763   0.913  0.0219  0.0863  0.0854
 6976W        W11176   2.594   1.281  12.569  0.0170 -0.0293 -0.3408
 6977W        W11177   6.989   1.412   1.621  0.1956 -0.1950  0.0545
 6978W        W11178   0.475   5.970   3.277  0.2777 -0.1322 -0.0581
 6979W        W11179   7.605   5.611  11.456  0.0707  0.1201 -0.0527
 6980W        W11180   3.133   4.444   3.605  0.1251  0.0183 -0.2401
 6981W        W11181   7.368   9.810  10.719 -0.3000  0.2086 -0.0964
 6982W        W11182   9.869   7.382  10.772  0.1460  0.1622 -0.1131
 6983W        W11183   7.713   1.218  13.446 -0.4162  0.0529  0.0340
 6984W        W11184   0.355   9.685   2.844 -0.1097 -0.0893  0.0569
 6985W        W11185   7.858   4.867   2.832 -0.2176 -0.0747 -0.0915
 6986W        W11186   1.372   4.863  13.143 -0.1486 -0.1552 -0.0677
 6987W        W11187   4.446   4.986   2.170  0.2662  0.0070 -0.0725
 6988W        W11188   4.386   3.156  12.139 -0.0757 -0.2343  0.3406
 6989W        W11189   5.356   2.360  12.192 -0.1876 -0.0267  0.2298
 6990W        W11190   7.876   3.744  11.710  0.1549  0.1059  0.1042
 6991W        W11191   6.051   7.104   4.264 -0.1084  0.1949 -0.1715
 6992W        W11192   2.048   3.819   2.825  0.0476  0.2508 -0.0110
 6993W        W11193   4.532   3.579   9.524  0.4016 -0.0487 -0.1276
 6994W        W11194   9.327   1.401  12.388 -0.1343 -0.1622 -0.0867
 6995W        W11195   1.087   4.185  10.510  0.2681 -0.3563  0.1615
 6996W        W11196   3.693   6.790   1.308  0.2310 -0.0786 -0.2840
 6997W        W11197   6.719   8.548  10.247 -0.1622  0.2839 -0.1209
 6998W        W11198   5.555   5.363   0.844  0.0099  0.2990 -0.0382
 6999W        W11199   2.835   7.439   4.014  0.0530  0.1682 -0.0388
 7000W        W11200  10.109   8.149  11.424 -0.1684 -0.2131  0.3230
 7001W        W11201   8.212   1.438  11.444  0.0094 -0.4998  0.3849
 7002W        W11202   3.078  10.334  11.136 -0.1113 -0.0476  0.4091
 7003W        W11203   4.112   0.410  13.563 -0.0794  0.1822 -0.0780
 7004W        W11204   3.270   5.875   3.982  0.0989 -0.0410 -0.3193
 7005W        W11205   6.996   7.488   4.549  0.0595  0.0775 -0.1338
 7006W        W11206   3.636   1.676   1.305 -0.0867 -0.1007  0.0022
 7007W        W11207  10.062   1.448   0.232 -0.0486  0.3101 -0.2076
 7008W        W11208   8.948   8.990   0.426  0.1957  0.1527 -0.2310
 7009W        W11209   8.602  10.419  10.571 -0.3263  0.1008 -0.0782
 7010W        W11210   9.512   9.943  10.063  0.2221 -0.3993 -0.0077
 7011W        W11211   5.926   6.646   4.113  0.2431 -0.1627  0.1699
 7012W        W11212   0.100   6.869  10.544  0.1859  0.0089 -0.2508
 7013W        W11213   0.530  10.068  12.548  0.1789 -0.1190  0.0585
 7014W        W11214   8.950  10.217   9.673 -0.0018 -0.2247 -0.1852
 7015W        W11215   4.764   4.460   3.895 -0.2312 -0.0128  0.2619
 7016W        W11216   2.501   2.139  13.112  0.1544  0.3460  0.0001
 7017W        W11217   5.804   5.673  13.405  0.2812 -0.2001 -0.2693
 7018W        W11218   4.415   4.104  12.208 -0.1410 -0.2273 -0.1028
 7019W        W11219   0.364   5.953   0.663 -0.0322 -0.0972 -0.0484
 7020W        W11220   0.112   7.098   3.422 -0.1345  0.1064 -0.3901
 7021W        W11221   7.587   4.171   0.292  0.1832 -0.1980  0.0923
 7022W        W11222   7.091   4.639  11.542  0.0163 -0.0837  0.1646
 7023W        W11223   2.772   0.549   0.358 -0.0626  0.0793 -0.1231
 7024W        W11224   7.455   6.768   4.176  0.0010  0.0608  0.4480
 7025W        W11225   6.750   2.261   1.356  0.0456  0.0901 -0.2706
 7026W        W11226   0.396   0.657   3.514 -0.2280 -0.0906  0.0651
 7027W        W11227   6.748   4.931  12.518 -0.0067 -0.1673 -0.0627
 7028W        W11228   7.853   4.761  13.118 -0.1630  0.4211  0.2518
 7029W        W11229   2.311   6.453  10.321  0.1116  0.0659  0.1696
 7030W        W11230   8.725   7.770  10.726  0.2888  0.1621 -0.1891
 7031W        W11231   6.951   0.634  13.520  0.1962  0.1092  0.2121
 7032W        W11232   0.748   6.994  12.182  0.0129 -0.0168  0.2491
 7033W        W11233   2.971   1.838   2.162  0.0506  0.0346 -0.0339
 7034W        W11234   1.849   6.279  11.842 -0.1296 -0.0160  0.4502
 7035W        W11235   2.065   8.784   1.729 -0.0142 -0.1365  0.2573
 7036W        W11236   0.241   2.067   1.566  0.0647  0.1638 -0.0917
 7037W        W11237  10.427   1.479  11.551 -0.2220  0.1404 -0.0606
 7038W        W11238   0.847   6.283   3.381 -0.1155 -0.2359 -0.2581
 7039W        W11239   6.885   4.521   2.745 -0.0014 -0.2434  0.2494
 7040W        W11240   0.606   2.087  13.298  0.2814  0.1729 -0.1677
 7041W        W11241   7.395   0.084  11.255  0.0242 -0.1514  0.1849
 7042W        W11242   8.790   6.060  10.279 -0.0206  0.0949 -0.0525
 7043W        W11243   3.374   6.374   3.235  0.1670  0.0597  0.1200
 7044W        W11244   3.532   2.095   1.531 -0.1658  0.0299 -0.0670
 7045W        W11245   2.729   9.673   2.019 -0.0362 -0.1216 -0.2957
 7046W        W11246   8.876   9.955  10.488 -0.2057 -0.0888 -0.1894
 7047W        W11247   3.059   6.434   4.730  0.0063  0.1201  0.0737
 7048W        W11248   0.538   3.989   1.779  0.2413  0.0664 -0.0293
 7049W        W11249   1.137   1.209   1.684 -0.3425 -0.0322  0.1098
 7050W        W11250   6.111   0.752   4.561  0.1854 -0.3243  0.1651
 7051W        W11251   5.561  10.155   8.480  0.0440 -0.0081  0.1430
 7052W        W11252   9.226   7.580   1.361 -0.1986 -0.1880  0.0315
 7053W        W11253   7.408   9.413  11.133 -0.0888  0.4320  0.0197
 7054W        W11254   7.588   3.869  11.301  0.0719 -0.1011 -0.0345
 7055W        W11255   7.621   0.360   4.605  0.2533 -0.3078 -0.3229
 7056W        W11256   1.010   9.047   3.196 -0.0180  0.1965 -0.1597
 7057W        W11257   1.338   7.189   1.026 -0.0786  0.0020  0.1272
 7058W        W11258   3.389   9.474   2.853  0.3252 -0.2506  0.0620
 7059W        W11259   9.815   8.677   2.127 -0.1834  0.2719  0.1243
 7060W        W11260   8.304   9.119   3.232  0.1783  0.1498 -0.1768
 7061W        W11261   8.437   7.827  12.467  0.0500 -0.1138  0.3037
 7062W        W11262   8.707   7.803   0.193 -0.5714 -0.0186  0.0754
 7063W        W11263   6.398   4.008  12.486 -0.1094 -0.2555  0.0753
 7064W        W11264  10.318   3.990   2.878 -0.2968 -0.2956 -0.0455
 7065W        W11265   3.846   8.574   9.217  0.1784 -0.1870 -0.2031
 7066W        W11266   5.666   7.427   4.420 -0.2098 -0.1094  0.0233
 7067W        W11267   7.516  10.365   1.033 -0.1001  0.1271  0.2649
 7068W        W11268   2.022   6.202   4.099 -0.1207  0.1720 -0.1167
 7069W        W11269   0.069   3.423   1.284  0.0782  0.0864  0.2733
 7070W        W11270   5.642   1.516  12.253 -0.1435 -0.1823  0.0742
 7071W        W11271   1.668   0.224   4.427 -0.0140  0.1472 -0.2466
 7072W        W11272   2.551   4.534  11.287 -0.0832 -0.1501 -0.2307
 7073W        W11273   4.219   0.876   0.092 -0.0280  0.4433 -0.2660
 7074W        W11274   5.370   3.695  12.234  0.2110  0.0143 -0.1011
 7075W        W11275   4.242   0.380   1.794 -0.1405  0.3882 -0.1935
 7076W        W11276   7.199   3.715  10.111  0.1346  0.1797 -0.2372
 7077W        W11277   7.991   2.480   2.216 -0.2084 -0.1496  0.2575
 7078W        W11278   6.493   3.799   1.404 -0.0746  0.3661 -0.3303
 7079W        W11279   8.105   3.338   3.908 -0.0246  0.0557  0.0091
 7080W        W11280   2.691   8.099   2.666 -0.2885  0.0332 -0.1278
 7081W        W11281   3.725   1.241   2.073  0.2926  0.0564  0.0123
 7082W        W11282   8.802   3.746   9.801 -0.0416 -0.0291 -0.0931
 7083W        W11283   4.118   3.327   1.053 -0.0974 -0.0525 -0.3261
 7084W        W11284   1.692   5.983  12.249 -0.1189  0.2229  0.2535
 7085W        W11285  10.263   1.178  10.502  0.1274  0.2355 -0.0456
 7086W        W11286   3.639   5.233  12.523 -0.2969  0.0067 -0.3155
 7087W        W11287   9.953   0.607   1.687  0.2298 -0.0956  0.1665
 7088W        W11288   9.732   2.001   0.357 -0.0405  0.1617 -0.2344
 7089W        W11289   8.944   6.051   8.797 -0.0679 -0.3524  0.0492
 7090W        W11290   4.034   4.308   3.283  0.0311  0.2311 -0.2625
 7091W        W11291   2.091   0.341  13.353 -0.0275  0.1982  0.3809
 7092W        W11292   2.653   1.565  13.023 -0.1464  0.0647 -0.3606
 7093W        W11293   1.986   6.184  11.156 -0.2507 -0.1350  0.0610
 7094W        W11294   5.706   8.160   0.085  0.3360  0.0113 -0.3095
 7095W        W11295   9.789   9.803   2.456  0.1023 -0.2178  0.0898
 7096W        W11296   1.610   0.945  12.909 -0.0152  0.1111 -0.2335
 7097W        W11297   4.296   7.894  11.005 -0.2291 -0.0215 -0.3484
 7098W        W11298   6.216   3.492  12.273 -0.0200 -0.0079 -0.0866
 7099W        W11299   2.721   6.520  10.601  0.2456 -0.2242 -0.2170
 7100W        W11300   0.229   5.766  10.351 -0.2002 -0.0538 -0.0530
 7101W        W11301   1.740   6.610   4.338  0.1337  0.1860 -0.1478
 7102W        W11302   4.721   5.711   8.869  0.0882  0.1250 -0.0098
 7103W        W11303   7.806   3.882   9.468 -0.2078  0.2784 -0.0144
 7104W        W11304   0.975   6.184   3.896 -0.1375  0.1750  0.0447
 7105W        W11305   7.163   3.278  12.401  0.1118 -0.2832 -0.1120
 7106W        W11306   7.744   7.627  13.056 -0.2088  0.4110  0.0377
 7107W        W11307   4.686   5.345   1.186 -0.1295 -0.0619  0.2111
 7108W        W11308   7.881   6.370   8.383 -0.1262 -0.1042  0.3047
 7109W        W11309   3.327   0.243   3.831 -0.0274  0.0731 -0.1882
 7110W        W11310   0.949   5.098  13.174  0.1708 -0.1366  0.1940
 7111W        W11311   2.309   7.086   0.266 -0.0929 -0.0857  0.1193
 7112W        W11312   6.945   3.186  13.234 -0.1578  0.0399  0.0149
 7113W        W11313   3.321   8.417   1.084 -0.0891 -0.3344 -0.1031
 7114W        W11314   7.738   0.563   3.303 -0.1284  0.1023 -0.0349
 7115W        W11315   5.133   8.142   5.170 -0.1689 -0.1507  0.1397
 7116W        W11316   9.527   6.750  10.108  0.0436 -0.2539  0.0925
 7117W        W11317   1.046   6.193  13.253 -0.0158  0.0806  0.0758
 7118W        W11318   0.015   0.628   8.840 -0.0411 -0.1477 -0.3094
 7119W        W11319   3.668   0.978   9.476  0.4032  0.0376  0.4221
 7120W        W11320   3.751   1.283   2.993 -0.0475  0.0526 -0.0180
 7121W        W11321   7.229   0.322   4.295 -0.1202 -0.2064  0.0017
 7122W        W11322   4.796   8.408   1.300  0.0678  0.2672 -0.1780
 7123W        W11323   6.864   4.686   2.256  0.1954  0.0046  0.2262
 7124W        W11324   5.414   2.539  11.668 -0.1734 -0.0207 -0.3095
 7125W        W11325   3.629   3.992   2.106 -0.4035 -0.1706  0.0320
 7126W        W11326   8.335   0.467  11.143  0.1135 -0.2848 -0.0649
 7127W        W11327   4.299   8.721  12.130  0.1766 -0.0097  0.0814
 7128W        W11328   9.539   2.365  12.095  0.0374 -0.0123  0.1600
 7129W        W11329   4.930   1.947  10.281 -0.2169  0.1283  0.0616
 7130W        W11330   6.730   4.162   2.317 -0.3202 -0.1246  0.0727
 7131W        W11331   5.210   3.847   0.415  0.2732 -0.1690  0.0824
 7132W        W11332   2.104   7.511   5.254  0.0118 -0.2410 -0.1201
 7133W        W11333   9.142   7.933  11.532 -0.0771 -0.2632  0.0731
 7134W        W11334   8.956   6.992   0.958  0.0952 -0.2348 -0.2378
 7135W        W11335   1.052   5.568   0.399  0.1935  0.1035  0.0167
 7136W        W11336   5.281   1.993   3.784 -0.1294  0.1422 -0.0870
 7137W        W11337   6.099   6.528  11.178 -0.0269 -0.1506  0.2480
 7138W        W11338   7.808   4.562   9.063  0.0155  0.0474 -0.2443
 7139W        W11339   9.220   2.366  13.081  0.2319  0.0530  0.2613
 7140W        W11340   6.510   0.273   9.622 -0.0365 -0.2113  0.2748
 7141W        W11341   5.364   6.027  12.293 -0.1222 -0.1689 -0.2891
 7142W        W11342   1.327   0.501  13.232  0.0489  0.0049 -0.0560
 7143W        W11343   0.416   3.982   0.504 -0.3691 -0.1964 -0.1161
 7144W        W11344   9.610   6.933   1.482 -0.0835  0.1150 -0.0279
 7145W        W11345   8.199   1.628   0.292 -0.1572  0.0412  0.1556
 7146W        W11346   6.046   0.481   5.037  0.2318  0.2317 -0.2864
 7147W        W11347   4.137   5.376  12.495  0.0132 -0.0084  0.3252
 7148W        W11348   6.640   5.363  12.308 -0.4001  0.0051  0.1093
 7149W        W11349   7.517   9.966   3.716 -0.2148 -0.0719 -0.3803
 7150W        W11350  10.147   5.364   3.667 -0.0739 -0.1754  0.1254
 7151W        W11351   9.213   6.196   5.059  0.0686  0.0816  0.3504
 7152W        W11352   3.587   5.370   0.036 -0.0874  0.1433  0.2851
 7153W        W11353   4.914   7.973  11.200 -0.0862  0.1435  0.0452
 7154W        W11354  10.087   5.924   2.778  0.2961  0.1040  0.0564
 7155W        W11355   3.473   8.251   3.509 -0.3454  0.2260 -0.0477
 7156W        W11356   3.646   2.496   9.513 -0.4924  0.1057  0.2570
 7157W        W11357   6.637   3.562   8.884  0.2128 -0.1406  0.0835
 7158W        W11358   9.491   6.233  12.544 -0.0983  0.1482  0.2090
 7159W        W11359   1.061   7.043  12.744 -0.1588  0.0057  0.1035
 7160W        W11360   9.677   7.418   5.173  0.0237  0.0438 -0.1537
 7161W        W11361   9.336   6.624   3.441 -0.0696 -0.0446 -0.1726
 7162W        W11362   4.876   8.084   3.387 -0.0902  0.0806 -0.0396
 7163W        W11363   9.885   3.511   3.476 -0.3065 -0.0613  0.0816
 7164W        W11364   6.093   3.003  12.954  0.0337  0.3079 -0.0125
 7165W        W11365   0.779   8.208  13.478  0.0052  0.0427  0.2333
 7166W        W11366   4.345   6.028   2.570  0.0217  0.3243 -0.0964
 7167W        W11367   8.060   9.797   3.760 -0.0153  0.0030 -0.2691
 7168W        W11368   1.391   3.406  12.652  0.0648 -0.1842  0.1708
 7169W        W11369   5.891   5.052  11.383 -0.1090  0.0700  0.0437
 7170W        W11370   7.798   7.600  11.048 -0.1704  0.1556  0.1943
 7171W        W11371   2.263   8.876   4.316  0.3669  0.1586 -0.1239
 7172W        W11372   0.514   0.180  13.385  0.0185  0.1229  0.2021
 7173W        W11373   9.728   8.296   4.799 -0.1400 -0.0340  0.0222
 7174W        W11374   3.159   2.945   1.911 -0.0075 -0.0412 -0.1794
 7175W        W11375   2.439   7.412   4.374 -0.2275 -0.3565  0.0946
 7176W        W11376   7.031   5.972  13.403  0.0001  0.3217  0.3178
 7177W        W11377   0.759   6.044  12.355 -0.1951 -0.2015  0.3023
 7178W        W11378   5.774   2.521  10.777 -0.0340  0.1463 -0.1916
 7179W        W11379   0.497   8.944  10.412  0.0738  0.2573 -0.3644
 7180W        W11380   9.868   8.754   1.211 -0.0045 -0.0485  0.0228
 7181W        W11381   1.861   8.493  13.400  0.0235 -0.1287  0.0383
 7182W        W11382   6.843   9.786   2.265 -0.3410  0.1241  0.1653
 7183W        W11383   4.691   6.402  10.052  0.0804 -0.0789 -0.3968
 7184W        W11384   3.008   6.934   1.595 -0.0304  0.0378 -0.0413
 7185W        W11385   9.822   5.481   0.990  0.0819 -0.0952  0.3400
 7186W        W11386   0.241   2.899   1.744  0.1622  0.2394  0.2458
 7187W        W11387   8.423   1.806   3.583  0.2186 -0.0640  0.0749
 7188W        W11388   6.660   5.981   9.505  0.0373 -0.0497 -0.3934
 7189W        W11389   7.852   6.625   3.367  0.2226 -0.0108  0.1248
 7190W        W11390   9.056   3.683   3.535  0.2968  0.2700  0.4153
 7191W        W11391   9.360  10.275   4.292  0.0168 -0.0870  0.0642
 7192W        W11392   7.187   4.832   8.729  0.0691  0.2073  0.1009
 7193W        W11393   5.993   9.824   4.164  0.4354 -0.1023 -0.0350
 7194W        W11394   4.576   6.459   9.566  0.1251  0.2011  0.0282
 7195W        W11395   9.625   6.309   8.215 -0.0838 -0.2069  0.0758
 7196W        W11396   4.249  10.324   2.666  0.2059 -0.2449 -0.0674
 7197W        W11397   1.888   0.268  11.222  0.0235 -0.3015 -0.2174
 7198W        W11398   6.672   7.855   1.314 -0.1526  0.1966 -0.1851
 7199W        W11399   8.055   9.574  11.619 -0.1541  0.2431  0.1391
 7200W        W11400   8.463   4.632   9.752 -0.1531 -0.0263 -0.0083
 7201W        W11401  10.093   8.156   1.629 -0.1051  0.0108 -0.0097
 7202W        W11402   0.806   6.548  11.564 -0.0975  0.1362 -0.2685
 7203W        W11403   0.104   6.747   2.483 -0.1019 -0.0289 -0.1284
 7204W        W11404   6.452   5.832   3.726 -0.0317 -0.0713  0.0651
 7205W        W11405   5.503   5.405  11.355  0.0205  0.0456  0.0953
 7206W        W11406   4.242   7.843   2.575  0.3654  0.0489  0.1146
 7207W        W11407   8.389   2.816   9.656 -0.2770 -0.1567  0.2781
 7208W        W11408   4.137   3.886  12.528 -0.2803 -0.0695 -0.1331
 7209W        W11409   7.440   9.059  12.466  0.2364 -0.0763  0.1327
 7210W        W11410   3.820   1.763  12.009  0.0240  0.0776 -0.2693
 7211W        W11411   2.617   8.511  12.128  0.1708 -0.0536 -0.0696
 7212W        W11412   8.341   8.052  11.026  0.0823  0.4791  0.1141
 7213W        W11413   3.879   9.998   2.492  0.1148 -0.1277  0.1467
 7214W        W11414   8.029   5.082   0.392  0.2269 -0.1538  0.2224
 7215W        W11415   7.801   2.521  10.074 -0.1076  0.0069  0.3030
 7216W        W11416   4.873   5.532   4.244 -0.0048  0.0969 -0.3020
 7217W        W11417   8.124   0.701   8.821  0.0894  0.0235  0.4847
 7218W        W11418   2.861   4.127   1.080 -0.0159  0.1112  0.2013
 7219W        W11419   9.678   2.701   2.760  0.0162 -0.0629 -0.3232
 7220W        W11420   7.698   5.308   4.131  0.1091  0.0340  0.1466
 7221W        W11421   2.362   5.849   9.902 -0.0029  0.1726 -0.2646
 7222W        W11422   1.461   6.641   5.280  0.2461 -0.0598  0.3584
 7223W        W11423   3.258   0.662   9.328  0.0339 -0.0740  0.0122
 7224W        W11424   4.010   9.215  12.638  0.0749  0.0231  0.2491
 7225W        W11425   9.353   3.509  12.090 -0.2303  0.1807  0.1610
 7226W        W11426   5.036   8.778   4.079 -0.1803  0.0025  0.0570
 7227W        W11427   4.960   3.169  13.403 -0.2268 -0.1702  0.0166
 7228W        W11428   4.642   7.751   1.852  0.2949 -0.1480 -0.0998
 7229W        W11429   1.447   4.945  10.007 -0.1900  0.1386  0.1731
 7230W        W11430   1.767   0.160  10.616  0.0136 -0.1361 -0.0150
 7231W        W11431   7.084   9.860   2.710 -0.0864 -0.4402 -0.1486
 7232W        W11432   6.575   9.004  11.367 -0.1478 -0.2996 -0.1369
 7233W        W11433   0.712   0.643   1.882 -0.3128  0.0295  0.0385
 7234W        W11434   2.344   2.561   0.952  0.3232 -0.0304 -0.1059
 7235W        W11435   8.724   9.815   2.928 -0.0254  0.1359  0.0825
 7236W        W11436   4.714   0.828   0.986 -0.0914 -0.1841 -0.0289
 7237W        W11437   6.097   6.486   0.736 -0.1354  0.1562 -0.3057
 7238W        W11438   1.111   4.943   3.267  0.1035  0.0220  0.1686
 7239W        W11439   4.792   5.439  12.011 -0.1843  0.0973  0.1769
 7240W        W11440   8.848   9.817   0.623  0.3649 -0.0136 -0.1227
 7241W        W11441   6.639   9.962   3.354 -0.0832 -0.2805  0.1104
 7242W        W11442   8.626   7.859   9.964  0.0356  0.2338 -0.1610
 7243W        W11443   3.786   0.639   2.384 -0.2765 -0.2401  0.2157
 7244W        W11444  10.405   5.379  13.332  0.2687  0.1406  0.1795
 7245W        W11445   4.644   0.519  12.286  0.2084 -0.5020 -0.0448
 7246W        W11446   0.051   8.205   1.323  0.3316  0.2916  0.1309
 7247W        W11447   9.714   8.121  10.466  0.2617 -0.0720 -0.1761
 7248W        W11448   3.900   9.213   0.286 -0.0471  0.1786  0.0094
 7249W        W11449   7.376   2.940   0.729  0.1991 -0.0138 -0.0395
 7250W        W11450   1.655   7.767   2.186  0.0059 -0.1958 -0.1218
 7251W        W11451   5.843   4.284  13.508 -0.2318  0.1859  0.2432
 7252W        W11452   9.480   3.413   3.132  0.0205 -0.2085 -0.2767
 7253W        W11453   2.545   8.094  11.823 -0.1030 -0.1006 -0.2283
 7254W        W11454   0.392   6.648   9.812  0.1637 -0.2226  0.3624
 7255W        W11455   4.345   9.482   0.272  0.0751 -0.0473 -0.1669
 7256W        W11456   4.441   5.390   0.143 -0.2746 -0.1398  0.0915
 7257W        W11457   0.197   9.520  10.840 -0.0774 -0.0142  0.1020
 7258W        W11458   5.987   7.054   2.161 -0.2364  0.0325 -0.2002
 7259W        W11459   6.666   3.316   4.665  0.1289 -0.0008  0.1270
 7260W        W11460   7.733   8.247   3.668  0.3170 -0.0696 -0.2135
 7261W        W11461  10.144   8.901   2.619 -0.0365 -0.0124  0.0411
 7262W        W11462   9.567   8.724  13.416  0.1843 -0.0350  0.1592
 7263W        W11463   5.566   9.619   2.294  0.1640  0.0113 -0.3607
 7264W        W11464   8.947   0.391  10.607  0.4301 -0.2060  0.3009
 7265W        W11465   9.564   9.042   1.556  0.1426  0.2069  0.0660
 7266W        W11466   4.776   4.580   1.725 -0.0196 -0.3306  0.0165
 7267W        W11467   5.809   0.479  10.088 -0.0779 -0.2459  0.1546
 7268W        W11468   5.912   1.688  11.797  0.0466 -0.2951  0.1689
 7269W        W11469   3.179   8.655  13.473  0.0680 -0.1961 -0.0838
 7270W        W11470   5.887   7.752  10.380  0.2953 -0.1077 -0.1608
 7271W        W11471   2.592   1.086  13.256 -0.0789 -0.4514 -0.1836
 7272W        W11472   9.553   7.069  13.178  0.0682  0.0360  0.0861
 7273W        W11473   7.877   1.233  10.736 -0.2334  0.1393  0.1910
 7274W        W11474   4.745   0.195   1.895 -0.3749  0.0930  0.1767
 7275W        W11475   5.171   5.392   3.875  0.0809  0.2225  0.0574
 7276W        W11476   5.849   1.808  13.308  0.1582  0.0971  0.0689
 7277W        W11477   5.916  10.336   8.792  0.0129  0.0267  0.1580
 7278W        W11478   8.387   1.287   0.617 -0.0098 -0.2172 -0.1393
 7279W        W11479   8.043   6.765   1.997 -0.0972 -0.2032 -0.4293
 7280W        W11480   6.315   1.704   2.889 -0.1980 -0.4074  0.0341
 7281W        W11481   6.617   0.565  12.099  0.2321  0.1203 -0.2373
 7282W        W11482   3.342   3.331   9.782  0.0623 -0.1311  0.0807
 7283W        W11483   7.107   4.634   4.647 -0.3681  0.0205 -0.0530
 7284W        W11484   1.825   4.954  11.385 -0.1617  0.1666  0.0786
 7285W        W11485   2.800   6.055  12.327  0.2381  0.2570 -0.0758
 7286W        W11486   4.035   6.926   1.668 -0.3004  0.0250  0.2255
 7287W        W11487   6.993   2.902   4.785  0.2634  0.2343 -0.2015
 7288W        W11488   3.215   8.284   2.114  0.0764 -0.0656  0.0388
 7289W        W11489   3.482   6.491  10.091  0.1329  0.0681  0.5609
 7290W        W11490   2.538   8.765   5.170  0.1946 -0.3058 -0.2034
 7291W        W11491   8.573   1.562  10.070 -0.0719  0.2385  0.2253
 7292W        W11492   4.564   0.478   1.401 -0.1303  0.1120 -0.3433
 7293W        W11493   9.586   8.636   0.825 -0.1930 -0.0591  0.4011
 7294W        W11494   2.810   8.547  11.088 -0.0182 -0.4649  0.3230
 7295W        W11495   8.406   3.508   0.092 -0.0922  0.2129 -0.0934
 7296W        W11496   3.230  10.436  12.124  0.1007 -0.2336  0.0815
 7297W        W11497   7.911   3.408   9.415 -0.0683  0.3576  0.1111
 7298W        W11498   2.951   5.345   4.045 -0.0297  0.0480 -0.1146
 7299W        W11499   6.654   4.159  11.483 -0.0646  0.1205 -0.1217
 7300W        W11500  10.388   8.092  12.652  0.2444  0.2592  0.1605
 7301W        W11501   7.467   9.069  13.010  0.1223 -0.2233  0.0659
 7302W        W11502   7.520   3.179   2.641  0.0515  0.2596 -0.1118
 7303W        W11503   0.486   9.901   3.372 -0.2427  0.1101 -0.5497
 7304W        W11504   5.862   8.369   2.329  0.0807 -0.0594 -0.0870
 7305W        W11505   3.287   2.403   0.577  0.0936  0.2182  0.3142
 7306W        W11506   5.833   7.283   8.565  0.1200  0.2284  0.1584
 7307W        W11507   8.196   7.172   2.230 -0.0584 -0.4700 -0.2208
 7308W        W11508   6.207   2.924  11.331 -0.0107  0.3623 -0.0734
 7309W        W11509   9.619   6.640  12.824  0.1549 -0.2813  0.0366
 7310W        W11510   7.468   9.885   2.402  0.0920 -0.0216 -0.3882
 7311W        W11511   6.692   7.878   4.491 -0.1507  0.1195 -0.1555
 7312W        W11512   7.321   4.183  12.309  0.1114 -0.2246 -0.0045
 7313W        W11513   4.918   0.875   9.550 -0.2618 -0.1026  0.1279
 7314W        W11514   1.556   1.724  13.291 -0.1658 -0.3267 -0.2709
 7315W        W11515   9.138   1.472   4.513  0.1931  0.1647  0.1509
 7316W        W11516   2.265   6.522   1.215 -0.0357 -0.0257 -0.3240
 7317W        W11517   3.401   4.420   1.883  0.0010  0.3338 -0.1780
 7318W        W11518   6.280   1.810   5.429 -0.1330  0.1652 -0.0547
 7319W        W11519   8.893   1.986   0.874 -0.0087 -0.1519  0.0350
 7320W        W11520   9.372   6.637   4.304 -0.3237 -0.1208 -0.1298
 7321W        W11521   5.459   0.646  11.329 -0.1616 -0.2363  0.0529
 7322W        W11522   6.591   6.025   0.029  0.0551  0.1552 -0.1572
 7323W        W11523   4.239   9.274   1.214 -0.1806  0.1084 -0.0953
 7324W        W11524   7.434   0.775  13.156  0.3141  0.2490 -0.0657
 7325W        W11525   1.860   1.602   0.168 -0.4056 -0.6031  0.3407
 7326W        W11526   8.678   5.701  11.190 -0.3153  0.2068 -0.1938
 7327W        W11527   1.799   6.492  10.157 -0.1901 -0.2286 -0.1205
 7328W        W11528   8.903   5.206  12.160 -0.1286  0.1047  0.1285
 7329W        W11529   3.181   3.935  13.027  0.4137 -0.2674  0.0818
 7330W        W11530   3.933   1.711   9.648  0.0049  0.0064  0.1619
 7331W        W11531   1.451   5.542  10.593 -0.2242 -0.0802 -0.1133
 7332W        W11532   4.474   7.295   1.677  0.1377  0.2791 -0.3016
 7333W        W11533   1.388   7.902   3.937 -0.1461 -0.2150 -0.0135
 7334W        W11534   1.858   6.066   1.169 -0.0934  0.0739  0.1212
 7335W        W11535   6.508   1.298   5.708 -0.0782 -0.0041 -0.1737
 7336W        W11536   0.005  10.259   9.361 -0.0164  0.2897 -0.1784
 7337W        W11537   6.095   5.368  10.136  0.5767  0.0350  0.0479
 7338W        W11538   0.519   8.182  10.876  0.0807 -0.1598 -0.0495
 7339W        W11539   4.151  10.136   3.355 -0.0704 -0.0069  0.2673
 7340W        W11540   0.149   0.543  13.544 -0.4750  0.1267 -0.1479
 7341W        W11541   7.749   2.524  12.787 -0.1028 -0.2104  0.2552
 7342W        W11542   3.970   7.399   3.388 -0.2970  0.2671  0.1623
 7343W        W11543   9.413   3.741   0.094 -0.0452  0.2956 -0.0767
 7344W        W11544   3.271   7.543   4.483 -0.2351 -0.1845  0.1103
 7345W        W11545   1.223   9.534  10.844  0.0553 -0.1637  0.1231
 7346W        W11546   6.208   7.391   1.867 -0.2839 -0.4955  0.2550
 7347W        W11547   8.670   6.157  11.226 -0.0030 -0.0439  0.3382
 7348W        W11548   3.809   5.178   2.678  0.0074 -0.0191  0.3396
 7349W        W11549   9.940   0.207  11.895  0.1121 -0.1670 -0.1656
 7350W        W11550   6.404   3.161  12.628 -0.3205  0.0909  0.0739
 7351W        W11551   2.407   9.665   1.594  0.1350  0.1438 -0.0432
 7352W        W11552   3.784   4.993   1.405 -0.2050  0.2677  0.4161
 7353W        W11553   6.109   8.183   0.542  0.0248 -0.1393  0.0027
 7354W        W11554   5.388   7.090  10.073 -0.0878  0.0237 -0.1906
 7355W        W11555   0.031   6.083   9.467  0.0562  0.0373 -0.1046
 7356W        W11556   7.317   2.185   0.829  0.1957  0.0302  0.1741
 7357W        W11557   8.810  10.287   4.026  0.1754 -0.1148 -0.2717
 7358W        W11558   5.818   1.702  11.324 -0.2907  0.1405 -0.1472
 7359W        W11559   3.534   6.313   9.667 -0.0066  0.1278 -0.2735
 7360W        W11560   1.124   5.928  10.592  0.0959 -0.2225 -0.1550
 7361W        W11561   1.142   1.248   0.624  0.4028 -0.2740 -0.0116
 7362W        W11562   2.236   9.735  13.138 -0.0522  0.0902 -0.1188
 7363W        W11563   3.341   6.917  11.494 -0.1614  0.2539  0.3358
 7364W        W11564   5.176   9.299   4.267 -0.3833  0.0698  0.1217
 7365W        W11565   7.401   2.520   9.820  0.1469  0.1339 -0.0322
 7366W        W11566   1.127   9.615   0.967 -0.1211  0.1366 -0.0797
 7367W        W11567   9.321   6.604  13.249 -0.0723 -0.2242  0.1440
 7368W        W11568   8.863   0.568   5.703 -0.1818 -0.0652 -0.2213
 7369W        W11569   5.570   8.821   9.016  0.1481  0.1870 -0.1663
 7370W        W11570   0.012   8.507  12.184 -0.0976  0.1132  0.0264
 7371W        W11571   8.295   5.494  11.503 -0.1633  0.1794  0.2647
 7372W        W11572   7.778   5.715   3.305 -0.4054 -0.0964 -0.1383
 7373W        W11573   9.907   0.228   4.810 -0.0735  0.0671  0.1315
 7374W        W11574   2.445   3.768   0.093 -0.0320  0.0199 -0.1148
 7375W        W11575  10.106   9.272   1.728  0.1683 -0.0629 -0.0757
 7376W        W11576   9.290   9.998   2.528 -0.3058 -0.3172  0.2437
 7377W        W11577   7.456   0.620  10.295  0.2303  0.2819 -0.3184
 7378W        W11578   2.254   3.448  13.048  0.2909 -0.0077  0.0708
 7379W        W11579   4.333   9.872  10.632 -0.0303 -0.0425  0.0182
 7380W        W11580   9.349   5.948  13.461  0.0568 -0.0243 -0.1353
 7381W        W11581   9.193   1.130   1.985 -0.0183 -0.1381 -0.1837
 7382W        W11582   4.472   4.251   1.879 -0.1035 -0.0763  0.0209
 7383W        W11583   3.163   6.470   0.593  0.3419  0.0761 -0.1328
 7384W        W11584   8.555   8.046   2.391  0.5206 -0.4201 -0.1631
 7385W        W11585   3.132   7.278   8.980  0.0128  0.0771  0.0451
 7386W        W11586   6.075   3.121  10.120  0.0690  0.1762  0.0921
 7387W        W11587   4.490   2.997   9.558  0.2248 -0.3717 -0.1281
 7388W        W11588   3.111   8.735  12.787 -0.1425 -0.2761 -0.0167
 7389W        W11589   5.907   6.272   3.080  0.1881  0.1087  0.0504
 7390W        W11590   2.429   2.608   9.959 -0.1215 -0.2228 -0.3507
 7391W        W11591   3.044   5.007  12.405 -0.0372 -0.3078  0.2293
 7392W        W11592   7.882   5.512   9.908 -0.2741  0.1793 -0.0434
 7393W        W11593   9.726   2.638   9.902 -0.2990 -0.0264 -0.2604
 7394W        W11594   9.486   6.660  11.290  0.0266 -0.0489  0.3424
 7395W        W11595   4.308   4.694   3.138 -0.1865  0.0357 -0.1580
 7396W        W11596   5.294   5.334  13.153 -0.0446  0.0416  0.0374
 7397W        W11597   6.907   6.037  11.846  0.1749  0.0504 -0.1663
 7398W        W11598   8.258   9.474   1.723 -0.1740  0.0534 -0.1005
 7399W        W11599   6.984   7.772   3.617  0.0009  0.1052 -0.1354
 7400W        W11600   4.711   1.416   0.332 -0.1902  0.0913  0.0039
 7401W        W11601   5.717   6.984  13.474 -0.1755  0.2937 -0.1035
 7402W        W11602   8.091   9.206  12.228 -0.1226 -0.0970 -0.1751
 7403W        W11603   3.407   9.372  13.531  0.3063 -0.2580 -0.0214
 7404W        W11604   3.850   7.164  11.322 -0.1116  0.0915 -0.2500
 7405W        W11605   8.246   6.307   2.035 -0.4077  0.2502 -0.0278
 7406W        W11606   0.869   0.195  11.043  0.0869 -0.3318 -0.0579
 7407W        W11607   0.376   5.518   4.510 -0.0094 -0.2761 -0.2383
 7408W        W11608   0.671   4.833   3.968 -0.0187  0.0277 -0.1153
 7409W        W11609   8.021   0.207  10.652 -0.0963 -0.2687  0.0010
 7410W        W11610   4.790   3.034  12.388 -0.0508  0.1553  0.0612
 7411W        W11611   1.960   4.537  11.169  0.0039  0.1395 -0.2112
 7412W        W11612   4.684   3.082  11.374 -0.0700  0.2288 -0.4465
 7413W        W11613   5.549   8.112  12.891 -0.0745 -0.0670  0.0515
 7414W        W11614   8.515   6.430   0.322 -0.2620  0.0737  0.1211
 7415W        W11615   5.316   1.001  11.622 -0.0649  0.0801 -0.0128
 7416W        W11616   6.019   2.328  13.261  0.1315  0.1924 -0.1382
 7417W        W11617   9.987   7.098  13.460 -0.2946 -0.3404  0.1763
 7418W        W11618   8.637   0.593   4.487  0.1123 -0.1691 -0.0297
 7419W        W11619   4.158   1.204   4.796 -0.3223 -0.4375 -0.2168
 7420W        W11620  10.427   5.064   3.221 -0.1627  0.0440 -0.0403
 7421W        W11621   9.251   7.962   4.540 -0.0801  0.0425  0.2785
 7422W        W11622   4.559   5.441  10.842 -0.0249 -0.2851 -0.0988
 7423W        W11623   2.775   6.813   2.366 -0.0679  0.0792 -0.0452
 7424W        W11624   5.970   9.296  10.116  0.2105  0.2037 -0.0063
 7425W        W11625   4.047   1.678  13.411 -0.2665 -0.0078  0.0578
 7426W        W11626   7.660   3.325   0.585  0.0124  0.1172 -0.1407
 7427W        W11627   7.300   8.123  11.864  0.1343  0.2265 -0.2142
 7428W        W11628   2.680   8.644   2.792 -0.0036  0.2794 -0.2241
 7429W        W11629   8.221   1.567  10.433  0.3955 -0.0982 -0.0261
 7430W        W11630   4.954   4.978   2.325 -0.3710  0.2994  0.0597
 7431W        W11631   3.078   0.991   1.648  0.1090  0.0289 -0.1181
 7432W        W11632   0.955   8.724   4.406 -0.0488 -0.1184 -0.2058
 7433W        W11633   8.679   7.344  12.978 -0.0048  0.2509  0.0826
 7434W        W11634   9.660   1.848   9.655  0.3716  0.0706  0.0313
 7435W        W11635   9.882   6.996  11.205  0.0854 -0.1340 -0.0514
 7436W        W11636   9.187   6.805  10.465  0.0479  0.3305  0.0557
 7437W        W11637   3.995   1.088   1.712 -0.0537  0.3987  0.1359
 7438W        W11638   4.250   0.756   2.110 -0.2182 -0.3812  0.2461
 7439W        W11639   8.938   3.166  12.894 -0.5373  0.1614  0.2572
 7440W        W11640   4.956   3.987  10.936  0.2486  0.2234 -0.0856
 7441W        W11641   5.165   4.613   3.600  0.0596  0.3201  0.2018
 7442W        W11642   9.558   0.741   2.822  0.4151  0.3907 -0.0886
 7443W        W11643   7.450   6.309   3.905  0.1278  0.1306 -0.0207
 7444W        W11644   7.783   3.262   0.054  0.0846  0.1665  0.1670
 7445W        W11645   6.107   3.592  12.755 -0.2251  0.1672 -0.1837
 7446W        W11646   7.289   9.482  12.190  0.1475  0.1572  0.0141
 7447W        W11647   4.394   7.030   0.714  0.0345  0.1134 -0.1681
 7448W        W11648   7.613   5.186  11.023 -0.2306 -0.3824  0.3862
 7449W        W11649   4.781   6.651   2.591  0.0497 -0.1973 -0.0951
 7450W        W11650   8.381   8.411   3.603  0.2035 -0.0626  0.2049
 7451W        W11651   2.855   5.833  11.369 -0.1323 -0.2898  0.1932
 7452W        W11652   3.252   6.724  12.399  0.0933  0.1237 -0.1721
 7453W        W11653   7.952   4.893   4.801 -0.2049 -0.1069  0.1528
 7454W        W11654   7.368   4.943   2.856 -0.1676  0.0519 -0.0593
 7455W        W11655  10.137   8.075  12.194  0.1448 -0.0659  0.1390
 7456W        W11656   4.249   0.210   3.567 -0.1644 -0.1005 -0.1987
 7457W        W11657   1.861   2.562   2.214 -0.2210  0.1261  0.1181
 7458W        W11658   8.692   2.401   1.775  0.1097  0.3780  0.0603
 7459W        W11659   9.717   1.288  10.503  0.1095 -0.0758 -0.0429
 7460W        W11660   3.914   5.812  12.976  0.0860  0.2132 -0.0892
 7461W        W11661   4.284   8.434   8.288 -0.0264  0.1487 -0.1334
 7462W        W11662   8.090   9.593   4.806  0.1691  0.0836 -0.1134
 7463W        W11663  10.273  10.045  10.886 -0.0527  0.2240 -0.0807
 7464W        W11664   1.041   7.780  13.556  0.1100 -0.1218 -0.1308
 7465W        W11665   5.630   3.497   3.618 -0.0656 -0.3843  0.0498
 7466W        W11666   9.461   5.929  12.081  0.0756  0.2008  0.0320
 7467W        W11667   1.910   1.655   2.851 -0.0290  0.0464 -0.0300
 7468W        W11668   3.052   1.891   3.222 -0.3692 -0.1676  0.1379
 7469W        W11669   1.742   5.938   3.763 -0.4439 -0.1857  0.0582
 7470W        W11670   2.334   7.659  12.185  0.4623 -0.1262 -0.0137
 7471W        W11671   1.406   6.954   0.201 -0.3373 -0.0776 -0.1296
 7472W        W11672   7.611   0.401   2.762  0.1129  0.1459 -0.2189
 7473W        W11673   2.878   5.693   3.725  0.2652 -0.1183  0.0665
 7474W        W11674   6.579   7.283   4.469  0.0511  0.0798  0.0023
 7475W        W11675   4.545   2.701   3.143  0.0305  0.0979  0.0655
 7476W        W11676   3.911   7.113   2.963  0.2166  0.2037  0.0336
 7477W        W11677   1.224   6.187  12.067  0.0748 -0.0097 -0.0566
 7478W        W11678   2.783   1.380  11.584 -0.1266  0.0423 -0.2637
 7479W        W11679   6.947   4.173   9.987  0.2980 -0.1227  0.2006
 7480W        W11680   5.714   2.385   2.155 -0.1464 -0.3866 -0.1271
 7481W        W11681   9.399   6.741   0.987  0.0045  0.0289 -0.1484
 7482W        W11682   7.483   4.684  11.821 -0.3351 -0.2408  0.0518
 7483W        W11683   3.114   4.852   0.639 -0.1416  0.2392  0.2533
 7484W        W11684   8.032   7.324   2.714 -0.2323  0.3123 -0.0193
 7485W        W11685   1.734   5.698  11.061 -0.3498  0.1019  0.0598
 7486W        W11686   2.835   5.530  12.371 -0.2012  0.0694  0.1096
 7487W        W11687   3.914   1.260  10.048 -0.1158  0.3717 -0.0456
 7488W        W11688   7.944   5.704  12.937  0.1833  0.1438  0.5015
 7489W        W11689   6.903   0.818  10.593 -0.1403  0.0303 -0.1737
 7490W        W11690   7.848   7.185  13.493 -0.0992  0.1322 -0.4941
 7491W        W11691   9.971   5.278   2.302  0.3608  0.0143 -0.0493
 7492W        W11692   6.652   4.366  12.936  0.0547 -0.0922  0.0788
 7493W        W11693   2.180   0.729   0.160  0.1251 -0.0285 -0.1072
 7494W        W11694   2.406   9.088   8.964  0.1608  0.1709  0.2740
 7495W        W11695   7.958   4.455  11.103  0.0756 -0.2043 -0.1251
 7496W        W11696   3.035   3.568  13.406 -0.1217 -0.3490  0.0987
 7497W        W11697   4.696  10.079  10.166 -0.0656  0.0051  0.0628
 7498W        W11698   0.766   2.733   2.271  0.0031  0.2182 -0.1506
 7499W        W11699   5.685   1.236  12.992  0.1409 -0.0497  0.4197
 7500W        W11700   1.039   1.415   3.859  0.2804 -0.2061 -0.1214
 7501W        W11701   4.962   1.918  13.283 -0.0794 -0.4128 -0.1737
 7502W        W11702   9.827   6.747  11.670 -0.2662  0.1974  0.0107
 7503W        W11703   0.468  10.100   2.399  0.1486 -0.0344  0.4210
 7504W        W11704   8.963   7.156   9.479  0.1683 -0.0470 -0.0057
 7505W        W11705   7.927   7.796   4.799  0.0703 -0.0873  0.1861
 7506W        W11706   4.959   5.777   4.757 -0.3333 -0.0031  0.0335
 7507W        W11707   7.126   5.287  12.506  0.0919  0.1671  0.1204
 7508W        W11708   6.999   5.895   0.782  0.1026 -0.3742 -0.0257
 7509W        W11709   5.252   0.602   9.877  0.2799 -0.2977 -0.0527
 7510W        W11710   3.006   9.895  11.896 -0.0082 -0.2527 -0.1116
 7511W        W11711   2.184   8.622  12.374  0.0012  0.0462 -0.0685
 7512W        W11712   9.191   4.159  13.504 -0.0454  0.0110 -0.0573
 7513W        W11713   8.315   3.521  11.715  0.0494  0.0335 -0.2371
 7514W        W11714   0.281   5.363   0.217 -0.2436  0.0317 -0.5807
 7515W        W11715   5.124   4.708   2.982  0.0318  0.0842  0.0336
 7516W        W11716   8.451   6.352  13.433 -0.1108  0.0679 -0.0879
 7517W        W11717   6.002   7.437  10.842  0.0681 -0.3799 -0.0165
 7518W        W11718   1.994   0.562   5.087 -0.1768  0.0662 -0.2369
 7519W        W11719   6.770   4.539  12.268  0.2257 -0.0206 -0.0086
 7520W        W11720   8.510   9.908   9.681  0.1341  0.3091 -0.2783
 7521W        W11721   8.660   5.874   3.381 -0.2041 -0.0572 -0.0407
 7522W        W11722   8.988   0.158   9.365  0.1987  0.4307  0.2043
 7523W        W11723   0.095   5.453   4.076 -0.0847 -0.0850  0.2767
 7524W        W11724   3.978   0.082  11.082 -0.1480 -0.2826 -0.2392
 7525W        W11725   8.786   8.024  11.844 -0.0862 -0.1610 -0.1655
 7526W        W11726   8.648   6.135  12.121  0.0029 -0.1727  0.0768
 7527W        W11727   3.833   0.891  11.211 -0.0057 -0.1217 -0.0375
 7528W        W11728   3.443   1.467  12.188  0.2005  0.0130 -0.0879
 7529W        W11729  10.057   6.038   9.771 -0.0852  0.1483  0.0991
 7530W        W11730   6.713   4.438  10.441  0.0559 -0.1608 -0.2036
 7531W        W11731   0.930   3.777   0.529 -0.0619  0.0352 -0.0401
 7532W        W11732   5.776   1.176   4.476 -0.4305  0.0930  0.1462
 7533W        W11733   8.925   1.431   8.508 -0.0165 -0.2059 -0.1407
 7534W        W11734   2.000   0.642  10.893  0.0386  0.0177 -0.2623
 7535W        W11735   3.906   8.445   3.289 -0.0127  0.2631  0.1122
 7536W        W11736  10.143   5.332   1.397 -0.1165  0.2034 -0.0767
 7537W        W11737   8.891   7.067   0.415  0.2138  0.0888  0.2512
 7538W        W11738   1.577   9.316  12.558  0.0869 -0.0449 -0.1111
 7539W        W11739   9.769   9.788  13.175 -0.0186  0.1290 -0.0168
 7540W        W11740   6.327   3.022   0.240 -0.2032  0.0996 -0.2313
 7541W        W11741   2.713   5.820  13.367  0.0281  0.0721 -0.0714
 7542W        W11742   6.574   1.360   3.676  0.0281  0.1476  0.0573
 7543W        W11743   7.799   3.029   3.024  0.0202 -0.1598 -0.1823
 7544W        W11744   4.358   9.227  11.258 -0.3341 -0.1798  0.0243
 7545W        W11745   9.015   4.838   3.606  0.2529  0.0324  0.2322
 7546W        W11746   6.423   5.150   9.215  0.0785  0.1595 -0.1596
 7547W        W11747   3.270   8.894   0.586 -0.0656  0.1135  0.0271
 7548W        W11748   1.510   0.346   9.428  0.0693 -0.0005 -0.0138
 7549W        W11749   8.985   4.387   2.153  0.1744 -0.1520 -0.0779
 7550W        W11750   3.316   2.100  10.889  0.1907  0.1674 -0.1619
 7551W        W11751   2.828   1.364   0.896  0.4550  0.3545 -0.1898
 7552W        W11752   8.178   1.909   4.742  0.1532  0.2121 -0.1013
 7553W        W11753   8.032   6.115   1.545 -0.1732 -0.0185  0.0379
 7554W        W11754   7.054   8.634   3.813  0.1772  0.2863 -0.0684
 7555W        W11755   5.207   3.415   0.207 -0.0001  0.0575 -0.2012
 7556W        W11756   4.801   1.446  10.295  0.1761  0.0184 -0.1255
 7557W        W11757   3.548   9.653   1.743 -0.0320  0.1414  0.1166
 7558W        W11758   4.488   7.399  13.206  0.3380 -0.0090  0.0823
 7559W        W11759   5.284   0.147  11.422 -0.0709  0.0491  0.1358
 7560W        W11760   6.145   5.171  10.622  0.1535 -0.2604  0.0820
 7561W        W11761   2.024   2.990   1.153 -0.0715 -0.3610 -0.0311
 7562W        W11762   0.386   0.286   3.871  0.2532  0.2095 -0.2618
 7563W        W11763   7.067   0.475   2.595  0.3267  0.1227  0.1464
 7564W        W11764   8.074   7.926   3.871  0.3103 -0.1563 -0.1023
 7565W        W11765   9.577   1.650  13.023 -0.1302  0.0901  0.1304
 7566W        W11766   4.252   1.008   9.807  0.2072 -0.0070  0.2015
 7567W        W11767   0.494   2.555   1.430 -0.3044 -0.2298 -0.1465
 7568W        W11768   0.176   2.626  10.593  0.2039 -0.0754 -0.0157
 7569W        W11769   5.892   8.501   9.639 -0.0258  0.0702  0.0411
 7570W        W11770   2.286   6.631   4.074 -0.0742 -0.0229 -0.0240
 7571W        W11771   2.631   6.838  10.170  0.0217  0.0786 -0.0347
 7572W        W11772   9.506   0.852  12.454 -0.2833 -0.0728  0.3210
 7573W        W11773   6.306   3.901   4.162  0.1314 -0.0191  0.2196
 7574W        W11774   0.401   8.964   2.295 -0.4340  0.0118  0.2625
 7575W        W11775   4.277   5.737   0.904 -0.2195 -0.4094 -0.1685
 7576W        W11776   4.993   3.544  11.465 -0.0339  0.0238 -0.1416
 7577W        W11777   9.695   1.320   1.800 -0.0630  0.0122  0.0542
 7578W        W11778   0.385   7.136   9.633 -0.2300  0.1680  0.1462
 7579W        W11779   0.084   9.403   1.521 -0.1771 -0.2100 -0.0996
 7580W        W11780   0.432   0.210   3.194  0.0488 -0.1922 -0.0636
 7581W        W11781   5.695   4.059   0.397  0.0200 -0.2547 -0.0223
 7582W        W11782   6.437   9.354  10.426  0.1736 -0.1141  0.0947
 7583W        W11783   4.991   7.867  13.081 -0.1646  0.1054  0.0104
 7584W        W11784   3.426  10.294   4.500  0.3820  0.3157  0.2391
 7585W        W11785   2.812   0.672   2.944 -0.0161  0.1709 -0.2770
 7586W        W11786   7.120   3.158   1.094 -0.0005  0.2585 -0.1813
 7587W        W11787   0.667   6.068   2.009 -0.2025 -0.0309  0.0166
 7588W        W11788   0.165   1.839  13.243  0.0304 -0.0912  0.0053
 7589W        W11789   8.948   9.652  13.428  0.4672  0.4465 -0.1195
 7590W        W11790   7.140   9.813   0.651 -0.1230  0.2083  0.1603
 7591W        W11791   9.905   8.301   0.648  0.0307 -0.2533  0.2623
 7592W        W11792   5.060   9.377   2.333  0.0869  0.1368 -0.2260
 7593W        W11793   2.302   4.952   3.504 -0.0519 -0.0012 -0.0324
 7594W        W11794   7.930   5.710   3.763 -0.0856  0.2113 -0.0384
 7595W        W11795   6.072   7.071  11.189 -0.1548  0.1793  0.1637
 7596W        W11796   8.122   3.211  10.814 -0.2940  0.2319 -0.0678
 7597W        W11797   7.858   6.861   2.641 -0.3053 -0.0600  0.3952
 7598W        W11798   9.375   6.834   9.669 -0.2236 -0.0077 -0.3135
 7599W        W11799   1.057   7.523   3.277 -0.1747 -0.1030 -0.2475
 7600W        W11800   0.281   3.197   0.844  0.0868 -0.0265  0.1426
 7601W        W11801   2.231   5.628  13.522  0.3201  0.1964 -0.0248
 7602W        W11802   0.295   9.369   4.103 -0.2016 -0.0159  0.2155
 7603W        W11803   0.375   4.993   0.550  0.0267 -0.1445  0.1107
 7604W        W11804   4.596   8.185   0.535  0.2413  0.2556 -0.1779
 7605W        W11805   2.308   6.465  13.201 -0.2460 -0.0132 -0.1227
 7606W        W11806   5.660   7.273  10.463  0.0316 -0.1483  0.3595
 7607W        W11807   0.527  10.391   9.329  0.1313 -0.0563 -0.0523
 7608W        W11808   4.178   1.036   2.928  0.1961  0.0055 -0.1257
 7609W        W11809   5.276   9.281   4.822 -0.0905 -0.2844 -0.2128
 7610W        W11810   2.049   9.900  10.853 -0.0473 -0.0079 -0.1495
 7611W        W11811   6.540   9.370   2.359  0.2523  0.2835  0.0677
 7612W        W11812   9.613   1.580  10.905 -0.1295 -0.2115 -0.2155
 7613W        W11813   9.634   1.794  13.482 -0.0139  0.0427 -0.1615
 7614W        W11814   2.234   9.544  12.592  0.0815 -0.2576  0.1035
 7615W        W11815   0.782   9.348  11.580  0.0701 -0.1988 -0.1773
 7616W        W11816   5.996   3.154   3.678 -0.0451  0.3575 -0.0752
 7617W        W11817   7.596   3.875  10.344  0.3911 -0.0159  0.2869
 7618W        W11818   3.091   9.984   3.689 -0.0827 -0.1125 -0.3323
 7619W        W11819   4.146   8.191   3.620 -0.0406 -0.1880  0.3215
 7620W        W11820   4.431   6.599   0.324  0.2194 -0.0932  0.0460
 7621W        W11821   2.090  10.337   4.393 -0.0053 -0.0052  0.1918
 7622W        W11822   8.775   0.946  11.733 -0.1018 -0.2484 -0.2315
 7623W        W11823   5.482   2.249   0.944 -0.1196 -0.0886  0.0013
 7624W        W11824   6.936   7.143   0.307  0.1629 -0.2816  0.0951
 7625W        W11825   1.756   7.764  10.566 -0.0167 -0.0057  0.1481
 7626W        W11826   1.737   9.526  10.639  0.1629  0.2049 -0.0174
 7627W        W11827   1.476   0.929   1.375 -0.0805  0.2427 -0.1456
 7628W        W11828   2.597   6.386  11.323 -0.0975 -0.0422  0.0185
 7629W        W11829   6.741   3.199   3.846 -0.3972  0.2013  0.1404
 7630W        W11830   7.531   0.167   2.307 -0.0326  0.0178  0.3854
 7631W        W11831   9.172   7.972   3.213  0.2005 -0.0394  0.0975
 7632W        W11832   4.001   5.051   9.746 -0.1626  0.0972 -0.1154
 7633W        W11833   4.468   8.349   3.272  0.0241 -0.1032 -0.1055
 7634W        W11834   3.009   9.187   4.162 -0.3686 -0.1750  0.0116
 7635W        W11835   2.213   7.267   1.724 -0.0446 -0.3378  0.0082
 7636W        W11836   3.961   2.837   0.265  0.2951  0.0439 -0.2624
 7637W        W11837   6.815   3.240   0.154  0.0347  0.1835 -0.1588
 7638W        W11838  10.078   3.830  13.240 -0.1739  0.2044  0.1384
 7639W        W11839   8.238   0.580  12.424  0.1296  0.2033  0.0466
 7640W        W11840   8.485   8.952   0.844 -0.0961  0.1646 -0.0612
 7641W        W11841   0.469   5.808   2.376 -0.2194  0.0391 -0.0161
 7642W        W11842   9.215   9.146   2.423 -0.0455 -0.2557 -0.0662
 7643W        W11843  10.126   2.930  11.937  0.1105  0.1418  0.2652
 7644W        W11844   4.445  10.327   1.010  0.0722 -0.2155 -0.0581
 7645W        W11845   6.347   6.854   9.207  0.0031 -0.2114 -0.4189
 7646W        W11846   0.976   4.566  11.353  0.0909 -0.0581  0.4710
 7647W        W11847   9.428   4.441   3.390  0.0324  0.0082  0.0731
 7648W        W11848   1.538   9.166  11.905 -0.1732  0.1179  0.0630
 7649W        W11849   8.625   6.202   2.994  0.1643 -0.2319  0.3714
 7650W        W11850   7.559   4.087   3.925  0.1683 -0.1126  0.1412
 7651W        W11851   4.389   0.109  11.388 -0.2814  0.2377  0.1431
 7652W        W11852   5.756   7.492   9.457  0.1366 -0.1100  0.0161
 7653W        W11853   6.127   9.771   0.149  0.0630 -0.0042  0.1708
 7654W        W11854  10.350   3.297   2.179 -0.0740  0.1175  0.1823
 7655W        W11855   8.861   7.665  12.233 -0.3108 -0.1438  0.0105
 7656W        W11856   8.704   9.175   1.711  0.5004 -0.0785 -0.0288
 7657W        W11857   4.316   7.185  11.509 -0.0838 -0.0331  0.1104
 7658W        W11858  10.193   9.263   3.064  0.0842  0.1296 -0.1451
 7659W        W11859   4.851   6.818   0.494 -0.2283 -0.1693  0.1451
 7660W        W11860   3.404   6.442  11.676  0.3554 -0.1746 -0.4105
 7661W        W11861   8.000   8.729   0.780 -0.2072 -0.0207 -0.0510
 7662W        W11862   4.887   8.047   0.180 -0.1797 -0.1957 -0.1679
 7663W        W11863   2.819   6.947  12.605 -0.0119  0.0577  0.1030
 7664W        W11864   7.650  10.146   2.063 -0.0327 -0.1729  0.2019
 7665W        W11865   7.311   2.384   3.596  0.2407 -0.0544  0.4023
 7666W        W11866   7.524   3.049   9.844  0.0388 -0.0804 -0.0183
 7667W        W11867   8.419   9.888   3.346 -0.0194  0.0692  0.4006
 7668W        W11868   0.443   9.873   0.721  0.0949 -0.2377  0.0275
 7669W        W11869   3.767   3.293   0.492 -0.4555  0.1790 -0.2518
 7670W        W11870   0.033   7.879   1.750 -0.1442  0.0200  0.3343
 7671W        W11871   5.355   6.113  11.761  0.2463  0.0656 -0.1952
 7672W        W11872   6.108   5.402   1.005 -0.0911 -0.0715 -0.2231
 7673W        W11873   5.702   3.959   3.900  0.0475 -0.2146 -0.0587
 7674W        W11874   0.912   7.716  10.701  0.1984  0.0372 -0.2731
 7675W        W11875   5.459   7.599  12.920  0.1803  0.1174 -0.0560
 7676W        W11876   4.998   7.335   0.522 -0.0959 -0.1633  0.4086
 7677W        W11877   9.261   8.192   1.849 -0.0781  0.0772 -0.1069
 7678W        W11878   3.700   1.118   8.992  0.0054  0.1485  0.2563
 7679W        W11879   3.363   3.244  12.509  0.1372 -0.2719  0.0511
 7680W        W11880   7.517   1.523  10.888  0.3093  0.1576 -0.1147
 7681W        W11881  10.418   2.850   1.190 -0.1280 -0.1606 -0.1039
 7682W        W11882   4.808   5.880   2.580  0.1314  0.0083  0.0406
 7683W        W11883   2.388   6.122  13.549 -0.0161  0.0057  0.2903
 7684W        W11884   3.618   3.024   1.799  0.1705  0.3387  0.2736
 7685W        W11885   5.855   3.938   3.368 -0.4133  0.1186  0.0316
 7686W        W11886   5.023   1.311  11.399  0.0301 -0.1447 -0.0659
 7687W        W11887   7.897   8.339   1.764  0.0726  0.1429 -0.0635
 7688W        W11888   8.732   6.106   1.980  0.1349 -0.2124 -0.0204
 7689W        W11889   0.250   5.380  11.351  0.0769 -0.1991  0.0779
 7690W        W11890   9.171   5.751  12.492 -0.1249  0.1002  0.2709
 7691W        W11891   1.827   8.881  11.450 -0.0879 -0.2040 -0.2679
 7692W        W11892   7.566   0.047   3.661  0.2989 -0.2967 -0.2135
 7693W        W11893  10.361   5.477   2.664  0.0176  0.1996  0.1155
 7694W        W11894   6.428   3.224   2.298 -0.1152 -0.0635 -0.0777
 7695W        W11895   0.844   8.178  12.415  0.1464  0.1232 -0.1701
 7696W        W11896   4.244   8.265   0.166 -0.0293 -0.0545  0.1014
 7697W        W11897   6.475   4.759  10.802  0.0216 -0.1969  0.1563
 7698W        W11898   7.038   0.260   2.138 -0.0127  0.1995 -0.0318
 7699W        W11899   7.675   6.537   0.703 -0.3530  0.1747  0.1417
 7700W        W11900   5.388   0.488   4.402  0.0181 -0.3105 -0.1492
 7701W        W11901   3.916   0.177   2.178 -0.0298  0.1450  0.1209
 7702W        W11902   8.928   5.777   4.618 -0.1020 -0.0515  0.5878
 7703W        W11903   3.609   5.431  13.092  0.0715 -0.0200  0.1262
 7704W        W11904   0.371   2.437   3.030  0.0579  0.2275 -0.3465
 7705W        W11905   5.573   4.953   3.712  0.0160 -0.3016 -0.1307
 7706W        W11906   5.898   0.334   4.399 -0.2174  0.1442 -0.3669
 7707W        W11907   0.094   2.084   2.487  0.1082 -0.0407 -0.2641
 7708W        W11908   2.155   0.101   2.079 -0.0042  0.1450  0.1924
 7709W        W11909   2.253   4.298   1.744  0.0129  0.0523 -0.0876
 7710W        W11910   6.569   6.851  11.928  0.2650 -0.1040  0.0888
 7711W        W11911   9.685   2.159  13.150  0.0107 -0.1214  0.0968
 7712W        W11912  10.247   8.060   4.203  0.1132  0.1551  0.0760
 7713W        W11913   4.018   9.582   5.064  0.1744  0.3247 -0.3272
 7714W        W11914   2.231   0.669   1.187 -0.1640 -0.1047 -0.0735
 7715W        W11915   3.347   0.508   2.797 -0.0337 -0.0960  0.2112
 7716W        W11916   5.148   1.971   2.118 -0.3286  0.1629  0.1480
 7717W        W11917   2.311   2.734  12.656  0.1073  0.2189  0.0442
 7718W        W11918   3.668   2.970  11.584  0.3066  0.0469  0.0481
 7719W        W11919   6.772   1.653   3.122 -0.0671  0.2233 -0.3434
 7720W        W11920   2.528   3.254   2.678 -0.2341 -0.2592  0.0755
 7721W        W11921   7.927   0.820  12.067  0.3079  0.0549  0.1404
 7722W        W11922   5.136   7.994   4.195 -0.3277 -0.1397 -0.0401
 7723W        W11923   8.414   5.211   2.868 -0.0080  0.1865  0.5373
 7724W        W11924   2.107   6.964   4.393 -0.1189 -0.2972  0.1140
 7725W        W11925   6.721   6.519   0.135  0.3415  0.3600  0.0084
 7726W        W11926   3.810   2.073   1.960 -0.1887 -0.0041  0.1672
 7727W        W11927   3.827   6.762   3.918  0.0840  0.1812 -0.1173
 7728W        W11928   5.623   2.271  12.835 -0.0320 -0.2203  0.0944
 7729W        W11929   9.117   1.889  12.867 -0.1260 -0.1256 -0.0100
 7730W        W11930   4.232   2.236  13.267  0.0018  0.1773  0.0932
 7731W        W11931   7.409   1.462  11.420 -0.0776  0.1016 -0.1957
 7732W        W11932   9.492   8.680  12.651  0.2742 -0.0907  0.2135
 7733W        W11933   2.725   0.278  10.613 -0.0917  0.0968 -0.2385
 7734W        W11934   8.015   5.586   5.424  0.2577 -0.4936 -0.5839
 7735W        W11935   6.631   1.919   2.550 -0.4690  0.0907  0.0890
 7736W        W11936  10.122   7.914   9.935 -0.2813 -0.1194  0.2054
 7737W        W11937   6.517   8.977   9.439 -0.1453  0.2146  0.1738
 7738W        W11938   3.891   7.166   5.611 -0.1886 -0.0277 -0.1746
 7739W        W11939   9.478  10.132  12.866 -0.2007  0.2948 -0.2972
 7740W        W11940   4.998   1.546  12.470  0.3072 -0.4474  0.1387
 7741W        W11941   8.706   5.628  13.481 -0.0975  0.0985  0.1726
 7742W        W11942   7.499   4.005  11.868 -0.2914  0.1220 -0.0095
 7743W        W11943   9.050   7.958   2.344 -0.0182  0.1498  0.0895
 7744W        W11944   3.030   9.445   4.574  0.1265 -0.2145 -0.4777
 7745W        W11945   7.055   9.646   3.196  0.0186 -0.0624 -0.1763
 7746W        W11946   2.332   8.375   2.378  0.3229  0.1376 -0.3892
 7747W        W11947   9.515   2.535   1.443 -0.3533  0.1362 -0.2028
 7748W        W11948   3.357   1.663   0.025 -0.0369  0.0307 -0.0303
 7749W        W11949   6.801   9.264   1.389  0.1056 -0.0747  0.0177
 7750W        W11950   9.679   9.348  10.742 -0.2747 -0.1233  0.0883
 7751W        W11951   5.607   4.385   0.956 -0.0106  0.1981  0.0466
 7752W        W11952   9.410   7.255   9.361  0.0499 -0.1199 -0.0360
 7753W        W11953   4.414   9.678  11.978  0.0397  0.2018  0.0731
 7754W        W11954   6.827   5.908   2.568 -0.0966  0.3932 -0.2620
 7755W        W11955   8.737   1.512   0.003  0.2329 -0.0280 -0.1665
 7756W        W11956   1.695   8.400   1.623  0.2992  0.1938  0.1982
 7757W        W11957   3.299   2.187  13.574 -0.1914  0.1657  0.1099
 7758W        W11958   8.328   2.485  10.293  0.2720 -0.2163  0.1093
 7759W        W11959   1.315   4.987  11.580  0.2723  0.0427 -0.0849
 7760W        W11960   5.024   0.217  10.125 -0.0489  0.2142  0.1215
 7761W        W11961   3.961   4.886  10.673 -0.0886 -0.2064 -0.2523
 7762W        W11962   1.778   0.125  12.615  0.0471 -0.4049 -0.1063
 7763W        W11963   1.630   3.973   9.696  0.4733 -0.2301  0.0774
 7764W        W11964   9.939   2.608   1.762  0.1575  0.1512 -0.0101
 7765W        W11965   6.927   5.107   1.384 -0.2772 -0.0104 -0.0167
 7766W        W11966   2.790   2.890  12.429 -0.0153 -0.0556 -0.0147
 7767W        W11967   2.200   1.735  12.780  0.0162 -0.0916  0.2228
 7768W        W11968   7.914   2.435  11.431 -0.4228  0.1174 -0.2421
 7769W        W11969   6.614   0.342   2.816  0.0156  0.3755 -0.0800
 7770W        W11970   8.204   6.910   1.072 -0.0701  0.1578 -0.2265
 7771W        W11971   2.697   9.902   5.099 -0.0092  0.2060  0.3267
 7772W        W11972   5.037   3.613   1.270  0.0020  0.1969 -0.0725
 7773W        W11973   3.040  10.420   0.874 -0.1175  0.0688 -0.1812
 7774W        W11974   1.184   9.111  12.260  0.0992  0.1334  0.3270
 7775W        W11975   7.570   4.359   2.705  0.0932  0.0583 -0.1456
 7776W        W11976   7.526   0.551   3.825  0.1768  0.1114 -0.0302
 7777W        W11977   7.320   8.908   4.773  0.1725  0.3015 -0.0780
 7778W        W11978   7.499   7.192   8.488  0.0463  0.0655 -0.0939
 7779W        W11979   5.422   2.780   2.891 -0.0013  0.0418 -0.0172
 7780W        W11980   8.651   8.844  10.081 -0.1284 -0.2600  0.1188
 7781W        W11981   6.594  10.161  12.515 -0.2557  0.0440 -0.0263
 7782W        W11982   6.920   9.098   9.085  0.3128 -0.0809  0.0130
 7783W        W11983   5.407   9.844   1.447 -0.1824 -0.1466 -0.1635
 7784W        W11984   0.237   4.493   0.416 -0.1489  0.0070  0.1936
 7785W        W11985   6.605   4.944   1.673 -0.1165  0.0807 -0.1373
 7786W        W11986   0.258   9.185   9.989 -0.1931  0.1806 -0.1205
 7787W        W11987   4.517   6.252  13.562 -0.0094 -0.1078  0.2158
 7788W        W11988   6.031   9.440   4.500  0.1351 -0.0219 -0.0103
 7789W        W11989   3.507   0.678  10.789 -0.0032 -0.1261  0.0738
 7790W        W11990   8.323   5.785   1.191  0.0463  0.2733 -0.0233
 7791W        W11991   9.548   1.198   3.635 -0.0530  0.5583  0.1405
 7792W        W11992   1.323   4.050  11.405 -0.4348 -0.3821 -0.1037
 7793W        W11993   7.886   3.964   1.234 -0.2306 -0.3717  0.2572
 7794W        W11994   2.981   4.846  10.461  0.0986  0.0113 -0.1553
 7795W        W11995   1.425   1.580  12.455 -0.0226  0.1588  0.1928
 7796W        W11996   5.086   2.226  11.795 -0.0798  0.0563  0.0781
 7797W        W11997   9.894   2.056  10.143 -0.0095  0.2933  0.1300
 7798W        W11998   9.384   0.739   3.949 -0.0581 -0.1752  0.0346
 7799W        W11999   0.226  10.264   1.718  0.0284  0.0335 -0.0188
 7800W        W12000   4.813   0.820  11.549 -0.0745  0.0757 -0.1428
 7801W        W12001   2.381   3.019  11.602  0.2863 -0.5289 -0.0918
 7802W        W12002   3.664   2.947   1.236 -0.0192  0.1625  0.0523
 7803W        W12003   2.340  10.319  13.211  0.4481 -0.1764 -0.1733
 7804W        W12004   3.817   0.689   9.878  0.1573  0.1729 -0.0072
 7805W        W12005   5.317   1.768  10.569 -0.5484  0.0672  0.0579
 7806W        W12006   9.507   0.847   1.709 -0.1156 -0.0326  0.0211
 7807W        W12007   9.453   7.699  10.676 -0.0938 -0.0865  0.1440
 7808W        W12008   4.332   3.431   0.158  0.0625  0.0129  0.1299
 7809W        W12009   3.724   0.209  10.683 -0.0037 -0.1529 -0.1136
 7810W        W12010   5.329   6.747  10.484 -0.3497 -0.3199 -0.1924
 7811W        W12011   6.392   0.323   4.540  0.3043  0.1339  0.1970
 7812W        W12012   3.069   8.342  12.016  0.0812 -0.0319  0.1883
 7813W        W12013   6.689   3.349   1.065  0.0601 -0.2351 -0.2054
 7814W        W12014   7.912   5.178  12.902 -0.2173 -0.0566  0.1054
 7815W        W12015   0.051   0.162  13.099 -0.2678 -0.2075 -0.1565
 7816W        W12016   4.112   5.374  10.730 -0.2411 -0.4577  0.1071
 7817W        W12017   5.824   8.535  10.831  0.0765 -0.2317  0.2904
 7818W        W12018   4.198   8.696   2.898  0.0030  0.4103 -0.0338
 7819W        W12019   4.249   9.466  13.291  0.0946 -0.2235  0.1817
 7820W        W12020  10.106   0.994  13.081 -0.3647  0.1208  0.1667
 7821W        W12021   8.592   9.497   3.576 -0.1551  0.0973  0.0432
 7822W        W12022  10.014   0.711  10.662  0.0355 -0.1765 -0.2178
 7823W        W12023   2.559   8.559  12.658 -0.0308 -0.1029  0.0945
 7824W        W12024   6.569   2.560   0.302  0.0879 -0.2049  0.1709
 7825W        W12025   1.637   8.052  12.899 -0.3534  0.0581  0.4781
 7826W        W12026   3.652   6.858   3.429  0.2111  0.0343  0.2161
 7827W        W12027   6.436   9.712  11.173  0.0247  0.1148 -0.1935
 7828W        W12028   9.283   0.516   1.940  0.4698 -0.0207 -0.0077
 7829W        W12029   4.054   4.398  13.455 -0.3399  0.0920  0.0836
 7830W        W12030   9.290   2.040  10.701 -0.1506  0.4253 -0.1894
 7831W        W12031   4.332   8.211  10.557  0.3437  0.0688 -0.2928
 7832W        W12032   4.554   1.014   3.408  0.0397  0.0203  0.0869
 7833W        W12033   4.654   8.114   2.312 -0.0687 -0.1681 -0.4387
 7834W        W12034   7.306   4.641   0.587  0.1971  0.1408  0.0140
 7835W        W12035   8.801   4.655   5.147 -0.2274  0.1379 -0.1663
 7836W        W12036   4.126   1.427  10.524 -0.0828  0.0061 -0.2776
 7837W        W12037   0.740   3.044   0.851  0.0720 -0.0708  0.0144
 7838W        W12038   0.598   5.442   0.627 -0.2376  0.0087  0.0961
 7839W        W12039   6.453   8.455   5.243 -0.0561  0.0801 -0.1620
 7840W        W12040   4.350   1.270  13.289 -0.0181  0.3315  0.4280
 7841W        W12041   4.260   6.338  13.100 -0.2659  0.1314 -0.2455
 7842W        W12042   8.204   2.177  12.608  0.1575  0.2326 -0.0525
 7843W        W12043   7.523   9.461   0.514 -0.0474 -0.2051  0.0565
 7844W        W12044   8.231   1.676  11.878 -0.2011  0.0243 -0.1215
 7845W        W12045   5.377  10.166   2.354 -0.3020  0.1657 -0.0367
 7846W        W12046   9.890   6.294   4.055  0.1904  0.2363  0.1893
 7847W        W12047   5.571   4.356   9.635  0.2699  0.2277  0.2043
 7848W        W12048   0.177   4.496   3.634 -0.1708 -0.1855 -0.1913
 7849W        W12049   3.823  10.365  12.198  0.1727 -0.1168  0.0184
 7850W        W12050   4.276   6.713  11.744 -0.1911  0.1803  0.0855
 7851W        W12051   9.649   5.155  11.707  0.1067  0.1435 -0.2107
 7852W        W12052   4.703   9.482  13.544  0.0390 -0.1158  0.1131
 7853W        W12053   8.069   5.255   3.239 -0.0458  0.2175  0.3085
 7854W        W12054   0.895   5.430   2.385  0.4248  0.5681  0.1395
 7855W        W12055   0.367   2.090   0.713  0.1079  0.0251 -0.1559
 7856W        W12056   5.029   6.145   0.002  0.1547  0.0286  0.3595
 7857W        W12057   4.024   0.916  12.146 -0.0250 -0.2662 -0.0764
 7858W        W12058   3.396   4.573   4.564  0.0042 -0.0965 -0.1032
 7859W        W12059   8.704   3.935   1.115  0.4606  0.0261  0.0005
 7860W        W12060   6.490   9.677  12.921  0.0271 -0.0460  0.1163
 7861W        W12061  10.089   3.740   3.856  0.0204 -0.2085 -0.2301
 7862W        W12062  10.266   4.923   9.238 -0.0933  0.0535  0.0523
 7863W        W12063   6.426   2.422   2.697 -0.1893  0.1535 -0.5136
 7864W        W12064   9.784   0.350  11.347  0.2159  0.2824  0.0228
 7865W        W12065   9.871   5.086  12.178 -0.1049  0.2827 -0.2085
 7866W        W12066   0.596   6.933  12.996  0.1647  0.0101  0.2110
 7867W        W12067   8.191   6.675   1.540  0.0453  0.1593 -0.0184
 7868W        W12068   5.755   3.336  12.102 -0.1207  0.2211  0.0988
 7869W        W12069   8.904   9.584  12.423  0.0628 -0.2814  0.1432
 7870W        W12070   4.775   5.455   0.627 -0.1507  0.0459  0.0727
 7871W        W12071   8.078   5.900  10.663 -0.0558  0.1793  0.0290
 7872W        W12072   5.079   7.625   3.496  0.0061 -0.1085 -0.0655
 7873W        W12073   2.980   5.766   2.761 -0.2574  0.0680  0.2883
 7874W        W12074   1.376   9.496  13.071 -0.0894 -0.0528  0.2517
 7875W        W12075   3.801   2.887  11.076  0.0743  0.0350  0.1816
 7876W        W12076   0.612   6.916   0.830 -0.0125  0.1018 -0.3879
 7877W        W12077   5.105   8.302   3.745 -0.0528 -0.1165  0.1357
 7878W        W12078   0.162   3.146   0.255 -0.0136  0.0152  0.0125
 7879W        W12079   1.771  10.272   0.689  0.0623  0.3301 -0.3276
 7880W        W12080   7.308   6.268   1.170  0.0292 -0.0485 -0.2762
 7881W        W12081   3.912   4.078  10.197  0.0676 -0.0348  0.1770
 7882W        W12082  10.136   1.599  10.718  0.0366  0.1195  0.1562
 7883W        W12083   6.482   6.129  12.761  0.0861  0.1459 -0.0224
 7884W        W12084  10.322   1.028   0.001  0.0491 -0.1604  0.1044
 7885W        W12085   3.611   3.328  10.802  0.1016 -0.0672  0.0262
 7886W        W12086   3.142   3.629   2.399  0.0577  0.1882 -0.0552
 7887W        W12087   3.343   7.893   0.321  0.0098 -0.0627 -0.1705
 7888W        W12088   7.946   9.692   0.720  0.1307 -0.0402  0.1533
 7889W        W12089   9.692   6.762   9.202  0.3683  0.1670 -0.2102
 7890W        W12090   8.381   3.563   2.388  0.1079 -0.0563 -0.2155
 7891W        W12091   6.269   3.657  10.767 -0.1389 -0.0093 -0.0260
 7892W        W12092   4.694   1.123   2.480 -0.1548 -0.3528 -0.0608
 7893W        W12093   5.466   3.071  13.466  0.1802  0.4391 -0.1669
 7894W        W12094   3.813   6.892  12.489  0.1753  0.0590  0.1266
 7895W        W12095   4.007   4.725  10.174 -0.3633 -0.0015 -0.1124
 7896W        W12096   9.054   5.186  11.673  0.1223 -0.3342  0.1705
 7897W        W12097   6.203   1.324   3.165 -0.2936  0.0396  0.1498
 7898W        W12098   0.537   4.997  12.782 -0.0176 -0.0285  0.0835
 7899W        W12099   7.418   4.139   0.781  0.1936 -0.3179  0.1138
 7900W        W12100   1.322   8.341  10.186  0.2726 -0.1934  0.2006
 7901W        W12101   3.947   6.006   9.910  0.0954  0.0051 -0.2048
 7902W        W12102   7.050   1.001   9.532 -0.2482  0.0149 -0.0210
 7903W        W12103   7.072   9.591   9.226 -0.0756 -0.0350 -0.0663
 7904W        W12104   9.134   5.824   9.246  0.0063 -0.0231 -0.3726
 7905W        W12105   7.459   5.807   4.198  0.0612  0.1546 -0.2421
 7906W        W12106   9.398   0.157   2.563 -0.1326  0.1955 -0.6047
 7907W        W12107   0.390   2.682   3.482 -0.1172  0.1123  0.2461
 7908W        W12108   0.447   1.038  13.389  0.0957  0.1897 -0.0550
 7909W        W12109   7.228   5.849  10.811 -0.1102  0.1381  0.3076
 7910W        W12110   4.620   1.465   3.506 -0.1865 -0.1116  0.2611
 7911W        W12111   6.028   6.919  12.984  0.0269  0.0481  0.0918
 7912W        W12112   2.776   0.755  10.054  0.0448 -0.3652  0.0193
 7913W        W12113   2.203   7.683   1.324  0.1469  0.1360  0.1804
 7914W        W12114   7.071   1.907   1.866 -0.1758  0.2292 -0.1219
 7915W        W12115   8.183   5.030   1.775  0.2401 -0.0167  0.0497
 7916W        W12116   2.719   0.546   3.443 -0.3313  0.0162  0.1828
 7917W        W12117   4.592   7.639   0.561  0.0747 -0.2821  0.1563
 7918W        W12118   9.039   8.231   0.838  0.1491  0.2153  0.0080
 7919W        W12119   2.645   6.853  11.025 -0.0830  0.0270 -0.1028
 7920W        W12120   2.136  10.274   2.551  0.0283 -0.1204 -0.0540
 7921W        W12121  10.408   2.187   9.993  0.2665  0.0181  0.0532
 7922W        W12122   7.211   6.367   1.975 -0.3851 -0.0248  0.0452
 7923W        W12123   5.248   8.646  11.534 -0.1193  0.1573 -0.0326
 7924W        W12124   3.303   7.781   9.135  0.2676 -0.1815 -0.0802
 7925W        W12125   2.460   2.521   9.439 -0.0967  0.1454  0.3506
 7926W        W12126   5.271   8.972   0.450 -0.1327 -0.1190 -0.1706
 7927W        W12127   8.920   7.614   3.444  0.0936  0.2491  0.0408
 7928W        W12128   2.103   1.510   6.051  0.4259  0.1751  0.2465
 7929W        W12129   2.668   7.336  10.926  0.0325  0.3211  0.0398
 7930W        W12130   4.388   9.259   3.539  0.1369 -0.4534 -0.3253
 7931W        W12131   4.503   7.293   2.630  0.0719 -0.0398 -0.2371
 7932W        W12132   4.648   1.093  11.182  0.0566 -0.0075  0.2790
 7933W        W12133   6.391   6.609   1.563 -0.2232  0.1970 -0.3496
 7934W        W12134   0.868   5.485  12.299  0.0032 -0.2698 -0.1677
 7935W        W12135  10.392   7.230  11.205  0.1969  0.1428 -0.2030
 7936W        W12136   1.474   4.561  11.392  0.2950  0.2377  0.2216
 7937W        W12137   6.113   8.270   8.607 -0.5737  0.1002 -0.0817
 7938W        W12138   6.446   7.445  11.235  0.3798  0.0732 -0.0620
 7939W        W12139   9.168   6.024  10.673  0.1073  0.2872  0.1575
 7940W        W12140   0.072   8.847   0.544 -0.1184 -0.2570 -0.0298
 7941W        W12141   0.574   4.242  12.197  0.0123 -0.3515  0.2420
 7942W        W12142   9.618   1.826   1.524 -0.0918  0.3712  0.0145
 7943W        W12143   2.257   0.231   3.835 -0.1803  0.0743 -0.0987
 7944W        W12144   3.097   6.587  11.028  0.0471 -0.0407  0.1405
 7945W        W12145   2.903   6.902   9.708 -0.0130 -0.1443  0.2076
 7946W        W12146   5.582   5.748   3.054 -0.2265  0.2800 -0.0247
 7947W        W12147   6.795   0.846   3.703  0.2045  0.1559 -0.3473
 7948W        W12148   3.021   4.597   2.168 -0.0845 -0.1146 -0.0322
 7949W        W12149   7.828   1.451  10.027  0.0824  0.0846 -0.3443
 7950W        W12150   7.588   2.182   4.802 -0.1672  0.1848 -0.0750
 7951W        W12151   6.131   1.232  10.346  0.1542 -0.1136 -0.2891
 7952W        W12152   0.737   9.050   3.664  0.0579 -0.3556  0.1764
 7953W        W12153   8.789   8.102   9.566 -0.1165 -0.0720  0.0606
 7954W        W12154   9.030   0.696   9.240  0.1237 -0.2141 -0.0933
 7955W        W12155   7.406   6.908   9.821 -0.0420 -0.1678 -0.0962
 7956W        W12156   1.781   5.754   4.245  0.2136  0.0967 -0.0694
 7957W        W12157   6.785   7.923   3.108 -0.3259 -0.1604  0.1199
 7958W        W12158   9.190   7.338   0.695  0.0247  0.0613 -0.2791
 7959W        W12159   6.727   8.875  10.615 -0.2545 -0.3285  0.0003
 7960W        W12160   0.247   8.234   3.972 -0.0864  0.0042  0.1067
 7961W        W12161   2.668   0.660   1.441 -0.0198 -0.0226  0.0563
 7962W        W12162   3.173   2.719  11.456 -0.2688  0.1088 -0.0194
 7963W        W12163   2.006   3.883   2.031  0.3072 -0.2103 -0.0073
 7964W        W12164   8.473   3.282  12.692 -0.1126 -0.4218 -0.0512
 7965W        W12165   7.881   9.642   1.995  0.0928 -0.1656  0.0728
 7966W        W12166   0.198   3.558  12.640  0.1081 -0.2257 -0.1638
 7967W        W12167   9.212   3.481  13.296  0.0766  0.2835 -0.3719
 7968W        W12168   9.368   0.614  13.073  0.2909  0.1257  0.1303
 7969W        W12169   8.787   2.972   8.769 -0.1223  0.1967  0.1943
 7970W        W12170   3.175   0.865   4.265  0.0761  0.0739  0.2064
 7971W        W12171   3.211   6.183  11.342  0.2578 -0.2700  0.0042
 7972W        W12172   8.363   5.985   3.823 -0.0115 -0.2451 -0.2708
 7973W        W12173  10.113   0.027   1.818 -0.1403  0.1811  0.4479
 7974W        W12174   7.503  10.089   9.974  0.0538  0.1402  0.2785
 7975W        W12175   5.042   5.857   0.533 -0.0230  0.1643  0.0622
 7976W        W12176   0.299   0.132  12.464  0.0013  0.0716  0.0042
 7977W        W12177  10.212   0.161   8.544 -0.0366  0.1212 -0.2108
 7978W        W12178   7.114   1.779   2.816 -0.1134 -0.2169  0.1187
 7979W        W12179   2.642  10.245  11.989 -0.1058  0.4271 -0.0023
 7980W        W12180   8.529   0.123   9.671  0.1343 -0.0559  0.2211
 7981W        W12181   9.082   8.280   4.106 -0.0243 -0.0418  0.3216
 7982W        W12182   4.619   3.535  12.427 -0.0597  0.2045  0.0473
 7983W        W12183   0.893   9.906  12.970 -0.0974  0.1699  0.0314
 7984W        W12184   7.870   4.980  12.058  0.2212  0.3364  0.2763
 7985W        W12185   5.442   1.642   8.151 -0.0552 -0.0177 -0.2391
 7986W        W12186   5.333   8.142  10.994 -0.2967  0.2321 -0.0878
 7987W        W12187   6.389  10.234   0.438 -0.0771  0.1029  0.0065
 7988W        W12188   0.083   7.722   9.108  0.1171 -0.0287 -0.1391
 7989W        W12189  10.311   1.073   9.937  0.1246 -0.1824  0.0114
 7990W        W12190   1.777   6.473   0.929  0.0348  0.0137  0.0474
 7991W        W12191   1.222   5.604  13.350  0.2029  0.1240  0.0093
 7992W        W12192   8.020   9.149   2.046  0.1025  0.0530  0.0483
 7993W        W12193   3.202   7.960   1.045  0.0380  0.0953  0.1309
 7994W        W12194   4.225   0.031  10.611  0.0568 -0.2347  0.2233
 7995W        W12195   2.579   0.571  11.050 -0.0027  0.0135 -0.1817
 7996W        W12196   5.526   2.031  11.458 -0.0684 -0.2400  0.1807
 7997W        W12197   2.972   1.990   7.458  0.1380 -0.2889  0.0197
 7998W        W12198   3.952   6.681   2.106 -0.0212 -0.3342  0.3284
 7999W        W12199   5.575   8.426  12.456  0.0560  0.1331 -0.0487
 8000W        W12200   2.118   1.485  10.598 -0.2354 -0.2507 -0.0199
 8001W        W12201   6.152   1.418  13.127 -0.1581  0.0268 -0.2315
 8002W        W12202   7.995   5.273   8.961 -0.2819 -0.1293  0.1426
 8003W        W12203   6.561   0.896   0.089 -0.2876 -0.2925  0.0015
 8004W        W12204  10.240   3.518   1.737  0.0973 -0.0712  0.2372
 8005W        W12205   6.192   2.362   4.531 -0.0230  0.0127 -0.0751
 8006W        W12206   9.753   4.947   0.942  0.4575  0.1939 -0.0518
 8007W        W12207   4.701   9.580   3.301 -0.1865  0.2361 -0.0243
 8008W        W12208   2.770   4.630   0.988 -0.0550  0.1499  0.1728
 8009W        W12209   5.636  10.353   1.500  0.1357 -0.0335  0.1276
 8010W        W12210   1.976   2.943   1.629 -0.0575 -0.3311 -0.0888
 8011W        W12211   2.997   6.434  12.730  0.0151 -0.1789 -0.0945
 8012W        W12212   1.046   9.780   2.574  0.1572 -0.1209 -0.2217
 8013W        W12213   3.677   8.043   9.326  0.3340 -0.0737 -0.3391
 8014W        W12214   9.396   0.674   8.926 -0.2106 -0.1616  0.0207
 8015W        W12215   1.827   8.051   3.182  0.1404  0.0380  0.4335
 8016W        W12216   9.654   4.349   9.199 -0.0331  0.1565  0.0342
 8017W        W12217   3.040   4.126  13.535  0.0819  0.1248 -0.3717
 8018W        W12218   7.904   8.751   2.955 -0.0286  0.1853 -0.1401
 8019W        W12219   3.809   6.401   3.576  0.1476  0.0729  0.1507
 8020W        W12220   6.231   8.448   0.004  0.0538 -0.1542  0.1035
 8021W        W12221   0.930  10.111  11.812  0.0346  0.2565 -0.0010
 8022W        W12222   2.110   4.569   2.566 -0.0493  0.0781  0.0925
 8023W        W12223   0.998   3.468  13.478  0.2736 -0.1086 -0.0574
 8024W        W12224   3.089   1.714   9.520  0.1717 -0.1201  0.0435
 8025W        W12225   9.887  10.337  11.222  0.1799 -0.2422 -0.1363
 8026W        W12226   0.747   2.349   3.334  0.0996  0.1527 -0.1963
 8027W        W12227   0.661   3.632   0.992  0.4215  0.0605 -0.0184
 8028W        W12228   6.135   1.198   5.403  0.3866  0.1589 -0.1480
 8029W        W12229   5.555   3.144   4.526 -0.2119  0.1300  0.1168
 8030W        W12230   3.739   3.629  10.385  0.1408 -0.1673 -0.1818
 8031W        W12231   3.859   1.193  13.563  0.0063 -0.0586  0.2982
 8032W        W12232   3.304   7.298   3.500 -0.0093 -0.0406 -0.0209
 8033W        W12233   2.883   5.258   2.749 -0.3620 -0.0988  0.1481
 8034W        W12234   0.007   9.096   1.100 -0.3184  0.1623 -0.0368
 8035W        W12235   5.949   8.479   4.129 -0.0648 -0.4353 -0.1773
 8036W        W12236   9.629   2.663  13.090 -0.1753  0.2538 -0.1863
 8037W        W12237   6.826  10.013  13.283 -0.3047 -0.0445  0.3436
 8038W        W12238   3.170   0.309   1.225  0.0650 -0.1812 -0.0611
 8039W        W12239   9.570   9.388  11.209  0.0134 -0.2103  0.0189
 8040W        W12240   1.619   7.965   9.952  0.4319  0.0258 -0.0716
 8041W        W12241   2.478   8.965   2.413  0.1470  0.0468 -0.1723
 8042W        W12242   5.065   9.427  10.069 -0.4354  0.0755  0.1210
 8043W        W12243   1.407   0.810   2.852 -0.3638 -0.0851  0.2747
 8044W        W12244   2.988   1.018   2.619 -0.1783  0.2568  0.1971
 8045W        W12245   3.455   2.426  12.686 -0.3403  0.0637  0.2312
 8046W        W12246   0.451   4.910  11.087  0.0357 -0.0212  0.0284
 8047W        W12247   8.400   0.648   0.752  0.2262 -0.0650 -0.0313
 8048W        W12248   5.041   3.775   3.201 -0.0124 -0.1812  0.0696
 8049W        W12249   1.196   8.683   8.994 -0.0822  0.0595 -0.0692
 8050W        W12250   6.569   8.776   1.261 -0.2136  0.3950 -0.0900
 8051W        W12251   6.880   5.058   2.650  0.1590 -0.2073  0.1278
 8052W        W12252   9.529   4.679  12.833  0.0192  0.2325  0.3059
 8053W        W12253   1.956   4.333   2.993 -0.0168 -0.0862  0.0361
 8054W        W12254   0.660   5.713   1.097  0.1972 -0.0263  0.4107
 8055W        W12255   6.598   0.812   0.799 -0.0354  0.2876  0.0030
 8056W        W12256   5.347   7.353  12.492 -0.0464 -0.1797  0.1639
 8057W        W12257   4.922   7.585   0.047  0.1383  0.2806  0.1256
 8058W        W12258   1.616   3.285   0.874  0.1073 -0.2424 -0.2504
 8059W        W12259   6.348   1.429   1.372 -0.1406 -0.1473  0.1113
 8060W        W12260   6.224   4.712   5.546 -0.0244 -0.1985  0.0696
 8061W        W12261   7.647   9.395   1.072  0.0195  0.4690 -0.2897
 8062W        W12262   1.568   1.003   1.995 -0.0115 -0.0677  0.0105
 8063W        W12263   7.716   2.303   9.573  0.1673 -0.0558 -0.1070
 8064W        W12264   5.035   9.218   1.829 -0.2869  0.1215  0.1598
 8065W        W12265   7.113   9.484   0.116  0.1655  0.0332 -0.1639
 8066W        W12266   4.963   1.624   1.624  0.1247 -0.3474  0.0293
 8067W        W12267   2.091   4.771  10.703 -0.0925 -0.2760 -0.2089
 8068W        W12268   6.887   7.912  11.717 -0.3256  0.0336 -0.5575
 8069W        W12269   0.596   4.615  13.236  0.5595 -0.1211  0.2037
 8070W        W12270   2.462   4.346  10.054  0.2751 -0.4207  0.1687
 8071W        W12271   1.565   9.122  10.969  0.0040 -0.0215 -0.1432
 8072W        W12272   0.473   9.440   1.007 -0.1041 -0.0427  0.2955
 8073W        W12273   8.997   5.318   0.692  0.1538  0.0123 -0.2250
 8074W        W12274   2.428   4.508   2.158 -0.2461  0.2892 -0.3017
 8075W        W12275   4.976   1.047   0.538 -0.2792  0.4411  0.1438
 8076W        W12276   9.540  10.356  11.645  0.0276  0.3175  0.1578
 8077W        W12277   7.224   4.671  12.316 -0.1688  0.0335  0.0731
 8078W        W12278   8.604  10.230  10.079 -0.1094  0.0521 -0.2412
 8079W        W12279   2.854   6.131  10.961 -0.4127 -0.0352  0.0260
 8080W        W12280   8.135   5.326  13.337  0.3179  0.1839 -0.4305
 8081W        W12281   1.684   5.581   1.237  0.0366 -0.1237  0.0854
 8082W        W12282   7.519   9.024  11.501 -0.2994  0.4095 -0.1059
 8083W        W12283   3.494   9.995  13.165  0.1988 -0.0350  0.0498
 8084W        W12284   0.555   3.201   0.027 -0.3549 -0.1799  0.0283
 8085W        W12285   4.455   9.864   2.519  0.0818 -0.0315 -0.0219
 8086W        W12286   5.291   0.840   5.072 -0.0898 -0.2927 -0.2271
 8087W        W12287   6.335   5.729   2.599 -0.3928 -0.0257  0.0456
 8088W        W12288   7.778  10.295   8.400  0.1948 -0.4076 -0.1740
 8089W        W12289   3.399   2.052   2.364 -0.1072  0.1702  0.5167
 8090W        W12290   0.235   3.805  11.992 -0.1223  0.2639  0.1368
 8091W        W12291   6.261   8.561   3.728 -0.4575 -0.2327 -0.2423
 8092W        W12292   5.805   8.967  11.142 -0.0636  0.4052 -0.1360
 8093W        W12293   4.734   0.403   2.622 -0.0256 -0.2741 -0.1842
 8094W        W12294   8.387   5.128  10.901  0.1227  0.0391  0.1007
 8095W        W12295   0.865   8.570   3.406 -0.0924 -0.1455  0.1301
 8096W        W12296   2.881   9.377  10.446  0.1511  0.1762  0.1444
 8097W        W12297   5.718   6.119   1.044 -0.1589 -0.0112  0.0343
 8098W        W12298   6.210   1.433   4.552  0.0297  0.1438 -0.4133
 8099W        W12299   5.808   7.998  11.593  0.1370 -0.1263 -0.0279
 8100W        W12300   1.253   2.359   0.828  0.0597 -0.1415  0.0777
 8101W        W12301   3.152   2.760   2.514 -0.0554 -0.0694  0.0095
 8102W        W12302   9.924   4.873  11.398  0.0967  0.3144  0.2001
 8103W        W12303   1.567   9.743  10.201  0.1672 -0.1084 -0.0594
 8104W        W12304   4.065   2.920   1.598  0.2665  0.1601  0.1681
 8105W        W12305   4.318   0.683   3.683 -0.1958  0.0163  0.2113
 8106W        W12306   7.043   9.056  10.984  0.2475 -0.0145  0.2435
 8107W        W12307   8.848   4.598  10.956 -0.0046  0.0155 -0.1452
 8108W        W12308   5.771   1.990   1.802  0.3148  0.2087 -0.0095
 8109W        W12309   5.414   8.026   3.382  0.1730 -0.2943  0.2403
 8110W        W12310   2.639   4.268   3.919 -0.3397 -0.0721 -0.1259
 8111W        W12311   4.935   9.842   2.405  0.0447 -0.2425  0.0263
 8112W        W12312   3.306   8.372   0.489 -0.0884  0.1205 -0.0329
 8113W        W12313   9.292   0.899   3.229 -0.2818  0.1250  0.2013
 8114W        W12314   8.342   0.182   0.997 -0.0750  0.1172 -0.0859
 8115W        W12315   4.252   4.484   0.358  0.0251  0.0971  0.1046
 8116W        W12316   9.046   0.130   4.503  0.1240  0.4466  0.3259
 8117W        W12317   4.277  10.147  13.182 -0.0977  0.0498  0.1814
 8118W        W12318   3.809   1.061  10.725 -0.0793  0.3055  0.3544
 8119W        W12319   8.880   0.841   4.000 -0.1274 -0.0675 -0.0564
 8120W        W12320   9.297   2.163   1.162  0.3613  0.0604 -0.1854
 8121W        W12321   0.603   8.865  11.376  0.0661  0.1071  0.1539
 8122W        W12322   0.409   5.517  12.340  0.1994  0.0651 -0.1765
 8123W        W12323   3.069   0.667  10.532  0.1260 -0.3277  0.2892
 8124W        W12324   7.577   2.673   5.050 -0.0263  0.1774 -0.4888
 8125W        W12325   4.700   0.894  12.600  0.1593 -0.0746 -0.0514
 8126W        W12326   5.656   0.161   0.597 -0.1244  0.0618 -0.1975
 8127W        W12327   6.147   3.650  10.062 -0.0617  0.1246 -0.4548
 8128W        W12328   9.938   9.390   2.643  0.3383  0.0951 -0.2453
 8129W        W12329   1.125   2.946  13.551 -0.0367 -0.0141  0.0396
 8130W        W12330   0.023   9.776  13.515  0.3895 -0.1868  0.0406
 8131W        W12331   9.649   9.660   9.105  0.0682 -0.3434  0.3608
 8132W        W12332   9.433   5.324   4.719 -0.2833 -0.4228 -0.1473
 8133W        W12333  10.382   0.339   1.503 -0.4205  0.0825  0.0232
 8134W        W12334   8.868   3.264  11.515  0.2666  0.0228 -0.2466
 8135W        W12335   5.244   9.220  12.818  0.0648  0.0774 -0.1183
 8136W        W12336   2.637   7.607  13.165 -0.2861 -0.3865  0.0568
 8137W        W12337   2.716   2.073   5.779  0.1403 -0.1159 -0.1398
 8138W        W12338   7.325   5.534   9.491 -0.0516  0.2506 -0.1033
 8139W        W12339   2.004   7.614   0.476  0.3074 -0.0659 -0.0108
 8140W        W12340   2.188   7.356   0.862  0.0050  0.3973  0.1474
 8141W        W12341   3.952   9.539   2.757 -0.1023 -0.3521  0.2551
 8142W        W12342   0.754   3.559   3.142 -0.1554 -0.2876 -0.1783
 8143W        W12343   4.345   8.692   2.246 -0.0220  0.0809 -0.3695
 8144W        W12344   0.859   3.521  12.911 -0.2757 -0.1543 -0.0154
 8145W        W12345   9.932   2.913   0.676  0.2132  0.0498 -0.0586
 8146W        W12346   2.586   9.538   9.609  0.4455  0.1689 -0.2686
 8147W        W12347   1.496   3.857   7.526  0.0530  0.2449 -0.0074
 8148W        W12348   0.049   6.357  13.442 -0.0347 -0.2529 -0.0835
 8149W        W12349   1.730  10.292  11.003  0.1023 -0.1396 -0.2157
 8150W        W12350   2.403   5.917   0.424 -0.0931 -0.0937 -0.0795
 8151W        W12351   1.795   2.127   2.526  0.1309 -0.0529 -0.2278
 8152W        W12352   4.838   6.687   1.279 -0.1255  0.2426  0.0169
 8153W        W12353   1.397   9.783   3.662 -0.2347  0.1022  0.0037
 8154W        W12354   8.410   3.528   1.093 -0.1299  0.0229 -0.0849
 8155W        W12355   2.356   7.029   1.270 -0.0060 -0.2191  0.4234
 8156W        W12356   7.603   4.203   1.680 -0.1982 -0.2429  0.3168
 8157W        W12357   6.844   2.003  12.585 -0.2237  0.0574  0.2659
 8158W        W12358   9.084   9.584   2.612  0.1652 -0.1251 -0.1347
 8159W        W12359   6.450   1.520  10.037 -0.2502 -0.1337  0.0163
 8160W        W12360   3.539   7.173   9.894 -0.0341  0.0099  0.2481
 8161W        W12361  10.075   8.279   5.221 -0.3926  0.1405  0.0482
 8162W        W12362   8.634   6.954   1.375 -0.0885 -0.2323  0.1880
 8163W        W12363   0.548   8.956   0.308 -0.3032  0.0600  0.0003
 8164W        W12364   5.402   7.914  13.358  0.0449  0.2574 -0.3480
 8165W        W12365   8.693   5.557   1.975 -0.1956  0.0323 -0.0366
 8166W        W12366  10.124   6.378   0.835 -0.1538  0.3942  0.4698
 8167W        W12367  10.018   8.521  10.497  0.1105  0.0299  0.0059
 8168W        W12368   2.011   0.861   1.652 -0.0844  0.2085 -0.0648
 8169W        W12369   0.561   2.112   1.190  0.1042  0.1202 -0.0307
 8170W        W12370   5.350   4.700   4.171  0.2685  0.3742 -0.0506
 8171W        W12371   5.192   1.074   9.972 -0.1577  0.0585  0.0458
 8172W        W12372   1.292   6.204   2.071  0.2877 -0.1952 -0.0655
 8173W        W12373   4.960   1.215   9.015 -0.0306  0.1802  0.0156
 8174W        W12374   8.734  10.041   4.554  0.1115  0.1692  0.0400
 8175W        W12375   7.247   6.943  13.487 -0.1733  0.0306  0.0118
 8176W        W12376   2.181   0.499   2.920 -0.1453 -0.0520 -0.2101
 8177W        W12377   3.541   0.335  11.922  0.1778  0.0092 -0.2868
 8178W        W12378   3.280   9.388   0.454  0.2420  0.0788  0.1459
 8179W        W12379   1.088   9.532  12.575  0.3643 -0.3474 -0.0052
 8180W        W12380   9.691   2.619   4.131 -0.4414  0.2907  0.0052
 8181W        W12381   6.028   7.277   1.388  0.1769  0.1556  0.3401
 8182W        W12382   4.514   7.107  11.941  0.3749  0.0799  0.0437
 8183W        W12383   3.523   6.604   9.197  0.0829 -0.3045 -0.0704
 8184W        W12384   4.365   6.870  13.459  0.2066  0.0067  0.1482
 8185W        W12385  10.158   9.728   5.303  0.1494  0.0707  0.0154
 8186W        W12386   1.023   0.659   1.433  0.1587 -0.0202  0.3672
 8187W        W12387   6.370   8.144   1.001 -0.1483  0.2316  0.1523
 8188W        W12388   8.835   6.196   3.816 -0.2155 -0.0273  0.0783
 8189W        W12389   6.881   8.003  10.150  0.1550  0.0312  0.3134
 8190W        W12390   7.529  10.313   9.013  0.0023  0.0093 -0.1327
 8191W        W12391   7.317   9.811   1.879  0.0902  0.2687  0.1013
 8192W        W12392   5.517   7.086  12.885  0.0159  0.5146 -0.1945
 8193W        W12393   5.166   7.620   1.649  0.1860 -0.0489  0.1460
 8194W        W12394   9.559   8.861  10.819 -0.0342 -0.1341 -0.1556
 8195W        W12395   2.117   3.956   1.055 -0.4511  0.4162 -0.0386
 8196W        W12396   8.334   6.023   0.696 -0.2446 -0.0393  0.0953
 8197W        W12397   7.010   4.717   3.641  0.1771 -0.0390 -0.0060
 8198W        W12398   9.832   1.168   2.686 -0.0518 -0.0313 -0.0829
 8199W        W12399   8.345   4.559  10.784 -0.0770  0.0913 -0.6329
 8200W        W12400   5.812   2.922   0.796 -0.1360 -0.0910  0.0018
 8201W        W12401   4.338   9.749   2.993  0.1294  0.1067 -0.0010
 8202W        W12402   6.007   1.215  11.354 -0.1793  0.0140 -0.1611
 8203W        W12403   5.989   9.107   3.055  0.2131 -0.0706 -0.1176
 8204W        W12404  10.114   4.604  10.542 -0.1157 -0.0191 -0.2804
 8205W        W12405   9.866   1.949  12.062  0.0757  0.2078  0.2565
 8206W        W12406   6.161   8.110  10.598 -0.1933  0.1401 -0.1732
 8207W        W12407   9.292   6.010   0.485  0.0292  0.0637  0.1193
 8208W        W12408   0.276   0.606   9.882 -0.1657 -0.3222 -0.0432
 8209W        W12409   7.449   2.687   2.866 -0.1815  0.0537 -0.0938
 8210W        W12410   2.661   5.116   0.680  0.2847 -0.0598 -0.0299
 8211W        W12411   3.275   7.817  12.536  0.1388 -0.1441  0.1979
 8212W        W12412   1.289  10.314   9.410  0.1156 -0.2537 -0.1482
 8213W        W12413   7.200   2.015   2.374  0.0026  0.4717 -0.0301
 8214W        W12414   2.799   8.504  13.150  0.1465 -0.2454 -0.2008
 8215W        W12415   7.057   6.202   3.462 -0.0687  0.1323 -0.2234
 8216W        W12416   4.748   9.989  13.307 -0.1528 -0.2500 -0.0509
 8217W        W12417   9.033   0.838   1.561 -0.0644  0.1835  0.1205
 8218W        W12418   9.366   0.317   3.153  0.0470 -0.0465  0.3978
 8219W        W12419   2.748   3.218   2.242 -0.2259  0.0549 -0.0023
 8220W        W12420   9.560   1.621  10.125  0.2418  0.2753  0.0585
 8221W        W12421   4.046   0.366  12.080  0.2036  0.3282 -0.1639
 8222W        W12422   3.124  10.428   1.898  0.1766  0.3492 -0.0978
 8223W        W12423   2.944   9.047  12.389  0.0934 -0.3274 -0.1012
 8224W        W12424   4.009   2.801   9.269  0.0099  0.2882  0.2110
 8225W        W12425   7.769   1.471  12.584 -0.2246  0.4158  0.2032
 8226W        W12426   6.338   0.950  12.263 -0.1712  0.0370  0.1761
 8227W        W12427   5.977   3.979   0.755  0.1545 -0.0361 -0.2434
 8228W        W12428   4.263   3.255  11.173  0.2708  0.0779  0.1084
 8229W        W12429   9.776   4.054   3.541  0.3307  0.1702 -0.3092
 8230W        W12430   1.776   1.066  11.608  0.0457 -0.1481  0.0389
 8231W        W12431   3.824   9.041   2.889  0.0831 -0.1057 -0.4040
 8232W        W12432   6.175   7.949   0.145  0.1632 -0.0480  0.0348
 8233W        W12433   4.880  10.028   0.893  0.0343 -0.1484 -0.0867
 8234W        W12434   5.028   9.152   5.383  0.0213 -0.0600 -0.3698
 8235W        W12435   5.748   6.467  13.523 -0.2340 -0.0860  0.0868
 8236W        W12436   6.191   3.626   3.563  0.3648 -0.1788 -0.2016
 8237W        W12437   7.625   1.987  10.621  0.1575  0.0768  0.0823
 8238W        W12438   6.763   5.344  11.319  0.0187 -0.1321 -0.2522
 8239W        W12439   7.336   2.810   1.640  0.1407  0.0275 -0.1154
 8240W        W12440   4.708   7.123  10.682 -0.1714  0.1434  0.0064
 8241W        W12441   0.989   5.409   3.668  0.0167  0.1574  0.0319
 8242W        W12442   5.393   1.725   2.895 -0.0627  0.0094  0.1555
 8243W        W12443   7.124   3.720   3.570 -0.1374 -0.0682 -0.0738
 8244W        W12444   7.378   0.737   9.824 -0.1796  0.0103 -0.1378
 8245W        W12445   7.916   1.068   4.700  0.2588  0.0501  0.0770
 8246W        W12446   5.493   9.868  10.650  0.0681 -0.0609  0.3438
 8247W        W12447   0.356   8.741  13.459 -0.2603 -0.1555  0.1482
 8248W        W12448   1.873   2.586  12.456 -0.2309 -0.2001 -0.0983
 8249W        W12449   0.123   3.651  13.252 -0.1835 -0.4134  0.2603
 8250W        W12450   6.146   3.461   9.134 -0.1264  0.3190 -0.4206
 8251W        W12451   8.061   5.677   9.395  0.1463  0.1910 -0.2187
 8252W        W12452   5.640   4.422   3.566  0.1916 -0.1061  0.2101
 8253W        W12453   1.973   9.376   9.106  0.0958  0.1998 -0.3629
 8254W        W12454   3.543  10.257   2.189 -0.0626  0.0377  0.1484
 8255W        W12455   0.830   9.940   5.083  0.3946  0.1066  0.1909
 8256W        W12456   0.734   2.091   0.240  0.2221 -0.2142  0.0068
 8257W        W12457   0.304   6.557  12.996  0.0280  0.2080 -0.0017
 8258W        W12458   2.841   2.558   0.986  0.0224 -0.2506 -0.0629
 8259W        W12459   6.195   7.221   9.557  0.1415 -0.1437 -0.2470
 8260W        W12460  10.066   2.948  10.586 -0.0126  0.1501 -0.3201
 8261W        W12461   3.421   3.852   1.603 -0.1778 -0.1363 -0.0137
 8262W        W12462   8.940   1.208   9.457  0.0955 -0.3630  0.1391
 8263W        W12463   5.038   0.153   1.537 -0.3217  0.4132 -0.0256
 8264W        W12464   5.381   7.533   3.961 -0.0338  0.2369  0.1631
 8265W        W12465   1.017   1.480  13.405  0.2570 -0.0285 -0.1996
 8266W        W12466   3.098   7.994  11.657 -0.3773 -0.2169 -0.1820
 8267W        W12467   3.594   2.498   2.563 -0.0076  0.0969 -0.0273
 8268W        W12468   5.568   7.114   2.472  0.0970 -0.2349  0.1794
 8269W        W12469   7.665   5.840  10.972 -0.0286  0.1481 -0.0409
 8270W        W12470   1.856   7.301   2.161  0.2753 -0.0845  0.0511
 8271W        W12471   6.733   6.893   9.554  0.2069  0.1752 -0.2226
 8272W        W12472   6.225   4.401  13.164  0.2880 -0.1035  0.0603
 8273W        W12473   0.413   0.634  12.487  0.0942 -0.1793  0.0832
 8274W        W12474   8.357   0.568  10.644 -0.0288  0.0395  0.0558
 8275W        W12475   9.333   5.641   2.702 -0.1239  0.1070  0.0844
 8276W        W12476   7.028  10.330  12.799  0.0139 -0.0193  0.0637
 8277W        W12477   1.204   2.806  10.593 -0.4464 -0.0864  0.3048
 8278W        W12478   5.512  10.078   2.838 -0.0334  0.1542  0.1027
 8279W        W12479   4.856   9.235   9.680  0.4032  0.0283 -0.1800
 8280W        W12480   8.201   4.774   3.173  0.1186  0.2372  0.1764
 8281W        W12481   8.141   3.145   4.419 -0.0438 -0.0140  0.0276
 8282W        W12482   9.305   0.847   0.282  0.2105  0.2285  0.2204
 8283W        W12483   6.197   0.974   4.973  0.3645  0.1583 -0.3344
 8284W        W12484   2.386   0.858   3.205 -0.3117 -0.1003  0.0465
 8285W        W12485   7.581   4.728   1.729  0.0257 -0.2637 -0.0892
 8286W        W12486   4.083   2.686  10.117 -0.2288 -0.1813 -0.3276
 8287W        W12487   4.003   8.186  12.844  0.1253 -0.0962 -0.1771
 8288W        W12488   6.196   6.199  12.270  0.2141 -0.0554 -0.0338
 8289W        W12489   0.028   5.299   1.793 -0.1102  0.0132 -0.2003
 8290W        W12490   5.509   2.464  13.488  0.0175  0.0715 -0.3105
 8291W        W12491   9.321   0.899  11.713 -0.0383  0.0848  0.2319
 8292W        W12492   3.418   7.048   2.997 -0.1185  0.0792  0.1971
 8293W        W12493   5.765   2.963  11.533 -0.2751  0.0747 -0.0045
 8294W        W12494   9.301   7.601   2.678  0.2732 -0.0062  0.0954
 8295W        W12495   0.988   8.133  12.943  0.3855  0.1591  0.2302
 8296W        W12496   3.290   4.868  11.536  0.0772 -0.2117  0.4519
 8297W        W12497  10.046   1.730   9.221  0.0363  0.0017 -0.0725
 8298W        W12498   8.393   2.132   2.996  0.1737 -0.2467 -0.0702
 8299W        W12499   3.513   9.196  12.555  0.1567 -0.0686 -0.1409
 8300W        W12500   2.886   6.258   2.480  0.2290  0.0416 -0.2192
 8301W        W12501   9.700   9.163   9.007 -0.1365  0.1569  0.0255
 8302W        W12502   1.312   9.869  11.622 -0.1471  0.1614  0.0628
 8303W        W12503   6.843   1.328   9.820  0.0569 -0.0918  0.1849
 8304W        W12504   5.402  10.274   0.127 -0.1618  0.1167 -0.2761
 8305W        W12505   6.335   6.136   1.658 -0.3332  0.2299 -0.2160
 8306W        W12506   3.495   5.982   3.535  0.0461  0.1703  0.3389
 8307W        W12507   2.621   9.773   3.341 -0.0733 -0.0347 -0.2785
 8308W        W12508   5.102   5.694  12.842  0.1397  0.0567  0.2002
 8309W        W12509   5.408   7.677  11.482 -0.0425  0.0733 -0.0563
 8310W        W12510   1.825   4.845  12.941  0.0175 -0.1957  0.0882
 8311W        W12511   4.076   7.652  11.344 -0.0902  0.1472 -0.0003
 8312W        W12512   0.606   7.764   3.203 -0.2033  0.3277  0.2168
 8313W        W12513   9.471   2.619  11.249  0.2117 -0.3363 -0.0035
 8314W        W12514   0.044   0.148  10.232  0.3085  0.0351  0.3492
 8315W        W12515   6.383   1.875   3.396  0.0172  0.1262  0.0511
 8316W        W12516   0.589   2.340  10.602 -0.3082 -0.1474 -0.1619
 8317W        W12517   6.644   1.016   1.259 -0.0498  0.1586 -0.2112
 8318W        W12518   6.852   5.401   0.617  0.0377 -0.1351  0.1718
 8319W        W12519   9.539   3.032  10.807 -0.0312  0.2365 -0.0983
 8320W        W12520   7.964   1.101   4.149  0.1312 -0.1825 -0.2351
 8321W        W12521   8.623   4.455  10.331 -0.0971 -0.1351 -0.0440
 8322W        W12522   7.122   2.785   3.971  0.0905  0.2939 -0.1572
 8323W        W12523   5.214   6.770   2.320 -0.1611  0.2844 -0.1052
 8324W        W12524   7.649   4.791   9.495  0.2166 -0.0918  0.2336
 8325W        W12525   6.055   6.287   1.329 -0.0067 -0.1863  0.2944
 8326W        W12526   7.631   6.669  13.419 -0.4420  0.1398  0.0413
 8327W        W12527   1.569   7.029   4.389  0.0331 -0.1081  0.0022
 8328W        W12528   8.102   7.818  11.663  0.4207  0.2136 -0.1693
 8329W        W12529   5.064   5.650  10.589  0.1086 -0.2163  0.0188
 8330W        W12530   7.028  10.418  12.308  0.1548 -0.2031  0.0616
 8331W        W12531   4.047   8.758   0.034  0.4197 -0.3224  0.0658
 8332W        W12532   0.334   4.665  11.905 -0.0041 -0.4406  0.4478
 8333W        W12533   9.944   2.516  13.471 -0.2224 -0.1847 -0.0499
 8334W        W12534   9.786   7.539  12.911  0.2560 -0.1978 -0.1568
 8335W        W12535   3.460   8.232   4.030  0.3187 -0.2095  0.1717
 8336W        W12536   5.123   6.446  11.472  0.0863  0.0247 -0.0880
 8337W        W12537   0.003   2.659  11.646  0.0045 -0.1953  0.3323
 8338W        W12538   1.826   9.587   3.430  0.0121 -0.2634 -0.2412
 8339W        W12539   2.614   7.032   0.808  0.5689 -0.1772 -0.0657
 8340W        W12540   7.698   8.311   3.162 -0.1760  0.1741  0.2207
 8341W        W12541   1.997   0.043  11.832  0.0071  0.0498 -0.1449
 8342W        W12542   6.834   7.381   2.740 -0.2090  0.2049 -0.0254
 8343W        W12543   9.082   9.473   0.340  0.3260 -0.3636 -0.1025
 8344W        W12544   0.021   5.056   2.268 -0.0738 -0.2188  0.0680
 8345W        W12545   1.987   2.884  11.888  0.3336 -0.0590 -0.1279
 8346W        W12546   1.105   2.874  11.765 -0.1169 -0.1045  0.1223
 8347W        W12547   9.196   5.273   2.240  0.0407 -0.0349 -0.1259
 8348W        W12548   1.038   0.471   0.028 -0.1780  0.2309  0.0184
 8349W        W12549   3.967   4.866   2.341  0.2334 -0.0249 -0.0802
 8350W        W12550  10.229   1.006  11.361 -0.0997 -0.0458  0.1987
 8351W        W12551   9.191   1.065   2.763  0.2083  0.4138  0.0779
 8352W        W12552   6.139   3.374   3.116  0.0882 -0.1372  0.2941
 8353W        W12553   5.888   9.458   1.619  0.2363  0.0448  0.0031
 8354W        W12554   2.916   3.643  11.279  0.0418 -0.0320 -0.2859
 8355W        W12555   3.467   3.746   9.422  0.1187  0.0515  0.0397
 8356W        W12556   9.820   1.178   0.749  0.1197  0.1110  0.1359
 8357W        W12557   5.073   8.706   9.672 -0.1060 -0.2575 -0.0983
 8358W        W12558   2.640   0.875   0.718 -0.0159  0.0203 -0.1942
 8359W        W12559   3.564   0.633   4.027  0.1150  0.1254 -0.2580
 8360W        W12560   8.417   9.665   4.379 -0.3367 -0.0827  0.1883
 8361W        W12561   1.089   7.990  12.034  0.2592  0.0435  0.4235
 8362W        W12562   5.418   0.778  10.861  0.2527 -0.1028  0.1934
 8363W        W12563   8.637   6.901   9.113  0.0075  0.0035 -0.0089
 8364W        W12564   8.045   0.036   4.499  0.4018 -0.1559 -0.1223
 8365W        W12565   6.572   1.055   4.509 -0.0769 -0.1156 -0.0174
 8366W        W12566   4.781   4.294   0.205 -0.0241 -0.3493 -0.1658
 8367W        W12567   4.825   1.106   4.729  0.1741 -0.0883  0.1640
 8368W        W12568   8.809   5.166  13.127 -0.4094 -0.0467  0.0169
 8369W        W12569   0.608   6.438  10.281  0.0339  0.0261 -0.2394
 8370W        W12570   0.472   7.804   1.908  0.0070  0.0922 -0.1178
 8371W        W12571  10.182   6.760   3.365  0.1210 -0.0540  0.0689
 8372W        W12572   1.249   4.689   0.833  0.0997 -0.0023 -0.4646
 8373W        W12573   2.666   2.655  13.051  0.0369  0.1450 -0.4240
 8374W        W12574   8.714   1.732   4.535 -0.0548 -0.1469 -0.2893
 8375W        W12575   7.618   4.422   8.630 -0.3386  0.4443  0.2145
 8376W        W12576   1.943   5.798  11.841 -0.1774  0.1169 -0.3673
 8377W        W12577   7.560   3.063   1.269 -0.1183  0.0567 -0.3440
 8378W        W12578   8.380   0.952   3.661  0.2019  0.2482  0.2485
 8379W        W12579   9.870   7.806   3.936 -0.3059  0.1420  0.0094
 8380W        W12580   0.217   1.338  10.247 -0.2566  0.2317  0.0547
 8381W        W12581   4.528   6.160   4.215 -0.0968 -0.0486  0.2169
 8382W        W12582  10.002   9.770  11.395  0.1782  0.2113 -0.1092
 8383W        W12583   7.037   8.336  13.279  0.1661 -0.0645  0.2457
 8384W        W12584   2.537   9.939   2.796  0.1094  0.4793  0.1628
 8385W        W12585   1.709   7.318   4.004 -0.0263 -0.0522 -0.0709
 8386W        W12586   6.545   1.536   4.205  0.2324 -0.1696  0.0533
 8387W        W12587   4.159   1.776  12.408 -0.1161  0.0759  0.4635
 8388W        W12588   8.947   8.573   1.684  0.0675 -0.0942 -0.0143
 8389W        W12589   5.967   2.852  13.402  0.1557 -0.0785 -0.0345
 8390W        W12590   3.468   6.610   4.949  0.0034 -0.1370  0.0195
 8391W        W12591   0.497   0.423   0.817 -0.0350 -0.1467  0.3370
 8392W        W12592   6.492   4.233   2.761 -0.0689 -0.1822 -0.2359
 8393W        W12593   1.701   4.103   1.251 -0.0415 -0.0339 -0.1044
 8394W        W12594   5.730   0.986   9.923  0.2490  0.0517 -0.3787
 8395W        W12595   2.457   5.933   2.558  0.1288 -0.5151 -0.0766
 8396W        W12596   4.200   1.556   1.157  0.2430  0.2701  0.0074
 8397W        W12597  10.120   0.660   2.696  0.3322  0.0584  0.0640
 8398W        W12598   1.817   3.109   2.172 -0.1545 -0.1849 -0.0507
 8399W        W12599   6.459   5.681  10.587  0.2278 -0.0745  0.0386
 8400W        W12600   4.675   4.583   2.738 -0.1489  0.0762 -0.0749
 8401W        W12601   0.224   7.562   4.008  0.2821  0.2564 -0.0147
 8402W        W12602   0.996   5.045   0.507 -0.2119  0.0111 -0.1792
 8403W        W12603   7.450   1.368   1.647 -0.3551  0.0851 -0.1384
 8404W        W12604   5.556   7.992   3.883  0.1191  0.0512  0.1106
 8405W        W12605   7.287   0.978   3.472 -0.0043 -0.0728  0.2372
 8406W        W12606   5.302   4.197  12.115  0.0276 -0.1698 -0.1660
 8407W        W12607   4.447   2.349   3.503 -0.2521 -0.2146  0.1916
 8408W        W12608   8.533   0.072   1.416  0.1790  0.1091  0.0017
 8409W        W12609   6.146   2.724  10.362  0.4041  0.3143 -0.0276
 8410W        W12610   4.974  10.083   4.356 -0.5786  0.0153  0.1713
 8411W        W12611   6.651   6.312   8.820 -0.1552 -0.2522  0.1454
 8412W        W12612   1.126   1.001  13.342  0.0141  0.1580  0.1066
 8413W        W12613   7.116   9.773   1.170  0.1861 -0.0935 -0.0997
 8414W        W12614   7.871   3.992  13.071  0.3156 -0.0851 -0.0611
 8415W        W12615   8.312   1.409  10.928 -0.1577 -0.0315  0.1810
 8416W        W12616   8.843   4.686   9.468  0.0350 -0.3358 -0.0871
 8417W        W12617   6.671   1.640   2.004 -0.0054  0.3655  0.2469
 8418W        W12618   3.980  10.031   0.861 -0.3715 -0.2048 -0.0338
 8419W        W12619   8.311   3.733  10.090 -0.1523 -0.1498 -0.3354
 8420W        W12620   4.576   3.947  10.650  0.1926  0.1801  0.1481
 8421W        W12621   9.033   2.031   2.184 -0.4977 -0.1917 -0.0086
 8422W        W12622   2.096   8.011   9.627  0.1532 -0.1174  0.1828
 8423W        W12623   9.617   2.280   1.904  0.0738 -0.4026 -0.0392
 8424W        W12624   2.447   7.110   9.753 -0.0127  0.0105  0.2048
 8425W        W12625   9.573   9.991  11.996  0.3384  0.0252  0.1061
 8426W        W12626   4.013   8.860  13.015  0.0313  0.0175  0.0207
 8427W        W12627   8.984   7.224   1.623  0.1169 -0.1188  0.0767
 8428W        W12628   4.210   2.691  10.594 -0.1118  0.3859  0.0469
 8429W        W12629   8.246   6.833  10.570 -0.3180  0.0839  0.2820
 8430W        W12630   9.200   8.395   2.709 -0.0486 -0.1890 -0.1742
 8431W        W12631   1.436   7.420  12.719  0.0953 -0.0655  0.1371
 8432W        W12632   2.468   5.288   3.956  0.0439 -0.1520  0.0640
 8433W        W12633   5.880   4.037   4.425 -0.2478  0.3804  0.0399
 8434W        W12634   3.749   2.382   0.281 -0.2360 -0.2241  0.1185
 8435W        W12635   6.962   3.268  10.265 -0.0078  0.0183 -0.2175
 8436W        W12636  10.268   6.121  10.216 -0.1077  0.2197 -0.0325
 8437W        W12637  10.258   7.896   2.817  0.1701  0.1958 -0.2720
 8438W        W12638   8.750   4.332  12.224  0.0856 -0.1625 -0.1046
 8439W        W12639   4.388   6.255  12.183  0.0984  0.0824 -0.1707
 8440W        W12640   4.528   0.911   1.695  0.3736 -0.3330  0.3255
 8441W        W12641   6.411   3.765  11.492  0.1445  0.1708  0.0266
 8442W        W12642   1.247   6.933  11.367 -0.1800  0.0536 -0.0442
 8443W        W12643   9.485   1.111  10.104  0.2519  0.0726  0.0696
 8444W        W12644   6.079   6.123  11.784  0.5424 -0.0858  0.0937
 8445W        W12645   5.214   7.757  10.493 -0.2773 -0.3270  0.1545
 8446W        W12646   7.900   6.607   4.371  0.1466 -0.2880  0.2114
 8447W        W12647   9.935   2.900  12.563  0.0516 -0.0747  0.2327
 8448W        W12648   4.364   5.100  13.230  0.1675 -0.0155 -0.0917
 8449W        W12649   1.594   4.711  10.946  0.1254 -0.0832 -0.1162
 8450W        W12650   3.710   9.664  10.676 -0.0236 -0.3319 -0.0804
 8451W        W12651   6.099   1.852   9.706  0.1021  0.2434 -0.1613
 8452W        W12652   9.617   1.462   1.154 -0.0844  0.4076 -0.0334
 8453W        W12653   1.412   9.135   1.013 -0.1367 -0.2593  0.2649
 8454W        W12654   6.610   1.967  11.012  0.2089  0.0105  0.0263
 8455W        W12655   6.266   8.984   3.435 -0.1026 -0.0289  0.1567
 8456W        W12656   0.593   1.476  10.954  0.2884  0.0143 -0.2058
 8457W        W12657   9.061   2.700  12.749 -0.2521  0.3802  0.0700
 8458W        W12658   9.930   9.254   1.243  0.2858 -0.2673 -0.0864
 8459W        W12659   4.290   6.720   9.274 -0.1116  0.0504  0.0467
 8460W        W12660   7.001   5.051  13.372  0.0089  0.2717  0.2444
 8461W        W12661   9.006   2.018  13.344 -0.1788  0.1322  0.3412
 8462W        W12662   9.295   6.319   1.439  0.0483 -0.0832  0.1095
 8463W        W12663   6.073   3.005   1.933 -0.0822  0.1273 -0.0490
 8464W        W12664   4.542   5.801   4.514  0.1314  0.2942  0.1202
 8465W        W12665   9.254   4.670   9.138  0.0143  0.0214  0.1807
 8466W        W12666   4.758   9.036  10.168 -0.1127 -0.2011  0.1020
 8467W        W12667   3.921   6.339   2.581  0.2003 -0.1895 -0.1146
 8468W        W12668   1.216   8.629   1.698  0.1626 -0.2403  0.0812
 8469W        W12669   3.543   7.462  10.368 -0.2084 -0.1020  0.0248
 8470W        W12670   5.059   2.294   3.392 -0.0275  0.2316 -0.0276
 8471W        W12671   5.390   9.745  12.839 -0.1149  0.0145 -0.0328
 8472W        W12672   4.984   8.282   0.804 -0.2897 -0.0400 -0.0442
 8473W        W12673   1.292   2.841   0.855  0.1535  0.2729 -0.0746
 8474W        W12674   5.321   9.088   0.945  0.4359  0.0362 -0.3013
 8475W        W12675   4.226   0.189  12.513 -0.0413  0.1140 -0.0746
 8476W        W12676   7.710   3.595   4.919 -0.0694  0.0316 -0.1405
 8477W        W12677   7.578   3.211  11.376 -0.2689  0.0493  0.1229
 8478W        W12678   3.360   4.227  12.673  0.0068  0.1870 -0.1114
 8479W        W12679   5.792   3.563   4.585 -0.1713  0.1584  0.0442
 8480W        W12680   1.338   6.310   1.150  0.1404  0.1478 -0.3575
 8481W        W12681   8.593   7.437   2.000 -0.5048 -0.0062  0.0787
 8482W        W12682   5.519   0.948   3.611 -0.0471 -0.0486 -0.0672
 8483W        W12683   6.955   6.527  11.651 -0.0983  0.0514  0.0113
 8484W        W12684   9.224   0.659  10.889  0.1054  0.1670  0.0689
 8485W        W12685   5.426   9.981   9.750 -0.1684  0.1064  0.0466
 8486W        W12686   9.955   8.938  11.899 -0.2546  0.0035 -0.0012
 8487W        W12687   5.750   7.004   9.755 -0.0775 -0.1258 -0.1512
 8488W        W12688  10.226   0.296  12.266 -0.0450 -0.1660 -0.0164
 8489W        W12689   1.631   5.053  12.506 -0.2732  0.1536 -0.2843
 8490W        W12690   6.592   6.533  10.299  0.3789 -0.2281  0.3469
 8491W        W12691   9.740   6.211  13.296  0.1867  0.1910 -0.0542
 8492W        W12692   6.147  10.024   9.098 -0.0810  0.1807 -0.2112
 8493W        W12693   5.537   3.653  10.806  0.0440 -0.0403 -0.0583
 8494W        W12694  10.429  10.049  12.311  0.0685 -0.1388 -0.3043
 8495W        W12695   1.401   3.525   0.464  0.0411 -0.0551 -0.0822
 8496W        W12696   2.413   9.087  12.411  0.0471 -0.1595  0.1698
 8497W        W12697   7.450   1.077   0.633 -0.1639  0.0845  0.0437
 8498W        W12698   1.169   1.705   0.260  0.1162 -0.5884  0.2095
 8499W        W12699   3.983   3.198  13.471  0.1811  0.0702 -0.0218
 8500W        W12700   6.918   9.545  10.088 -0.2247 -0.1694  0.2311
 8501W        W12701   2.162   6.740   9.915  0.0775 -0.1685 -0.0596
 8502W        W12702   5.671   0.048   5.321 -0.0572 -0.0630 -0.3766
 8503W        W12703   9.459   1.829   2.330 -0.0237  0.0318 -0.0196
 8504W        W12704   1.670   5.198  13.315 -0.3511  0.1183 -0.2216
 8505W        W12705   2.582   3.753   1.156 -0.0205  0.4078  0.0852
 8506W        W12706   7.665   5.935   9.598  0.0687 -0.1964  0.0646
 8507W        W12707   6.456   2.151   9.873  0.0462 -0.0569 -0.1114
 8508W        W12708   8.220   9.534   2.741 -0.2840  0.1112 -0.0149
 8509W        W12709   2.914   2.474  10.937 -0.1310  0.0612  0.0616
 8510W        W12710   9.553   2.982  10.297  0.1847  0.2264  0.0167
 8511W        W12711  10.074   2.427   2.574  0.1052  0.0890  0.4043
 8512W        W12712   2.111   3.844  13.264 -0.2004  0.1755  0.0179
 8513W        W12713   6.022   5.224   5.414  0.1763 -0.0280  0.0964
 8514W        W12714   1.886   9.916  12.461 -0.0891 -0.0853  0.0936
 8515W        W12715   7.425   8.658   2.852 -0.4018  0.1764 -0.1112
 8516W        W12716   2.672   4.058  11.387  0.0482 -0.1785  0.2043
 8517W        W12717   2.360   0.521   1.786  0.0515 -0.0612 -0.2713
 8518W        W12718   1.732   4.844   0.779  0.1306  0.2179  0.1453
 8519W        W12719   2.394   9.469  12.080 -0.0606  0.2907 -0.2145
 8520W        W12720   3.017   8.352  12.515  0.3313  0.1699  0.4563
 8521W        W12721   8.189   5.943  11.141 -0.0139  0.2505  0.1528
 8522W        W12722   9.102   1.563  10.012 -0.0868  0.0599  0.1718
 8523W        W12723   6.910  10.288   3.024 -0.1549  0.2678  0.0892
 8524W        W12724   3.690   7.862   2.822 -0.0987 -0.1630  0.1600
 8525W        W12725   0.082   6.828   0.109  0.0614  0.1538  0.2474
 8526W        W12726   1.578   2.628  11.541  0.0346  0.5030 -0.2359
 8527W        W12727   4.743   0.959  10.669 -0.0110 -0.3241 -0.1735
 8528W        W12728   4.901   7.813  11.693 -0.4446 -0.4005 -0.1406
 8529W        W12729   9.801   5.044   3.766  0.2110  0.1478 -0.2987
 8530W        W12730   8.432   5.186   9.321  0.3182  0.0457 -0.3553
 8531W        W12731   1.311   8.861   3.561 -0.0903 -0.0955 -0.0094
 8532W        W12732   5.658   5.366  12.319  0.1786 -0.2711  0.3082
 8533W        W12733   5.162   4.396   2.608  0.1429  0.1444  0.1830
 8534W        W12734   7.995   4.547   2.011  0.3876 -0.1832 -0.3582
 8535ION    NA+12735  10.054   6.330   0.328  0.0251  0.4147 -0.2283
 8536ION    NA+12736   6.366   9.540  12.289  0.0884 -0.0494  0.0346
 8537ION    NA+12737   1.979   7.440   9.690 -0.1170  0.1482  0.0331
 8538ION    NA+12738   6.761   2.111   2.984  0.3322  0.1051 -0.2279
 8539ION    NA+12739   6.284   0.320   8.636  0.0743 -0.1564  0.1463
 8540ION    NA+12740   8.085  10.023   0.302 -0.0966  0.1301  0.0171
 8541ION    NA+12741   3.215   8.517   5.236  0.2098 -0.1998 -0.0420
 8542ION    NA+12742   8.041   1.424   2.780  0.2961 -0.0289 -0.0510
 8543ION    NA+12743   7.460   0.151   1.788 -0.0683  0.0641 -0.1687
 8544ION    NA+12744   3.891   5.841   2.629  0.1405 -0.3341  0.3205
 8545ION    NA+12745   8.365   0.421   1.747 -0.0256 -0.1645  0.1087
 8546ION    NA+12746   9.281   8.446   9.069  0.1224 -0.1026  0.1757
 8547ION    NA+12747  10.217   4.056   9.699 -0.3367  0.0987 -0.2142
 8548ION    NA+12748  10.230   4.054  11.139 -0.0977  0.2835 -0.2447
 8549ION    NA+12749   9.148   6.073   2.705 -0.2434 -0.1507 -0.1672
 8550ION    NA+12750   5.557   3.711   0.002 -0.3183  0.0207  0.1498
 8551ION    NA+12751   2.996   8.408  10.659  0.0600 -0.2735  0.0395
 8552ION    NA+12752   4.129   3.183  11.689  0.4989  0.1300  0.2397
 8553ION    NA+12753   0.715   7.563   5.249  0.2831 -0.3148  0.2051
 8554ION    NA+12754   4.603   7.968   2.892 -0.0989 -0.0479  0.0364
 8555ION    NA+12755   1.210   9.097  13.274  0.1177  0.0818  0.1044
 8556ION    NA+12756   5.567   3.950   4.811 -0.2115  0.1039 -0.2057
 8557ION    NA+12757   5.870   9.352  11.555  0.0277  0.2915  0.2439
 8558ION    NA+12758   2.230   5.056   0.427  0.1882  0.0099 -0.0162
 8559ION    NA+12759   8.327   2.346  11.047  0.1899 -0.2586 -0.0976
 8560ION    NA+12760   2.307   6.186  10.693 -0.1780  0.1814 -0.1493
 8561ION    NA+12761   8.892   9.108   3.508 -0.0004 -0.1681 -0.2310
 8562ION    NA+12762   1.997   1.450   0.747 -0.1343  0.0667 -0.1165
 8563ION    NA+12763   6.315   8.797   2.204  0.2207 -0.0109 -0.0530
 8564ION    NA+12764   5.253   8.671   8.643 -0.0342 -0.1053 -0.2993
 8565ION    NA+12765  10.061   6.942  10.767 -0.2515 -0.0385 -0.1966
 8566ION    NA+12766   5.081   5.319   2.703 -0.0210  0.1689  0.3535
 8567ION    NA+12767   4.466  10.419  13.585 -0.0765  0.2636  0.3173
 8568ION    NA+12768   2.211   7.007  13.340 -0.3204  0.2592  0.3580
 8569ION    NA+12769   4.525   3.927   3.322  0.4276 -0.1312  0.2308
 8570ION    NA+12770   7.717  10.362   9.563  0.2962  0.0704 -0.2121
 8571ION    NA+12771   7.035   4.744   5.197 -0.2359 -0.4132 -0.0970
 8572ION    NA+12772   0.634   8.014  11.854  0.2056  0.0209 -0.0998
 8573ION    NA+12773   8.819   0.352   0.141  0.4108 -0.0748  0.0521
 8574ION    NA+12774   0.588   3.703   0.098 -0.1121 -0.0906  0.0109
 8575ION    NA+12775   1.836   5.600  12.668 -0.1261 -0.1965 -0.1230
 8576ION    NA+12776   9.839   4.687   4.161 -0.0857  0.1630 -0.1472
 8577ION    NA+12777   5.594   8.491   5.086 -0.0302 -0.0327  0.0909
 8578ION    NA+12778   2.165   4.811  10.188 -0.0656  0.0751 -0.0444
 8579ION    NA+12779   0.024   5.755   1.531 -0.0596  0.0099  0.0643
 8580ION    NA+12780   9.640   7.668   8.560 -0.0760  0.2502  0.0397
 8581ION    NA+12781   7.944   1.470   1.753  0.4123  0.2774 -0.2315
 8582ION    NA+12782   3.358   5.241   2.943 -0.0173  0.0599  0.0570
 8583ION    NA+12783   2.664   4.944  10.856 -0.1406  0.0486 -0.3873
 8584ION    NA+12784   6.302   6.032   2.983  0.1159  0.2965  0.3595
 8585ION    NA+12785  10.293   2.815   2.102 -0.1524 -0.1721 -0.1422
 8586ION    NA+12786   1.107   2.556  12.416  0.0283  0.0885 -0.1205
 8587ION    NA+12787   9.036   1.885  11.618  0.1797  0.0202  0.0027
 8588ION    NA+12788   0.693   3.617  10.282 -0.0920 -0.0035  0.0705
 8589ION    NA+12789   4.629  10.091   5.300 -0.0214 -0.2720 -0.1553
 8590ION    NA+12790   5.515   7.053   8.878 -0.1025  0.2028 -0.0883
 8591ION    NA+12791   3.993   1.880   0.262  0.1020 -0.0047 -0.0207
 8592ION    NA+12792   7.026   8.793   0.508 -0.4952  0.1927 -0.1462
 8593ION    NA+12793   0.698   5.943  10.228  0.1216  0.1561 -0.0189
 8594ION    NA+12794  10.294   9.348  10.418 -0.1305 -0.0177 -0.0541
 8595ION    NA+12795   5.118   1.456   0.932 -0.0601  0.1181 -0.1916
 8596ION    NA+12796   0.781  10.143  11.249  0.0593 -0.2063  0.0038
 8597ION    NA+12797   9.464   5.221  10.809  0.3736 -0.0135  0.1160
 8598ION    NA+12798   1.425   0.274   0.426  0.1994 -0.0492  0.2621
 8599ION    NA+12799   2.785   5.462   3.170  0.1405 -0.1341 -0.0835
 8600ION    NA+12800  10.293   9.246   4.876 -0.2919  0.1278 -0.0729
 8601ION    NA+12801   3.799   5.550   4.856  0.0684 -0.1197  0.1471
 8602ION    NA+12802   9.470   3.570  10.982  0.6136  0.0606 -0.0041
 8603ION    NA+12803   2.700   9.604   8.682  0.1736  0.1655  0.0244
 8604ION    NA+12804   1.144   9.990  10.483  0.0457 -0.1386  0.1153
 8605ION    NA+12805   8.414   2.971   2.559 -0.0721  0.1324 -0.1353
 8606ION    NA+12806   7.719   3.530   3.056  0.2114  0.3728 -0.1530
 8607ION    NA+12807   4.739   9.109  10.802 -0.0149 -0.2676  0.1147
 8608ION    NA+12808   6.109   0.323   2.414  0.1831  0.0300 -0.0553
 8609ION    NA+12809   9.798   9.308   3.801 -0.0513 -0.1382  0.1195
 8610ION    NA+12810   0.179   8.581  12.668 -0.1274 -0.0819  0.1066
 8611ION    NA+12811   4.752   9.146   0.338 -0.0643  0.0492  0.0984
 8612ION    NA+12812   3.935   4.942  12.071  0.0163 -0.1954 -0.2567
 8613ION    NA+12813   6.480   9.738   0.458 -0.3723 -0.0746 -0.3438
 8614ION    NA+12814   6.178   0.239  10.198 -0.0544  0.1055 -0.1199
 8615ION    NA+12815   6.893   5.754   3.570 -0.2121 -0.2485 -0.0388
 8616ION    NA+12816   2.842   1.363   3.071  0.4312 -0.2625  0.0874
 8617ION    NA+12817   2.931   8.565   8.742 -0.0290  0.0303  0.0058
 8618ION    NA+12818   1.086   6.787   4.612 -0.1156 -0.2009  0.0327
 8619ION    NA+12819   0.652   7.270  12.645 -0.0498 -0.1475  0.1927
 8620ION    NA+12820   4.050   2.930  13.028  0.2020 -0.1998 -0.1406
 8621ION    NA+12821   0.794   7.610   2.243 -0.1017  0.0405 -0.1372
 8622ION    NA+12822   8.410   4.044  12.886  0.0944 -0.0971  0.0246
 8623ION    NA+12823   0.875   0.478   4.002 -0.1596 -0.0565 -0.1326
 8624ION    NA+12824  10.336   3.332   3.136  0.0176  0.0884  0.0740
 8625ION    CL-12825   3.642   5.805   2.217  0.1267 -0.2924  0.1028
 8626ION    CL-12826   7.850   0.483   1.818  0.0502 -0.3496  0.0854
 8627ION    CL-12827   6.806   5.375   4.187 -0.2057 -0.3664  0.4118
 8628ION    CL-12828   5.525   1.561   3.726  0.1268 -0.0483  0.2135
 8629ION    CL-12829   2.187   1.288   9.550 -0.5111 -0.1008 -0.0804
 8630ION    CL-12830   2.042   7.778  10.116  0.1856  0.0466 -0.0478
 8631ION    CL-12831   4.593   9.480  10.402 -0.0271 -0.2381 -0.1515
 8632ION    CL-12832   4.963   6.619   4.053  0.2377 -0.3526 -0.2680
 8633ION    CL-12833   7.291   2.957   3.271  0.0629 -0.1641 -0.0717
 8634ION    CL-12834   8.152  10.346   1.743 -0.1839  0.2242  0.3336
 8635ION    CL-12835   8.544   4.672   2.816 -0.0145  0.1179 -0.1776
 8636ION    CL-12836   8.289   3.095  13.342  0.0940 -0.1659  0.2421
 8637ION    CL-12837   0.012   8.371  13.137  0.0422  0.0803 -0.0533
 8638ION    CL-12838   3.271   8.266  10.277 -0.0279 -0.1629 -0.1227
 8639ION    CL-12839   7.008   3.875   0.873  0.1653  0.0507 -0.2193
 8640ION    CL-12840   2.128   6.264   9.871  0.0848  0.0568  0.4105
 8641ION    CL-12841   8.815   1.306   1.539 -0.1098 -0.2194 -0.0679
 8642ION    CL-12842   5.423   9.409  10.456 -0.1318 -0.1740  0.0226
 8643ION    CL-12843   7.649   8.853   1.153  0.1070  0.1409 -0.1974
 8644ION    CL-12844   9.405   9.500   4.053  0.1303 -0.0942 -0.0441
 8645ION    CL-12845   0.753   8.303   0.669  0.1057  0.1416  0.1338
 8646ION    CL-12846   0.245   3.613   2.394 -0.1227  0.1788 -0.1752
 8647ION    CL-12847   1.911   6.252  13.371  0.0119 -0.0847 -0.3820
 8648ION    CL-12848   8.370  10.397   3.704 -0.1530  0.0749  0.3912
 8649ION    CL-12849   8.563   3.781  12.483  0.2362 -0.1170 -0.2752
 8650ION    CL-12850   1.791   0.594   0.580  0.1339  0.2172  0.1720
 8651ION    CL-12851   0.481   8.393  12.127  0.0406  0.2127  0.1535
 8652ION    CL-12852  10.000   8.648   9.564 -0.1643  0.2678 -0.2770
 8653ION    CL-12853   9.902   4.550   3.696 -0.2015 -0.0412 -0.1147
 8654ION    CL-12854   8.434   8.322   9.292  0.0531 -0.1643  0.2363
 8655ION    CL-12855   0.074   2.682   2.513  0.0468  0.4237 -0.0207
 8656ION    CL-12856   0.952   5.004  10.200  0.1310  0.3629  0.0993
 8657ION    CL-12857   5.747  10.366   9.379  0.1431  0.0496 -0.1988
 8658ION    CL-12858   2.731   9.515  12.579  0.2804 -0.1272 -0.1285
 8659ION    CL-12859   8.377   6.455   4.466  0.5103  0.0613  0.1209
 8660ION    CL-12860   9.810   6.318   2.245 -0.3318 -0.0403 -0.1578
 8661ION    CL-12861   6.103   0.604   9.680 -0.1632  0.0558 -0.2007
 8662ION    CL-12862   1.872   7.313  13.195  0.1681  0.0277  0.0983
 8663ION    CL-12863   6.838   8.926   2.361  0.0342 -0.0081  0.0577
 8664ION    CL-12864   3.171   4.138  11.183 -0.2053 -0.1357  0.0042
 8665ION    CL-12865   0.798   4.098  10.083 -0.2004 -0.1856  0.0802
 8666ION    CL-12866   4.707   9.102   4.371  0.1232 -0.1419 -0.3755
 8667ION    CL-12867   6.620   9.638  13.549  0.2621  0.1037 -0.0987
 8668ION    CL-12868   4.434   4.940  12.191  0.5132  0.1459  0.3349
 8669ION    CL-12869   8.277  10.409   0.563 -0.1661  0.1942  0.1013
 8670ION    CL-12870   3.209   5.411   3.394  0.0395  0.0198 -0.1187
 8671ION    CL-12871   3.229   7.661   2.290  0.0292  0.2399  0.0948
 8672ION    CL-12872   4.657   0.487  13.348  0.0284  0.3152  0.1841
 8673ION    CL-12873   9.509   7.595   4.285 -0.0222 -0.1787 -0.1700
 8674ION    CL-12874   7.856   1.437   2.287  0.0655  0.3903 -0.1356
 8675ION    CL-12875   4.661   5.515   2.891  0.0679  0.0649  0.1773
 8676ION    CL-12876   5.238   1.584   0.485 -0.4719  0.1199  0.1689
 8677ION    CL-12877   6.560   6.332   2.591  0.0061  0.0906  0.0399
 8678ION    CL-12878   6.501   5.774   0.639 -0.0281 -0.0237 -0.1197
 8679ION    CL-12879   8.452   2.461   2.625  0.0894 -0.1017  0.0265
 8680ION    CL-12880   3.868   2.395  12.983 -0.0143 -0.0109 -0.0285
 8681ION    CL-12881   8.564   2.020  11.724 -0.2619  0.2331 -0.1005
 8682ION    CL-12882   8.377   5.034  12.175 -0.1115  0.1823 -0.2655
 8683ION    CL-12883   4.689   5.348   3.798  0.3283  0.0620 -0.0884
 8684ION    CL-12884   4.198   3.990  13.019  0.1622  0.4374 -0.3005
 8685ION    CL-12885   4.423   8.752  10.887  0.1855 -0.0532  0.0214
 8686ION    CL-12886   2.185   5.715  10.773  0.3543 -0.1192 -0.2055
 8687ION    CL-12887   1.168  10.108  10.942  0.1083 -0.1926 -0.0842
 8688ION    CL-12888   6.811   9.333   0.497 -0.1958  0.0893  0.2660
 8689ION    CL-12889  10.353   5.647   1.054 -0.0945  0.1405  0.3222
 8690ION    CL-12890   7.710   8.201   4.226 -0.2803  0.3601 -0.1175
 8691ION    CL-12891   1.263   2.654  12.973 -0.1584 -0.2126 -0.0060
 8692ION    CL-12892   5.014   4.433  13.363 -0.0901 -0.0755  0.1015
 8693ION    CL-12893   6.928   2.738  13.499  0.1032 -0.4121  0.2832
 8694ION    CL-12894   0.786   0.159   4.391  0.1180 -0.0109  0.1132
 8695ION    CL-12895   8.049   3.293   2.674 -0.0533 -0.0540  0.1927
 8696ION    CL-12896   6.496   2.571   1.055  0.1476 -0.0132  0.0467
 8697ION    CL-12897   6.039   7.254  12.103  0.0701  0.1949  0.1444
 8698ION    CL-12898   1.572   5.180   3.086  0.2304 -0.1121 -0.3277
 8699ION    CL-12899   3.486   0.982  10.299  0.1897  0.4132  0.1791
 8700ION    CL-12900   0.855   7.576   2.798  0.0100  0.1235 -0.0276
 8701ION    CL-12901   7.477   6.001   8.598 -0.0975  0.2785  0.0999
 8702ION    CL-12902   9.976   9.544   3.438  0.1551 -0.0077  0.1142
 8703ION    CL-12903   7.217   7.674   5.019 -0.1265 -0.3014  0.2771
 8704ION    CL-12904   0.273   7.282  12.255 -0.3254  0.2121 -0.2043
 8705ION    CL-12905   2.470   5.362   2.471 -0.0288 -0.0968 -0.2847
 8706ION    CL-12906   3.484   1.012   2.632  0.1629  0.2139 -0.2838
 8707ION    CL-12907   0.548   6.503   1.415  0.0759  0.1983  0.1547
 8708ION    CL-12908   2.170   0.782   9.942 -0.2137 -0.2607 -0.2000
 8709ION    CL-12909   4.348   4.456  10.497 -0.1371 -0.1699 -0.1577
 8710ION    CL-12910   9.762   3.464  13.341 -0.0129 -0.1823 -0.2247
 8711ION    CL-12911   6.757   8.427   0.779  0.0628  0.1520  0.2620
 8712ION    CL-12912   1.958  10.277   3.907  0.1926  0.0068 -0.1732
 8713ION    CL-12913   7.308   5.718   3.181 -0.0501 -0.0799  0.0254
 8714ION    CL-12914   3.657   4.595   3.590  0.1518  0.2384 -0.3219
  10.43631  10.43631  13.58930
