Protein in INSANE! Membrane UpperLeaflet>POPC=1.0 LowerLeaflet>POPC=1.0
12676
    1AU     AUC    1   5.744   5.870   6.011
    1AU     AUC    2   6.007   5.873   5.855
    1AU     AUC    3   5.997   5.859   6.164
    1AU     AUC    4   5.496   5.870   5.845
    1AU     AUC    5   5.482   5.886   6.158
    1AU     AUC    6   5.594   6.126   6.012
    1AU     AUC    7   5.905   6.124   6.000
    1AU     AUC    8   5.592   5.612   6.015
    1AU     AUC    9   5.886   5.615   6.030
    1AU     AUC   10   5.735   5.717   6.271
    1AU     AUC   11   5.755   6.031   6.267
    1AU     AUC   12   5.749   5.710   5.753
    1AU     AUC   13   5.737   6.013   5.752
    1AU     AUC   14   6.258   5.871   5.692
    1AU     AUC   15   6.263   5.873   6.005
    1AU     AUC   16   6.252   5.860   6.316
    1AU     AUC   17   5.238   5.859   5.686
    1AU     AUC   18   5.227   5.881   5.993
    1AU     AUC   19   5.232   5.897   6.314
    1AU     AUC   20   5.449   6.392   6.016
    1AU     AUC   21   5.760   6.392   6.009
    1AU     AUC   22   6.055   6.386   6.007
    1AU     AUC   23   5.418   5.357   6.016
    1AU     AUC   24   5.731   5.347   6.008
    1AU     AUC   25   6.043   5.351   6.038
    1AU     AUC   26   5.716   5.563   6.520
    1AU     AUC   27   5.739   5.873   6.537
    1AU     AUC   28   5.759   6.183   6.528
    1AU     AUC   29   5.759   5.543   5.504
    1AU     AUC   30   5.755   5.859   5.490
    1AU     AUC   31   5.737   6.170   5.489
    1AU     AUC   32   6.005   5.719   6.438
    1AU     AUC   33   6.008   6.011   6.433
    1AU     AUC   34   6.020   5.708   5.595
    1AU     AUC   35   6.018   6.013   5.585
    1AU     AUC   36   5.469   5.732   6.431
    1AU     AUC   37   5.490   6.043   6.436
    1AU     AUC   38   5.501   5.712   5.575
    1AU     AUC   39   5.483   6.017   5.587
    1AU     AUC   40   6.163   6.135   5.838
    1AU     AUC   41   6.172   6.113   6.157
    1AU     AUC   42   5.327   6.127   5.858
    1AU     AUC   43   5.335   6.145   6.176
    1AU     AUC   44   6.161   5.609   5.865
    1AU     AUC   45   6.157   5.608   6.183
    1AU     AUC   46   5.327   5.614   5.841
    1AU     AUC   47   5.324   5.626   6.181
    1AU     AUC   48   5.595   6.288   6.281
    1AU     AUC   49   5.915   6.294   6.253
    1AU     AUC   50   5.566   5.445   6.260
    1AU     AUC   51   5.882   5.456   6.293
    1AU     AUC   52   5.587   6.284   5.751
    1AU     AUC   53   5.904   6.277   5.740
    1AU     AUC   54   5.582   5.463   5.746
    1AU     AUC   55   5.909   5.445   5.773
    1AU    AUSL   56   6.082   5.816   6.620
    1AU    AUSL   57   6.040   5.392   6.644
    1AU     AUL   58   6.279   5.475   6.905
    1AU       S   59   6.306   5.115   6.588
    1AU     LIG   60   6.177   4.845   6.909
    1AU     LIG   61   6.336   4.490   7.145
    1AU     LIG   62   6.582   4.212   7.441
    1AU     LIG   63   6.676   3.971   7.845
    1AU     LIG   64   6.706   3.826   8.305
    1AU     LIG   65   6.906   3.619   8.681
    1AU       S   66   6.126   5.822   7.160
    1AU     LIG   67   6.376   5.543   7.413
    1AU     LIG   68   6.605   5.409   7.810
    1AU     LIG   69   6.955   5.465   8.134
    1AU     LIG   70   7.346   5.468   8.412
    1AU     LIG   71   7.690   5.608   8.700
    1AU     LIG   72   7.928   5.553   9.098
    1AU    AUSL   73   5.797   5.646   6.863
    1AU    AUSL   74   5.674   6.039   6.794
    1AU     AUL   75   5.716   5.992   7.211
    1AU       S   76   5.877   5.633   7.019
    1AU     LIG   77   5.970   5.249   7.234
    1AU     LIG   78   6.182   5.115   7.666
    1AU     LIG   79   6.270   4.976   8.142
    1AU     LIG   80   6.279   4.774   8.604
    1AU     LIG   81   6.392   4.651   9.064
    1AU     LIG   82   6.513   4.802   9.503
    1AU       S   83   5.366   5.735   7.130
    1AU     LIG   84   5.226   5.671   7.588
    1AU     LIG   85   5.037   5.610   8.021
    1AU     LIG   86   4.994   5.739   8.477
    1AU     LIG   87   5.067   6.035   8.859
    1AU     LIG   88   4.966   6.289   9.250
    1AU     LIG   89   4.712   6.478   9.609
    1AU    AUSL   90   6.049   6.180   6.799
    1AU    AUSL   91   6.388   6.062   6.492
    1AU     AUL   92   6.378   5.911   6.804
    1AU       S   93   6.073   6.186   7.006
    1AU     LIG   94   6.414   6.211   7.312
    1AU     LIG   95   6.528   6.440   7.741
    1AU     LIG   96   6.523   6.646   8.202
    1AU     LIG   97   6.553   6.816   8.683
    1AU     LIG   98   6.662   6.878   9.170
    1AU     LIG   99   6.624   6.817   9.652
    1AU       S  100   6.684   6.122   6.542
    1AU     LIG  101   6.838   6.096   6.982
    1AU     LIG  102   7.129   6.333   7.259
    1AU     LIG  103   7.436   6.639   7.477
    1AU     LIG  104   7.722   6.780   7.845
    1AU     LIG  105   8.131   6.835   8.117
    1AU     LIG  106   8.527   6.950   8.379
    1AU    AUSL  107   6.261   5.911   5.385
    1AU    AUSL  108   6.059   6.300   5.346
    1AU     AUL  109   6.279   6.145   5.079
    1AU       S  110   6.290   5.713   4.864
    1AU     LIG  111   6.658   5.538   4.767
    1AU     LIG  112   6.717   5.431   4.320
    1AU     LIG  113   6.869   5.398   3.875
    1AU     LIG  114   7.290   5.486   3.641
    1AU     LIG  115   7.646   5.674   3.375
    1AU     LIG  116   7.769   5.733   2.912
    1AU       S  117   6.491   6.524   5.233
    1AU     LIG  118   6.730   6.542   4.869
    1AU     LIG  119   6.990   6.757   4.541
    1AU     LIG  120   7.141   6.867   4.121
    1AU     LIG  121   7.289   7.169   3.806
    1AU     LIG  122   7.508   7.563   3.693
    1AU     LIG  123   7.502   8.017   3.543
    1AU    AUSL  124   6.018   5.606   5.228
    1AU    AUSL  125   6.370   5.545   5.520
    1AU     AUL  126   6.480   5.718   5.272
    1AU       S  127   6.445   5.248   5.312
    1AU     LIG  128   6.598   4.976   4.967
    1AU     LIG  129   6.817   4.591   4.786
    1AU     LIG  130   7.058   4.346   4.445
    1AU     LIG  131   7.460   4.369   4.163
    1AU     LIG  132   7.831   4.474   3.869
    1AU     LIG  133   8.200   4.305   3.614
    1AU       S  134   6.172   5.494   4.982
    1AU     LIG  135   6.279   5.233   4.617
    1AU     LIG  136   6.342   5.127   4.154
    1AU     LIG  137   6.405   5.142   3.682
    1AU     LIG  138   6.327   4.977   3.231
    1AU     LIG  139   6.398   4.975   2.756
    1AU     LIG  140   6.624   4.986   2.329
    1AU    AUSL  141   5.857   5.959   5.412
    1AU    AUSL  142   5.626   5.712   5.173
    1AU     AUL  143   5.898   5.906   5.018
    1AU       S  144   5.292   5.781   4.880
    1AU     LIG  145   5.411   5.397   4.631
    1AU     LIG  146   5.300   5.247   4.198
    1AU     LIG  147   5.106   5.063   3.793
    1AU     LIG  148   4.987   4.855   3.360
    1AU     LIG  149   4.847   4.901   2.895
    1AU     LIG  150   4.699   5.127   2.485
    1AU       S  151   6.017   5.479   5.091
    1AU     LIG  152   5.879   5.589   4.610
    1AU     LIG  153   6.214   5.620   4.252
    1AU     LIG  154   6.413   5.654   3.797
    1AU     LIG  155   6.506   5.846   3.338
    1AU     LIG  156   6.708   6.142   2.988
    1AU     LIG  157   6.820   6.380   2.587
    1AU    AUSL  158   5.291   5.930   6.718
    1AU    AUSL  159   5.435   6.332   6.643
    1AU     AUL  160   5.491   6.270   6.943
    1AU       S  161   5.226   5.932   7.140
    1AU     LIG  162   4.883   5.607   7.202
    1AU     LIG  163   4.738   5.424   7.631
    1AU     LIG  164   4.563   5.369   8.102
    1AU     LIG  165   4.255   5.318   8.503
    1AU     LIG  166   4.021   5.455   8.925
    1AU     LIG  167   3.680   5.719   9.186
    1AU       S  168   5.041   6.310   6.868
    1AU     LIG  169   5.073   6.614   7.236
    1AU     LIG  170   5.004   6.918   7.595
    1AU     LIG  171   4.832   6.979   8.030
    1AU     LIG  172   4.741   7.208   8.436
    1AU     LIG  173   4.575   7.589   8.672
    1AU     LIG  174   4.337   8.011   8.697
    1AU    AUSL  175   5.590   5.729   6.528
    1AU    AUSL  176   5.088   5.654   6.498
    1AU     AUL  177   5.097   5.765   6.740
    1AU       S  178   4.903   5.345   6.736
    1AU     LIG  179   4.500   5.148   6.564
    1AU     LIG  180   4.096   4.910   6.646
    1AU     LIG  181   3.911   4.635   7.001
    1AU     LIG  182   3.742   4.349   7.343
    1AU     LIG  183   3.501   4.136   7.686
    1AU     LIG  184   3.190   4.233   8.041
    1AU       S  185   5.394   5.629   7.080
    1AU     LIG  186   5.241   5.250   7.296
    1AU     LIG  187   5.163   5.165   7.758
    1AU     LIG  188   5.010   5.118   8.208
    1AU     LIG  189   4.861   4.886   8.600
    1AU     LIG  190   4.834   4.740   9.055
    1AU     LIG  191   4.730   4.915   9.476
    1AU    AUSL  192   5.330   5.837   5.418
    1AU    AUSL  193   5.514   5.426   5.438
    1AU     AUL  194   5.475   5.456   5.127
    1AU       S  195   5.091   5.695   5.098
    1AU     LIG  196   4.923   5.440   4.759
    1AU     LIG  197   4.820   5.408   4.295
    1AU     LIG  198   4.657   5.324   3.843
    1AU     LIG  199   4.337   5.140   3.508
    1AU     LIG  200   4.004   5.173   3.151
    1AU     LIG  201   3.822   5.515   2.862
    1AU       S  202   5.078   5.180   5.230
    1AU     LIG  203   4.770   4.817   5.221
    1AU     LIG  204   4.417   4.557   5.081
    1AU     LIG  205   4.171   4.313   4.751
    1AU     LIG  206   4.209   4.132   4.293
    1AU     LIG  207   4.305   3.827   3.915
    1AU     LIG  208   4.156   3.483   3.616
    1AU    AUSL  209   5.562   6.139   5.193
    1AU    AUSL  210   5.096   6.164   5.484
    1AU     AUL  211   5.205   6.117   5.190
    1AU       S  212   4.942   6.482   5.275
    1AU     LIG  213   4.642   6.562   4.926
    1AU     LIG  214   4.517   6.704   4.484
    1AU     LIG  215   4.399   6.860   4.053
    1AU     LIG  216   4.093   7.039   3.741
    1AU     LIG  217   3.630   7.139   3.714
    1AU     LIG  218   3.354   7.499   3.590
    1AU       S  219   5.452   5.887   4.880
    1AU     LIG  220   5.206   5.796   4.402
    1AU     LIG  221   5.101   5.667   3.948
    1AU     LIG  222   5.053   5.838   3.507
    1AU     LIG  223   5.150   6.125   3.128
    1AU     LIG  224   5.114   6.265   2.671
    1AU     LIG  225   4.893   6.308   2.255
    1AU    AUSL  226   6.363   6.474   5.947
    1AU    AUSL  227   6.393   6.234   5.598
    1AU     AUL  228   6.478   6.688   5.713
    1AU       S  229   6.632   6.232   5.387
    1AU     LIG  230   6.970   6.172   5.133
    1AU     LIG  231   7.213   6.345   4.759
    1AU     LIG  232   7.463   6.544   4.394
    1AU     LIG  233   7.894   6.547   4.165
    1AU     LIG  234   8.273   6.780   3.987
    1AU     LIG  235   8.447   7.030   3.602
    1AU       S  236   6.811   6.390   5.871
    1AU     LIG  237   7.314   6.402   5.979
    1AU     LIG  238   7.828   6.474   5.991
    1AU     LIG  239   8.321   6.577   5.993
    1AU     LIG  240   8.730   6.886   6.016
    1AU     LIG  241   8.989   7.321   6.019
    1AU     LIG  242   9.226   7.706   6.204
    1AU    AUSL  243   6.583   5.923   5.765
    1AU    AUSL  244   6.581   5.757   6.173
    1AU     AUL  245   6.876   5.710   5.934
    1AU       S  246   6.781   6.152   5.852
    1AU     LIG  247   7.163   6.058   5.639
    1AU     LIG  248   7.673   6.082   5.697
    1AU     LIG  249   8.197   6.130   5.713
    1AU     LIG  250   8.715   6.094   5.667
    1AU     LIG  251   9.181   6.285   5.663
    1AU     LIG  252   9.542   6.603   5.496
    1AU       S  253   6.887   5.305   6.170
    1AU     LIG  254   7.288   5.079   6.207
    1AU     LIG  255   7.698   4.841   6.223
    1AU     LIG  256   8.081   4.580   6.255
    1AU     LIG  257   8.503   4.412   6.220
    1AU     LIG  258   8.875   4.335   6.474
    1AU     LIG  259   9.201   4.414   6.817
    1AU    AUSL  260   6.365   6.088   6.086
    1AU    AUSL  261   6.264   6.430   6.344
    1AU     AUL  262   6.518   6.424   6.226
    1AU       S  263   6.532   6.334   6.657
    1AU     LIG  264   6.956   6.529   6.692
    1AU     LIG  265   7.173   6.794   7.032
    1AU     LIG  266   7.383   7.140   7.294
    1AU     LIG  267   7.599   7.588   7.290
    1AU     LIG  268   7.853   8.006   7.323
    1AU     LIG  269   8.102   8.383   7.493
    1AU       S  270   6.842   6.158   6.079
    1AU     LIG  271   7.187   5.975   6.251
    1AU     LIG  272   7.665   6.037   6.219
    1AU     LIG  273   8.153   6.116   6.219
    1AU     LIG  274   8.637   6.190   6.162
    1AU     LIG  275   9.113   6.327   6.175
    1AU     LIG  276   9.474   6.569   6.400
    1AU    AUSL  277   5.082   6.415   6.091
    1AU    AUSL  278   5.131   6.157   6.424
    1AU     AUL  279   5.084   6.608   6.354
    1AU       S  280   4.920   6.231   6.631
    1AU     LIG  281   4.611   6.435   7.035
    1AU     LIG  282   4.584   6.637   7.484
    1AU     LIG  283   4.383   6.730   7.934
    1AU     LIG  284   4.039   6.807   8.291
    1AU     LIG  285   3.604   6.997   8.439
    1AU     LIG  286   3.212   7.269   8.557
    1AU       S  287   4.733   6.430   6.136
    1AU     LIG  288   4.631   6.885   6.168
    1AU     LIG  289   4.331   7.306   6.134
    1AU     LIG  290   3.980   7.660   6.119
    1AU     LIG  291   3.545   7.890   6.039
    1AU     LIG  292   3.116   8.130   6.128
    1AU     LIG  293   2.713   8.157   6.427
    1AU    AUSL  294   5.163   6.085   5.870
    1AU    AUSL  295   5.256   6.504   5.729
    1AU     AUL  296   4.977   6.414   5.736
    1AU       S  297   4.595   6.377   5.982
    1AU     LIG  298   4.528   6.654   5.558
    1AU     LIG  299   4.123   6.926   5.362
    1AU     LIG  300   3.605   6.978   5.309
    1AU     LIG  301   3.080   6.931   5.251
    1AU     LIG  302   2.589   6.757   5.215
    1AU     LIG  303   2.124   6.898   5.093
    1AU       S  304   5.072   6.722   5.398
    1AU     LIG  305   4.936   6.962   5.028
    1AU     LIG  306   4.797   7.290   4.743
    1AU     LIG  307   4.562   7.671   4.799
    1AU     LIG  308   4.399   8.062   4.608
    1AU     LIG  309   4.070   8.330   4.410
    1AU     LIG  310   3.806   8.688   4.250
    1AU    AUSL  311   4.885   5.989   6.161
    1AU    AUSL  312   4.936   5.757   5.795
    1AU     AUL  313   4.767   6.014   5.781
    1AU       S  314   4.593   5.563   5.929
    1AU     LIG  315   4.227   5.463   6.257
    1AU     LIG  316   3.759   5.323   6.349
    1AU     LIG  317   3.301   5.175   6.244
    1AU     LIG  318   2.902   5.020   5.948
    1AU     LIG  319   2.405   5.004   5.907
    1AU     LIG  320   2.001   4.919   5.649
    1AU       S  321   4.667   6.081   6.246
    1AU     LIG  322   4.474   6.457   6.541
    1AU     LIG  323   4.052   6.647   6.690
    1AU     LIG  324   3.553   6.712   6.711
    1AU     LIG  325   3.061   6.788   6.657
    1AU     LIG  326   2.650   7.042   6.720
    1AU     LIG  327   2.208   6.912   6.810
    1AU    AUSL  328   6.433   5.364   6.097
    1AU    AUSL  329   6.371   5.580   6.468
    1AU     AUL  330   6.687   5.620   6.434
    1AU       S  331   6.583   5.096   6.055
    1AU     LIG  332   6.837   4.801   6.276
    1AU     LIG  333   7.246   4.564   6.159
    1AU     LIG  334   7.670   4.362   6.006
    1AU     LIG  335   8.119   4.152   5.966
    1AU     LIG  336   8.479   3.892   6.171
    1AU     LIG  337   8.855   3.814   6.501
    1AU       S  338   6.442   5.240   6.556
    1AU     LIG  339   6.688   4.861   6.792
    1AU     LIG  340   6.857   4.554   7.140
    1AU     LIG  341   7.102   4.284   7.470
    1AU     LIG  342   7.455   4.215   7.802
    1AU     LIG  343   7.794   4.257   8.159
    1AU     LIG  344   8.229   4.267   8.382
    1AU    AUSL  345   6.286   5.686   5.890
    1AU    AUSL  346   6.221   5.240   5.771
    1AU     AUL  347   6.563   5.442   5.723
    1AU       S  348   6.643   5.275   6.120
    1AU     LIG  349   6.989   5.007   5.792
    1AU     LIG  350   7.467   4.824   5.764
    1AU     LIG  351   7.967   4.712   5.771
    1AU     LIG  352   8.415   4.501   5.712
    1AU     LIG  353   8.829   4.413   5.496
    1AU     LIG  354   9.205   4.682   5.533
    1AU       S  355   6.450   5.033   5.529
    1AU     LIG  356   6.364   4.630   5.299
    1AU     LIG  357   6.563   4.233   5.075
    1AU     LIG  358   6.809   3.830   4.889
    1AU     LIG  359   7.049   3.366   4.854
    1AU     LIG  360   7.469   3.118   4.752
    1AU     LIG  361   7.960   3.115   4.661
    1AU    AUSL  362   5.039   5.373   5.959
    1AU    AUSL  363   5.133   5.508   5.549
    1AU     AUL  364   4.839   5.596   5.531
    1AU       S  365   5.008   5.179   5.493
    1AU     LIG  366   4.539   5.185   5.488
    1AU     LIG  367   4.212   5.035   5.220
    1AU     LIG  368   3.978   4.776   4.929
    1AU     LIG  369   3.710   4.532   4.644
    1AU     LIG  370   3.448   4.481   4.254
    1AU     LIG  371   3.149   4.440   3.878
    1AU       S  372   4.745   5.352   5.904
    1AU     LIG  373   4.416   5.076   5.991
    1AU     LIG  374   3.990   5.009   6.023
    1AU     LIG  375   3.646   4.800   6.256
    1AU     LIG  376   3.178   4.661   6.198
    1AU     LIG  377   2.748   4.439   6.075
    1AU     LIG  378   2.509   4.030   5.952
    1AU    AUSL  379   5.190   5.728   6.121
    1AU    AUSL  380   5.276   5.341   6.299
    1AU     AUL  381   4.913   5.490   6.298
    1AU       S  382   5.002   5.150   6.585
    1AU     LIG  383   4.850   4.959   6.234
    1AU     LIG  384   4.440   4.679   6.327
    1AU     LIG  385   4.156   4.380   6.629
    1AU     LIG  386   3.870   4.079   6.924
    1AU     LIG  387   3.677   3.736   7.239
    1AU     LIG  388   3.596   3.258   7.379
    1AU       S  389   4.636   5.624   5.976
    1AU     LIG  390   4.156   5.447   5.753
    1AU     LIG  391   3.670   5.385   5.834
    1AU     LIG  392   3.177   5.465   5.856
    1AU     LIG  393   2.853   5.424   6.231
    1AU     LIG  394   2.378   5.367   6.318
    1AU     LIG  395   1.948   5.243   6.507
    1AU    AUSL  396   5.772   6.534   6.534
    1AU    AUSL  397   5.453   6.333   6.238
    1AU     AUL  398   5.471   6.637   6.615
    1AU       S  399   5.095   6.439   6.770
    1AU     LIG  400   4.871   6.810   6.791
    1AU     LIG  401   4.796   7.112   7.155
    1AU     LIG  402   4.720   7.547   7.381
    1AU     LIG  403   4.616   8.034   7.403
    1AU     LIG  404   4.341   8.416   7.488
    1AU     LIG  405   3.913   8.554   7.632
    1AU       S  406   5.832   6.930   6.530
    1AU     LIG  407   6.033   7.124   6.862
    1AU     LIG  408   6.075   7.569   6.998
    1AU     LIG  409   6.105   7.878   7.367
    1AU     LIG  410   6.058   8.143   7.772
    1AU     LIG  411   5.910   8.470   8.097
    1AU     LIG  412   5.852   8.918   8.248
    1AU    AUSL  413   5.534   6.718   6.179
    1AU    AUSL  414   5.984   6.699   5.776
    1AU     AUL  415   5.655   6.964   5.947
    1AU       S  416   5.714   6.999   6.393
    1AU     LIG  417   5.832   7.449   6.510
    1AU     LIG  418   5.703   7.852   6.719
    1AU     LIG  419   5.496   8.270   6.812
    1AU     LIG  420   5.378   8.730   6.907
    1AU     LIG  421   5.327   9.211   7.046
    1AU     LIG  422   5.160   9.662   7.099
    1AU       S  423   6.050   6.970   5.689
    1AU     LIG  424   6.388   7.228   5.534
    1AU     LIG  425   6.459   7.677   5.341
    1AU     LIG  426   6.731   8.110   5.287
    1AU     LIG  427   6.843   8.599   5.265
    1AU     LIG  428   6.901   9.076   5.197
    1AU     LIG  429   6.866   9.546   5.121
    1AU    AUSL  430   5.935   6.574   6.160
    1AU    AUSL  431   5.945   6.189   6.417
    1AU     AUL  432   6.100   6.571   6.563
    1AU       S  433   6.465   6.364   6.758
    1AU     LIG  434   6.686   6.589   7.119
    1AU     LIG  435   6.925   6.743   7.505
    1AU     LIG  436   7.199   6.896   7.872
    1AU     LIG  437   7.271   7.119   8.303
    1AU     LIG  438   7.295   7.524   8.578
    1AU     LIG  439   7.440   7.858   8.903
    1AU       S  440   6.017   6.878   6.230
    1AU     LIG  441   6.284   7.219   6.424
    1AU     LIG  442   6.405   7.686   6.594
    1AU     LIG  443   6.687   8.128   6.658
    1AU     LIG  444   6.841   8.621   6.712
    1AU     LIG  445   6.695   9.082   6.666
    1AU     LIG  446   6.802   9.547   6.755
    1AU    AUSL  447   5.705   5.292   6.433
    1AU    AUSL  448   6.060   5.426   6.239
    1AU     AUL  449   5.876   5.180   6.694
    1AU       S  450   5.780   4.763   6.541
    1AU     LIG  451   5.824   4.361   6.719
    1AU     LIG  452   5.477   4.062   6.756
    1AU     LIG  453   5.361   3.625   6.846
    1AU     LIG  454   5.347   3.299   7.195
    1AU     LIG  455   5.376   3.114   7.646
    1AU     LIG  456   5.438   2.806   8.011
    1AU       S  457   6.336   5.071   6.455
    1AU     LIG  458   6.355   4.612   6.483
    1AU     LIG  459   6.617   4.309   6.751
    1AU     LIG  460   6.896   4.029   7.059
    1AU     LIG  461   7.217   3.693   7.262
    1AU     LIG  462   7.522   3.287   7.351
    1AU     LIG  463   7.920   3.004   7.382
    1AU    AUSL  464   5.532   5.068   6.142
    1AU    AUSL  465   5.413   5.411   6.690
    1AU     AUL  466   5.439   5.077   6.500
    1AU       S  467   5.581   4.663   6.395
    1AU     LIG  468   5.413   4.265   6.249
    1AU     LIG  469   5.260   3.818   6.347
    1AU     LIG  470   5.033   3.418   6.489
    1AU     LIG  471   4.748   3.028   6.523
    1AU     LIG  472   4.612   2.657   6.777
    1AU     LIG  473   4.650   2.225   6.911
    1AU       S  474   5.160   5.286   6.795
    1AU     LIG  475   4.854   4.938   7.011
    1AU     LIG  476   4.461   4.658   6.957
    1AU     LIG  477   4.251   4.290   7.190
    1AU     LIG  478   4.056   3.971   7.501
    1AU     LIG  479   4.019   3.684   7.888
    1AU     LIG  480   4.065   3.625   8.362
    1AU    AUSL  481   5.965   5.037   6.203
    1AU    AUSL  482   5.493   5.064   5.734
    1AU     AUL  483   5.694   4.814   5.985
    1AU       S  484   5.424   4.716   5.611
    1AU     LIG  485   5.312   4.279   5.713
    1AU     LIG  486   5.189   3.816   5.696
    1AU     LIG  487   5.015   3.424   5.479
    1AU     LIG  488   4.777   3.003   5.393
    1AU     LIG  489   4.675   2.533   5.288
    1AU     LIG  490   4.696   2.171   4.975
    1AU       S  491   5.908   4.837   6.376
    1AU     LIG  492   5.934   4.373   6.211
    1AU     LIG  493   5.780   3.921   6.363
    1AU     LIG  494   5.717   3.443   6.489
    1AU     LIG  495   5.943   2.983   6.521
    1AU     LIG  496   6.133   2.568   6.719
    1AU     LIG  497   6.277   2.169   6.937
    1AU    AUSL  498   5.734   6.515   5.463
    1AU    AUSL  499   6.041   6.300   5.774
    1AU     AUL  500   6.096   6.574   5.458
    1AU       S  501   5.777   6.874   5.322
    1AU     LIG  502   6.167   6.992   5.139
    1AU     LIG  503   6.222   7.422   4.934
    1AU     LIG  504   6.122   7.700   4.547
    1AU     LIG  505   6.088   8.040   4.208
    1AU     LIG  506   6.083   8.465   4.000
    1AU     LIG  507   6.009   8.785   3.663
    1AU       S  508   6.504   6.312   5.476
    1AU     LIG  509   6.939   6.605   5.426
    1AU     LIG  510   7.163   6.784   5.041
    1AU     LIG  511   7.360   7.100   4.726
    1AU     LIG  512   7.574   7.550   4.669
    1AU     LIG  513   7.770   8.001   4.592
    1AU     LIG  514   7.833   8.425   4.351
    1AU    AUSL  515   5.639   6.490   5.863
    1AU    AUSL  516   5.497   6.212   5.580
    1AU     AUL  517   5.475   6.692   5.622
    1AU       S  518   5.860   6.961   5.551
    1AU     LIG  519   5.932   7.402   5.373
    1AU     LIG  520   5.954   7.850   5.163
    1AU     LIG  521   5.763   8.315   5.063
    1AU     LIG  522   5.458   8.725   4.996
    1AU     LIG  523   5.417   9.202   4.861
    1AU     LIG  524   5.012   9.415   4.742
    1AU       S  525   5.296   6.554   5.234
    1AU     LIG  526   5.154   6.544   4.808
    1AU     LIG  527   4.998   6.866   4.482
    1AU     LIG  528   4.906   6.994   4.016
    1AU     LIG  529   4.910   7.310   3.646
    1AU     LIG  530   4.669   7.684   3.458
    1AU     LIG  531   4.394   8.021   3.233
    1AU    AUSL  532   5.831   5.178   5.472
    1AU    AUSL  533   5.419   5.441   5.842
    1AU     AUL  534   5.467   5.147   5.460
    1AU       S  535   5.044   5.052   5.630
    1AU     LIG  536   4.725   4.772   5.738
    1AU     LIG  537   4.283   4.679   5.580
    1AU     LIG  538   3.972   4.407   5.290
    1AU     LIG  539   3.719   4.116   4.991
    1AU     LIG  540   3.444   3.696   4.917
    1AU     LIG  541   3.269   3.334   4.656
    1AU       S  542   5.749   4.806   5.378
    1AU     LIG  543   5.496   4.442   5.195
    1AU     LIG  544   5.295   4.040   5.238
    1AU     LIG  545   5.373   3.597   5.135
    1AU     LIG  546   5.363   3.313   4.739
    1AU     LIG  547   5.351   3.144   4.277
    1AU     LIG  548   5.463   2.836   3.926
    1AU    AUSL  549   5.829   5.243   5.886
    1AU    AUSL  550   5.961   5.528   5.612
    1AU     AUL  551   6.019   5.020   5.694
    1AU       S  552   5.674   4.744   5.550
    1AU     LIG  553   5.811   4.336   5.635
    1AU     LIG  554   5.681   3.884   5.544
    1AU     LIG  555   5.759   3.412   5.463
    1AU     LIG  556   6.070   3.025   5.454
    1AU     LIG  557   6.274   2.611   5.328
    1AU     LIG  558   6.485   2.232   5.116
    1AU       S  559   6.261   5.143   5.316
    1AU     LIG  560   6.077   4.950   5.005
    1AU     LIG  561   6.292   4.583   4.771
    1AU     LIG  562   6.543   4.218   4.552
    1AU     LIG  563   6.742   3.989   4.183
    1AU     LIG  564   6.922   3.739   3.823
    1AU     LIG  565   7.206   3.590   3.482
    2POPC   NC3  566   1.389   2.513   7.947
    2POPC   PO4  567   1.154   3.082   8.151
    2POPC   GL1  568   1.227   2.981   7.728
    2POPC   GL2  569   0.898   2.831   7.687
    2POPC   C1A  570   1.250   2.720   7.329
    2POPC   D2A  571   1.497   2.704   6.964
    2POPC   C3A  572   1.363   2.749   6.558
    2POPC   C4A  573   1.655   2.969   6.303
    2POPC   C1B  574   0.878   3.068   7.292
    2POPC   C2B  575   1.002   3.042   6.856
    2POPC   C3B  576   0.865   2.860   6.462
    2POPC   C4B  577   1.130   2.751   6.088
    3POPC   NC3  578   2.748   1.958   8.138
    3POPC   PO4  579   3.202   2.344   7.744
    3POPC   GL1  580   3.009   1.922   7.588
    3POPC   GL2  581   2.689   1.755   7.671
    3POPC   C1A  582   3.054   1.897   7.168
    3POPC   D2A  583   3.176   1.982   6.776
    3POPC   C3A  584   2.991   1.882   6.463
    3POPC   C4A  585   3.051   1.961   6.086
    3POPC   C1B  586   2.564   1.926   7.285
    3POPC   C2B  587   2.613   2.101   6.855
    3POPC   C3B  588   2.497   2.038   6.440
    3POPC   C4B  589   2.593   2.164   6.011
    4POPC   NC3  590   8.543   5.229   8.177
    4POPC   PO4  591   9.031   5.491   8.221
    4POPC   GL1  592   8.925   5.276   7.805
    4POPC   GL2  593   8.964   4.915   7.690
    4POPC   C1A  594   8.964   5.281   7.317
    4POPC   D2A  595   9.213   5.172   6.911
    4POPC   C3A  596   9.080   5.232   6.452
    4POPC   C4A  597   8.811   5.291   6.068
    4POPC   C1B  598   9.000   4.777   7.208
    4POPC   C2B  599   8.878   4.815   6.742
    4POPC   C3B  600   8.839   4.809   6.292
    4POPC   C4B  601   8.931   4.527   5.971
    5POPC   NC3  602   1.400   0.520   8.121
    5POPC   PO4  603   0.845   0.826   7.987
    5POPC   GL1  604   1.007   0.457   7.741
    5POPC   GL2  605   1.226   0.158   7.798
    5POPC   C1A  606   0.935   0.322   7.310
    5POPC   D2A  607   0.827   0.502   6.909
    5POPC   C3A  608   0.844   0.176   6.604
    5POPC   C4A  609   0.865  11.476   6.227
    5POPC   C1B  610   1.437   0.376   7.433
    5POPC   C2B  611   1.344   0.522   6.990
    5POPC   C3B  612   1.224   0.511   6.547
    5POPC   C4B  613   1.288   0.257   6.194
    6POPC   NC3  614   7.986   2.512   7.976
    6POPC   PO4  615   7.613   3.074   8.005
    6POPC   GL1  616   7.530   2.776   7.656
    6POPC   GL2  617   7.190   2.651   7.722
    6POPC   C1A  618   7.508   2.750   7.179
    6POPC   D2A  619   7.370   2.861   6.733
    6POPC   C3A  620   7.592   2.762   6.326
    6POPC   C4A  621   7.638   2.893   5.874
    6POPC   C1B  622   7.187   2.398   7.368
    6POPC   C2B  623   7.181   2.404   6.912
    6POPC   C3B  624   7.100   2.502   6.463
    6POPC   C4B  625   7.266   2.470   6.045
    7POPC   NC3  626   2.098   5.676   8.156
    7POPC   PO4  627   1.625   6.101   8.059
    7POPC   GL1  628   1.652   5.928   7.669
    7POPC   GL2  629   2.004   5.905   7.659
    7POPC   C1A  630   1.639   6.102   7.248
    7POPC   D2A  631   1.858   6.058   6.869
    7POPC   C3A  632   1.683   6.058   6.455
    7POPC   C4A  633   1.741   5.683   6.236
    7POPC   C1B  634   1.889   5.664   7.286
    7POPC   C2B  635   2.051   5.591   6.873
    7POPC   C3B  636   2.141   5.819   6.497
    7POPC   C4B  637   2.205   5.769   6.045
    8POPC   NC3  638   0.391   5.443   8.172
    8POPC   PO4  639   0.028   4.946   8.121
    8POPC   GL1  640   0.214   4.966   7.792
    8POPC   GL2  641   0.540   5.038   7.866
    8POPC   C1A  642   0.097   4.831   7.371
    8POPC   D2A  643   0.194   4.647   6.966
    8POPC   C3A  644   0.010   4.790   6.602
    8POPC   C4A  645   0.208   4.856   6.236
    8POPC   C1B  646   0.533   5.143   7.453
    8POPC   C2B  647   0.497   5.043   7.035
    8POPC   C3B  648   0.450   5.148   6.566
    8POPC   C4B  649   0.628   5.141   6.144
    9POPC   NC3  650  11.191   5.269   8.130
    9POPC   PO4  651  11.073   4.617   8.341
    9POPC   GL1  652  11.112   4.774   7.849
    9POPC   GL2  653  11.243   5.100   7.671
    9POPC   C1A  654  11.022   4.773   7.374
    9POPC   D2A  655  11.066   5.057   6.982
    9POPC   C3A  656  10.979   4.933   6.567
    9POPC   C4A  657  11.089   4.825   6.174
    9POPC   C1B  658  11.394   5.296   7.301
    9POPC   C2B  659   0.053   5.222   6.872
    9POPC   C3B  660  11.423   5.267   6.392
    9POPC   C4B  661  11.179   5.301   5.969
   10POPC   NC3  662  11.307   8.248   7.984
   10POPC   PO4  663  10.626   8.309   8.098
   10POPC   GL1  664  10.911   8.358   7.671
   10POPC   GL2  665  11.288   8.375   7.515
   10POPC   C1A  666  10.869   8.385   7.214
   10POPC   D2A  667  10.866   8.497   6.796
   10POPC   C3A  668  11.051   8.195   6.595
   10POPC   C4A  669  10.992   8.043   6.195
   10POPC   C1B  670  11.294   8.036   7.238
   10POPC   C2B  671  11.499   8.091   6.859
   10POPC   C3B  672  11.472   7.976   6.452
   10POPC   C4B  673  11.404   8.316   6.188
   11POPC   NC3  674   3.543   2.417   8.063
   11POPC   PO4  675   4.205   2.524   8.304
   11POPC   GL1  676   3.965   2.522   7.820
   11POPC   GL2  677   3.621   2.755   7.679
   11POPC   C1A  678   3.838   2.428   7.378
   11POPC   D2A  679   3.647   2.679   7.092
   11POPC   C3A  680   3.762   2.538   6.704
   11POPC   C4A  681   3.751   2.806   6.379
   11POPC   C1B  682   3.237   2.863   7.353
   11POPC   C2B  683   3.108   2.949   6.903
   11POPC   C3B  684   3.210   2.839   6.457
   11POPC   C4B  685   3.417   3.167   6.198
   12POPC   NC3  686   4.795   7.990   8.040
   12POPC   PO4  687   5.160   7.583   7.968
   12POPC   GL1  688   5.073   7.873   7.597
   12POPC   GL2  689   5.114   8.218   7.696
   12POPC   C1A  690   5.018   7.880   7.112
   12POPC   D2A  691   5.151   7.898   6.665
   12POPC   C3A  692   4.800   7.975   6.367
   12POPC   C4A  693   4.420   8.103   6.128
   12POPC   C1B  694   5.194   8.326   7.251
   12POPC   C2B  695   4.995   8.379   6.827
   12POPC   C3B  696   5.175   8.330   6.385
   12POPC   C4B  697   5.250   7.965   6.101
   13POPC   NC3  698   8.462   0.935   8.003
   13POPC   PO4  699   7.760   1.073   8.138
   13POPC   GL1  700   8.004   1.097   7.764
   13POPC   GL2  701   7.827   1.344   7.549
   13POPC   C1A  702   8.064   0.902   7.358
   13POPC   D2A  703   7.933   1.028   6.920
   13POPC   C3A  704   8.247   0.967   6.594
   13POPC   C4A  705   8.283   1.106   6.176
   13POPC   C1B  706   8.171   1.393   7.223
   13POPC   C2B  707   8.226   1.451   6.783
   13POPC   C3B  708   7.927   1.353   6.451
   13POPC   C4B  709   7.752   1.654   6.157
   14POPC   NC3  710   1.115   9.579   8.109
   14POPC   PO4  711   0.850  10.193   8.145
   14POPC   GL1  712   1.032   9.950   7.770
   14POPC   GL2  713   1.402   9.873   7.774
   14POPC   C1A  714   0.880   9.956   7.353
   14POPC   D2A  715   1.133   9.937   6.977
   14POPC   C3A  716   1.070   9.650   6.622
   14POPC   C4A  717   1.139   9.873   6.242
   14POPC   C1B  718   1.324   9.670   7.385
   14POPC   C2B  719   1.496   9.542   6.987
   14POPC   C3B  720   1.585   9.642   6.587
   14POPC   C4B  721   1.467   9.491   6.193
   15POPC   NC3  722   1.257  10.564   8.210
   15POPC   PO4  723   0.727  10.696   7.838
   15POPC   GL1  724   0.973  10.439   7.657
   15POPC   GL2  725   1.336  10.404   7.711
   15POPC   C1A  726   1.072  10.414   7.247
   15POPC   D2A  727   1.339  10.480   6.926
   15POPC   C3A  728   1.144  10.287   6.572
   15POPC   C4A  729   0.922  10.336   6.194
   15POPC   C1B  730   1.518  10.181   7.333
   15POPC   C2B  731   1.621  10.047   6.889
   15POPC   C3B  732   1.614  10.130   6.421
   15POPC   C4B  733   1.413  10.359   6.093
   16POPC   NC3  734   3.595   9.375   8.268
   16POPC   PO4  735   3.059   9.224   7.980
   16POPC   GL1  736   3.428   9.479   7.773
   16POPC   GL2  737   3.662   9.777   7.834
   16POPC   C1A  738   3.448   9.569   7.324
   16POPC   D2A  739   3.332   9.748   6.909
   16POPC   C3A  740   3.306   9.574   6.458
   16POPC   C4A  741   3.193   9.529   6.017
   16POPC   C1B  742   3.727   9.990   7.393
   16POPC   C2B  743   3.817   9.967   6.918
   16POPC   C3B  744   3.800   9.739   6.489
   16POPC   C4B  745   3.669   9.735   6.027
   17POPC   NC3  746  10.467   1.255   8.312
   17POPC   PO4  747  10.371   1.815   7.993
   17POPC   GL1  748  10.298   1.512   7.688
   17POPC   GL2  749  10.431   1.184   7.760
   17POPC   C1A  750  10.530   1.417   7.285
   17POPC   D2A  751  10.669   1.245   6.890
   17POPC   C3A  752  10.621   1.566   6.616
   17POPC   C4A  753  10.506   1.566   6.210
   17POPC   C1B  754  10.120   1.125   7.400
   17POPC   C2B  755  10.205   1.025   6.976
   17POPC   C3B  756  10.235   1.203   6.552
   17POPC   C4B  757  10.227   1.049   6.107
   18POPC   NC3  758   3.816  11.336   8.167
   18POPC   PO4  759   3.273   0.050   7.850
   18POPC   GL1  760   3.632  11.399   7.683
   18POPC   GL2  761   3.558  11.057   7.687
   18POPC   C1A  762   3.773  11.337   7.276
   18POPC   D2A  763   3.718  11.028   6.965
   18POPC   C3A  764   3.680  11.174   6.582
   18POPC   C4A  765   3.727   0.004   6.295
   18POPC   C1B  766   3.291  11.073   7.293
   18POPC   C2B  767   3.227  10.925   6.850
   18POPC   C3B  768   3.270  10.974   6.393
   18POPC   C4B  769   3.589  11.003   6.065
   19POPC   NC3  770  11.320   6.260   8.104
   19POPC   PO4  771  11.245   6.907   7.946
   19POPC   GL1  772  11.257   6.704   7.596
   19POPC   GL2  773  11.270   6.339   7.604
   19POPC   C1A  774  11.151   6.835   7.186
   19POPC   D2A  775  11.112   7.002   6.767
   19POPC   C3A  776  11.213   6.819   6.314
   19POPC   C4A  777  10.889   6.975   5.942
   19POPC   C1B  778  11.237   6.340   7.178
   19POPC   C2B  779  11.047   6.498   6.810
   19POPC   C3B  780  11.083   6.311   6.436
   19POPC   C4B  781  11.500   6.174   6.281
   20POPC   NC3  782  10.423   0.264   8.439
   20POPC   PO4  783  10.954   0.057   8.131
   20POPC   GL1  784  10.718   0.228   7.746
   20POPC   GL2  785  10.348   0.325   7.756
   20POPC   C1A  786  10.559   0.220   7.288
   20POPC   D2A  787  10.492  11.479   6.910
   20POPC   C3A  788  10.551   0.224   6.538
   20POPC   C4A  789  10.692   0.173   6.113
   20POPC   C1B  790  10.258   0.607   7.361
   20POPC   C2B  791  10.431   0.575   6.921
   20POPC   C3B  792  10.244   0.671   6.519
   20POPC   C4B  793  10.224   0.402   6.177
   21POPC   NC3  794   6.942   1.130   7.981
   21POPC   PO4  795   6.251   1.171   8.063
   21POPC   GL1  796   6.498   0.974   7.701
   21POPC   GL2  797   6.281   0.741   7.506
   21POPC   C1A  798   6.852   1.053   7.365
   21POPC   D2A  799   6.803   1.218   6.964
   21POPC   C3A  800   6.555   0.963   6.705
   21POPC   C4A  801   6.552   1.177   6.331
   21POPC   C1B  802   6.347   1.075   7.190
   21POPC   C2B  803   6.304   1.448   6.906
   21POPC   C3B  804   6.361   1.663   6.490
   21POPC   C4B  805   6.219   1.483   6.099
   22POPC   NC3  806   8.924  11.017   7.931
   22POPC   PO4  807   9.322  10.500   7.927
   22POPC   GL1  808   9.210  10.812   7.567
   22POPC   GL2  809   9.116  11.221   7.531
   22POPC   C1A  810   8.959  10.863   7.192
   22POPC   D2A  811   8.656  10.776   6.863
   22POPC   C3A  812   8.654  11.006   6.498
   22POPC   C4A  813   8.973  11.012   6.251
   22POPC   C1B  814   8.695  11.264   7.335
   22POPC   C2B  815   8.799  11.300   6.901
   22POPC   C3B  816   8.707   0.028   6.521
   22POPC   C4B  817   8.737  11.459   6.076
   23POPC   NC3  818   0.475   1.087   7.878
   23POPC   PO4  819   0.801   1.610   7.994
   23POPC   GL1  820   0.646   1.495   7.619
   23POPC   GL2  821   0.260   1.489   7.652
   23POPC   C1A  822   0.566   1.564   7.198
   23POPC   D2A  823   0.489   1.315   6.838
   23POPC   C3A  824   0.472   1.592   6.496
   23POPC   C4A  825   0.291   1.553   6.089
   23POPC   C1B  826   0.131   1.255   7.283
   23POPC   C2B  827  11.465   1.085   6.921
   23POPC   C3B  828   0.080   1.235   6.512
   23POPC   C4B  829   0.464   1.067   6.316
   24POPC   NC3  830   4.226   8.601   8.212
   24POPC   PO4  831   4.039   9.223   8.180
   24POPC   GL1  832   4.067   9.030   7.787
   24POPC   GL2  833   4.363   8.852   7.755
   24POPC   C1A  834   4.050   8.941   7.325
   24POPC   D2A  835   4.177   8.603   7.024
   24POPC   C3A  836   4.162   8.688   6.554
   24POPC   C4A  837   4.078   8.502   6.147
   24POPC   C1B  838   4.545   8.873   7.308
   24POPC   C2B  839   4.419   9.020   6.868
   24POPC   C3B  840   4.543   8.995   6.414
   24POPC   C4B  841   4.699   9.175   6.040
   25POPC   NC3  842   3.539   1.348   8.182
   25POPC   PO4  843   3.210   0.699   8.062
   25POPC   GL1  844   3.257   0.878   7.653
   25POPC   GL2  845   3.525   1.121   7.563
   25POPC   C1A  846   3.147   1.021   7.240
   25POPC   D2A  847   3.343   1.084   6.834
   25POPC   C3A  848   3.143   1.105   6.426
   25POPC   C4A  849   3.156   1.470   6.133
   25POPC   C1B  850   3.830   1.387   7.290
   25POPC   C2B  851   4.006   1.514   6.870
   25POPC   C3B  852   3.905   1.456   6.435
   25POPC   C4B  853   3.615   1.181   6.332
   26POPC   NC3  854   5.631   9.714   8.260
   26POPC   PO4  855   6.078  10.162   8.237
   26POPC   GL1  856   6.142   9.881   7.830
   26POPC   GL2  857   5.826   9.691   7.763
   26POPC   C1A  858   6.033   9.899   7.339
   26POPC   D2A  859   6.189   9.783   6.905
   26POPC   C3A  860   5.964   9.871   6.516
   26POPC   C4A  861   6.010   9.903   6.073
   26POPC   C1B  862   5.631   9.569   7.343
   26POPC   C2B  863   5.638   9.660   6.884
   26POPC   C3B  864   5.509   9.586   6.437
   26POPC   C4B  865   5.698   9.496   6.011
   27POPC   NC3  866  11.099  10.436   8.024
   27POPC   PO4  867  10.757   9.920   7.789
   27POPC   GL1  868  11.108  10.099   7.618
   27POPC   GL2  869  11.107  10.469   7.525
   27POPC   C1A  870  11.187  10.047   7.199
   27POPC   D2A  871  10.929  10.099   6.842
   27POPC   C3A  872  11.202  10.265   6.560
   27POPC   C4A  873  11.243  10.100   6.142
   27POPC   C1B  874  10.820  10.754   7.297
   27POPC   C2B  875  11.015  10.682   6.912
   27POPC   C3B  876  11.094  10.838   6.504
   27POPC   C4B  877  11.330  10.612   6.219
   28POPC   NC3  878   5.444   0.133   7.936
   28POPC   PO4  879   5.005   0.586   8.249
   28POPC   GL1  880   5.202   0.546   7.789
   28POPC   GL2  881   5.126   0.273   7.557
   28POPC   C1A  882   5.364   0.615   7.302
   28POPC   D2A  883   5.088   0.364   7.010
   28POPC   C3A  884   5.134   0.354   6.566
   28POPC   C4A  885   5.283   0.649   6.287
   28POPC   C1B  886   4.875   0.651   7.408
   28POPC   C2B  887   4.641   0.686   7.039
   28POPC   C3B  888   4.745   0.709   6.597
   28POPC   C4B  889   4.797   0.983   6.246
   29POPC   NC3  890   8.713   2.599   8.037
   29POPC   PO4  891   8.237   2.908   7.993
   29POPC   GL1  892   8.548   2.884   7.623
   29POPC   GL2  893   8.793   2.581   7.527
   29POPC   C1A  894   8.842   3.042   7.297
   29POPC   D2A  895   8.956   3.342   6.957
   29POPC   C3A  896   8.986   3.185   6.528
   29POPC   C4A  897   8.694   3.024   6.173
   29POPC   C1B  898   9.108   2.620   7.169
   29POPC   C2B  899   9.025   2.675   6.733
   29POPC   C3B  900   9.067   2.711   6.304
   29POPC   C4B  901   9.052   2.581   5.875
   30POPC   NC3  902   7.377  10.621   8.236
   30POPC   PO4  903   7.705  10.791   7.693
   30POPC   GL1  904   7.348  10.568   7.586
   30POPC   GL2  905   7.397  10.264   7.793
   30POPC   C1A  906   7.283  10.410   7.173
   30POPC   D2A  907   7.004  10.435   6.843
   30POPC   C3A  908   7.141  10.632   6.482
   30POPC   C4A  909   7.494  10.646   6.219
   30POPC   C1B  910   7.674  10.166   7.441
   30POPC   C2B  911   7.617  10.067   7.014
   30POPC   C3B  912   7.509  10.257   6.618
   30POPC   C4B  913   7.473  10.124   6.192
   31POPC   NC3  914  10.249   4.552   7.652
   31POPC   PO4  915  10.101   4.028   7.903
   31POPC   GL1  916   9.975   4.141   7.487
   31POPC   GL2  917   9.739   4.391   7.478
   31POPC   C1A  918  10.059   4.303   7.049
   31POPC   D2A  919  10.218   4.647   6.765
   31POPC   C3A  920  10.077   4.603   6.333
   31POPC   C4A  921   9.789   4.267   6.219
   31POPC   C1B  922   9.566   4.088   7.155
   31POPC   C2B  923   9.340   3.905   6.779
   31POPC   C3B  924   9.325   4.126   6.396
   31POPC   C4B  925   9.324   4.591   6.337
   32POPC   NC3  926   0.353   2.071   8.007
   32POPC   PO4  927   0.964   2.364   7.920
   32POPC   GL1  928   0.788   2.023   7.641
   32POPC   GL2  929   0.443   1.951   7.543
   32POPC   C1A  930   0.751   2.119   7.205
   32POPC   D2A  931   0.473   1.973   6.891
   32POPC   C3A  932   0.724   2.054   6.559
   32POPC   C4A  933   0.850   1.916   6.166
   32POPC   C1B  934   0.120   1.819   7.285
   32POPC   C2B  935   0.077   1.612   6.893
   32POPC   C3B  936  11.482   1.766   6.472
   32POPC   C4B  937   0.298   2.039   6.286
   33POPC   NC3  938   9.434   5.674   8.269
   33POPC   PO4  939   9.908   6.062   8.156
   33POPC   GL1  940   9.963   5.839   7.767
   33POPC   GL2  941  10.154   6.050   7.604
   33POPC   C1A  942   9.926   5.690   7.316
   33POPC   D2A  943   9.866   5.808   6.866
   33POPC   C3A  944   9.737   5.600   6.483
   33POPC   C4A  945   9.866   5.668   6.062
   33POPC   C1B  946   9.919   6.200   7.208
   33POPC   C2B  947   9.822   6.313   6.746
   33POPC   C3B  948   9.735   6.098   6.345
   33POPC   C4B  949   9.441   5.936   6.035
   34POPC   NC3  950   5.060   1.073   8.188
   34POPC   PO4  951   5.650   0.722   8.134
   34POPC   GL1  952   5.419   0.988   7.772
   34POPC   GL2  953   5.155   1.254   7.723
   34POPC   C1A  954   5.392   1.107   7.309
   34POPC   D2A  955   5.091   0.935   6.988
   34POPC   C3A  956   5.189   1.049   6.579
   34POPC   C4A  957   5.265   1.168   6.137
   34POPC   C1B  958   4.895   1.268   7.333
   34POPC   C2B  959   4.776   1.376   6.898
   34POPC   C3B  960   4.899   1.448   6.459
   34POPC   C4B  961   5.005   1.606   6.042
   35POPC   NC3  962   7.749   9.249   8.106
   35POPC   PO4  963   8.447   9.271   8.066
   35POPC   GL1  964   8.333   9.183   7.649
   35POPC   GL2  965   8.017   9.150   7.681
   35POPC   C1A  966   8.221   8.862   7.308
   35POPC   D2A  967   8.075   8.700   6.866
   35POPC   C3A  968   8.320   8.647   6.453
   35POPC   C4A  969   8.302   8.785   6.019
   35POPC   C1B  970   7.838   9.191   7.269
   35POPC   C2B  971   7.995   9.203   6.848
   35POPC   C3B  972   8.025   9.068   6.398
   35POPC   C4B  973   7.849   9.010   5.941
   36POPC   NC3  974   8.917  10.404   8.137
   36POPC   PO4  975   8.466  11.010   8.006
   36POPC   GL1  976   8.615  10.677   7.649
   36POPC   GL2  977   8.887  10.391   7.632
   36POPC   C1A  978   8.588  10.444   7.230
   36POPC   D2A  979   8.607  10.259   6.808
   36POPC   C3A  980   8.377  10.546   6.476
   36POPC   C4A  981   8.553  10.731   6.073
   36POPC   C1B  982   9.123  10.378   7.237
   36POPC   C2B  983   9.139  10.578   6.812
   36POPC   C3B  984   8.884  10.529   6.445
   36POPC   C4B  985   8.967  10.158   6.263
   37POPC   NC3  986   7.147   8.843   7.957
   37POPC   PO4  987   7.831   8.656   8.188
   37POPC   GL1  988   7.791   8.693   7.746
   37POPC   GL2  989   7.575   8.917   7.699
   37POPC   C1A  990   7.732   8.684   7.270
   37POPC   D2A  991   7.583   8.913   6.895
   37POPC   C3A  992   7.430   8.678   6.561
   37POPC   C4A  993   7.776   8.632   6.287
   37POPC   C1B  994   7.338   9.025   7.328
   37POPC   C2B  995   7.128   9.134   6.940
   37POPC   C3B  996   7.170   9.132   6.493
   37POPC   C4B  997   7.386   9.000   6.142
   38POPC   NC3  998   0.561  11.033   8.089
   38POPC   PO4  999   1.121  10.974   8.454
   38POPC   GL1 1000   1.173  10.975   7.925
   38POPC   GL2 1001   0.935  11.203   7.757
   38POPC   C1A 1002   1.257  10.862   7.443
   38POPC   D2A 1003   1.233  11.041   6.997
   38POPC   C3A 1004   1.195  10.832   6.580
   38POPC   C4A 1005   0.952  10.869   6.205
   38POPC   C1B 1006   1.182  11.370   7.394
   38POPC   C2B 1007   1.441   0.019   7.058
   38POPC   C3B 1008   1.334   0.010   6.645
   38POPC   C4B 1009   1.308  11.258   6.302
   39POPC   NC3 1010   9.299   8.520   8.113
   39POPC   PO4 1011   9.224   7.846   8.063
   39POPC   GL1 1012   9.539   8.038   7.730
   39POPC   GL2 1013   9.718   8.365   7.737
   39POPC   C1A 1014   9.700   8.036   7.285
   39POPC   D2A 1015   9.857   7.763   6.913
   39POPC   C3A 1016   9.692   7.775   6.449
   39POPC   C4A 1017   9.682   7.794   5.985
   39POPC   C1B 1018   9.610   8.565   7.343
   39POPC   C2B 1019   9.539   8.401   6.928
   39POPC   C3B 1020   9.715   8.458   6.518
   39POPC   C4B 1021   9.592   8.254   6.135
   40POPC   NC3 1022   1.151   1.287   7.996
   40POPC   PO4 1023   1.719   0.862   8.110
   40POPC   GL1 1024   1.512   0.884   7.740
   40POPC   GL2 1025   1.585   1.215   7.665
   40POPC   C1A 1026   1.613   0.849   7.288
   40POPC   D2A 1027   1.756   0.813   6.839
   40POPC   C3A 1028   1.425   0.973   6.543
   40POPC   C4A 1029   1.028   0.955   6.293
   40POPC   C1B 1030   1.401   1.349   7.277
   40POPC   C2B 1031   1.321   1.380   6.829
   40POPC   C3B 1032   0.940   1.373   6.570
   40POPC   C4B 1033   0.803   1.404   6.143
   41POPC   NC3 1034   8.001   3.301   8.033
   41POPC   PO4 1035   8.296   3.803   7.960
   41POPC   GL1 1036   8.338   3.417   7.681
   41POPC   GL2 1037   8.002   3.475   7.538
   41POPC   C1A 1038   8.387   3.265   7.260
   41POPC   D2A 1039   8.454   3.546   6.905
   41POPC   C3A 1040   8.525   3.412   6.496
   41POPC   C4A 1041   8.316   3.360   6.116
   41POPC   C1B 1042   7.943   3.432   7.070
   41POPC   C2B 1043   8.041   3.287   6.633
   41POPC   C3B 1044   7.822   3.235   6.228
   41POPC   C4B 1045   7.481   3.377   5.950
   42POPC   NC3 1046  11.137   9.783   8.039
   42POPC   PO4 1047  10.848   9.211   7.862
   42POPC   GL1 1048  11.011   9.524   7.581
   42POPC   GL2 1049  11.359   9.629   7.604
   42POPC   C1A 1050  10.813   9.657   7.189
   42POPC   D2A 1051  10.671   9.430   6.809
   42POPC   C3A 1052  10.666   9.675   6.441
   42POPC   C4A 1053  10.858   9.770   6.037
   42POPC   C1B 1054  11.384   9.580   7.169
   42POPC   C2B 1055  11.153   9.619   6.812
   42POPC   C3B 1056  11.191   9.664   6.409
   42POPC   C4B 1057  11.326   9.556   6.018
   43POPC   NC3 1058  11.132   7.282   8.174
   43POPC   PO4 1059  11.147   7.821   7.906
   43POPC   GL1 1060  11.286   7.393   7.682
   43POPC   GL2 1061  11.015   7.169   7.577
   43POPC   C1A 1062  11.457   7.221   7.267
   43POPC   D2A 1063   0.091   6.936   6.920
   43POPC   C3A 1064   0.013   7.175   6.529
   43POPC   C4A 1065  11.359   7.529   6.265
   43POPC   C1B 1066  11.017   7.514   7.263
   43POPC   C2B 1067  11.024   7.772   6.890
   43POPC   C3B 1068  10.879   7.663   6.495
   43POPC   C4B 1069  10.951   7.250   6.359
   44POPC   NC3 1070   1.522   8.034   8.244
   44POPC   PO4 1071   0.821   8.055   8.230
   44POPC   GL1 1072   1.185   8.144   7.871
   44POPC   GL2 1073   1.125   8.496   7.729
   44POPC   C1A 1074   1.399   8.158   7.426
   44POPC   D2A 1075   1.509   8.333   6.978
   44POPC   C3A 1076   1.629   8.208   6.554
   44POPC   C4A 1077   1.373   8.100   6.188
   44POPC   C1B 1078   0.918   8.353   7.338
   44POPC   C2B 1079   1.048   8.105   7.031
   44POPC   C3B 1080   1.127   8.197   6.623
   44POPC   C4B 1081   0.894   8.295   6.251
   45POPC   NC3 1082   3.342   3.396   8.076
   45POPC   PO4 1083   2.702   3.231   8.065
   45POPC   GL1 1084   2.659   3.179   7.646
   45POPC   GL2 1085   2.456   3.469   7.611
   45POPC   C1A 1086   2.861   3.276   7.230
   45POPC   D2A 1087   2.756   3.363   6.780
   45POPC   C3A 1088   2.941   3.363   6.358
   45POPC   C4A 1089   2.970   3.814   6.166
   45POPC   C1B 1090   2.321   3.265   7.252
   45POPC   C2B 1091   2.119   3.495   6.948
   45POPC   C3B 1092   2.335   3.623   6.614
   45POPC   C4B 1093   2.413   3.280   6.373
   46POPC   NC3 1094  10.779   8.854   8.135
   46POPC   PO4 1095  11.314   9.370   8.204
   46POPC   GL1 1096  11.350   9.125   7.795
   46POPC   GL2 1097  11.198   8.786   7.839
   46POPC   C1A 1098  11.470   9.115   7.364
   46POPC   D2A 1099  11.234   9.117   6.959
   46POPC   C3A 1100  11.453   9.197   6.558
   46POPC   C4A 1101  11.246   9.057   6.186
   46POPC   C1B 1102  11.074   8.806   7.393
   46POPC   C2B 1103  11.318   8.606   7.033
   46POPC   C3B 1104  11.321   8.656   6.571
   46POPC   C4B 1105  10.967   8.591   6.273
   47POPC   NC3 1106   0.665   3.013   8.116
   47POPC   PO4 1107   0.207   2.494   8.116
   47POPC   GL1 1108   0.391   2.730   7.786
   47POPC   GL2 1109   0.526   2.455   7.651
   47POPC   C1A 1110   0.412   2.844   7.339
   47POPC   D2A 1111   0.500   2.980   6.935
   47POPC   C3A 1112   0.211   2.998   6.619
   47POPC   C4A 1113   0.404   2.952   6.221
   47POPC   C1B 1114   0.292   2.345   7.282
   47POPC   C2B 1115   0.333   2.487   6.884
   47POPC   C3B 1116   0.354   2.509   6.480
   47POPC   C4B 1117   0.680   2.437   6.214
   48POPC   NC3 1118   5.412   0.404   8.370
   48POPC   PO4 1119   5.955   0.223   7.943
   48POPC   GL1 1120   5.692   0.368   7.608
   48POPC   GL2 1121   5.761   0.626   7.623
   48POPC   C1A 1122   5.532   0.154   7.233
   48POPC   D2A 1123   5.597   0.380   6.859
   48POPC   C3A 1124   5.612   0.156   6.502
   48POPC   C4A 1125   5.397  11.413   6.211
   48POPC   C1B 1126   5.994   0.407   7.240
   48POPC   C2B 1127   6.201   0.616   6.974
   48POPC   C3B 1128   6.091   0.708   6.603
   48POPC   C4B 1129   5.887   0.495   6.234
   49POPC   NC3 1130  10.739   4.886   8.209
   49POPC   PO4 1131  10.748   5.520   8.127
   49POPC   GL1 1132  10.756   5.242   7.751
   49POPC   GL2 1133  10.489   5.012   7.745
   49POPC   C1A 1134  10.661   5.113   7.283
   49POPC   D2A 1135  10.536   5.057   6.845
   49POPC   C3A 1136  10.462   4.953   6.427
   49POPC   C4A 1137  10.672   5.095   6.122
   49POPC   C1B 1138  10.213   5.266   7.437
   49POPC   C2B 1139  10.198   5.399   6.987
   49POPC   C3B 1140  10.203   5.383   6.514
   49POPC   C4B 1141   9.890   5.169   6.206
   50POPC   NC3 1142   8.089  10.711   7.935
   50POPC   PO4 1143   8.519  10.264   7.971
   50POPC   GL1 1144   8.349  10.202   7.589
   50POPC   GL2 1145   8.119  10.500   7.476
   50POPC   C1A 1146   8.164  10.095   7.192
   50POPC   D2A 1147   8.045  10.253   6.805
   50POPC   C3A 1148   8.241  10.022   6.560
   50POPC   C4A 1149   8.459  10.108   6.216
   50POPC   C1B 1150   7.795  10.551   7.130
   50POPC   C2B 1151   7.551  10.728   6.833
   50POPC   C3B 1152   7.863  10.691   6.552
   50POPC   C4B 1153   7.941  10.340   6.288
   51POPC   NC3 1154   9.923   1.739   8.065
   51POPC   PO4 1155   9.289   1.576   8.290
   51POPC   GL1 1156   9.436   1.879   7.848
   51POPC   GL2 1157   9.755   2.115   7.743
   51POPC   C1A 1158   9.436   1.955   7.355
   51POPC   D2A 1159   9.699   1.879   6.944
   51POPC   C3A 1160   9.518   1.961   6.528
   51POPC   C4A 1161   9.333   1.800   6.134
   51POPC   C1B 1162   9.852   2.245   7.295
   51POPC   C2B 1163   9.527   2.372   6.968
   51POPC   C3B 1164   9.506   2.476   6.518
   51POPC   C4B 1165   9.840   2.271   6.247
   52POPC   NC3 1166  10.501   2.249   8.201
   52POPC   PO4 1167  10.794   1.712   8.336
   52POPC   GL1 1168  10.786   2.057   7.835
   52POPC   GL2 1169  10.411   2.071   7.585
   52POPC   C1A 1170  10.823   2.137   7.343
   52POPC   D2A 1171  10.585   1.905   7.001
   52POPC   C3A 1172  10.545   2.077   6.549
   52POPC   C4A 1173  10.559   2.074   6.086
   52POPC   C1B 1174  10.118   1.802   7.328
   52POPC   C2B 1175  10.116   1.534   6.970
   52POPC   C3B 1176  10.120   1.723   6.575
   52POPC   C4B 1177  10.102   1.848   6.151
   53POPC   NC3 1178   2.835   5.791   8.309
   53POPC   PO4 1179   3.239   6.184   8.183
   53POPC   GL1 1180   2.892   6.001   7.836
   53POPC   GL2 1181   2.594   5.705   7.748
   53POPC   C1A 1182   2.895   5.885   7.388
   53POPC   D2A 1183   2.937   6.026   6.972
   53POPC   C3A 1184   3.041   5.755   6.614
   53POPC   C4A 1185   3.103   5.876   6.173
   53POPC   C1B 1186   2.434   5.676   7.252
   53POPC   C2B 1187   2.562   5.598   6.767
   53POPC   C3B 1188   2.612   5.832   6.349
   53POPC   C4B 1189   2.456   6.198   6.217
   54POPC   NC3 1190   8.941   9.267   8.122
   54POPC   PO4 1191   8.951   9.956   8.245
   54POPC   GL1 1192   8.822   9.871   7.760
   54POPC   GL2 1193   8.780   9.502   7.698
   54POPC   C1A 1194   8.780   9.961   7.301
   54POPC   D2A 1195   8.974   9.838   6.870
   54POPC   C3A 1196   8.706   9.744   6.488
   54POPC   C4A 1197   8.660   9.629   6.022
   54POPC   C1B 1198   9.086   9.518   7.340
   54POPC   C2B 1199   9.164   9.313   6.946
   54POPC   C3B 1200   9.118   9.379   6.515
   54POPC   C4B 1201   9.120   9.685   6.191
   55POPC   NC3 1202   9.724   0.218   7.978
   55POPC   PO4 1203   9.190  11.381   8.045
   55POPC   GL1 1204   9.266   0.176   7.723
   55POPC   GL2 1205   9.409   0.524   7.663
   55POPC   C1A 1206   9.479   0.103   7.330
   55POPC   D2A 1207   9.426   0.339   6.951
   55POPC   C3A 1208   9.298   0.109   6.594
   55POPC   C4A 1209   9.323   0.295   6.193
   55POPC   C1B 1210   9.750   0.539   7.321
   55POPC   C2B 1211   9.840   0.650   6.859
   55POPC   C3B 1212   9.740   0.438   6.467
   55POPC   C4B 1213   9.767   0.491   6.014
   56POPC   NC3 1214   0.247   8.184   8.395
   56POPC   PO4 1215   0.180   8.100   7.765
   56POPC   GL1 1216   0.439   8.076   7.503
   56POPC   GL2 1217   0.719   8.061   7.691
   56POPC   C1A 1218   0.476   8.089   7.090
   56POPC   D2A 1219   0.651   8.268   6.766
   56POPC   C3A 1220   0.388   8.272   6.479
   56POPC   C4A 1221   0.347   8.068   6.126
   56POPC   C1B 1222   0.790   7.757   7.331
   56POPC   C2B 1223   0.769   7.701   6.860
   56POPC   C3B 1224   0.735   7.867   6.431
   56POPC   C4B 1225   0.743   7.861   5.921
   57POPC   NC3 1226   0.602   4.074   7.960
   57POPC   PO4 1227   0.423   3.417   8.135
   57POPC   GL1 1228   0.438   3.599   7.741
   57POPC   GL2 1229   0.588   3.272   7.649
   57POPC   C1A 1230   0.403   3.841   7.343
   57POPC   D2A 1231   0.629   3.923   6.940
   57POPC   C3A 1232   0.486   3.841   6.549
   57POPC   C4A 1233   0.647   3.713   6.129
   57POPC   C1B 1234   0.277   3.337   7.318
   57POPC   C2B 1235   0.387   3.473   6.917
   57POPC   C3B 1236   0.579   3.344   6.526
   57POPC   C4B 1237   0.215   3.452   6.241
   58POPC   NC3 1238   5.176  10.959   8.142
   58POPC   PO4 1239   4.970   0.056   7.991
   58POPC   GL1 1240   4.834  11.351   7.628
   58POPC   GL2 1241   4.954  11.054   7.684
   58POPC   C1A 1242   5.087  11.365   7.249
   58POPC   D2A 1243   5.275  11.387   6.834
   58POPC   C3A 1244   4.926  11.391   6.538
   58POPC   C4A 1245   4.903  11.482   6.115
   58POPC   C1B 1246   5.100  10.854   7.300
   58POPC   C2B 1247   5.271  10.825   6.884
   58POPC   C3B 1248   5.235  10.991   6.458
   58POPC   C4B 1249   5.207  10.969   5.981
   59POPC   NC3 1250   2.925   0.283   8.090
   59POPC   PO4 1251   2.462   0.813   7.947
   59POPC   GL1 1252   2.776   0.635   7.699
   59POPC   GL2 1253   2.574   0.341   7.690
   59POPC   C1A 1254   2.999   0.534   7.326
   59POPC   D2A 1255   2.910   0.302   6.957
   59POPC   C3A 1256   2.931   0.451   6.545
   59POPC   C4A 1257   2.871   0.250   6.162
   59POPC   C1B 1258   2.473   0.439   7.253
   59POPC   C2B 1259   2.291   0.699   6.906
   59POPC   C3B 1260   2.203   0.761   6.467
   59POPC   C4B 1261   2.497   0.724   6.063
   60POPC   NC3 1262   8.980   1.244   8.156
   60POPC   PO4 1263   8.333   1.358   8.090
   60POPC   GL1 1264   8.665   1.338   7.728
   60POPC   GL2 1265   8.883   1.069   7.663
   60POPC   C1A 1266   8.682   1.318   7.248
   60POPC   D2A 1267   8.885   1.270   6.819
   60POPC   C3A 1268   8.621   1.397   6.459
   60POPC   C4A 1269   8.670   1.355   5.978
   60POPC   C1B 1270   9.145   1.105   7.262
   60POPC   C2B 1271   9.224   0.835   6.940
   60POPC   C3B 1272   9.263   1.012   6.569
   60POPC   C4B 1273   9.084   1.296   6.266
   61POPC   NC3 1274   2.321  10.416   7.953
   61POPC   PO4 1275   1.717  10.692   8.141
   61POPC   GL1 1276   1.846  10.526   7.738
   61POPC   GL2 1277   1.859  10.145   7.749
   61POPC   C1A 1278   1.748  10.654   7.319
   61POPC   D2A 1279   1.694  10.857   6.933
   61POPC   C3A 1280   1.927  10.729   6.589
   61POPC   C4A 1281   1.816  10.667   6.195
   61POPC   C1B 1282   2.055  10.237   7.350
   61POPC   C2B 1283   1.991  10.379   6.943
   61POPC   C3B 1284   2.115  10.208   6.522
   61POPC   C4B 1285   2.016  10.238   6.068
   62POPC   NC3 1286   0.269   4.570   8.231
   62POPC   PO4 1287   0.089   4.048   7.981
   62POPC   GL1 1288   0.054   4.431   7.763
   62POPC   GL2 1289   0.397   4.504   7.740
   62POPC   C1A 1290   0.177   4.314   7.337
   62POPC   D2A 1291   0.148   4.092   6.967
   62POPC   C3A 1292   0.172   4.272   6.582
   62POPC   C4A 1293   0.215   4.049   6.194
   62POPC   C1B 1294   0.578   4.628   7.374
   62POPC   C2B 1295   0.695   4.505   6.962
   62POPC   C3B 1296   0.528   4.636   6.583
   62POPC   C4B 1297   0.534   4.443   6.192
   63POPC   NC3 1298   1.166   8.856   8.117
   63POPC   PO4 1299   1.557   9.486   8.113
   63POPC   GL1 1300   1.430   9.298   7.726
   63POPC   GL2 1301   1.095   9.151   7.706
   63POPC   C1A 1302   1.354   9.159   7.287
   63POPC   D2A 1303   1.095   9.196   6.941
   63POPC   C3A 1304   1.343   9.170   6.596
   63POPC   C4A 1305   1.208   9.074   6.203
   63POPC   C1B 1306   0.950   8.867   7.363
   63POPC   C2B 1307   1.137   8.677   6.969
   63POPC   C3B 1308   1.084   8.700   6.523
   63POPC   C4B 1309   0.781   8.774   6.170
   64POPC   NC3 1310   9.811  10.850   8.106
   64POPC   PO4 1311  10.143   0.036   8.144
   64POPC   GL1 1312   9.974  11.241   7.826
   64POPC   GL2 1313   9.607  11.243   7.711
   64POPC   C1A 1314   9.976  11.016   7.423
   64POPC   D2A 1315   9.965  11.220   6.992
   64POPC   C3A 1316   9.911  11.054   6.564
   64POPC   C4A 1317   9.845  10.749   6.237
   64POPC   C1B 1318   9.506  11.085   7.249
   64POPC   C2B 1319   9.315  11.093   6.820
   64POPC   C3B 1320   9.438  11.165   6.378
   64POPC   C4B 1321   9.246  11.336   5.985
   65POPC   NC3 1322   0.808   7.658   7.998
   65POPC   PO4 1323   1.458   7.647   7.994
   65POPC   GL1 1324   1.201   7.616   7.672
   65POPC   GL2 1325   1.142   7.272   7.797
   65POPC   C1A 1326   1.286   7.688   7.248
   65POPC   D2A 1327   1.454   7.833   6.897
   65POPC   C3A 1328   1.229   7.699   6.578
   65POPC   C4A 1329   1.117   7.639   6.195
   65POPC   C1B 1330   1.096   7.222   7.337
   65POPC   C2B 1331   0.937   7.108   6.902
   65POPC   C3B 1332   1.019   7.194   6.458
   65POPC   C4B 1333   1.462   7.273   6.328
   66POPC   NC3 1334   8.896   0.248   8.142
   66POPC   PO4 1335   9.178   0.823   8.097
   66POPC   GL1 1336   8.895   0.576   7.747
   66POPC   GL2 1337   8.702   0.243   7.677
   66POPC   C1A 1338   8.861   0.689   7.298
   66POPC   D2A 1339   8.662   0.825   6.895
   66POPC   C3A 1340   8.735   0.911   6.411
   66POPC   C4A 1341   8.628   0.828   5.945
   66POPC   C1B 1342   8.961   0.191   7.315
   66POPC   C2B 1343   8.885   0.331   6.918
   66POPC   C3B 1344   9.013   0.527   6.575
   66POPC   C4B 1345   8.814   0.444   6.210
   67POPC   NC3 1346   4.313   2.986   8.272
   67POPC   PO4 1347   3.695   3.123   8.113
   67POPC   GL1 1348   4.034   3.051   7.789
   67POPC   GL2 1349   4.352   2.827   7.724
   67POPC   C1A 1350   4.016   2.931   7.349
   67POPC   D2A 1351   4.145   2.766   6.945
   67POPC   C3A 1352   4.230   2.921   6.515
   67POPC   C4A 1353   4.401   3.078   6.121
   67POPC   C1B 1354   4.334   2.477   7.353
   67POPC   C2B 1355   4.147   2.269   6.951
   67POPC   C3B 1356   4.230   2.404   6.528
   67POPC   C4B 1357   4.566   2.574   6.267
   68POPC   NC3 1358   9.939   9.313   8.107
   68POPC   PO4 1359   9.720   8.714   8.099
   68POPC   GL1 1360   9.673   8.941   7.724
   68POPC   GL2 1361   9.320   9.044   7.830
   68POPC   C1A 1362   9.952   8.998   7.329
   68POPC   D2A 1363   9.938   8.743   6.933
   68POPC   C3A 1364   9.957   8.915   6.492
   68POPC   C4A 1365   9.998   9.175   6.064
   68POPC   C1B 1366   9.252   8.960   7.379
   68POPC   C2B 1367   9.439   8.893   6.961
   68POPC   C3B 1368   9.462   8.989   6.513
   68POPC   C4B 1369   9.326   8.690   6.223
   69POPC   NC3 1370  11.476   3.617   8.151
   69POPC   PO4 1371  10.743   3.545   7.952
   69POPC   GL1 1372  10.867   3.480   7.568
   69POPC   GL2 1373  11.165   3.317   7.706
   69POPC   C1A 1374  10.810   3.734   7.213
   69POPC   D2A 1375  10.828   3.618   6.780
   69POPC   C3A 1376  10.737   3.886   6.439
   69POPC   C4A 1377  10.971   3.741   6.053
   69POPC   C1B 1378  11.279   3.137   7.321
   69POPC   C2B 1379  11.329   3.259   6.875
   69POPC   C3B 1380  11.260   3.241   6.406
   69POPC   C4B 1381  11.006   2.975   6.130
   70POPC   NC3 1382   1.185   5.990   7.915
   70POPC   PO4 1383   0.871   5.436   8.109
   70POPC   GL1 1384   0.979   5.579   7.690
   70POPC   GL2 1385   1.325   5.530   7.711
   70POPC   C1A 1386   0.861   5.461   7.251
   70POPC   D2A 1387   0.664   5.497   6.855
   70POPC   C3A 1388   0.915   5.385   6.478
   70POPC   C4A 1389   1.058   5.451   6.044
   70POPC   C1B 1390   1.283   5.743   7.293
   70POPC   C2B 1391   1.208   5.585   6.869
   70POPC   C3B 1392   1.259   5.750   6.446
   70POPC   C4B 1393   1.335   5.910   6.047
   71POPC   NC3 1394   9.860   6.553   8.056
   71POPC   PO4 1395  10.512   6.360   7.959
   71POPC   GL1 1396  10.559   6.337   7.585
   71POPC   GL2 1397  10.804   6.510   7.551
   71POPC   C1A 1398  10.431   6.239   7.198
   71POPC   D2A 1399  10.567   6.328   6.783
   71POPC   C3A 1400  10.272   6.562   6.560
   71POPC   C4A 1401   9.986   6.541   6.244
   71POPC   C1B 1402  10.680   6.672   7.194
   71POPC   C2B 1403  10.643   6.828   6.825
   71POPC   C3B 1404  10.729   6.735   6.407
   71POPC   C4B 1405  10.430   6.763   6.083
   72POPC   NC3 1406   2.868   1.020   8.025
   72POPC   PO4 1407   3.064   1.602   8.072
   72POPC   GL1 1408   3.009   1.354   7.669
   72POPC   GL2 1409   2.684   1.177   7.602
   72POPC   C1A 1410   2.873   1.433   7.226
   72POPC   D2A 1411   2.739   1.625   6.879
   72POPC   C3A 1412   2.778   1.436   6.522
   72POPC   C4A 1413   2.633   1.640   6.169
   72POPC   C1B 1414   2.621   0.943   7.255
   72POPC   C2B 1415   2.830   0.825   6.888
   72POPC   C3B 1416   2.686   0.916   6.494
   72POPC   C4B 1417   2.402   1.196   6.302
   73POPC   NC3 1418   9.626   7.617   8.047
   73POPC   PO4 1419   9.736   6.991   7.985
   73POPC   GL1 1420   9.646   7.316   7.628
   73POPC   GL2 1421   9.838   7.633   7.574
   73POPC   C1A 1422   9.499   7.482   7.198
   73POPC   D2A 1423   9.497   7.400   6.721
   73POPC   C3A 1424   9.324   7.086   6.383
   73POPC   C4A 1425   9.332   6.841   5.964
   73POPC   C1B 1426   9.990   7.344   7.228
   73POPC   C2B 1427  10.028   7.310   6.761
   73POPC   C3B 1428   9.831   7.224   6.361
   73POPC   C4B 1429   9.854   6.981   5.983
   74POPC   NC3 1430  10.524   3.917   8.088
   74POPC   PO4 1431  10.639   4.550   7.907
   74POPC   GL1 1432  10.714   4.385   7.551
   74POPC   GL2 1433  10.493   4.117   7.582
   74POPC   C1A 1434  10.739   4.272   7.137
   74POPC   D2A 1435  10.727   4.585   6.851
   74POPC   C3A 1436  10.643   4.485   6.449
   74POPC   C4A 1437  10.638   4.610   6.020
   74POPC   C1B 1438  10.343   3.919   7.237
   74POPC   C2B 1439  10.447   3.958   6.855
   74POPC   C3B 1440  10.250   4.163   6.572
   74POPC   C4B 1441  10.337   4.171   6.189
   75POPC   NC3 1442   4.904  10.354   8.160
   75POPC   PO4 1443   5.478  10.014   7.961
   75POPC   GL1 1444   5.307  10.294   7.656
   75POPC   GL2 1445   5.080  10.565   7.734
   75POPC   C1A 1446   5.187  10.271   7.203
   75POPC   D2A 1447   5.017  10.212   6.773
   75POPC   C3A 1448   4.985   9.954   6.369
   75POPC   C4A 1449   4.981   9.996   5.883
   75POPC   C1B 1450   4.750  10.491   7.400
   75POPC   C2B 1451   4.648  10.621   6.954
   75POPC   C3B 1452   4.873  10.654   6.575
   75POPC   C4B 1453   4.988  10.445   6.186
   76POPC   NC3 1454   7.657   8.258   8.008
   76POPC   PO4 1455   7.073   8.400   7.876
   76POPC   GL1 1456   7.267   8.550   7.526
   76POPC   GL2 1457   7.503   8.325   7.530
   76POPC   C1A 1458   7.253   8.560   7.074
   76POPC   D2A 1459   7.198   8.241   6.758
   76POPC   C3A 1460   7.077   8.341   6.359
   76POPC   C4A 1461   7.064   8.616   6.016
   76POPC   C1B 1462   7.353   8.056   7.220
   76POPC   C2B 1463   7.536   7.873   6.841
   76POPC   C3B 1464   7.410   7.914   6.386
   76POPC   C4B 1465   7.514   7.795   5.937
   77POPC   NC3 1466   2.420  11.240   8.511
   77POPC   PO4 1467   3.046  11.391   8.318
   77POPC   GL1 1468   2.765  11.390   7.836
   77POPC   GL2 1469   2.533  11.119   7.809
   77POPC   C1A 1470   2.789   0.003   7.369
   77POPC   D2A 1471   2.898  11.303   6.955
   77POPC   C3A 1472   2.711  11.470   6.559
   77POPC   C4A 1473   2.450  11.434   6.187
   77POPC   C1B 1474   2.711  10.999   7.388
   77POPC   C2B 1475   2.687  10.856   6.967
   77POPC   C3B 1476   2.788  10.970   6.545
   77POPC   C4B 1477   2.621  10.932   6.126
   78POPC   NC3 1478   7.806   0.629   8.018
   78POPC   PO4 1479   8.490   0.490   8.113
   78POPC   GL1 1480   8.278   0.551   7.740
   78POPC   GL2 1481   8.121   0.272   7.774
   78POPC   C1A 1482   8.394   0.495   7.329
   78POPC   D2A 1483   8.209   0.582   6.952
   78POPC   C3A 1484   8.443   0.481   6.584
   78POPC   C4A 1485   8.225   0.583   6.222
   78POPC   C1B 1486   7.884   0.392   7.401
   78POPC   C2B 1487   7.865   0.201   7.013
   78POPC   C3B 1488   7.846   0.423   6.608
   78POPC   C4B 1489   7.724   0.159   6.290
   79POPC   NC3 1490   2.030   0.509   8.005
   79POPC   PO4 1491   2.446   0.068   8.198
   79POPC   GL1 1492   2.174   0.023   7.807
   79POPC   GL2 1493   1.922   0.228   7.590
   79POPC   C1A 1494   2.259  11.426   7.372
   79POPC   D2A 1495   2.424   0.001   6.972
   79POPC   C3A 1496   2.178   0.097   6.594
   79POPC   C4A 1497   2.154   0.343   6.208
   79POPC   C1B 1498   1.902   0.363   7.146
   79POPC   C2B 1499   1.740   0.315   6.723
   79POPC   C3B 1500   1.705   0.566   6.349
   79POPC   C4B 1501   1.693   0.408   5.936
   80POPC   NC3 1502  10.814   3.258   8.303
   80POPC   PO4 1503  10.140   3.320   8.248
   80POPC   GL1 1504  10.329   3.325   7.760
   80POPC   GL2 1505  10.359   3.634   7.645
   80POPC   C1A 1506  10.630   3.051   7.481
   80POPC   D2A 1507  10.828   3.224   7.106
   80POPC   C3A 1508  10.817   3.100   6.658
   80POPC   C4A 1509  10.738   3.386   6.326
   80POPC   C1B 1510  10.348   3.412   7.247
   80POPC   C2B 1511  10.229   3.499   6.826
   80POPC   C3B 1512  10.278   3.659   6.400
   80POPC   C4B 1513  10.482   3.725   6.002
   81POPC   NC3 1514  10.851   6.679   8.050
   81POPC   PO4 1515  10.680   7.318   8.193
   81POPC   GL1 1516  10.527   7.195   7.760
   81POPC   GL2 1517  10.158   7.271   7.765
   81POPC   C1A 1518  10.586   7.188   7.277
   81POPC   D2A 1519  10.726   7.327   6.855
   81POPC   C3A 1520  10.461   7.176   6.507
   81POPC   C4A 1521  10.515   7.300   6.115
   81POPC   C1B 1522  10.341   7.604   7.489
   81POPC   C2B 1523  10.365   7.628   7.025
   81POPC   C3B 1524  10.367   7.672   6.576
   81POPC   C4B 1525  10.114   7.604   6.192
   82POPC   NC3 1526   0.549   9.915   7.931
   82POPC   PO4 1527   0.797   9.233   8.111
   82POPC   GL1 1528   0.684   9.446   7.740
   82POPC   GL2 1529   0.319   9.449   7.750
   82POPC   C1A 1530   0.849   9.456   7.306
   82POPC   D2A 1531   0.663   9.722   6.935
   82POPC   C3A 1532   0.518   9.558   6.528
   82POPC   C4A 1533   0.813   9.459   6.192
   82POPC   C1B 1534   0.366   9.646   7.357
   82POPC   C2B 1535   0.230   9.971   7.083
   82POPC   C3B 1536   0.062   9.906   6.689
   82POPC   C4B 1537   0.181   9.863   6.262
   83POPC   NC3 1538   3.322   1.969   7.975
   83POPC   PO4 1539   3.912   1.639   8.242
   83POPC   GL1 1540   3.638   1.603   7.750
   83POPC   GL2 1541   3.522   1.952   7.515
   83POPC   C1A 1542   3.351   1.529   7.364
   83POPC   D2A 1543   3.487   1.627   6.984
   83POPC   C3A 1544   3.380   1.553   6.590
   83POPC   C4A 1545   3.515   1.822   6.266
   83POPC   C1B 1546   3.451   2.207   7.142
   83POPC   C2B 1547   3.278   2.459   6.817
   83POPC   C3B 1548   3.394   2.321   6.411
   83POPC   C4B 1549   3.806   2.309   6.240
   84POPC   NC3 1550   6.650  10.711   7.983
   84POPC   PO4 1551   7.072  10.262   8.197
   84POPC   GL1 1552   6.873  10.292   7.762
   84POPC   GL2 1553   6.481  10.289   7.724
   84POPC   C1A 1554   6.806  10.508   7.351
   84POPC   D2A 1555   6.523  10.566   6.989
   84POPC   C3A 1556   6.599  10.482   6.541
   84POPC   C4A 1557   6.674  10.820   6.321
   84POPC   C1B 1558   6.488  10.124   7.284
   84POPC   C2B 1559   6.617  10.065   6.836
   84POPC   C3B 1560   6.471   9.987   6.392
   84POPC   C4B 1561   6.500   9.969   5.913
   85POPC   NC3 1562   9.709   2.638   7.953
   85POPC   PO4 1563   9.107   2.422   7.913
   85POPC   GL1 1564   9.279   2.762   7.642
   85POPC   GL2 1565   9.457   2.485   7.512
   85POPC   C1A 1566   9.352   3.071   7.260
   85POPC   D2A 1567   9.466   2.887   6.852
   85POPC   C3A 1568   9.490   3.006   6.425
   85POPC   C4A 1569   9.498   2.777   6.058
   85POPC   C1B 1570   9.721   2.738   7.258
   85POPC   C2B 1571   9.962   2.652   6.890
   85POPC   C3B 1572   9.965   2.715   6.456
   85POPC   C4B 1573   9.961   2.991   6.128
   86POPC   NC3 1574   0.212   9.153   8.149
   86POPC   PO4 1575  11.500   8.565   8.265
   86POPC   GL1 1576   0.200   8.641   7.807
   86POPC   GL2 1577   0.503   8.900   7.793
   86POPC   C1A 1578   0.438   8.582   7.376
   86POPC   D2A 1579   0.630   8.725   6.973
   86POPC   C3A 1580   0.352   8.775   6.597
   86POPC   C4A 1581   0.280   8.642   6.155
   86POPC   C1B 1582   0.482   9.106   7.387
   86POPC   C2B 1583   0.555   9.223   6.954
   86POPC   C3B 1584   0.745   9.106   6.559
   86POPC   C4B 1585   0.414   9.135   6.209
   87POPC   NC3 1586   6.247   2.413   8.147
   87POPC   PO4 1587   6.835   2.398   8.010
   87POPC   GL1 1588   6.761   2.255   7.612
   87POPC   GL2 1589   6.466   2.445   7.572
   87POPC   C1A 1590   6.732   2.267   7.152
   87POPC   D2A 1591   6.662   2.473   6.752
   87POPC   C3A 1592   6.575   2.336   6.340
   87POPC   C4A 1593   6.784   2.618   6.030
   87POPC   C1B 1594   6.443   2.702   7.165
   87POPC   C2B 1595   6.466   2.946   6.756
   87POPC   C3B 1596   6.393   2.809   6.328
   87POPC   C4B 1597   6.143   2.937   5.968
   88POPC   NC3 1598   5.853  10.282   7.854
   88POPC   PO4 1599   5.360  10.543   8.273
   88POPC   GL1 1600   5.561  10.718   7.829
   88POPC   GL2 1601   5.857  10.874   7.634
   88POPC   C1A 1602   5.556  10.619   7.329
   88POPC   D2A 1603   5.601  10.398   6.902
   88POPC   C3A 1604   5.376  10.491   6.495
   88POPC   C4A 1605   5.450  10.519   6.011
   88POPC   C1B 1606   6.104  10.583   7.318
   88POPC   C2B 1607   6.102  10.291   6.984
   88POPC   C3B 1608   6.096  10.389   6.588
   88POPC   C4B 1609   5.803  10.316   6.299
   89POPC   NC3 1610   1.134   1.923   7.998
   89POPC   PO4 1611   1.584   2.331   8.336
   89POPC   GL1 1612   1.596   2.081   7.855
   89POPC   GL2 1613   1.287   2.182   7.588
   89POPC   C1A 1614   1.669   1.997   7.381
   89POPC   D2A 1615   1.370   2.185   7.074
   89POPC   C3A 1616   1.480   2.209   6.641
   89POPC   C4A 1617   1.150   2.311   6.352
   89POPC   C1B 1618   1.153   1.804   7.349
   89POPC   C2B 1619   0.988   1.763   6.930
   89POPC   C3B 1620   1.188   1.816   6.547
   89POPC   C4B 1621   1.276   1.571   6.215
   90POPC   NC3 1622   6.106   0.730   8.008
   90POPC   PO4 1623   6.857   0.653   7.974
   90POPC   GL1 1624   6.761   0.542   7.571
   90POPC   GL2 1625   6.894   0.245   7.458
   90POPC   C1A 1626   6.691   0.639   7.137
   90POPC   D2A 1627   6.622   0.432   6.772
   90POPC   C3A 1628   6.854   0.599   6.459
   90POPC   C4A 1629   6.725   0.783   6.051
   90POPC   C1B 1630   6.481   0.185   7.258
   90POPC   C2B 1631   6.377  11.474   6.878
   90POPC   C3B 1632   6.199   0.195   6.545
   90POPC   C4B 1633   6.402   0.469   6.280
   91POPC   NC3 1634   4.230   2.060   8.307
   91POPC   PO4 1635   3.778   2.042   7.925
   91POPC   GL1 1636   4.027   2.012   7.583
   91POPC   GL2 1637   4.134   1.691   7.557
   91POPC   C1A 1638   3.871   1.911   7.162
   91POPC   D2A 1639   3.733   2.003   6.721
   91POPC   C3A 1640   4.074   1.928   6.419
   91POPC   C4A 1641   4.284   2.168   6.065
   91POPC   C1B 1642   4.375   1.859   7.206
   91POPC   C2B 1643   4.430   1.786   6.769
   91POPC   C3B 1644   4.577   1.833   6.337
   91POPC   C4B 1645   4.545   1.759   5.884
   92POPC   NC3 1646   7.541  11.173   7.890
   92POPC   PO4 1647   6.822  11.174   7.964
   92POPC   GL1 1648   6.960  10.948   7.582
   92POPC   GL2 1649   7.261  11.153   7.476
   92POPC   C1A 1650   7.068  10.873   7.112
   92POPC   D2A 1651   7.236  11.122   6.793
   92POPC   C3A 1652   7.046  11.144   6.418
   92POPC   C4A 1653   7.064  10.865   6.013
   92POPC   C1B 1654   7.598  11.159   7.158
   92POPC   C2B 1655   7.794  11.197   6.766
   92POPC   C3B 1656   7.600  11.131   6.375
   92POPC   C4B 1657   7.341  11.328   6.057
   93POPC   NC3 1658   0.468  10.485   8.148
   93POPC   PO4 1659   0.096   9.928   7.954
   93POPC   GL1 1660   0.131  10.122   7.569
   93POPC   GL2 1661   0.436  10.319   7.616
   93POPC   C1A 1662   0.037  10.429   7.231
   93POPC   D2A 1663   0.206  10.600   6.825
   93POPC   C3A 1664   0.251  10.333   6.487
   93POPC   C4A 1665   0.630  10.055   6.505
   93POPC   C1B 1666   0.552  10.560   7.243
   93POPC   C2B 1667   0.811  10.726   6.928
   93POPC   C3B 1668   0.698  10.597   6.560
   93POPC   C4B 1669   0.515  10.629   6.169
   94POPC   NC3 1670   4.554   0.559   8.103
   94POPC   PO4 1671   4.035   0.159   7.893
   94POPC   GL1 1672   4.283   0.357   7.572
   94POPC   GL2 1673   4.614   0.312   7.669
   94POPC   C1A 1674   4.171   0.448   7.114
   94POPC   D2A 1675   3.858   0.316   6.743
   94POPC   C3A 1676   4.011   0.443   6.301
   94POPC   C4A 1677   4.376   0.703   6.159
   94POPC   C1B 1678   4.656   0.184   7.244
   94POPC   C2B 1679   4.611   0.230   6.798
   94POPC   C3B 1680   4.500   0.197   6.376
   94POPC   C4B 1681   4.422  11.336   6.103
   95POPC   NC3 1682   7.109   2.033   7.946
   95POPC   PO4 1683   7.764   2.093   8.124
   95POPC   GL1 1684   7.564   2.143   7.672
   95POPC   GL2 1685   7.414   1.818   7.542
   95POPC   C1A 1686   7.588   2.146   7.183
   95POPC   D2A 1687   7.422   1.963   6.784
   95POPC   C3A 1688   7.503   2.134   6.376
   95POPC   C4A 1689   7.442   2.001   5.956
   95POPC   C1B 1690   7.106   1.920   7.184
   95POPC   C2B 1691   6.913   2.004   6.726
   95POPC   C3B 1692   6.993   2.044   6.258
   95POPC   C4B 1693   6.744   2.127   5.895
   96POPC   NC3 1694  11.126   4.275   8.043
   96POPC   PO4 1695  11.062   3.654   8.357
   96POPC   GL1 1696  11.157   3.811   7.841
   96POPC   GL2 1697  10.955   3.966   7.674
   96POPC   C1A 1698  11.314   3.780   7.357
   96POPC   D2A 1699  11.154   3.998   6.927
   96POPC   C3A 1700  11.246   3.966   6.447
   96POPC   C4A 1701  10.951   4.224   6.147
   96POPC   C1B 1702  11.181   4.276   7.392
   96POPC   C2B 1703  11.216   4.506   6.993
   96POPC   C3B 1704  11.149   4.444   6.566
   96POPC   C4B 1705  11.407   4.445   6.184
   97POPC   NC3 1706   8.020   1.698   8.085
   97POPC   PO4 1707   8.529   2.180   8.048
   97POPC   GL1 1708   8.531   1.842   7.746
   97POPC   GL2 1709   8.255   1.622   7.661
   97POPC   C1A 1710   8.522   1.811   7.296
   97POPC   D2A 1711   8.272   1.941   6.947
   97POPC   C3A 1712   8.421   1.880   6.511
   97POPC   C4A 1713   8.265   1.637   6.184
   97POPC   C1B 1714   7.950   1.829   7.409
   97POPC   C2B 1715   7.799   1.688   7.014
   97POPC   C3B 1716   7.891   1.835   6.606
   97POPC   C4B 1717   8.028   2.095   6.263
   98POPC   NC3 1718  11.036   5.840   8.288
   98POPC   PO4 1719   0.099   5.976   7.864
   98POPC   GL1 1720  11.309   5.835   7.587
   98POPC   GL2 1721  11.134   5.614   7.772
   98POPC   C1A 1722  11.345   5.796   7.150
   98POPC   D2A 1723  11.210   5.563   6.781
   98POPC   C3A 1724  11.207   5.754   6.376
   98POPC   C4A 1725  11.007   5.992   6.036
   98POPC   C1B 1726  10.945   5.528   7.365
   98POPC   C2B 1727  10.744   5.513   6.965
   98POPC   C3B 1728  10.775   5.403   6.538
   98POPC   C4B 1729  10.769   5.576   6.149
   99POPC   NC3 1730   1.475   6.498   8.256
   99POPC   PO4 1731   0.882   6.356   7.986
   99POPC   GL1 1732   1.164   6.433   7.676
   99POPC   GL2 1733   1.250   6.766   7.736
   99POPC   C1A 1734   1.159   6.258   7.260
   99POPC   D2A 1735   1.315   6.102   6.843
   99POPC   C3A 1736   1.178   6.267   6.432
   99POPC   C4A 1737   1.477   6.395   6.116
   99POPC   C1B 1738   0.981   6.734   7.317
   99POPC   C2B 1739   1.150   6.622   6.890
   99POPC   C3B 1740   1.298   6.768   6.470
   99POPC   C4B 1741   1.077   6.710   6.094
  100POPC   NC3 1742   1.373   4.403   8.016
  100POPC   PO4 1743   0.719   4.603   8.108
  100POPC   GL1 1744   0.932   4.420   7.685
  100POPC   GL2 1745   1.274   4.161   7.581
  100POPC   C1A 1746   0.853   4.161   7.322
  100POPC   D2A 1747   1.104   4.066   6.940
  100POPC   C3A 1748   0.863   4.211   6.564
  100POPC   C4A 1749   0.997   4.140   6.146
  100POPC   C1B 1750   1.301   4.447   7.259
  100POPC   C2B 1751   1.223   4.544   6.835
  100POPC   C3B 1752   1.339   4.353   6.458
  100POPC   C4B 1753   1.398   4.540   6.082
  101POPC   NC3 1754   7.170   9.830   8.112
  101POPC   PO4 1755   7.310   9.278   7.943
  101POPC   GL1 1756   7.550   9.428   7.626
  101POPC   GL2 1757   7.480   9.755   7.685
  101POPC   C1A 1758   7.450   9.510   7.162
  101POPC   D2A 1759   7.532   9.420   6.737
  101POPC   C3A 1760   7.281   9.652   6.429
  101POPC   C4A 1761   7.125   9.450   6.074
  101POPC   C1B 1762   7.214   9.931   7.336
  101POPC   C2B 1763   7.143   9.942   6.856
  101POPC   C3B 1764   6.998  10.107   6.423
  101POPC   C4B 1765   7.022   9.952   5.971
  102POPC   NC3 1766   2.117   8.573   7.991
  102POPC   PO4 1767   1.481   8.505   8.148
  102POPC   GL1 1768   1.648   8.504   7.747
  102POPC   GL2 1769   1.713   8.862   7.778
  102POPC   C1A 1770   1.494   8.672   7.346
  102POPC   D2A 1771   1.659   8.890   6.941
  102POPC   C3A 1772   1.641   8.727   6.487
  102POPC   C4A 1773   1.763   8.454   6.108
  102POPC   C1B 1774   1.979   8.812   7.416
  102POPC   C2B 1775   2.177   8.851   7.056
  102POPC   C3B 1776   2.132   8.885   6.645
  102POPC   C4B 1777   2.107   8.848   6.227
  103POPC   NC3 1778   2.954   6.505   8.078
  103POPC   PO4 1779   2.432   5.999   8.135
  103POPC   GL1 1780   2.436   6.180   7.678
  103POPC   GL2 1781   2.627   6.460   7.665
  103POPC   C1A 1782   2.502   6.175   7.220
  103POPC   D2A 1783   2.473   6.090   6.769
  103POPC   C3A 1784   2.870   6.233   6.516
  103POPC   C4A 1785   2.938   6.381   6.091
  103POPC   C1B 1786   2.560   6.677   7.257
  103POPC   C2B 1787   2.620   6.555   6.836
  103POPC   C3B 1788   2.614   6.646   6.403
  103POPC   C4B 1789   2.839   6.902   6.110
  104POPC   NC3 1790   7.696   1.402   8.454
  104POPC   PO4 1791   7.167   1.558   7.963
  104POPC   GL1 1792   7.296   1.306   7.595
  104POPC   GL2 1793   7.467   0.988   7.722
  104POPC   C1A 1794   7.342   1.453   7.137
  104POPC   D2A 1795   7.468   1.461   6.670
  104POPC   C3A 1796   7.256   1.602   6.251
  104POPC   C4A 1797   7.431   1.496   5.800
  104POPC   C1B 1798   7.552   0.989   7.276
  104POPC   C2B 1799   7.249   0.985   6.934
  104POPC   C3B 1800   7.105   1.087   6.522
  104POPC   C4B 1801   7.482   1.148   6.256
  105POPC   NC3 1802   3.714  10.279   8.031
  105POPC   PO4 1803   3.256   9.843   8.161
  105POPC   GL1 1804   3.265  10.102   7.787
  105POPC   GL2 1805   3.249  10.486   7.807
  105POPC   C1A 1806   3.213  10.045   7.346
  105POPC   D2A 1807   3.350  10.252   6.964
  105POPC   C3A 1808   3.215  10.102   6.557
  105POPC   C4A 1809   3.510  10.154   6.259
  105POPC   C1B 1810   3.505  10.497   7.411
  105POPC   C2B 1811   3.771  10.526   7.032
  105POPC   C3B 1812   3.606  10.610   6.598
  105POPC   C4B 1813   3.838  10.564   6.204
  106POPC   NC3 1814   0.575   6.783   7.925
  106POPC   PO4 1815   0.204   6.434   8.289
  106POPC   GL1 1816   0.190   6.493   7.815
  106POPC   GL2 1817   0.463   6.329   7.644
  106POPC   C1A 1818   0.162   6.605   7.332
  106POPC   D2A 1819   0.165   6.408   6.902
  106POPC   C3A 1820   0.235   6.650   6.508
  106POPC   C4A 1821   0.248   6.593   6.063
  106POPC   C1B 1822   0.610   6.385   7.217
  106POPC   C2B 1823   0.603   6.712   6.907
  106POPC   C3B 1824   0.790   6.674   6.523
  106POPC   C4B 1825   0.686   6.370   6.234
  107POPC   NC3 1826   5.843  10.561   8.310
  107POPC   PO4 1827   5.601  11.224   8.102
  107POPC   GL1 1828   5.439  11.201   7.666
  107POPC   GL2 1829   5.719  11.369   7.599
  107POPC   C1A 1830   5.551  11.122   7.210
  107POPC   D2A 1831   5.897  10.929   7.003
  107POPC   C3A 1832   5.766  10.788   6.614
  107POPC   C4A 1833   5.666  10.931   6.215
  107POPC   C1B 1834   6.019  11.383   7.292
  107POPC   C2B 1835   5.872  11.444   6.908
  107POPC   C3B 1836   5.948  11.252   6.559
  107POPC   C4B 1837   5.926  11.405   6.193
  108POPC   NC3 1838   9.945   3.609   7.955
  108POPC   PO4 1839   9.901   3.022   7.817
  108POPC   GL1 1840   9.890   3.286   7.487
  108POPC   GL2 1841   9.893   3.641   7.431
  108POPC   C1A 1842   9.846   3.224   7.081
  108POPC   D2A 1843   9.888   3.134   6.711
  108POPC   C3A 1844   9.820   3.424   6.392
  108POPC   C4A 1845   9.639   3.383   5.991
  108POPC   C1B 1846   9.499   3.571   7.178
  108POPC   C2B 1847   9.425   3.398   6.754
  108POPC   C3B 1848   9.302   3.587   6.338
  108POPC   C4B 1849   9.472   3.859   5.992
  109POPC   NC3 1850   2.049   4.595   8.066
  109POPC   PO4 1851   2.053   3.987   8.143
  109POPC   GL1 1852   1.800   4.150   7.790
  109POPC   GL2 1853   2.122   4.180   7.646
  109POPC   C1A 1854   1.728   4.152   7.311
  109POPC   D2A 1855   1.613   4.187   6.855
  109POPC   C3A 1856   1.838   4.415   6.491
  109POPC   C4A 1857   1.902   4.750   6.154
  109POPC   C1B 1858   2.184   3.897   7.282
  109POPC   C2B 1859   2.110   4.015   6.855
  109POPC   C3B 1860   2.273   4.122   6.426
  109POPC   C4B 1861   2.004   4.161   6.063
  110POPC   NC3 1862  10.125   8.418   8.079
  110POPC   PO4 1863  10.353   9.095   8.184
  110POPC   GL1 1864  10.183   8.849   7.805
  110POPC   GL2 1865  10.473   8.641   7.759
  110POPC   C1A 1866  10.127   8.533   7.411
  110POPC   D2A 1867  10.410   8.522   7.036
  110POPC   C3A 1868  10.300   8.560   6.600
  110POPC   C4A 1869  10.341   8.764   6.188
  110POPC   C1B 1870  10.538   8.855   7.399
  110POPC   C2B 1871  10.734   8.950   7.022
  110POPC   C3B 1872  10.679   8.920   6.589
  110POPC   C4B 1873  10.745   9.100   6.207
  111POPC   NC3 1874   0.502   0.536   8.120
  111POPC   PO4 1875   0.302  11.411   8.083
  111POPC   GL1 1876   0.543   0.096   7.720
  111POPC   GL2 1877   0.512   0.460   7.595
  111POPC   C1A 1878   0.494   0.037   7.263
  111POPC   D2A 1879   0.376   0.259   6.869
  111POPC   C3A 1880   0.374   0.049   6.432
  111POPC   C4A 1881   0.467   0.134   5.959
  111POPC   C1B 1882   0.338   0.761   7.256
  111POPC   C2B 1883   0.364   0.800   6.798
  111POPC   C3B 1884   0.545   0.571   6.478
  111POPC   C4B 1885   0.833   0.495   6.175
  112POPC   NC3 1886  10.617   9.560   8.039
  112POPC   PO4 1887   9.932   9.762   8.218
  112POPC   GL1 1888  10.183   9.721   7.844
  112POPC   GL2 1889  10.305   9.353   7.713
  112POPC   C1A 1890  10.212   9.775   7.417
  112POPC   D2A 1891  10.014   9.629   7.067
  112POPC   C3A 1892  10.203   9.661   6.687
  112POPC   C4A 1893  10.046   9.721   6.237
  112POPC   C1B 1894  10.386   9.317   7.257
  112POPC   C2B 1895  10.263   9.133   6.860
  112POPC   C3B 1896  10.326   9.258   6.428
  112POPC   C4B 1897  10.428   9.475   6.031
  113POPC   NC3 1898   9.567  10.000   8.386
  113POPC   PO4 1899   9.257   9.590   7.977
  113POPC   GL1 1900   9.641   9.664   7.782
  113POPC   GL2 1901   9.813   9.427   7.622
  113POPC   C1A 1902   9.644   9.836   7.354
  113POPC   D2A 1903   9.515   9.709   6.932
  113POPC   C3A 1904   9.731   9.898   6.606
  113POPC   C4A 1905   9.479  10.018   6.271
  113POPC   C1B 1906   9.582   9.332   7.276
  113POPC   C2B 1907   9.765   9.240   6.891
  113POPC   C3B 1908   9.807   9.388   6.537
  113POPC   C4B 1909   9.581   9.492   6.218
  114POPC   NC3 1910  10.217  10.302   8.133
  114POPC   PO4 1911  10.863  10.123   8.272
  114POPC   GL1 1912  10.651  10.396   7.804
  114POPC   GL2 1913  10.359  10.230   7.657
  114POPC   C1A 1914  10.699  10.274   7.287
  114POPC   D2A 1915  10.509  10.422   6.929
  114POPC   C3A 1916  10.701  10.506   6.548
  114POPC   C4A 1917  10.762  10.168   6.323
  114POPC   C1B 1918  10.293  10.590   7.375
  114POPC   C2B 1919  10.068  10.694   6.986
  114POPC   C3B 1920  10.201  10.618   6.558
  114POPC   C4B 1921  10.383  10.452   6.138
  115POPC   NC3 1922  10.634   7.807   8.072
  115POPC   PO4 1923   9.950   7.966   8.042
  115POPC   GL1 1924  10.125   8.062   7.660
  115POPC   GL2 1925  10.463   8.101   7.666
  115POPC   C1A 1926  10.205   8.058   7.229
  115POPC   D2A 1927  10.018   8.240   6.905
  115POPC   C3A 1928  10.076   8.082   6.526
  115POPC   C4A 1929  10.125   8.291   6.172
  115POPC   C1B 1930  10.698   7.925   7.306
  115POPC   C2B 1931  10.596   8.061   6.873
  115POPC   C3B 1932  10.569   8.156   6.451
  115POPC   C4B 1933  10.523   7.884   6.117
  116POPC   NC3 1934   0.111   7.689   7.949
  116POPC   PO4 1935   0.639   7.237   7.882
  116POPC   GL1 1936   0.315   7.351   7.634
  116POPC   GL2 1937   0.174   7.010   7.666
  116POPC   C1A 1938   0.264   7.626   7.257
  116POPC   D2A 1939   0.034   7.583   6.847
  116POPC   C3A 1940   0.322   7.586   6.471
  116POPC   C4A 1941   0.649   7.435   6.168
  116POPC   C1B 1942   0.458   7.035   7.277
  116POPC   C2B 1943   0.458   7.279   6.899
  116POPC   C3B 1944   0.509   7.093   6.510
  116POPC   C4B 1945   0.652   6.944   6.100
  117POPC   NC3 1946   8.501   9.823   8.140
  117POPC   PO4 1947   7.848   9.642   8.313
  117POPC   GL1 1948   8.083   9.610   7.886
  117POPC   GL2 1949   7.977   9.897   7.754
  117POPC   C1A 1950   8.361   9.671   7.460
  117POPC   D2A 1951   8.459   9.710   6.964
  117POPC   C3A 1952   8.255   9.519   6.554
  117POPC   C4A 1953   8.151   9.710   6.178
  117POPC   C1B 1954   7.876   9.701   7.352
  117POPC   C2B 1955   7.944   9.712   6.911
  117POPC   C3B 1956   7.774   9.807   6.503
  117POPC   C4B 1957   7.710   9.429   6.229
  118POPC   NC3 1958   3.590   0.382   7.927
  118POPC   PO4 1959   3.799   1.031   7.969
  118POPC   GL1 1960   3.811   0.702   7.611
  118POPC   GL2 1961   3.789   0.348   7.464
  118POPC   C1A 1962   3.556   0.719   7.215
  118POPC   D2A 1963   3.351   0.555   6.847
  118POPC   C3A 1964   3.584   0.715   6.511
  118POPC   C4A 1965   3.634   0.754   6.050
  118POPC   C1B 1966   3.419   0.216   7.241
  118POPC   C2B 1967   3.381  11.443   6.911
  118POPC   C3B 1968   3.234   0.007   6.512
  118POPC   C4B 1969   3.358   0.361   6.250
  119POPC   NC3 1970  11.272   2.380   8.166
  119POPC   PO4 1971  10.739   2.712   8.239
  119POPC   GL1 1972  10.881   2.583   7.837
  119POPC   GL2 1973  11.191   2.795   7.855
  119POPC   C1A 1974  10.989   2.673   7.402
  119POPC   D2A 1975  10.832   2.728   7.020
  119POPC   C3A 1976  10.910   2.401   6.768
  119POPC   C4A 1977  10.915   2.397   6.316
  119POPC   C1B 1978  11.468   2.673   7.516
  119POPC   C2B 1979  11.423   2.722   7.061
  119POPC   C3B 1980  11.233   2.784   6.671
  119POPC   C4B 1981  11.415   2.726   6.297
  120POPC   NC3 1982   8.072  11.417   8.152
  120POPC   PO4 1983   7.751  10.898   8.209
  120POPC   GL1 1984   8.024  11.159   7.734
  120POPC   GL2 1985   7.833  11.396   7.541
  120POPC   C1A 1986   8.106  11.026   7.254
  120POPC   D2A 1987   8.299  11.126   6.851
  120POPC   C3A 1988   8.154  11.081   6.392
  120POPC   C4A 1989   7.999  10.819   6.060
  120POPC   C1B 1990   8.240   0.004   7.372
  120POPC   C2B 1991   8.403   0.111   6.982
  120POPC   C3B 1992   8.177   0.049   6.610
  120POPC   C4B 1993   8.246   0.067   6.199
  121POPC   NC3 1994   5.999   1.552   8.104
  121POPC   PO4 1995   5.336   1.574   8.092
  121POPC   GL1 1996   5.675   1.415   7.741
  121POPC   GL2 1997   5.909   1.103   7.698
  121POPC   C1A 1998   5.919   1.434   7.336
  121POPC   D2A 1999   5.781   1.347   6.929
  121POPC   C3A 2000   5.968   1.333   6.518
  121POPC   C4A 2001   5.749   1.304   6.093
  121POPC   C1B 2002   5.858   0.924   7.245
  121POPC   C2B 2003   5.598   0.882   6.868
  121POPC   C3B 2004   5.676   0.935   6.429
  121POPC   C4B 2005   6.104   0.967   6.173
  122POPC   NC3 2006  10.757   1.563   7.906
  122POPC   PO4 2007  11.358   1.928   8.095
  122POPC   GL1 2008  11.298   2.159   7.701
  122POPC   GL2 2009  11.182   1.833   7.570
  122POPC   C1A 2010  11.296   2.259   7.257
  122POPC   D2A 2011  11.477   2.116   6.897
  122POPC   C3A 2012  11.381   2.290   6.557
  122POPC   C4A 2013  11.370   2.241   6.147
  122POPC   C1B 2014  11.121   1.786   7.115
  122POPC   C2B 2015  11.027   1.920   6.698
  122POPC   C3B 2016  10.990   1.840   6.266
  122POPC   C4B 2017  10.900   1.641   5.855
  123POPC   NC3 2018   1.322   3.500   8.047
  123POPC   PO4 2019   1.064   4.069   8.018
  123POPC   GL1 2020   0.948   3.746   7.698
  123POPC   GL2 2021   1.269   3.604   7.545
  123POPC   C1A 2022   0.837   3.582   7.278
  123POPC   D2A 2023   1.109   3.544   6.922
  123POPC   C3A 2024   0.988   3.702   6.536
  123POPC   C4A 2025   1.148   3.653   6.130
  123POPC   C1B 2026   1.357   3.244   7.257
  123POPC   C2B 2027   1.488   3.195   6.800
  123POPC   C3B 2028   1.248   3.240   6.413
  123POPC   C4B 2029   1.329   3.193   5.927
  124POPC   NC3 2030   9.285  10.037   7.888
  124POPC   PO4 2031   9.779  10.402   8.271
  124POPC   GL1 2032   9.844  10.461   7.788
  124POPC   GL2 2033   9.856  10.122   7.752
  124POPC   C1A 2034   9.647  10.573   7.352
  124POPC   D2A 2035   9.578  10.249   7.001
  124POPC   C3A 2036   9.606  10.411   6.588
  124POPC   C4A 2037   9.353  10.667   6.338
  124POPC   C1B 2038   9.982  10.208   7.318
  124POPC   C2B 2039  10.098  10.122   6.913
  124POPC   C3B 2040  10.256  10.121   6.501
  124POPC   C4B 2041   9.933  10.237   6.227
  125POPC   NC3 2042  11.081   0.644   7.980
  125POPC   PO4 2043   0.159   0.850   8.093
  125POPC   GL1 2044   0.035   0.525   7.753
  125POPC   GL2 2045  11.291   0.226   7.757
  125POPC   C1A 2046   0.071   0.338   7.324
  125POPC   D2A 2047  11.416   0.533   6.939
  125POPC   C3A 2048   0.047   0.481   6.529
  125POPC   C4A 2049   0.001   0.256   6.169
  125POPC   C1B 2050  11.065   0.301   7.362
  125POPC   C2B 2051  10.957   0.222   6.933
  125POPC   C3B 2052  11.067   0.284   6.510
  125POPC   C4B 2053  11.071   0.528   6.193
  126POPC   NC3 2054   0.474   6.110   8.100
  126POPC   PO4 2055  11.457   5.627   8.250
  126POPC   GL1 2056   0.134   5.475   7.752
  126POPC   GL2 2057   0.479   5.652   7.732
  126POPC   C1A 2058   0.313   5.572   7.282
  126POPC   D2A 2059   0.336   5.894   6.984
  126POPC   C3A 2060   0.203   5.683   6.619
  126POPC   C4A 2061   0.382   5.605   6.240
  126POPC   C1B 2062   0.699   5.919   7.422
  126POPC   C2B 2063   0.850   5.951   6.998
  126POPC   C3B 2064   0.760   5.911   6.555
  126POPC   C4B 2065   0.821   5.883   6.122
  127POPC   NC3 2066  10.371   5.944   8.097
  127POPC   PO4 2067  10.908   6.284   8.319
  127POPC   GL1 2068  10.906   6.066   7.846
  127POPC   GL2 2069  10.660   5.813   7.718
  127POPC   C1A 2070  10.883   6.033   7.344
  127POPC   D2A 2071  10.958   5.994   6.889
  127POPC   C3A 2072  10.734   5.926   6.523
  127POPC   C4A 2073  10.575   6.252   6.251
  127POPC   C1B 2074  10.450   5.727   7.332
  127POPC   C2B 2075  10.376   5.856   6.895
  127POPC   C3B 2076  10.207   6.034   6.550
  127POPC   C4B 2077  10.313   5.809   6.247
  128POPC   NC3 2078   2.050   6.310   7.980
  128POPC   PO4 2079   1.753   6.832   8.103
  128POPC   GL1 2080   1.768   6.734   7.649
  128POPC   GL2 2081   1.673   6.425   7.654
  128POPC   C1A 2082   1.615   6.618   7.185
  128POPC   D2A 2083   1.646   6.498   6.727
  128POPC   C3A 2084   1.822   6.791   6.408
  128POPC   C4A 2085   2.245   6.966   6.306
  128POPC   C1B 2086   2.045   6.371   7.364
  128POPC   C2B 2087   2.142   6.449   6.978
  128POPC   C3B 2088   2.152   6.427   6.551
  128POPC   C4B 2089   1.985   6.370   6.141
  129POPC   NC3 2090  10.312   2.940   8.054
  129POPC   PO4 2091  10.035   2.333   8.126
  129POPC   GL1 2092  10.306   2.511   7.807
  129POPC   GL2 2093  10.064   2.593   7.594
  129POPC   C1A 2094  10.511   2.536   7.393
  129POPC   D2A 2095  10.424   2.407   6.963
  129POPC   C3A 2096  10.487   2.628   6.550
  129POPC   C4A 2097  10.302   2.523   6.129
  129POPC   C1B 2098  10.198   2.906   7.271
  129POPC   C2B 2099  10.373   3.002   6.906
  129POPC   C3B 2100  10.325   3.126   6.478
  129POPC   C4B 2101  10.490   2.998   6.113
  130POPC   NC3 2102   4.343  10.518   7.937
  130POPC   PO4 2103   3.712  10.727   8.056
  130POPC   GL1 2104   3.911  10.679   7.699
  130POPC   GL2 2105   3.979  10.371   7.599
  130POPC   C1A 2106   4.015  10.892   7.364
  130POPC   D2A 2107   4.220  10.949   6.993
  130POPC   C3A 2108   4.109  10.732   6.651
  130POPC   C4A 2109   4.364  10.647   6.289
  130POPC   C1B 2110   4.237  10.444   7.248
  130POPC   C2B 2111   4.239  10.282   6.842
  130POPC   C3B 2112   4.561  10.261   6.540
  130POPC   C4B 2113   4.568  10.184   6.117
  131POPC   NC3 2114   0.989   4.984   8.110
  131POPC   PO4 2115   1.634   4.784   8.018
  131POPC   GL1 2116   1.264   4.812   7.653
  131POPC   GL2 2117   1.016   5.089   7.630
  131POPC   C1A 2118   0.998   4.844   7.208
  131POPC   D2A 2119   0.913   4.962   6.775
  131POPC   C3A 2120   0.986   4.720   6.413
  131POPC   C4A 2121   1.114   4.966   6.130
  131POPC   C1B 2122   1.315   5.223   7.305
  131POPC   C2B 2123   1.415   5.014   6.918
  131POPC   C3B 2124   1.484   4.883   6.494
  131POPC   C4B 2125   1.474   5.271   6.289
  132POPC   NC3 2126   5.332   2.024   8.041
  132POPC   PO4 2127   5.977   2.037   8.126
  132POPC   GL1 2128   5.939   1.872   7.683
  132POPC   GL2 2129   5.592   1.902   7.619
  132POPC   C1A 2130   5.881   1.914   7.193
  132POPC   D2A 2131   5.926   1.804   6.741
  132POPC   C3A 2132   6.102   2.124   6.461
  132POPC   C4A 2133   6.002   2.493   6.219
  132POPC   C1B 2134   5.415   1.607   7.323
  132POPC   C2B 2135   5.284   1.437   6.907
  132POPC   C3B 2136   5.477   1.503   6.484
  132POPC   C4B 2137   5.802   1.781   6.225
  133POPC   NC3 2138  11.483  11.249   7.787
  133POPC   PO4 2139   0.162  10.868   8.288
  133POPC   GL1 2140   0.235  10.805   7.752
  133POPC   GL2 2141   0.440  11.090   7.613
  133POPC   C1A 2142   0.163  10.924   7.241
  133POPC   D2A 2143  11.457  11.034   6.815
  133POPC   C3A 2144   0.171  10.932   6.390
  133POPC   C4A 2145   0.150  10.804   5.886
  133POPC   C1B 2146   0.752  11.078   7.298
  133POPC   C2B 2147   0.787  11.270   6.907
  133POPC   C3B 2148   0.644  11.114   6.523
  133POPC   C4B 2149   0.531  11.134   6.074
  134POPC   NC3 2150   2.315   3.610   8.095
  134POPC   PO4 2151   1.705   3.262   7.992
  134POPC   GL1 2152   1.924   3.317   7.605
  134POPC   GL2 2153   1.965   3.665   7.671
  134POPC   C1A 2154   1.837   3.121   7.183
  134POPC   D2A 2155   1.980   3.008   6.773
  134POPC   C3A 2156   1.916   3.351   6.489
  134POPC   C4A 2157   1.640   3.504   6.167
  134POPC   C1B 2158   1.718   3.635   7.262
  134POPC   C2B 2159   1.643   3.680   6.815
  134POPC   C3B 2160   1.835   3.865   6.452
  134POPC   C4B 2161   2.163   3.689   6.150
  135POPC   NC3 2162   1.649   2.876   8.228
  135POPC   PO4 2163   2.234   2.453   8.054
  135POPC   GL1 2164   1.899   2.482   7.799
  135POPC   GL2 2165   1.858   2.823   7.744
  135POPC   C1A 2166   1.709   2.493   7.382
  135POPC   D2A 2167   1.850   2.339   6.987
  135POPC   C3A 2168   1.837   2.554   6.583
  135POPC   C4A 2169   1.612   2.467   6.184
  135POPC   C1B 2170   2.132   2.760   7.363
  135POPC   C2B 2171   2.327   2.491   7.040
  135POPC   C3B 2172   2.349   2.511   6.597
  135POPC   C4B 2173   2.166   2.826   6.304
  136POPC   NC3 2174   2.756   8.887   8.026
  136POPC   PO4 2175   2.485   8.433   7.768
  136POPC   GL1 2176   2.434   8.902   7.612
  136POPC   GL2 2177   2.743   9.123   7.567
  136POPC   C1A 2178   2.355   9.247   7.280
  136POPC   D2A 2179   2.526   9.208   6.856
  136POPC   C3A 2180   2.546   9.089   6.416
  136POPC   C4A 2181   2.573   8.871   5.992
  136POPC   C1B 2182   2.677   8.823   7.186
  136POPC   C2B 2183   2.564   8.633   6.760
  136POPC   C3B 2184   2.828   8.667   6.390
  136POPC   C4B 2185   3.052   9.068   6.248
  137POPC   NC3 2186   2.010   2.061   8.189
  137POPC   PO4 2187   1.502   1.599   8.012
  137POPC   GL1 2188   1.834   1.659   7.721
  137POPC   GL2 2189   2.086   1.929   7.716
  137POPC   C1A 2190   1.877   1.552   7.301
  137POPC   D2A 2191   1.640   1.760   6.938
  137POPC   C3A 2192   1.688   1.655   6.520
  137POPC   C4A 2193   1.744   1.949   6.176
  137POPC   C1B 2194   2.139   2.174   7.389
  137POPC   C2B 2195   2.140   1.923   6.992
  137POPC   C3B 2196   2.011   2.062   6.589
  137POPC   C4B 2197   2.112   2.298   6.199
  138POPC   NC3 2198   1.738  11.112   8.369
  138POPC   PO4 2199   1.687   0.187   8.041
  138POPC   GL1 2200   1.649  11.303   7.792
  138POPC   GL2 2201   1.933  11.061   7.836
  138POPC   C1A 2202   1.707  11.180   7.356
  138POPC   D2A 2203   1.929  11.327   6.984
  138POPC   C3A 2204   1.774  11.236   6.585
  138POPC   C4A 2205   1.755   0.014   6.256
  138POPC   C1B 2206   2.175  10.923   7.474
  138POPC   C2B 2207   2.192  10.871   7.031
  138POPC   C3B 2208   2.298  11.096   6.656
  138POPC   C4B 2209   2.136  11.059   6.246
  139POPC   NC3 2210   4.496  11.481   8.058
  139POPC   PO4 2211   4.711  10.777   8.066
  139POPC   GL1 2212   4.446  10.984   7.738
  139POPC   GL2 2213   4.122  11.157   7.789
  139POPC   C1A 2214   4.596  10.978   7.329
  139POPC   D2A 2215   4.663  11.231   6.973
  139POPC   C3A 2216   4.532  11.050   6.588
  139POPC   C4A 2217   4.763  10.989   6.231
  139POPC   C1B 2218   4.279  11.356   7.390
  139POPC   C2B 2219   4.188  11.461   6.975
  139POPC   C3B 2220   4.148  11.379   6.558
  139POPC   C4B 2221   4.050  11.047   6.263
  140POPC   NC3 2222   9.473   1.182   8.070
  140POPC   PO4 2223  10.059   1.297   8.118
  140POPC   GL1 2224   9.783   1.364   7.709
  140POPC   GL2 2225   9.541   1.067   7.590
  140POPC   C1A 2226   9.672   1.497   7.281
  140POPC   D2A 2227   9.367   1.447   6.908
  140POPC   C3A 2228   9.512   1.461   6.476
  140POPC   C4A 2229   9.880   1.411   6.244
  140POPC   C1B 2230   9.658   1.014   7.167
  140POPC   C2B 2231   9.767   1.151   6.769
  140POPC   C3B 2232   9.762   0.939   6.371
  140POPC   C4B 2233   9.389   0.816   6.130
  141POPC   NC3 2234   2.859  10.053   8.290
  141POPC   PO4 2235   2.713  10.677   8.058
  141POPC   GL1 2236   2.731  10.575   7.666
  141POPC   GL2 2237   2.792  10.232   7.621
  141POPC   C1A 2238   2.468  10.528   7.309
  141POPC   D2A 2239   2.486  10.370   6.912
  141POPC   C3A 2240   2.440  10.604   6.564
  141POPC   C4A 2241   2.487  10.422   6.185
  141POPC   C1B 2242   2.968  10.485   7.224
  141POPC   C2B 2243   2.959  10.505   6.747
  141POPC   C3B 2244   2.982  10.546   6.320
  141POPC   C4B 2245   2.940  10.192   6.106
  142POPC   NC3 2246   6.933   0.170   7.959
  142POPC   PO4 2247   7.683   0.132   7.992
  142POPC   GL1 2248   7.388   0.154   7.649
  142POPC   GL2 2249   7.292   0.489   7.729
  142POPC   C1A 2250   7.318   0.099   7.187
  142POPC   D2A 2251   7.447   0.082   6.733
  142POPC   C3A 2252   7.213   0.206   6.367
  142POPC   C4A 2253   7.403   0.308   5.914
  142POPC   C1B 2254   7.195   0.623   7.315
  142POPC   C2B 2255   7.147   0.489   6.886
  142POPC   C3B 2256   7.386   0.649   6.538
  142POPC   C4B 2257   7.222   0.721   6.148
  143POPC   NC3 2258   2.952   9.646   7.860
  143POPC   PO4 2259   2.424   9.985   8.109
  143POPC   GL1 2260   2.340   9.925   7.676
  143POPC   GL2 2261   2.489   9.600   7.609
  143POPC   C1A 2262   2.519   9.995   7.261
  143POPC   D2A 2263   2.865  10.038   6.958
  143POPC   C3A 2264   2.676  10.066   6.529
  143POPC   C4A 2265   2.409   9.900   6.160
  143POPC   C1B 2266   2.789   9.555   7.220
  143POPC   C2B 2267   2.867   9.576   6.758
  143POPC   C3B 2268   2.777   9.582   6.334
  143POPC   C4B 2269   2.710   9.343   5.985
  144POPC   NC3 2270   1.736   7.287   8.014
  144POPC   PO4 2271   1.963   7.833   8.375
  144POPC   GL1 2272   1.881   7.901   7.880
  144POPC   GL2 2273   2.058   8.145   7.717
  144POPC   C1A 2274   1.791   7.826   7.381
  144POPC   D2A 2275   1.940   7.937   6.915
  144POPC   C3A 2276   1.766   7.728   6.491
  144POPC   C4A 2277   1.782   7.853   6.038
  144POPC   C1B 2278   1.907   8.323   7.307
  144POPC   C2B 2279   1.982   8.444   6.854
  144POPC   C3B 2280   2.162   8.382   6.441
  144POPC   C4B 2281   2.233   8.106   6.077
  145POPC   NC3 2282   2.620   2.756   8.020
  145POPC   PO4 2283   3.105   2.295   8.248
  145POPC   GL1 2284   2.724   2.307   7.779
  145POPC   GL2 2285   2.484   2.504   7.598
  145POPC   C1A 2286   2.820   2.358   7.253
  145POPC   D2A 2287   2.794   2.568   6.848
  145POPC   C3A 2288   2.879   2.379   6.472
  145POPC   C4A 2289   3.035   2.463   6.081
  145POPC   C1B 2290   2.628   2.830   7.272
  145POPC   C2B 2291   2.486   2.955   6.833
  145POPC   C3B 2292   2.684   2.862   6.390
  145POPC   C4B 2293   2.516   3.005   5.944
  146POPC   NC3 2294  11.220   1.553   8.340
  146POPC   PO4 2295  10.838   1.049   8.094
  146POPC   GL1 2296  11.038   1.157   7.682
  146POPC   GL2 2297  11.403   1.070   7.706
  146POPC   C1A 2298  11.083   1.280   7.213
  146POPC   D2A 2299  11.138   1.430   6.741
  146POPC   C3A 2300  10.963   1.294   6.372
  146POPC   C4A 2301  10.668   0.970   6.424
  146POPC   C1B 2302  11.284   0.808   7.352
  146POPC   C2B 2303  10.996   0.814   6.975
  146POPC   C3B 2304  11.169   0.863   6.561
  146POPC   C4B 2305  11.459   0.858   6.204
  147POPC   NC3 2306   1.907   1.292   8.066
  147POPC   PO4 2307   2.336   1.727   8.134
  147POPC   GL1 2308   2.283   1.446   7.727
  147POPC   GL2 2309   2.127   1.107   7.651
  147POPC   C1A 2310   2.375   1.448   7.270
  147POPC   D2A 2311   2.406   1.244   6.846
  147POPC   C3A 2312   2.233   1.585   6.562
  147POPC   C4A 2313   2.017   1.531   6.146
  147POPC   C1B 2314   2.065   1.060   7.210
  147POPC   C2B 2315   1.896   1.301   6.863
  147POPC   C3B 2316   1.894   1.166   6.466
  147POPC   C4B 2317   1.621   1.199   6.127
  148POPC   NC3 2318  11.420  11.278   8.347
  148POPC   PO4 2319  11.240  10.857   7.851
  148POPC   GL1 2320  11.195  11.031   7.456
  148POPC   GL2 2321  10.972  11.283   7.668
  148POPC   C1A 2322  11.348  11.390   7.181
  148POPC   D2A 2323  11.425   0.042   6.769
  148POPC   C3A 2324  11.338  11.321   6.381
  148POPC   C4A 2325   0.064  11.283   5.995
  148POPC   C1B 2326  10.836  11.311   7.276
  148POPC   C2B 2327  10.971  11.197   6.910
  148POPC   C3B 2328  10.866  11.322   6.557
  148POPC   C4B 2329  10.860  11.169   6.175
  149POPC   NC3 2330   5.181   8.837   8.090
  149POPC   PO4 2331   4.641   8.428   8.099
  149POPC   GL1 2332   4.837   8.652   7.717
  149POPC   GL2 2333   4.846   9.030   7.731
  149POPC   C1A 2334   5.054   8.801   7.320
  149POPC   D2A 2335   4.915   8.948   6.914
  149POPC   C3A 2336   4.993   8.791   6.517
  149POPC   C4A 2337   4.681   8.481   6.392
  149POPC   C1B 2338   4.861   9.282   7.333
  149POPC   C2B 2339   4.735   9.418   6.918
  149POPC   C3B 2340   4.840   9.429   6.478
  149POPC   C4B 2341   5.106   9.525   6.099
  150POPC   NC3 2342   4.369   9.524   8.080
  150POPC   PO4 2343   4.487  10.108   8.060
  150POPC   GL1 2344   4.178   9.911   7.731
  150POPC   GL2 2345   4.085   9.539   7.661
  150POPC   C1A 2346   4.232   9.901   7.257
  150POPC   D2A 2347   4.552   9.886   6.901
  150POPC   C3A 2348   4.336   9.820   6.488
  150POPC   C4A 2349   4.071  10.086   6.227
  150POPC   C1B 2350   4.335   9.380   7.302
  150POPC   C2B 2351   4.213   9.492   6.878
  150POPC   C3B 2352   4.164   9.341   6.456
  150POPC   C4B 2353   4.131   9.537   6.050
  151POPC   NC3 2354   8.954   1.986   8.029
  151POPC   PO4 2355   9.197   1.433   7.796
  151POPC   GL1 2356   8.998   1.713   7.566
  151POPC   GL2 2357   8.973   2.084   7.542
  151POPC   C1A 2358   9.017   1.709   7.162
  151POPC   D2A 2359   8.769   1.756   6.854
  151POPC   C3A 2360   9.025   1.717   6.541
  151POPC   C4A 2361   8.822   1.784   6.175
  151POPC   C1B 2362   8.847   2.189   7.139
  151POPC   C2B 2363   9.108   2.162   6.777
  151POPC   C3B 2364   9.088   2.207   6.331
  151POPC   C4B 2365   8.692   2.316   6.136
  152POPC   NC3 2366  10.572  11.285   8.031
  152POPC   PO4 2367  10.260  10.756   8.022
  152POPC   GL1 2368  10.459  10.981   7.640
  152POPC   GL2 2369  10.407  11.337   7.574
  152POPC   C1A 2370  10.415  11.047   7.181
  152POPC   D2A 2371  10.561  10.914   6.853
  152POPC   C3A 2372  10.417  11.101   6.565
  152POPC   C4A 2373  10.407  10.939   6.200
  152POPC   C1B 2374  10.062   0.051   7.403
  152POPC   C2B 2375  10.050   0.227   7.012
  152POPC   C3B 2376  10.065   0.063   6.593
  152POPC   C4B 2377  10.230  11.408   6.214
  153POPC   NC3 2378   2.011   9.535   8.181
  153POPC   PO4 2379   2.319   8.991   8.086
  153POPC   GL1 2380   2.062   9.254   7.731
  153POPC   GL2 2381   1.875   9.599   7.704
  153POPC   C1A 2382   1.840   9.275   7.308
  153POPC   D2A 2383   1.975   9.329   6.884
  153POPC   C3A 2384   1.861   9.251   6.437
  153POPC   C4A 2385   2.204   9.346   6.149
  153POPC   C1B 2386   1.837   9.783   7.309
  153POPC   C2B 2387   2.106   9.859   6.962
  153POPC   C3B 2388   2.177   9.682   6.565
  153POPC   C4B 2389   1.918   9.753   6.217
  154POPC   NC3 2390   6.057  11.270   7.943
  154POPC   PO4 2391   6.185  10.653   7.953
  154POPC   GL1 2392   6.380  10.930   7.607
  154POPC   GL2 2393   6.502  11.292   7.592
  154POPC   C1A 2394   6.411  11.035   7.172
  154POPC   D2A 2395   6.663  11.042   6.803
  154POPC   C3A 2396   6.293  10.888   6.641
  154POPC   C4A 2397   6.150  10.845   6.245
  154POPC   C1B 2398   6.834  11.311   7.230
  154POPC   C2B 2399   6.922   0.022   6.834
  154POPC   C3B 2400   6.713   0.056   6.437
  154POPC   C4B 2401   6.414  11.273   6.284
  155POPC   NC3 2402   8.276   8.849   8.167
  155POPC   PO4 2403   8.927   8.793   8.182
  155POPC   GL1 2404   8.768   8.938   7.789
  155POPC   GL2 2405   8.518   8.698   7.712
  155POPC   C1A 2406   8.738   9.040   7.349
  155POPC   D2A 2407   8.594   8.804   6.981
  155POPC   C3A 2408   8.475   9.073   6.682
  155POPC   C4A 2409   8.646   9.234   6.328
  155POPC   C1B 2410   8.915   8.567   7.475
  155POPC   C2B 2411   9.052   8.597   7.035
  155POPC   C3B 2412   8.979   8.858   6.630
  155POPC   C4B 2413   8.799   8.766   6.206
  156POPC   NC3 2414   4.113   1.359   7.935
  156POPC   PO4 2415   4.638   0.999   7.982
  156POPC   GL1 2416   4.476   1.170   7.624
  156POPC   GL2 2417   4.408   0.854   7.479
  156POPC   C1A 2418   4.363   1.331   7.231
  156POPC   D2A 2419   4.358   1.081   6.874
  156POPC   C3A 2420   4.394   1.324   6.552
  156POPC   C4A 2421   4.438   1.357   6.169
  156POPC   C1B 2422   4.039   0.932   7.247
  156POPC   C2B 2423   3.848   1.013   6.858
  156POPC   C3B 2424   4.048   0.946   6.468
  156POPC   C4B 2425   4.033   1.071   6.044
  157POPC   NC3 2426   0.914   8.117   3.978
  157POPC   PO4 2427   1.457   7.745   3.950
  157POPC   GL1 2428   1.314   7.975   4.306
  157POPC   GL2 2429   1.257   8.317   4.305
  157POPC   C1A 2430   1.379   8.011   4.748
  157POPC   D2A 2431   1.291   7.668   5.016
  157POPC   C3A 2432   1.294   7.880   5.378
  157POPC   C4A 2433   1.340   7.750   5.777
  157POPC   C1B 2434   0.935   8.237   4.635
  157POPC   C2B 2435   0.906   8.018   5.015
  157POPC   C3B 2436   0.841   8.118   5.438
  157POPC   C4B 2437   1.081   8.191   5.783
  158POPC   NC3 2438   3.584   1.783   4.081
  158POPC   PO4 2439   4.131   2.254   3.896
  158POPC   GL1 2440   3.819   2.186   4.350
  158POPC   GL2 2441   3.493   2.023   4.522
  158POPC   C1A 2442   3.842   2.235   4.788
  158POPC   D2A 2443   3.526   2.038   5.064
  158POPC   C3A 2444   3.557   2.182   5.480
  158POPC   C4A 2445   3.463   2.207   5.903
  158POPC   C1B 2446   3.445   1.623   4.746
  158POPC   C2B 2447   3.574   1.422   5.128
  158POPC   C3B 2448   3.709   1.658   5.460
  158POPC   C4B 2449   3.353   1.756   5.724
  159POPC   NC3 2450   0.732   5.651   3.945
  159POPC   PO4 2451   0.900   6.264   3.926
  159POPC   GL1 2452   0.598   6.136   4.250
  159POPC   GL2 2453   0.393   5.863   4.239
  159POPC   C1A 2454   0.627   5.962   4.681
  159POPC   D2A 2455   0.786   5.852   5.103
  159POPC   C3A 2456   0.516   5.784   5.452
  159POPC   C4A 2457   0.616   5.543   5.799
  159POPC   C1B 2458   0.319   5.573   4.624
  159POPC   C2B 2459   0.178   5.723   5.049
  159POPC   C3B 2460   0.036   5.571   5.478
  159POPC   C4B 2461  11.470   5.739   5.917
  160POPC   NC3 2462   1.993   4.574   4.103
  160POPC   PO4 2463   1.658   4.181   3.768
  160POPC   GL1 2464   1.586   4.048   4.220
  160POPC   GL2 2465   1.896   4.003   4.431
  160POPC   C1A 2466   1.478   4.262   4.613
  160POPC   D2A 2467   1.729   4.458   4.909
  160POPC   C3A 2468   1.654   4.333   5.332
  160POPC   C4A 2469   1.752   4.454   5.740
  160POPC   C1B 2470   2.164   3.731   4.747
  160POPC   C2B 2471   2.257   3.777   5.213
  160POPC   C3B 2472   2.143   4.087   5.571
  160POPC   C4B 2473   2.276   4.498   5.806
  161POPC   NC3 2474   0.470   1.478   4.181
  161POPC   PO4 2475   0.437   0.993   3.715
  161POPC   GL1 2476   0.379   0.971   4.238
  161POPC   GL2 2477   0.535   1.140   4.547
  161POPC   C1A 2478   0.111   0.906   4.670
  161POPC   D2A 2479   0.238   1.180   5.023
  161POPC   C3A 2480   0.393   1.058   5.421
  161POPC   C4A 2481   0.239   1.088   5.849
  161POPC   C1B 2482   0.591   1.516   4.840
  161POPC   C2B 2483   0.561   1.533   5.286
  161POPC   C3B 2484   0.587   1.431   5.695
  161POPC   C4B 2485   0.735   0.976   5.844
  162POPC   NC3 2486   2.264   1.549   4.067
  162POPC   PO4 2487   2.562   0.922   3.907
  162POPC   GL1 2488   2.399   1.070   4.310
  162POPC   GL2 2489   2.046   1.130   4.318
  162POPC   C1A 2490   2.354   0.907   4.752
  162POPC   D2A 2491   2.077   0.912   5.136
  162POPC   C3A 2492   2.227   1.009   5.536
  162POPC   C4A 2493   2.078   1.011   5.988
  162POPC   C1B 2494   1.944   1.259   4.751
  162POPC   C2B 2495   1.843   1.353   5.204
  162POPC   C3B 2496   1.862   1.355   5.654
  162POPC   C4B 2497   1.572   1.618   5.820
  163POPC   NC3 2498   1.218   3.263   4.003
  163POPC   PO4 2499   0.794   3.680   3.717
  163POPC   GL1 2500   0.844   3.501   4.286
  163POPC   GL2 2501   1.168   3.426   4.458
  163POPC   C1A 2502   0.851   3.423   4.811
  163POPC   D2A 2503   0.989   3.564   5.243
  163POPC   C3A 2504   0.915   3.450   5.696
  163POPC   C4A 2505   0.850   3.218   6.098
  163POPC   C1B 2506   1.457   3.256   4.702
  163POPC   C2B 2507   1.494   3.448   5.066
  163POPC   C3B 2508   1.500   3.364   5.465
  163POPC   C4B 2509   1.368   3.696   5.691
  164POPC   NC3 2510   9.632   7.544   3.833
  164POPC   PO4 2511   9.813   7.006   4.005
  164POPC   GL1 2512   9.803   7.256   4.364
  164POPC   GL2 2513   9.987   7.546   4.344
  164POPC   C1A 2514   9.642   7.248   4.798
  164POPC   D2A 2515   9.358   7.474   5.103
  164POPC   C3A 2516   9.401   7.328   5.543
  164POPC   C4A 2517   9.498   7.335   5.971
  164POPC   C1B 2518  10.153   7.398   4.753
  164POPC   C2B 2519  10.099   7.065   5.069
  164POPC   C3B 2520   9.868   7.088   5.451
  164POPC   C4B 2521   9.937   7.460   5.706
  165POPC   NC3 2522  11.196   3.059   3.980
  165POPC   PO4 2523  10.868   2.415   3.971
  165POPC   GL1 2524  11.022   2.485   4.358
  165POPC   GL2 2525  11.317   2.707   4.358
  165POPC   C1A 2526  11.140   2.438   4.777
  165POPC   D2A 2527  10.893   2.580   5.100
  165POPC   C3A 2528  11.102   2.458   5.442
  165POPC   C4A 2529  11.236   2.625   5.829
  165POPC   C1B 2530  11.487   2.843   4.778
  165POPC   C2B 2531  11.290   2.916   5.177
  165POPC   C3B 2532  11.274   3.082   5.567
  165POPC   C4B 2533   0.002   3.059   5.939
  166POPC   NC3 2534  11.147   8.792   3.681
  166POPC   PO4 2535  10.910   9.080   4.275
  166POPC   GL1 2536  11.001   8.720   4.464
  166POPC   GL2 2537  11.238   8.681   4.227
  166POPC   C1A 2538  11.150   8.696   4.882
  166POPC   D2A 2539  11.253   9.024   5.147
  166POPC   C3A 2540  10.951   8.994   5.436
  166POPC   C4A 2541  10.887   8.799   5.823
  166POPC   C1B 2542  11.399   8.393   4.555
  166POPC   C2B 2543  11.490   8.340   5.035
  166POPC   C3B 2544  11.490   8.644   5.405
  166POPC   C4B 2545  11.380   8.707   5.846
  167POPC   NC3 2546   8.842   5.412   3.915
  167POPC   PO4 2547   8.550   5.969   3.942
  167POPC   GL1 2548   8.705   5.711   4.313
  167POPC   GL2 2549   9.064   5.630   4.325
  167POPC   C1A 2550   8.772   5.609   4.765
  167POPC   D2A 2551   8.718   5.394   5.181
  167POPC   C3A 2552   8.721   5.557   5.608
  167POPC   C4A 2553   8.457   5.733   5.960
  167POPC   C1B 2554   9.271   5.795   4.710
  167POPC   C2B 2555   9.113   5.748   5.152
  167POPC   C3B 2556   9.192   5.767   5.608
  167POPC   C4B 2557   8.967   5.784   6.016
  168POPC   NC3 2558   8.346   3.546   4.040
  168POPC   PO4 2559   8.035   3.956   4.234
  168POPC   GL1 2560   8.155   3.585   4.526
  168POPC   GL2 2561   8.457   3.357   4.502
  168POPC   C1A 2562   8.265   3.441   4.962
  168POPC   D2A 2563   8.555   3.542   5.297
  168POPC   C3A 2564   8.351   3.650   5.702
  168POPC   C4A 2565   7.944   3.662   5.942
  168POPC   C1B 2566   8.508   3.005   4.810
  168POPC   C2B 2567   8.491   3.012   5.283
  168POPC   C3B 2568   8.230   3.108   5.674
  168POPC   C4B 2569   8.145   2.863   6.066
  169POPC   NC3 2570   9.053   9.114   4.051
  169POPC   PO4 2571   8.461   9.204   3.703
  169POPC   GL1 2572   8.590   8.903   4.178
  169POPC   GL2 2573   8.815   8.679   4.271
  169POPC   C1A 2574   8.623   8.920   4.679
  169POPC   D2A 2575   8.697   8.647   5.066
  169POPC   C3A 2576   8.605   8.733   5.522
  169POPC   C4A 2577   8.657   9.055   5.789
  169POPC   C1B 2578   9.084   8.698   4.651
  169POPC   C2B 2579   9.202   8.587   5.057
  169POPC   C3B 2580   9.088   8.786   5.396
  169POPC   C4B 2581   9.093   8.767   5.787
  170POPC   NC3 2582  10.482   1.273   3.870
  170POPC   PO4 2583   9.937   0.734   3.846
  170POPC   GL1 2584  10.074   1.111   4.148
  170POPC   GL2 2585  10.390   1.093   4.336
  170POPC   C1A 2586  10.032   1.435   4.507
  170POPC   D2A 2587  10.208   1.401   4.906
  170POPC   C3A 2588  10.134   1.497   5.329
  170POPC   C4A 2589  10.007   1.411   5.754
  170POPC   C1B 2590  10.613   1.181   4.714
  170POPC   C2B 2591  10.518   1.104   5.172
  170POPC   C3B 2592  10.463   1.227   5.603
  170POPC   C4B 2593  10.691   1.189   5.947
  171POPC   NC3 2594   8.230   8.805   3.851
  171POPC   PO4 2595   8.555   9.387   4.178
  171POPC   GL1 2596   8.245   9.192   4.411
  171POPC   GL2 2597   8.095   8.924   4.305
  171POPC   C1A 2598   8.168   9.114   4.808
  171POPC   D2A 2599   8.289   8.929   5.182
  171POPC   C3A 2600   8.192   9.102   5.574
  171POPC   C4A 2601   8.270   9.282   5.992
  171POPC   C1B 2602   8.209   8.633   4.631
  171POPC   C2B 2603   8.225   8.444   5.026
  171POPC   C3B 2604   8.212   8.419   5.478
  171POPC   C4B 2605   7.959   8.459   5.850
  172POPC   NC3 2606   6.450   0.580   3.749
  172POPC   PO4 2607   7.087   0.600   3.918
  172POPC   GL1 2608   6.942   0.275   4.201
  172POPC   GL2 2609   6.591   0.320   4.176
  172POPC   C1A 2610   6.860   0.242   4.661
  172POPC   D2A 2611   6.879   0.423   5.103
  172POPC   C3A 2612   6.767   0.306   5.541
  172POPC   C4A 2613   6.882   0.311   6.000
  172POPC   C1B 2614   6.361   0.431   4.551
  172POPC   C2B 2615   6.353   0.505   5.000
  172POPC   C3B 2616   6.282   0.426   5.451
  172POPC   C4B 2617   6.240   0.634   5.828
  173POPC   NC3 2618   3.640   8.053   3.957
  173POPC   PO4 2619   3.040   8.099   3.984
  173POPC   GL1 2620   3.050   8.330   4.380
  173POPC   GL2 2621   3.417   8.304   4.404
  173POPC   C1A 2622   3.130   8.371   4.850
  173POPC   D2A 2623   3.336   8.135   5.227
  173POPC   C3A 2624   3.399   8.264   5.681
  173POPC   C4A 2625   3.571   8.406   6.085
  173POPC   C1B 2626   3.434   7.957   4.720
  173POPC   C2B 2627   3.671   7.756   5.092
  173POPC   C3B 2628   3.741   7.835   5.549
  173POPC   C4B 2629   3.989   8.095   5.833
  174POPC   NC3 2630   9.548   9.953   3.818
  174POPC   PO4 2631  10.139   9.808   3.957
  174POPC   GL1 2632   9.792   9.666   4.196
  174POPC   GL2 2633   9.813   9.314   4.293
  174POPC   C1A 2634   9.712   9.853   4.607
  174POPC   D2A 2635   9.851  10.019   5.028
  174POPC   C3A 2636   9.605   9.995   5.436
  174POPC   C4A 2637   9.748   9.925   5.853
  174POPC   C1B 2638   9.663   9.350   4.736
  174POPC   C2B 2639   9.861   9.276   5.171
  174POPC   C3B 2640   9.832   9.438   5.622
  174POPC   C4B 2641   9.394   9.563   5.757
  175POPC   NC3 2642   9.213   0.356   3.947
  175POPC   PO4 2643   8.633   0.618   3.754
  175POPC   GL1 2644   8.851   0.508   4.249
  175POPC   GL2 2645   9.011   0.211   4.385
  175POPC   C1A 2646   8.854   0.671   4.718
  175POPC   D2A 2647   8.628   0.717   5.132
  175POPC   C3A 2648   8.867   0.643   5.511
  175POPC   C4A 2649   9.347   0.695   5.640
  175POPC   C1B 2650   8.749   0.158   4.747
  175POPC   C2B 2651   8.846   0.213   5.173
  175POPC   C3B 2652   8.630   0.105   5.544
  175POPC   C4B 2653   8.469   0.352   5.840
  176POPC   NC3 2654   8.135   9.459   3.918
  176POPC   PO4 2655   7.757   8.910   3.884
  176POPC   GL1 2656   7.763   9.303   4.221
  176POPC   GL2 2657   8.020   9.630   4.363
  176POPC   C1A 2658   7.748   9.358   4.667
  176POPC   D2A 2659   7.780   9.295   5.079
  176POPC   C3A 2660   7.807   9.657   5.315
  176POPC   C4A 2661   7.962   9.565   5.713
  176POPC   C1B 2662   8.159   9.666   4.799
  176POPC   C2B 2663   8.295   9.446   5.174
  176POPC   C3B 2664   8.477   9.524   5.548
  176POPC   C4B 2665   8.362   9.906   5.744
  177POPC   NC3 2666   2.946   0.326   4.053
  177POPC   PO4 2667   2.407   0.131   3.820
  177POPC   GL1 2668   2.487   0.265   4.256
  177POPC   GL2 2669   2.634   0.615   4.325
  177POPC   C1A 2670   2.399   0.354   4.693
  177POPC   D2A 2671   2.222   0.445   5.059
  177POPC   C3A 2672   2.494   0.494   5.400
  177POPC   C4A 2673   2.521   0.276   5.799
  177POPC   C1B 2674   2.842   0.660   4.755
  177POPC   C2B 2675   2.971   0.635   5.215
  177POPC   C3B 2676   2.887   0.751   5.661
  177POPC   C4B 2677   3.021   0.726   6.110
  178POPC   NC3 2678   2.107  11.295   3.937
  178POPC   PO4 2679   1.568  10.985   3.625
  178POPC   GL1 2680   1.627  11.199   4.125
  178POPC   GL2 2681   1.882  11.019   4.341
  178POPC   C1A 2682   1.607  11.329   4.605
  178POPC   D2A 2683   1.884  11.169   4.978
  178POPC   C3A 2684   1.758  11.255   5.434
  178POPC   C4A 2685   1.830  11.080   5.852
  178POPC   C1B 2686   2.189  11.325   4.562
  178POPC   C2B 2687   2.359  11.405   4.953
  178POPC   C3B 2688   2.400  11.117   5.273
  178POPC   C4B 2689   2.363  11.156   5.725
  179POPC   NC3 2690  10.718   8.744   4.036
  179POPC   PO4 2691  10.061   8.555   3.904
  179POPC   GL1 2692  10.166   8.908   4.207
  179POPC   GL2 2693  10.408   8.795   4.416
  179POPC   C1A 2694  10.029   9.002   4.662
  179POPC   D2A 2695  10.191   8.877   5.079
  179POPC   C3A 2696  10.024   8.899   5.508
  179POPC   C4A 2697  10.109   8.473   5.691
  179POPC   C1B 2698  10.616   8.832   4.774
  179POPC   C2B 2699  10.686   8.689   5.119
  179POPC   C3B 2700  10.514   8.713   5.498
  179POPC   C4B 2701  10.437   9.042   5.779
  180POPC   NC3 2702   2.375  10.284   3.983
  180POPC   PO4 2703   3.023   9.957   3.899
  180POPC   GL1 2704   2.850  10.159   4.269
  180POPC   GL2 2705   2.702  10.462   4.324
  180POPC   C1A 2706   2.754  10.040   4.690
  180POPC   D2A 2707   3.021  10.152   5.054
  180POPC   C3A 2708   2.848  10.167   5.472
  180POPC   C4A 2709   2.453  10.180   5.730
  180POPC   C1B 2710   2.859  10.520   4.707
  180POPC   C2B 2711   2.574  10.421   5.054
  180POPC   C3B 2712   2.500  10.603   5.443
  180POPC   C4B 2713   2.794  10.572   5.798
  181POPC   NC3 2714  11.301   4.251   4.005
  181POPC   PO4 2715  11.232   4.921   3.804
  181POPC   GL1 2716  11.253   4.721   4.259
  181POPC   GL2 2717  11.031   4.444   4.380
  181POPC   C1A 2718  11.425   4.610   4.669
  181POPC   D2A 2719  11.178   4.446   5.025
  181POPC   C3A 2720  11.356   4.490   5.433
  181POPC   C4A 2721  11.083   4.500   5.764
  181POPC   C1B 2722  11.223   4.131   4.639
  181POPC   C2B 2723  11.366   3.938   5.037
  181POPC   C3B 2724  11.218   3.995   5.447
  181POPC   C4B 2725  11.331   4.042   5.857
  182POPC   NC3 2726   2.741  11.093   3.522
  182POPC   PO4 2727   2.942  10.517   3.875
  182POPC   GL1 2728   2.854  10.934   4.235
  182POPC   GL2 2729   2.678  11.278   4.183
  182POPC   C1A 2730   2.784  11.022   4.684
  182POPC   D2A 2731   2.852  10.836   5.109
  182POPC   C3A 2732   2.843  10.999   5.518
  182POPC   C4A 2733   3.093  10.964   5.921
  182POPC   C1B 2734   2.751   0.009   4.591
  182POPC   C2B 2735   2.807   0.177   5.004
  182POPC   C3B 2736   2.719   0.002   5.416
  182POPC   C4B 2737   2.812  11.368   5.852
  183POPC   NC3 2738   9.059   8.257   3.971
  183POPC   PO4 2739   8.481   8.416   3.950
  183POPC   GL1 2740   8.703   8.193   4.340
  183POPC   GL2 2741   9.025   7.975   4.384
  183POPC   C1A 2742   8.849   8.258   4.778
  183POPC   D2A 2743   8.629   8.146   5.167
  183POPC   C3A 2744   8.743   8.236   5.580
  183POPC   C4A 2745   8.571   8.362   5.970
  183POPC   C1B 2746   9.195   7.878   4.804
  183POPC   C2B 2747   9.072   7.879   5.256
  183POPC   C3B 2748   9.136   7.817   5.697
  183POPC   C4B 2749   8.782   7.863   5.990
  184POPC   NC3 2750   1.167  10.290   3.916
  184POPC   PO4 2751   1.599  10.694   4.060
  184POPC   GL1 2752   1.494  10.354   4.311
  184POPC   GL2 2753   1.195  10.567   4.333
  184POPC   C1A 2754   1.617  10.136   4.713
  184POPC   D2A 2755   1.659  10.324   5.144
  184POPC   C3A 2756   1.561  10.076   5.511
  184POPC   C4A 2757   1.547   9.900   5.909
  184POPC   C1B 2758   1.153  10.349   4.679
  184POPC   C2B 2759   1.162  10.538   5.051
  184POPC   C3B 2760   1.230  10.460   5.437
  184POPC   C4B 2761   1.064  10.614   5.782
  185POPC   NC3 2762   4.422   8.800   3.663
  185POPC   PO4 2763   4.211   9.220   4.010
  185POPC   GL1 2764   4.220   9.176   4.437
  185POPC   GL2 2765   4.248   8.823   4.490
  185POPC   C1A 2766   4.057   9.206   4.856
  185POPC   D2A 2767   4.198   9.400   5.241
  185POPC   C3A 2768   4.053   9.232   5.642
  185POPC   C4A 2769   4.158   9.017   6.054
  185POPC   C1B 2770   4.516   8.955   4.837
  185POPC   C2B 2771   4.544   9.000   5.249
  185POPC   C3B 2772   4.478   8.957   5.647
  185POPC   C4B 2773   4.518   8.651   5.951
  186POPC   NC3 2774  11.182   9.350   4.024
  186POPC   PO4 2775  10.798   9.989   3.925
  186POPC   GL1 2776  10.907   9.914   4.365
  186POPC   GL2 2777  10.947   9.559   4.433
  186POPC   C1A 2778  10.853   9.866   4.824
  186POPC   D2A 2779  10.857   9.638   5.218
  186POPC   C3A 2780  11.043   9.884   5.557
  186POPC   C4A 2781  11.454   9.931   5.697
  186POPC   C1B 2782  11.146   9.419   4.813
  186POPC   C2B 2783  11.392   9.548   5.168
  186POPC   C3B 2784  11.238   9.421   5.531
  186POPC   C4B 2785  10.883   9.341   5.788
  187POPC   NC3 2786   2.360   6.007   3.715
  187POPC   PO4 2787   3.031   6.199   3.841
  187POPC   GL1 2788   2.732   6.082   4.173
  187POPC   GL2 2789   2.514   5.776   4.160
  187POPC   C1A 2790   2.906   5.946   4.596
  187POPC   D2A 2791   3.151   5.989   5.005
  187POPC   C3A 2792   2.930   5.927   5.425
  187POPC   C4A 2793   2.722   5.980   5.841
  187POPC   C1B 2794   2.420   5.785   4.615
  187POPC   C2B 2795   2.288   5.871   5.058
  187POPC   C3B 2796   2.410   5.772   5.478
  187POPC   C4B 2797   2.566   5.489   5.816
  188POPC   NC3 2798  11.418   8.033   3.977
  188POPC   PO4 2799  10.722   8.260   3.846
  188POPC   GL1 2800  10.967   8.249   4.216
  188POPC   GL2 2801  11.078   7.937   4.341
  188POPC   C1A 2802  10.921   8.262   4.682
  188POPC   D2A 2803  10.782   8.182   5.087
  188POPC   C3A 2804  11.017   8.428   5.386
  188POPC   C4A 2805  11.075   8.317   5.788
  188POPC   C1B 2806  11.360   7.918   4.694
  188POPC   C2B 2807  11.202   7.886   5.075
  188POPC   C3B 2808  11.325   8.011   5.450
  188POPC   C4B 2809  11.343   7.883   5.876
  189POPC   NC3 2810   1.772   9.781   4.052
  189POPC   PO4 2811   1.154   9.852   3.757
  189POPC   GL1 2812   1.215   9.884   4.216
  189POPC   GL2 2813   1.337   9.584   4.258
  189POPC   C1A 2814   1.144   9.842   4.671
  189POPC   D2A 2815   1.241  10.010   5.079
  189POPC   C3A 2816   0.952   9.954   5.407
  189POPC   C4A 2817   1.093  10.098   5.780
  189POPC   C1B 2818   1.570   9.551   4.661
  189POPC   C2B 2819   1.460   9.412   5.072
  189POPC   C3B 2820   1.420   9.586   5.483
  189POPC   C4B 2821   1.116   9.589   5.806
  190POPC   NC3 2822   1.263   7.308   3.899
  190POPC   PO4 2823   1.540   6.789   3.706
  190POPC   GL1 2824   1.475   6.918   4.154
  190POPC   GL2 2825   1.155   6.836   4.286
  190POPC   C1A 2826   1.494   7.008   4.630
  190POPC   D2A 2827   1.662   7.159   5.047
  190POPC   C3A 2828   1.467   7.355   5.432
  190POPC   C4A 2829   1.660   7.363   5.856
  190POPC   C1B 2830   0.949   6.938   4.702
  190POPC   C2B 2831   0.831   7.045   5.149
  190POPC   C3B 2832   0.904   6.990   5.601
  190POPC   C4B 2833   1.128   7.204   5.931
  191POPC   NC3 2834   9.838   5.498   3.884
  191POPC   PO4 2835   9.276   5.252   3.974
  191POPC   GL1 2836   9.532   5.423   4.373
  191POPC   GL2 2837   9.813   5.679   4.378
  191POPC   C1A 2838   9.672   5.472   4.841
  191POPC   D2A 2839   9.605   5.680   5.262
  191POPC   C3A 2840   9.614   5.471   5.669
  191POPC   C4A 2841   9.400   5.430   6.089
  191POPC   C1B 2842   9.879   5.942   4.781
  191POPC   C2B 2843   9.892   6.101   5.213
  191POPC   C3B 2844   9.671   6.092   5.607
  191POPC   C4B 2845   9.609   6.397   5.944
  192POPC   NC3 2846   2.802   2.256   3.876
  192POPC   PO4 2847   3.421   2.212   4.054
  192POPC   GL1 2848   3.090   1.906   4.235
  192POPC   GL2 2849   2.800   2.091   4.350
  192POPC   C1A 2850   2.979   1.736   4.642
  192POPC   D2A 2851   2.935   2.056   4.923
  192POPC   C3A 2852   3.068   1.949   5.312
  192POPC   C4A 2853   3.030   2.191   5.643
  192POPC   C1B 2854   2.513   1.929   4.668
  192POPC   C2B 2855   2.501   1.858   5.099
  192POPC   C3B 2856   2.580   1.962   5.520
  192POPC   C4B 2857   2.847   1.662   5.719
  193POPC   NC3 2858   1.924   2.380   3.758
  193POPC   PO4 2859   1.822   1.671   4.025
  193POPC   GL1 2860   1.900   2.103   4.208
  193POPC   GL2 2861   2.263   2.095   4.263
  193POPC   C1A 2862   1.987   2.319   4.646
  193POPC   D2A 2863   2.246   2.290   5.017
  193POPC   C3A 2864   2.156   2.285   5.446
  193POPC   C4A 2865   1.817   2.270   5.757
  193POPC   C1B 2866   2.034   1.811   4.623
  193POPC   C2B 2867   1.989   1.831   5.063
  193POPC   C3B 2868   1.898   1.843   5.490
  193POPC   C4B 2869   2.178   1.904   5.848
  194POPC   NC3 2870   8.212   1.909   3.891
  194POPC   PO4 2871   7.694   2.353   3.862
  194POPC   GL1 2872   7.962   2.212   4.230
  194POPC   GL2 2873   8.066   1.874   4.367
  194POPC   C1A 2874   8.125   2.296   4.656
  194POPC   D2A 2875   7.956   2.214   5.077
  194POPC   C3A 2876   8.099   2.382   5.474
  194POPC   C4A 2877   8.257   2.385   5.889
  194POPC   C1B 2878   8.133   1.791   4.828
  194POPC   C2B 2879   8.107   1.514   5.178
  194POPC   C3B 2880   7.839   1.625   5.518
  194POPC   C4B 2881   7.941   1.964   5.775
  195POPC   NC3 2882   0.881   1.109   3.632
  195POPC   PO4 2883   0.867   1.670   4.030
  195POPC   GL1 2884   0.960   1.310   4.277
  195POPC   GL2 2885   1.327   1.259   4.315
  195POPC   C1A 2886   0.999   1.243   4.719
  195POPC   D2A 2887   1.049   1.507   5.093
  195POPC   C3A 2888   0.999   1.254   5.458
  195POPC   C4A 2889   1.199   1.194   5.855
  195POPC   C1B 2890   1.444   1.004   4.665
  195POPC   C2B 2891   1.307   1.038   5.083
  195POPC   C3B 2892   1.485   1.059   5.445
  195POPC   C4B 2893   1.673   0.872   5.744
  196POPC   NC3 2894  11.048  10.339   4.082
  196POPC   PO4 2895  10.919  10.892   3.852
  196POPC   GL1 2896  11.028  10.818   4.262
  196POPC   GL2 2897  11.395  10.735   4.251
  196POPC   C1A 2898  10.883  10.675   4.678
  196POPC   D2A 2899  10.865  10.788   5.111
  196POPC   C3A 2900  10.868  10.634   5.534
  196POPC   C4A 2901  10.842  10.658   6.044
  196POPC   C1B 2902  11.378  10.508   4.624
  196POPC   C2B 2903  11.157  10.331   4.951
  196POPC   C3B 2904  11.240  10.311   5.358
  196POPC   C4B 2905  11.252  10.427   5.767
  197POPC   NC3 2906   7.310   0.979   4.066
  197POPC   PO4 2907   7.833   1.518   3.905
  197POPC   GL1 2908   7.716   1.228   4.238
  197POPC   GL2 2909   7.424   1.365   4.396
  197POPC   C1A 2910   7.616   0.967   4.647
  197POPC   D2A 2911   7.231   1.034   4.906
  197POPC   C3A 2912   7.303   0.984   5.346
  197POPC   C4A 2913   7.406   1.004   5.779
  197POPC   C1B 2914   7.331   1.524   4.820
  197POPC   C2B 2915   7.233   1.508   5.283
  197POPC   C3B 2916   6.966   1.276   5.599
  197POPC   C4B 2917   6.997   1.209   6.031
  198POPC   NC3 2918   9.759   8.994   3.901
  198POPC   PO4 2919   9.248   8.680   4.031
  198POPC   GL1 2920   9.495   8.871   4.340
  198POPC   GL2 2921   9.773   8.641   4.360
  198POPC   C1A 2922   9.552   8.854   4.795
  198POPC   D2A 2923   9.330   9.112   5.088
  198POPC   C3A 2924   9.468   9.110   5.499
  198POPC   C4A 2925   9.523   9.073   5.932
  198POPC   C1B 2926   9.938   8.512   4.778
  198POPC   C2B 2927   9.779   8.554   5.217
  198POPC   C3B 2928   9.600   8.647   5.651
  198POPC   C4B 2929   9.826   8.692   6.053
  199POPC   NC3 2930   8.844  10.598   4.064
  199POPC   PO4 2931   9.081   9.957   3.894
  199POPC   GL1 2932   9.089  10.193   4.282
  199POPC   GL2 2933   8.733  10.170   4.378
  199POPC   C1A 2934   9.028  10.341   4.740
  199POPC   D2A 2935   8.948  10.141   5.144
  199POPC   C3A 2936   9.075  10.405   5.496
  199POPC   C4A 2937   9.066  10.626   5.917
  199POPC   C1B 2938   8.538  10.121   4.783
  199POPC   C2B 2939   8.436   9.951   5.187
  199POPC   C3B 2940   8.532  10.267   5.443
  199POPC   C4B 2941   8.724  10.276   5.833
  200POPC   NC3 2942   1.524   8.901   3.864
  200POPC   PO4 2943   0.914   8.583   3.980
  200POPC   GL1 2944   1.105   8.787   4.358
  200POPC   GL2 2945   1.148   9.111   4.309
  200POPC   C1A 2946   1.287   8.604   4.779
  200POPC   D2A 2947   1.246   8.393   5.210
  200POPC   C3A 2948   1.070   8.643   5.576
  200POPC   C4A 2949   1.265   8.612   6.008
  200POPC   C1B 2950   1.120   9.099   4.791
  200POPC   C2B 2951   1.329   8.940   5.208
  200POPC   C3B 2952   1.298   9.101   5.645
  200POPC   C4B 2953   0.900   9.120   5.824
  201POPC   NC3 2954   9.718   4.057   3.845
  201POPC   PO4 2955   9.774   3.377   3.887
  201POPC   GL1 2956   9.766   3.663   4.271
  201POPC   GL2 2957   9.432   3.793   4.369
  201POPC   C1A 2958   9.768   3.774   4.750
  201POPC   D2A 2959   9.548   3.846   5.158
  201POPC   C3A 2960   9.765   3.975   5.567
  201POPC   C4A 2961   9.978   3.850   5.985
  201POPC   C1B 2962   9.402   3.413   4.663
  201POPC   C2B 2963   9.465   3.295   5.091
  201POPC   C3B 2964   9.485   3.467   5.501
  201POPC   C4B 2965   9.162   3.569   5.734
  202POPC   NC3 2966   5.833   1.060   3.913
  202POPC   PO4 2967   5.379   1.550   3.858
  202POPC   GL1 2968   5.449   1.541   4.277
  202POPC   GL2 2969   5.499   1.195   4.284
  202POPC   C1A 2970   5.640   1.420   4.693
  202POPC   D2A 2971   5.461   1.375   5.080
  202POPC   C3A 2972   5.767   1.483   5.365
  202POPC   C4A 2973   5.968   1.668   5.715
  202POPC   C1B 2974   5.434   0.949   4.691
  202POPC   C2B 2975   5.509   0.852   5.120
  202POPC   C3B 2976   5.502   1.063   5.512
  202POPC   C4B 2977   5.962   1.116   5.683
  203POPC   NC3 2978   9.559   2.760   3.836
  203POPC   PO4 2979  10.120   2.440   3.838
  203POPC   GL1 2980   9.889   2.392   4.228
  203POPC   GL2 2981   9.615   2.629   4.331
  203POPC   C1A 2982   9.977   2.482   4.661
  203POPC   D2A 2983   9.871   2.276   5.035
  203POPC   C3A 2984   9.924   2.525   5.394
  203POPC   C4A 2985   9.886   2.572   5.835
  203POPC   C1B 2986   9.522   2.766   4.768
  203POPC   C2B 2987   9.413   2.542   5.140
  203POPC   C3B 2988   9.459   2.653   5.553
  203POPC   C4B 2989   9.724   3.019   5.653
  204POPC   NC3 2990  11.362   5.201   4.147
  204POPC   PO4 2991  10.762   4.832   4.193
  204POPC   GL1 2992  10.819   4.891   4.542
  204POPC   GL2 2993  10.949   5.237   4.471
  204POPC   C1A 2994  10.734   4.722   4.955
  204POPC   D2A 2995  10.981   4.804   5.317
  204POPC   C3A 2996  10.884   4.968   5.675
  204POPC   C4A 2997  10.724   5.354   5.699
  204POPC   C1B 2998  11.177   5.038   4.838
  204POPC   C2B 2999  11.471   4.905   5.118
  204POPC   C3B 3000  11.413   5.050   5.503
  204POPC   C4B 3001  11.449   4.826   5.821
  205POPC   NC3 3002  10.299   3.637   3.852
  205POPC   PO4 3003  10.913   3.979   3.915
  205POPC   GL1 3004  10.639   3.671   4.252
  205POPC   GL2 3005  10.287   3.521   4.333
  205POPC   C1A 3006  10.620   3.400   4.691
  205POPC   D2A 3007  10.550   3.592   5.117
  205POPC   C3A 3008  10.514   3.321   5.481
  205POPC   C4A 3009  10.779   3.311   5.824
  205POPC   C1B 3010  10.286   3.797   4.698
  205POPC   C2B 3011  10.112   3.881   5.122
  205POPC   C3B 3012  10.231   3.746   5.549
  205POPC   C4B 3013  10.156   3.373   5.861
  206POPC   NC3 3014   3.665   1.044   3.762
  206POPC   PO4 3015   3.551   1.596   3.665
  206POPC   GL1 3016   3.402   1.388   4.296
  206POPC   GL2 3017   3.456   1.018   4.243
  206POPC   C1A 3018   3.673   1.178   4.687
  206POPC   D2A 3019   3.817   0.935   5.095
  206POPC   C3A 3020   3.721   1.107   5.544
  206POPC   C4A 3021   3.667   1.410   5.904
  206POPC   C1B 3022   3.332   0.811   4.616
  206POPC   C2B 3023   3.306   0.984   5.029
  206POPC   C3B 3024   3.214   1.146   5.429
  206POPC   C4B 3025   3.289   1.067   5.855
  207POPC   NC3 3026   5.645   9.815   3.922
  207POPC   PO4 3027   5.408   9.281   4.188
  207POPC   GL1 3028   5.641   9.530   4.476
  207POPC   GL2 3029   5.636   9.876   4.427
  207POPC   C1A 3030   5.779   9.582   4.926
  207POPC   D2A 3031   5.744   9.473   5.396
  207POPC   C3A 3032   6.128   9.542   5.713
  207POPC   C4A 3033   6.335   9.519   6.154
  207POPC   C1B 3034   5.336   9.801   4.787
  207POPC   C2B 3035   5.244   9.577   5.211
  207POPC   C3B 3036   5.351   9.678   5.668
  207POPC   C4B 3037   5.471   9.954   6.073
  208POPC   NC3 3038   0.507  11.397   3.923
  208POPC   PO4 3039   0.795  10.779   3.872
  208POPC   GL1 3040   0.693  11.022   4.220
  208POPC   GL2 3041   0.320  11.084   4.291
  208POPC   C1A 3042   0.724  11.123   4.645
  208POPC   D2A 3043   0.801  11.243   5.071
  208POPC   C3A 3044   0.910  10.909   5.353
  208POPC   C4A 3045   0.616  10.834   5.677
  208POPC   C1B 3046   0.281  10.841   4.704
  208POPC   C2B 3047   0.392  10.870   5.182
  208POPC   C3B 3048   0.270  11.183   5.526
  208POPC   C4B 3049   0.106   0.119   5.595
  209POPC   NC3 3050   3.301  10.275   3.648
  209POPC   PO4 3051   3.702   9.889   4.043
  209POPC   GL1 3052   3.650   9.812   4.421
  209POPC   GL2 3053   3.799   9.480   4.378
  209POPC   C1A 3054   3.280   9.841   4.712
  209POPC   D2A 3055   3.262   9.680   5.117
  209POPC   C3A 3056   3.457   9.779   5.502
  209POPC   C4A 3057   3.281   9.999   5.810
  209POPC   C1B 3058   3.602   9.449   4.809
  209POPC   C2B 3059   3.650   9.346   5.269
  209POPC   C3B 3060   3.558   9.327   5.724
  209POPC   C4B 3061   3.685   9.255   6.180
  210POPC   NC3 3062   0.194   8.008   3.386
  210POPC   PO4 3063   0.304   7.794   4.052
  210POPC   GL1 3064   0.256   7.994   4.377
  210POPC   GL2 3065   0.543   8.174   4.319
  210POPC   C1A 3066   0.443   7.875   4.764
  210POPC   D2A 3067   0.224   7.805   5.123
  210POPC   C3A 3068   0.344   7.987   5.523
  210POPC   C4A 3069   0.137   8.296   5.738
  210POPC   C1B 3070   0.389   8.368   4.688
  210POPC   C2B 3071   0.509   8.324   5.072
  210POPC   C3B 3072   0.506   8.503   5.433
  210POPC   C4B 3073   0.626   8.403   5.839
  211POPC   NC3 3074   7.831  10.382   3.946
  211POPC   PO4 3075   8.430  10.757   3.893
  211POPC   GL1 3076   8.309  10.557   4.291
  211POPC   GL2 3077   8.224  10.187   4.229
  211POPC   C1A 3078   8.091  10.702   4.703
  211POPC   D2A 3079   7.879  10.768   5.123
  211POPC   C3A 3080   8.157  10.642   5.484
  211POPC   C4A 3081   8.236  10.403   5.858
  211POPC   C1B 3082   8.056  10.186   4.635
  211POPC   C2B 3083   8.132  10.326   5.061
  211POPC   C3B 3084   7.999  10.141   5.466
  211POPC   C4B 3085   7.892  10.026   5.901
  212POPC   NC3 3086   1.661   5.398   4.031
  212POPC   PO4 3087   1.857   6.011   3.785
  212POPC   GL1 3088   1.777   5.949   4.216
  212POPC   GL2 3089   1.994   5.729   4.334
  212POPC   C1A 3090   1.605   5.973   4.619
  212POPC   D2A 3091   1.662   5.974   5.045
  212POPC   C3A 3092   1.917   6.045   5.383
  212POPC   C4A 3093   1.784   5.958   5.814
  212POPC   C1B 3094   1.933   5.615   4.759
  212POPC   C2B 3095   1.945   5.531   5.197
  212POPC   C3B 3096   2.003   5.515   5.642
  212POPC   C4B 3097   1.959   5.278   6.009
  213POPC   NC3 3098   5.577  11.414   3.479
  213POPC   PO4 3099   6.163   0.213   3.800
  213POPC   GL1 3100   6.112   0.089   4.241
  213POPC   GL2 3101   5.906  11.304   4.255
  213POPC   C1A 3102   5.979   0.074   4.702
  213POPC   D2A 3103   6.076  11.260   5.030
  213POPC   C3A 3104   6.089  11.452   5.408
  213POPC   C4A 3105   6.136  11.237   5.785
  213POPC   C1B 3106   5.783  11.094   4.629
  213POPC   C2B 3107   5.644  10.952   5.047
  213POPC   C3B 3108   5.749  11.097   5.424
  213POPC   C4B 3109   5.636  11.214   5.807
  214POPC   NC3 3110   0.242   4.912   3.809
  214POPC   PO4 3111   0.869   4.560   3.895
  214POPC   GL1 3112   0.728   4.800   4.271
  214POPC   GL2 3113   0.389   4.897   4.312
  214POPC   C1A 3114   0.749   4.974   4.695
  214POPC   D2A 3115   0.751   4.821   5.113
  214POPC   C3A 3116   0.387   4.694   5.374
  214POPC   C4A 3117   0.463   4.797   5.803
  214POPC   C1B 3118   0.231   5.049   4.691
  214POPC   C2B 3119   0.416   5.244   5.048
  214POPC   C3B 3120   0.410   5.203   5.488
  214POPC   C4B 3121   0.192   5.265   5.899
  215POPC   NC3 3122   5.597   0.103   3.960
  215POPC   PO4 3123   5.420   0.828   3.945
  215POPC   GL1 3124   5.668   0.684   4.306
  215POPC   GL2 3125   5.679   0.329   4.379
  215POPC   C1A 3126   5.828   0.605   4.760
  215POPC   D2A 3127   5.865   0.383   5.147
  215POPC   C3A 3128   5.795   0.632   5.536
  215POPC   C4A 3129   5.623   0.812   5.932
  215POPC   C1B 3130   5.466   0.025   4.641
  215POPC   C2B 3131   5.600  11.449   5.067
  215POPC   C3B 3132   5.606   0.109   5.483
  215POPC   C4B 3133   5.904   0.218   5.804
  216POPC   NC3 3134   2.866   7.665   4.027
  216POPC   PO4 3135   2.361   8.096   3.970
  216POPC   GL1 3136   2.625   8.036   4.312
  216POPC   GL2 3137   2.351   8.036   4.498
  216POPC   C1A 3138   2.880   7.946   4.702
  216POPC   D2A 3139   2.828   8.094   5.163
  216POPC   C3A 3140   2.957   8.012   5.612
  216POPC   C4A 3141   2.696   7.864   5.975
  216POPC   C1B 3142   2.548   8.328   4.774
  216POPC   C2B 3143   2.362   8.301   5.180
  216POPC   C3B 3144   2.498   8.229   5.594
  216POPC   C4B 3145   2.666   8.374   5.980
  217POPC   NC3 3146   1.826   6.481   3.906
  217POPC   PO4 3147   2.433   6.418   3.871
  217POPC   GL1 3148   2.212   6.207   4.214
  217POPC   GL2 3149   2.044   6.500   4.362
  217POPC   C1A 3150   2.064   6.135   4.688
  217POPC   D2A 3151   2.221   6.394   5.044
  217POPC   C3A 3152   2.126   6.549   5.462
  217POPC   C4A 3153   1.759   6.443   5.693
  217POPC   C1B 3154   1.801   6.571   4.764
  217POPC   C2B 3155   1.702   6.578   5.196
  217POPC   C3B 3156   1.756   6.917   5.508
  217POPC   C4B 3157   2.019   6.857   5.873
  218POPC   NC3 3158   0.499   3.355   3.953
  218POPC   PO4 3159   0.110   3.910   3.944
  218POPC   GL1 3160   0.384   3.759   4.286
  218POPC   GL2 3161   0.376   3.440   4.426
  218POPC   C1A 3162   0.620   3.842   4.657
  218POPC   D2A 3163   0.386   3.787   5.050
  218POPC   C3A 3164   0.508   3.673   5.466
  218POPC   C4A 3165   0.273   3.768   5.795
  218POPC   C1B 3166   0.394   3.210   4.756
  218POPC   C2B 3167   0.505   3.284   5.145
  218POPC   C3B 3168   0.286   3.187   5.477
  218POPC   C4B 3169   0.443   3.284   5.827
  219POPC   NC3 3170  10.272   7.053   4.028
  219POPC   PO4 3171  10.914   7.346   3.964
  219POPC   GL1 3172  10.815   7.123   4.299
  219POPC   GL2 3173  10.510   7.275   4.402
  219POPC   C1A 3174  10.839   7.061   4.723
  219POPC   D2A 3175  10.708   6.915   5.118
  219POPC   C3A 3176  10.661   7.136   5.499
  219POPC   C4A 3177  10.289   7.095   5.726
  219POPC   C1B 3178  10.611   7.655   4.626
  219POPC   C2B 3179  10.447   7.761   5.033
  219POPC   C3B 3180  10.316   7.467   5.325
  219POPC   C4B 3181  10.465   7.585   5.703
  220POPC   NC3 3182  10.562   4.505   3.951
  220POPC   PO4 3183  10.112   4.010   4.066
  220POPC   GL1 3184  10.231   4.355   4.326
  220POPC   GL2 3185  10.529   4.471   4.456
  220POPC   C1A 3186  10.185   4.289   4.760
  220POPC   D2A 3187  10.429   4.293   5.079
  220POPC   C3A 3188  10.186   4.267   5.442
  220POPC   C4A 3189  10.086   4.405   5.830
  220POPC   C1B 3190  10.691   4.112   4.635
  220POPC   C2B 3191  10.861   4.019   5.042
  220POPC   C3B 3192  10.811   4.294   5.399
  220POPC   C4B 3193  10.579   4.198   5.757
  221POPC   NC3 3194   5.041   8.217   3.835
  221POPC   PO4 3195   4.842   7.698   4.148
  221POPC   GL1 3196   4.908   7.983   4.482
  221POPC   GL2 3197   4.950   8.291   4.323
  221POPC   C1A 3198   4.819   8.097   4.918
  221POPC   D2A 3199   4.548   8.265   5.243
  221POPC   C3A 3200   4.521   8.044   5.631
  221POPC   C4A 3201   4.767   7.759   5.892
  221POPC   C1B 3202   5.194   8.387   4.688
  221POPC   C2B 3203   5.264   8.234   5.126
  221POPC   C3B 3204   5.015   8.155   5.510
  221POPC   C4B 3205   4.875   8.279   5.938
  222POPC   NC3 3206   1.233   4.271   3.922
  222POPC   PO4 3207   1.214   3.720   4.065
  222POPC   GL1 3208   1.055   3.996   4.392
  222POPC   GL2 3209   1.052   4.382   4.370
  222POPC   C1A 3210   1.071   4.007   4.859
  222POPC   D2A 3211   1.312   3.957   5.240
  222POPC   C3A 3212   1.267   4.199   5.664
  222POPC   C4A 3213   1.507   4.039   6.057
  222POPC   C1B 3214   1.041   4.526   4.779
  222POPC   C2B 3215   1.125   4.429   5.192
  222POPC   C3B 3216   0.861   4.532   5.518
  222POPC   C4B 3217   0.923   4.575   5.903
  223POPC   NC3 3218   2.703   8.402   3.953
  223POPC   PO4 3219   2.696   9.037   3.940
  223POPC   GL1 3220   2.789   8.788   4.309
  223POPC   GL2 3221   2.488   8.642   4.384
  223POPC   C1A 3222   2.846   8.800   4.780
  223POPC   D2A 3223   2.762   8.605   5.169
  223POPC   C3A 3224   2.818   8.660   5.590
  223POPC   C4A 3225   3.108   8.629   5.953
  223POPC   C1B 3226   2.487   9.090   4.596
  223POPC   C2B 3227   2.528   9.217   5.055
  223POPC   C3B 3228   2.652   9.148   5.507
  223POPC   C4B 3229   3.073   9.094   5.724
  224POPC   NC3 3230  10.232   0.299   3.904
  224POPC   PO4 3231  10.718   0.094   4.253
  224POPC   GL1 3232  10.355   0.274   4.461
  224POPC   GL2 3233  10.233   0.606   4.352
  224POPC   C1A 3234  10.246   0.338   4.904
  224POPC   D2A 3235  10.351   0.544   5.261
  224POPC   C3A 3236  10.455   0.267   5.606
  224POPC   C4A 3237  10.077   0.100   5.749
  224POPC   C1B 3238  10.561   0.686   4.714
  224POPC   C2B 3239  10.829   0.693   5.117
  224POPC   C3B 3240  10.672   0.782   5.557
  224POPC   C4B 3241  10.617   0.684   6.012
  225POPC   NC3 3242   2.192   3.037   4.005
  225POPC   PO4 3243   1.753   2.799   3.653
  225POPC   GL1 3244   1.768   2.648   4.158
  225POPC   GL2 3245   2.084   2.595   4.244
  225POPC   C1A 3246   1.695   2.758   4.636
  225POPC   D2A 3247   1.621   2.933   5.069
  225POPC   C3A 3248   1.789   2.698   5.425
  225POPC   C4A 3249   1.726   2.839   5.833
  225POPC   C1B 3250   2.200   2.816   4.620
  225POPC   C2B 3251   2.122   2.847   5.056
  225POPC   C3B 3252   2.332   2.787   5.435
  225POPC   C4B 3253   2.192   2.630   5.826
  226POPC   NC3 3254   6.889   7.933   3.869
  226POPC   PO4 3255   7.004   8.481   3.847
  226POPC   GL1 3256   7.035   8.399   4.305
  226POPC   GL2 3257   7.350   8.260   4.405
  226POPC   C1A 3258   7.045   8.447   4.792
  226POPC   D2A 3259   7.256   8.306   5.192
  226POPC   C3A 3260   7.104   8.311   5.614
  226POPC   C4A 3261   7.044   8.020   5.967
  226POPC   C1B 3262   7.559   8.424   4.794
  226POPC   C2B 3263   7.760   8.319   5.201
  226POPC   C3B 3264   7.600   8.198   5.605
  226POPC   C4B 3265   7.481   8.293   6.048
  227POPC   NC3 3266   1.328   0.306   4.026
  227POPC   PO4 3267   1.138   0.945   3.958
  227POPC   GL1 3268   1.099   0.740   4.367
  227POPC   GL2 3269   0.976   0.391   4.415
  227POPC   C1A 3270   1.015   0.721   4.809
  227POPC   D2A 3271   0.806   0.871   5.158
  227POPC   C3A 3272   1.063   0.726   5.502
  227POPC   C4A 3273   1.239   0.676   5.912
  227POPC   C1B 3274   1.382   0.391   4.692
  227POPC   C2B 3275   1.260   0.324   5.128
  227POPC   C3B 3276   1.414   0.298   5.533
  227POPC   C4B 3277   1.464  11.440   5.830
  228POPC   NC3 3278  10.861   7.805   3.901
  228POPC   PO4 3279  11.452   7.699   3.650
  228POPC   GL1 3280  11.350   7.552   4.149
  228POPC   GL2 3281  11.330   7.218   4.232
  228POPC   C1A 3282  11.100   7.495   4.609
  228POPC   D2A 3283  10.863   7.440   5.059
  228POPC   C3A 3284  10.998   7.585   5.492
  228POPC   C4A 3285  10.914   7.593   5.961
  228POPC   C1B 3286  11.343   7.049   4.641
  228POPC   C2B 3287  11.221   6.903   5.038
  228POPC   C3B 3288  11.167   7.084   5.443
  228POPC   C4B 3289  11.275   7.277   5.839
  229POPC   NC3 3290   4.418   2.618   3.955
  229POPC   PO4 3291   3.979   2.949   4.037
  229POPC   GL1 3292   4.033   2.660   4.411
  229POPC   GL2 3293   4.282   2.370   4.375
  229POPC   C1A 3294   3.870   2.738   4.837
  229POPC   D2A 3295   3.651   2.627   5.228
  229POPC   C3A 3296   3.848   2.678   5.639
  229POPC   C4A 3297   4.111   2.655   6.038
  229POPC   C1B 3298   4.309   2.456   4.804
  229POPC   C2B 3299   4.149   2.491   5.209
  229POPC   C3B 3300   4.291   2.419   5.609
  229POPC   C4B 3301   4.567   2.725   5.782
  230POPC   NC3 3302   4.810  10.101   3.879
  230POPC   PO4 3303   5.465  10.240   3.910
  230POPC   GL1 3304   5.415  10.326   4.318
  230POPC   GL2 3305   5.267  10.665   4.328
  230POPC   C1A 3306   5.229  10.310   4.719
  230POPC   D2A 3307   4.978  10.437   5.070
  230POPC   C3A 3308   5.076  10.125   5.366
  230POPC   C4A 3309   5.395  10.183   5.632
  230POPC   C1B 3310   4.895  10.726   4.599
  230POPC   C2B 3311   4.778  10.924   5.000
  230POPC   C3B 3312   4.750  10.777   5.393
  230POPC   C4B 3313   5.092  10.592   5.629
  231POPC   NC3 3314  10.489   2.669   4.021
  231POPC   PO4 3315  10.770   3.284   3.909
  231POPC   GL1 3316  10.803   3.010   4.287
  231POPC   GL2 3317  10.485   2.983   4.433
  231POPC   C1A 3318  10.960   2.944   4.712
  231POPC   D2A 3319  10.808   3.102   5.119
  231POPC   C3A 3320  10.806   2.878   5.528
  231POPC   C4A 3321  10.732   2.602   5.877
  231POPC   C1B 3322  10.552   2.592   4.682
  231POPC   C2B 3323  10.405   2.376   5.065
  231POPC   C3B 3324  10.417   2.515   5.490
  231POPC   C4B 3325  10.260   2.888   5.685
  232POPC   NC3 3326   7.249  10.799   4.048
  232POPC   PO4 3327   6.929  11.344   3.860
  232POPC   GL1 3328   7.038  11.221   4.298
  232POPC   GL2 3329   7.354  11.093   4.447
  232POPC   C1A 3330   6.929  11.226   4.751
  232POPC   D2A 3331   7.007  11.416   5.178
  232POPC   C3A 3332   7.039  11.178   5.584
  232POPC   C4A 3333   6.829  11.308   5.983
  232POPC   C1B 3334   7.366  10.921   4.870
  232POPC   C2B 3335   7.494  11.235   5.180
  232POPC   C3B 3336   7.519  11.379   5.582
  232POPC   C4B 3337   7.513  10.942   5.798
  233POPC   NC3 3338   1.560   3.734   3.775
  233POPC   PO4 3339   1.664   3.137   4.059
  233POPC   GL1 3340   1.644   3.517   4.273
  233POPC   GL2 3341   1.988   3.519   4.283
  233POPC   C1A 3342   1.516   3.755   4.652
  233POPC   D2A 3343   1.753   3.949   4.965
  233POPC   C3A 3344   1.770   3.788   5.363
  233POPC   C4A 3345   1.876   3.657   5.746
  233POPC   C1B 3346   1.954   3.269   4.687
  233POPC   C2B 3347   1.984   3.347   5.127
  233POPC   C3B 3348   1.987   3.173   5.534
  233POPC   C4B 3349   2.045   3.216   5.989
  234POPC   NC3 3350   9.014   1.921   3.844
  234POPC   PO4 3351   8.457   2.319   3.997
  234POPC   GL1 3352   8.832   2.179   4.241
  234POPC   GL2 3353   8.755   1.850   4.271
  234POPC   C1A 3354   9.013   2.089   4.678
  234POPC   D2A 3355   8.972   2.295   5.067
  234POPC   C3A 3356   9.010   2.017   5.398
  234POPC   C4A 3357   9.004   2.076   5.813
  234POPC   C1B 3358   8.534   1.983   4.613
  234POPC   C2B 3359   8.592   1.856   5.044
  234POPC   C3B 3360   8.333   1.922   5.406
  234POPC   C4B 3361   8.487   1.935   5.825
  235POPC   NC3 3362   9.692   0.374   3.640
  235POPC   PO4 3363   9.319   0.810   3.939
  235POPC   GL1 3364   9.500   0.586   4.287
  235POPC   GL2 3365   9.769   0.361   4.171
  235POPC   C1A 3366   9.335   0.502   4.697
  235POPC   D2A 3367   9.197   0.631   5.106
  235POPC   C3A 3368   9.328   0.305   5.334
  235POPC   C4A 3369   9.515   0.201   5.705
  235POPC   C1B 3370   9.844   0.420   4.617
  235POPC   C2B 3371   9.740   0.429   5.055
  235POPC   C3B 3372   9.851   0.520   5.486
  235POPC   C4B 3373  10.192   0.667   5.750
  236POPC   NC3 3374   8.871   0.951   3.970
  236POPC   PO4 3375   8.570   1.612   3.836
  236POPC   GL1 3376   8.666   1.360   4.201
  236POPC   GL2 3377   9.045   1.416   4.167
  236POPC   C1A 3378   8.602   1.462   4.661
  236POPC   D2A 3379   8.593   1.323   5.100
  236POPC   C3A 3380   8.720   1.582   5.475
  236POPC   C4A 3381   9.083   1.576   5.738
  236POPC   C1B 3382   9.031   1.178   4.569
  236POPC   C2B 3383   9.128   1.139   5.005
  236POPC   C3B 3384   8.965   1.129   5.412
  236POPC   C4B 3385   9.058   1.060   5.824
  237POPC   NC3 3386   0.252   7.351   3.890
  237POPC   PO4 3387   0.880   7.012   3.905
  237POPC   GL1 3388   0.647   7.108   4.329
  237POPC   GL2 3389   0.321   7.262   4.367
  237POPC   C1A 3390   0.600   7.322   4.782
  237POPC   D2A 3391   0.343   7.237   5.182
  237POPC   C3A 3392   0.450   7.233   5.662
  237POPC   C4A 3393   0.199   7.133   6.063
  237POPC   C1B 3394   0.112   7.474   4.690
  237POPC   C2B 3395  11.378   7.410   5.076
  237POPC   C3B 3396   0.030   7.534   5.504
  237POPC   C4B 3397   0.256   7.622   5.912
  238POPC   NC3 3398   5.524   1.973   3.956
  238POPC   PO4 3399   5.930   2.358   4.069
  238POPC   GL1 3400   5.827   2.019   4.362
  238POPC   GL2 3401   5.944   1.693   4.272
  238POPC   C1A 3402   5.510   1.902   4.690
  238POPC   D2A 3403   5.330   1.870   5.131
  238POPC   C3A 3404   5.594   1.952   5.501
  238POPC   C4A 3405   5.847   2.160   5.842
  238POPC   C1B 3406   6.026   1.752   4.754
  238POPC   C2B 3407   6.040   1.908   5.204
  238POPC   C3B 3408   6.287   2.060   5.564
  238POPC   C4B 3409   6.289   1.975   6.021
  239POPC   NC3 3410   0.691   6.636   4.113
  239POPC   PO4 3411   0.102   6.900   3.954
  239POPC   GL1 3412   0.226   6.752   4.318
  239POPC   GL2 3413   0.157   6.401   4.256
  239POPC   C1A 3414   0.311   6.897   4.730
  239POPC   D2A 3415   0.451   6.731   5.071
  239POPC   C3A 3416   0.344   6.771   5.493
  239POPC   C4A 3417   0.650   6.579   5.762
  239POPC   C1B 3418   0.366   6.387   4.668
  239POPC   C2B 3419   0.441   6.215   5.095
  239POPC   C3B 3420   0.317   6.265   5.511
  239POPC   C4B 3421   0.384   6.077   5.916
  240POPC   NC3 3422  10.505   9.657   3.752
  240POPC   PO4 3423  10.853   9.139   3.748
  240POPC   GL1 3424  10.496   9.296   4.124
  240POPC   GL2 3425  10.483   9.639   4.265
  240POPC   C1A 3426  10.433   9.309   4.638
  240POPC   D2A 3427  10.577   9.218   5.091
  240POPC   C3A 3428  10.352   9.398   5.422
  240POPC   C4A 3429  10.568   9.732   5.624
  240POPC   C1B 3430  10.284   9.823   4.640
  240POPC   C2B 3431  10.352   9.825   5.095
  240POPC   C3B 3432  10.109   9.861   5.479
  240POPC   C4B 3433  10.254  10.034   5.883
  241POPC   NC3 3434   4.843  11.152   3.809
  241POPC   PO4 3435   5.593  11.134   3.852
  241POPC   GL1 3436   5.391  11.175   4.255
  241POPC   GL2 3437   5.032  11.224   4.281
  241POPC   C1A 3438   5.272  11.051   4.691
  241POPC   D2A 3439   5.121  11.297   5.026
  241POPC   C3A 3440   5.211  11.096   5.419
  241POPC   C4A 3441   5.191  11.419   5.711
  241POPC   C1B 3442   4.752  11.291   4.646
  241POPC   C2B 3443   4.606  11.430   5.056
  241POPC   C3B 3444   4.535  11.262   5.446
  241POPC   C4B 3445   4.774  11.133   5.756
  242POPC   NC3 3446  11.277   5.988   3.553
  242POPC   PO4 3447  10.976   5.617   4.033
  242POPC   GL1 3448  11.130   5.718   4.415
  242POPC   GL2 3449  11.438   5.676   4.294
  242POPC   C1A 3450  11.215   5.553   4.841
  242POPC   D2A 3451  11.061   5.368   5.267
  242POPC   C3A 3452  11.048   5.715   5.589
  242POPC   C4A 3453  10.895   6.135   5.546
  242POPC   C1B 3454   0.018   6.004   4.597
  242POPC   C2B 3455  11.261   6.076   4.939
  242POPC   C3B 3456  11.372   6.055   5.368
  242POPC   C4B 3457  11.382   6.236   5.792
  243POPC   NC3 3458   8.051  11.073   3.837
  243POPC   PO4 3459   7.665  10.742   4.214
  243POPC   GL1 3460   7.885  11.080   4.358
  243POPC   GL2 3461   8.233  11.092   4.303
  243POPC   C1A 3462   7.824  11.151   4.775
  243POPC   D2A 3463   8.003  11.266   5.151
  243POPC   C3A 3464   7.925  11.081   5.556
  243POPC   C4A 3465   7.858  11.298   5.961
  243POPC   C1B 3466   8.356  11.144   4.722
  243POPC   C2B 3467   8.391  10.939   5.104
  243POPC   C3B 3468   8.414  11.152   5.465
  243POPC   C4B 3469   8.343  11.173   5.894
  244POPC   NC3 3470   2.255   8.919   3.987
  244POPC   PO4 3471   1.738   9.331   3.864
  244POPC   GL1 3472   1.660   9.194   4.296
  244POPC   GL2 3473   1.835   8.935   4.305
  244POPC   C1A 3474   1.623   9.021   4.767
  244POPC   D2A 3475   1.813   8.738   5.129
  244POPC   C3A 3476   1.641   8.717   5.589
  244POPC   C4A 3477   1.667   8.959   5.996
  244POPC   C1B 3478   2.062   8.804   4.634
  244POPC   C2B 3479   2.317   8.759   4.958
  244POPC   C3B 3480   2.304   8.784   5.394
  244POPC   C4B 3481   2.147   9.041   5.738
  245POPC   NC3 3482   4.310   0.498   3.821
  245POPC   PO4 3483   4.124  11.369   3.906
  245POPC   GL1 3484   4.214   0.201   4.246
  245POPC   GL2 3485   4.214   0.547   4.347
  245POPC   C1A 3486   4.361   0.215   4.689
  245POPC   D2A 3487   4.150   0.269   5.079
  245POPC   C3A 3488   4.390   0.261   5.443
  245POPC   C4A 3489   4.339   0.273   5.884
  245POPC   C1B 3490   4.329   0.738   4.774
  245POPC   C2B 3491   4.558   0.698   5.184
  245POPC   C3B 3492   4.517   0.721   5.649
  245POPC   C4B 3493   4.050   0.667   5.738
  246POPC   NC3 3494   8.764   9.625   3.847
  246POPC   PO4 3495   9.435   9.335   3.892
  246POPC   GL1 3496   9.304   9.434   4.350
  246POPC   GL2 3497   9.010   9.648   4.305
  246POPC   C1A 3498   9.009   9.272   4.719
  246POPC   D2A 3499   8.786   9.143   5.149
  246POPC   C3A 3500   8.994   9.317   5.541
  246POPC   C4A 3501   9.061   9.224   6.018
  246POPC   C1B 3502   8.934   9.796   4.724
  246POPC   C2B 3503   8.836   9.646   5.155
  246POPC   C3B 3504   8.873   9.848   5.573
  246POPC   C4B 3505   9.203  10.036   5.821
  247POPC   NC3 3506   2.269   0.562   3.905
  247POPC   PO4 3507   1.776   0.178   4.029
  247POPC   GL1 3508   1.992   0.273   4.356
  247POPC   GL2 3509   2.111   0.615   4.376
  247POPC   C1A 3510   1.898   0.213   4.752
  247POPC   D2A 3511   1.767   0.147   5.123
  247POPC   C3A 3512   2.142   0.083   5.411
  247POPC   C4A 3513   2.045   0.039   5.829
  247POPC   C1B 3514   1.859   0.720   4.702
  247POPC   C2B 3515   1.645   0.652   5.079
  247POPC   C3B 3516   1.861   0.528   5.435
  247POPC   C4B 3517   2.124   0.565   5.749
  248POPC   NC3 3518  10.469   6.125   3.726
  248POPC   PO4 3519  10.615   6.740   3.960
  248POPC   GL1 3520  10.541   6.690   4.334
  248POPC   GL2 3521  10.410   6.362   4.243
  248POPC   C1A 3522  10.398   6.795   4.722
  248POPC   D2A 3523  10.238   6.541   5.043
  248POPC   C3A 3524  10.328   6.699   5.414
  248POPC   C4A 3525  10.039   6.596   5.725
  248POPC   C1B 3526  10.469   6.268   4.675
  248POPC   C2B 3527  10.363   6.015   5.010
  248POPC   C3B 3528  10.345   6.172   5.431
  248POPC   C4B 3529  10.499   6.371   5.773
  249POPC   NC3 3530   0.436   1.974   3.748
  249POPC   PO4 3531   0.082   2.273   4.168
  249POPC   GL1 3532   0.220   1.924   4.309
  249POPC   GL2 3533   0.544   1.987   4.262
  249POPC   C1A 3534   0.194   1.804   4.725
  249POPC   D2A 3535   0.359   1.945   5.094
  249POPC   C3A 3536   0.183   1.864   5.455
  249POPC   C4A 3537   0.005   2.220   5.644
  249POPC   C1B 3538   0.643   2.080   4.679
  249POPC   C2B 3539   0.668   2.332   5.051
  249POPC   C3B 3540   0.493   2.314   5.482
  249POPC   C4B 3541   0.487   2.004   5.823
  250POPC   NC3 3542   0.525   8.830   3.886
  250POPC   PO4 3543  11.435   8.465   3.813
  250POPC   GL1 3544   0.228   8.563   4.207
  250POPC   GL2 3545   0.576   8.679   4.348
  250POPC   C1A 3546   0.176   8.831   4.613
  250POPC   D2A 3547   0.327   8.814   5.049
  250POPC   C3A 3548   0.209   9.148   5.368
  250POPC   C4A 3549   0.058   9.161   5.800
  250POPC   C1B 3550   0.766   8.704   4.718
  250POPC   C2B 3551   0.864   8.729   5.100
  250POPC   C3B 3552   0.705   8.987   5.380
  250POPC   C4B 3553   0.463   8.887   5.750
  251POPC   NC3 3554  11.202  11.241   3.733
  251POPC   PO4 3555  10.700   0.127   3.754
  251POPC   GL1 3556  11.184   0.064   4.119
  251POPC   GL2 3557  11.329  11.247   4.223
  251POPC   C1A 3558  11.229   0.032   4.636
  251POPC   D2A 3559  11.051  11.268   5.016
  251POPC   C3A 3560  11.197  11.332   5.457
  251POPC   C4A 3561  11.132  11.497   5.894
  251POPC   C1B 3562  11.290  11.026   4.639
  251POPC   C2B 3563  11.371  10.820   5.030
  251POPC   C3B 3564  11.363  10.826   5.453
  251POPC   C4B 3565  11.172  10.972   5.829
  252POPC   NC3 3566   4.131   1.021   4.180
  252POPC   PO4 3567   4.612   1.406   3.834
  252POPC   GL1 3568   4.622   1.224   4.230
  252POPC   GL2 3569   4.381   1.423   4.374
  252POPC   C1A 3570   4.666   1.158   4.690
  252POPC   D2A 3571   4.549   1.194   5.108
  252POPC   C3A 3572   4.609   1.445   5.456
  252POPC   C4A 3573   4.753   1.228   5.804
  252POPC   C1B 3574   4.172   1.313   4.769
  252POPC   C2B 3575   4.082   1.357   5.205
  252POPC   C3B 3576   4.226   1.127   5.537
  252POPC   C4B 3577   4.154   1.465   5.767
  253POPC   NC3 3578   5.663  10.644   3.987
  253POPC   PO4 3579   6.022  10.051   4.016
  253POPC   GL1 3580   5.939  10.304   4.386
  253POPC   GL2 3581   6.007  10.681   4.363
  253POPC   C1A 3582   5.780  10.142   4.825
  253POPC   D2A 3583   5.581   9.961   5.208
  253POPC   C3A 3584   5.835   9.946   5.567
  253POPC   C4A 3585   5.870  10.292   5.798
  253POPC   C1B 3586   5.647  10.607   4.680
  253POPC   C2B 3587   5.508  10.468   5.126
  253POPC   C3B 3588   5.595  10.638   5.527
  253POPC   C4B 3589   5.947  10.778   5.785
  254POPC   NC3 3590   1.868  10.615   3.670
  254POPC   PO4 3591   2.446  10.957   3.853
  254POPC   GL1 3592   2.364  10.869   4.317
  254POPC   GL2 3593   2.178  10.565   4.393
  254POPC   C1A 3594   2.314  10.859   4.793
  254POPC   D2A 3595   2.067  10.643   5.087
  254POPC   C3A 3596   2.033  10.830   5.467
  254POPC   C4A 3597   2.207  10.692   5.866
  254POPC   C1B 3598   2.209  10.246   4.740
  254POPC   C2B 3599   2.170  10.124   5.197
  254POPC   C3B 3600   2.010  10.336   5.536
  254POPC   C4B 3601   1.672  10.554   5.701
  255POPC   NC3 3602   9.784  11.003   3.526
  255POPC   PO4 3603   9.330   0.017   3.667
  255POPC   GL1 3604   9.499  11.423   4.175
  255POPC   GL2 3605   9.710  11.142   4.409
  255POPC   C1A 3606   9.529   0.013   4.684
  255POPC   D2A 3607   9.442  11.332   5.136
  255POPC   C3A 3608   9.670  11.260   5.568
  255POPC   C4A 3609   9.737  11.424   6.067
  255POPC   C1B 3610   9.573  10.905   4.776
  255POPC   C2B 3611   9.257  10.840   5.091
  255POPC   C3B 3612   9.243  10.916   5.527
  255POPC   C4B 3613   9.507  10.911   5.901
  256POPC   NC3 3614   9.156   4.781   4.028
  256POPC   PO4 3615   8.614   5.018   3.920
  256POPC   GL1 3616   8.739   5.178   4.355
  256POPC   GL2 3617   9.078   5.126   4.422
  256POPC   C1A 3618   8.750   5.047   4.813
  256POPC   D2A 3619   8.768   4.866   5.253
  256POPC   C3A 3620   8.742   4.927   5.705
  256POPC   C4A 3621   8.414   4.914   6.030
  256POPC   C1B 3622   9.184   5.310   4.811
  256POPC   C2B 3623   9.202   5.249   5.252
  256POPC   C3B 3624   9.142   5.248   5.673
  256POPC   C4B 3625   9.226   4.954   5.991
  257POPC   NC3 3626   2.876   3.766   3.991
  257POPC   PO4 3627   2.655   3.162   3.944
  257POPC   GL1 3628   2.679   3.368   4.298
  257POPC   GL2 3629   2.400   3.259   4.440
  257POPC   C1A 3630   2.780   3.538   4.698
  257POPC   D2A 3631   2.961   3.384   5.077
  257POPC   C3A 3632   2.872   3.535   5.496
  257POPC   C4A 3633   3.120   3.429   5.858
  257POPC   C1B 3634   2.446   3.197   4.878
  257POPC   C2B 3635   2.469   3.262   5.298
  257POPC   C3B 3636   2.363   3.505   5.652
  257POPC   C4B 3637   2.619   3.509   5.977
  258POPC   NC3 3638   4.150  10.683   4.069
  258POPC   PO4 3639   4.401  10.087   4.084
  258POPC   GL1 3640   4.095  10.193   4.426
  258POPC   GL2 3641   3.802  10.340   4.327
  258POPC   C1A 3642   4.181  10.187   4.897
  258POPC   D2A 3643   4.558  10.127   5.182
  258POPC   C3A 3644   4.637  10.302   5.595
  258POPC   C4A 3645   4.661  10.647   5.876
  258POPC   C1B 3646   3.879  10.609   4.717
  258POPC   C2B 3647   3.864  10.514   5.149
  258POPC   C3B 3648   4.108  10.308   5.440
  258POPC   C4B 3649   4.209  10.437   5.855
  259POPC   NC3 3650   5.014   0.631   3.922
  259POPC   PO4 3651   5.187   0.007   3.724
  259POPC   GL1 3652   5.151   0.213   4.181
  259POPC   GL2 3653   4.793   0.232   4.308
  259POPC   C1A 3654   5.248   0.489   4.549
  259POPC   D2A 3655   5.346   0.387   4.999
  259POPC   C3A 3656   5.298   0.524   5.456
  259POPC   C4A 3657   5.384   0.352   5.892
  259POPC   C1B 3658   4.858   0.279   4.778
  259POPC   C2B 3659   4.887   0.316   5.239
  259POPC   C3B 3660   4.853   0.313   5.697
  259POPC   C4B 3661   4.832   0.480   6.118
  260POPC   NC3 3662   1.905   7.983   3.973
  260POPC   PO4 3663   1.908   8.637   3.912
  260POPC   GL1 3664   2.040   8.408   4.297
  260POPC   GL2 3665   1.755   8.233   4.393
  260POPC   C1A 3666   2.025   8.332   4.792
  260POPC   D2A 3667   1.752   8.220   5.148
  260POPC   C3A 3668   1.994   8.355   5.513
  260POPC   C4A 3669   2.195   8.551   5.841
  260POPC   C1B 3670   1.860   7.863   4.660
  260POPC   C2B 3671   1.793   7.692   5.094
  260POPC   C3B 3672   1.784   7.848   5.520
  260POPC   C4B 3673   1.562   8.213   5.700
  261POPC   NC3 3674   8.820   2.665   4.061
  261POPC   PO4 3675   9.330   3.003   4.141
  261POPC   GL1 3676   9.103   2.850   4.488
  261POPC   GL2 3677   9.111   2.536   4.476
  261POPC   C1A 3678   9.002   2.819   4.934
  261POPC   D2A 3679   8.967   2.736   5.382
  261POPC   C3A 3680   9.182   3.040   5.679
  261POPC   C4A 3681   9.176   3.172   6.063
  261POPC   C1B 3682   8.675   2.487   4.680
  261POPC   C2B 3683   8.465   2.346   5.075
  261POPC   C3B 3684   8.625   2.359   5.514
  261POPC   C4B 3685   8.594   2.756   5.753
  262POPC   NC3 3686   3.235  10.852   3.947
  262POPC   PO4 3687   3.267   0.019   3.959
  262POPC   GL1 3688   3.171  11.367   4.341
  262POPC   GL2 3689   3.429  11.160   4.350
  262POPC   C1A 3690   3.199  11.335   4.803
  262POPC   D2A 3691   3.252  11.134   5.198
  262POPC   C3A 3692   3.229  11.356   5.570
  262POPC   C4A 3693   3.310  11.421   6.006
  262POPC   C1B 3694   3.702  11.102   4.699
  262POPC   C2B 3695   3.730  11.003   5.126
  262POPC   C3B 3696   3.655  11.050   5.543
  262POPC   C4B 3697   3.798  10.692   5.711
  263POPC   NC3 3698  11.220   2.103   3.966
  263POPC   PO4 3699   0.111   1.577   3.909
  263POPC   GL1 3700  11.262   1.696   4.284
  263POPC   GL2 3701  10.931   1.939   4.322
  263POPC   C1A 3702  11.201   1.895   4.733
  263POPC   D2A 3703  11.342   2.078   5.115
  263POPC   C3A 3704  11.174   1.861   5.478
  263POPC   C4A 3705  11.386   1.805   5.901
  263POPC   C1B 3706  10.735   2.120   4.699
  263POPC   C2B 3707  10.830   2.078   5.124
  263POPC   C3B 3708  10.707   2.105   5.532
  263POPC   C4B 3709  10.990   2.159   5.849
  264POPC   NC3 3710   4.333   1.775   3.759
  264POPC   PO4 3711   3.833   1.365   4.074
  264POPC   GL1 3712   3.910   1.643   4.437
  264POPC   GL2 3713   4.156   1.849   4.237
  264POPC   C1A 3714   3.911   1.729   4.893
  264POPC   D2A 3715   4.024   2.012   5.204
  264POPC   C3A 3716   4.143   1.932   5.589
  264POPC   C4A 3717   3.882   1.879   5.932
  264POPC   C1B 3718   4.304   1.933   4.664
  264POPC   C2B 3719   4.430   1.736   5.069
  264POPC   C3B 3720   4.638   1.963   5.431
  264POPC   C4B 3721   4.733   2.235   5.806
  265POPC   NC3 3722   1.124   6.628   3.750
  265POPC   PO4 3723   1.491   6.424   4.207
  265POPC   GL1 3724   1.315   6.406   4.554
  265POPC   GL2 3725   1.000   6.379   4.437
  265POPC   C1A 3726   1.295   6.638   4.910
  265POPC   D2A 3727   1.287   6.875   5.263
  265POPC   C3A 3728   1.308   6.666   5.642
  265POPC   C4A 3729   1.533   6.879   5.988
  265POPC   C1B 3730   0.834   6.450   4.831
  265POPC   C2B 3731   0.869   6.531   5.262
  265POPC   C3B 3732   0.837   6.195   5.503
  265POPC   C4B 3733   1.036   6.263   5.874
  266POPC   NC3 3734   1.387   6.079   3.933
  266POPC   PO4 3735   1.189   5.446   3.943
  266POPC   GL1 3736   1.311   5.673   4.295
  266POPC   GL2 3737   1.048   5.886   4.292
  266POPC   C1A 3738   1.398   5.524   4.716
  266POPC   D2A 3739   1.256   5.668   5.127
  266POPC   C3A 3740   1.534   5.655   5.450
  266POPC   C4A 3741   1.515   5.486   5.824
  266POPC   C1B 3742   1.120   5.966   4.724
  266POPC   C2B 3743   1.206   6.187   5.098
  266POPC   C3B 3744   1.354   6.120   5.502
  266POPC   C4B 3745   1.068   5.759   5.637
  267POPC   NC3 3746   7.257   2.201   3.944
  267POPC   PO4 3747   7.099   1.570   3.678
  267POPC   GL1 3748   7.218   1.720   4.099
  267POPC   GL2 3749   7.562   1.848   4.195
  267POPC   C1A 3750   7.146   1.918   4.535
  267POPC   D2A 3751   7.179   1.982   5.002
  267POPC   C3A 3752   6.875   1.934   5.344
  267POPC   C4A 3753   7.032   1.767   5.730
  267POPC   C1B 3754   7.653   1.932   4.649
  267POPC   C2B 3755   7.662   1.804   5.080
  267POPC   C3B 3756   7.454   1.953   5.454
  267POPC   C4B 3757   7.158   2.256   5.606
  268POPC   NC3 3758  10.306   8.254   3.628
  268POPC   PO4 3759  10.053   7.739   3.875
  268POPC   GL1 3760  10.365   7.875   4.213
  268POPC   GL2 3761  10.426   8.253   4.273
  268POPC   C1A 3762  10.174   7.933   4.649
  268POPC   D2A 3763   9.943   8.060   5.022
  268POPC   C3A 3764  10.113   7.932   5.401
  268POPC   C4A 3765  10.132   7.951   5.810
  268POPC   C1B 3766  10.422   8.369   4.732
  268POPC   C2B 3767  10.305   8.361   5.184
  268POPC   C3B 3768  10.540   8.196   5.561
  268POPC   C4B 3769  10.598   8.377   5.970
  269POPC   NC3 3770   2.835   9.488   3.894
  269POPC   PO4 3771   2.227   9.818   3.900
  269POPC   GL1 3772   2.553   9.740   4.242
  269POPC   GL2 3773   2.897   9.657   4.378
  269POPC   C1A 3774   2.497   9.598   4.684
  269POPC   D2A 3775   2.750   9.688   5.064
  269POPC   C3A 3776   2.497   9.767   5.402
  269POPC   C4A 3777   2.343   9.509   5.697
  269POPC   C1B 3778   2.961   9.341   4.731
  269POPC   C2B 3779   3.034   9.239   5.184
  269POPC   C3B 3780   2.983   9.558   5.532
  269POPC   C4B 3781   2.787   9.806   5.832
  270POPC   NC3 3782   3.856  11.016   3.729
  270POPC   PO4 3783   4.533  10.791   3.821
  270POPC   GL1 3784   4.569  10.951   4.246
  270POPC   GL2 3785   4.517  11.289   4.210
  270POPC   C1A 3786   4.393  10.844   4.672
  270POPC   D2A 3787   4.364  10.628   5.069
  270POPC   C3A 3788   4.187  10.854   5.395
  270POPC   C4A 3789   4.263  10.951   5.810
  270POPC   C1B 3790   4.173  11.272   4.542
  270POPC   C2B 3791   4.158  11.223   4.989
  270POPC   C3B 3792   4.039  11.364   5.405
  270POPC   C4B 3793   3.954  11.354   5.855
  271POPC   NC3 3794   2.838   6.622   3.891
  271POPC   PO4 3795   2.871   7.212   4.035
  271POPC   GL1 3796   2.833   6.844   4.377
  271POPC   GL2 3797   2.569   6.599   4.328
  271POPC   C1A 3798   2.895   6.610   4.817
  271POPC   D2A 3799   3.029   6.432   5.259
  271POPC   C3A 3800   2.852   6.624   5.643
  271POPC   C4A 3801   2.466   6.603   5.899
  271POPC   C1B 3802   2.536   6.293   4.617
  271POPC   C2B 3803   2.677   6.175   5.014
  271POPC   C3B 3804   2.549   6.268   5.434
  271POPC   C4B 3805   2.248   6.169   5.752
  272POPC   NC3 3806   6.941   3.072   4.145
  272POPC   PO4 3807   6.808   2.399   3.991
  272POPC   GL1 3808   7.045   2.579   4.348
  272POPC   GL2 3809   7.388   2.656   4.313
  272POPC   C1A 3810   7.065   2.790   4.781
  272POPC   D2A 3811   7.284   2.850   5.199
  272POPC   C3A 3812   7.115   2.780   5.643
  272POPC   C4A 3813   7.163   2.966   6.090
  272POPC   C1B 3814   7.388   2.382   4.698
  272POPC   C2B 3815   7.469   2.369   5.148
  272POPC   C3B 3816   7.597   2.488   5.561
  272POPC   C4B 3817   7.762   2.411   5.973
  273POPC   NC3 3818   1.933   9.759   3.554
  273POPC   PO4 3819   1.942  10.198   4.115
  273POPC   GL1 3820   2.093   9.816   4.415
  273POPC   GL2 3821   2.132   9.433   4.220
  273POPC   C1A 3822   2.026   9.772   4.829
  273POPC   D2A 3823   1.739   9.819   5.100
  273POPC   C3A 3824   1.938   9.675   5.400
  273POPC   C4A 3825   2.029   9.880   5.736
  273POPC   C1B 3826   2.034   9.314   4.626
  273POPC   C2B 3827   2.007   9.225   5.059
  273POPC   C3B 3828   1.767   9.188   5.430
  273POPC   C4B 3829   1.798   9.422   5.823
  274POPC   NC3 3830   7.286   8.850   3.903
  274POPC   PO4 3831   7.062   9.435   4.139
  274POPC   GL1 3832   7.317   9.154   4.436
  274POPC   GL2 3833   7.375   8.786   4.397
  274POPC   C1A 3834   7.337   9.007   4.886
  274POPC   D2A 3835   7.334   8.818   5.291
  274POPC   C3A 3836   7.124   9.057   5.677
  274POPC   C4A 3837   6.819   9.059   6.068
  274POPC   C1B 3838   7.733   8.862   4.618
  274POPC   C2B 3839   7.830   8.792   5.022
  274POPC   C3B 3840   7.822   8.771   5.455
  274POPC   C4B 3841   7.496   8.689   5.749
  275POPC   NC3 3842   2.786   1.269   3.713
  275POPC   PO4 3843   2.631   1.807   3.951
  275POPC   GL1 3844   2.725   1.513   4.276
  275POPC   GL2 3845   2.895   1.214   4.227
  275POPC   C1A 3846   2.541   1.414   4.686
  275POPC   D2A 3847   2.341   1.338   5.070
  275POPC   C3A 3848   2.300   1.538   5.437
  275POPC   C4A 3849   2.368   1.412   5.821
  275POPC   C1B 3850   3.018   1.215   4.658
  275POPC   C2B 3851   2.804   1.109   5.057
  275POPC   C3B 3852   2.707   1.206   5.498
  275POPC   C4B 3853   2.787   1.164   5.970
  276POPC   NC3 3854   3.751   2.551   4.003
  276POPC   PO4 3855   3.183   2.472   3.665
  276POPC   GL1 3856   3.117   2.580   4.188
  276POPC   GL2 3857   3.457   2.567   4.437
  276POPC   C1A 3858   3.015   2.499   4.670
  276POPC   D2A 3859   3.193   2.433   5.136
  276POPC   C3A 3860   3.241   2.652   5.563
  276POPC   C4A 3861   3.472   2.698   5.982
  276POPC   C1B 3862   3.364   2.841   4.831
  276POPC   C2B 3863   3.399   3.097   5.223
  276POPC   C3B 3864   3.492   3.100   5.672
  276POPC   C4B 3865   3.870   3.099   5.963
  277POPC   NC3 3866   9.017  11.167   3.595
  277POPC   PO4 3867   9.175  10.909   4.182
  277POPC   GL1 3868   8.730  10.964   4.361
  277POPC   GL2 3869   8.700  11.301   4.364
  277POPC   C1A 3870   8.609  10.685   4.709
  277POPC   D2A 3871   8.789  10.616   5.121
  277POPC   C3A 3872   8.688  10.739   5.543
  277POPC   C4A 3873   8.826  11.071   5.774
  277POPC   C1B 3874   8.871  11.149   4.802
  277POPC   C2B 3875   8.873  11.159   5.240
  277POPC   C3B 3876   9.098  11.407   5.518
  277POPC   C4B 3877   9.031   0.269   5.787
  278POPC   NC3 3878   6.342   2.545   4.017
  278POPC   PO4 3879   6.512   3.170   4.106
  278POPC   GL1 3880   6.584   2.793   4.426
  278POPC   GL2 3881   6.558   2.406   4.449
  278POPC   C1A 3882   6.569   2.703   4.888
  278POPC   D2A 3883   6.763   2.898   5.249
  278POPC   C3A 3884   6.566   2.928   5.659
  278POPC   C4A 3885   6.662   3.133   6.051
  278POPC   C1B 3886   6.874   2.310   4.750
  278POPC   C2B 3887   6.961   2.434   5.166
  278POPC   C3B 3888   6.705   2.458   5.532
  278POPC   C4B 3889   6.343   2.477   5.842
  279POPC   NC3 3890   0.384   2.801   3.701
  279POPC   PO4 3891   0.126   3.089   4.169
  279POPC   GL1 3892   0.499   2.887   4.351
  279POPC   GL2 3893   0.488   2.497   4.386
  279POPC   C1A 3894   0.621   2.762   4.785
  279POPC   D2A 3895   0.522   2.789   5.204
  279POPC   C3A 3896   0.771   2.997   5.492
  279POPC   C4A 3897   0.689   2.782   5.835
  279POPC   C1B 3898   0.223   2.371   4.785
  279POPC   C2B 3899   0.095   2.504   5.190
  279POPC   C3B 3900   0.170   2.709   5.577
  279POPC   C4B 3901   0.255   2.525   5.965
  280POPC   NC3 3902  11.121   3.600   3.783
  280POPC   PO4 3903  11.498   3.116   3.636
  280POPC   GL1 3904  11.428   3.508   4.138
  280POPC   GL2 3905  11.109   3.460   4.278
  280POPC   C1A 3906  11.485   3.631   4.631
  280POPC   D2A 3907   0.015   3.380   5.034
  280POPC   C3A 3908   0.006   3.591   5.401
  280POPC   C4A 3909  11.342   3.518   5.818
  280POPC   C1B 3910  10.996   3.698   4.608
  280POPC   C2B 3911  11.047   3.535   4.987
  280POPC   C3B 3912  11.007   3.499   5.397
  280POPC   C4B 3913  10.760   3.778   5.574
  281POPC   NC3 3914   3.351  10.169   4.148
  281POPC   PO4 3915   3.684  10.784   4.103
  281POPC   GL1 3916   3.350  10.646   4.388
  281POPC   GL2 3917   3.358  10.361   4.607
  281POPC   C1A 3918   3.264  10.833   4.764
  281POPC   D2A 3919   3.352  10.609   5.109
  281POPC   C3A 3920   3.263  10.707   5.522
  281POPC   C4A 3921   3.354  10.523   5.941
  281POPC   C1B 3922   3.682  10.146   4.791
  281POPC   C2B 3923   3.517  10.128   5.139
  281POPC   C3B 3924   3.555  10.293   5.498
  281POPC   C4B 3925   3.777  10.181   5.824
  282POPC   NC3 3926   3.725   0.088   4.050
  282POPC   PO4 3927   3.911   0.699   3.924
  282POPC   GL1 3928   3.710   0.564   4.293
  282POPC   GL2 3929   3.392   0.450   4.241
  282POPC   C1A 3930   3.828   0.317   4.670
  282POPC   D2A 3931   3.683   0.013   5.007
  282POPC   C3A 3932   3.619   0.160   5.440
  282POPC   C4A 3933   3.703   0.292   5.863
  282POPC   C1B 3934   3.303   0.312   4.672
  282POPC   C2B 3935   3.490   0.507   5.055
  282POPC   C3B 3936   3.423   0.654   5.496
  282POPC   C4B 3937   3.189   0.355   5.759
  283POPC   NC3 3938   4.133   9.684   4.028
  283POPC   PO4 3939   4.825   9.608   3.851
  283POPC   GL1 3940   4.586   9.517   4.289
  283POPC   GL2 3941   4.349   9.751   4.462
  283POPC   C1A 3942   4.510   9.450   4.800
  283POPC   D2A 3943   4.722   9.482   5.216
  283POPC   C3A 3944   4.524   9.483   5.651
  283POPC   C4A 3945   4.616   9.676   6.079
  283POPC   C1B 3946   4.036   9.719   4.759
  283POPC   C2B 3947   3.872   9.789   5.153
  283POPC   C3B 3948   3.961   9.743   5.581
  283POPC   C4B 3949   4.294   9.939   5.771
  284POPC   NC3 3950  10.294  10.247   3.930
  284POPC   PO4 3951  10.096  10.909   3.871
  284POPC   GL1 3952  10.029  10.686   4.227
  284POPC   GL2 3953  10.386  10.602   4.322
  284POPC   C1A 3954  10.067  10.826   4.651
  284POPC   D2A 3955  10.394  10.666   4.884
  284POPC   C3A 3956  10.389  10.713   5.307
  284POPC   C4A 3957  10.435  10.772   5.730
  284POPC   C1B 3958  10.567  10.264   4.600
  284POPC   C2B 3959  10.652  10.270   5.057
  284POPC   C3B 3960  10.526  10.222   5.462
  284POPC   C4B 3961  10.752  10.216   5.822
  285POPC   NC3 3962   1.086   4.977   3.932
  285POPC   PO4 3963   0.427   5.312   3.994
  285POPC   GL1 3964   0.746   5.345   4.340
  285POPC   GL2 3965   1.097   5.198   4.392
  285POPC   C1A 3966   0.870   5.487   4.745
  285POPC   D2A 3967   1.111   5.196   4.998
  285POPC   C3A 3968   1.195   5.238   5.442
  285POPC   C4A 3969   0.883   5.072   5.696
  285POPC   C1B 3970   1.355   4.904   4.650
  285POPC   C2B 3971   1.430   4.814   5.113
  285POPC   C3B 3972   1.340   4.735   5.562
  285POPC   C4B 3973   1.540   4.981   5.868
  286POPC   NC3 3974   7.216   9.843   4.003
  286POPC   PO4 3975   7.922   9.895   3.921
  286POPC   GL1 3976   7.683   9.982   4.337
  286POPC   GL2 3977   7.469   9.685   4.409
  286POPC   C1A 3978   7.678   9.883   4.824
  286POPC   D2A 3979   7.346   9.891   5.157
  286POPC   C3A 3980   7.499  10.006   5.568
  286POPC   C4A 3981   7.498   9.720   5.886
  286POPC   C1B 3982   7.296   9.517   4.815
  286POPC   C2B 3983   7.327   9.384   5.268
  286POPC   C3B 3984   7.105   9.602   5.579
  286POPC   C4B 3985   6.704   9.509   5.784
  287POPC   NC3 3986   7.396   0.262   3.823
  287POPC   PO4 3987   7.702   0.891   3.848
  287POPC   GL1 3988   7.765   0.671   4.251
  287POPC   GL2 3989   7.447   0.512   4.271
  287POPC   C1A 3990   7.745   0.451   4.703
  287POPC   D2A 3991   7.771   0.264   5.197
  287POPC   C3A 3992   7.681   0.610   5.559
  287POPC   C4A 3993   7.723   0.707   6.062
  287POPC   C1B 3994   7.234   0.596   4.638
  287POPC   C2B 3995   7.378   0.559   5.056
  287POPC   C3B 3996   7.276   0.332   5.416
  287POPC   C4B 3997   7.087   0.649   5.672
  288POPC   NC3 3998   4.999   9.202   4.004
  288POPC   PO4 3999   4.826   8.608   3.733
  288POPC   GL1 4000   4.668   8.698   4.187
  288POPC   GL2 4001   4.714   9.008   4.366
  288POPC   C1A 4002   4.664   8.520   4.654
  288POPC   D2A 4003   4.903   8.586   5.072
  288POPC   C3A 4004   4.866   8.652   5.535
  288POPC   C4A 4005   5.012   8.774   5.981
  288POPC   C1B 4006   5.017   8.906   4.694
  288POPC   C2B 4007   5.029   9.067   5.144
  288POPC   C3B 4008   4.972   9.181   5.579
  288POPC   C4B 4009   5.342   9.159   5.841
  289POPC   NC3 4010   5.043   1.244   3.921
  289POPC   PO4 4011   4.597   0.733   4.077
  289POPC   GL1 4012   4.807   0.734   4.430
  289POPC   GL2 4013   5.056   0.963   4.357
  289POPC   C1A 4014   4.959   0.773   4.848
  289POPC   D2A 4015   5.054   1.071   5.084
  289POPC   C3A 4016   4.957   0.937   5.444
  289POPC   C4A 4017   5.090   0.804   5.830
  289POPC   C1B 4018   5.121   1.361   4.638
  289POPC   C2B 4019   4.936   1.554   5.038
  289POPC   C3B 4020   5.116   1.457   5.466
  289POPC   C4B 4021   5.443   1.526   5.769
  290POPC   NC3 4022   4.441   7.498   4.183
  290POPC   PO4 4023   3.845   7.674   4.085
  290POPC   GL1 4024   4.012   7.455   4.482
  290POPC   GL2 4025   4.212   7.133   4.471
  290POPC   C1A 4026   4.114   7.462   4.937
  290POPC   D2A 4027   4.309   7.751   5.249
  290POPC   C3A 4028   4.219   7.621   5.666
  290POPC   C4A 4029   3.942   7.275   5.760
  290POPC   C1B 4030   4.389   7.023   4.879
  290POPC   C2B 4031   4.529   7.257   5.231
  290POPC   C3B 4032   4.468   7.160   5.668
  290POPC   C4B 4033   4.197   6.845   5.899
  291POPC   NC3 4034   0.403   0.545   3.827
  291POPC   PO4 4035   0.089  11.480   3.775
  291POPC   GL1 4036   0.200   0.126   4.252
  291POPC   GL2 4037   0.392   0.443   4.310
  291POPC   C1A 4038   0.551   0.095   4.617
  291POPC   D2A 4039   0.759   0.284   4.996
  291POPC   C3A 4040   0.684   0.127   5.433
  291POPC   C4A 4041   0.966   0.219   5.778
  291POPC   C1B 4042   0.532   0.632   4.683
  291POPC   C2B 4043   0.333   0.650   5.106
  291POPC   C3B 4044   0.417   0.565   5.565
  291POPC   C4B 4045   0.372   0.629   6.012
  292POPC   NC3 4046  10.340   2.199   3.500
  292POPC   PO4 4047  10.158   1.629   3.886
  292POPC   GL1 4048  10.188   1.957   4.226
  292POPC   GL2 4049  10.467   2.171   4.257
  292POPC   C1A 4050  10.197   2.027   4.682
  292POPC   D2A 4051  10.354   1.874   5.061
  292POPC   C3A 4052  10.107   2.009   5.396
  292POPC   C4A 4053  10.156   2.169   5.775
  292POPC   C1B 4054  10.526   1.697   4.489
  292POPC   C2B 4055  10.764   1.633   4.879
  292POPC   C3B 4056  10.711   1.604   5.348
  292POPC   C4B 4057  10.416   1.724   5.713
  293POPC   NC3 4058   1.349   1.699   4.050
  293POPC   PO4 4059   1.482   2.256   3.836
  293POPC   GL1 4060   1.386   2.247   4.286
  293POPC   GL2 4061   1.047   2.122   4.249
  293POPC   C1A 4062   1.495   2.234   4.752
  293POPC   D2A 4063   1.664   2.242   5.198
  293POPC   C3A 4064   1.390   2.028   5.513
  293POPC   C4A 4065   1.315   2.046   5.960
  293POPC   C1B 4066   1.112   1.893   4.648
  293POPC   C2B 4067   1.086   2.051   5.067
  293POPC   C3B 4068   0.857   1.937   5.429
  293POPC   C4B 4069   1.033   1.679   5.753
  294POPC   NC3 4070   0.465  10.505   3.720
  294POPC   PO4 4071   0.772  10.133   4.081
  294POPC   GL1 4072   0.704  10.505   4.292
  294POPC   GL2 4073   0.389  10.580   4.239
  294POPC   C1A 4074   0.741  10.622   4.717
  294POPC   D2A 4075   0.738  10.268   4.991
  294POPC   C3A 4076   0.711  10.420   5.369
  294POPC   C4A 4077   0.650  10.349   5.773
  294POPC   C1B 4078   0.350  10.312   4.633
  294POPC   C2B 4079   0.196  10.412   5.060
  294POPC   C3B 4080   0.216  10.440   5.521
  294POPC   C4B 4081   0.196  10.285   5.972
  295POPC   NC3 4082   2.917   2.844   3.743
  295POPC   PO4 4083   2.387   2.478   3.852
  295POPC   GL1 4084   2.587   2.544   4.215
  295POPC   GL2 4085   2.669   2.836   4.332
  295POPC   C1A 4086   2.513   2.426   4.601
  295POPC   D2A 4087   2.578   2.655   4.942
  295POPC   C3A 4088   2.699   2.425   5.299
  295POPC   C4A 4089   2.701   2.573   5.723
  295POPC   C1B 4090   2.878   2.999   4.700
  295POPC   C2B 4091   2.948   2.888   5.157
  295POPC   C3B 4092   2.878   3.031   5.563
  295POPC   C4B 4093   3.015   2.951   5.981
  296POPC   NC3 4094   1.228  10.971   3.938
  296POPC   PO4 4095   0.889   0.137   3.964
  296POPC   GL1 4096   1.075  11.390   4.293
  296POPC   GL2 4097   1.192  11.064   4.430
  296POPC   C1A 4098   1.114  11.466   4.733
  296POPC   D2A 4099   1.361  11.298   5.070
  296POPC   C3A 4100   1.145  11.376   5.432
  296POPC   C4A 4101   0.986  11.191   5.813
  296POPC   C1B 4102   1.465  10.841   4.743
  296POPC   C2B 4103   1.565  10.824   5.202
  296POPC   C3B 4104   1.384  10.954   5.580
  296POPC   C4B 4105   1.408  10.878   6.013
  297POPC   NC3 4106   9.937   8.136   4.090
  297POPC   PO4 4107   9.325   7.878   3.917
  297POPC   GL1 4108   9.539   7.889   4.302
  297POPC   GL2 4109   9.465   8.248   4.283
  297POPC   C1A 4110   9.692   7.746   4.719
  297POPC   D2A 4111   9.849   7.566   5.143
  297POPC   C3A 4112   9.617   7.782   5.460
  297POPC   C4A 4113   9.705   8.164   5.633
  297POPC   C1B 4114   9.476   8.304   4.716
  297POPC   C2B 4115   9.466   8.165   5.150
  297POPC   C3B 4116   9.237   8.306   5.522
  297POPC   C4B 4117   9.100   8.280   5.967
  298POPC   NC3 4118   6.474  11.385   3.910
  298POPC   PO4 4119   6.519  10.760   3.906
  298POPC   GL1 4120   6.558  10.995   4.293
  298POPC   GL2 4121   6.558  11.353   4.395
  298POPC   C1A 4122   6.391  10.972   4.705
  298POPC   D2A 4123   6.574  11.063   5.098
  298POPC   C3A 4124   6.346  10.914   5.441
  298POPC   C4A 4125   6.502  10.907   5.868
  298POPC   C1B 4126   6.461  11.475   4.779
  298POPC   C2B 4127   6.520   0.056   5.166
  298POPC   C3B 4128   6.564  11.361   5.552
  298POPC   C4B 4129   6.415   0.130   5.905
  299POPC   NC3 4130  11.075   6.899   3.910
  299POPC   PO4 4131  10.928   6.215   3.744
  299POPC   GL1 4132  10.984   6.475   4.205
  299POPC   GL2 4133  11.215   6.693   4.326
  299POPC   C1A 4134  10.886   6.552   4.697
  299POPC   D2A 4135  10.735   6.401   5.128
  299POPC   C3A 4136  10.855   6.644   5.531
  299POPC   C4A 4137  10.956   6.487   5.969
  299POPC   C1B 4138  11.391   6.530   4.679
  299POPC   C2B 4139   0.018   6.485   5.078
  299POPC   C3B 4140  11.353   6.585   5.435
  299POPC   C4B 4141  11.356   6.777   5.818
  300POPC   NC3 4142  11.478   1.121   3.835
  300POPC   PO4 4143  10.821   0.964   3.909
  300POPC   GL1 4144  11.108   0.910   4.244
  300POPC   GL2 4145  11.369   1.162   4.316
  300POPC   C1A 4146  11.074   0.933   4.699
  300POPC   D2A 4147  11.006   1.236   5.055
  300POPC   C3A 4148  11.000   1.168   5.497
  300POPC   C4A 4149  11.079   0.904   5.859
  300POPC   C1B 4150  11.369   1.389   4.704
  300POPC   C2B 4151  11.410   1.563   5.123
  300POPC   C3B 4152  11.462   1.402   5.558
  300POPC   C4B 4153  11.316   1.324   6.011
  301POPC   NC3 4154  10.791   5.198   3.927
  301POPC   PO4 4155  10.238   4.816   3.789
  301POPC   GL1 4156  10.245   4.876   4.250
  301POPC   GL2 4157  10.422   5.176   4.392
  301POPC   C1A 4158  10.274   4.812   4.724
  301POPC   D2A 4159  10.148   4.709   5.156
  301POPC   C3A 4160  10.424   4.719   5.539
  301POPC   C4A 4161  10.234   4.891   5.933
  301POPC   C1B 4162  10.590   5.220   4.836
  301POPC   C2B 4163  10.561   5.138   5.255
  301POPC   C3B 4164  10.247   5.247   5.552
  301POPC   C4B 4165  10.287   5.402   5.965
  302POPC   NC3 4166   9.669   1.124   3.861
  302POPC   PO4 4167   9.418   1.695   3.864
  302POPC   GL1 4168   9.579   1.453   4.249
  302POPC   GL2 4169   9.476   1.105   4.328
  302POPC   C1A 4170   9.529   1.405   4.722
  302POPC   D2A 4171   9.722   1.238   5.090
  302POPC   C3A 4172   9.479   1.197   5.494
  302POPC   C4A 4173   9.484   1.339   5.942
  302POPC   C1B 4174   9.834   0.953   4.580
  302POPC   C2B 4175  10.086   0.870   4.956
  302POPC   C3B 4176  10.041   0.997   5.407
  302POPC   C4B 4177   9.791   0.957   5.821
  303POPC   NC3 4178   9.607  10.938   3.981
  303POPC   PO4 4179   9.859  10.301   3.779
  303POPC   GL1 4180   9.821  10.209   4.210
  303POPC   GL2 4181   9.559  10.477   4.260
  303POPC   C1A 4182  10.040  10.306   4.620
  303POPC   D2A 4183   9.907  10.529   5.023
  303POPC   C3A 4184  10.030  10.353   5.406
  303POPC   C4A 4185  10.002  10.521   5.805
  303POPC   C1B 4186   9.537  10.344   4.680
  303POPC   C2B 4187   9.426  10.357   5.110
  303POPC   C3B 4188   9.565  10.522   5.512
  303POPC   C4B 4189   9.531  10.400   5.943
  304POPC   NC3 4190   6.633   1.633   3.729
  304POPC   PO4 4191   6.277   1.117   3.835
  304POPC   GL1 4192   6.491   1.022   4.318
  304POPC   GL2 4193   6.826   0.780   4.329
  304POPC   C1A 4194   6.533   1.216   4.792
  304POPC   D2A 4195   6.708   1.465   5.189
  304POPC   C3A 4196   6.545   1.621   5.637
  304POPC   C4A 4197   6.702   1.634   6.090
  304POPC   C1B 4198   6.748   0.754   4.745
  304POPC   C2B 4199   6.801   0.923   5.163
  304POPC   C3B 4200   6.632   0.847   5.547
  304POPC   C4B 4201   6.471   1.150   5.823
  305POPC   NC3 4202  10.922   0.464   4.004
  305POPC   PO4 4203   0.029   0.687   4.038
  305POPC   GL1 4204  11.346   0.483   4.414
  305POPC   GL2 4205  10.973   0.462   4.506
  305POPC   C1A 4206  11.311   0.501   4.883
  305POPC   D2A 4207  11.340   0.868   5.129
  305POPC   C3A 4208  11.442   0.845   5.507
  305POPC   C4A 4209  11.431   0.552   5.787
  305POPC   C1B 4210  10.755   0.225   4.859
  305POPC   C2B 4211  10.810   0.149   5.249
  305POPC   C3B 4212  11.154   0.355   5.391
  305POPC   C4B 4213  10.947   0.419   5.728
  306POPC   NC3 4214   0.781   9.691   3.956
  306POPC   PO4 4215   0.329   9.248   3.936
  306POPC   GL1 4216   0.630   9.192   4.310
  306POPC   GL2 4217   0.831   9.499   4.440
  306POPC   C1A 4218   0.602   9.178   4.789
  306POPC   D2A 4219   0.611   9.477   5.139
  306POPC   C3A 4220   0.624   9.466   5.585
  306POPC   C4A 4221   0.344   9.546   5.911
  306POPC   C1B 4222   0.618   9.823   4.732
  306POPC   C2B 4223   0.373   9.935   5.133
  306POPC   C3B 4224   0.445   9.946   5.580
  306POPC   C4B 4225   0.666   9.912   6.008
  307POPC   NC3 4226  10.793   6.024   4.148
  307POPC   PO4 4227  10.181   5.808   3.900
  307POPC   GL1 4228  10.464   5.657   4.238
  307POPC   GL2 4229  10.297   5.878   4.420
  307POPC   C1A 4230  10.696   5.689   4.681
  307POPC   D2A 4231  10.840   5.827   5.090
  307POPC   C3A 4232  10.559   5.707   5.388
  307POPC   C4A 4233  10.539   5.857   5.802
  307POPC   C1B 4234  10.201   5.552   4.721
  307POPC   C2B 4235  10.104   5.583   5.167
  307POPC   C3B 4236  10.071   5.759   5.598
  307POPC   C4B 4237  10.077   6.119   5.924
  308POPC   NC3 4238  10.569  11.210   3.968
  308POPC   PO4 4239   9.888  11.483   3.778
  308POPC   GL1 4240  10.072  11.426   4.205
  308POPC   GL2 4241  10.231  11.145   4.312
  308POPC   C1A 4242  10.056  11.405   4.698
  308POPC   D2A 4243   9.982  11.471   5.165
  308POPC   C3A 4244  10.173  11.170   5.457
  308POPC   C4A 4245  10.034  11.054   5.874
  308POPC   C1B 4246  10.541  11.083   4.635
  308POPC   C2B 4247  10.532  11.190   5.061
  308POPC   C3B 4248  10.713  11.142   5.463
  308POPC   C4B 4249  10.522  11.288   5.820
  309POPC   NC3 4250   0.576   4.038   3.917
  309POPC   PO4 4251   0.166   4.533   4.044
  309POPC   GL1 4252   0.231   4.253   4.312
  309POPC   GL2 4253   0.561   4.293   4.345
  309POPC   C1A 4254   0.212   4.120   4.698
  309POPC   D2A 4255   0.167   4.351   5.051
  309POPC   C3A 4256   0.248   4.139   5.419
  309POPC   C4A 4257   0.215   4.365   5.788
  309POPC   C1B 4258   0.520   4.523   4.706
  309POPC   C2B 4259   0.659   4.284   5.055
  309POPC   C3B 4260   0.823   4.048   5.377
  309POPC   C4B 4261   0.658   4.108   5.782
  310POPC   NC3 4262   9.929   4.537   3.625
  310POPC   PO4 4263   9.365   4.351   3.938
  310POPC   GL1 4264   9.732   4.456   4.208
  310POPC   GL2 4265   9.777   4.164   4.416
  310POPC   C1A 4266   9.790   4.584   4.687
  310POPC   D2A 4267   9.794   4.308   5.095
  310POPC   C3A 4268   9.698   4.498   5.508
  310POPC   C4A 4269   9.711   4.746   5.931
  310POPC   C1B 4270   9.448   4.188   4.725
  310POPC   C2B 4271   9.238   4.251   5.141
  310POPC   C3B 4272   9.265   4.121   5.566
  310POPC   C4B 4273   9.396   4.344   5.902
  311POPC   NC3 4274   6.355  10.351   4.020
  311POPC   PO4 4275   6.991  10.258   3.880
  311POPC   GL1 4276   6.829  10.542   4.262
  311POPC   GL2 4277   6.485  10.505   4.474
  311POPC   C1A 4278   6.854  10.715   4.730
  311POPC   D2A 4279   6.642  10.564   5.143
  311POPC   C3A 4280   6.826  10.653   5.576
  311POPC   C4A 4281   6.768  10.427   6.009
  311POPC   C1B 4282   6.156  10.526   4.834
  311POPC   C2B 4283   6.056  10.506   5.295
  311POPC   C3B 4284   6.343  10.444   5.670
  311POPC   C4B 4285   6.278  10.381   6.114
  312POPC   NC3 4286   8.230   0.548   3.968
  312POPC   PO4 4287   7.851   0.004   3.829
  312POPC   GL1 4288   8.056   0.105   4.260
  312POPC   GL2 4289   8.414   0.226   4.325
  312POPC   C1A 4290   8.094   0.078   4.733
  312POPC   D2A 4291   8.344   0.126   5.122
  312POPC   C3A 4292   8.118   0.056   5.551
  312POPC   C4A 4293   7.946   0.301   5.856
  312POPC   C1B 4294   8.364   0.494   4.711
  312POPC   C2B 4295   8.122   0.581   5.020
  312POPC   C3B 4296   8.205   0.536   5.441
  312POPC   C4B 4297   8.134   0.804   5.772
  313POPC   NC3 4298   8.235   1.291   3.906
  313POPC   PO4 4299   8.495   0.836   4.217
  313POPC   GL1 4300   8.160   1.017   4.404
  313POPC   GL2 4301   8.175   1.382   4.403
  313POPC   C1A 4302   8.192   1.103   4.842
  313POPC   D2A 4303   8.214   1.004   5.261
  313POPC   C3A 4304   8.460   1.136   5.560
  313POPC   C4A 4305   8.267   1.483   5.709
  313POPC   C1B 4306   7.825   1.429   4.702
  313POPC   C2B 4307   7.682   1.245   5.093
  313POPC   C3B 4308   7.799   1.122   5.501
  313POPC   C4B 4309   7.865   1.222   5.923
  314POPC   NC3 4310   9.334   3.437   4.020
  314POPC   PO4 4311   8.611   3.165   4.026
  314POPC   GL1 4312   8.934   3.298   4.340
  314POPC   GL2 4313   8.943   3.637   4.407
  314POPC   C1A 4314   8.906   3.329   4.823
  314POPC   D2A 4315   8.978   3.245   5.273
  314POPC   C3A 4316   8.732   3.278   5.695
  314POPC   C4A 4317   8.807   3.521   6.081
  314POPC   C1B 4318   9.119   3.802   4.823
  314POPC   C2B 4319   9.034   3.762   5.267
  314POPC   C3B 4320   8.795   3.903   5.646
  314POPC   C4B 4321   8.974   4.021   6.037
  315POPC   NC3 4322   6.900  10.660   3.663
  315POPC   PO4 4323   7.484  10.581   3.714
  315POPC   GL1 4324   7.366  10.332   4.193
  315POPC   GL2 4325   7.286  10.568   4.495
  315POPC   C1A 4326   7.245  10.099   4.631
  315POPC   D2A 4327   7.135  10.364   5.012
  315POPC   C3A 4328   7.059  10.218   5.451
  315POPC   C4A 4329   7.235  10.402   5.838
  315POPC   C1B 4330   7.621  10.425   4.761
  315POPC   C2B 4331   7.632  10.302   5.140
  315POPC   C3B 4332   7.532  10.536   5.447
  315POPC   C4B 4333   7.736  10.481   5.803
  316POPC   NC3 4334   1.366   2.693   3.854
  316POPC   PO4 4335   0.812   2.993   3.930
  316POPC   GL1 4336   0.969   2.653   4.222
  316POPC   GL2 4337   1.287   2.765   4.342
  316POPC   C1A 4338   1.024   2.441   4.655
  316POPC   D2A 4339   1.227   2.567   5.057
  316POPC   C3A 4340   0.962   2.515   5.415
  316POPC   C4A 4341   0.913   2.297   5.798
  316POPC   C1B 4342   1.067   2.955   4.673
  316POPC   C2B 4343   1.117   3.077   5.112
  316POPC   C3B 4344   1.295   2.896   5.500
  316POPC   C4B 4345   1.374   2.502   5.710
  317POPC   NC3 4346   9.790   1.960   3.925
  317POPC   PO4 4347   9.211   2.378   3.882
  317POPC   GL1 4348   9.399   2.176   4.228
  317POPC   GL2 4349   9.287   1.869   4.325
  317POPC   C1A 4350   9.487   2.267   4.682
  317POPC   D2A 4351   9.414   2.018   5.058
  317POPC   C3A 4352   9.557   2.165   5.473
  317POPC   C4A 4353   9.460   2.271   5.923
  317POPC   C1B 4354   9.718   1.850   4.554
  317POPC   C2B 4355   9.846   1.754   4.978
  317POPC   C3B 4356   9.663   1.673   5.396
  317POPC   C4B 4357   9.725   1.828   5.818
  318POPC   NC3 4358   3.348   5.870   3.786
  318POPC   PO4 4359   3.590   5.371   3.803
  318POPC   GL1 4360   3.489   5.078   4.193
  318POPC   GL2 4361   3.152   4.902   4.247
  318POPC   C1A 4362   3.638   5.061   4.651
  318POPC   D2A 4363   3.739   5.228   5.087
  318POPC   C3A 4364   3.415   5.192   5.427
  318POPC   C4A 4365   3.413   4.932   5.808
  318POPC   C1B 4366   3.240   4.744   4.681
  318POPC   C2B 4367   3.495   4.772   5.087
  318POPC   C3B 4368   3.789   4.848   5.455
  318POPC   C4B 4369   3.831   4.573   5.817
  319W        W 4370  11.164  10.840   8.516
  320W        W 4371   8.598   4.371   3.143
  321W        W 4372   5.746   3.534   8.141
  322W        W 4373   6.760   6.825  11.801
  323W        W 4374   7.634   8.430   9.839
  324W        W 4375   2.184   9.601   8.680
  325W        W 4376   5.971   3.861   8.585
  326W        W 4377   0.940   5.088   2.224
  327W        W 4378   3.675   0.793   3.107
  328W        W 4379   9.279   0.748  11.238
  329W        W 4380   7.627   6.093   8.390
  330W        W 4381   8.684   5.503   8.620
  331W        W 4382  10.975   9.119   9.107
  332W        W 4383   9.774   9.390   9.100
  333W        W 4384  10.450   6.547   2.966
  334W        W 4385   7.801  10.848   2.202
  335W        W 4386  10.255   6.670  10.843
  336W        W 4387   7.490   1.365   0.143
  337W        W 4388   5.137   6.456   0.807
  338W        W 4389   0.743   4.364  11.635
  339W        W 4390   0.127   8.136  10.785
  340W        W 4391   8.016   2.310   2.933
  341W        W 4392   4.073  10.756  11.516
  342W        W 4393   3.164   7.630   9.999
  343W        W 4394   1.444   0.889   1.876
  344W        W 4395   9.697   6.584   9.998
  345W        W 4396   7.222   8.046   0.761
  346W        W 4397  11.008   5.432  10.569
  347W        W 4398   6.664   0.750   1.761
  348W        W 4399   3.276   7.033   1.765
  349W        W 4400   5.530   3.593   9.483
  350W        W 4401   1.854   9.486  11.787
  351W        W 4402   4.763   2.837   0.527
  352W        W 4403   9.990  11.353   3.175
  353W        W 4404   8.634   3.412   2.114
  354W        W 4405   1.524   7.587  10.019
  355W        W 4406   0.402   8.517  11.534
  356W        W 4407   0.959   6.990   8.230
  357W        W 4408   2.466   9.930   0.343
  358W        W 4409   6.400   3.611   8.765
  359W        W 4410   7.498   9.542   9.012
  360W        W 4411  10.642   5.089  11.966
  361W        W 4412   6.144   8.452  10.408
  362W        W 4413   1.091   1.391   9.794
  363W        W 4414   6.511   2.925  11.639
  364W        W 4415   2.301  10.829   1.366
  365W        W 4416   1.829   5.526   2.476
  366W        W 4417   9.416   8.854   3.024
  367W        W 4418   4.622  10.762   2.807
  368W        W 4419   5.205   5.463   1.813
  369W        W 4420   8.478   6.939   3.046
  370W        W 4421   7.622   6.578   9.481
  371W        W 4422   5.553   2.604   1.481
  372W        W 4423  11.132  10.513   2.887
  373W        W 4424   7.693   9.500   3.435
  374W        W 4425   5.573   6.654  10.533
  375W        W 4426   1.387   9.925   0.471
  376W        W 4427   9.844   4.723   0.739
  377W        W 4428   7.598   5.195  10.108
  378W        W 4429   2.233   3.698   2.325
  379W        W 4430   1.454   8.137   2.727
  380W        W 4431   3.753   3.737   1.267
  381W        W 4432   9.283   2.459   2.463
  382W        W 4433   5.143   3.230   1.337
  383W        W 4434   5.661   0.359  11.106
  384W        W 4435   5.396   6.066   9.836
  385W        W 4436   4.824   1.139   3.126
  386W        W 4437   9.410   4.619  11.947
  387W        W 4438   4.961  10.549  10.436
  388W        W 4439   8.610   9.865   2.555
  389W        W 4440  11.182   2.644   8.814
  390W        W 4441   2.676   5.920   1.835
  391W        W 4442   2.958   8.044   9.282
  392W        W 4443   2.720   1.973  11.772
  393W        W 4444   0.840   9.328   2.632
  394W        W 4445   5.383   4.442   3.921
  395W        W 4446   2.722   8.640   3.228
  396W        W 4447   1.668   7.935   3.527
  397W        W 4448   5.167   3.658   1.845
  398W        W 4449   6.932   7.551   1.320
  399W        W 4450   3.110   7.441   2.516
  400W        W 4451   3.781   0.468  10.686
  401W        W 4452  11.411   2.583  10.880
  402W        W 4453   5.373  10.835  10.589
  403W        W 4454   1.455   9.176   0.655
  404W        W 4455   8.688  10.522  11.720
  405W        W 4456   4.967   2.398   8.154
  406W        W 4457   3.132   6.605   1.476
  407W        W 4458   0.217   6.566  11.496
  408W        W 4459   3.311   4.760  11.052
  409W        W 4460  10.360   4.119   1.224
  410W        W 4461   3.577   5.544  11.288
  411W        W 4462   5.948  10.440  10.961
  412W        W 4463   7.604   5.084  11.924
  413W        W 4464   2.821   9.202   3.458
  414W        W 4465   6.497   9.950   3.639
  415W        W 4466   3.288   3.397   0.456
  416W        W 4467   8.217   9.059  11.273
  417W        W 4468   2.325   2.271   9.139
  418W        W 4469   9.005   5.398  11.558
  419W        W 4470   5.258   2.625  10.776
  420W        W 4471   9.992   6.652   2.756
  421W        W 4472   6.953   4.635  10.753
  422W        W 4473   4.286   6.999   0.729
  423W        W 4474  11.314   6.059  10.397
  424W        W 4475   1.291   6.458   0.176
  425W        W 4476   9.064   8.880   0.519
  426W        W 4477   6.447   4.042   9.152
  427W        W 4478   2.310   9.669  11.930
  428W        W 4479  10.991   7.455   1.431
  429W        W 4480  10.015  10.747  10.404
  430W        W 4481   3.935   0.154  11.111
  431W        W 4482   7.069   7.511   0.300
  432W        W 4483   7.837   0.844   2.616
  433W        W 4484   7.064   0.262  11.527
  434W        W 4485   8.616   2.239  11.875
  435W        W 4486   4.223   5.709   0.342
  436W        W 4487   4.256   3.753   1.387
  437W        W 4488   5.534   1.956   9.467
  438W        W 4489   8.441   7.137   1.653
  439W        W 4490   7.586   1.712   3.420
  440W        W 4491  10.013  10.817   1.284
  441W        W 4492   8.017   4.102   1.184
  442W        W 4493   5.607   9.663   9.431
  443W        W 4494   1.276   6.514   1.132
  444W        W 4495   9.445   7.929   2.869
  445W        W 4496   6.924  11.313   2.833
  446W        W 4497   5.444   4.145   2.241
  447W        W 4498   2.243   2.797   8.934
  448W        W 4499   0.940  10.874   9.832
  449W        W 4500   2.863   7.649   1.732
  450W        W 4501   4.277  11.132   3.471
  451W        W 4502   4.727   0.777  11.937
  452W        W 4503   7.662   3.645  10.453
  453W        W 4504  10.884   8.840   1.468
  454W        W 4505  10.406   0.574   1.404
  455W        W 4506   3.188   8.115   9.759
  456W        W 4507   3.146   1.653   2.480
  457W        W 4508   9.322   7.544  10.790
  458W        W 4509   2.975  11.204   2.213
  459W        W 4510   7.775   9.278  11.717
  460W        W 4511   9.543   2.587   0.454
  461W        W 4512   7.056   1.700   0.203
  462W        W 4513   4.145   8.747   8.953
  463W        W 4514   0.909   1.396   0.042
  464W        W 4515   7.182   8.844   3.177
  465W        W 4516   3.127   5.658   9.450
  466W        W 4517  10.015   7.099   0.486
  467W        W 4518   5.528   8.395   9.958
  468W        W 4519   0.649   0.952   0.259
  469W        W 4520   1.103   9.500   0.373
  470W        W 4521   7.093   4.314   0.874
  471W        W 4522   2.790  10.803   1.978
  472W        W 4523   4.325  10.780   0.023
  473W        W 4524   9.234  10.063  11.057
  474W        W 4525   3.180   6.454   8.906
  475W        W 4526   5.982   5.733  11.365
  476W        W 4527   5.923   6.042   9.810
  477W        W 4528   2.161   4.835   3.283
  478W        W 4529   9.573   1.059   9.603
  479W        W 4530  10.714   0.891  11.393
  480W        W 4531   4.712   0.635  11.042
  481W        W 4532   2.284   7.599   8.049
  482W        W 4533   2.452   4.840   8.323
  483W        W 4534   7.980   9.582   9.306
  484W        W 4535   3.745   2.561   8.700
  485W        W 4536   4.555   7.146  11.792
  486W        W 4537   3.828   9.030   8.597
  487W        W 4538   0.914   8.432   1.758
  488W        W 4539   9.455   6.510  10.433
  489W        W 4540   3.056   7.121   9.522
  490W        W 4541   5.071  10.723   9.948
  491W        W 4542   7.042   1.825  10.842
  492W        W 4543   5.106   2.312   3.215
  493W        W 4544   2.284   7.177   9.880
  494W        W 4545   3.081   1.766   3.755
  495W        W 4546   7.967   6.084   3.233
  496W        W 4547  11.479   3.437   2.733
  497W        W 4548   5.955   6.457   0.415
  498W        W 4549   4.088  11.274   2.149
  499W        W 4550   0.935   2.710   1.209
  500W        W 4551   5.511   2.716   3.267
  501W        W 4552   4.860   4.342   0.872
  502W        W 4553   9.714   3.353  10.689
  503W        W 4554   5.134   9.845   2.215
  504W        W 4555   6.115  10.812  10.017
  505W        W 4556   1.442   3.335   1.492
  506W        W 4557   7.242   0.852   9.296
  507W        W 4558   0.840   6.532   1.394
  508W        W 4559   9.872   8.464   0.660
  509W        W 4560   1.657   4.028   9.670
  510W        W 4561   4.488   5.306  11.223
  511W        W 4562  10.518  10.059   2.251
  512W        W 4563  11.411   4.712  11.878
  513W        W 4564   8.184   5.485   8.477
  514W        W 4565  10.841   9.351   1.561
  515W        W 4566   1.215   2.778   2.997
  516W        W 4567   7.422   6.575   8.505
  517W        W 4568   0.049   4.822   0.353
  518W        W 4569   2.752   8.570   0.353
  519W        W 4570   2.627   4.656   1.946
  520W        W 4571   4.624  10.238   0.951
  521W        W 4572   3.895   1.730   2.157
  522W        W 4573   7.590   2.408   2.676
  523W        W 4574   2.336   6.963  10.811
  524W        W 4575   6.357   9.536   9.697
  525W        W 4576   6.180   5.070  10.848
  526W        W 4577   3.158   8.647   9.873
  527W        W 4578   8.247   4.811   3.613
  528W        W 4579   8.868   8.553  11.251
  529W        W 4580   3.296   8.102   0.347
  530W        W 4581   7.456   2.662   1.833
  531W        W 4582   6.749   0.813   9.238
  532W        W 4583   9.741   7.555   1.316
  533W        W 4584   8.463   6.088   3.433
  534W        W 4585   0.902   5.595   9.573
  535W        W 4586   1.800  11.000  10.283
  536W        W 4587   4.952   0.081  10.318
  537W        W 4588   8.543   6.636   2.166
  538W        W 4589   1.303   7.474  10.890
  539W        W 4590   0.343   1.678   0.778
  540W        W 4591   5.665   2.812  11.019
  541W        W 4592   5.548   2.310   3.583
  542W        W 4593   6.663   8.755  11.217
  543W        W 4594   3.536   1.005   1.266
  544W        W 4595   7.408   1.315   0.916
  545W        W 4596   7.381   6.169   0.329
  546W        W 4597   1.068   8.436   8.464
  547W        W 4598  11.429   5.186   3.392
  548W        W 4599   9.131   6.094   8.209
  549W        W 4600   3.901  10.783  11.010
  550W        W 4601   0.841   7.888   1.967
  551W        W 4602  10.512   9.930   1.273
  552W        W 4603   5.582   7.169   1.683
  553W        W 4604   7.609  10.084   0.104
  554W        W 4605   2.641   7.566   0.269
  555W        W 4606   9.882   6.490   2.288
  556W        W 4607  10.940   6.469   9.607
  557W        W 4608  10.045   3.298   1.360
  558W        W 4609   1.511  11.349  11.988
  559W        W 4610   7.728   1.923   2.548
  560W        W 4611   9.433   7.030  10.738
  561W        W 4612   0.405   1.175   0.698
  562W        W 4613   5.656   7.939   2.801
  563W        W 4614   6.056  11.300   2.699
  564W        W 4615   1.186   6.570   0.648
  565W        W 4616  10.802  11.299   1.153
  566W        W 4617   4.600   7.105   9.846
  567W        W 4618  11.448   2.587   3.153
  568W        W 4619   5.555   4.168   8.686
  569W        W 4620   2.273   9.181   2.791
  570W        W 4621   2.503   8.152  11.835
  571W        W 4622   9.058  10.509  10.825
  572W        W 4623   1.009   1.889   0.009
  573W        W 4624   1.350   8.678   1.935
  574W        W 4625   6.482   7.198   3.099
  575W        W 4626   4.881   2.018   1.389
  576W        W 4627   9.886   9.766  10.364
  577W        W 4628   9.610   6.783   9.228
  578W        W 4629   1.130   5.672   0.493
  579W        W 4630   5.826  10.460   9.446
  580W        W 4631   7.999   0.581  11.433
  581W        W 4632   9.271   2.143   3.443
  582W        W 4633   6.419   5.727   2.218
  583W        W 4634   1.821   2.207   9.281
  584W        W 4635   9.439   3.227   3.515
  585W        W 4636   4.332   2.604  11.117
  586W        W 4637   5.694   8.688   9.570
  587W        W 4638  10.872   6.763  11.977
  588W        W 4639   8.210  10.977   0.746
  589W        W 4640   1.307   9.005  11.489
  590W        W 4641   2.152   1.840   2.652
  591W        W 4642   2.633   0.341   2.839
  592W        W 4643   3.239   3.728   0.050
  593W        W 4644   4.629   6.194   3.486
  594W        W 4645   9.409   4.364   9.871
  595W        W 4646   4.293   7.946  10.343
  596W        W 4647   0.837   8.925   1.364
  597W        W 4648   7.382   3.134   9.471
  598W        W 4649   5.116   9.500   9.444
  599W        W 4650   3.034   6.057  11.937
  600W        W 4651   0.516   8.589   2.010
  601W        W 4652   4.296   7.187   8.867
  602W        W 4653   9.903   1.965   1.677
  603W        W 4654   0.821   3.526   3.114
  604W        W 4655   2.742   9.335   9.905
  605W        W 4656   7.387   4.850  10.498
  606W        W 4657   4.815   6.594   1.206
  607W        W 4658   7.386   1.694  11.778
  608W        W 4659   9.413   3.173  11.497
  609W        W 4660   8.709   9.893   0.303
  610W        W 4661  10.302   9.461  10.023
  611W        W 4662   2.430   2.317  10.114
  612W        W 4663  10.758   9.542   8.817
  613W        W 4664   6.906   9.954   3.240
  614W        W 4665   3.502   5.111   3.356
  615W        W 4666   5.588   9.718   1.903
  616W        W 4667   5.560   2.452   9.238
  617W        W 4668   8.482  11.279   2.246
  618W        W 4669   6.292   7.045  10.475
  619W        W 4670   2.317   7.675  11.844
  620W        W 4671   1.403   2.832   1.946
  621W        W 4672   0.206   2.227   1.454
  622W        W 4673   4.101   6.366   8.601
  623W        W 4674   6.680   7.199  11.427
  624W        W 4675   0.231   5.354   1.487
  625W        W 4676   0.298   4.291   3.082
  626W        W 4677   3.789  10.223   0.181
  627W        W 4678   8.831   4.339   0.116
  628W        W 4679   1.382   1.047   2.754
  629W        W 4680   2.397   9.590  10.151
  630W        W 4681   7.862   9.310   0.721
  631W        W 4682  11.426   5.647  11.714
  632W        W 4683   5.692   8.506   1.368
  633W        W 4684   7.185  10.175   1.375
  634W        W 4685   2.796   9.568  11.538
  635W        W 4686   6.014   6.894   1.799
  636W        W 4687  10.998   7.418  11.387
  637W        W 4688   1.397   6.673   2.168
  638W        W 4689   3.594  10.390  10.473
  639W        W 4690   3.682   9.485   3.294
  640W        W 4691   0.723   6.746   9.051
  641W        W 4692   9.005   6.832   9.546
  642W        W 4693   8.686   6.671   1.659
  643W        W 4694  11.431   5.768   1.113
  644W        W 4695   3.625   1.828   2.643
  645W        W 4696  10.475   0.726   0.929
  646W        W 4697   1.814  10.174  11.277
  647W        W 4698   4.142   5.686  11.839
  648W        W 4699  11.305   7.450  11.787
  649W        W 4700   8.571   0.554  10.214
  650W        W 4701   6.238   9.756   0.369
  651W        W 4702   1.778   7.304   0.257
  652W        W 4703   4.077   0.442   1.419
  653W        W 4704   5.198   1.669  11.731
  654W        W 4705   8.115   7.120   9.959
  655W        W 4706   8.419   1.177  10.862
  656W        W 4707   5.095   4.461  11.210
  657W        W 4708   7.139   7.134   1.117
  658W        W 4709   0.806   1.844   2.363
  659W        W 4710   7.964   0.324   0.259
  660W        W 4711   5.128  10.028   3.145
  661W        W 4712   0.699   8.899  11.093
  662W        W 4713   5.166   1.824   3.131
  663W        W 4714   2.629   5.226   3.671
  664W        W 4715   5.740   3.150   2.138
  665W        W 4716   3.615   4.839   0.621
  666W        W 4717   8.930   3.761   0.734
  667W        W 4718   7.637   9.099   3.068
  668W        W 4719   7.454   8.170   2.070
  669W        W 4720   1.298  11.362  11.007
  670W        W 4721   1.002   3.047   9.675
  671W        W 4722   9.057   0.271  11.451
  672W        W 4723   5.805   5.778  11.861
  673W        W 4724   4.963  10.229  10.039
  674W        W 4725   3.572   7.034   9.615
  675W        W 4726   6.574  11.082  10.972
  676W        W 4727   9.609   5.513   9.460
  677W        W 4728   2.107   4.193  10.574
  678W        W 4729   7.456   4.226   1.929
  679W        W 4730   0.893   7.610   9.381
  680W        W 4731   2.469  10.363  10.078
  681W        W 4732   7.071  10.548   8.673
  682W        W 4733   7.165  11.126   0.381
  683W        W 4734   0.815   3.366  10.046
  684W        W 4735   4.706   6.178   0.806
  685W        W 4736   3.648   2.367  11.803
  686W        W 4737   2.193   6.243   2.979
  687W        W 4738   8.333   5.270   2.811
  688W        W 4739   8.811   3.802   9.100
  689W        W 4740  10.710   4.837   3.599
  690W        W 4741   5.850  10.552   0.152
  691W        W 4742   2.349  11.330   9.067
  692W        W 4743   5.696   1.796   1.000
  693W        W 4744   8.158   8.268   2.257
  694W        W 4745   2.296   1.726  11.918
  695W        W 4746   1.428   5.181   2.647
  696W        W 4747   5.488   2.660   0.949
  697W        W 4748   3.128   9.492   9.179
  698W        W 4749   2.991   4.139   0.226
  699W        W 4750   4.728   7.233   0.549
  700W        W 4751   9.975   0.713   3.346
  701W        W 4752  10.596   5.187   2.273
  702W        W 4753   8.080   4.609   9.467
  703W        W 4754   1.653   2.364   2.281
  704W        W 4755   9.278   3.256  10.944
  705W        W 4756   7.124   0.934  11.311
  706W        W 4757   9.602   8.983   0.879
  707W        W 4758   4.346   9.946  10.666
  708W        W 4759  10.658   3.218   0.676
  709W        W 4760   4.892   1.301   1.223
  710W        W 4761   1.253   9.776   9.819
  711W        W 4762   6.547   9.982   9.607
  712W        W 4763   2.182   8.640   1.624
  713W        W 4764   1.869   8.566  10.007
  714W        W 4765   9.355   9.432   2.357
  715W        W 4766   2.764   2.189   0.263
  716W        W 4767   3.128   3.178   1.794
  717W        W 4768  10.081   9.588   3.093
  718W        W 4769   0.236   0.586   0.116
  719W        W 4770   4.144   9.526  10.959
  720W        W 4771   5.090   9.393  11.085
  721W        W 4772   9.195   6.578  10.869
  722W        W 4773   8.167  10.041   9.065
  723W        W 4774   7.924   0.358  10.973
  724W        W 4775   8.086   1.437   1.877
  725W        W 4776   1.124   7.980  11.600
  726W        W 4777   7.172   3.663   1.241
  727W        W 4778   0.518   7.701   1.467
  728W        W 4779  10.343   0.227   1.014
  729W        W 4780   6.327   1.667   2.281
  730W        W 4781   2.580   5.573   3.310
  731W        W 4782   3.498   8.367  11.303
  732W        W 4783   0.695  10.380   1.353
  733W        W 4784   3.708   7.896  11.508
  734W        W 4785   5.200   3.060  11.581
  735W        W 4786   6.492   2.799   3.420
  736W        W 4787   0.767   0.633   3.169
  737W        W 4788   7.019   8.406   1.893
  738W        W 4789   5.638   7.802   9.875
  739W        W 4790   5.884  10.516   2.100
  740W        W 4791   0.501  11.039   0.655
  741W        W 4792   8.283   6.354  10.996
  742W        W 4793  11.382   7.625   9.672
  743W        W 4794   1.542   7.937  10.907
  744W        W 4795   2.203   1.267   1.005
  745W        W 4796   5.678   5.533   2.717
  746W        W 4797  10.012   8.166   1.078
  747W        W 4798   3.253  10.808   0.867
  748W        W 4799  10.807   8.687   8.855
  749W        W 4800   6.684   3.206   8.929
  750W        W 4801   2.742   4.212  11.206
  751W        W 4802  10.334   5.581   1.890
  752W        W 4803  11.433   4.543   1.686
  753W        W 4804   5.008   2.045   9.546
  754W        W 4805   8.557   7.213  11.172
  755W        W 4806  10.912   4.686   1.683
  756W        W 4807   4.804   2.675  10.974
  757W        W 4808   0.953   9.011   9.195
  758W        W 4809   7.135   4.260   9.995
  759W        W 4810   9.042  11.489   9.548
  760W        W 4811  11.443   5.683  10.751
  761W        W 4812   5.700   1.109   1.775
  762W        W 4813   0.691   0.315  10.954
  763W        W 4814  10.864   7.020   1.694
  764W        W 4815  10.140   4.483   9.890
  765W        W 4816   6.674   9.100  11.658
  766W        W 4817   2.050   6.860   3.636
  767W        W 4818   7.614   0.694   2.040
  768W        W 4819  10.026   5.690  10.645
  769W        W 4820   2.609   1.800   1.745
  770W        W 4821   4.192   1.762   3.078
  771W        W 4822   6.784   5.158   0.450
  772W        W 4823   1.953   0.685   0.198
  773W        W 4824   8.542   8.948   2.743
  774W        W 4825   5.070   6.691  10.327
  775W        W 4826   7.106   0.987   3.568
  776W        W 4827   9.742   4.968   3.900
  777W        W 4828   6.267   5.728   1.218
  778W        W 4829   0.842   5.072   1.710
  779W        W 4830   7.798   4.640  10.742
  780W        W 4831   0.048   8.602   9.450
  781W        W 4832   5.939  10.098  10.484
  782W        W 4833   4.807   5.671   2.088
  783W        W 4834  10.816   0.878   1.323
  784W        W 4835   6.676   2.603   9.360
  785W        W 4836   6.091   2.128   2.233
  786W        W 4837  10.298   0.224  10.704
  787W        W 4838  10.525   5.644  10.498
  788W        W 4839   9.331   7.677   3.427
  789W        W 4840   2.811   8.677   2.716
  790W        W 4841   1.187   9.648   1.744
  791W        W 4842   5.802  10.058   0.345
  792W        W 4843   6.594   3.185  11.169
  793W        W 4844   7.456   7.624   1.268
  794W        W 4845   5.574   1.802   3.441
  795W        W 4846   6.377  10.607  11.193
  796W        W 4847   7.426   7.711   2.304
  797W        W 4848   7.555   6.729  11.430
  798W        W 4849  10.556   6.580  10.374
  799W        W 4850   8.608   9.889   8.741
  800W        W 4851   9.129   8.967  11.146
  801W        W 4852  11.451   5.592   1.862
  802W        W 4853   0.891  10.064   0.375
  803W        W 4854   2.717   6.605  10.952
  804W        W 4855  10.357   5.093   3.143
  805W        W 4856   9.991   1.702  10.272
  806W        W 4857   6.432   3.783   9.599
  807W        W 4858   1.334   5.471   3.206
  808W        W 4859   0.063  11.346  10.658
  809W        W 4860   9.573   0.223   0.533
  810W        W 4861   5.058   0.470   0.790
  811W        W 4862   3.641   2.337   1.206
  812W        W 4863  10.012   0.259   0.264
  813W        W 4864   4.570   2.203   0.978
  814W        W 4865   2.546   8.335   0.793
  815W        W 4866   0.556   9.200   0.776
  816W        W 4867   5.919   7.820  11.976
  817W        W 4868   6.477   5.094   1.848
  818W        W 4869   4.776   8.323   1.536
  819W        W 4870   3.195   1.396   2.033
  820W        W 4871  10.421   0.601   9.392
  821W        W 4872   3.856   0.381   9.684
  822W        W 4873   6.345   7.207   9.495
  823W        W 4874   2.228   5.270   9.499
  824W        W 4875   5.453   0.798   9.859
  825W        W 4876   0.901   8.339   3.520
  826W        W 4877   5.639   9.926  11.819
  827W        W 4878   2.185   3.382   2.788
  828W        W 4879  11.386   7.020  10.518
  829W        W 4880   2.717   4.501   0.952
  830W        W 4881   1.459   9.919   9.369
  831W        W 4882   7.051   4.829   0.749
  832W        W 4883   1.826   8.151   1.381
  833W        W 4884   7.852   4.194   8.698
  834W        W 4885  10.947   2.093   2.252
  835W        W 4886  11.281   9.924   0.768
  836W        W 4887   1.209   0.575   2.861
  837W        W 4888   7.806  10.668   0.793
  838W        W 4889   0.699   8.870   2.797
  839W        W 4890  10.017   5.651   0.954
  840W        W 4891   8.088  10.761   1.220
  841W        W 4892   6.302   9.144   3.155
  842W        W 4893   1.517   6.245   9.884
  843W        W 4894   6.438   0.295  11.659
  844W        W 4895   0.952   8.399   9.857
  845W        W 4896   6.649   9.401   1.068
  846W        W 4897  10.827   2.169   1.752
  847W        W 4898   4.210  10.803   2.461
  848W        W 4899   2.658   3.681   2.041
  849W        W 4900   7.857   0.349   2.720
  850W        W 4901   6.527   8.110  11.348
  851W        W 4902   0.665   2.164   1.726
  852W        W 4903   0.790   0.822   0.735
  853W        W 4904   1.290   3.129  11.576
  854W        W 4905  11.334   4.032   3.515
  855W        W 4906   2.369   2.461   0.460
  856W        W 4907   8.368   7.496   2.295
  857W        W 4908   1.204   9.403   9.460
  858W        W 4909   4.269  11.274  11.369
  859W        W 4910   1.754   5.082   1.676
  860W        W 4911   3.823   9.268   0.440
  861W        W 4912   3.491  11.385  11.974
  862W        W 4913   7.503   5.006   0.937
  863W        W 4914   2.543   4.632  11.776
  864W        W 4915   7.740   1.426   0.563
  865W        W 4916   7.906   1.929   0.710
  866W        W 4917   0.947   2.707   8.440
  867W        W 4918   3.162   7.494   1.064
  868W        W 4919   2.709   4.094   1.260
  869W        W 4920   6.966   0.329   2.741
  870W        W 4921   2.483   8.071   8.152
  871W        W 4922   4.917   2.844   4.018
  872W        W 4923   4.289   3.362  11.481
  873W        W 4924   2.255   3.800   1.326
  874W        W 4925  11.154   7.715   0.744
  875W        W 4926   1.012   8.903   0.416
  876W        W 4927   8.479   1.753   3.185
  877W        W 4928   1.364  10.036  11.732
  878W        W 4929   9.919   8.980   9.379
  879W        W 4930   0.350   2.731   0.049
  880W        W 4931   9.800   7.454   8.527
  881W        W 4932   3.921   2.167   2.886
  882W        W 4933   6.953   5.846  10.357
  883W        W 4934   4.222   2.184   3.377
  884W        W 4935   4.314   0.841   2.207
  885W        W 4936   7.735  10.182   0.593
  886W        W 4937   0.488   6.273   1.659
  887W        W 4938   0.285   1.897  10.301
  888W        W 4939  11.436   4.672  10.557
  889W        W 4940   3.591   0.472   2.715
  890W        W 4941   5.705   1.331   0.770
  891W        W 4942   1.149  10.457   9.519
  892W        W 4943  10.914  10.404   9.308
  893W        W 4944   6.269  10.234   0.194
  894W        W 4945   4.531  11.152   9.195
  895W        W 4946   4.168   4.723   2.823
  896W        W 4947   6.638   9.490  10.480
  897W        W 4948  11.319   7.656   9.152
  898W        W 4949  10.315   9.561  10.545
  899W        W 4950   3.895   6.161  10.643
  900W        W 4951   4.108   4.141   9.300
  901W        W 4952   1.674   9.516   8.608
  902W        W 4953   1.333   8.693   1.063
  903W        W 4954   0.852   6.358   2.937
  904W        W 4955   3.605  11.437   9.545
  905W        W 4956   4.845   8.398   2.829
  906W        W 4957   8.380  10.277   2.731
  907W        W 4958   5.568  10.602   2.985
  908W        W 4959   7.580   8.448  10.367
  909W        W 4960   0.137   1.513  11.917
  910W        W 4961   5.981   3.159   0.092
  911W        W 4962   0.647   7.055   9.475
  912W        W 4963   3.422   8.881   1.948
  913W        W 4964  11.279   8.031   3.065
  914W        W 4965   1.703   7.348   2.923
  915W        W 4966   3.041   5.292   8.250
  916W        W 4967   8.146   2.809  11.292
  917W        W 4968   9.299   0.312   2.771
  918W        W 4969   8.638   1.060   2.603
  919W        W 4970   9.368   2.157   0.282
  920W        W 4971  10.961  10.579   0.777
  921W        W 4972   2.275   9.099   9.989
  922W        W 4973   6.623   1.996   1.457
  923W        W 4974   5.716   1.889   1.970
  924W        W 4975   4.292   0.726  11.378
  925W        W 4976   6.129   3.822   0.395
  926W        W 4977   4.740   6.279  10.311
  927W        W 4978   0.300   2.247  10.874
  928W        W 4979   8.020   7.990   1.362
  929W        W 4980   6.586  10.444  10.753
  930W        W 4981   2.125   4.299   0.515
  931W        W 4982   3.174   5.530  10.508
  932W        W 4983   4.488   8.841   9.336
  933W        W 4984  10.383   2.417  10.922
  934W        W 4985   9.697   4.127   1.854
  935W        W 4986   1.516   6.336   3.508
  936W        W 4987   5.124   1.985   3.623
  937W        W 4988   3.273  10.183   2.694
  938W        W 4989   8.568   3.357   3.072
  939W        W 4990   6.191   1.419   2.726
  940W        W 4991  11.015   3.642   1.421
  941W        W 4992   8.549   6.142   9.188
  942W        W 4993  11.123   8.100   3.548
  943W        W 4994   8.048  11.449   8.938
  944W        W 4995   6.050  10.385   2.633
  945W        W 4996   3.584   6.391   2.701
  946W        W 4997   3.668   3.719   3.055
  947W        W 4998   9.429  10.539  10.273
  948W        W 4999   0.423   7.015   2.550
  949W        W 5000   2.056   9.943   2.960
  950W        W 5001   9.767   3.270  11.860
  951W        W 5002   7.606   2.228  10.916
  952W        W 5003   9.016  11.079   0.389
  953W        W 5004   9.296   5.100   1.455
  954W        W 5005   6.744   8.904   9.209
  955W        W 5006   8.278   9.159  11.774
  956W        W 5007   5.721   3.771   1.628
  957W        W 5008   1.332   3.773   2.875
  958W        W 5009   5.245   8.024   9.677
  959W        W 5010   0.995   1.691   1.461
  960W        W 5011   0.265   9.502   1.480
  961W        W 5012  10.396   3.220   2.185
  962W        W 5013   2.642  10.913   8.962
  963W        W 5014   5.768   7.191  11.274
  964W        W 5015   1.322   0.468   3.363
  965W        W 5016   8.604   5.903  10.971
  966W        W 5017   5.167   4.636  11.751
  967W        W 5018   1.020   0.642   1.730
  968W        W 5019   5.584   7.551  10.958
  969W        W 5020   2.092   5.969  10.947
  970W        W 5021   9.487   5.198   3.436
  971W        W 5022   3.753   8.026   8.916
  972W        W 5023   4.150   7.662   9.041
  973W        W 5024   7.175   2.334   3.005
  974W        W 5025   8.741   4.953  10.776
  975W        W 5026   0.809   0.197   1.850
  976W        W 5027   4.361   1.325   1.366
  977W        W 5028   6.993   2.757   8.992
  978W        W 5029   7.645   3.862   3.275
  979W        W 5030   0.006   4.268   0.139
  980W        W 5031   2.667   8.508   1.714
  981W        W 5032  10.880  10.366   0.319
  982W        W 5033   3.138   2.908   9.161
  983W        W 5034   1.414   2.770  10.992
  984W        W 5035   3.269   9.863   8.842
  985W        W 5036   5.047   5.872  11.364
  986W        W 5037   5.117   9.629   8.081
  987W        W 5038  10.948   8.112   2.676
  988W        W 5039   6.472   9.133   1.827
  989W        W 5040   5.650  10.144   8.552
  990W        W 5041   7.046   8.402   9.068
  991W        W 5042   6.001   5.531   9.665
  992W        W 5043   8.881   5.516  10.575
  993W        W 5044   7.457   3.599   0.778
  994W        W 5045   6.318   2.650   2.857
  995W        W 5046   8.095   5.527   0.688
  996W        W 5047   1.430   6.252   8.995
  997W        W 5048   6.680   0.064  10.847
  998W        W 5049   8.084   6.433   0.290
  999W        W 5050  10.564   4.490   9.617
 1000W        W 5051   9.592   3.564   2.654
 1001W        W 5052   4.165   2.823  10.039
 1002W        W 5053   0.343   4.529   9.804
 1003W        W 5054  10.004   9.078  11.536
 1004W        W 5055   2.611   6.588   2.933
 1005W        W 5056   3.285  10.509   3.196
 1006W        W 5057   9.887   1.709   3.476
 1007W        W 5058   9.431   5.556  11.757
 1008W        W 5059   7.950   9.942   3.298
 1009W        W 5060   1.231   4.543   9.856
 1010W        W 5061   9.036   9.371  11.472
 1011W        W 5062   3.604   0.410   0.033
 1012W        W 5063   3.068   3.087   8.412
 1013W        W 5064   0.246   9.119   0.055
 1014W        W 5065   8.178   8.957   0.564
 1015W        W 5066   9.720   6.688   0.499
 1016W        W 5067   9.326   9.390   9.928
 1017W        W 5068   5.237   1.941   0.712
 1018W        W 5069   3.157   2.383   2.149
 1019W        W 5070   9.317   5.912   1.938
 1020W        W 5071   0.933   1.532  11.096
 1021W        W 5072   2.878   1.627  10.497
 1022W        W 5073   3.777   0.277   9.183
 1023W        W 5074   0.396   6.464   3.275
 1024W        W 5075   1.851   3.621   9.406
 1025W        W 5076   9.970   9.906   3.476
 1026W        W 5077   5.953   0.504   9.282
 1027W        W 5078  11.373   7.026   1.701
 1028W        W 5079   7.661   2.610  11.942
 1029W        W 5080   8.422   0.271   0.472
 1030W        W 5081   5.771  10.920   9.205
 1031W        W 5082   8.439   8.101   9.099
 1032W        W 5083   0.291   5.173   3.010
 1033W        W 5084   4.814   8.879   0.896
 1034W        W 5085   0.530   3.994  11.885
 1035W        W 5086   0.408   6.283   9.763
 1036W        W 5087   8.742   1.459  11.771
 1037W        W 5088  11.239  11.160  10.292
 1038W        W 5089   2.612   8.118   2.080
 1039W        W 5090   3.629   8.416   9.735
 1040W        W 5091   7.869   6.963   2.580
 1041W        W 5092   9.567   2.391  11.098
 1042W        W 5093   6.929   0.803   1.300
 1043W        W 5094   6.279   6.409   8.578
 1044W        W 5095   2.183   8.322  10.709
 1045W        W 5096   0.925   1.369   9.113
 1046W        W 5097   2.068   6.840   9.533
 1047W        W 5098   9.762  10.268   8.997
 1048W        W 5099  11.068   7.692  10.514
 1049W        W 5100   1.180   1.980   0.707
 1050W        W 5101   8.581   9.950   1.129
 1051W        W 5102   6.042   8.167   3.047
 1052W        W 5103  11.040   9.845   0.330
 1053W        W 5104   4.801   9.798   2.622
 1054W        W 5105   6.139   1.389   1.148
 1055W        W 5106   1.765  11.232  11.097
 1056W        W 5107   9.421   6.649   0.093
 1057W        W 5108   8.256   0.257   3.055
 1058W        W 5109   2.443   0.709   0.314
 1059W        W 5110   2.577   6.116  11.033
 1060W        W 5111   3.774   0.069   0.377
 1061W        W 5112   8.013   8.962   1.572
 1062W        W 5113   6.645   8.891   0.345
 1063W        W 5114   0.899   3.422  11.430
 1064W        W 5115   0.847   6.784  10.905
 1065W        W 5116   8.189   6.680   1.757
 1066W        W 5117   2.433   4.840   1.189
 1067W        W 5118   9.401   2.417  10.628
 1068W        W 5119   5.086   2.642   1.284
 1069W        W 5120   0.892   3.648  10.886
 1070W        W 5121   7.561   7.224   0.317
 1071W        W 5122  10.143   7.920   0.671
 1072W        W 5123   6.716   9.313   9.999
 1073W        W 5124   9.863  10.135   1.844
 1074W        W 5125   2.197   4.669   0.161
 1075W        W 5126   2.207   7.935   2.358
 1076W        W 5127  11.177   6.492  11.260
 1077W        W 5128  10.950  10.039  10.074
 1078W        W 5129   1.597   2.367   1.445
 1079W        W 5130   6.515   1.713   1.001
 1080W        W 5131   1.926   1.338   9.409
 1081W        W 5132  11.395   7.263   0.812
 1082W        W 5133   9.863  10.845   9.919
 1083W        W 5134   1.170   9.575   0.866
 1084W        W 5135   0.738   2.341  11.307
 1085W        W 5136   9.507  10.362   0.032
 1086W        W 5137   9.330   7.630   1.015
 1087W        W 5138  10.871   7.194   3.060
 1088W        W 5139   6.597   1.488   1.468
 1089W        W 5140   5.521   6.696   1.816
 1090W        W 5141   9.421   1.905  11.060
 1091W        W 5142   9.298   1.426  11.832
 1092W        W 5143   4.707   7.749   2.945
 1093W        W 5144   6.546   3.729  10.906
 1094W        W 5145   5.173   8.010   3.002
 1095W        W 5146   9.523   8.879  10.795
 1096W        W 5147   9.484   1.633   1.536
 1097W        W 5148   2.907   9.476   2.187
 1098W        W 5149  11.305   5.109   2.873
 1099W        W 5150   7.620   9.318  10.492
 1100W        W 5151   2.872   0.939  11.428
 1101W        W 5152   2.204   4.388   9.823
 1102W        W 5153   3.772   7.976  11.011
 1103W        W 5154   5.153   6.660  10.846
 1104W        W 5155   9.742   7.013   0.934
 1105W        W 5156   0.184   2.839   8.986
 1106W        W 5157   3.695  10.347   2.909
 1107W        W 5158   3.205  11.366  10.629
 1108W        W 5159  10.980  10.846   2.532
 1109W        W 5160  10.838   6.349   2.740
 1110W        W 5161  11.137  11.119  11.531
 1111W        W 5162   0.373   6.019  10.765
 1112W        W 5163   8.179   2.782   1.242
 1113W        W 5164   7.498   2.653   9.039
 1114W        W 5165   7.080   7.014   2.067
 1115W        W 5166   0.337   9.048   3.109
 1116W        W 5167   9.858   1.790   1.189
 1117W        W 5168   2.906   5.496   0.714
 1118W        W 5169   7.945   8.361  11.333
 1119W        W 5170   7.936   0.667   3.112
 1120W        W 5171   8.998   8.717   2.770
 1121W        W 5172   2.076   0.897   0.658
 1122W        W 5173   8.013   3.848  10.098
 1123W        W 5174   9.375   7.417   9.846
 1124W        W 5175   0.847   0.505   8.853
 1125W        W 5176   4.771   4.354   2.939
 1126W        W 5177   7.035   5.028  11.329
 1127W        W 5178  11.007   4.062   0.613
 1128W        W 5179   4.409   1.273   2.754
 1129W        W 5180   2.487   4.211  10.209
 1130W        W 5181   6.432   2.779   1.650
 1131W        W 5182   3.321   0.453   9.442
 1132W        W 5183   7.029   2.974   9.839
 1133W        W 5184   5.178   4.033   8.375
 1134W        W 5185   0.058   2.877  11.266
 1135W        W 5186   6.842  10.726   0.595
 1136W        W 5187   2.698  10.813   9.929
 1137W        W 5188   4.559   2.209  11.954
 1138W        W 5189   7.093   6.515  11.426
 1139W        W 5190  10.265   4.040  10.433
 1140W        W 5191   7.882   5.019   1.465
 1141W        W 5192   6.322   3.297   3.270
 1142W        W 5193   4.290   4.226   2.665
 1143W        W 5194  11.354   7.508   3.177
 1144W        W 5195   1.242   6.671   9.775
 1145W        W 5196   9.454   4.042   2.824
 1146W        W 5197   4.732   4.100   8.637
 1147W        W 5198  10.022   8.612   1.949
 1148W        W 5199   0.896   7.713  10.669
 1149W        W 5200   8.980   5.630   0.968
 1150W        W 5201   0.924   0.225  10.201
 1151W        W 5202   1.128  10.203   2.755
 1152W        W 5203  10.104   3.051  10.550
 1153W        W 5204  11.010   1.178   0.562
 1154W        W 5205   4.597   2.257   2.381
 1155W        W 5206   7.340   1.478   9.079
 1156W        W 5207   3.815   0.392  10.197
 1157W        W 5208   2.469   1.791   8.812
 1158W        W 5209   6.667  10.915   8.723
 1159W        W 5210   3.823   4.616  11.361
 1160W        W 5211   6.201   2.970  10.317
 1161W        W 5212   3.044   5.545   8.815
 1162W        W 5213   0.273   3.151  10.845
 1163W        W 5214   2.441   4.627  11.273
 1164W        W 5215   0.113   1.796   8.874
 1165W        W 5216   4.218   5.049   9.551
 1166W        W 5217  10.059   1.836   2.666
 1167W        W 5218   9.072   4.287   2.582
 1168W        W 5219  11.266   3.112  10.884
 1169W        W 5220   8.362   1.749   0.868
 1170W        W 5221   1.271   8.458  11.548
 1171W        W 5222   6.934   6.214   9.165
 1172W        W 5223  11.389   3.192   1.346
 1173W        W 5224  10.645   1.829   3.907
 1174W        W 5225   1.162  10.283  10.426
 1175W        W 5226   9.088   9.043   1.999
 1176W        W 5227   8.984   1.890  11.940
 1177W        W 5228   4.278   9.938   2.772
 1178W        W 5229   8.953   6.924   1.201
 1179W        W 5230   6.868   3.097   9.385
 1180W        W 5231   6.223   8.519  11.278
 1181W        W 5232   9.422   3.598   3.129
 1182W        W 5233   8.558   2.051   1.278
 1183W        W 5234   8.520   8.027   2.757
 1184W        W 5235   9.850   9.297  10.646
 1185W        W 5236   7.466   2.776   2.331
 1186W        W 5237   8.956   7.128  10.861
 1187W        W 5238  10.808   9.794   1.890
 1188W        W 5239   4.739   9.470   8.480
 1189W        W 5240   8.150   1.774   2.284
 1190W        W 5241   8.014   6.436  11.442
 1191W        W 5242   7.586   5.311  10.611
 1192W        W 5243   7.037   9.055   0.006
 1193W        W 5244   7.111  10.984   9.025
 1194W        W 5245   8.867   4.573   8.647
 1195W        W 5246   4.169   2.589   3.008
 1196W        W 5247   5.675   3.852   0.721
 1197W        W 5248   1.252   6.539  11.276
 1198W        W 5249   8.510   9.028   3.238
 1199W        W 5250   4.147   0.461   8.846
 1200W        W 5251   8.715  10.924   0.956
 1201W        W 5252   6.557   8.443   9.704
 1202W        W 5253   2.321   8.653  10.339
 1203W        W 5254   0.490   1.148  11.812
 1204W        W 5255   0.428   4.396   1.710
 1205W        W 5256   0.428   0.463   2.070
 1206W        W 5257  11.293  10.780   0.403
 1207W        W 5258  10.523   4.801  10.022
 1208W        W 5259   1.833   1.744  10.112
 1209W        W 5260   6.471   4.751   0.388
 1210W        W 5261   1.212   4.985   3.230
 1211W        W 5262  10.331   6.288  11.239
 1212W        W 5263   6.140   9.635  10.560
 1213W        W 5264  10.956   7.846   1.761
 1214W        W 5265   3.292   8.324   8.932
 1215W        W 5266   2.299   6.186   9.299
 1216W        W 5267   9.827   5.452   8.717
 1217W        W 5268  10.417   2.140   9.594
 1218W        W 5269   1.827   0.195   2.717
 1219W        W 5270   3.374   1.286   8.786
 1220W        W 5271   7.193   7.293  10.065
 1221W        W 5272   8.601  10.788   0.462
 1222W        W 5273   6.412   7.984   9.028
 1223W        W 5274   6.600   5.426   0.064
 1224W        W 5275   7.473   1.523   2.387
 1225W        W 5276   6.630   9.527   3.255
 1226W        W 5277   3.444   8.630  11.764
 1227W        W 5278   5.900   2.945   0.845
 1228W        W 5279  10.887   5.543  10.074
 1229W        W 5280   2.414   1.781  11.402
 1230W        W 5281   7.198  10.632   0.216
 1231W        W 5282   0.040  10.888   0.860
 1232W        W 5283   3.284   7.464   2.035
 1233W        W 5284   8.910   7.576  11.099
 1234W        W 5285   6.235  10.036  10.919
 1235W        W 5286   3.733  10.932  10.014
 1236W        W 5287  10.084   9.094   1.807
 1237W        W 5288   3.810   7.023   0.513
 1238W        W 5289   9.417   7.160   1.858
 1239W        W 5290   3.616   9.357   9.278
 1240W        W 5291   3.836   9.851   1.214
 1241W        W 5292   1.324   5.315   9.473
 1242W        W 5293  11.326   8.567   8.981
 1243W        W 5294   8.256   6.367   8.803
 1244W        W 5295   6.954  11.465   3.331
 1245W        W 5296   2.382   1.334   9.139
 1246W        W 5297   6.358   9.173  11.272
 1247W        W 5298   3.118   1.845   9.524
 1248W        W 5299   6.567   2.469  11.904
 1249W        W 5300   3.721   9.792   2.062
 1250W        W 5301   6.171  11.063  11.288
 1251W        W 5302   7.160   7.046   0.576
 1252W        W 5303   2.333   9.881   1.762
 1253W        W 5304   8.496   9.414  11.056
 1254W        W 5305   5.517   5.648   9.563
 1255W        W 5306   7.645   7.995  10.139
 1256W        W 5307   1.145   0.311  11.207
 1257W        W 5308   1.312   8.145   1.928
 1258W        W 5309   7.542  10.865  11.446
 1259W        W 5310   1.678   4.546   9.573
 1260W        W 5311   8.869   1.628   2.855
 1261W        W 5312   5.148   8.637   0.313
 1262W        W 5313   5.635  10.000   1.430
 1263W        W 5314   9.848  10.261  10.334
 1264W        W 5315   9.031   3.701   8.657
 1265W        W 5316   5.654   8.665   0.456
 1266W        W 5317   2.025  11.296  11.915
 1267W        W 5318   7.442   4.000  11.936
 1268W        W 5319   4.589   6.733   2.901
 1269W        W 5320   5.339   5.055   2.586
 1270W        W 5321   9.498   3.038   2.477
 1271W        W 5322   9.156   1.236  10.041
 1272W        W 5323   0.641   0.544  10.500
 1273W        W 5324   4.536  10.361   8.532
 1274W        W 5325   1.243   3.547   9.856
 1275W        W 5326   0.735   0.057  11.403
 1276W        W 5327   0.643   7.155   1.288
 1277W        W 5328  10.450  10.822  11.021
 1278W        W 5329   1.925   5.051   2.642
 1279W        W 5330   1.472   9.741   1.265
 1280W        W 5331   3.662   2.338   0.697
 1281W        W 5332   6.719   6.849   2.377
 1282W        W 5333   8.450   7.096   0.330
 1283W        W 5334   5.262   3.292   2.238
 1284W        W 5335   0.243   2.310   9.115
 1285W        W 5336   1.743   6.871   2.733
 1286W        W 5337   5.273   0.165   0.395
 1287W        W 5338   0.066  10.288   2.340
 1288W        W 5339   6.738   9.999  10.999
 1289W        W 5340   6.012   8.495  11.790
 1290W        W 5341   8.041   7.246  11.124
 1291W        W 5342   9.831   9.410   0.677
 1292W        W 5343   2.397  11.334   0.272
 1293W        W 5344   2.364   9.439   0.392
 1294W        W 5345   8.530   5.607   3.577
 1295W        W 5346   4.240   3.556   0.921
 1296W        W 5347   6.974   2.358  10.991
 1297W        W 5348   8.430   3.265   9.493
 1298W        W 5349   9.194  10.092   0.392
 1299W        W 5350  10.172   8.596  11.580
 1300W        W 5351  11.390   8.635   9.928
 1301W        W 5352   6.519   0.640   0.057
 1302W        W 5353   6.164  10.868   3.409
 1303W        W 5354   0.138   7.196   9.811
 1304W        W 5355   2.920   7.560   3.002
 1305W        W 5356   0.412   9.011   1.736
 1306W        W 5357  10.526   8.487  11.946
 1307W        W 5358   7.207   5.661   1.082
 1308W        W 5359   3.386   5.297   9.155
 1309W        W 5360   9.891   8.146   2.825
 1310W        W 5361   2.907   5.476   1.746
 1311W        W 5362   2.415   3.290   1.177
 1312W        W 5363   3.879   1.285   8.622
 1313W        W 5364   8.698   6.666  10.836
 1314W        W 5365  10.427   1.498  10.451
 1315W        W 5366   7.146   6.506   3.148
 1316W        W 5367  11.472   6.135   0.009
 1317W        W 5368   0.159   1.080   0.250
 1318W        W 5369  11.448   3.383  10.461
 1319W        W 5370   8.881   3.210   8.604
 1320W        W 5371   0.074   6.094   1.918
 1321W        W 5372   5.984   4.097   9.468
 1322W        W 5373   9.893   3.713   0.661
 1323W        W 5374   4.656   8.535   0.464
 1324W        W 5375  10.814   3.468   2.375
 1325W        W 5376   0.474   9.997   2.208
 1326W        W 5377   5.047  11.452   0.818
 1327W        W 5378   7.275   6.198  10.616
 1328W        W 5379   3.778  11.137  11.420
 1329W        W 5380   2.665   9.297  11.954
 1330W        W 5381  10.623   7.860   0.520
 1331W        W 5382   1.708   4.872  11.043
 1332W        W 5383   6.900  11.368   9.487
 1333W        W 5384   1.880   8.829   0.272
 1334W        W 5385   8.564   2.329   2.365
 1335W        W 5386   3.676   2.853   0.723
 1336W        W 5387  10.678  11.420   0.674
 1337W        W 5388   2.874   4.193   2.650
 1338W        W 5389   3.133   0.320   1.510
 1339W        W 5390   0.262   5.519   9.821
 1340W        W 5391   6.304  10.446  10.314
 1341W        W 5392   4.912   0.659   1.664
 1342W        W 5393   0.247   3.132   0.392
 1343W        W 5394   2.961   0.134  10.173
 1344W        W 5395   0.490   3.096  11.425
 1345W        W 5396   1.991   8.122  11.869
 1346W        W 5397   4.637   7.605  11.568
 1347W        W 5398   7.339   0.539   8.913
 1348W        W 5399   6.592   7.883   2.337
 1349W        W 5400   7.548   2.288   0.777
 1350W        W 5401   3.743   5.179   0.246
 1351W        W 5402   3.715   4.493   1.908
 1352W        W 5403   8.148   4.646   8.679
 1353W        W 5404   7.852   8.458  11.930
 1354W        W 5405   5.486   8.995   8.621
 1355W        W 5406   0.892   9.207   3.145
 1356W        W 5407   2.807   2.114  10.373
 1357W        W 5408   0.505   1.292   2.629
 1358W        W 5409   5.343  11.380   1.738
 1359W        W 5410  10.282   9.467  11.339
 1360W        W 5411  10.730  10.420   1.337
 1361W        W 5412   2.785   2.398   0.783
 1362W        W 5413   8.044   5.999   4.128
 1363W        W 5414   2.318  10.882  11.801
 1364W        W 5415   6.965   1.519   0.720
 1365W        W 5416   0.042   9.942   8.836
 1366W        W 5417   0.501   3.066   9.769
 1367W        W 5418  10.638   3.926   0.274
 1368W        W 5419   2.811   3.775   9.461
 1369W        W 5420   4.585   9.498  10.692
 1370W        W 5421   5.627   1.713   2.924
 1371W        W 5422   3.399   1.424   2.862
 1372W        W 5423   5.276   9.485   8.556
 1373W        W 5424   0.217   0.330  10.757
 1374W        W 5425  10.887  10.132  11.312
 1375W        W 5426   4.628  10.064   2.219
 1376W        W 5427   4.947   0.779   9.772
 1377W        W 5428   4.047   4.694   3.521
 1378W        W 5429  10.539   7.229  11.529
 1379W        W 5430   6.782   3.645   9.199
 1380W        W 5431   4.528   4.465   9.543
 1381W        W 5432   3.837   0.424  11.576
 1382W        W 5433  10.881   4.178   1.126
 1383W        W 5434   5.211   9.904   3.634
 1384W        W 5435   4.353   1.421   9.961
 1385W        W 5436   7.536   0.850   3.357
 1386W        W 5437   9.061   0.737   2.512
 1387W        W 5438   8.539   7.590   9.267
 1388W        W 5439   3.686   2.643   9.272
 1389W        W 5440   8.540   7.522   2.789
 1390W        W 5441   9.038   4.617   1.305
 1391W        W 5442   8.591   2.577   0.533
 1392W        W 5443   6.112   3.289   1.154
 1393W        W 5444   2.724   7.889   2.629
 1394W        W 5445   3.204  10.307   0.104
 1395W        W 5446  10.614   9.830  10.901
 1396W        W 5447   7.593   4.371   1.458
 1397W        W 5448   2.394   7.858  10.708
 1398W        W 5449   8.642   6.358  11.733
 1399W        W 5450   8.965   9.628  11.023
 1400W        W 5451   5.761   0.397   0.507
 1401W        W 5452   6.068   8.110   8.619
 1402W        W 5453   6.047   7.317   4.021
 1403W        W 5454   4.079  10.957   9.061
 1404W        W 5455   0.860   3.929  11.317
 1405W        W 5456   4.331   8.827   0.747
 1406W        W 5457   2.796   2.480  11.844
 1407W        W 5458   7.777   6.657   9.985
 1408W        W 5459   9.537   2.896   9.471
 1409W        W 5460  10.071   8.983   9.864
 1410W        W 5461   3.677   0.792   8.968
 1411W        W 5462   4.751   9.086  11.459
 1412W        W 5463   8.785  10.868   2.314
 1413W        W 5464   3.887   5.273  10.575
 1414W        W 5465   6.682   3.755   0.238
 1415W        W 5466   8.037   9.615   9.867
 1416W        W 5467   9.098   5.731   2.789
 1417W        W 5468   7.663   4.154  11.040
 1418W        W 5469  10.717   9.795  11.774
 1419W        W 5470   3.140   9.084  10.151
 1420W        W 5471   5.821   5.214  11.616
 1421W        W 5472   3.381   6.065  10.681
 1422W        W 5473   6.504   6.672   1.674
 1423W        W 5474   9.546   6.151  10.814
 1424W        W 5475   6.932  10.871  10.663
 1425W        W 5476   8.153   8.991   1.073
 1426W        W 5477   3.323   8.068  10.237
 1427W        W 5478   4.245   2.321  10.441
 1428W        W 5479  10.829   2.760   9.195
 1429W        W 5480   0.510  10.962   1.167
 1430W        W 5481   0.978  11.303   1.384
 1431W        W 5482   8.909   7.338   9.543
 1432W        W 5483   2.168   3.408   1.886
 1433W        W 5484   9.174   7.083  11.943
 1434W        W 5485   2.924   7.867  11.926
 1435W        W 5486   2.382   0.544   1.995
 1436W        W 5487   1.152   9.655   2.903
 1437W        W 5488   8.831   0.743  11.472
 1438W        W 5489   2.939   3.032   3.116
 1439W        W 5490   4.276   2.809   0.356
 1440W        W 5491   4.642   4.260   9.104
 1441W        W 5492   4.716   2.966   1.440
 1442W        W 5493   5.212   5.609  10.954
 1443W        W 5494   5.775  11.064   3.090
 1444W        W 5495  11.064   6.065   9.913
 1445W        W 5496   1.262   4.809   9.411
 1446W        W 5497   2.334   4.344   8.440
 1447W        W 5498   2.394   2.688  11.577
 1448W        W 5499   5.794   7.122  10.413
 1449W        W 5500   1.263   1.104  11.126
 1450W        W 5501   8.722   4.283   9.197
 1451W        W 5502   7.388   5.202   1.839
 1452W        W 5503   5.135   1.702  11.248
 1453W        W 5504   6.605   6.126  10.038
 1454W        W 5505   6.594   4.508   2.519
 1455W        W 5506   1.184   5.663   1.322
 1456W        W 5507  10.312   0.645   0.097
 1457W        W 5508   3.097   8.893   2.343
 1458W        W 5509   3.418  10.760  10.871
 1459W        W 5510   8.116   4.105   3.144
 1460W        W 5511   3.156   3.522   2.742
 1461W        W 5512   4.705  10.946   9.683
 1462W        W 5513   9.876   0.279  10.342
 1463W        W 5514   5.692   3.403   8.953
 1464W        W 5515   9.086   4.595  10.956
 1465W        W 5516  10.653   1.776   0.881
 1466W        W 5517   5.230   3.732   1.360
 1467W        W 5518   9.102   4.178   8.882
 1468W        W 5519   9.738   5.287   1.227
 1469W        W 5520   9.936   8.142   0.276
 1470W        W 5521  10.423  10.951   3.222
 1471W        W 5522  10.098   2.347   2.860
 1472W        W 5523   1.279   2.380   1.047
 1473W        W 5524   7.100   0.289   1.323
 1474W        W 5525   2.169   2.074  10.994
 1475W        W 5526   7.379   7.205   2.452
 1476W        W 5527   0.026   9.568   2.768
 1477W        W 5528   9.136   6.598   9.111
 1478W        W 5529   3.145   8.957   9.156
 1479W        W 5530   4.111   9.556  10.423
 1480W        W 5531   1.917   2.221   0.429
 1481W        W 5532   4.848  10.582   1.303
 1482W        W 5533   6.215   6.233   3.032
 1483W        W 5534   3.710   5.397  11.777
 1484W        W 5535   0.130   8.887   2.142
 1485W        W 5536   6.047   6.232  11.951
 1486W        W 5537   0.898   6.452   1.912
 1487W        W 5538   5.188   3.630  10.991
 1488W        W 5539   9.274   6.303  11.292
 1489W        W 5540   8.967   3.246  10.512
 1490W        W 5541   4.577   0.259  11.966
 1491W        W 5542   1.758   9.205  11.355
 1492W        W 5543   9.665   0.586   9.444
 1493W        W 5544   9.751   0.773  11.442
 1494W        W 5545  10.403  11.327   1.863
 1495W        W 5546  10.810   1.316  11.101
 1496W        W 5547   3.733   3.358  10.926
 1497W        W 5548   0.463   3.829   2.308
 1498W        W 5549   4.589   0.746   0.761
 1499W        W 5550   9.028   8.098  10.174
 1500W        W 5551  10.823   0.315   1.012
 1501W        W 5552  10.151  10.404   9.961
 1502W        W 5553   8.544  11.235   0.175
 1503W        W 5554   1.020  10.544   2.410
 1504W        W 5555   5.035  11.329   2.655
 1505W        W 5556   5.455   4.037   3.585
 1506W        W 5557   1.988   9.887   9.391
 1507W        W 5558   4.901   1.179   2.616
 1508W        W 5559   6.641   2.672  10.389
 1509W        W 5560   5.165   3.968   3.998
 1510W        W 5561   9.123   6.355   8.662
 1511W        W 5562   8.904   7.422   1.229
 1512W        W 5563  10.590   4.300  10.115
 1513W        W 5564   2.179   9.138  11.988
 1514W        W 5565   8.075   5.037   4.046
 1515W        W 5566   7.633   7.135   1.244
 1516W        W 5567   1.655   6.926   3.240
 1517W        W 5568   0.069   5.967   9.950
 1518W        W 5569   4.436  10.412  11.378
 1519W        W 5570   9.493   9.876   1.220
 1520W        W 5571   5.532   9.641  11.342
 1521W        W 5572   2.636   1.073   1.280
 1522W        W 5573   3.357   2.234   9.260
 1523W        W 5574  11.056   9.430  11.727
 1524W        W 5575   2.302   2.236   0.906
 1525W        W 5576   9.056   6.786   1.975
 1526W        W 5577   7.798   5.730   9.861
 1527W        W 5578  11.098   4.466  10.869
 1528W        W 5579   8.011   4.694   2.181
 1529W        W 5580   7.361   4.712  11.032
 1530W        W 5581   4.243  11.382   2.625
 1531W        W 5582   3.686   6.585   0.285
 1532W        W 5583   5.916   0.946   8.516
 1533W        W 5584  10.858   8.199   0.221
 1534W        W 5585  10.790   1.842  10.463
 1535W        W 5586   9.408   2.655   2.013
 1536W        W 5587   1.623   1.346   9.831
 1537W        W 5588   0.493  10.549   2.290
 1538W        W 5589   9.337  11.369  11.211
 1539W        W 5590   9.985  11.440   9.528
 1540W        W 5591   2.910   5.354   0.212
 1541W        W 5592   3.385   2.549  10.663
 1542W        W 5593   4.408   3.840  11.236
 1543W        W 5594   6.573   2.227   0.945
 1544W        W 5595   2.132   1.776   9.203
 1545W        W 5596   2.187  11.419  11.421
 1546W        W 5597   4.362   0.807   0.303
 1547W        W 5598   9.580   8.054  10.081
 1548W        W 5599   4.894   8.596  10.904
 1549W        W 5600   0.588   5.915   0.705
 1550W        W 5601   3.227   4.299  11.304
 1551W        W 5602   2.275   8.636   2.960
 1552W        W 5603   1.840   0.259   9.491
 1553W        W 5604   6.380   4.018  10.466
 1554W        W 5605   4.114  11.248  10.840
 1555W        W 5606   6.035   6.158   0.872
 1556W        W 5607   0.274   1.656   9.853
 1557W        W 5608   1.452  10.239   1.366
 1558W        W 5609   3.766   6.631   9.390
 1559W        W 5610   1.135   1.834   8.979
 1560W        W 5611   7.954   0.402   1.778
 1561W        W 5612   6.276   8.804   9.995
 1562W        W 5613   8.005   4.167  11.425
 1563W        W 5614   8.625   8.409   2.007
 1564W        W 5615   8.210   6.534   3.249
 1565W        W 5616   9.633   6.952   2.291
 1566W        W 5617   0.701  11.393   0.979
 1567W        W 5618   8.798   8.771   3.745
 1568W        W 5619  11.447   9.143  10.756
 1569W        W 5620   1.293   5.971   0.052
 1570W        W 5621   8.897   6.111   0.534
 1571W        W 5622   8.508   3.408   8.917
 1572W        W 5623   4.706   8.116  11.620
 1573W        W 5624  11.271   9.664   1.728
 1574W        W 5625   6.769   8.060   9.417
 1575W        W 5626   7.139  10.467   9.192
 1576W        W 5627  10.969  10.634  11.459
 1577W        W 5628   5.495   6.105   2.302
 1578W        W 5629   6.367   6.144   2.541
 1579W        W 5630   3.281   8.577  10.401
 1580W        W 5631   2.697   5.546   2.811
 1581W        W 5632   0.286   9.463  11.325
 1582W        W 5633   3.183   6.207   3.376
 1583W        W 5634   0.562   1.485   3.677
 1584W        W 5635   0.299   7.080  11.782
 1585W        W 5636   3.686   3.853  11.815
 1586W        W 5637   9.880  11.494   1.849
 1587W        W 5638  10.391   1.283  11.369
 1588W        W 5639   6.253   7.902   0.371
 1589W        W 5640  10.995  10.019   1.473
 1590W        W 5641  10.819   1.349   9.624
 1591W        W 5642  10.447   6.499  11.995
 1592W        W 5643   0.659   1.175   3.190
 1593W        W 5644   0.913   3.788   2.557
 1594W        W 5645   9.649   2.138   2.599
 1595W        W 5646   3.158   2.079  10.754
 1596W        W 5647   4.531   0.956  10.105
 1597W        W 5648   1.348   2.336   1.904
 1598W        W 5649   8.856   4.596   2.221
 1599W        W 5650   5.801   9.021   9.953
 1600W        W 5651  11.002   9.878   2.346
 1601W        W 5652   8.861   1.715   1.014
 1602W        W 5653   8.009   7.478   1.313
 1603W        W 5654   8.997   7.711   2.866
 1604W        W 5655  10.017   6.992   9.001
 1605W        W 5656   3.386   3.393   1.398
 1606W        W 5657   9.171   7.586  11.945
 1607W        W 5658  10.647   3.612   9.656
 1608W        W 5659   8.098  10.311  11.876
 1609W        W 5660  10.085   8.856   8.908
 1610W        W 5661   6.967   4.619  11.739
 1611W        W 5662   6.561   1.133   9.589
 1612W        W 5663   6.248   8.975   2.677
 1613W        W 5664  10.008   8.959  11.020
 1614W        W 5665   8.321   6.829   0.763
 1615W        W 5666   2.829  11.399   8.823
 1616W        W 5667   2.503   0.065  10.380
 1617W        W 5668   6.622  10.855   1.337
 1618W        W 5669   4.581   9.054  11.931
 1619W        W 5670   9.404   2.873   0.880
 1620W        W 5671   5.013   2.822   3.162
 1621W        W 5672   0.179  10.336   1.429
 1622W        W 5673   9.828   4.802   2.306
 1623W        W 5674  10.093   0.380   9.743
 1624W        W 5675   3.308   9.953   1.319
 1625W        W 5676  10.941   6.474   1.320
 1626W        W 5677   6.091   3.661   1.990
 1627W        W 5678   4.121   4.260  11.186
 1628W        W 5679   0.717  10.818   3.383
 1629W        W 5680   9.388   8.049   1.827
 1630W        W 5681   0.431   6.192  11.770
 1631W        W 5682   4.251  10.124   3.304
 1632W        W 5683   9.477   3.930   2.296
 1633W        W 5684   2.895   2.594  10.504
 1634W        W 5685   0.768   4.207   0.701
 1635W        W 5686   1.806   0.933   8.659
 1636W        W 5687   3.838   3.616  11.370
 1637W        W 5688   2.177   5.706   9.130
 1638W        W 5689   8.109   5.847  10.985
 1639W        W 5690   4.980   9.511   8.963
 1640W        W 5691   3.769   7.533   3.267
 1641W        W 5692   5.603   3.657   2.096
 1642W        W 5693   5.056   3.540   2.774
 1643W        W 5694   0.056   6.705   2.397
 1644W        W 5695  10.476   3.224   2.696
 1645W        W 5696   5.661   7.638   1.941
 1646W        W 5697   7.367   0.945   8.472
 1647W        W 5698   7.974   4.997  10.413
 1648W        W 5699   4.437   1.078  11.048
 1649W        W 5700   2.665   3.300   0.219
 1650W        W 5701   0.404   0.281   3.382
 1651W        W 5702   3.169   3.650  10.581
 1652W        W 5703   3.203   6.046   9.814
 1653W        W 5704   9.882   2.839   1.117
 1654W        W 5705   0.395   8.620  10.051
 1655W        W 5706   7.090   2.827   0.472
 1656W        W 5707   8.119  10.039   2.371
 1657W        W 5708   0.839   8.362  11.276
 1658W        W 5709   6.196   5.287   2.392
 1659W        W 5710   1.895   2.289   1.850
 1660W        W 5711   3.226   5.314   2.471
 1661W        W 5712   5.811   5.057   0.398
 1662W        W 5713   5.152   9.752  11.708
 1663W        W 5714   1.375   5.751   1.783
 1664W        W 5715   2.155   9.055   8.909
 1665W        W 5716  10.534   6.967   9.068
 1666W        W 5717   5.537   7.971   8.699
 1667W        W 5718   4.699   0.958   3.621
 1668W        W 5719   6.415   2.122   9.306
 1669W        W 5720   1.260   7.657   9.016
 1670W        W 5721  11.225   2.801   1.711
 1671W        W 5722   3.415   2.247   3.021
 1672W        W 5723  10.877   3.653   0.927
 1673W        W 5724  11.009   6.161   0.545
 1674W        W 5725   0.861   8.649  10.281
 1675W        W 5726   2.665   0.527  11.239
 1676W        W 5727  11.473   8.075   2.582
 1677W        W 5728   7.305  10.755   2.144
 1678W        W 5729  10.411   0.461   8.913
 1679W        W 5730   5.490   6.665   0.382
 1680W        W 5731   2.692   0.248   0.241
 1681W        W 5732   3.517   4.009   2.014
 1682W        W 5733   9.663   2.936  11.076
 1683W        W 5734   4.617   9.357   9.391
 1684W        W 5735   8.709   5.115   0.342
 1685W        W 5736   5.058   4.025   0.079
 1686W        W 5737   1.686   9.494   9.611
 1687W        W 5738   4.778   1.470  11.526
 1688W        W 5739   5.675   9.374  11.755
 1689W        W 5740   1.810   0.476   1.187
 1690W        W 5741   2.736   3.635   3.052
 1691W        W 5742   9.989   4.852   1.285
 1692W        W 5743   9.024   4.815   2.671
 1693W        W 5744   0.089   9.459   3.293
 1694W        W 5745   4.552   4.821   0.465
 1695W        W 5746  10.780   5.739   3.573
 1696W        W 5747   7.188   9.863   2.183
 1697W        W 5748   6.129   4.880  10.394
 1698W        W 5749  10.979   0.768   0.852
 1699W        W 5750   8.462  10.035  10.358
 1700W        W 5751   2.706   3.658   1.537
 1701W        W 5752   3.828  10.258   0.693
 1702W        W 5753  11.142   0.045  11.804
 1703W        W 5754   4.461   9.320   1.275
 1704W        W 5755   4.682  10.800   1.755
 1705W        W 5756   9.067  11.370  10.550
 1706W        W 5757   4.232   7.763  10.938
 1707W        W 5758   5.514  10.819   1.241
 1708W        W 5759   7.913   3.206  11.621
 1709W        W 5760   5.522   6.812  10.052
 1710W        W 5761  10.144   5.182  10.525
 1711W        W 5762   6.242   3.183   2.139
 1712W        W 5763   8.448   5.182   3.331
 1713W        W 5764  10.806   0.762   0.349
 1714W        W 5765  10.104   6.303  11.688
 1715W        W 5766   8.929   3.549   9.965
 1716W        W 5767   4.824   6.975   2.463
 1717W        W 5768   3.364   8.127  11.801
 1718W        W 5769   1.085   7.932  11.094
 1719W        W 5770   2.255   0.944   3.114
 1720W        W 5771   4.210   8.413   9.482
 1721W        W 5772   8.127   7.833   3.049
 1722W        W 5773   7.869  11.480  10.382
 1723W        W 5774   1.465   3.753   1.189
 1724W        W 5775   7.280   4.470   8.222
 1725W        W 5776   6.191  11.214   9.094
 1726W        W 5777   7.860   5.471   1.736
 1727W        W 5778   5.573   1.700   8.969
 1728W        W 5779   2.773   2.681   1.987
 1729W        W 5780   0.425   4.081   0.366
 1730W        W 5781   2.410   8.592   8.816
 1731W        W 5782   3.858  11.134   8.630
 1732W        W 5783   8.401  10.931  11.784
 1733W        W 5784   9.518   0.098   9.363
 1734W        W 5785   5.530   8.052   3.669
 1735W        W 5786   8.934  10.029   2.955
 1736W        W 5787   0.414   0.336   1.032
 1737W        W 5788   6.313   8.029   0.889
 1738W        W 5789   6.215   4.066   8.152
 1739W        W 5790   5.189   2.569  11.778
 1740W        W 5791   3.103   8.316   2.967
 1741W        W 5792   3.059   5.561   1.224
 1742W        W 5793   0.725  10.455  10.632
 1743W        W 5794   5.335   6.947   3.551
 1744W        W 5795   5.992   4.181   3.633
 1745W        W 5796   8.876   5.072   1.129
 1746W        W 5797   6.195   4.317   0.982
 1747W        W 5798   4.702   3.760  10.773
 1748W        W 5799   6.601   7.975   8.550
 1749W        W 5800   0.921   2.938   0.749
 1750W        W 5801   1.683   3.259   1.921
 1751W        W 5802  10.950   5.542   2.177
 1752W        W 5803   9.441   4.251  10.893
 1753W        W 5804   3.669   6.189   9.639
 1754W        W 5805   3.613   3.528   9.885
 1755W        W 5806   6.315   5.373  10.439
 1756W        W 5807   9.901   4.676   8.912
 1757W        W 5808  10.809   7.564   9.024
 1758W        W 5809   4.246   5.591  10.865
 1759W        W 5810   5.688  10.512   8.908
 1760W        W 5811   5.915   3.791   2.861
 1761W        W 5812   7.193  10.143   0.431
 1762W        W 5813   3.412   9.760   3.636
 1763W        W 5814  11.452   8.051   1.879
 1764W        W 5815   5.698   4.113   0.266
 1765W        W 5816   4.199   6.640   0.344
 1766W        W 5817   6.909   0.760  10.308
 1767W        W 5818  10.451  10.545   0.570
 1768W        W 5819   2.918   2.966  11.915
 1769W        W 5820  10.025   2.543  11.285
 1770W        W 5821   4.438   6.679   3.569
 1771W        W 5822   1.372   8.938   2.398
 1772W        W 5823   2.175   3.314  10.489
 1773W        W 5824   7.942   9.162   9.666
 1774W        W 5825   3.277   3.997   2.878
 1775W        W 5826  11.158   9.486   9.522
 1776W        W 5827   2.748   3.735   8.957
 1777W        W 5828   9.097   8.070   2.268
 1778W        W 5829   7.846   2.831   2.812
 1779W        W 5830   7.499   3.148  10.906
 1780W        W 5831   8.501   0.614   1.198
 1781W        W 5832   6.549   0.791  11.555
 1782W        W 5833   6.501   2.321   2.473
 1783W        W 5834   9.666   8.684  11.322
 1784W        W 5835   3.276   9.784   2.367
 1785W        W 5836   4.591   0.361   1.394
 1786W        W 5837   6.717   1.099  11.961
 1787W        W 5838   5.204   1.002   3.492
 1788W        W 5839   4.477   5.378  10.433
 1789W        W 5840   0.981   8.525   9.369
 1790W        W 5841  10.787   8.465  10.889
 1791W        W 5842   7.079   9.696   1.192
 1792W        W 5843   1.952   2.230   9.994
 1793W        W 5844   6.522   8.352   0.237
 1794W        W 5845   3.369   9.107  11.524
 1795W        W 5846   5.988   7.879  11.026
 1796W        W 5847   6.236   6.471   9.837
 1797W        W 5848   1.230   0.983   0.921
 1798W        W 5849   1.444   3.089   9.906
 1799W        W 5850   1.706   4.533   3.327
 1800W        W 5851   4.035   6.740   2.859
 1801W        W 5852   6.026   1.838   9.505
 1802W        W 5853  10.799   9.113   2.949
 1803W        W 5854   9.787   8.453   8.995
 1804W        W 5855   1.496   8.023   0.026
 1805W        W 5856   9.377   6.672   1.023
 1806W        W 5857   9.424   4.711   3.590
 1807W        W 5858   0.661   6.722  11.794
 1808W        W 5859   2.610  10.552  11.456
 1809W        W 5860   3.806   2.164   9.030
 1810W        W 5861  10.865  10.947  10.007
 1811W        W 5862  10.933   6.661   3.158
 1812W        W 5863   8.031  10.070  10.085
 1813W        W 5864   4.703  10.885   3.333
 1814W        W 5865   1.482   9.661   0.060
 1815W        W 5866   9.504   2.661   1.479
 1816W        W 5867   4.291  10.814  10.618
 1817W        W 5868   9.241   5.165  10.717
 1818W        W 5869   3.220   3.842  11.541
 1819W        W 5870   5.717   4.230   9.932
 1820W        W 5871   4.062  10.054  10.249
 1821W        W 5872   1.284   9.137   2.849
 1822W        W 5873   2.556  10.040   2.946
 1823W        W 5874   6.636   9.440   9.252
 1824W        W 5875   1.629   5.541   0.462
 1825W        W 5876   8.868   4.182   9.676
 1826W        W 5877   9.939   7.167   2.648
 1827W        W 5878   2.505   5.340   1.015
 1828W        W 5879   4.184   3.072  11.063
 1829W        W 5880   1.384   5.800   9.633
 1830W        W 5881   1.096   2.944   3.491
 1831W        W 5882   1.717   6.623  11.000
 1832W        W 5883   1.188  10.969   9.381
 1833W        W 5884   4.132   5.227  11.558
 1834W        W 5885   0.575  10.314   8.950
 1835W        W 5886   5.014   5.821   9.589
 1836W        W 5887   1.370   3.803   1.832
 1837W        W 5888   0.212   3.502   9.863
 1838W        W 5889   9.962   0.477   8.672
 1839W        W 5890   9.524   1.947   9.015
 1840W        W 5891   4.625   3.227   0.247
 1841W        W 5892   9.181   0.473   9.546
 1842W        W 5893   3.581   4.211   3.274
 1843W        W 5894   8.526   5.382  10.948
 1844W        W 5895   5.671   8.711   1.853
 1845W        W 5896   9.991   2.709   9.339
 1846W        W 5897  10.216   3.415  10.890
 1847W        W 5898   7.942   9.418   8.806
 1848W        W 5899   0.804   8.267   2.301
 1849W        W 5900   0.726   8.085   9.249
 1850W        W 5901   9.088   6.677   2.906
 1851W        W 5902   8.544  10.361   0.174
 1852W        W 5903   6.577   2.654  11.188
 1853W        W 5904   0.252   5.868   1.470
 1854W        W 5905   1.821   2.797   1.197
 1855W        W 5906   3.472   8.426   1.627
 1856W        W 5907   3.833   4.814  10.880
 1857W        W 5908   8.085   2.694   8.462
 1858W        W 5909   1.537  11.024   0.853
 1859W        W 5910   6.713   9.910   0.351
 1860W        W 5911   5.841   6.229  11.475
 1861W        W 5912   4.632  11.253   2.958
 1862W        W 5913   7.141   9.385   1.959
 1863W        W 5914  10.661  11.408  11.785
 1864W        W 5915   2.002   6.280  11.869
 1865W        W 5916   7.469   3.326   1.587
 1866W        W 5917   5.755   4.116   3.193
 1867W        W 5918   8.042  10.819   1.731
 1868W        W 5919   2.466  10.880  10.900
 1869W        W 5920  11.269   4.272   2.995
 1870W        W 5921   7.167   2.642   9.480
 1871W        W 5922   9.262   0.657   1.764
 1872W        W 5923   7.167   3.281   3.050
 1873W        W 5924   2.210   3.694   3.253
 1874W        W 5925  10.323   3.424   9.986
 1875W        W 5926   1.361   9.207   1.965
 1876W        W 5927   3.743   2.094   8.455
 1877W        W 5928  10.286   3.942   9.907
 1878W        W 5929   6.905   5.347   2.024
 1879W        W 5930   4.558   2.734   0.991
 1880W        W 5931   6.211   3.681   1.487
 1881W        W 5932   8.361  10.830   9.530
 1882W        W 5933   4.738   5.247   0.762
 1883W        W 5934   7.109   4.519   1.706
 1884W        W 5935  11.023  11.344   0.269
 1885W        W 5936   9.736   5.954  11.719
 1886W        W 5937   6.711  10.452   9.471
 1887W        W 5938   5.307  10.946   8.977
 1888W        W 5939   6.296   2.367   1.356
 1889W        W 5940   4.679   0.619   2.504
 1890W        W 5941   0.508   2.782  10.560
 1891W        W 5942  10.953   1.984   2.745
 1892W        W 5943   6.536   6.131   0.961
 1893W        W 5944   1.967  10.167   1.975
 1894W        W 5945   1.150   0.873   9.114
 1895W        W 5946   3.485   9.621   9.695
 1896W        W 5947  10.372   2.771   2.472
 1897W        W 5948   1.234   8.035   9.396
 1898W        W 5949   0.337   0.832   2.419
 1899W        W 5950   1.706   5.554   1.426
 1900W        W 5951   3.176   8.855   3.090
 1901W        W 5952  10.060   4.992  10.054
 1902W        W 5953   2.088   1.823   1.740
 1903W        W 5954   8.443   3.263  10.429
 1904W        W 5955   3.792   3.100  11.379
 1905W        W 5956   9.045   6.081   9.083
 1906W        W 5957  11.178   5.732  11.224
 1907W        W 5958   1.759   4.592   1.496
 1908W        W 5959   8.778   2.507   2.824
 1909W        W 5960  11.342  10.569  11.112
 1910W        W 5961  10.080   2.607  10.320
 1911W        W 5962   8.240   0.913  10.396
 1912W        W 5963   5.465   2.069   2.575
 1913W        W 5964   5.623   0.384   9.635
 1914W        W 5965  10.956   5.211  11.501
 1915W        W 5966  10.130   3.636   9.520
 1916W        W 5967   0.262   7.271   2.967
 1917W        W 5968   3.345  11.359   1.412
 1918W        W 5969   6.720   6.149   8.701
 1919W        W 5970   1.436   7.086   8.405
 1920W        W 5971  11.358   5.678   9.234
 1921W        W 5972  10.124   6.046   2.213
 1922W        W 5973   5.075  10.340   2.311
 1923W        W 5974   0.446   9.855   3.452
 1924W        W 5975   9.160   9.564   0.330
 1925W        W 5976   9.016  10.461   2.146
 1926W        W 5977   1.797   8.949   1.802
 1927W        W 5978   2.241   2.789  10.048
 1928W        W 5979   4.105   4.243   1.539
 1929W        W 5980   2.200   1.971   3.773
 1930W        W 5981   4.096   3.329  10.004
 1931W        W 5982   0.199   1.459   1.701
 1932W        W 5983   8.572  10.829   2.795
 1933W        W 5984   4.639   3.864   2.809
 1934W        W 5985   6.636   8.443  10.245
 1935W        W 5986   2.996  10.440  10.108
 1936W        W 5987   3.188   1.776   9.008
 1937W        W 5988   9.572  10.774   0.999
 1938W        W 5989   3.492   8.000   0.922
 1939W        W 5990   5.403   7.831   9.198
 1940W        W 5991   4.042   2.569   2.518
 1941W        W 5992   7.697  11.047   0.472
 1942W        W 5993   3.613   2.095   0.250
 1943W        W 5994   6.596   1.274   9.062
 1944W        W 5995   8.097   8.331   2.767
 1945W        W 5996   0.894   0.365   2.346
 1946W        W 5997   6.900   3.315   0.572
 1947W        W 5998   4.195   9.074   1.686
 1948W        W 5999   3.456   0.499   3.718
 1949W        W 6000   3.670   3.563   1.784
 1950W        W 6001   9.925   4.766  10.780
 1951W        W 6002   7.219   1.863   2.686
 1952W        W 6003   8.673   3.695  11.305
 1953W        W 6004  11.419   9.895   9.330
 1954W        W 6005   9.811   0.070   0.992
 1955W        W 6006   1.464   5.112   2.118
 1956W        W 6007   2.414   6.108   8.792
 1957W        W 6008   3.370   9.488   0.405
 1958W        W 6009   8.614   5.258  11.854
 1959W        W 6010   5.985   6.064  10.980
 1960W        W 6011  10.489   3.446   0.265
 1961W        W 6012   3.113  11.342  11.131
 1962W        W 6013   8.627   8.792   1.218
 1963W        W 6014   1.780   5.976   2.206
 1964W        W 6015   1.668  10.803   9.253
 1965W        W 6016  11.293   9.761  11.368
 1966W        W 6017   5.293   8.962   0.690
 1967W        W 6018  10.595  11.326  10.942
 1968W        W 6019  11.436   7.562   1.704
 1969W        W 6020   9.911   5.601   0.023
 1970W        W 6021   1.420   1.395   3.142
 1971W        W 6022   4.774   1.705  11.981
 1972W        W 6023   6.524   7.573   0.998
 1973W        W 6024   4.981   6.556   3.608
 1974W        W 6025   3.843   3.170   1.483
 1975W        W 6026   7.129   8.849  11.056
 1976W        W 6027   3.268   2.688   1.747
 1977W        W 6028   2.250   7.927   1.184
 1978W        W 6029   3.681   0.286   3.188
 1979W        W 6030   4.157  11.194  10.295
 1980W        W 6031  10.417   5.183  11.481
 1981W        W 6032   2.844   8.792   0.793
 1982W        W 6033  10.833   3.280   9.295
 1983W        W 6034   3.935   7.132   9.257
 1984W        W 6035   3.848   3.379  11.819
 1985W        W 6036  11.373   3.123  10.015
 1986W        W 6037   2.211   8.919  11.311
 1987W        W 6038   6.213  10.814  10.734
 1988W        W 6039   2.194   2.218  11.489
 1989W        W 6040   3.264   9.063  10.641
 1990W        W 6041   1.293   5.282   1.639
 1991W        W 6042   9.750   4.600  10.206
 1992W        W 6043   3.897   8.201   8.363
 1993W        W 6044   8.080  10.433   2.056
 1994W        W 6045   6.963   8.439   0.550
 1995W        W 6046   5.539   2.366   9.751
 1996W        W 6047   0.696   5.982   1.220
 1997W        W 6048   1.674   6.706  11.985
 1998W        W 6049   6.085   8.900   1.626
 1999W        W 6050   0.626   1.844   9.057
 2000W        W 6051   2.760   1.123  10.438
 2001W        W 6052   6.067   0.479   2.255
 2002W        W 6053   8.578   9.705   1.591
 2003W        W 6054  11.427   0.906  11.845
 2004W        W 6055   7.215   7.834   9.934
 2005W        W 6056   8.634  10.013  11.097
 2006W        W 6057   3.345   2.241   9.779
 2007W        W 6058   1.801   6.441   1.934
 2008W        W 6059   3.645   8.907   9.045
 2009W        W 6060   2.258   3.673  11.278
 2010W        W 6061  10.062   0.197   1.429
 2011W        W 6062   8.265   1.553  11.300
 2012W        W 6063   2.899   1.858  11.232
 2013W        W 6064   8.372   9.601   0.013
 2014W        W 6065   0.303   7.915   9.565
 2015W        W 6066   2.689   3.459   8.529
 2016W        W 6067   1.300   9.351   3.551
 2017W        W 6068  10.817   7.031  10.823
 2018W        W 6069   3.847   7.485   0.245
 2019W        W 6070   1.973   7.713   3.166
 2020W        W 6071   1.850   1.387   2.020
 2021W        W 6072   9.399   9.352  11.874
 2022W        W 6073   1.621  10.518   1.780
 2023W        W 6074   7.977  11.407   0.914
 2024W        W 6075   8.609   0.582   2.311
 2025W        W 6076   4.269   4.587  11.685
 2026W        W 6077   2.356   7.589   4.085
 2027W        W 6078   9.514   9.823   9.013
 2028W        W 6079   8.061   5.316   3.618
 2029W        W 6080   9.650  10.970  11.283
 2030W        W 6081   8.900   3.627  10.845
 2031W        W 6082   6.126   9.479   0.771
 2032W        W 6083   2.625  10.886   0.210
 2033W        W 6084  10.473   0.508   3.128
 2034W        W 6085   1.555   2.424   0.096
 2035W        W 6086  10.887   1.227   8.612
 2036W        W 6087   9.020  11.277   2.131
 2037W        W 6088   8.160   7.541   1.820
 2038W        W 6089   3.124   1.461   3.341
 2039W        W 6090   2.236   4.911   3.791
 2040W        W 6091   0.117   6.766  10.135
 2041W        W 6092  10.361   7.013  11.967
 2042W        W 6093  10.821   6.114  11.200
 2043W        W 6094   1.677   2.727   3.174
 2044W        W 6095  10.100   2.731   8.840
 2045W        W 6096   4.829  10.073   1.368
 2046W        W 6097   5.694  11.349   8.937
 2047W        W 6098   2.778   4.565   1.464
 2048W        W 6099   4.490  11.259  11.951
 2049W        W 6100   8.963   9.487  10.286
 2050W        W 6101   3.036   7.804   0.693
 2051W        W 6102   5.682   8.167   1.806
 2052W        W 6103   6.415   3.336   9.361
 2053W        W 6104   1.105   2.209   1.485
 2054W        W 6105   5.553   5.705   0.455
 2055W        W 6106   8.912   5.928  11.416
 2056W        W 6107  11.483   6.749   0.866
 2057W        W 6108   6.749  10.396   1.540
 2058W        W 6109   4.367   6.542   0.981
 2059W        W 6110  10.769   5.157   1.385
 2060W        W 6111   0.370  10.356   9.911
 2061W        W 6112   6.961   3.755   2.269
 2062W        W 6113   4.026   7.928   0.965
 2063W        W 6114   5.503   3.300   1.705
 2064W        W 6115  11.253   0.402  11.089
 2065W        W 6116   1.832  10.414   2.795
 2066W        W 6117   0.997   9.941   1.343
 2067W        W 6118  10.454   8.951  11.292
 2068W        W 6119   9.658   8.158   9.575
 2069W        W 6120   1.906   2.524  11.756
 2070W        W 6121   5.975   6.180   8.923
 2071W        W 6122   0.655   1.652   1.888
 2072W        W 6123   2.218  11.328  10.913
 2073W        W 6124   4.199  10.290   2.388
 2074W        W 6125   5.194   9.785   4.161
 2075W        W 6126   2.929   8.385   8.114
 2076W        W 6127   2.855   2.937  10.898
 2077W        W 6128   7.387   2.998  11.753
 2078W        W 6129   5.452   4.666   0.356
 2079W        W 6130   1.783   0.226   3.242
 2080W        W 6131  10.899   5.977   2.416
 2081W        W 6132   6.951   9.917  11.476
 2082W        W 6133   5.743   4.768  10.056
 2083W        W 6134  11.471   5.066   1.840
 2084W        W 6135   8.158   2.914   8.959
 2085W        W 6136   4.116   3.033   2.732
 2086W        W 6137   3.597  11.057   0.395
 2087W        W 6138   2.371   9.041   3.272
 2088W        W 6139   1.672   1.880   0.766
 2089W        W 6140   0.295  10.072  10.642
 2090W        W 6141  10.466   5.474   9.385
 2091W        W 6142  10.804   9.679  10.431
 2092W        W 6143   1.383   1.770  11.285
 2093W        W 6144   9.251   3.898   1.809
 2094W        W 6145   2.621   3.188   1.794
 2095W        W 6146   8.611   1.813   9.562
 2096W        W 6147   8.197  11.091  10.455
 2097W        W 6148   8.227   5.065   0.474
 2098W        W 6149   2.410   5.331   0.026
 2099W        W 6150   3.160   7.958   1.309
 2100W        W 6151   3.664   7.579   9.213
 2101W        W 6152   1.293   9.438   2.420
 2102W        W 6153   7.637  10.375   8.990
 2103W        W 6154   0.084   0.517   9.818
 2104W        W 6155  10.383   2.438   0.311
 2105W        W 6156  11.042   5.989  11.650
 2106W        W 6157   1.951   3.171   9.150
 2107W        W 6158  10.021   6.160   9.906
 2108W        W 6159   6.170  10.810   2.878
 2109W        W 6160  11.445   2.752   2.181
 2110W        W 6161   7.151   7.022  11.539
 2111W        W 6162   0.050   3.364  11.388
 2112W        W 6163   5.726   0.864   2.212
 2113W        W 6164   0.199   3.173  11.860
 2114W        W 6165   3.890   1.045  11.386
 2115W        W 6166   1.892   0.237  10.875
 2116W        W 6167   6.018   4.390  10.309
 2117W        W 6168   9.340   7.584   8.812
 2118W        W 6169   3.308   5.124   9.647
 2119W        W 6170   3.400   3.265   3.143
 2120W        W 6171   3.587   9.328  10.243
 2121W        W 6172  10.172   0.252   2.802
 2122W        W 6173   3.995   8.899   9.435
 2123W        W 6174   5.443   8.211   4.162
 2124W        W 6175   2.190   8.413   2.112
 2125W        W 6176  10.415   6.519   2.422
 2126W        W 6177   8.098   9.968   0.257
 2127W        W 6178  11.324   3.912   1.021
 2128W        W 6179   0.844   7.426   1.747
 2129W        W 6180  10.544   6.792   1.323
 2130W        W 6181   1.935   9.686  11.321
 2131W        W 6182   3.297   2.229  10.280
 2132W        W 6183   8.551   2.653   3.618
 2133W        W 6184   4.608   2.398   9.577
 2134W        W 6185   3.171   9.417  11.925
 2135W        W 6186   2.113   5.606   0.336
 2136W        W 6187  10.055   1.304   2.590
 2137W        W 6188   1.037   3.654   1.481
 2138W        W 6189   9.605   9.803  10.804
 2139W        W 6190   0.799   6.114  10.400
 2140W        W 6191  10.045   0.809   9.088
 2141W        W 6192   9.168   1.226   3.187
 2142W        W 6193   9.254   8.349  11.471
 2143W        W 6194   1.887   1.926   1.270
 2144W        W 6195   4.370   4.396   0.174
 2145W        W 6196   8.658   1.749   0.438
 2146W        W 6197   9.758   6.723   1.845
 2147W        W 6198   1.665   9.426   1.617
 2148W        W 6199   4.495   8.373  10.057
 2149W        W 6200   3.756   9.665   8.869
 2150W        W 6201   3.653   0.259   2.257
 2151W        W 6202   0.480   8.838   9.287
 2152W        W 6203   2.462   3.237   3.197
 2153W        W 6204   5.048   2.973  10.016
 2154W        W 6205   5.220   8.635   3.080
 2155W        W 6206   1.439   1.742  11.787
 2156W        W 6207   9.991  10.506  11.813
 2157W        W 6208   4.548   4.185   3.383
 2158W        W 6209   4.125   2.554   0.772
 2159W        W 6210   8.283   3.690   1.860
 2160W        W 6211   0.551  10.333   1.830
 2161W        W 6212   7.870   4.098   9.337
 2162W        W 6213   0.783   3.660   9.062
 2163W        W 6214   7.056   3.372  11.060
 2164W        W 6215   1.611  10.541  10.387
 2165W        W 6216   6.621   4.543   0.843
 2166W        W 6217   5.253   1.158   9.560
 2167W        W 6218   0.127   7.088   1.251
 2168W        W 6219   2.137  11.319   2.322
 2169W        W 6220   7.068   0.390   9.437
 2170W        W 6221   2.753   5.646  11.772
 2171W        W 6222   5.557   9.443   2.316
 2172W        W 6223   0.845   4.820  10.928
 2173W        W 6224   1.745   8.068  10.070
 2174W        W 6225   2.499   9.027   1.554
 2175W        W 6226   9.635   8.450   1.643
 2176W        W 6227   8.452   2.335   3.189
 2177W        W 6228   7.016   9.741   0.705
 2178W        W 6229   9.584   7.461  11.640
 2179W        W 6230  11.260   6.076   1.484
 2180W        W 6231  10.589   6.120   2.048
 2181W        W 6232   7.717   0.674   9.285
 2182W        W 6233   1.519   9.499  10.997
 2183W        W 6234  10.011   1.750   2.133
 2184W        W 6235   3.215   6.057   1.268
 2185W        W 6236   3.789   9.276  11.264
 2186W        W 6237   5.096   5.573   0.254
 2187W        W 6238   8.646   3.743  10.393
 2188W        W 6239   0.919   9.771  11.407
 2189W        W 6240   9.900   8.881   2.385
 2190W        W 6241  11.057   3.154   0.968
 2191W        W 6242   9.798   7.507   9.042
 2192W        W 6243  10.820   7.533  10.928
 2193W        W 6244   5.460   4.080   9.534
 2194W        W 6245   7.109   7.457  11.271
 2195W        W 6246   1.775   0.514   1.714
 2196W        W 6247   9.257   0.778  10.741
 2197W        W 6248   3.725   3.281   1.002
 2198W        W 6249   8.379   6.320   0.778
 2199W        W 6250   1.790   9.035   9.802
 2200W        W 6251   3.133   0.251   0.012
 2201W        W 6252   1.354   7.099   0.077
 2202W        W 6253   2.856   7.922  10.941
 2203W        W 6254  10.500  11.469   3.087
 2204W        W 6255   0.788   9.896  10.040
 2205W        W 6256   6.483  10.005   1.783
 2206W        W 6257   6.552   0.892   3.368
 2207W        W 6258   7.661   6.345   1.176
 2208W        W 6259   7.908   5.577   0.201
 2209W        W 6260   9.398   3.753  10.822
 2210W        W 6261  10.430   6.988   2.687
 2211W        W 6262   2.278   8.453   0.189
 2212W        W 6263   5.107   7.027   1.867
 2213W        W 6264   8.464  11.322  11.204
 2214W        W 6265   5.564  10.239   3.384
 2215W        W 6266  10.455   2.754  11.887
 2216W        W 6267   6.648   0.923  11.047
 2217W        W 6268  11.046   1.413   2.885
 2218W        W 6269   7.601   3.054   3.216
 2219W        W 6270   8.903   4.233  11.643
 2220W        W 6271   1.594  10.248   0.153
 2221W        W 6272  10.635   3.544   1.831
 2222W        W 6273  11.117   9.950  10.900
 2223W        W 6274   7.531   6.248  11.524
 2224W        W 6275   4.590   9.311   0.743
 2225W        W 6276  10.293  11.121   9.253
 2226W        W 6277   5.426   3.748   3.060
 2227W        W 6278   5.620   4.849   0.821
 2228W        W 6279   0.519   0.736  10.027
 2229W        W 6280   1.479   8.665   0.553
 2230W        W 6281   7.392   5.764  11.520
 2231W        W 6282   0.454   3.555  11.649
 2232W        W 6283  10.233   3.669   3.340
 2233W        W 6284   1.404   3.533   8.973
 2234W        W 6285  10.656   7.485  10.301
 2235W        W 6286  10.790   9.101   9.590
 2236W        W 6287   3.531   4.654   0.141
 2237W        W 6288  10.584  10.552   2.309
 2238W        W 6289   6.617   6.326   9.541
 2239W        W 6290   6.211   0.647   0.461
 2240W        W 6291   6.492   7.508  10.522
 2241W        W 6292   5.150   3.543   9.156
 2242W        W 6293   4.632   2.467   1.420
 2243W        W 6294   4.043   4.765   0.294
 2244W        W 6295  10.927   6.905  11.490
 2245W        W 6296   8.093   5.917   1.559
 2246W        W 6297  10.463   4.112  11.406
 2247W        W 6298   6.736   9.808  10.078
 2248W        W 6299   8.409   3.504   9.979
 2249W        W 6300   3.314   9.312   1.312
 2250W        W 6301   8.246   1.182   9.968
 2251W        W 6302   9.753   6.055  10.346
 2252W        W 6303   2.676   1.199   3.237
 2253W        W 6304   4.244   7.171   0.223
 2254W        W 6305   3.726   1.819  10.981
 2255W        W 6306   1.783   3.725   2.618
 2256W        W 6307   7.942   9.791   0.862
 2257W        W 6308  11.274   7.276  10.957
 2258W        W 6309  10.504   7.845   2.689
 2259W        W 6310   9.404   8.500  10.428
 2260W        W 6311   6.686  10.300   9.986
 2261W        W 6312   7.101   5.159  11.804
 2262W        W 6313   2.398   9.488   2.133
 2263W        W 6314   4.358   8.575   2.908
 2264W        W 6315  10.416   7.985   0.061
 2265W        W 6316   5.554   7.128   2.186
 2266W        W 6317   2.905   7.264  10.290
 2267W        W 6318   3.816   4.571   9.066
 2268W        W 6319   0.370   0.992  10.518
 2269W        W 6320  11.206   3.688   9.985
 2270W        W 6321   6.213   3.140   2.749
 2271W        W 6322   1.192   8.773  11.935
 2272W        W 6323   3.558   8.461   2.222
 2273W        W 6324   0.074  10.104  11.104
 2274W        W 6325   0.378   6.394   9.271
 2275W        W 6326   3.744  10.519   2.447
 2276W        W 6327   1.945   4.313  11.917
 2277W        W 6328   7.926   1.408   2.615
 2278W        W 6329   2.222  10.795  10.085
 2279W        W 6330   1.230  10.939  11.853
 2280W        W 6331   7.562   4.507   0.972
 2281W        W 6332   4.594   0.681   8.965
 2282W        W 6333   7.720   8.478  10.862
 2283W        W 6334   3.398   1.748  10.429
 2284W        W 6335   8.540   8.177  10.437
 2285W        W 6336   3.366   0.291   8.374
 2286W        W 6337   6.215   7.000  11.403
 2287W        W 6338   0.455   8.147   1.716
 2288W        W 6339   4.441   0.394   3.332
 2289W        W 6340   6.318   6.970   2.661
 2290W        W 6341   2.449   6.618   0.179
 2291W        W 6342   2.941   5.112  10.014
 2292W        W 6343   5.929  10.939   0.965
 2293W        W 6344   8.991   9.087   0.032
 2294W        W 6345   0.568  11.470   2.295
 2295W        W 6346   8.725   0.374   3.271
 2296W        W 6347   4.574  10.402  10.853
 2297W        W 6348   4.250   7.631   2.712
 2298W        W 6349   1.677   9.011   8.733
 2299W        W 6350   5.484   0.208   0.888
 2300W        W 6351   5.317   6.877  11.283
 2301W        W 6352  10.272   9.873   2.664
 2302W        W 6353   2.576   8.531  11.503
 2303W        W 6354  10.913   4.341  11.337
 2304W        W 6355   1.412   2.849   0.877
 2305W        W 6356   3.133  11.362   9.703
 2306W        W 6357   7.542   7.532   9.382
 2307W        W 6358   6.633   1.970   0.040
 2308W        W 6359   8.383   5.528   1.681
 2309W        W 6360   2.177  10.000  10.371
 2310W        W 6361   2.792   7.042   0.161
 2311W        W 6362   2.310   7.623   2.772
 2312W        W 6363  11.402   7.699   2.224
 2313W        W 6364   2.741   6.030   9.560
 2314W        W 6365   6.139   0.954   2.503
 2315W        W 6366   0.053   2.707   1.304
 2316W        W 6367   7.323   0.350  11.971
 2317W        W 6368   4.542  10.457   9.823
 2318W        W 6369   9.483   5.565   1.592
 2319W        W 6370   5.610   9.923   9.996
 2320W        W 6371  10.861   0.228   8.843
 2321W        W 6372   6.200   8.461   2.648
 2322W        W 6373   6.952   6.015   1.705
 2323W        W 6374   8.418   9.492   9.016
 2324W        W 6375   6.772   8.956   8.308
 2325W        W 6376   8.372  11.214   1.192
 2326W        W 6377   6.504   3.652   0.704
 2327W        W 6378   5.586   6.925   3.095
 2328W        W 6379   8.033   6.594   2.245
 2329W        W 6380   9.453  11.460   2.310
 2330W        W 6381   1.968   4.607  11.457
 2331W        W 6382   6.473   2.792   1.139
 2332W        W 6383   1.939   7.614   1.448
 2333W        W 6384   4.498   8.248  11.148
 2334W        W 6385  10.620   9.213   1.008
 2335W        W 6386   6.429   4.338  11.421
 2336W        W 6387   3.214   1.827   0.424
 2337W        W 6388   9.040   6.714   3.797
 2338W        W 6389   1.749   8.661   1.358
 2339W        W 6390   7.478   4.672   0.500
 2340W        W 6391   2.996   0.456   1.997
 2341W        W 6392   0.726   6.752   3.497
 2342W        W 6393   8.006   5.094   0.951
 2343W        W 6394   3.689   3.059  10.115
 2344W        W 6395   9.708   6.207   0.687
 2345W        W 6396   7.774   3.764   8.964
 2346W        W 6397   2.977   9.722   9.605
 2347W        W 6398   8.141  10.892   0.231
 2348W        W 6399  10.412   5.796   1.265
 2349W        W 6400   6.115   0.449   0.928
 2350W        W 6401   0.040   2.306   0.972
 2351W        W 6402   5.695   0.893   0.006
 2352W        W 6403   9.794   4.259   0.004
 2353W        W 6404   0.220   6.775   2.937
 2354W        W 6405   0.228  11.000   9.406
 2355W        W 6406   5.465   3.226  10.771
 2356W        W 6407   2.147   6.828  11.269
 2357W        W 6408   4.081   0.465   2.946
 2358W        W 6409   2.773   5.562   2.285
 2359W        W 6410  10.892   6.488   2.247
 2360W        W 6411   8.377   2.410  10.595
 2361W        W 6412   6.288   5.217   0.538
 2362W        W 6413   8.971   7.944   1.276
 2363W        W 6414  10.858   7.255  11.941
 2364W        W 6415   5.083   2.267   8.629
 2365W        W 6416   5.874   6.732  11.988
 2366W        W 6417   3.625   5.586   1.180
 2367W        W 6418   2.822  10.017   2.508
 2368W        W 6419   7.670   9.943   1.303
 2369W        W 6420   8.128   5.790   2.074
 2370W        W 6421   7.627   2.905  10.429
 2371W        W 6422   9.103   4.101   1.337
 2372W        W 6423   6.192   4.112  10.975
 2373W        W 6424   7.795   3.458   2.936
 2374W        W 6425   6.056   9.624  11.335
 2375W        W 6426  10.398   1.155  10.835
 2376W        W 6427   7.753   4.399   3.364
 2377W        W 6428   6.252   6.474   1.252
 2378W        W 6429  10.974   2.817   3.039
 2379W        W 6430   7.247   6.595  11.891
 2380W        W 6431   7.959   2.117   3.427
 2381W        W 6432   0.377   3.188  10.261
 2382W        W 6433   0.073  11.319   2.346
 2383W        W 6434   1.615   1.781   8.533
 2384W        W 6435   4.096   3.953   0.124
 2385W        W 6436   8.503   4.680   1.867
 2386W        W 6437   9.758   1.998   3.081
 2387W        W 6438   0.892   5.545   0.931
 2388W        W 6439   7.943   3.254  10.646
 2389W        W 6440   3.242   7.893   2.698
 2390W        W 6441   1.794   5.524   1.953
 2391W        W 6442   2.961  10.466   2.349
 2392W        W 6443   5.442   3.751   9.984
 2393W        W 6444   0.083   6.981   0.411
 2394W        W 6445   1.583   7.558   8.616
 2395W        W 6446   6.702   2.393   3.216
 2396W        W 6447   8.504   1.285   0.215
 2397W        W 6448   1.851   2.782   1.708
 2398W        W 6449   3.612   1.793   0.845
 2399W        W 6450   4.588  11.300   1.947
 2400W        W 6451   0.944   5.513   1.945
 2401W        W 6452   5.299   7.084   2.659
 2402W        W 6453   7.094  10.848  11.701
 2403W        W 6454  10.752   8.511  11.407
 2404W        W 6455   9.816   7.085  11.077
 2405W        W 6456   4.663   1.699  11.075
 2406W        W 6457  10.005   6.563   0.906
 2407W        W 6458   2.935   5.098   9.090
 2408W        W 6459  10.776   4.637  10.470
 2409W        W 6460   0.324   6.280  10.272
 2410W        W 6461   3.275   6.911   0.308
 2411W        W 6462   6.185   1.453   0.643
 2412W        W 6463   1.832   7.151  11.787
 2413W        W 6464   0.739   9.377   1.645
 2414W        W 6465   4.018   1.768   9.758
 2415W        W 6466   7.398  10.806  10.919
 2416W        W 6467   0.669   0.437   0.358
 2417W        W 6468  11.154   6.910   2.168
 2418W        W 6469   5.249   2.628  11.281
 2419W        W 6470   6.534  10.492  11.743
 2420W        W 6471   9.869   6.921   8.477
 2421W        W 6472   3.347   3.629   0.940
 2422W        W 6473   7.910   1.832   9.596
 2423W        W 6474   1.345   9.933   2.389
 2424W        W 6475   9.883   7.104   9.973
 2425W        W 6476   5.379   1.199   0.308
 2426W        W 6477   6.977  10.841  11.184
 2427W        W 6478   5.472   4.331  10.389
 2428W        W 6479   1.827   7.063  10.781
 2429W        W 6480   2.197   8.072   3.466
 2430W        W 6481   5.376   2.279   0.307
 2431W        W 6482   9.024   0.086   0.496
 2432W        W 6483   8.993   5.555  11.075
 2433W        W 6484   1.873   1.169   2.846
 2434W        W 6485   2.802   5.946   0.956
 2435W        W 6486   4.336   3.913   1.861
 2436W        W 6487  10.542   9.312  10.929
 2437W        W 6488  10.111   1.462   3.078
 2438W        W 6489   8.868  10.784   9.976
 2439W        W 6490  10.926   9.951   9.565
 2440W        W 6491  10.080   4.778   1.851
 2441W        W 6492   0.563   0.428   2.736
 2442W        W 6493   8.142   9.754   2.783
 2443W        W 6494   2.225   6.680  10.053
 2444W        W 6495   0.927  10.814   1.450
 2445W        W 6496   2.707   1.452  10.002
 2446W        W 6497   9.960   9.250   8.619
 2447W        W 6498   6.505   7.843   1.443
 2448W        W 6499   0.275   4.765   3.328
 2449W        W 6500   8.362   9.182  10.609
 2450W        W 6501   3.214   3.146   0.893
 2451W        W 6502  10.931  11.481  10.014
 2452W        W 6503   8.591   5.537   9.545
 2453W        W 6504  10.561   9.003  10.016
 2454W        W 6505   1.271   1.495   0.921
 2455W        W 6506   8.547  10.299   2.253
 2456W        W 6507  11.168   5.615   3.193
 2457W        W 6508   6.003   6.704  10.217
 2458W        W 6509   7.325   3.221   1.085
 2459W        W 6510   9.536   4.643   9.277
 2460W        W 6511   3.591   5.059  11.394
 2461W        W 6512   2.931  10.551   0.503
 2462W        W 6513   6.201   1.050  11.280
 2463W        W 6514   5.685   8.784   3.274
 2464W        W 6515   2.742   0.467   0.697
 2465W        W 6516   8.486   7.657   1.418
 2466W        W 6517   3.166   4.267   1.710
 2467W        W 6518   0.082   0.395   2.986
 2468W        W 6519   8.315   5.504   4.034
 2469W        W 6520   1.662   9.482   2.778
 2470W        W 6521  10.694   1.251   0.142
 2471W        W 6522   6.588   5.036   0.911
 2472W        W 6523   2.209   9.487   9.675
 2473W        W 6524   1.309   6.153   2.990
 2474W        W 6525   1.949   4.610   2.888
 2475W        W 6526   8.946   5.891   9.828
 2476W        W 6527   2.200   6.655   2.639
 2477W        W 6528  11.027   8.709   3.174
 2478W        W 6529   8.500   4.172  11.315
 2479W        W 6530   3.162   4.989   3.003
 2480W        W 6531   3.600   9.846  10.236
 2481W        W 6532   7.779   0.275  11.782
 2482W        W 6533   6.195  10.817   9.475
 2483W        W 6534  10.546   8.198   2.323
 2484W        W 6535   5.206   0.011   2.215
 2485W        W 6536   0.532   5.030   0.243
 2486W        W 6537   3.337   4.224  11.857
 2487W        W 6538   3.879   1.699  10.276
 2488W        W 6539   3.668   0.241   0.851
 2489W        W 6540   3.233   9.759   0.847
 2490W        W 6541   7.475   8.926   9.673
 2491W        W 6542   5.254   8.772   1.161
 2492W        W 6543   2.278  11.426   2.813
 2493W        W 6544   9.028   3.109   2.276
 2494W        W 6545   1.402   0.752   1.380
 2495W        W 6546  10.880   0.022  11.327
 2496W        W 6547   8.020   1.781   2.972
 2497W        W 6548  11.279  11.229   9.262
 2498W        W 6549   9.909   5.247   0.380
 2499W        W 6550   5.524   5.368   0.034
 2500W        W 6551   3.149   9.227   9.630
 2501W        W 6552   3.637   4.951   2.249
 2502W        W 6553   1.780   7.669   9.128
 2503W        W 6554   9.311   8.459   9.891
 2504W        W 6555   8.980   6.381   0.118
 2505W        W 6556  10.612   8.961   1.910
 2506W        W 6557   3.267  11.442   0.483
 2507W        W 6558   1.120   9.368   1.325
 2508W        W 6559   5.299   0.475   3.521
 2509W        W 6560   7.145  10.893   2.628
 2510W        W 6561   2.074   7.234   3.288
 2511W        W 6562   1.713   5.042   3.100
 2512W        W 6563   5.690   5.671  10.064
 2513W        W 6564   0.095   3.585   2.042
 2514W        W 6565   0.894   7.185  11.855
 2515W        W 6566   9.682   7.992  10.927
 2516W        W 6567   1.327   3.635  11.201
 2517W        W 6568   8.285  10.823   2.364
 2518W        W 6569   1.768   4.721  10.564
 2519W        W 6570   9.824   5.671   1.980
 2520W        W 6571   3.461   8.038   9.344
 2521W        W 6572   2.619   4.127   3.095
 2522W        W 6573   6.259   1.149   9.990
 2523W        W 6574   5.505   3.748   2.565
 2524W        W 6575   3.069   8.644  11.422
 2525W        W 6576   9.510   5.746   1.117
 2526W        W 6577   8.347   4.176   9.528
 2527W        W 6578   2.257   0.270  11.969
 2528W        W 6579   6.511   4.023   3.665
 2529W        W 6580   4.726   9.733   0.988
 2530W        W 6581   2.758   6.226   1.410
 2531W        W 6582  10.997   6.547  10.703
 2532W        W 6583   1.704   4.084   0.355
 2533W        W 6584   2.920   0.306  10.709
 2534W        W 6585  10.435   9.453   1.879
 2535W        W 6586   2.750   7.573  11.317
 2536W        W 6587   0.409   3.116   1.376
 2537W        W 6588   4.686  10.378   3.172
 2538W        W 6589   0.043   9.635  10.884
 2539W        W 6590   5.637   6.206   1.817
 2540W        W 6591   6.230   8.082   9.496
 2541W        W 6592   2.638   5.113  11.273
 2542W        W 6593   6.059   2.013  11.377
 2543W        W 6594   1.361   4.182   0.002
 2544W        W 6595   6.585   7.606   1.905
 2545W        W 6596   3.741   9.410   3.832
 2546W        W 6597   0.923   7.212   9.069
 2547W        W 6598   7.555   2.286   2.189
 2548W        W 6599  11.325   6.990   3.151
 2549W        W 6600   7.128  10.516   9.878
 2550W        W 6601   8.918   9.209  10.719
 2551W        W 6602  10.332   2.777   0.837
 2552W        W 6603   8.738   6.838  11.952
 2553W        W 6604  11.080   8.985   1.008
 2554W        W 6605  10.449   0.808   9.850
 2555W        W 6606  10.411   3.687   0.714
 2556W        W 6607   1.847   5.852   9.869
 2557W        W 6608   9.781  10.497   2.748
 2558W        W 6609   9.766   0.917  11.943
 2559W        W 6610  10.874   3.501  10.817
 2560W        W 6611   8.855   5.614   9.091
 2561W        W 6612   5.737   3.639   3.436
 2562W        W 6613   3.750   9.866   8.366
 2563W        W 6614   7.485   9.199   0.231
 2564W        W 6615  10.301   5.302   3.904
 2565W        W 6616   0.181   5.651   3.257
 2566W        W 6617   1.691   5.096  11.506
 2567W        W 6618  10.407   8.111  11.475
 2568W        W 6619   6.813   7.201   3.583
 2569W        W 6620   9.665   5.065  10.383
 2570W        W 6621   0.249   1.925   0.337
 2571W        W 6622   7.065   9.487   0.274
 2572W        W 6623   3.024   4.690   9.642
 2573W        W 6624   6.443   4.737  10.028
 2574W        W 6625   4.762   0.485   9.410
 2575W        W 6626   4.897   4.383  10.347
 2576W        W 6627   7.085   1.816   3.180
 2577W        W 6628   8.932   6.316   9.532
 2578W        W 6629   9.834   9.610   2.616
 2579W        W 6630   4.613   8.357  10.557
 2580W        W 6631   4.840   5.703   1.559
 2581W        W 6632   2.214   2.070   9.602
 2582W        W 6633  11.237   5.270   8.944
 2583W        W 6634   6.464   2.713   2.153
 2584W        W 6635   9.360   8.519   0.757
 2585W        W 6636  10.325   3.113   3.699
 2586W        W 6637   2.910   2.455   9.981
 2587W        W 6638  10.582   3.679   2.952
 2588W        W 6639   3.598   7.568  10.249
 2589W        W 6640   1.745   8.432  10.479
 2590W        W 6641   4.990   3.516   0.930
 2591W        W 6642   0.972   2.638   1.739
 2592W        W 6643   3.811  10.934   9.495
 2593W        W 6644  11.384   2.147   3.455
 2594W        W 6645   8.915   5.099   9.804
 2595W        W 6646   0.017   5.553   3.763
 2596W        W 6647   7.345   6.437   0.759
 2597W        W 6648   1.159   0.958   3.216
 2598W        W 6649   3.150   0.189   2.407
 2599W        W 6650   2.729   6.897   9.919
 2600W        W 6651   8.049   3.817  11.044
 2601W        W 6652   9.699   5.223   2.550
 2602W        W 6653   7.256  10.017   8.963
 2603W        W 6654   2.277   5.781   9.611
 2604W        W 6655   3.593   1.774   9.363
 2605W        W 6656  10.970   4.801   9.365
 2606W        W 6657   8.520  11.264   3.846
 2607W        W 6658   3.904   9.321   1.336
 2608W        W 6659   8.044   9.194  10.180
 2609W        W 6660   0.939   5.348   9.099
 2610W        W 6661   0.364   7.686   1.982
 2611W        W 6662   1.633  11.322   2.422
 2612W        W 6663   9.315  10.370   1.333
 2613W        W 6664   0.846   4.836   9.084
 2614W        W 6665   3.280  10.289   0.858
 2615W        W 6666   7.207   2.250   9.162
 2616W        W 6667   9.516   1.495  10.324
 2617W        W 6668   3.790   5.074   1.233
 2618W        W 6669  10.351   7.906  10.310
 2619W        W 6670  10.990   9.330   2.064
 2620W        W 6671   1.812   0.436   0.664
 2621W        W 6672   2.851   9.924  11.959
 2622W        W 6673   0.488   3.190   2.722
 2623W        W 6674   3.901   5.602   1.600
 2624W        W 6675   9.224  10.617  11.700
 2625W        W 6676   2.174   1.748   0.853
 2626W        W 6677   2.231   6.172   2.464
 2627W        W 6678  10.960   7.514   3.486
 2628W        W 6679   7.258   5.666  10.737
 2629W        W 6680   2.758   9.117   2.950
 2630W        W 6681   1.340   5.476  11.134
 2631W        W 6682   5.631   0.726   8.925
 2632W        W 6683   0.376  11.005   2.096
 2633W        W 6684   9.496  10.596   9.345
 2634W        W 6685  10.327   2.299   1.678
 2635W        W 6686   3.131   1.658   0.917
 2636W        W 6687   4.526   3.648   9.905
 2637W        W 6688   7.923   7.115   1.662
 2638W        W 6689   2.056   4.237   8.856
 2639W        W 6690   0.412   4.766  10.262
 2640W        W 6691  10.743   8.619   0.895
 2641W        W 6692   5.409   2.814   1.915
 2642W        W 6693   3.136   7.469  11.006
 2643W        W 6694   5.581   4.101   1.229
 2644W        W 6695   4.571  11.317  10.583
 2645W        W 6696   0.983   9.764  11.936
 2646W        W 6697   3.950  10.622   1.532
 2647W        W 6698   5.071  10.322  10.986
 2648W        W 6699   4.141  10.632   3.457
 2649W        W 6700   4.728   4.294  10.820
 2650W        W 6701  10.813   1.178   2.075
 2651W        W 6702   2.460   7.594   3.281
 2652W        W 6703  10.434  10.419   9.142
 2653W        W 6704   4.712   8.851   1.403
 2654W        W 6705   4.732   3.915   1.516
 2655W        W 6706   7.729   3.981   2.789
 2656W        W 6707   6.999   3.807   0.759
 2657W        W 6708   4.238   3.286   2.294
 2658W        W 6709   5.753   7.143   0.692
 2659W        W 6710   9.511  10.579   0.495
 2660W        W 6711   9.506   1.018   0.803
 2661W        W 6712  10.338   8.358  10.592
 2662W        W 6713   0.433   6.933  11.236
 2663W        W 6714   7.970   1.711  10.085
 2664W        W 6715   8.417   5.061   8.644
 2665W        W 6716   9.850   7.638   9.915
 2666W        W 6717   1.524  10.438   3.219
 2667W        W 6718   0.854   0.998  10.318
 2668W        W 6719  10.306  11.302   3.563
 2669W        W 6720   6.207   9.919  10.059
 2670W        W 6721   9.110   8.904   1.054
 2671W        W 6722   9.809  10.357   1.223
 2672W        W 6723   6.129   2.955  11.222
 2673W        W 6724   8.895   1.026  11.010
 2674W        W 6725  11.205   0.227   2.232
 2675W        W 6726   2.807   5.083   2.676
 2676W        W 6727   8.378  11.316   2.836
 2677W        W 6728   3.237  11.015   1.790
 2678W        W 6729   1.447   3.300   9.455
 2679W        W 6730   9.513   3.676  11.654
 2680W        W 6731   9.820   2.150  10.509
 2681W        W 6732   7.334   8.966   2.167
 2682W        W 6733   7.593  11.212   8.988
 2683W        W 6734   5.755   7.778   3.274
 2684W        W 6735   7.996   0.473  10.473
 2685W        W 6736   6.956   0.476   2.243
 2686W        W 6737   1.002   9.244  11.871
 2687W        W 6738   4.748   0.977  11.465
 2688W        W 6739   7.423   0.037   2.665
 2689W        W 6740   6.951   6.700   0.899
 2690W        W 6741   6.088   7.434   2.701
 2691W        W 6742   6.616   2.669   0.655
 2692W        W 6743   6.685   3.082   2.983
 2693W        W 6744   7.185   8.948   2.661
 2694W        W 6745   6.571   8.352   1.405
 2695W        W 6746   4.778   2.902   8.706
 2696W        W 6747   8.498   6.069   0.205
 2697W        W 6748   3.812   9.875  10.720
 2698W        W 6749  10.420   1.557   1.342
 2699W        W 6750   2.371   6.062  10.497
 2700W        W 6751   0.286   4.485   8.919
 2701W        W 6752   8.439   7.127  11.653
 2702W        W 6753   1.470  10.042   1.889
 2703W        W 6754   5.627   1.463   9.405
 2704W        W 6755   3.750   0.849   9.479
 2705W        W 6756   9.787  11.259   1.394
 2706W        W 6757  10.538   2.668   9.619
 2707W        W 6758   8.111   0.537   0.859
 2708W        W 6759   8.676   3.164   3.528
 2709W        W 6760   9.922   2.371   1.342
 2710W        W 6761   7.624   9.822  10.280
 2711W        W 6762   3.325   0.691   2.311
 2712W        W 6763   6.192   1.827   1.791
 2713W        W 6764   3.353   7.858   3.189
 2714W        W 6765   5.044   9.140  10.274
 2715W        W 6766   2.432   5.152   9.058
 2716W        W 6767   7.776   5.551   3.977
 2717W        W 6768   4.085   5.733  10.413
 2718W        W 6769   2.231   4.655  10.808
 2719W        W 6770   0.661  10.249   9.498
 2720W        W 6771   8.182   6.805   9.063
 2721W        W 6772   6.103   9.602   9.248
 2722W        W 6773   5.868   3.894  10.268
 2723W        W 6774   8.988   8.214   2.743
 2724W        W 6775   0.195   6.040   2.662
 2725W        W 6776  11.137   8.826  10.496
 2726W        W 6777   5.375   0.373   1.806
 2727W        W 6778   0.425   7.854  10.491
 2728W        W 6779  11.015   9.628   3.597
 2729W        W 6780   0.427   3.908   1.806
 2730W        W 6781  11.354   9.836   9.853
 2731W        W 6782   0.717   5.515   1.467
 2732W        W 6783   0.506   8.407   9.592
 2733W        W 6784   0.631   1.909  10.660
 2734W        W 6785   7.195  10.059  10.095
 2735W        W 6786   4.547   5.811  10.153
 2736W        W 6787   7.850  10.887  10.160
 2737W        W 6788  10.067   6.566   3.297
 2738W        W 6789   7.399   0.834   1.116
 2739W        W 6790   5.583   5.154   9.723
 2740W        W 6791   9.914   3.977   2.567
 2741W        W 6792   5.600   8.466  10.473
 2742W        W 6793   8.427  10.157   1.790
 2743W        W 6794   5.209   4.948  11.133
 2744W        W 6795  10.918   8.196   9.090
 2745W        W 6796   7.480   3.478  11.911
 2746W        W 6797   7.141   5.153  10.849
 2747W        W 6798  11.342  10.270  11.532
 2748W        W 6799   0.984   1.161   1.855
 2749W        W 6800   2.214   6.461  10.917
 2750W        W 6801   5.209   4.123  10.785
 2751W        W 6802   8.884   2.322  10.511
 2752W        W 6803   2.896   7.048   2.274
 2753W        W 6804   7.800   3.086   0.092
 2754W        W 6805   8.101  11.367   0.422
 2755W        W 6806   7.527   1.210   9.495
 2756W        W 6807   4.328   8.277   2.027
 2757W        W 6808   2.645   6.728   1.394
 2758W        W 6809   6.498   3.261   1.483
 2759W        W 6810   2.402   4.703   8.826
 2760W        W 6811   7.086   9.915  11.996
 2761W        W 6812  11.134   5.710   0.724
 2762W        W 6813   5.938  10.067   1.831
 2763W        W 6814   9.594   7.968   2.379
 2764W        W 6815   5.242   4.757  10.203
 2765W        W 6816  10.035   1.338   9.022
 2766W        W 6817   5.591   0.386   0.002
 2767W        W 6818   4.834  10.369   0.344
 2768W        W 6819   7.601   8.159   1.104
 2769W        W 6820   2.233   6.121   0.339
 2770W        W 6821   2.815   9.036   1.943
 2771W        W 6822   2.239   0.428   1.506
 2772W        W 6823   2.185   4.684   2.373
 2773W        W 6824   4.027   2.044  11.903
 2774W        W 6825  10.559   1.207   2.674
 2775W        W 6826  10.225   5.102   9.076
 2776W        W 6827   7.743   4.501   2.857
 2777W        W 6828   2.133   5.063  11.229
 2778W        W 6829   3.949  10.684   0.351
 2779W        W 6830   8.636   7.861   3.223
 2780W        W 6831   2.903   9.621   1.237
 2781W        W 6832   5.530   1.261   2.495
 2782W        W 6833   7.687   4.664   8.482
 2783W        W 6834   2.548   4.228   9.450
 2784W        W 6835   7.007   7.581   0.805
 2785W        W 6836  10.269   4.553   0.972
 2786W        W 6837  10.385   8.683   2.296
 2787W        W 6838   4.618   2.764  11.881
 2788W        W 6839   6.494   2.200  10.221
 2789W        W 6840   8.312   3.166  11.962
 2790W        W 6841   8.198  10.522   8.888
 2791W        W 6842   5.787   9.808  10.911
 2792W        W 6843   8.532   9.175   0.257
 2793W        W 6844   5.337   2.262   1.810
 2794W        W 6845   8.517   4.630   1.365
 2795W        W 6846   5.531   8.926   2.333
 2796W        W 6847   5.890   1.198  10.789
 2797W        W 6848   9.763   4.500  11.209
 2798W        W 6849   6.501   0.610   2.761
 2799W        W 6850   2.915   3.254   1.307
 2800W        W 6851   7.181   9.346   3.325
 2801W        W 6852   3.218   6.282  10.264
 2802W        W 6853   5.059   6.496   1.785
 2803W        W 6854   4.468   7.965   9.351
 2804W        W 6855   5.692   7.490   9.448
 2805W        W 6856   9.444   3.368   9.762
 2806W        W 6857   9.521   1.192  11.295
 2807W        W 6858   3.712   4.611   2.610
 2808W        W 6859   5.480   3.693  10.528
 2809W        W 6860  10.114   7.629  11.774
 2810W        W 6861   0.789   6.926   1.752
 2811W        W 6862   0.425   7.925   0.740
 2812W        W 6863   5.671   0.761  11.485
 2813W        W 6864  11.066   8.292  10.190
 2814W        W 6865   9.866   0.254   2.282
 2815W        W 6866   9.847  11.319   9.042
 2816W        W 6867   8.620   9.288   1.903
 2817W        W 6868   7.169   1.882   8.800
 2818W        W 6869   4.703   9.079   8.947
 2819W        W 6870  10.103   4.684   9.392
 2820W        W 6871   1.359   4.176   1.468
 2821W        W 6872   7.180   0.474   3.421
 2822W        W 6873   2.441   0.991   2.211
 2823W        W 6874   1.388  11.445   3.477
 2824W        W 6875   2.966   7.062   8.122
 2825W        W 6876   8.502   0.208   9.027
 2826W        W 6877   0.633   5.793   9.064
 2827W        W 6878   9.974   9.791   8.763
 2828W        W 6879   6.625   1.259   2.430
 2829W        W 6880   4.548   1.821   9.058
 2830W        W 6881   0.280  11.285  11.623
 2831W        W 6882   9.022   6.847   0.390
 2832W        W 6883   6.255   8.986   0.769
 2833W        W 6884  10.656   7.024   2.199
 2834W        W 6885   8.909  10.001   1.926
 2835W        W 6886   3.703   0.630  11.146
 2836W        W 6887   7.874   1.652  11.945
 2837W        W 6888   3.123   1.134   2.512
 2838W        W 6889  11.384   1.290   8.806
 2839W        W 6890  10.218   6.152   2.714
 2840W        W 6891   0.456   3.548  11.136
 2841W        W 6892   8.614  10.179   3.893
 2842W        W 6893   5.221  10.589   1.790
 2843W        W 6894   6.613  10.944  11.522
 2844W        W 6895  10.930   6.848   2.652
 2845W        W 6896   7.490  10.502  11.816
 2846W        W 6897   5.620   6.124   9.368
 2847W        W 6898   1.788   6.010   2.733
 2848W        W 6899   2.384   7.039   2.320
 2849W        W 6900   0.269   9.926  11.568
 2850W        W 6901   2.250   3.888   2.790
 2851W        W 6902  11.446   8.465   3.307
 2852W        W 6903   7.132   6.433   9.640
 2853W        W 6904  10.461  10.565  11.532
 2854W        W 6905   1.066   7.442   2.224
 2855W        W 6906   3.973   3.711   2.174
 2856W        W 6907   8.961   6.351  10.475
 2857W        W 6908   6.567   8.525  11.662
 2858W        W 6909  10.462   1.954   2.306
 2859W        W 6910   1.295   3.340  10.336
 2860W        W 6911   6.063   7.142   2.237
 2861W        W 6912   4.534   3.938   9.494
 2862W        W 6913   0.858  10.723   1.967
 2863W        W 6914   0.391   8.845   0.453
 2864W        W 6915   3.779   2.168  10.085
 2865W        W 6916   7.104   0.421   9.965
 2866W        W 6917  11.059   3.807   1.935
 2867W        W 6918   7.128   0.341  11.005
 2868W        W 6919   7.540   6.678   3.831
 2869W        W 6920   9.625   7.805   0.040
 2870W        W 6921   5.005   8.187  11.186
 2871W        W 6922   4.904   7.981   2.540
 2872W        W 6923   1.568   5.922   8.547
 2873W        W 6924   6.154   9.674   2.071
 2874W        W 6925   1.756   4.164   1.808
 2875W        W 6926   1.053   7.378   8.586
 2876W        W 6927   5.366  10.325   0.415
 2877W        W 6928   0.510   9.942   0.033
 2878W        W 6929   8.344   8.668  11.944
 2879W        W 6930   8.679   5.612   3.091
 2880W        W 6931   5.582   4.715  11.443
 2881W        W 6932   0.756   1.874   0.452
 2882W        W 6933  10.101   4.297   0.419
 2883W        W 6934   6.637   1.914   0.547
 2884W        W 6935   5.325   7.403  11.398
 2885W        W 6936   5.472   9.138   9.482
 2886W        W 6937   5.618   0.821   3.239
 2887W        W 6938  10.355   4.230   2.535
 2888W        W 6939   2.068   8.789  10.837
 2889W        W 6940   6.056   7.105   1.324
 2890W        W 6941   4.789   3.828   3.677
 2891W        W 6942   5.912   2.342   2.679
 2892W        W 6943   9.341   3.777   9.061
 2893W        W 6944   1.720   4.665   1.991
 2894W        W 6945   4.776   2.270   9.104
 2895W        W 6946   2.194   6.632   1.147
 2896W        W 6947   0.046   7.525  10.576
 2897W        W 6948   3.965   9.297   2.895
 2898W        W 6949   1.999   4.165   2.398
 2899W        W 6950   5.136   2.310   4.032
 2900W        W 6951  10.064   2.198  10.047
 2901W        W 6952   3.420  10.240   2.175
 2902W        W 6953   3.732  10.794   3.143
 2903W        W 6954   7.045   9.131  10.560
 2904W        W 6955   7.988   2.797   2.289
 2905W        W 6956   7.073   3.809  10.807
 2906W        W 6957  10.853   2.636   0.236
 2907W        W 6958   7.176   9.573  10.344
 2908W        W 6959   2.336   9.978   2.314
 2909W        W 6960   4.104   6.484   1.996
 2910W        W 6961   7.588   4.723   1.870
 2911W        W 6962   0.390   1.386   9.022
 2912W        W 6963   0.894   3.750   2.013
 2913W        W 6964  11.330   6.260   2.353
 2914W        W 6965   6.800   8.955   2.216
 2915W        W 6966   2.097   0.723  10.845
 2916W        W 6967   2.909   4.676   8.699
 2917W        W 6968  11.009  10.486   9.802
 2918W        W 6969   7.575   3.609   9.943
 2919W        W 6970   0.722   3.100  11.881
 2920W        W 6971   7.663  10.354   3.279
 2921W        W 6972   4.190   3.394   1.779
 2922W        W 6973  10.831   9.525   9.928
 2923W        W 6974   9.541   8.366   3.150
 2924W        W 6975  11.060   4.500   8.860
 2925W        W 6976   8.344   9.497   1.008
 2926W        W 6977   0.978   0.140   9.691
 2927W        W 6978   9.053   4.759   0.280
 2928W        W 6979   6.710   3.793   1.436
 2929W        W 6980   5.167   5.991   1.895
 2930W        W 6981   0.808   3.046   3.080
 2931W        W 6982  10.291   5.536   8.398
 2932W        W 6983   1.008   7.947   0.102
 2933W        W 6984   7.560   3.650  10.959
 2934W        W 6985  11.248   0.260  10.548
 2935W        W 6986   1.927   8.394   2.660
 2936W        W 6987   1.812   3.695   1.583
 2937W        W 6988   8.424   4.776   0.019
 2938W        W 6989   4.758  11.200  11.146
 2939W        W 6990   0.911   3.121   1.526
 2940W        W 6991   7.269  10.008   2.693
 2941W        W 6992   6.919   4.145  11.512
 2942W        W 6993   3.309   2.723   9.616
 2943W        W 6994   1.123   1.928  10.850
 2944W        W 6995   0.656   9.294   9.488
 2945W        W 6996   1.810   8.307   0.344
 2946W        W 6997   7.391   4.848   1.410
 2947W        W 6998   5.416   7.034  11.756
 2948W        W 6999   4.677   3.459   1.324
 2949W        W 7000   0.810   5.082  10.433
 2950W        W 7001   9.948   3.217   3.342
 2951W        W 7002   1.747   8.148   9.358
 2952W        W 7003   3.036   4.772   3.435
 2953W        W 7004   9.652   2.004   0.691
 2954W        W 7005   0.751  10.103   0.890
 2955W        W 7006   2.751   8.373   9.632
 2956W        W 7007   3.756   7.972   9.957
 2957W        W 7008   8.728   3.020   2.710
 2958W        W 7009  10.601   8.213   9.983
 2959W        W 7010   0.448   1.752   3.277
 2960W        W 7011   1.723   9.959   9.818
 2961W        W 7012   2.751   4.777   3.881
 2962W        W 7013   9.953   9.920   9.853
 2963W        W 7014   0.024   0.191   1.355
 2964W        W 7015   6.640   4.536   1.947
 2965W        W 7016   1.710   0.009  11.546
 2966W        W 7017   5.015   4.320   9.471
 2967W        W 7018   5.080   9.013   3.523
 2968W        W 7019   8.201   3.062   3.669
 2969W        W 7020   7.698   6.580   8.956
 2970W        W 7021   7.168   7.585   2.756
 2971W        W 7022  10.265  10.372   2.778
 2972W        W 7023   7.176   4.232  11.050
 2973W        W 7024   9.747   3.681   3.501
 2974W        W 7025   2.763   0.739   1.654
 2975W        W 7026   8.636   9.048   0.791
 2976W        W 7027   5.018   3.145   1.822
 2977W        W 7028   3.101   0.746   1.263
 2978W        W 7029   4.835  10.687  11.222
 2979W        W 7030   2.224   5.228   4.204
 2980W        W 7031   7.123   0.497   0.801
 2981W        W 7032   2.801   6.108  11.494
 2982W        W 7033   2.124   0.745   9.965
 2983W        W 7034   1.825   9.988   8.883
 2984W        W 7035  10.705   8.626  10.359
 2985W        W 7036   0.503   5.000   8.373
 2986W        W 7037   4.151   2.661   9.519
 2987W        W 7038   7.169   6.352   3.968
 2988W        W 7039   7.503   9.072   1.627
 2989W        W 7040   3.215   6.578  10.742
 2990W        W 7041   1.000   4.421  11.203
 2991W        W 7042   2.255   3.749  10.241
 2992W        W 7043  11.325  10.961   3.328
 2993W        W 7044   9.958  10.835   3.073
 2994W        W 7045   5.956   0.928  10.328
 2995W        W 7046   1.264   7.666   0.865
 2996W        W 7047   6.889   7.029   1.566
 2997W        W 7048  10.787   6.076  10.332
 2998W        W 7049   8.669   0.453   9.461
 2999W        W 7050   4.729   4.786  10.996
 3000W        W 7051   9.677   3.618   1.675
 3001W        W 7052   9.401   6.441   2.090
 3002W        W 7053   5.779   9.935   2.373
 3003W        W 7054   8.483   7.828  10.978
 3004W        W 7055   4.679   3.641   0.532
 3005W        W 7056   3.617   3.492  10.407
 3006W        W 7057   9.135   2.745  10.334
 3007W        W 7058   4.258   7.773   0.404
 3008W        W 7059   0.670   1.579   9.506
 3009W        W 7060  10.482   0.393   0.529
 3010W        W 7061   0.278   5.878   9.458
 3011W        W 7062   1.118   8.238   8.942
 3012W        W 7063   9.091   1.724  11.460
 3013W        W 7064   8.925   9.090   1.506
 3014W        W 7065   4.599   0.236   0.877
 3015W        W 7066   1.351   3.695   0.202
 3016W        W 7067   9.272   5.634   3.265
 3017W        W 7068   8.426   9.014   9.864
 3018W        W 7069   4.008   7.447   0.732
 3019W        W 7070   9.034   2.237   1.164
 3020W        W 7071   8.393   4.359   2.240
 3021W        W 7072   5.994  10.486   0.643
 3022W        W 7073  11.282   1.786   1.624
 3023W        W 7074   7.108   4.827   2.110
 3024W        W 7075   2.120   4.223   3.162
 3025W        W 7076   3.285  10.824  10.370
 3026W        W 7077   0.856   5.345  11.365
 3027W        W 7078   5.528   2.797  10.001
 3028W        W 7079   1.795   1.703   3.010
 3029W        W 7080   4.467   7.565   0.913
 3030W        W 7081   1.765   6.040   9.391
 3031W        W 7082   4.202   7.588  11.857
 3032W        W 7083  11.159   9.182   3.356
 3033W        W 7084   4.017   6.659  10.378
 3034W        W 7085   6.186   7.920   2.645
 3035W        W 7086   5.421   1.890   8.525
 3036W        W 7087   0.555   3.421   1.786
 3037W        W 7088   3.582   1.242   3.295
 3038W        W 7089  11.040   1.075   2.507
 3039W        W 7090   4.643   8.065   0.195
 3040W        W 7091   7.450   4.016   9.676
 3041W        W 7092   7.063   6.740   3.606
 3042W        W 7093   8.703   6.463   3.159
 3043W        W 7094   5.979   5.960   0.374
 3044W        W 7095  10.479  10.786   1.866
 3045W        W 7096   4.789   1.986  11.512
 3046W        W 7097   1.470  10.348   9.080
 3047W        W 7098   8.048   3.275   1.606
 3048W        W 7099   6.342  10.743   2.315
 3049W        W 7100   5.501   8.373   9.097
 3050W        W 7101   3.315   9.563   4.108
 3051W        W 7102   2.125   5.589   3.868
 3052W        W 7103   3.998  11.028   1.205
 3053W        W 7104   7.018   3.235   0.069
 3054W        W 7105   7.874   0.758  10.063
 3055W        W 7106  10.165  10.300   8.669
 3056W        W 7107  11.480   4.113   2.015
 3057W        W 7108  10.067   3.472   2.893
 3058W        W 7109   6.745   7.333  11.920
 3059W        W 7110   2.623   0.879   9.044
 3060W        W 7111   2.596   9.579   2.627
 3061W        W 7112   0.853   6.812   2.738
 3062W        W 7113   1.408   1.234  11.937
 3063W        W 7114  11.357   1.321  11.541
 3064W        W 7115   2.031   4.860   9.846
 3065W        W 7116   3.244   5.081   8.684
 3066W        W 7117   5.044   3.905  10.338
 3067W        W 7118   1.191   1.220   1.378
 3068W        W 7119   9.953   2.262   9.050
 3069W        W 7120   7.467   4.969   9.666
 3070W        W 7121   8.963   9.180   3.019
 3071W        W 7122   2.226   9.981   9.855
 3072W        W 7123   4.626  11.102   2.417
 3073W        W 7124   6.680   7.802   0.092
 3074W        W 7125   1.712   8.691  11.395
 3075W        W 7126   8.521  10.688   1.913
 3076W        W 7127   9.967   1.464   1.634
 3077W        W 7128   7.864   3.667   2.408
 3078W        W 7129  10.814   3.116   0.044
 3079W        W 7130   1.581   7.414   3.443
 3080W        W 7131   7.562   6.568   2.451
 3081W        W 7132   9.595   6.590   3.084
 3082W        W 7133   8.430   0.625   1.713
 3083W        W 7134   8.349   0.127  10.365
 3084W        W 7135  11.395   8.079   8.798
 3085W        W 7136   3.029   7.007   2.873
 3086W        W 7137   9.860   0.993   2.954
 3087W        W 7138   2.116   1.281  10.001
 3088W        W 7139   1.686   4.573   2.475
 3089W        W 7140   3.746  10.068   9.785
 3090W        W 7141   0.732  10.560   0.595
 3091W        W 7142   5.206  11.055   3.463
 3092W        W 7143   0.059   8.537   1.773
 3093W        W 7144   7.986   1.947   1.239
 3094W        W 7145   1.193   3.216   0.079
 3095W        W 7146   7.541  11.489   0.663
 3096W        W 7147  11.199   2.238   1.362
 3097W        W 7148   6.783   8.643  10.716
 3098W        W 7149   3.804   3.725   0.732
 3099W        W 7150   8.714   1.388   9.262
 3100W        W 7151  10.940   5.073   3.224
 3101W        W 7152   9.378   8.413  10.967
 3102W        W 7153   4.706   1.669   2.874
 3103W        W 7154   6.290   7.261   3.579
 3104W        W 7155   5.992   6.226   2.214
 3105W        W 7156   0.299   8.815   8.774
 3106W        W 7157   2.958  10.923  10.779
 3107W        W 7158   6.854   2.343   0.333
 3108W        W 7159  11.201   0.759   3.656
 3109W        W 7160   4.066   7.063  11.692
 3110W        W 7161   9.770   1.438  11.990
 3111W        W 7162   1.471   7.791   3.087
 3112W        W 7163   3.868   2.735  10.855
 3113W        W 7164   3.315   4.731   9.065
 3114W        W 7165   2.265  10.456   3.058
 3115W        W 7166   5.531   3.574   3.901
 3116W        W 7167   9.489   3.346   9.258
 3117W        W 7168   6.196  10.710   8.965
 3118W        W 7169   1.332   3.622   2.327
 3119W        W 7170   1.007   3.186   9.164
 3120W        W 7171   6.271   8.779  10.836
 3121W        W 7172   5.486   5.562  11.407
 3122W        W 7173   1.823   2.826   2.243
 3123W        W 7174   1.026   8.465   0.727
 3124W        W 7175   3.831   9.468   2.446
 3125W        W 7176   5.200   2.555  10.290
 3126W        W 7177  10.623   4.427   0.254
 3127W        W 7178   3.991   4.927   8.209
 3128W        W 7179   2.780   4.623   9.195
 3129W        W 7180   1.640   5.158  10.321
 3130W        W 7181   8.891   9.612  11.908
 3131W        W 7182   9.990   0.757  10.554
 3132W        W 7183   2.854  10.889   2.597
 3133W        W 7184   8.897  10.999  10.877
 3134W        W 7185   7.084   8.448   2.852
 3135W        W 7186   4.349   8.052   1.398
 3136W        W 7187   4.201   9.783   2.277
 3137W        W 7188   0.960   9.342   9.924
 3138W        W 7189   1.227   8.786   8.808
 3139W        W 7190   9.846   3.624   9.944
 3140W        W 7191   4.204   3.602   9.234
 3141W        W 7192   9.358  10.019  10.372
 3142W        W 7193   8.846   9.415   8.697
 3143W        W 7194   7.673   8.133   2.522
 3144W        W 7195   1.352   8.382   1.485
 3145W        W 7196   8.647   2.625  11.037
 3146W        W 7197  11.317   9.348   1.287
 3147W        W 7198  10.720   6.115   0.976
 3148W        W 7199   1.905   7.906  10.536
 3149W        W 7200   1.936   0.855   2.108
 3150W        W 7201  10.397   9.378   2.758
 3151W        W 7202   2.769  11.286   9.341
 3152W        W 7203   4.183   0.932  11.830
 3153W        W 7204  10.245   8.602   0.994
 3154W        W 7205   6.627   7.667   2.788
 3155W        W 7206   3.578   0.488   1.316
 3156W        W 7207  10.738   4.826  11.242
 3157W        W 7208   3.185   6.403   0.301
 3158W        W 7209   6.713  11.424  11.347
 3159W        W 7210   1.133   1.616   8.425
 3160W        W 7211   3.803   8.804  11.452
 3161W        W 7212  10.466   4.709   1.421
 3162W        W 7213   5.397   6.520  11.815
 3163W        W 7214   5.165   0.760  11.263
 3164W        W 7215   1.308  11.044   0.371
 3165W        W 7216   3.199   3.878   1.360
 3166W        W 7217  11.283   5.741   8.729
 3167W        W 7218  10.427   3.052   9.058
 3168W        W 7219   1.344   0.099   2.980
 3169W        W 7220   6.254   7.690   3.143
 3170W        W 7221   7.856   4.150   0.707
 3171W        W 7222   6.727   3.655   3.269
 3172W        W 7223   3.857   6.577  11.797
 3173W        W 7224  10.680   5.665  11.441
 3174W        W 7225   4.752   9.906   9.712
 3175W        W 7226   4.049   0.923   1.209
 3176W        W 7227   9.584   4.308   3.287
 3177W        W 7228   8.507   8.690  10.556
 3178W        W 7229   0.064   8.984  10.256
 3179W        W 7230   0.753   6.369   0.873
 3180W        W 7231   4.239   9.001   3.204
 3181W        W 7232   6.238   0.146   0.515
 3182W        W 7233   5.848   3.327   3.054
 3183W        W 7234   2.259   5.301   2.985
 3184W        W 7235   6.450   5.872  10.543
 3185W        W 7236  10.383   7.213   9.956
 3186W        W 7237   9.814   5.761   0.499
 3187W        W 7238   3.526   8.466   0.637
 3188W        W 7239   8.370  10.033   0.684
 3189W        W 7240   9.184   6.491   3.361
 3190W        W 7241   9.217   8.029   8.557
 3191W        W 7242   1.980   2.721   0.208
 3192W        W 7243   1.667  10.013  10.328
 3193W        W 7244   4.499  10.941   1.268
 3194W        W 7245   6.226   5.729  10.088
 3195W        W 7246  10.543   3.688  11.798
 3196W        W 7247  10.011   1.808   8.764
 3197W        W 7248   9.961   6.147   3.581
 3198W        W 7249   6.969   1.311  10.970
 3199W        W 7250   0.338   2.910   3.217
 3200W        W 7251   8.492   5.834   0.678
 3201W        W 7252   8.863   5.460   1.450
 3202W        W 7253   3.312   2.719  10.176
 3203W        W 7254   4.656   6.725   9.130
 3204W        W 7255   8.478   7.459   9.789
 3205W        W 7256   3.697  10.172   8.975
 3206W        W 7257  10.702   9.523   9.314
 3207W        W 7258  11.331   8.371   0.247
 3208W        W 7259  10.909   7.018  10.309
 3209W        W 7260   3.576   1.370  11.171
 3210W        W 7261   2.109   4.431   3.626
 3211W        W 7262   3.146  10.361  11.141
 3212W        W 7263  11.236   9.386   0.205
 3213W        W 7264   8.070   7.964   0.359
 3214W        W 7265   5.794   0.554  10.651
 3215W        W 7266   0.435   8.160   1.187
 3216W        W 7267   1.291   4.333   1.942
 3217W        W 7268   2.047   5.124   8.125
 3218W        W 7269   4.025   7.939   2.342
 3219W        W 7270   7.024  10.805   1.706
 3220W        W 7271   9.429   9.865   1.736
 3221W        W 7272   3.379   4.274   2.447
 3222W        W 7273   1.646   0.542   9.093
 3223W        W 7274   0.317   3.467   8.860
 3224W        W 7275   8.070   7.672   9.996
 3225W        W 7276   9.167   1.459  11.030
 3226W        W 7277   0.789   1.257   1.035
 3227W        W 7278   3.768  11.010   2.592
 3228W        W 7279   7.366   2.436  11.333
 3229W        W 7280   4.099   4.699   2.304
 3230W        W 7281   2.856  10.242   3.378
 3231W        W 7282  10.926   9.634   1.132
 3232W        W 7283   3.090  10.443  10.643
 3233W        W 7284   5.833   1.722   2.458
 3234W        W 7285   2.840  10.087   1.020
 3235W        W 7286   9.764   4.798   3.215
 3236W        W 7287  10.816  11.312   2.688
 3237W        W 7288   6.716   1.259  11.445
 3238W        W 7289  11.076  10.388   2.340
 3239W        W 7290   0.989  11.263  10.438
 3240W        W 7291   9.295  11.310   1.372
 3241W        W 7292   0.925   6.986  11.380
 3242W        W 7293   9.347   1.923  10.541
 3243W        W 7294   5.454   1.419  10.971
 3244W        W 7295   1.703   2.059   2.666
 3245W        W 7296   7.772  10.107   2.833
 3246W        W 7297   3.254   7.283   9.076
 3247W        W 7298   4.854   8.229   2.097
 3248W        W 7299   2.807  10.596   1.017
 3249W        W 7300   8.651   2.112   1.812
 3250W        W 7301   5.699   5.118  11.083
 3251W        W 7302   0.642   3.301   0.968
 3252W        W 7303   6.580   1.250   1.925
 3253W        W 7304   0.811   4.013   9.468
 3254W        W 7305   6.991   9.991  10.561
 3255W        W 7306  10.876   8.572   2.212
 3256W        W 7307   3.608   7.541  10.773
 3257W        W 7308   0.273   2.635   0.543
 3258W        W 7309   8.997   1.851   1.483
 3259W        W 7310   0.467   9.490   9.918
 3260W        W 7311   0.702   5.792  11.586
 3261W        W 7312   1.457   1.962   0.268
 3262W        W 7313   9.493   2.854  11.988
 3263W        W 7314   4.901   9.567   1.442
 3264W        W 7315   2.495   7.564  10.220
 3265W        W 7316   6.545   6.706  10.776
 3266W        W 7317   0.389   4.789   9.342
 3267W        W 7318   8.927  10.009  10.651
 3268W        W 7319   2.893   7.209   1.417
 3269W        W 7320   7.068   3.578   1.774
 3270W        W 7321   0.987   0.962  11.792
 3271W        W 7322   9.939   1.245  11.573
 3272W        W 7323   1.682   5.702  10.831
 3273W        W 7324   5.419  11.308  10.349
 3274W        W 7325  10.550   4.609   9.107
 3275W        W 7326   0.325   7.153  10.795
 3276W        W 7327   5.431  10.396   9.779
 3277W        W 7328   1.406   0.817  11.531
 3278W        W 7329   9.809   9.326  10.125
 3279W        W 7330   2.681   2.645   9.154
 3280W        W 7331   4.971   5.361  11.320
 3281W        W 7332   1.711   4.776  11.908
 3282W        W 7333   8.890   2.918   0.795
 3283W        W 7334   4.521   7.852   2.220
 3284W        W 7335   0.007   0.743   1.411
 3285W        W 7336   6.703   7.971  10.479
 3286W        W 7337  11.271   1.572   9.790
 3287W        W 7338   4.865   9.351   9.854
 3288W        W 7339   1.806   8.957   2.737
 3289W        W 7340   8.217   8.502   1.381
 3290W        W 7341   4.145   4.708   1.299
 3291W        W 7342   0.821   9.766   9.548
 3292W        W 7343   0.933   6.423   2.409
 3293W        W 7344  10.358   8.354   2.783
 3294W        W 7345  10.922   5.698   1.200
 3295W        W 7346  10.086   5.231   2.186
 3296W        W 7347   5.779   1.228   2.953
 3297W        W 7348   9.598   8.871  11.821
 3298W        W 7349   1.213   6.723   9.215
 3299W        W 7350   5.198   5.097   0.987
 3300W        W 7351   1.297   2.448   3.398
 3301W        W 7352   5.296   2.536   2.800
 3302W        W 7353   2.320   4.775   0.662
 3303W        W 7354   1.973  10.874  10.771
 3304W        W 7355   2.210  11.260   0.746
 3305W        W 7356   0.284   9.005   9.736
 3306W        W 7357   1.210  11.260   9.977
 3307W        W 7358  11.169   6.240   8.834
 3308W        W 7359   3.643   1.778   3.172
 3309W        W 7360   3.232   8.490   9.403
 3310W        W 7361   0.060   2.935   9.551
 3311W        W 7362   6.404   3.338   0.310
 3312W        W 7363   5.044  10.819   2.491
 3313W        W 7364   2.811   0.240   9.584
 3314W        W 7365   0.816   5.812   0.082
 3315W        W 7366   2.020   7.992  11.042
 3316W        W 7367   8.827   0.790   9.826
 3317W        W 7368   2.312   1.453   2.969
 3318W        W 7369   9.495   7.131   0.349
 3319W        W 7370   7.435   8.926   8.394
 3320W        W 7371   0.084  10.539   1.899
 3321W        W 7372   1.797  10.307  10.782
 3322W        W 7373   0.791   7.308  10.987
 3323W        W 7374   8.148   4.253   2.661
 3324W        W 7375   0.454   2.713   2.336
 3325W        W 7376   8.261   6.687  11.880
 3326W        W 7377   6.928   2.686   1.773
 3327W        W 7378   5.717   5.615  10.941
 3328W        W 7379  11.262   0.723   8.853
 3329W        W 7380   4.760   7.976   9.783
 3330W        W 7381   4.382  10.854  11.104
 3331W        W 7382   3.239   0.950   9.594
 3332W        W 7383   2.443   2.822   0.051
 3333W        W 7384  10.404   3.161   9.558
 3334W        W 7385   3.401   4.662  11.631
 3335W        W 7386   3.921   8.862  10.962
 3336W        W 7387   2.653   7.272   2.673
 3337W        W 7388   3.553   5.525   8.728
 3338W        W 7389   9.479   8.022   9.079
 3339W        W 7390   8.023   0.843  10.863
 3340W        W 7391   8.232  10.492  10.344
 3341W        W 7392   5.152  11.462   8.973
 3342W        W 7393   9.110  10.895  10.411
 3343W        W 7394  10.812   7.968  11.207
 3344W        W 7395   0.726   2.584   9.795
 3345W        W 7396   1.882  10.524   1.314
 3346W        W 7397  10.989   4.411   3.642
 3347W        W 7398  11.375   3.122   3.141
 3348W        W 7399   2.432   7.169   8.989
 3349W        W 7400   6.501   4.303   9.588
 3350W        W 7401   1.900   3.829   0.853
 3351W        W 7402   9.552   4.596   1.375
 3352W        W 7403   7.927   9.816  11.775
 3353W        W 7404   7.519   7.724   0.462
 3354W        W 7405   5.020   6.493   0.263
 3355W        W 7406   6.416   4.128   8.642
 3356W        W 7407  10.226   9.072  10.378
 3357W        W 7408  11.290   6.543   0.312
 3358W        W 7409   6.515  10.932  10.336
 3359W        W 7410   5.065  11.340  10.756
 3360W        W 7411   4.745   4.124   9.917
 3361W        W 7412   4.671   9.221   1.782
 3362W        W 7413   8.866   6.576   0.809
 3363W        W 7414   2.499   3.226  11.724
 3364W        W 7415   8.765   8.003   9.483
 3365W        W 7416   6.474   2.731   8.891
 3366W        W 7417   3.726   5.690  10.814
 3367W        W 7418   3.186   1.417   9.795
 3368W        W 7419  10.116   7.899   2.374
 3369W        W 7420   9.873   7.018   3.115
 3370W        W 7421   7.414   5.732   1.768
 3371W        W 7422   2.683  10.436  10.948
 3372W        W 7423   2.189  10.483  11.068
 3373W        W 7424   5.188  10.208  11.948
 3374W        W 7425   8.993   6.578   2.423
 3375W        W 7426   1.964   9.006   3.560
 3376W        W 7427   9.537   2.661  11.517
 3377W        W 7428  11.427  10.252  10.140
 3378W        W 7429   3.138   1.829   2.969
 3379W        W 7430   4.909   5.699  10.525
 3380W        W 7431   4.684   3.426   9.470
 3381W        W 7432   8.047   1.077  11.326
 3382W        W 7433   0.810   9.286  11.389
 3383W        W 7434   7.381   3.591   2.675
 3384W        W 7435   1.689   6.706   8.937
 3385W        W 7436   3.782   9.798  11.242
 3386W        W 7437   5.266   0.674   9.377
 3387W        W 7438   5.678   5.058   9.221
 3388W        W 7439   7.522   9.438   9.509
 3389W        W 7440   3.034  10.359   1.856
 3390W        W 7441   9.803   0.392  10.856
 3391W        W 7442   3.696   3.337   2.716
 3392W        W 7443   8.182   5.859   9.443
 3393W        W 7444   6.937   6.415  10.968
 3394W        W 7445   2.558   8.796  11.936
 3395W        W 7446   3.730   5.053   8.845
 3396W        W 7447   2.260   1.375   0.498
 3397W        W 7448  11.114   0.846   1.761
 3398W        W 7449   7.929   0.790   0.462
 3399W        W 7450   9.441   5.512   0.261
 3400W        W 7451   5.758   7.664  11.477
 3401W        W 7452   6.829   9.438   8.038
 3402W        W 7453   4.476   8.118   0.739
 3403W        W 7454   8.857   6.187   2.743
 3404W        W 7455   0.434   4.539   0.142
 3405W        W 7456   6.274  10.249   9.242
 3406W        W 7457   8.416   7.058   2.558
 3407W        W 7458   2.664   9.218  10.403
 3408W        W 7459   1.922   7.081  10.252
 3409W        W 7460   3.594   3.799   2.513
 3410W        W 7461   3.373   5.443   0.457
 3411W        W 7462   6.070   5.412   1.917
 3412W        W 7463   3.852   0.864   1.666
 3413W        W 7464   7.382   2.182   3.460
 3414W        W 7465   5.747  10.927  10.969
 3415W        W 7466  11.411   8.123   9.837
 3416W        W 7467   0.713   5.998   2.612
 3417W        W 7468   5.805   8.501   2.304
 3418W        W 7469   0.727   3.349   2.273
 3419W        W 7470   7.461   3.341  11.384
 3420W        W 7471   5.973   0.029   3.154
 3421W        W 7472   5.206   1.214  10.583
 3422W        W 7473   7.419   8.513   0.274
 3423W        W 7474   1.819  10.070   1.025
 3424W        W 7475   3.782   7.003   3.253
 3425W        W 7476  11.130   8.479   1.191
 3426W        W 7477   4.634   6.220  11.746
 3427W        W 7478   1.652   4.302   0.825
 3428W        W 7479   8.029   4.621   1.174
 3429W        W 7480   6.811   4.034   2.692
 3430W        W 7481   9.045   3.233   1.387
 3431W        W 7482  10.671   7.976  10.705
 3432W        W 7483   0.100   1.030   9.930
 3433W        W 7484   9.234  10.274   9.010
 3434W        W 7485   7.954   8.222   9.267
 3435W        W 7486   8.027   0.910   1.812
 3436W        W 7487   6.140   6.770   3.094
 3437W        W 7488   4.527   1.268   0.867
 3438W        W 7489  11.452  10.736   9.980
 3439W        W 7490  11.310   6.509   2.817
 3440W        W 7491   4.535   1.609   8.562
 3441W        W 7492   2.288   3.870   9.165
 3442W        W 7493   8.963   9.898  11.483
 3443W        W 7494   1.912   5.921   0.690
 3444W        W 7495   2.926   9.057   0.339
 3445W        W 7496   2.321   1.044   9.564
 3446W        W 7497   5.047   0.809   1.175
 3447W        W 7498   9.285   1.332   1.176
 3448W        W 7499   8.346  10.882  10.916
 3449W        W 7500   0.308   5.739   0.076
 3450W        W 7501   6.683   4.213  10.950
 3451W        W 7502   2.346  11.376   1.424
 3452W        W 7503   3.709   1.403  10.666
 3453W        W 7504   3.998   1.491   3.463
 3454W        W 7505   8.905   9.948  10.107
 3455W        W 7506   7.147   2.385   8.650
 3456W        W 7507   0.988   2.667   9.345
 3457W        W 7508   9.395   4.417   8.552
 3458W        W 7509   3.785   1.281   9.140
 3459W        W 7510   4.648   3.338   3.656
 3460W        W 7511   8.460  10.335   9.465
 3461W        W 7512   0.723   7.101   3.140
 3462W        W 7513   4.485   0.122  11.020
 3463W        W 7514   4.367   6.621   2.441
 3464W        W 7515   5.641   8.018   1.173
 3465W        W 7516   4.960   3.918   3.200
 3466W        W 7517   6.244  10.188   2.201
 3467W        W 7518   5.614   3.083   1.246
 3468W        W 7519   0.421   2.182   2.489
 3469W        W 7520  10.875   2.150   0.391
 3470W        W 7521   6.996   6.544   1.729
 3471W        W 7522   4.637   0.940  10.609
 3472W        W 7523   5.203   2.082  10.040
 3473W        W 7524   8.099   7.869  11.313
 3474W        W 7525   6.426   7.674   4.047
 3475W        W 7526   8.142   6.178  11.852
 3476W        W 7527   8.780   4.762   3.492
 3477W        W 7528   1.890   1.695   0.345
 3478W        W 7529  11.198   3.351   1.809
 3479W        W 7530  10.995  10.834   9.020
 3480W        W 7531   3.702   7.928   1.426
 3481W        W 7532   9.148   1.675   2.418
 3482W        W 7533   0.254   1.890   9.408
 3483W        W 7534   0.388  10.891  11.275
 3484W        W 7535   5.524  10.689   0.737
 3485W        W 7536   8.811   4.059   2.179
 3486W        W 7537   2.024   6.126   8.435
 3487W        W 7538   9.589   1.483   8.758
 3488W        W 7539   0.522   5.583   2.844
 3489W        W 7540   2.394  10.862   2.296
 3490W        W 7541   8.778   5.814   1.839
 3491W        W 7542  10.500   4.655   2.790
 3492W        W 7543   1.346   6.111   2.471
 3493W        W 7544  10.372   1.359   9.903
 3494W        W 7545   7.621   8.061   0.116
 3495W        W 7546   6.566   8.970  10.378
 3496W        W 7547   8.015   7.716   9.145
 3497W        W 7548  10.408   9.807   9.615
 3498W        W 7549   6.466   1.933   9.784
 3499W        W 7550   8.845   0.779   2.973
 3500W        W 7551   7.167   2.086  10.022
 3501W        W 7552   8.295   0.212   8.533
 3502W        W 7553   3.241   7.037   9.996
 3503W        W 7554   0.978   3.751  10.375
 3504W        W 7555   5.762   6.526   8.610
 3505W        W 7556   8.946   6.023   3.220
 3506W        W 7557   6.504   6.681   0.673
 3507W        W 7558   9.369   4.383   0.948
 3508W        W 7559   6.687   0.394   0.500
 3509W        W 7560   2.404   3.709   0.833
 3510W        W 7561  11.451   0.423  11.637
 3511W        W 7562   7.624   7.524   1.784
 3512W        W 7563   1.650   1.338  10.355
 3513W        W 7564  11.035   9.450  10.854
 3514W        W 7565   6.412   9.838   8.895
 3515W        W 7566   4.179  10.511   1.045
 3516W        W 7567   2.751  10.468  11.969
 3517W        W 7568   5.605   2.207   3.081
 3518W        W 7569   5.651   0.689   0.985
 3519W        W 7570   5.303   1.322   3.093
 3520W        W 7571   3.321   8.057  10.733
 3521W        W 7572   4.329   5.078  10.807
 3522W        W 7573   2.184   2.507   3.321
 3523W        W 7574   7.280   4.564   3.492
 3524W        W 7575   1.941   9.858   0.260
 3525W        W 7576   6.077   3.690   9.153
 3526W        W 7577   7.230   7.484  11.788
 3527W        W 7578   3.725   2.604   0.270
 3528W        W 7579   5.997   8.271   3.534
 3529W        W 7580   9.570   0.526   0.953
 3530W        W 7581   5.670   3.139   3.543
 3531W        W 7582   9.450   7.014  10.218
 3532W        W 7583   3.763   4.116   9.686
 3533W        W 7584   1.687   3.111   0.413
 3534W        W 7585   3.342   6.004   8.718
 3535W        W 7586  10.727   9.049   2.429
 3536W        W 7587   1.947   1.652  10.616
 3537W        W 7588  11.330  10.378   9.033
 3538W        W 7589   4.377   4.422  10.330
 3539W        W 7590   3.352   2.858  11.564
 3540W        W 7591   4.106   7.449  11.346
 3541W        W 7592   3.847   4.483  10.050
 3542W        W 7593   1.632   0.422  11.273
 3543W        W 7594   4.826  11.378   1.299
 3544W        W 7595   9.329   9.079   8.411
 3545W        W 7596   1.979   2.052   8.791
 3546W        W 7597   3.024   4.097   0.824
 3547W        W 7598   2.857   3.667   1.034
 3548W        W 7599   6.243   9.902   2.621
 3549W        W 7600   2.174  10.837   9.168
 3550W        W 7601  10.881   6.966   9.453
 3551W        W 7602   5.222   8.515   9.517
 3552W        W 7603  11.142   3.793  10.489
 3553W        W 7604  11.208   8.279  11.184
 3554W        W 7605   0.258   7.553  11.996
 3555W        W 7606   0.387   8.119  10.045
 3556W        W 7607   4.315   5.119   2.088
 3557W        W 7608   6.084   3.651  11.920
 3558W        W 7609   6.567   2.077  11.530
 3559W        W 7610   7.155   3.172   2.490
 3560W        W 7611  10.031   4.377   1.534
 3561W        W 7612  10.218   6.582   0.438
 3562W        W 7613   8.494   3.813  11.954
 3563W        W 7614   4.930   8.394   0.889
 3564W        W 7615   9.969   1.332  11.067
 3565W        W 7616   3.535   6.197  11.997
 3566W        W 7617   2.568   7.090   3.141
 3567W        W 7618   1.500   1.244   8.381
 3568W        W 7619   0.402   5.573   1.048
 3569W        W 7620   5.991   8.424   0.776
 3570W        W 7621  10.321   4.754   2.319
 3571W        W 7622   7.720   6.661   1.563
 3572W        W 7623   6.480   8.587   3.606
 3573W        W 7624   1.707   8.362   0.911
 3574W        W 7625   0.600   7.076   8.676
 3575W        W 7626   1.379   1.397   8.848
 3576W        W 7627   9.543   6.120   8.528
 3577W        W 7628  11.368   1.561   9.261
 3578W        W 7629   5.859   5.044   2.688
 3579W        W 7630   7.597  11.461   0.160
 3580W        W 7631   1.420  10.749   1.316
 3581W        W 7632   7.943   1.497   1.010
 3582W        W 7633   2.418  10.507   3.538
 3583W        W 7634   0.400   8.440   3.567
 3584W        W 7635  11.171  11.297   8.782
 3585W        W 7636   6.139   7.643   2.206
 3586W        W 7637  11.034   2.277   0.872
 3587W        W 7638   9.479  11.172   1.842
 3588W        W 7639   9.655   6.650   3.600
 3589W        W 7640   3.362   0.435   0.487
 3590W        W 7641   6.570   5.319   1.339
 3591W        W 7642  10.153   6.922   2.251
 3592W        W 7643   6.759   1.198  10.068
 3593W        W 7644   4.471   9.535   8.923
 3594W        W 7645   3.312   0.050   3.447
 3595W        W 7646   2.853   6.705   0.535
 3596W        W 7647   1.333   1.680   2.262
 3597W        W 7648   0.835   7.095   9.989
 3598W        W 7649   2.957   7.028  10.787
 3599W        W 7650   3.806   2.592  11.356
 3600W        W 7651   8.987  10.463   9.433
 3601W        W 7652   0.308   3.407   3.143
 3602W        W 7653   2.119   8.576   0.649
 3603W        W 7654   5.234   9.841   1.133
 3604W        W 7655   3.755   8.414  10.250
 3605W        W 7656   5.336  11.347   1.233
 3606W        W 7657   3.367   9.998   3.188
 3607W        W 7658   3.842   4.359  11.819
 3608W        W 7659   2.445   7.991  11.324
 3609W        W 7660   5.477   7.001   9.558
 3610W        W 7661   6.267   5.892   8.605
 3611W        W 7662  10.275   9.422   9.012
 3612W        W 7663   4.678   6.440  10.816
 3613W        W 7664   2.913   5.269  10.873
 3614W        W 7665   3.028   2.100   3.367
 3615W        W 7666  10.070   5.662   9.679
 3616W        W 7667   3.612   4.337  10.962
 3617W        W 7668   6.571   1.217   0.895
 3618W        W 7669  10.291   1.064   1.307
 3619W        W 7670   2.109   8.116   9.000
 3620W        W 7671   2.167   7.143   2.787
 3621W        W 7672   0.730   4.666   2.442
 3622W        W 7673   3.188   5.781  11.500
 3623W        W 7674   7.548   1.545   2.909
 3624W        W 7675   3.741   7.748   2.773
 3625W        W 7676   6.234   0.062  11.258
 3626W        W 7677   1.943   6.313  11.350
 3627W        W 7678   5.242   4.241   0.503
 3628W        W 7679   5.451   3.355   0.825
 3629W        W 7680   4.028   0.677   3.430
 3630W        W 7681   7.683   6.998   2.098
 3631W        W 7682   2.667   9.361   9.410
 3632W        W 7683   2.707   3.774  11.479
 3633W        W 7684   8.439   5.323   9.074
 3634W        W 7685   5.750   6.530   9.677
 3635W        W 7686   8.393   4.183   1.778
 3636W        W 7687   8.094   8.148  10.883
 3637W        W 7688   2.334   8.635   9.795
 3638W        W 7689   4.829   1.739   0.952
 3639W        W 7690   5.344   9.882   8.912
 3640W        W 7691   3.693  10.126   1.659
 3641W        W 7692   5.480  10.210   2.027
 3642W        W 7693   9.729   6.099   2.571
 3643W        W 7694   6.887   9.349   1.520
 3644W        W 7695   0.292   4.119   0.871
 3645W        W 7696  10.693   6.631  11.118
 3646W        W 7697   6.507   1.978   7.994
 3647W        W 7698   1.924   1.406   8.871
 3648W        W 7699   7.437   3.981   2.361
 3649W        W 7700   3.163  10.035  10.379
 3650W        W 7701   4.827   2.003   0.408
 3651W        W 7702  10.147   5.702   2.971
 3652W        W 7703   4.132   0.479   0.901
 3653W        W 7704   7.868   6.268   1.873
 3654W        W 7705  10.918   6.736   8.581
 3655W        W 7706   0.658   9.293   0.277
 3656W        W 7707   6.156   3.209   9.854
 3657W        W 7708   0.921   0.147   3.283
 3658W        W 7709   2.105   2.396   1.389
 3659W        W 7710  10.821   0.306  10.820
 3660W        W 7711   8.560   4.125   1.308
 3661W        W 7712  10.561   4.973   0.926
 3662W        W 7713   5.883   7.986   9.080
 3663W        W 7714   1.745   7.374   1.886
 3664W        W 7715   1.154   3.313   1.934
 3665W        W 7716   3.573   1.394   2.380
 3666W        W 7717   8.193   2.186  10.143
 3667W        W 7718   4.603   4.826   1.511
 3668W        W 7719   0.270  10.565  10.380
 3669W        W 7720   1.035   3.281   2.671
 3670W        W 7721   9.905   7.686  11.291
 3671W        W 7722   8.653  10.443   3.138
 3672W        W 7723   6.502   4.831  11.497
 3673W        W 7724   8.137   3.604   3.316
 3674W        W 7725  10.601   2.673   3.497
 3675W        W 7726   5.546   6.163   0.160
 3676W        W 7727   1.917   6.201  10.237
 3677W        W 7728   7.322  11.035   0.858
 3678W        W 7729   1.894   9.816  10.821
 3679W        W 7730   5.187   8.870  11.244
 3680W        W 7731   3.886   9.929  11.739
 3681W        W 7732   7.011   4.349   3.904
 3682W        W 7733   2.548   1.685  10.887
 3683W        W 7734   6.870  11.334  10.441
 3684W        W 7735  11.244  10.345   1.153
 3685W        W 7736   5.471   4.044  11.218
 3686W        W 7737   7.107   9.662   9.337
 3687W        W 7738   4.383   4.315   2.159
 3688W        W 7739  10.266   5.299   2.672
 3689W        W 7740   2.263   0.720  11.716
 3690W        W 7741   8.082   9.632  10.441
 3691W        W 7742   1.784   2.221   3.161
 3692W        W 7743   6.010   3.233   1.668
 3693W        W 7744  10.879   1.738   9.282
 3694W        W 7745   2.247   6.165   1.460
 3695W        W 7746   0.194  11.353   0.995
 3696W        W 7747   9.581   5.383   0.756
 3697W        W 7748   4.224   1.882  11.213
 3698W        W 7749  10.136   3.856   1.633
 3699W        W 7750   3.182  10.446   1.354
 3700W        W 7751   4.907   8.618   9.117
 3701W        W 7752   8.749   8.313   3.508
 3702W        W 7753   3.058   3.117  10.445
 3703W        W 7754   5.358  11.155   0.298
 3704W        W 7755   8.420   6.733  11.317
 3705W        W 7756   6.735   7.149   0.809
 3706W        W 7757   6.090   1.610   9.947
 3707W        W 7758  10.123   8.478   1.474
 3708W        W 7759   7.968   0.988   9.592
 3709W        W 7760   1.154   1.478  10.318
 3710W        W 7761   5.936   9.416   1.656
 3711W        W 7762  11.410   0.003  11.350
 3712W        W 7763   1.149   4.279   2.687
 3713W        W 7764   3.137   1.304   0.538
 3714W        W 7765   9.447   3.884   0.906
 3715W        W 7766   3.100   8.470   1.971
 3716W        W 7767   3.737   4.705   3.114
 3717W        W 7768   6.200   0.803  10.825
 3718W        W 7769   4.415   1.835   2.096
 3719W        W 7770   1.326   6.579   2.692
 3720W        W 7771  10.976  10.772   2.021
 3721W        W 7772   3.023   4.639  11.985
 3722W        W 7773   6.457   9.580  10.980
 3723W        W 7774   4.072   8.656   9.908
 3724W        W 7775  10.281   3.232  11.871
 3725W        W 7776  10.139  11.488  11.821
 3726W        W 7777   4.193   8.315   0.365
 3727W        W 7778   9.927   2.207   0.310
 3728W        W 7779   1.167   4.046   9.836
 3729W        W 7780   9.451   6.763  11.257
 3730W        W 7781   1.275   7.110   1.867
 3731W        W 7782   2.922   2.349   9.485
 3732W        W 7783   3.016   0.571   9.919
 3733W        W 7784   4.250   7.233  10.871
 3734W        W 7785   0.801  10.981   2.910
 3735W        W 7786   5.514   6.583   2.670
 3736W        W 7787   6.062   4.643  11.726
 3737W        W 7788   7.175   3.685   0.291
 3738W        W 7789  10.205   6.691   9.992
 3739W        W 7790   9.011   9.590   2.712
 3740W        W 7791   0.299   2.456   1.936
 3741W        W 7792   3.770   9.993   2.538
 3742W        W 7793   0.015   5.215   9.407
 3743W        W 7794  11.475   5.290   1.008
 3744W        W 7795   4.971   5.214  10.315
 3745W        W 7796   7.131   2.887  10.325
 3746W        W 7797   9.757   0.560   2.681
 3747W        W 7798   3.515   1.328  11.695
 3748W        W 7799  11.040   8.591  11.865
 3749W        W 7800   4.155   2.345   1.277
 3750W        W 7801   9.952   6.547   9.552
 3751W        W 7802   0.202   1.300   3.376
 3752W        W 7803   4.124   3.084   0.747
 3753W        W 7804   9.944   6.692  11.998
 3754W        W 7805   1.661   1.455   1.287
 3755W        W 7806  10.699   4.037   1.621
 3756W        W 7807   0.356   7.504   1.022
 3757W        W 7808  11.462   0.449   1.827
 3758W        W 7809   0.179   3.053   0.910
 3759W        W 7810   3.732  11.120   1.664
 3760W        W 7811   2.026   6.870   0.310
 3761W        W 7812  11.402   3.885   9.515
 3762W        W 7813  10.275   6.092  10.361
 3763W        W 7814   1.453   7.814   1.390
 3764W        W 7815  11.100   1.695  11.287
 3765W        W 7816   2.261   8.129   1.670
 3766W        W 7817   3.686   7.450   2.375
 3767W        W 7818   8.025  10.254   1.035
 3768W        W 7819   1.363   5.606   2.259
 3769W        W 7820   7.359   8.581   0.884
 3770W        W 7821   5.277   9.030   2.765
 3771W        W 7822   6.033   3.089   8.130
 3772W        W 7823   6.762   3.663  10.427
 3773W        W 7824   5.992   4.208   8.960
 3774W        W 7825   9.495   1.888  11.884
 3775W        W 7826   6.416   8.123   3.806
 3776W        W 7827   9.162   3.348   0.916
 3777W        W 7828   4.221   9.285   2.165
 3778W        W 7829   4.786  10.882  10.758
 3779W        W 7830   0.842   4.620   1.458
 3780W        W 7831   4.286   2.294  11.517
 3781W        W 7832  10.013   6.397   8.540
 3782W        W 7833   1.024   7.508  11.397
 3783W        W 7834  10.122   9.735   2.191
 3784W        W 7835   6.771   6.439   1.292
 3785W        W 7836   6.144   6.528  11.189
 3786W        W 7837   2.430   9.374   1.181
 3787W        W 7838   5.528   9.383  10.786
 3788W        W 7839   1.835   0.809   9.534
 3789W        W 7840   5.711   8.852  10.835
 3790W        W 7841   6.191   0.952   9.125
 3791W        W 7842   6.988   9.571  10.846
 3792W        W 7843   5.648   1.822  10.567
 3793W        W 7844   1.821   3.577   9.937
 3794W        W 7845   4.724   1.140   1.683
 3795W        W 7846   7.443  10.214   8.535
 3796W        W 7847   4.716   7.075   1.049
 3797W        W 7848   6.532   2.877   9.908
 3798W        W 7849   9.948   6.665  11.336
 3799W        W 7850  10.815   4.661   2.309
 3800W        W 7851   5.476   4.609   1.414
 3801W        W 7852   0.145   6.040   8.974
 3802W        W 7853   7.534  10.800   9.290
 3803W        W 7854   7.996   9.499   2.333
 3804W        W 7855   2.304  10.959   3.315
 3805W        W 7856   3.658   4.155   0.239
 3806W        W 7857   0.368   8.843  10.643
 3807W        W 7858   8.600   2.712   0.032
 3808W        W 7859   9.796   6.609   1.356
 3809W        W 7860   5.144   0.176   9.510
 3810W        W 7861  11.477   8.178   1.406
 3811W        W 7862   9.997   7.091   1.389
 3812W        W 7863   7.731   5.888  10.639
 3813W        W 7864   6.278   3.564   8.218
 3814W        W 7865   5.111   6.740   2.989
 3815W        W 7866   0.651   1.310   1.507
 3816W        W 7867   4.198  10.463   2.901
 3817W        W 7868  10.936   7.723   0.106
 3818W        W 7869   1.857   1.484  11.888
 3819W        W 7870   7.229   1.243  10.468
 3820W        W 7871  10.036   8.426   3.247
 3821W        W 7872   7.944  11.438   9.501
 3822W        W 7873  10.322   8.475  11.104
 3823W        W 7874   2.401   8.935   0.417
 3824W        W 7875   1.245   4.602   3.544
 3825W        W 7876   5.468   0.835  10.377
 3826W        W 7877   1.957  10.276   0.564
 3827W        W 7878   9.253   7.154   0.809
 3828W        W 7879   2.388   1.949   1.320
 3829W        W 7880   2.715  10.584   1.529
 3830W        W 7881   2.298   7.653   9.050
 3831W        W 7882   4.834   9.025   0.385
 3832W        W 7883   1.672   3.135  10.639
 3833W        W 7884   6.026   9.265  10.895
 3834W        W 7885   8.406   2.946   1.780
 3835W        W 7886   3.445   3.393   2.242
 3836W        W 7887   0.890   0.493  11.913
 3837W        W 7888  10.766   4.529   3.205
 3838W        W 7889   1.758   7.893   1.833
 3839W        W 7890   4.625   9.819   1.775
 3840W        W 7891  11.138   5.103   0.040
 3841W        W 7892   1.636   1.767   9.094
 3842W        W 7893   5.022   2.495   9.833
 3843W        W 7894  10.408   1.013   8.786
 3844W        W 7895   2.725   1.417   2.311
 3845W        W 7896   4.747   3.272  11.751
 3846W        W 7897   5.107   8.171  10.669
 3847W        W 7898   7.733   4.296   0.249
 3848W        W 7899   8.981   8.376   0.365
 3849W        W 7900   9.585   0.290   9.861
 3850W        W 7901   4.245   7.312   1.721
 3851W        W 7902   8.746   8.542   9.034
 3852W        W 7903   3.842   7.068  10.629
 3853W        W 7904   5.120   6.032   0.493
 3854W        W 7905   6.761   8.045   9.944
 3855W        W 7906   9.707   7.656   1.818
 3856W        W 7907   6.546   1.882   3.261
 3857W        W 7908  11.057   9.406   2.593
 3858W        W 7909   2.381   1.466  10.409
 3859W        W 7910   0.895   1.392   0.568
 3860W        W 7911   4.188  11.499   3.126
 3861W        W 7912   0.130   8.919   3.554
 3862W        W 7913   0.466   6.477   2.621
 3863W        W 7914   5.659   1.358  10.351
 3864W        W 7915   3.175   3.728   3.300
 3865W        W 7916   7.126   3.574   9.587
 3866W        W 7917   8.663   1.813   2.306
 3867W        W 7918   1.809   2.572   2.713
 3868W        W 7919   3.249   0.980   1.707
 3869W        W 7920   2.573   2.721   2.915
 3870W        W 7921  10.355   6.986   1.764
 3871W        W 7922  10.024   4.343   2.162
 3872W        W 7923   0.952   5.958   2.172
 3873W        W 7924   0.836   1.050   9.522
 3874W        W 7925   5.626   5.103   1.269
 3875W        W 7926   6.826   2.459   1.330
 3876W        W 7927   7.050   6.686  10.542
 3877W        W 7928   0.080   7.200   2.144
 3878W        W 7929   2.653   9.658   0.787
 3879W        W 7930   4.216   5.210   0.049
 3880W        W 7931  11.056   2.833  11.274
 3881W        W 7932   1.200   5.662  11.602
 3882W        W 7933   5.122   7.729  11.054
 3883W        W 7934   4.413   2.095   1.656
 3884W        W 7935   5.717   8.569   2.809
 3885W        W 7936   9.423   5.655  10.836
 3886W        W 7937   4.094   7.090   9.752
 3887W        W 7938  11.324   3.322   8.663
 3888W        W 7939   8.680   2.818  10.541
 3889W        W 7940   8.512   8.606   8.562
 3890W        W 7941   4.918   2.493   0.208
 3891W        W 7942   3.943   7.978   9.427
 3892W        W 7943   3.232   2.886   2.211
 3893W        W 7944  10.806  10.171  10.539
 3894W        W 7945   2.886  10.024   9.177
 3895W        W 7946   1.204   6.612   3.212
 3896W        W 7947   7.726   0.237   3.343
 3897W        W 7948   3.381   6.641  11.221
 3898W        W 7949  10.911   1.795   3.209
 3899W        W 7950   4.070   1.288   2.348
 3900W        W 7951   6.635   2.192   8.461
 3901W        W 7952   3.788   7.242   1.488
 3902W        W 7953   1.129   6.977   1.368
 3903W        W 7954   3.717  11.465  10.513
 3904W        W 7955   2.202   4.625  10.286
 3905W        W 7956   3.850   1.365   1.422
 3906W        W 7957   7.875   8.579   0.914
 3907W        W 7958   5.428   1.158   1.156
 3908W        W 7959   0.036   3.645   1.550
 3909W        W 7960   0.483   5.382   9.359
 3910W        W 7961   5.229  10.960  11.062
 3911W        W 7962   7.024   9.479  11.732
 3912W        W 7963   1.828   0.312   2.200
 3913W        W 7964  11.285   2.551   9.312
 3914W        W 7965   0.807   1.771   0.979
 3915W        W 7966   7.099   2.133  11.874
 3916W        W 7967   5.313   5.152   0.477
 3917W        W 7968   1.823   3.873  10.978
 3918W        W 7969   0.262   1.286   9.504
 3919W        W 7970   5.872   9.637   1.180
 3920W        W 7971   5.046   3.040   2.701
 3921W        W 7972   1.229   2.304  11.186
 3922W        W 7973   7.971   4.657   0.670
 3923W        W 7974   9.643   2.372  11.916
 3924W        W 7975  11.387   6.586   3.494
 3925W        W 7976   2.773   0.747   9.504
 3926W        W 7977  10.887   3.571   8.838
 3927W        W 7978   8.581   3.857   3.178
 3928W        W 7979   5.268   2.753   0.483
 3929W        W 7980   2.176   1.306  11.535
 3930W        W 7981   2.468   8.331   2.557
 3931W        W 7982   0.303   0.771  11.528
 3932W        W 7983  11.073   1.607  10.783
 3933W        W 7984   1.481   1.850  10.465
 3934W        W 7985   2.890   6.917   9.057
 3935W        W 7986   3.040   8.306   2.447
 3936W        W 7987  10.608   7.873   3.475
 3937W        W 7988   3.493  10.582   1.768
 3938W        W 7989   2.405   9.870   1.213
 3939W        W 7990   0.771   1.154  10.806
 3940W        W 7991  11.218  10.594  11.935
 3941W        W 7992  11.240   7.864  11.483
 3942W        W 7993   5.311   9.975   2.669
 3943W        W 7994   6.121   4.769   0.742
 3944W        W 7995  11.463   4.900   1.323
 3945W        W 7996   6.554   0.849   8.758
 3946W        W 7997   3.569   6.138   0.495
 3947W        W 7998   8.479   4.004   9.977
 3948W        W 7999   2.855   9.104   1.209
 3949W        W 8000   9.931   2.844   8.375
 3950W        W 8001   8.408   4.300  11.807
 3951W        W 8002   8.905   2.620   2.153
 3952W        W 8003   7.592   0.735  11.129
 3953W        W 8004   8.230   6.448  10.089
 3954W        W 8005   9.151   1.283   9.010
 3955W        W 8006   8.310   6.979  10.780
 3956W        W 8007   9.005   6.905   8.138
 3957W        W 8008   2.896   0.488   3.586
 3958W        W 8009   9.523   6.246   9.081
 3959W        W 8010  10.310   9.434   1.393
 3960W        W 8011   8.968   8.092   9.003
 3961W        W 8012   4.995   4.703   1.217
 3962W        W 8013   2.826   5.920  10.189
 3963W        W 8014   6.268   4.294   0.479
 3964W        W 8015   5.605   3.883   9.083
 3965W        W 8016   3.656   2.524   2.072
 3966W        W 8017   2.557   9.541   3.144
 3967W        W 8018   0.524   9.840  11.056
 3968W        W 8019   7.863   2.425  10.495
 3969W        W 8020   4.197   9.977   8.871
 3970W        W 8021   2.681   0.575  10.329
 3971W        W 8022   3.462  10.141  11.485
 3972W        W 8023   9.457   1.635   0.339
 3973W        W 8024   7.735   1.245  10.009
 3974W        W 8025   3.618  10.294  10.973
 3975W        W 8026   7.725  11.083  10.658
 3976W        W 8027   4.186   3.470   0.401
 3977W        W 8028   7.524  10.372   9.570
 3978W        W 8029   1.609  10.499  11.688
 3979W        W 8030   7.633   6.113   3.782
 3980W        W 8031   9.888   2.787   2.270
 3981W        W 8032   6.669   9.934   1.314
 3982W        W 8033   6.672   3.362   9.796
 3983W        W 8034  11.287   9.007   9.590
 3984W        W 8035   2.794  10.048   1.526
 3985W        W 8036   7.205   8.510   2.365
 3986W        W 8037   9.184   5.480  10.079
 3987W        W 8038  10.700   2.343   1.270
 3988W        W 8039   5.629   4.873  11.935
 3989W        W 8040   6.136   2.289   3.178
 3990W        W 8041   0.621   5.867   9.946
 3991W        W 8042   4.648   6.852   0.198
 3992W        W 8043   2.217   3.914   1.841
 3993W        W 8044   4.511  10.789   8.828
 3994W        W 8045   0.971   6.633  10.385
 3995W        W 8046   9.255   9.016  10.337
 3996W        W 8047   0.430   0.054   0.579
 3997W        W 8048   8.581   7.959   2.250
 3998W        W 8049   1.453   9.351  10.066
 3999W        W 8050   4.331  10.398   0.542
 4000W        W 8051   4.558   0.871   1.247
 4001W        W 8052   0.306   0.716   8.695
 4002W        W 8053   7.621   9.023   1.093
 4003W        W 8054   5.499   0.358   3.045
 4004W        W 8055   0.057   5.267   2.322
 4005W        W 8056   0.818   6.266  10.896
 4006W        W 8057   9.687   9.608   0.232
 4007W        W 8058   5.245  11.410  11.287
 4008W        W 8059   0.824   4.623   1.957
 4009W        W 8060   7.651   7.564  10.412
 4010W        W 8061   8.304   0.239   3.568
 4011W        W 8062   4.448   7.147   9.346
 4012W        W 8063   4.179  10.086   1.864
 4013W        W 8064   3.105   3.606  10.074
 4014W        W 8065   9.492   0.803   3.460
 4015W        W 8066   3.358  10.988  11.681
 4016W        W 8067   1.040   5.126   0.302
 4017W        W 8068   7.848   2.409  11.490
 4018W        W 8069  10.860   4.993   0.472
 4019W        W 8070   5.011   0.467   2.145
 4020W        W 8071   6.305  11.229   1.169
 4021W        W 8072   1.912  10.860   9.699
 4022W        W 8073   3.755   4.995   1.746
 4023W        W 8074   8.808  10.668   3.572
 4024W        W 8075   6.039  10.009   0.837
 4025W        W 8076   3.549  10.648  11.350
 4026W        W 8077   5.031   3.423  10.567
 4027W        W 8078  10.860   7.720   3.032
 4028W        W 8079   3.110   7.394   0.363
 4029W        W 8080   9.542   4.910   4.364
 4030W        W 8081   4.804   7.971  10.290
 4031W        W 8082   3.337   2.736   3.250
 4032W        W 8083   0.564   0.865   1.709
 4033W        W 8084   7.423   9.882   3.176
 4034W        W 8085   2.887   4.515  10.352
 4035W        W 8086   5.119   8.977   2.026
 4036W        W 8087   5.223   3.205   8.767
 4037W        W 8088  10.290   6.935   9.536
 4038W        W 8089   9.120   3.690   9.506
 4039W        W 8090   8.792   1.306   1.297
 4040W        W 8091   2.790   1.272   9.495
 4041W        W 8092   2.114   2.911   3.004
 4042W        W 8093   5.818  10.593  10.492
 4043W        W 8094   3.742   2.619   9.841
 4044W        W 8095  10.857   3.279   9.967
 4045W        W 8096  11.092   5.086   2.404
 4046W        W 8097   8.015   1.077   3.462
 4047W        W 8098  11.014   3.113  10.434
 4048W        W 8099  11.382   2.327   0.410
 4049W        W 8100   3.329   9.349  11.064
 4050W        W 8101   5.129   1.592   9.256
 4051W        W 8102   9.553   7.508  10.330
 4052W        W 8103   4.211   2.835  11.543
 4053W        W 8104   6.588   0.425   1.369
 4054W        W 8105   0.131   8.563   1.071
 4055W        W 8106   0.053   2.360  10.394
 4056W        W 8107   0.491   3.872   3.343
 4057W        W 8108   2.642   6.211   3.319
 4058W        W 8109   2.865   2.030   1.186
 4059W        W 8110   2.856   3.354   3.510
 4060W        W 8111   8.843   0.359   1.861
 4061W        W 8112   0.547   9.313   3.493
 4062W        W 8113   8.938   5.122   2.257
 4063W        W 8114   6.165   3.065   3.717
 4064W        W 8115  11.274   5.633   9.723
 4065W        W 8116   9.162   8.087  11.934
 4066W        W 8117   7.652  11.252  11.134
 4067W        W 8118   1.817   2.459  10.879
 4068W        W 8119   2.343   0.029   3.307
 4069W        W 8120   3.315   9.646  11.477
 4070W        W 8121   6.662   7.024   0.315
 4071W        W 8122   1.298   7.640   1.827
 4072W        W 8123   9.526   8.629   8.568
 4073W        W 8124  10.039   4.862   2.774
 4074W        W 8125  10.150  11.424   0.647
 4075W        W 8126   9.630   4.074   1.351
 4076W        W 8127   4.603   2.121   8.640
 4077W        W 8128   6.734   0.425   3.198
 4078W        W 8129   9.666   1.503   0.802
 4079W        W 8130   4.653  11.490   9.555
 4080W        W 8131   5.972   1.320   2.166
 4081W        W 8132   9.838   7.492  10.791
 4082W        W 8133   7.925   5.004  11.534
 4083W        W 8134   7.905   9.473   0.184
 4084W        W 8135   5.632   5.696   1.909
 4085W        W 8136   8.220   2.274   0.921
 4086W        W 8137   2.933   9.733   3.437
 4087W        W 8138   6.757   8.953   0.840
 4088W        W 8139   6.383   9.988   3.117
 4089W        W 8140   5.441   5.892   1.477
 4090W        W 8141   8.485   8.239   0.196
 4091W        W 8142   6.401   2.296   1.851
 4092W        W 8143   0.759   3.297   0.396
 4093W        W 8144   9.565   8.938   8.980
 4094W        W 8145   8.298   3.014   9.936
 4095W        W 8146  11.049   2.915   9.626
 4096W        W 8147   4.656   2.981  11.349
 4097W        W 8148   6.591  11.337  11.844
 4098W        W 8149  10.213   2.286   8.618
 4099W        W 8150  10.437   0.377  11.676
 4100W        W 8151   0.757   4.332  10.006
 4101W        W 8152  11.295   4.843   0.806
 4102W        W 8153   8.445   2.041   2.761
 4103W        W 8154   5.542   9.731   3.282
 4104W        W 8155  10.517  10.885   1.372
 4105W        W 8156   9.001   8.681  10.731
 4106W        W 8157  11.327   8.735  11.364
 4107W        W 8158   7.076  10.094   9.596
 4108W        W 8159   0.147   0.750   3.387
 4109W        W 8160   4.920   1.866   8.299
 4110W        W 8161   7.843   1.141   2.206
 4111W        W 8162   8.041  11.303  11.914
 4112W        W 8163   6.456   6.443   9.053
 4113W        W 8164  10.637   9.518   3.249
 4114W        W 8165  11.028   4.690   2.789
 4115W        W 8166  11.496   9.809   2.242
 4116W        W 8167   8.995   2.179   9.567
 4117W        W 8168   4.586  10.990   0.400
 4118W        W 8169   7.124   2.316   2.492
 4119W        W 8170   5.746   1.251  11.346
 4120W        W 8171  10.415   0.719   3.637
 4121W        W 8172   0.014   6.167   3.151
 4122W        W 8173   5.234   5.501   1.269
 4123W        W 8174   2.664   6.974   1.835
 4124W        W 8175   5.091   7.600  10.057
 4125W        W 8176  10.878   5.437   8.606
 4126W        W 8177   0.796   5.600  10.439
 4127W        W 8178   5.603   9.568   2.798
 4128W        W 8179   3.091   8.468  10.929
 4129W        W 8180   5.553  10.188   0.897
 4130W        W 8181   1.387   1.904   1.197
 4131W        W 8182   4.127   7.595   1.323
 4132W        W 8183   3.823   0.007   1.279
 4133W        W 8184   6.118   0.865   2.998
 4134W        W 8185  11.158  10.535   1.615
 4135W        W 8186   0.901   0.571   3.664
 4136W        W 8187   9.978   3.316   0.330
 4137W        W 8188   4.277   9.092  11.245
 4138W        W 8189  11.126   3.930   0.116
 4139W        W 8190   3.812   3.115   0.298
 4140W        W 8191   0.127   3.102   1.798
 4141W        W 8192   6.498   7.357   2.392
 4142W        W 8193   4.802   6.948   3.337
 4143W        W 8194   4.508  10.317  10.334
 4144W        W 8195   9.600   2.466  10.176
 4145W        W 8196   0.718   8.756   3.306
 4146W        W 8197   9.454   6.234   1.478
 4147W        W 8198   6.965   1.793   9.268
 4148W        W 8199  11.232   3.066  11.688
 4149W        W 8200   8.105   8.128   0.844
 4150W        W 8201   6.660   1.596   2.848
 4151W        W 8202   9.054   2.229   9.057
 4152W        W 8203   8.762   4.615  11.328
 4153W        W 8204   2.318   1.815  10.046
 4154W        W 8205   1.913   5.343   9.919
 4155W        W 8206   1.076   2.332   0.239
 4156W        W 8207  11.208   6.908   9.848
 4157W        W 8208   2.116  10.927  11.306
 4158W        W 8209   7.925   4.044   1.678
 4159W        W 8210   0.935   8.421   2.796
 4160W        W 8211   8.601   1.890  11.494
 4161W        W 8212   6.943   4.677  10.246
 4162W        W 8213   7.007   1.292   9.425
 4163W        W 8214  11.250   1.333   1.900
 4164W        W 8215   4.347   5.599   1.875
 4165W        W 8216   9.125   8.518   1.790
 4166W        W 8217   5.111   9.519   2.897
 4167W        W 8218   6.027   2.881   3.229
 4168W        W 8219   2.193   7.467   0.499
 4169W        W 8220   8.313   2.670   2.701
 4170W        W 8221   8.833  11.301   2.621
 4171W        W 8222   2.556   9.013   8.545
 4172W        W 8223   4.921   2.929  10.523
 4173W        W 8224   8.852   9.505   9.766
 4174W        W 8225   5.218   7.501   9.589
 4175W        W 8226   9.231   6.083  11.771
 4176W        W 8227   8.018   8.722   9.977
 4177W        W 8228   5.489   8.054   0.234
 4178W        W 8229   9.550   1.522   9.803
 4179W        W 8230   6.121   3.814   0.992
 4180W        W 8231   1.127   7.439   3.151
 4181W        W 8232   3.665   8.990   3.212
 4182W        W 8233   4.870   1.001   0.391
 4183W        W 8234   2.465   8.004   9.386
 4184W        W 8235   2.170   8.442   1.141
 4185W        W 8236   2.043   4.271   9.363
 4186W        W 8237   4.675   5.286   0.256
 4187W        W 8238   1.419   8.636   2.826
 4188W        W 8239   4.402   9.454   2.635
 4189W        W 8240  11.298   7.789  10.979
 4190W        W 8241   6.097   5.903   1.829
 4191W        W 8242   0.358   8.047  11.767
 4192W        W 8243  10.885   8.128  11.722
 4193W        W 8244  10.836   1.486  10.114
 4194W        W 8245   8.399   9.407   9.544
 4195W        W 8246  11.419   4.376   0.633
 4196W        W 8247   5.918   4.605   9.267
 4197W        W 8248  10.466   5.089   1.787
 4198W        W 8249   5.200   3.964   0.917
 4199W        W 8250   4.689   6.965  10.870
 4200W        W 8251   1.189  10.638   3.562
 4201W        W 8252   5.408  10.331  10.284
 4202W        W 8253   7.671   2.717   9.529
 4203W        W 8254   6.647   0.924   0.469
 4204W        W 8255   8.152   8.688   1.983
 4205W        W 8256   0.770   1.077  11.323
 4206W        W 8257   1.561   0.854   0.565
 4207W        W 8258   8.558   5.578  11.412
 4208W        W 8259   4.539   7.527  10.561
 4209W        W 8260   1.484   3.033   9.043
 4210W        W 8261   2.548   8.619  11.004
 4211W        W 8262   6.345   2.328   0.365
 4212W        W 8263   9.280   4.191   9.379
 4213W        W 8264  11.225   5.363   1.454
 4214W        W 8265   4.356   6.673   9.978
 4215W        W 8266   9.644   1.015   1.717
 4216W        W 8267   9.129   8.066   0.796
 4217W        W 8268  10.438  10.306  11.041
 4218W        W 8269   9.825   9.559  11.650
 4219W        W 8270  10.399   8.460   9.078
 4220W        W 8271   3.027  10.949   1.327
 4221W        W 8272   0.725   3.832   9.941
 4222W        W 8273  10.200   7.667   1.117
 4223W        W 8274   9.109   1.740   8.765
 4224W        W 8275   9.509   8.433   2.152
 4225W        W 8276   7.411   7.571  10.866
 4226W        W 8277   0.859   9.550   2.143
 4227W        W 8278   1.965   9.590   1.211
 4228W        W 8279   4.170   6.259   9.737
 4229W        W 8280   0.522   2.624   1.504
 4230W        W 8281   5.920   5.735   2.313
 4231W        W 8282   5.067   0.478   8.945
 4232W        W 8283   7.713  10.579   0.262
 4233W        W 8284   7.690   9.041   2.553
 4234W        W 8285   7.428   2.767   0.896
 4235W        W 8286   8.233   1.328  11.753
 4236W        W 8287   2.335   8.493   9.305
 4237W        W 8288   8.008  11.273   2.469
 4238W        W 8289   4.256   7.101   1.245
 4239W        W 8290   8.513   0.167   1.480
 4240W        W 8291   9.293   4.485  11.420
 4241W        W 8292  11.312   1.236  11.020
 4242W        W 8293   3.675   1.336   9.641
 4243W        W 8294   9.102   5.811   8.643
 4244W        W 8295  10.003  10.573  11.295
 4245W        W 8296   2.279   7.252  11.541
 4246W        W 8297   4.845   2.113   1.928
 4247W        W 8298   5.231   1.191  10.073
 4248W        W 8299  11.461  10.462   3.281
 4249W        W 8300   1.765   8.406   1.818
 4250W        W 8301   6.041   3.710   3.836
 4251W        W 8302   4.108   4.753   8.674
 4252W        W 8303   8.123   9.433   1.803
 4253W        W 8304   5.862   8.958   0.029
 4254W        W 8305  11.162   4.301  10.308
 4255W        W 8306   4.051   1.488   0.942
 4256W        W 8307  11.410   7.669   1.199
 4257W        W 8308   5.267   8.447  11.527
 4258W        W 8309   4.727   4.331  11.800
 4259W        W 8310   9.964   1.691   0.373
 4260W        W 8311   8.408  10.377   1.356
 4261W        W 8312  10.493  10.857   8.848
 4262W        W 8313   0.514   9.554   2.990
 4263W        W 8314   7.389   4.073   9.169
 4264W        W 8315   1.693   5.964   3.238
 4265W        W 8316   4.303   0.266   0.435
 4266W        W 8317   6.207   7.490  11.277
 4267W        W 8318   7.177   9.134  10.065
 4268W        W 8319   2.925   0.948   2.099
 4269W        W 8320   9.379   8.936   3.556
 4270W        W 8321   2.256   2.809   2.527
 4271W        W 8322  11.236   0.046   0.894
 4272W        W 8323   6.582   3.625   1.899
 4273W        W 8324   6.143   2.498   0.826
 4274W        W 8325   2.011  10.733   0.844
 4275W        W 8326   7.981   4.035  11.905
 4276W        W 8327   7.432  10.913   9.873
 4277W        W 8328  10.961   1.244   9.131
 4278W        W 8329  10.707   6.546   1.772
 4279W        W 8330  10.374   6.041   9.533
 4280W        W 8331   8.348   2.359  11.458
 4281W        W 8332   8.409   1.524   2.687
 4282W        W 8333   3.102   2.144   2.588
 4283W        W 8334   7.611   2.541   3.180
 4284W        W 8335   7.883  10.466   8.481
 4285W        W 8336   4.959   8.974   9.510
 4286W        W 8337   5.049   8.837  11.837
 4287W        W 8338   2.729   2.210   2.966
 4288W        W 8339   6.462   5.920  11.963
 4289W        W 8340   7.584   6.876   0.818
 4290W        W 8341   5.341   0.355  11.517
 4291W        W 8342   9.189   2.806   2.815
 4292W        W 8343   1.722  11.261   2.966
 4293W        W 8344   4.222   9.532  11.988
 4294W        W 8345   9.004   4.104  11.170
 4295W        W 8346   1.832   9.196   2.276
 4296W        W 8347   6.870   9.480   2.421
 4297W        W 8348   8.348   1.579   1.368
 4298W        W 8349   6.991   6.949  11.024
 4299W        W 8350   9.047   3.078   3.201
 4300W        W 8351   3.562   9.329   0.887
 4301W        W 8352   8.374   1.087   2.158
 4302W        W 8353   6.953   4.655   1.228
 4303W        W 8354   1.807   8.873   0.894
 4304W        W 8355   3.618   1.745   1.725
 4305W        W 8356   5.618   1.736  11.456
 4306W        W 8357   4.249   3.168   9.538
 4307W        W 8358   8.562   2.805   8.646
 4308W        W 8359  10.684   2.312  10.537
 4309W        W 8360   6.395  10.558   8.430
 4310W        W 8361   9.351  10.809   9.799
 4311W        W 8362   1.726  10.887   0.012
 4312W        W 8363   2.757   5.643  11.256
 4313W        W 8364   0.153   2.416   9.629
 4314W        W 8365   4.386   8.679  10.919
 4315W        W 8366   9.092   2.396   1.685
 4316W        W 8367   0.583   2.932   1.900
 4317W        W 8368   2.457   2.523   9.637
 4318W        W 8369   2.844   0.091   3.236
 4319W        W 8370   3.630   0.752   0.842
 4320W        W 8371   1.889  10.017  11.765
 4321W        W 8372   1.880  10.603   8.771
 4322W        W 8373   1.015   0.656   9.879
 4323W        W 8374   8.569   5.340   0.795
 4324W        W 8375   6.752   7.485   8.685
 4325W        W 8376  10.405   5.539  11.884
 4326W        W 8377   5.129   7.378   2.268
 4327W        W 8378   1.230   2.632   9.870
 4328W        W 8379  10.038   6.732   4.369
 4329W        W 8380  10.733   5.137   9.027
 4330W        W 8381   4.142   6.449   4.209
 4331W        W 8382   0.632  11.189   8.563
 4332W        W 8383   5.588   8.008  10.715
 4333W        W 8384   8.697   7.119   2.124
 4334W        W 8385  10.950   0.819  10.943
 4335W        W 8386   6.846   6.127   0.243
 4336W        W 8387  10.373  11.491  11.361
 4337W        W 8388   8.476   1.647  10.040
 4338W        W 8389   3.267   3.031   2.694
 4339W        W 8390   3.538   9.048   0.053
 4340W        W 8391   8.596   9.630  10.619
 4341W        W 8392   9.988  11.322  10.525
 4342W        W 8393  10.895   5.082   9.835
 4343W        W 8394   7.151  11.413   9.927
 4344W        W 8395  10.507   6.572   0.859
 4345W        W 8396   5.458  10.791   2.190
 4346W        W 8397   9.923   9.207   0.035
 4347W        W 8398  10.193   7.994  10.930
 4348W        W 8399   0.995  10.614   9.023
 4349W        W 8400  11.440   2.238   2.347
 4350W        W 8401   5.181   1.758   1.735
 4351W        W 8402   0.381   8.499  11.029
 4352W        W 8403   0.495   8.133   2.690
 4353W        W 8404   8.471   7.208   8.898
 4354W        W 8405   8.397   5.147   1.335
 4355W        W 8406   0.321   7.468   0.501
 4356W        W 8407  10.063   7.019   3.573
 4357W        W 8408   3.068   2.586   2.833
 4358W        W 8409   5.641   7.136   0.202
 4359W        W 8410   2.364  10.904   2.805
 4360W        W 8411  11.340   9.083   2.904
 4361W        W 8412   9.333   9.354   1.280
 4362W        W 8413  11.483   4.128  10.708
 4363W        W 8414   0.991   7.985   1.505
 4364W        W 8415   1.550   9.665   3.248
 4365W        W 8416   6.550   3.426  11.819
 4366W        W 8417   4.267   0.366   9.358
 4367W        W 8418   4.200   0.050   1.721
 4368W        W 8419   8.373   4.202  10.433
 4369W        W 8420   7.589   8.593   2.793
 4370W        W 8421  10.373   1.020  10.303
 4371W        W 8422   7.576   6.700   2.942
 4372W        W 8423   6.028   4.557  10.786
 4373W        W 8424  11.445   2.153   2.867
 4374W        W 8425   9.282   6.438   0.545
 4375W        W 8426   9.877   7.876  10.472
 4376W        W 8427  10.627   1.745  11.421
 4377W        W 8428   6.275   6.584  11.675
 4378W        W 8429   6.188   1.400  10.438
 4379W        W 8430   4.557  10.900  11.586
 4380W        W 8431   9.881   8.121   1.980
 4381W        W 8432   6.120   9.188   1.212
 4382W        W 8433   5.549   7.037  10.852
 4383W        W 8434   0.538   7.379  11.440
 4384W        W 8435   0.615   4.234   2.676
 4385W        W 8436   2.022   5.679   8.662
 4386W        W 8437   3.533   1.775   9.884
 4387W        W 8438   5.436   5.657  10.505
 4388W        W 8439   6.398   9.544   1.501
 4389W        W 8440   0.853   4.630   0.965
 4390W        W 8441  10.452   7.405   3.666
 4391W        W 8442   6.293   4.114   2.717
 4392W        W 8443   2.463   2.643  11.061
 4393W        W 8444   1.700   7.393   0.745
 4394W        W 8445   1.656   3.296   0.992
 4395W        W 8446  11.499  10.868   8.946
 4396W        W 8447   7.378  10.030   0.905
 4397W        W 8448   9.280   1.021   2.135
 4398W        W 8449   1.238   4.259   0.497
 4399W        W 8450   5.606   4.365  11.825
 4400W        W 8451   8.480   2.331   9.589
 4401W        W 8452   1.824   1.038   1.565
 4402W        W 8453   8.693   2.133   0.780
 4403W        W 8454   4.516   2.179  10.911
 4404W        W 8455   1.497  11.261   9.033
 4405W        W 8456   9.916   9.162   2.840
 4406W        W 8457   8.453   4.849   0.907
 4407W        W 8458   0.446   0.284  11.753
 4408W        W 8459   5.166   7.755   1.341
 4409W        W 8460  10.531   1.702   2.779
 4410W        W 8461   7.896   6.479   0.757
 4411W        W 8462   5.976   5.237  10.072
 4412W        W 8463   4.642   5.303  11.734
 4413W        W 8464   8.697   2.109   9.994
 4414W        W 8465   1.708  11.304   9.883
 4415W        W 8466  11.441  10.296   9.628
 4416W        W 8467   2.859  11.145  10.313
 4417W        W 8468   4.520   0.383   1.998
 4418W        W 8469   5.741   9.415  10.317
 4419W        W 8470   5.632   0.272   1.369
 4420W        W 8471   7.846   0.997   0.939
 4421W        W 8472   7.770   9.914   8.787
 4422W        W 8473   1.819  10.968   1.610
 4423W        W 8474   1.260   7.990   9.902
 4424W        W 8475   4.543   9.284   3.571
 4425W        W 8476   6.037   6.691   0.862
 4426W        W 8477   8.185   7.064   2.103
 4427W        W 8478   0.335   4.834   2.147
 4428W        W 8479   4.620   9.805  10.249
 4429W        W 8480   0.415   0.240  10.111
 4430W        W 8481  11.255   0.841  11.366
 4431W        W 8482   7.651   9.867   2.386
 4432W        W 8483   5.179  10.007   8.426
 4433W        W 8484   4.052   9.253   8.998
 4434W        W 8485   5.056   2.979   0.065
 4435W        W 8486   3.468   5.986   3.013
 4436W        W 8487  10.366  10.079   0.755
 4437W        W 8488   3.125   5.271  11.361
 4438W        W 8489   0.435  10.862   9.848
 4439W        W 8490   2.311   5.533  11.068
 4440W        W 8491   6.651   0.545  10.691
 4441W        W 8492   1.180   0.508   0.426
 4442W        W 8493   3.324   7.962   1.803
 4443W        W 8494   0.976   2.899   2.205
 4444W        W 8495   2.708   5.563   9.790
 4445W        W 8496   3.484   0.556   1.846
 4446W        W 8497  10.418   1.707   3.452
 4447W        W 8498   7.630   0.408   0.944
 4448W        W 8499  10.748   3.008  10.908
 4449W        W 8500   8.300   1.451   8.965
 4450W        W 8501   7.940   8.698   9.467
 4451W        W 8502   3.368   9.998   9.358
 4452W        W 8503  10.886  10.916  10.587
 4453W        W 8504   0.225   1.948   1.876
 4454W        W 8505   0.503   9.342  10.864
 4455W        W 8506  10.643   2.579   8.734
 4456W        W 8507   7.005  10.424   2.879
 4457W        W 8508   4.572   4.809   0.982
 4458W        W 8509   8.512   3.958  10.857
 4459W        W 8510   8.336   2.144   0.401
 4460W        W 8511   0.832   7.312   2.665
 4461W        W 8512   8.180   3.766   8.650
 4462W        W 8513   3.509   7.617   0.595
 4463W        W 8514   1.624   1.051   9.129
 4464W        W 8515   6.127  10.252   8.744
 4465W        W 8516  11.286   3.778   2.386
 4466W        W 8517  10.416   0.005  10.224
 4467W        W 8518   8.494   8.103   1.158
 4468W        W 8519   0.049   9.508  11.786
 4469W        W 8520   5.289  10.346   1.334
 4470W        W 8521   5.591  10.438  11.716
 4471W        W 8522   2.872   9.571   0.336
 4472W        W 8523   8.146   2.762   0.316
 4473W        W 8524   1.414   4.662   2.897
 4474W        W 8525   2.850   6.400   9.940
 4475W        W 8526  10.834  10.923  11.887
 4476W        W 8527   8.347   9.497   8.509
 4477W        W 8528   9.455   5.346  11.259
 4478W        W 8529   8.960   5.221   3.304
 4479W        W 8530   3.413   2.216   1.708
 4480W        W 8531  10.523  10.811   2.740
 4481W        W 8532  10.426  11.277   9.748
 4482W        W 8533   1.275   4.775  10.319
 4483W        W 8534   2.667   0.047  11.286
 4484W        W 8535   8.131   2.741  11.785
 4485W        W 8536   1.354   6.997  11.073
 4486W        W 8537   1.484   6.294  11.687
 4487W        W 8538   2.182   5.787  11.884
 4488W        W 8539  11.349   9.012  11.783
 4489W        W 8540  10.052   2.962   2.839
 4490W        W 8541   4.513   2.960   3.078
 4491W        W 8542   9.978   3.214   9.267
 4492W        W 8543  10.893   3.140   1.482
 4493W        W 8544   9.195   3.636  11.266
 4494W        W 8545   3.499   2.282  11.082
 4495W        W 8546   7.995   0.278   9.927
 4496W        W 8547   2.108   0.867   9.106
 4497W        W 8548   1.919   3.132   9.655
 4498W        W 8549  10.252  11.258   1.150
 4499W        W 8550   6.624  11.368   2.003
 4500W        W 8551   4.060   2.957   9.097
 4501W        W 8552   3.966   0.976  10.835
 4502W        W 8553   1.697   2.228  11.370
 4503W        W 8554   3.188   0.719  11.819
 4504W        W 8555   3.349   6.553   9.839
 4505W        W 8556   8.724   9.046  10.270
 4506W        W 8557   5.677   4.041   8.200
 4507W        W 8558   5.866  10.976   0.459
 4508W        W 8559   0.132   0.343   2.474
 4509W        W 8560   5.597   9.713   0.686
 4510W        W 8561   1.210   3.742   3.391
 4511W        W 8562   9.035  10.579   0.239
 4512W        W 8563   2.876   1.354   8.985
 4513W        W 8564   9.528   0.985  10.342
 4514W        W 8565   6.996   1.835   1.138
 4515W        W 8566   1.200   0.210   9.122
 4516W        W 8567   8.953   7.169   1.660
 4517W        W 8568  11.218   9.378  10.380
 4518W        W 8569   9.141   9.629   3.219
 4519W        W 8570   3.898   6.969   2.429
 4520W        W 8571   3.752   7.104  10.122
 4521W        W 8572   4.620   6.406   3.975
 4522W        W 8573   4.709   7.530   9.551
 4523W        W 8574   7.038   8.738  11.581
 4524W        W 8575   1.306  10.482  10.875
 4525W        W 8576   5.687   8.486   8.620
 4526W        W 8577   9.388   1.102   0.255
 4527W        W 8578   2.005   6.985   0.822
 4528W        W 8579   1.142   7.117   9.545
 4529W        W 8580   5.824   5.292  10.567
 4530W        W 8581   6.882   8.517   1.051
 4531W        W 8582   4.037   7.532  10.519
 4532W        W 8583   6.010   2.791   1.347
 4533W        W 8584  11.458   5.145  11.596
 4534W        W 8585   6.662   9.564   1.956
 4535W        W 8586   6.867   8.145  11.769
 4536W        W 8587   4.270   6.977   2.089
 4537W        W 8588   6.075   7.393   1.757
 4538W        W 8589   6.214   0.478  10.335
 4539W        W 8590   9.639   7.998   0.795
 4540W        W 8591   9.912   3.822  10.807
 4541W        W 8592  11.193   1.314   0.076
 4542W        W 8593   6.002   2.642   9.070
 4543W        W 8594  11.376   2.483  11.552
 4544W        W 8595   3.113   6.628   2.023
 4545W        W 8596   6.269   9.065   9.095
 4546W        W 8597   6.827   0.255   0.007
 4547W        W 8598   2.290   0.949  10.397
 4548W        W 8599   7.126   0.291  10.490
 4549W        W 8600   8.082   8.428  10.439
 4550W        W 8601   7.953   3.320  10.151
 4551W        W 8602   9.659  10.493   3.353
 4552W        W 8603   2.613   8.117   8.906
 4553W        W 8604   7.902   3.198   9.646
 4554W        W 8605   9.866   6.121   1.169
 4555W        W 8606   2.475   6.541   9.629
 4556W        W 8607   4.597   9.516  11.217
 4557W        W 8608   5.970   4.384   8.471
 4558W        W 8609   7.746   7.942   9.639
 4559W        W 8610   1.213  11.456   0.953
 4560W        W 8611   6.599  10.824   9.807
 4561W        W 8612   4.603   6.311   8.822
 4562W        W 8613   8.553   9.460   2.882
 4563W        W 8614   5.038  11.048  11.567
 4564W        W 8615   4.594  11.228   0.851
 4565W        W 8616   0.045   9.961   3.144
 4566W        W 8617   4.528   3.367   2.760
 4567W        W 8618   3.366   7.161   0.753
 4568W        W 8619   2.993   9.782   2.922
 4569W        W 8620  10.736  10.319   1.853
 4570W        W 8621   7.514   7.210   2.935
 4571W        W 8622  10.468   6.504   9.338
 4572W        W 8623  11.465   6.807  10.984
 4573W        W 8624   1.282   8.770  10.565
 4574W        W 8625   3.410   9.297   8.783
 4575W        W 8626   8.805   3.049  10.061
 4576W        W 8627   9.629   5.779   9.906
 4577W        W 8628   9.467   6.082   3.431
 4578W        W 8629   2.684   2.299  11.374
 4579W        W 8630   1.473   2.664  11.493
 4580W        W 8631   9.891   8.354  10.353
 4581W        W 8632   9.725   4.767   9.732
 4582W        W 8633   8.119   2.266  11.945
 4583W        W 8634   9.824   4.121  10.057
 4584W        W 8635   2.374  10.163  11.881
 4585W        W 8636   1.308   5.551  10.515
 4586W        W 8637   7.473   1.189  10.933
 4587W        W 8638  10.053   2.683   3.302
 4588W        W 8639   2.144   6.761  11.784
 4589W        W 8640   1.718   3.940   3.311
 4590W        W 8641   5.969   9.122   2.100
 4591W        W 8642  10.479   2.698   2.983
 4592W        W 8643  10.867   8.663   0.382
 4593W        W 8644   6.454  10.437   3.520
 4594W        W 8645   9.383   0.840   1.302
 4595W        W 8646   9.303   3.948   3.532
 4596W        W 8647   4.547  10.817  10.181
 4597W        W 8648   6.396  10.751   0.879
 4598W        W 8649   9.587  11.170   8.465
 4599W        W 8650  10.879   4.021   3.274
 4600W        W 8651   0.757   8.611   8.910
 4601W        W 8652   0.400   5.662   2.357
 4602W        W 8653   4.644   3.194  10.868
 4603W        W 8654  10.288  10.083  10.570
 4604W        W 8655  11.372   4.417   1.146
 4605W        W 8656   7.977   9.923   1.896
 4606W        W 8657   9.921   4.383   2.895
 4607W        W 8658   2.214   4.853   1.685
 4608W        W 8659   6.519   0.704   9.984
 4609W        W 8660   8.620   6.649   9.276
 4610W        W 8661   5.890   3.382  10.286
 4611W        W 8662   7.176   6.159   1.183
 4612W        W 8663   4.261   6.693   9.472
 4613W        W 8664   8.616   2.070   3.579
 4614W        W 8665   7.452   4.267  11.500
 4615W        W 8666   4.238   0.552  10.892
 4616W        W 8667   9.276   3.369   0.004
 4617W        W 8668   0.319   2.692  10.076
 4618W        W 8669   3.813   2.202   9.552
 4619W        W 8670   7.426  11.274   9.480
 4620W        W 8671   0.157   2.256  11.946
 4621W        W 8672   7.978  11.298   1.966
 4622W        W 8673   1.453   8.428   9.704
 4623W        W 8674   2.329   7.661   9.727
 4624W        W 8675   4.959   2.833   2.240
 4625W        W 8676   5.564   7.133   1.175
 4626W        W 8677   5.648   4.227   2.710
 4627W        W 8678   8.844   9.485   1.172
 4628W        W 8679   8.296   0.207   2.503
 4629W        W 8680   2.795   4.737  10.882
 4630W        W 8681   5.213   9.273  11.556
 4631W        W 8682   6.015   0.376   2.765
 4632W        W 8683   4.182   7.542   9.535
 4633W        W 8684   2.354   3.482   9.483
 4634W        W 8685  11.286  11.247   1.319
 4635W        W 8686   8.386  10.867   3.328
 4636W        W 8687   1.224   2.646   8.879
 4637W        W 8688   2.662   8.633   2.210
 4638W        W 8689  10.107   9.785   0.441
 4639W        W 8690   1.862   2.031  11.929
 4640W        W 8691   5.789   1.219   8.967
 4641W        W 8692   1.836   3.692  10.503
 4642W        W 8693   4.572   3.158   9.957
 4643W        W 8694   5.688   3.642  10.996
 4644W        W 8695   6.447   8.277  10.857
 4645W        W 8696   9.439  10.840   3.065
 4646W        W 8697   1.186   3.140   8.657
 4647W        W 8698   7.721   8.584   2.279
 4648W        W 8699  10.970   8.657   9.356
 4649W        W 8700   3.122   0.812   0.746
 4650W        W 8701   4.709   9.076  10.954
 4651W        W 8702   3.154   0.870   9.098
 4652W        W 8703   6.343   8.863  11.939
 4653W        W 8704   5.151  10.545   3.343
 4654W        W 8705  11.325   2.607   9.999
 4655W        W 8706   8.089   0.979   9.079
 4656W        W 8707   6.749   7.697  11.551
 4657W        W 8708   2.163   9.815   0.745
 4658W        W 8709   0.364  10.950   2.614
 4659W        W 8710  11.083   2.608  10.489
 4660W        W 8711   7.544   5.987   0.837
 4661W        W 8712   3.175   4.364   1.214
 4662W        W 8713   2.341   4.141  11.600
 4663W        W 8714  10.003  10.226   2.349
 4664W        W 8715   7.043  10.359   2.377
 4665W        W 8716   8.305   8.572   3.418
 4666W        W 8717   1.310   9.285   8.961
 4667W        W 8718  10.920   0.869  11.866
 4668W        W 8719   6.460   0.118   2.878
 4669W        W 8720  10.382   8.975   0.089
 4670W        W 8721   2.694   1.161   0.334
 4671W        W 8722   7.818   7.726   0.887
 4672W        W 8723   7.516   4.622  10.046
 4673W        W 8724   5.685   3.585   0.264
 4674W        W 8725  10.493   3.620   1.314
 4675W        W 8726   8.277   2.465   1.962
 4676W        W 8727   0.005   9.039   9.139
 4677W        W 8728   3.239   3.363   9.462
 4678W        W 8729   1.673  10.687   0.457
 4679W        W 8730   2.283   4.374   1.459
 4680W        W 8731   0.551   7.061   0.237
 4681W        W 8732  11.042   7.109   8.977
 4682W        W 8733  10.126   9.097   0.947
 4683W        W 8734   1.507   3.259   3.570
 4684W        W 8735   4.813   0.473  11.520
 4685W        W 8736   0.832  10.910   0.223
 4686W        W 8737   9.514   2.390   1.014
 4687W        W 8738   2.861  10.945   8.490
 4688W        W 8739   4.989   9.515   3.380
 4689W        W 8740   8.070   8.486   0.408
 4690W        W 8741   0.565   2.314   0.271
 4691W        W 8742   0.815   7.405   3.568
 4692W        W 8743   8.065   2.046   8.557
 4693W        W 8744   8.570   8.468   2.511
 4694W        W 8745   6.164   6.208  10.274
 4695W        W 8746   0.316   5.261  10.274
 4696W        W 8747   9.834   9.445  11.130
 4697W        W 8748  10.250   0.769   2.707
 4698W        W 8749   2.889   5.052   2.182
 4699W        W 8750   4.978  11.061  10.322
 4700W        W 8751   4.039  10.577  10.252
 4701W        W 8752   9.597  11.022  10.319
 4702W        W 8753   2.957   4.974   1.694
 4703W        W 8754  10.125   3.767  11.263
 4704W        W 8755   5.095  10.990   1.511
 4705W        W 8756   7.531   0.588  10.650
 4706W        W 8757   6.730   6.285  10.523
 4707W        W 8758   6.244   7.149   0.852
 4708W        W 8759   0.122   4.101   2.619
 4709W        W 8760   7.018   1.452   2.146
 4710W        W 8761   2.970   6.900   0.993
 4711W        W 8762  10.613   0.796   1.809
 4712W        W 8763   9.613   1.649  11.464
 4713W        W 8764   2.449   7.022   0.549
 4714W        W 8765   3.154   9.593  10.086
 4715W        W 8766  10.487   8.967   9.202
 4716W        W 8767   5.118  10.550  11.596
 4717W        W 8768   4.767   5.244   1.273
 4718W        W 8769   8.107   0.629   2.238
 4719W        W 8770   0.598   8.701   0.916
 4720W        W 8771   3.518   4.641   3.583
 4721W        W 8772   6.104   5.203   1.045
 4722W        W 8773   2.029   9.075   1.323
 4723W        W 8774   4.837   0.986   9.311
 4724W        W 8775   0.895   2.429   0.708
 4725W        W 8776   8.608   4.640   9.533
 4726W        W 8777   7.255   9.970  11.072
 4727W        W 8778   4.262   7.134  10.271
 4728W        W 8779   7.388   0.825  10.216
 4729W        W 8780   2.592   4.275  10.717
 4730W        W 8781   0.451  10.798   1.642
 4731W        W 8782   9.740   6.616  10.860
 4732W        W 8783   5.877   6.887   3.526
 4733W        W 8784   5.636   4.531   3.477
 4734W        W 8785  10.803   9.563  11.307
 4735W        W 8786   1.561   6.902   0.533
 4736W        W 8787  10.336   3.678   2.479
 4737W        W 8788   8.929  10.932   3.149
 4738W        W 8789   6.363   0.664   9.517
 4739W        W 8790   9.889   0.438  11.805
 4740W        W 8791   6.024   2.666   9.948
 4741W        W 8792   3.159   1.020   3.013
 4742W        W 8793   1.609   0.670   9.966
 4743W        W 8794   4.734   5.236   1.793
 4744W        W 8795   1.821   0.468  11.746
 4745W        W 8796   1.697   3.370  11.940
 4746W        W 8797  11.400   6.157  10.945
 4747W        W 8798   0.703   9.566   1.092
 4748W        W 8799   6.110   7.897   1.768
 4749W        W 8800   1.248   8.280  10.707
 4750W        W 8801   2.704   0.380  11.735
 4751W        W 8802   5.551   6.710   0.898
 4752W        W 8803   0.259   6.182   1.023
 4753W        W 8804   1.723   9.544   9.109
 4754W        W 8805   7.761   6.558  11.889
 4755W        W 8806   9.982   8.016   9.187
 4756W        W 8807   1.911   7.199   8.934
 4757W        W 8808   7.370  11.291  10.367
 4758W        W 8809   4.858  10.839   0.004
 4759W        W 8810   1.386  10.672   2.767
 4760W        W 8811   8.443   9.963   3.130
 4761W        W 8812   8.070  11.312   3.385
 4762W        W 8813   8.021   0.224   1.302
 4763W        W 8814   4.693   2.207  10.073
 4764W        W 8815   2.255   5.695   2.222
 4765W        W 8816   4.323   1.886  10.162
 4766W        W 8817   9.472  10.103   9.441
 4767W        W 8818   1.391   1.474   0.407
 4768W        W 8819  10.427   5.555   8.879
 4769W        W 8820   5.655  11.268   2.213
 4770W        W 8821  10.284   5.294   1.297
 4771W        W 8822   3.664   8.235   2.691
 4772W        W 8823   2.634   9.104   2.431
 4773W        W 8824   5.006   6.168   1.414
 4774W        W 8825  11.446   4.718  10.069
 4775W        W 8826   2.454   7.213   3.662
 4776W        W 8827   0.708   7.568  10.208
 4777W        W 8828   8.050   0.474   8.923
 4778W        W 8829   1.926  11.280   3.448
 4779W        W 8830   1.051  10.518   1.025
 4780W        W 8831   0.169   9.353   0.485
 4781W        W 8832   9.076   3.428   1.856
 4782W        W 8833   9.675   3.704   0.121
 4783W        W 8834   5.970   1.684  11.814
 4784W        W 8835   9.955   5.246   1.689
 4785W        W 8836   6.088   6.407   1.747
 4786W        W 8837  10.423   5.820  10.997
 4787W        W 8838   6.605   4.327   1.440
 4788W        W 8839   8.214   3.723   2.810
 4789W        W 8840   0.920  11.233   3.619
 4790W        W 8841   3.926   9.831   3.578
 4791W        W 8842  11.247   1.211  10.269
 4792W        W 8843   5.342  10.703   0.063
 4793W        W 8844   6.255   1.538  11.411
 4794W        W 8845   3.225   7.194  11.885
 4795W        W 8846   5.898  11.084  10.409
 4796W        W 8847  11.090  11.229   2.208
 4797W        W 8848   6.061   7.595   0.733
 4798W        W 8849   6.520   9.837   0.832
 4799W        W 8850   1.920   3.299   2.366
 4800W        W 8851   2.894   2.261   1.703
 4801W        W 8852  10.015   9.924   1.373
 4802W        W 8853   2.027  10.482   0.070
 4803W        W 8854   6.180   8.681   9.465
 4804W        W 8855   0.825   2.786   2.664
 4805W        W 8856  10.835   2.245   9.252
 4806W        W 8857   4.207   1.086   3.687
 4807W        W 8858   2.277   3.112  11.271
 4808W        W 8859  10.714   0.080   2.241
 4809W        W 8860   2.545  11.367  11.782
 4810W        W 8861   0.989   1.350   2.851
 4811W        W 8862   1.308   1.044  10.098
 4812W        W 8863   3.105   1.185   0.015
 4813W        W 8864   8.545   3.576   0.411
 4814W        W 8865  11.483   3.869   0.492
 4815W        W 8866  10.436   5.311   9.889
 4816W        W 8867   2.229   5.218   8.593
 4817W        W 8868   2.663   5.053   3.191
 4818W        W 8869   6.543   3.958  11.803
 4819W        W 8870   8.473   9.346   2.402
 4820W        W 8871   8.200   2.344   1.466
 4821W        W 8872   0.191   9.517   0.969
 4822W        W 8873   3.219   1.602  10.905
 4823W        W 8874   1.987  11.462  10.450
 4824W        W 8875   7.098   9.305   8.467
 4825W        W 8876   7.278   4.265   2.759
 4826W        W 8877   9.982  11.436  11.029
 4827W        W 8878   8.376   0.828  11.690
 4828W        W 8879   4.673   3.739   9.054
 4829W        W 8880   6.047   9.598   3.044
 4830W        W 8881   9.065   1.733   9.810
 4831W        W 8882   5.741   6.430   3.101
 4832W        W 8883   6.926   2.187  10.486
 4833W        W 8884   5.460   4.508   8.320
 4834W        W 8885   2.726   7.071   8.586
 4835W        W 8886   4.671   4.829  10.488
 4836W        W 8887   7.922   6.217   9.756
 4837W        W 8888   3.558  11.259   2.156
 4838W        W 8889  11.267   2.039   9.478
 4839W        W 8890  10.302   0.506  10.222
 4840W        W 8891  10.407   8.342   0.480
 4841W        W 8892   4.529   2.389   0.510
 4842W        W 8893   7.020   8.904   1.745
 4843W        W 8894   5.139   2.629   8.997
 4844W        W 8895   6.958   2.746   2.277
 4845W        W 8896   2.578   0.933   0.790
 4846W        W 8897  10.557   3.497  11.265
 4847W        W 8898   9.629   4.074   0.454
 4848W        W 8899   6.097   8.165   1.329
 4849W        W 8900   3.120  11.305   0.960
 4850W        W 8901   0.251  10.021   0.893
 4851W        W 8902   5.710  10.479   1.617
 4852W        W 8903   6.931   2.930   0.972
 4853W        W 8904  10.456   4.896  10.815
 4854W        W 8905   3.523  10.843   1.301
 4855W        W 8906   8.049   2.296   2.410
 4856W        W 8907   8.362   0.196   1.991
 4857W        W 8908   2.421   5.127  10.801
 4858W        W 8909   1.891   9.665   2.043
 4859W        W 8910   2.263  10.498   9.628
 4860W        W 8911   3.070   9.359   2.645
 4861W        W 8912   6.825   2.638   2.763
 4862W        W 8913  10.671   5.491   3.124
 4863W        W 8914   6.814   8.008   1.072
 4864W        W 8915   3.907   8.765   0.446
 4865W        W 8916   8.562  10.842   9.067
 4866W        W 8917   9.963  10.944  10.877
 4867W        W 8918   0.198  11.327   8.816
 4868W        W 8919   9.377   7.508   2.577
 4869W        W 8920  11.450   6.550   1.343
 4870W        W 8921  10.483   3.199   3.207
 4871W        W 8922   4.852   1.791   2.350
 4872W        W 8923  10.340   4.653  11.888
 4873W        W 8924   7.585   2.038   3.026
 4874W        W 8925   6.122   8.424   1.767
 4875W        W 8926  10.821   0.648   2.301
 4876W        W 8927   3.901   1.402   2.829
 4877W        W 8928   1.452   6.094   0.560
 4878W        W 8929   6.173   5.048   0.020
 4879W        W 8930   7.039   5.165   1.151
 4880W        W 8931   2.309  10.294   1.457
 4881W        W 8932   8.847   1.318   2.217
 4882W        W 8933   8.571  10.369   9.962
 4883W        W 8934   0.759   0.575  11.413
 4884W        W 8935   1.491   4.103   2.344
 4885W        W 8936   4.080   6.336   8.081
 4886W        W 8937   8.884   2.061   3.126
 4887W        W 8938   2.152   2.352   2.304
 4888W        W 8939  10.595   0.299   9.797
 4889W        W 8940   0.766   9.488  10.392
 4890W        W 8941   3.590   7.456  11.265
 4891W        W 8942   7.733   5.071  11.046
 4892W        W 8943   3.134   6.761   8.511
 4893W        W 8944   0.921   7.969   0.587
 4894W        W 8945   6.003   2.560   3.609
 4895W        W 8946   3.179   7.617  10.528
 4896W        W 8947   8.376  10.861  10.029
 4897W        W 8948   9.577  10.894   8.924
 4898W        W 8949   3.505   8.890   9.531
 4899W        W 8950   7.791   3.610   1.894
 4900W        W 8951   2.953   1.152  10.925
 4901W        W 8952   2.316   7.452  11.067
 4902W        W 8953   7.958   5.507  10.309
 4903W        W 8954   5.196   8.615   1.654
 4904W        W 8955  11.460   2.071   9.947
 4905W        W 8956   6.611   1.437   0.360
 4906W        W 8957   2.608   5.765   0.248
 4907W        W 8958   0.866   3.600  11.955
 4908W        W 8959   3.667   6.304   9.024
 4909W        W 8960   0.887   9.549   9.087
 4910W        W 8961  10.140   6.575   3.836
 4911W        W 8962   4.657   7.472  11.069
 4912W        W 8963   7.120   8.060   0.228
 4913W        W 8964  10.025   5.173   9.561
 4914W        W 8965   0.307   1.672   2.296
 4915W        W 8966   2.865   1.424   2.838
 4916W        W 8967   1.529  10.421   2.300
 4917W        W 8968  11.419   7.003  11.453
 4918W        W 8969   9.514   3.444   2.155
 4919W        W 8970   8.964   0.891   9.339
 4920W        W 8971   3.675  10.348   1.188
 4921W        W 8972  10.914   2.203  11.448
 4922W        W 8973  10.446   0.102   9.329
 4923W        W 8974   9.244   6.090   2.426
 4924W        W 8975   6.890   7.486   3.178
 4925W        W 8976   6.248  11.311   1.672
 4926W        W 8977   6.394   5.868   9.623
 4927W        W 8978   7.267   2.741   1.370
 4928W        W 8979  10.225   6.500   1.918
 4929W        W 8980   0.759   5.761  11.045
 4930W        W 8981   5.447   2.822   2.414
 4931W        W 8982   7.519   0.465   0.441
 4932W        W 8983   1.130   6.024   0.946
 4933W        W 8984   3.556   8.483   3.146
 4934W        W 8985  10.206   1.148   0.033
 4935W        W 8986   2.753   1.906   0.688
 4936W        W 8987   3.194  10.469   9.573
 4937W        W 8988   3.921   6.967  11.165
 4938W        W 8989   7.430   1.960  10.509
 4939W        W 8990   4.227   2.417   8.823
 4940W        W 8991   3.400   9.875  11.934
 4941W        W 8992   8.761   3.835   1.709
 4942W        W 8993   8.027   6.497   2.770
 4943W        W 8994   1.155  10.441  11.971
 4944W        W 8995  10.452   7.480   0.160
 4945W        W 8996  10.891   1.578   2.418
 4946W        W 8997   9.938   8.943   0.474
 4947W        W 8998   9.630   4.210   9.002
 4948W        W 8999   2.616   1.351  11.254
 4949W        W 9000   4.226  11.033   1.694
 4950W        W 9001   7.009   0.854   3.097
 4951W        W 9002   8.544   8.819   1.709
 4952W        W 9003   1.674   3.073   2.784
 4953W        W 9004   0.008   2.877  10.459
 4954W        W 9005   8.881   7.824  10.623
 4955W        W 9006   5.926  10.445   1.156
 4956W        W 9007   2.803  11.401   2.666
 4957W        W 9008   2.599   2.438   1.292
 4958W        W 9009  10.323   7.418   2.393
 4959W        W 9010   9.331   4.804   2.282
 4960W        W 9011   2.914   5.057   1.206
 4961W        W 9012  10.371   1.654  10.963
 4962W        W 9013  10.888   6.133   3.226
 4963W        W 9014   1.248   4.291   9.397
 4964W        W 9015   1.354   0.369   1.994
 4965W        W 9016   7.223   7.911  11.491
 4966W        W 9017   3.828   8.151   1.895
 4967W        W 9018   1.714   8.139   2.275
 4968W        W 9019   5.887   7.251  11.765
 4969W        W 9020   0.632   3.233   3.499
 4970W        W 9021   2.155   5.815   3.284
 4971W        W 9022  10.244  11.445   2.344
 4972W        W 9023   6.455   0.949  10.426
 4973W        W 9024   6.499   6.213   2.023
 4974W        W 9025  10.132   5.113  11.928
 4975W        W 9026  11.009   4.966  10.810
 4976W        W 9027   8.770   6.457   8.301
 4977W        W 9028   1.753   4.972   0.770
 4978W        W 9029   6.465   5.714   0.450
 4979W        W 9030   6.673   4.945  11.972
 4980W        W 9031   6.248  10.451   1.704
 4981W        W 9032  11.073   0.495   9.885
 4982W        W 9033  10.146   3.810   0.249
 4983W        W 9034   5.232   6.714   2.258
 4984W        W 9035   9.344   5.953   9.488
 4985W        W 9036   0.405   9.030  11.595
 4986W        W 9037   2.312   3.739   0.328
 4987W        W 9038   4.930   9.960   9.224
 4988W        W 9039   9.101   5.502   9.548
 4989W        W 9040   1.737   6.739   9.902
 4990W        W 9041   4.752  11.474  11.562
 4991W        W 9042   7.041   5.541  11.206
 4992W        W 9043   2.498   4.141   2.273
 4993W        W 9044   6.640  11.074   3.527
 4994W        W 9045   7.901   5.913  11.447
 4995W        W 9046   6.727   7.981   0.572
 4996W        W 9047   3.523   7.933   2.274
 4997W        W 9048   8.386   6.058  11.409
 4998W        W 9049  11.416   6.431   9.822
 4999W        W 9050   2.003   2.660   9.422
 5000W        W 9051   7.373   9.710   8.553
 5001W        W 9052   5.795   6.673   1.379
 5002W        W 9053  11.252   2.142   8.975
 5003W        W 9054   8.258  10.574  11.431
 5004W        W 9055   0.179   8.063  11.281
 5005W        W 9056   9.997   5.165   3.504
 5006W        W 9057   0.950   9.022   3.689
 5007W        W 9058   2.876   6.541  11.929
 5008W        W 9059   7.292  10.442  11.339
 5009W        W 9060   3.962   0.202   3.582
 5010W        W 9061   8.052   6.849   1.218
 5011W        W 9062   8.621   4.039   2.698
 5012W        W 9063   3.619  11.225   0.889
 5013W        W 9064   0.697   7.749   2.431
 5014W        W 9065   5.374   9.424   3.699
 5015W        W 9066   0.993   9.615  10.887
 5016W        W 9067   7.390   2.600   9.941
 5017W        W 9068   4.162   6.054   1.670
 5018W        W 9069   7.622  11.012   2.669
 5019W        W 9070   8.570   7.413  10.699
 5020W        W 9071   6.543   6.125   8.213
 5021W        W 9072   2.677   6.467   0.952
 5022W        W 9073   3.270   2.622  11.992
 5023W        W 9074   6.535   8.449   9.178
 5024W        W 9075   2.620  11.111   1.071
 5025W        W 9076   6.564  10.344   2.560
 5026W        W 9077   3.085   1.195   1.062
 5027W        W 9078   8.703  10.318   9.018
 5028W        W 9079   5.451   3.132   9.269
 5029W        W 9080   5.938   5.800  10.509
 5030W        W 9081  10.032   3.702  11.752
 5031W        W 9082  10.013   5.590   9.175
 5032W        W 9083   8.515   2.585  10.105
 5033W        W 9084   5.294   2.141  11.488
 5034W        W 9085   0.557   2.318  10.360
 5035W        W 9086   1.362   9.512  11.568
 5036W        W 9087   6.687   8.387   2.288
 5037W        W 9088   8.175   9.484   3.237
 5038W        W 9089   9.865   8.659   2.839
 5039W        W 9090   2.510   6.700   3.465
 5040W        W 9091   1.396   1.444   1.791
 5041W        W 9092   9.803   9.336   2.170
 5042W        W 9093   5.313   5.118  11.603
 5043W        W 9094   6.700  11.417   1.438
 5044W        W 9095   8.860   8.255   8.149
 5045W        W 9096   2.733   7.916   9.870
 5046W        W 9097   1.725   1.539   2.539
 5047W        W 9098   5.786   9.149   0.545
 5048W        W 9099  10.927   5.550  11.883
 5049W        W 9100   1.475   4.539   9.016
 5050W        W 9101   5.590   6.150  10.666
 5051W        W 9102  11.282  10.748   9.445
 5052W        W 9103   9.356   1.834   1.072
 5053W        W 9104   5.252   1.390   8.600
 5054W        W 9105   9.629   3.796   9.497
 5055W        W 9106   2.500   2.928  10.517
 5056W        W 9107   3.750   8.453   9.239
 5057W        W 9108  11.121   1.501   0.971
 5058W        W 9109   8.620  10.814  10.479
 5059W        W 9110   5.596   7.639   8.300
 5060W        W 9111   1.387   5.688   2.753
 5061W        W 9112   7.585  10.919   1.278
 5062W        W 9113   0.473   1.474   0.290
 5063W        W 9114   4.514   1.274  11.992
 5064W        W 9115   0.266   7.504   2.513
 5065W        W 9116   2.469   5.297   0.517
 5066W        W 9117   7.805   5.500  11.710
 5067W        W 9118   7.603   8.908  10.175
 5068W        W 9119   3.065   1.835  10.050
 5069W        W 9120   4.013   0.470   1.951
 5070W        W 9121   7.493   0.676  11.613
 5071W        W 9122   4.081   4.821   0.807
 5072W        W 9123   9.592   1.416   2.899
 5073W        W 9124   6.646   7.536   9.181
 5074W        W 9125   3.250   7.794   8.933
 5075W        W 9126  11.477   0.786  10.822
 5076W        W 9127   1.438   5.097   9.008
 5077W        W 9128   7.169  10.363   3.361
 5078W        W 9129   1.330   2.289   2.911
 5079W        W 9130   8.784   3.131  11.004
 5080W        W 9131   1.781   7.644  11.872
 5081W        W 9132   4.083   2.205   2.189
 5082W        W 9133  10.112   1.717  11.409
 5083W        W 9134   3.373   8.642   2.673
 5084W        W 9135   7.839   7.436   3.268
 5085W        W 9136   4.589   4.399  11.314
 5086W        W 9137  11.296   9.257  11.275
 5087W        W 9138   8.561   7.189  10.232
 5088W        W 9139   3.451   7.063  10.970
 5089W        W 9140   1.934   0.256   9.997
 5090W        W 9141   2.929  10.048   0.511
 5091W        W 9142   0.515  10.894   8.972
 5092W        W 9143   1.773   6.441   2.449
 5093W        W 9144   3.600   8.860  10.021
 5094W        W 9145   8.546   2.840   3.147
 5095W        W 9146   7.000   0.709  11.783
 5096W        W 9147   9.345  11.168  11.692
 5097W        W 9148   9.329  11.108   9.340
 5098W        W 9149   2.657   5.563   9.266
 5099W        W 9150   1.378   7.893  10.410
 5100W        W 9151   4.347   9.095   8.578
 5101W        W 9152  11.135   9.604   3.082
 5102W        W 9153   0.796   6.607   0.279
 5103W        W 9154   3.803   8.023   0.510
 5104W        W 9155   2.461   9.616  11.135
 5105W        W 9156   9.004   6.291   1.795
 5106W        W 9157   4.349   7.115   2.619
 5107W        W 9158  10.782   8.230   3.146
 5108W        W 9159   6.631   9.398   0.553
 5109W        W 9160   1.361   0.470   0.927
 5110W        W 9161   4.539   3.025   1.928
 5111W        W 9162   8.592   3.610   8.398
 5112W        W 9163   4.477   5.993  10.648
 5113W        W 9164   4.492   1.447   3.338
 5114W        W 9165   3.508   9.127   2.740
 5115W        W 9166   0.812   5.291   3.142
 5116W        W 9167   0.298  11.013   3.637
 5117W        W 9168   0.239   9.444  10.419
 5118W        W 9169   1.871  10.902   2.625
 5119W        W 9170   1.997   3.185   3.422
 5120W        W 9171  11.447  10.799   2.325
 5121W        W 9172   0.386   5.409  11.662
 5122W        W 9173   1.732  11.373   1.924
 5123W        W 9174   3.746   7.619   1.873
 5124W        W 9175   7.990   6.938  11.526
 5125W        W 9176   4.588   4.364   1.706
 5126W        W 9177  10.860   0.972  10.063
 5127W        W 9178  10.623   2.247  11.881
 5128W        W 9179   5.475   5.217  10.210
 5129W        W 9180   7.448   8.855  10.666
 5130W        W 9181   4.034   3.107  10.517
 5131W        W 9182   0.766   4.326   9.064
 5132W        W 9183   3.256   6.686   9.356
 5133W        W 9184   4.494   3.754   2.325
 5134W        W 9185  10.852   2.142   3.562
 5135W        W 9186   6.696   9.962   2.254
 5136W        W 9187   0.957   1.574   3.335
 5137W        W 9188   0.943   1.901  11.497
 5138W        W 9189   1.382   9.918  11.247
 5139W        W 9190   2.643   3.793   9.939
 5140W        W 9191   3.388   3.200  11.972
 5141W        W 9192   1.000   7.922   2.861
 5142W        W 9193   8.169   4.634   3.144
 5143W        W 9194   6.011   2.822   8.578
 5144W        W 9195  10.398   6.990   3.204
 5145W        W 9196   6.202   1.792   0.265
 5146W        W 9197  11.459   9.216   1.782
 5147W        W 9198   0.418   9.555   2.465
 5148W        W 9199   5.012   4.297   3.583
 5149W        W 9200   1.567   1.911   1.696
 5150W        W 9201   2.201   0.804   1.178
 5151W        W 9202   5.228   1.256   1.618
 5152W        W 9203   3.043   5.367   3.364
 5153W        W 9204   6.047   7.432  10.772
 5154W        W 9205  10.847   2.777  10.068
 5155W        W 9206   6.175   2.143  11.866
 5156W        W 9207   4.600   4.843  11.962
 5157W        W 9208  10.637   1.378   3.160
 5158W        W 9209   0.891   8.420   1.235
 5159W        W 9210   5.705   0.946   9.401
 5160W        W 9211   6.889   4.067   1.838
 5161W        W 9212   3.576   5.208   8.324
 5162W        W 9213   8.841  11.404   1.136
 5163W        W 9214   3.716   7.453  11.750
 5164W        W 9215   9.066   2.287  10.996
 5165W        W 9216   9.976   9.818   9.304
 5166W        W 9217   4.216   5.168   1.585
 5167W        W 9218   2.483  10.420   2.573
 5168W        W 9219   1.299   4.732   0.700
 5169W        W 9220   1.265   8.138   1.049
 5170W        W 9221   1.906   4.086  10.119
 5171W        W 9222   2.702   4.640   2.448
 5172W        W 9223   7.910   8.808  11.579
 5173W        W 9224   8.559   5.752   2.609
 5174W        W 9225  10.260   7.021   0.942
 5175W        W 9226   0.904   4.177   3.519
 5176W        W 9227   0.922   5.522   2.520
 5177W        W 9228   8.771   6.096   1.015
 5178W        W 9229   1.680   4.182   2.836
 5179W        W 9230   2.053   9.461   3.160
 5180W        W 9231   5.132   7.011   0.219
 5181W        W 9232  10.729   2.676   1.663
 5182W        W 9233   9.470   5.737   9.002
 5183W        W 9234  10.833  10.403   8.779
 5184W        W 9235   3.607   4.206   1.462
 5185W        W 9236   0.415   5.477  10.772
 5186W        W 9237   6.083   7.636   1.250
 5187W        W 9238   9.670   1.252   3.360
 5188W        W 9239   3.361   4.295   9.912
 5189W        W 9240  10.790   0.962   3.388
 5190W        W 9241   8.099   1.911   9.099
 5191W        W 9242   6.044   0.837   3.503
 5192W        W 9243   0.697  10.850  10.300
 5193W        W 9244   6.958   9.611   8.863
 5194W        W 9245  11.092   2.483   2.636
 5195W        W 9246   9.252   5.288   9.110
 5196W        W 9247   0.945   4.150  10.759
 5197W        W 9248   9.483  10.371   2.350
 5198W        W 9249   3.844   6.460  11.299
 5199W        W 9250   1.833   7.545  10.941
 5200W        W 9251   3.719   6.125   2.005
 5201W        W 9252   2.673   1.766   9.285
 5202W        W 9253   8.918   4.152  10.175
 5203W        W 9254   4.950   3.070   9.176
 5204W        W 9255   6.402   6.212   0.483
 5205W        W 9256   8.633   1.883   9.049
 5206W        W 9257   9.362  10.874   2.235
 5207W        W 9258   9.114   5.203   0.025
 5208W        W 9259   4.647   9.493   0.268
 5209W        W 9260   3.394   7.044   2.311
 5210W        W 9261   2.011   6.333   9.727
 5211W        W 9262   6.768  11.117   0.922
 5212W        W 9263   3.997   1.001   9.939
 5213W        W 9264   6.127   0.541   8.801
 5214W        W 9265   9.118   6.609  11.676
 5215W        W 9266   9.541   1.435   1.994
 5216W        W 9267   9.013   8.493   8.579
 5217W        W 9268   6.532   6.799   3.438
 5218W        W 9269  10.409   5.220   0.410
 5219W        W 9270   0.803   7.121  10.511
 5220W        W 9271   2.250   5.576  10.585
 5221W        W 9272   1.514   4.971   9.853
 5222W        W 9273   0.272   2.138  11.461
 5223W        W 9274   9.305  11.290   2.771
 5224W        W 9275   7.981   1.195   0.168
 5225W        W 9276   3.365   7.069   1.263
 5226W        W 9277   3.553   8.456   1.128
 5227W        W 9278   8.936   7.311  11.544
 5228W        W 9279   2.466   4.230   0.099
 5229W        W 9280   0.872   0.295   1.321
 5230W        W 9281   5.294   1.114   9.057
 5231W        W 9282   7.956   9.350  10.886
 5232W        W 9283   1.247   8.656  11.083
 5233W        W 9284   2.640   0.095   2.193
 5234W        W 9285   3.176  10.836   0.141
 5235W        W 9286   0.641   5.483   0.438
 5236W        W 9287   1.107   1.833   9.503
 5237W        W 9288   2.086   2.906  10.825
 5238W        W 9289   8.474   4.928   2.319
 5239W        W 9290   6.646   0.427  11.204
 5240W        W 9291   9.362   9.848  11.948
 5241W        W 9292   9.685   8.545   1.147
 5242W        W 9293  11.142   8.189  10.679
 5243W        W 9294  11.048   3.967  10.976
 5244W        W 9295   9.314   2.182  11.500
 5245W        W 9296   3.205   4.780   2.518
 5246W        W 9297  11.228   0.480   0.083
 5247W        W 9298   1.493   2.725   9.441
 5248W        W 9299   9.811   2.129  11.485
 5249W        W 9300   7.598   4.125  10.170
 5250W        W 9301   0.665   7.601   3.052
 5251W        W 9302   0.951   2.802  11.360
 5252W        W 9303   6.091   2.050  10.846
 5253W        W 9304   7.239   1.500  11.338
 5254W        W 9305   1.792   8.190   3.108
 5255W        W 9306   3.923   2.797   1.154
 5256W        W 9307   8.543  10.019  11.796
 5257W        W 9308  10.409   1.272   1.781
 5258W        W 9309   1.724   0.019   0.934
 5259W        W 9310   9.258   7.613   1.557
 5260W        W 9311   9.534   8.940   9.883
 5261W        W 9312   9.121   5.411   1.893
 5262W        W 9313   3.718   3.093   9.598
 5263W        W 9314   1.694   0.733   3.080
 5264W        W 9315   7.083   6.320  10.151
 5265W        W 9316   5.119   0.745  10.750
 5266W        W 9317   2.850   2.809   1.510
 5267W        W 9318   1.335   8.905   9.528
 5268W        W 9319   4.402   9.963  11.676
 5269W        W 9320   9.360   3.862   9.941
 5270W        W 9321   2.782   0.065   1.226
 5271W        W 9322  10.774   5.382  11.023
 5272W        W 9323   1.332   7.576   0.366
 5273W        W 9324   0.040   4.793  11.027
 5274W        W 9325  11.042   3.525  11.801
 5275W        W 9326   1.223   4.672   2.318
 5276W        W 9327   4.958  10.383   9.543
 5277W        W 9328   4.299   7.069   3.170
 5278W        W 9329   3.419   6.666   0.728
 5279W        W 9330   5.723   8.524  11.340
 5280W        W 9331   9.633   5.126  11.948
 5281W        W 9332   3.402   0.238  10.949
 5282W        W 9333   6.450   3.593   2.389
 5283W        W 9334   9.118   2.435  11.905
 5284W        W 9335   2.736  10.282   9.640
 5285W        W 9336   4.846  10.098  11.445
 5286W        W 9337   8.953   2.923   1.762
 5287W        W 9338   2.871   9.434  10.868
 5288W        W 9339  11.211   1.233   3.346
 5289W        W 9340   3.438   8.835  11.079
 5290W        W 9341   0.382   4.468  10.716
 5291W        W 9342   6.202   8.655   1.183
 5292W        W 9343   2.287   5.660  10.098
 5293W        W 9344   0.479   1.789   1.400
 5294W        W 9345   0.798   6.572   9.537
 5295W        W 9346   0.943   1.321   2.340
 5296W        W 9347  10.780   4.167  11.825
 5297W        W 9348   1.211   9.754  10.322
 5298W        W 9349   4.339   6.538  11.334
 5299W        W 9350   9.154   7.105   2.353
 5300W        W 9351   1.222   6.258   9.462
 5301W        W 9352   3.357  11.287  10.158
 5302W        W 9353   5.130   0.305  11.001
 5303W        W 9354  11.421   1.712   3.162
 5304W        W 9355   1.417   3.132   2.355
 5305W        W 9356  10.838   7.411   0.497
 5306W        W 9357  10.749   6.574   0.415
 5307W        W 9358   5.183   9.948   1.693
 5308W        W 9359   9.482   4.882  11.075
 5309W        W 9360   7.015   0.989   0.807
 5310W        W 9361   2.081   1.539  11.085
 5311W        W 9362   6.184   0.900   1.932
 5312W        W 9363   7.952   1.384  10.909
 5313W        W 9364   1.602   4.193  10.548
 5314W        W 9365  10.805   8.618   2.719
 5315W        W 9366   5.285   0.682   0.289
 5316W        W 9367   3.599   9.621   1.601
 5317W        W 9368   3.352   6.677  11.852
 5318W        W 9369   8.390   1.679  10.836
 5319W        W 9370   1.493   4.514  11.309
 5320W        W 9371  10.396   1.571  11.840
 5321W        W 9372   5.239   0.349   9.992
 5322W        W 9373   9.902   2.691   9.836
 5323W        W 9374   6.632   4.053   1.003
 5324W        W 9375   1.340   6.076  10.364
 5325W        W 9376   7.677   2.159  10.090
 5326W        W 9377  10.585  11.069   2.284
 5327W        W 9378   9.753   5.264  10.844
 5328W        W 9379   0.019   5.562   2.780
 5329W        W 9380   5.832   6.072   2.701
 5330W        W 9381   6.914   9.636   3.660
 5331W        W 9382   3.897   4.208   2.311
 5332W        W 9383   9.759  11.492   2.719
 5333W        W 9384   4.684   7.350   1.985
 5334W        W 9385   3.880   0.577   0.441
 5335W        W 9386   8.694   7.390  11.988
 5336W        W 9387   5.127   3.501   0.013
 5337W        W 9388   1.422   7.535   9.489
 5338W        W 9389  11.376   5.559  10.235
 5339W        W 9390   2.379   2.992   9.400
 5340W        W 9391   8.992   1.455   0.221
 5341W        W 9392   8.024   7.443  11.582
 5342W        W 9393   8.085   8.789   3.001
 5343W        W 9394   7.683   1.524  10.496
 5344W        W 9395   5.703   2.366  11.276
 5345W        W 9396   7.979   1.893  11.068
 5346W        W 9397   1.411   0.048   0.491
 5347W        W 9398   6.641   4.994  10.563
 5348W        W 9399   1.013   1.977  10.347
 5349W        W 9400   1.753   3.488   3.080
 5350W        W 9401   0.053   9.006   0.825
 5351W        W 9402  10.128   4.227  11.013
 5352W        W 9403   2.975   7.879   8.024
 5353W        W 9404   2.035   5.101   0.349
 5354W        W 9405  10.419   1.464   2.253
 5355W        W 9406   1.378   0.263   2.493
 5356W        W 9407   0.062   5.237   8.540
 5357W        W 9408   2.698   0.885  11.896
 5358W        W 9409   2.710   0.580   2.395
 5359W        W 9410   4.701   7.925  10.817
 5360W        W 9411   0.461   4.533  11.223
 5361W        W 9412   0.961   5.790   3.014
 5362W        W 9413   9.040  10.870   1.808
 5363W        W 9414   3.753  11.481   2.787
 5364W        W 9415   6.437   1.511  11.888
 5365W        W 9416   6.633  10.442   8.924
 5366W        W 9417   4.311   4.685   9.145
 5367W        W 9418   7.202   3.363  10.558
 5368W        W 9419   9.424  10.245   0.856
 5369W        W 9420   9.076  10.779   9.036
 5370W        W 9421   1.911  11.255   9.374
 5371W        W 9422  10.243   9.627  11.969
 5372W        W 9423   0.392   4.619   0.689
 5373W        W 9424   6.072   4.575   2.674
 5374W        W 9425   8.052  10.038   9.571
 5375W        W 9426  11.420   0.109  10.098
 5376W        W 9427   4.415   2.782  10.627
 5377W        W 9428   2.827  10.791   9.437
 5378W        W 9429   5.522   4.604   9.620
 5379W        W 9430  10.351   2.921  10.029
 5380W        W 9431   5.075   0.348  11.952
 5381W        W 9432   7.510   4.012   1.075
 5382W        W 9433   6.804   7.113  10.395
 5383W        W 9434   4.586   4.642   2.526
 5384W        W 9435   7.126   5.294  10.354
 5385W        W 9436   6.238   3.864  11.422
 5386W        W 9437   2.924   6.613  11.421
 5387W        W 9438   9.928   9.592   1.736
 5388W        W 9439   9.048   8.938   8.840
 5389W        W 9440   8.967  11.471  11.962
 5390W        W 9441   7.521   9.695   0.490
 5391W        W 9442   2.667   1.430   0.835
 5392W        W 9443   1.197   8.387   0.240
 5393W        W 9444   8.096   2.377  11.013
 5394W        W 9445   1.143   9.149  11.027
 5395W        W 9446   5.714   1.478   1.422
 5396W        W 9447   6.196   3.812   3.318
 5397W        W 9448   4.146   8.242  10.736
 5398W        W 9449   8.090   6.771   9.579
 5399W        W 9450   3.870   8.669   1.834
 5400W        W 9451   9.017  11.464   3.144
 5401W        W 9452   4.168   8.865   1.231
 5402W        W 9453   6.105   1.904  10.368
 5403W        W 9454   8.660   9.552   3.355
 5404W        W 9455   3.644   7.527   9.724
 5405W        W 9456   3.576   0.982   2.663
 5406W        W 9457   1.201  10.816  10.296
 5407W        W 9458   8.862  10.401   1.112
 5408W        W 9459  11.327   4.686   2.170
 5409W        W 9460   5.234   2.743   8.497
 5410W        W 9461   4.272   5.205   1.077
 5411W        W 9462   1.721   6.450   3.029
 5412W        W 9463   0.226  11.487   9.300
 5413W        W 9464   3.245   1.269  10.513
 5414W        W 9465  10.005   8.612   0.074
 5415W        W 9466   3.406  11.005   8.400
 5416W        W 9467   5.440   9.511   1.457
 5417W        W 9468   5.509   8.959  10.364
 5418W        W 9469   6.070   4.531   9.746
 5419W        W 9470   2.926   8.128  11.461
 5420W        W 9471   8.480  11.252   8.750
 5421W        W 9472   0.831   2.360  10.803
 5422W        W 9473   9.468   4.535   0.462
 5423W        W 9474   2.438   3.227   2.286
 5424W        W 9475  10.072   2.291   2.335
 5425W        W 9476   7.305   6.160   8.799
 5426W        W 9477  10.679   0.309   2.704
 5427W        W 9478   7.568   0.464   1.447
 5428W        W 9479   7.632   9.953   9.289
 5429W        W 9480   3.660   2.690   2.852
 5430W        W 9481  10.354   6.047   9.036
 5431W        W 9482   0.373   3.707   9.401
 5432W        W 9483   8.737   6.347  10.014
 5433W        W 9484  10.975   4.587   9.908
 5434W        W 9485   5.027   4.765   0.661
 5435W        W 9486   3.863   9.891   3.055
 5436W        W 9487   9.012   3.789   2.885
 5437W        W 9488   2.184   0.820   2.610
 5438W        W 9489   7.029   5.490   1.548
 5439W        W 9490   0.030   6.137   0.544
 5440W        W 9491   4.654   9.831   3.117
 5441W        W 9492  10.690   3.101  11.551
 5442W        W 9493   9.901   2.246   9.562
 5443W        W 9494   3.155   4.253   8.885
 5444W        W 9495  10.044   0.365  11.326
 5445W        W 9496   8.082   2.644   3.356
 5446W        W 9497   3.946   5.256  11.090
 5447W        W 9498   1.171   4.253  10.302
 5448W        W 9499   0.480   1.226   2.096
 5449W        W 9500   4.319   0.250  11.519
 5450W        W 9501   3.359   0.330  10.421
 5451W        W 9502   5.852   0.569   1.752
 5452W        W 9503   5.279   7.892   2.209
 5453W        W 9504   4.644   8.533  11.938
 5454W        W 9505   8.433   7.192   1.148
 5455W        W 9506   9.477   6.547   2.590
 5456W        W 9507   8.295   3.827   9.149
 5457W        W 9508   3.302   7.908  11.205
 5458W        W 9509   8.245   3.212   8.504
 5459W        W 9510   7.448   6.102   2.135
 5460W        W 9511  10.880   5.658   9.073
 5461W        W 9512   5.983   9.163   9.500
 5462W        W 9513   5.741  11.024  11.962
 5463W        W 9514   8.959   9.983   9.593
 5464W        W 9515   5.251   1.622   9.762
 5465W        W 9516   8.992   6.435   1.311
 5466W        W 9517   4.777   9.926   0.038
 5467W        W 9518   7.715   7.576  11.972
 5468W        W 9519   0.689   2.228   1.201
 5469W        W 9520  10.922   4.293   9.324
 5470W        W 9521  10.713  11.283   8.539
 5471W        W 9522   1.290   5.243   0.752
 5472W        W 9523   6.998   9.834   1.700
 5473W        W 9524   8.093   5.420  11.291
 5474W        W 9525   1.183   5.244  10.116
 5475W        W 9526   2.719   3.281   0.740
 5476W        W 9527   7.495  10.543   1.669
 5477W        W 9528  10.010  10.436  10.807
 5478W        W 9529   6.286   6.662   2.184
 5479W        W 9530  10.270   9.197   2.290
 5480W        W 9531   2.403   2.296   1.821
 5481W        W 9532   8.849   7.638   0.787
 5482W        W 9533  10.960   4.730   1.183
 5483W        W 9534   9.815  10.985  11.782
 5484W        W 9535  11.132   2.252  11.954
 5485W        W 9536   3.901   1.593  11.484
 5486W        W 9537  11.419   4.237   8.480
 5487W        W 9538   7.583   7.071  11.819
 5488W        W 9539   5.963   2.760   1.883
 5489W        W 9540   1.834  10.907   2.116
 5490W        W 9541   5.972  10.421   3.670
 5491W        W 9542   8.717   8.970  11.547
 5492W        W 9543  10.505   4.087   3.623
 5493W        W 9544   4.607   0.451  10.449
 5494W        W 9545   5.234   0.829   2.437
 5495W        W 9546   7.371   7.642   3.217
 5496W        W 9547   9.673   2.633   2.778
 5497W        W 9548   1.791   0.443   8.485
 5498W        W 9549   8.059   6.835  10.377
 5499W        W 9550   9.322   1.098   8.551
 5500W        W 9551   6.904   2.477  11.526
 5501W        W 9552   8.631   0.760  10.669
 5502W        W 9553   0.743   7.668   8.891
 5503W        W 9554   2.199   3.643  11.810
 5504W        W 9555   9.449  10.837  10.809
 5505W        W 9556   8.876   4.345   1.730
 5506W        W 9557   4.849   7.164   8.943
 5507W        W 9558   5.338   8.282   2.596
 5508W        W 9559   0.486   3.202   9.268
 5509W        W 9560  10.525   6.134   0.349
 5510W        W 9561  10.917   6.614   9.087
 5511W        W 9562   0.961   6.152   0.439
 5512W        W 9563   5.859   1.377   0.236
 5513W        W 9564   1.347   8.951   1.510
 5514W        W 9565   7.742   2.472   1.260
 5515W        W 9566   2.719   3.018   8.806
 5516W        W 9567   9.478   9.159   0.358
 5517W        W 9568   3.678   0.866  11.829
 5518W        W 9569  10.091   5.155   0.843
 5519W        W 9570  11.069   7.381   2.017
 5520W        W 9571   1.603   8.069   8.832
 5521W        W 9572   1.573   2.893  11.942
 5522W        W 9573   4.159   1.268   9.506
 5523W        W 9574   6.070   3.259  11.605
 5524W        W 9575   6.172   6.736   9.386
 5525W        W 9576  11.353   8.898   0.312
 5526W        W 9577   4.096   9.278   0.874
 5527W        W 9578   8.047   5.227   2.354
 5528W        W 9579   6.883   1.668  11.700
 5529W        W 9580   5.292   7.153  10.419
 5530W        W 9581   9.108   8.088   3.224
 5531W        W 9582   7.227   3.792  11.326
 5532W        W 9583   7.124   8.949   1.240
 5533W        W 9584   0.370   5.028   9.794
 5534W        W 9585   9.594   8.890   1.966
 5535W        W 9586   8.432   0.297  10.864
 5536W        W 9587   3.675   4.585   1.080
 5537W        W 9588   6.142   0.309   9.832
 5538W        W 9589   1.523   5.662   0.940
 5539W        W 9590   4.428   0.834   9.610
 5540W        W 9591   3.708   3.615   0.253
 5541W        W 9592   8.797  10.315   0.615
 5542W        W 9593   0.691   4.608   8.630
 5543W        W 9594   2.652   6.444   1.869
 5544W        W 9595   0.709   6.582   8.431
 5545W        W 9596   3.202   0.014   1.897
 5546W        W 9597   9.459   9.746   0.704
 5547W        W 9598   4.500   4.339   1.219
 5548W        W 9599   8.216   3.204   2.652
 5549W        W 9600   7.826   9.069   2.057
 5550W        W 9601   8.587   8.687   0.414
 5551W        W 9602   0.809   8.346  11.829
 5552W        W 9603   9.600   5.555  10.376
 5553W        W 9604   1.284   8.286   3.187
 5554W        W 9605   5.559  10.815  10.099
 5555W        W 9606   5.057   7.612  10.563
 5556W        W 9607   2.030   2.502   8.532
 5557W        W 9608   7.705   8.592   1.384
 5558W        W 9609   5.106  10.433   2.827
 5559W        W 9610  11.001   6.640   0.840
 5560W        W 9611   2.322   2.287  11.982
 5561W        W 9612   9.978   7.652   2.800
 5562W        W 9613   3.674   1.703   8.856
 5563W        W 9614  10.342   7.132  11.057
 5564W        W 9615   2.312   0.970   1.696
 5565W        W 9616   2.596  11.064  11.348
 5566W        W 9617   5.565   0.879  10.985
 5567W        W 9618   4.413   9.833   9.329
 5568W        W 9619   6.445   6.582   0.151
 5569W        W 9620  10.836   3.061   2.002
 5570W        W 9621  10.441   1.119   9.322
 5571W        W 9622   5.963   5.761   9.220
 5572W        W 9623   2.242   2.325   2.825
 5573W        W 9624   8.100   7.840   2.540
 5574W        W 9625   7.500  10.986  11.996
 5575W        W 9626  11.358   8.539   2.790
 5576W        W 9627   4.899   3.986  11.207
 5577W        W 9628   5.597   1.961   1.482
 5578W        W 9629   0.339   2.625   2.807
 5579W        W 9630   7.664  11.356   9.938
 5580W        W 9631   7.746   8.931  11.095
 5581W        W 9632   5.949   3.980   2.368
 5582W        W 9633   5.219   7.441   0.490
 5583W        W 9634   8.175   1.921   1.751
 5584W        W 9635   8.660   8.101   8.608
 5585W        W 9636   5.051   9.356   0.021
 5586W        W 9637   6.990   4.098   3.454
 5587W        W 9638   6.490   7.332   1.465
 5588W        W 9639   6.238   0.453   3.245
 5589W        W 9640   0.387   3.584   0.169
 5590W        W 9641   7.778   7.126  10.706
 5591W        W 9642   0.076   9.787   0.255
 5592W        W 9643   9.055   2.780   0.314
 5593W        W 9644   8.158   1.645   0.382
 5594W        W 9645   2.181   3.894   9.715
 5595W        W 9646   9.539   9.530   8.574
 5596W        W 9647   3.358   8.308   8.422
 5597W        W 9648   5.459   4.395   9.143
 5598W        W 9649   0.780  10.580  11.140
 5599W        W 9650   8.943   8.597  10.225
 5600W        W 9651   5.626   7.592   1.440
 5601W        W 9652   4.272   4.064  10.738
 5602W        W 9653   4.807   1.731   9.994
 5603W        W 9654   8.563   6.705  10.354
 5604W        W 9655   4.045   9.106  10.170
 5605W        W 9656   3.811   5.282   0.772
 5606W        W 9657   8.834  10.042   3.455
 5607W        W 9658   3.689   5.890  11.644
 5608W        W 9659  10.963   3.127   3.463
 5609W        W 9660   4.774   2.594   2.748
 5610W        W 9661   4.072   0.883   2.668
 5611W        W 9662  10.321  10.490   1.058
 5612W        W 9663   3.850   4.888  11.817
 5613W        W 9664   8.615   4.460  10.851
 5614W        W 9665  10.865   0.369   1.863
 5615W        W 9666   3.704   9.450  11.762
 5616W        W 9667  10.258  10.737   9.577
 5617W        W 9668   7.869   5.119   8.675
 5618W        W 9669   9.547   1.211  10.794
 5619W        W 9670   0.355  11.381  11.087
 5620W        W 9671   9.549   0.270   1.398
 5621W        W 9672  11.392   8.136   9.318
 5622W        W 9673   6.019   8.964  10.433
 5623W        W 9674   0.403   0.859   1.116
 5624W        W 9675   6.895   1.648   9.805
 5625W        W 9676   1.314   4.078  11.512
 5626W        W 9677   9.819   7.501   0.799
 5627W        W 9678   7.880   2.731  10.002
 5628W        W 9679   2.680   8.302  10.635
 5629W        W 9680   9.390   6.584   8.272
 5630W        W 9681  11.310   0.003   2.728
 5631W        W 9682   3.762  11.288   3.303
 5632W        W 9683   3.020   7.853   2.211
 5633W        W 9684   3.707   2.941   2.400
 5634W        W 9685   3.664   6.215   3.528
 5635W        W 9686  11.443   9.867   1.278
 5636W        W 9687   7.714   5.175   0.485
 5637W        W 9688   3.146   2.436   1.302
 5638W        W 9689   0.772   7.940   9.763
 5639W        W 9690   0.519   5.796   1.884
 5640W        W 9691   9.542   3.167   1.307
 5641W        W 9692   5.942   8.274   0.243
 5642W        W 9693   2.281   8.985   2.016
 5643W        W 9694   4.577  10.310   9.062
 5644W        W 9695   7.855  11.397   2.941
 5645W        W 9696   9.433   8.158   0.363
 5646W        W 9697   4.184   6.119  11.065
 5647W        W 9698   1.349   6.991  10.560
 5648W        W 9699   8.450   6.238  10.531
 5649W        W 9700   9.328   4.974  11.580
 5650W        W 9701   0.934   3.734   0.949
 5651W        W 9702   8.016   9.053   3.450
 5652W        W 9703   0.441   9.292   9.017
 5653W        W 9704   8.647   1.245   3.097
 5654W        W 9705   8.544   4.744   9.030
 5655W        W 9706   6.464   6.216  10.966
 5656W        W 9707   2.929   4.704  11.428
 5657W        W 9708   2.287   0.545   9.515
 5658W        W 9709   6.525  11.250   2.498
 5659W        W 9710   5.626   5.152   1.772
 5660W        W 9711   6.022   6.228   8.178
 5661W        W 9712   9.795  10.634   2.035
 5662W        W 9713   3.226   3.781   9.143
 5663W        W 9714   1.144   3.263   1.091
 5664W        W 9715   9.101  11.238   9.996
 5665W        W 9716   9.603   2.886  10.494
 5666W        W 9717   5.076   3.253   0.486
 5667W        W 9718   3.398   9.297   2.260
 5668W        W 9719   5.075   7.778   0.120
 5669W        W 9720   3.086   4.137  10.806
 5670W        W 9721   3.643   1.262   0.692
 5671W        W 9722   6.571   4.129   3.146
 5672W        W 9723   7.553   0.328  10.189
 5673W        W 9724   3.607  10.534  11.838
 5674W        W 9725   9.059   2.739   1.256
 5675W        W 9726   3.837  10.833   2.067
 5676W        W 9727   6.154  10.005   1.377
 5677W        W 9728   5.224   7.941   0.861
 5678W        W 9729   7.847   1.455   9.203
 5679W        W 9730   3.394   7.682   0.069
 5680W        W 9731   7.700   1.149  11.727
 5681W        W 9732   9.929  10.739   0.265
 5682W        W 9733   7.275   7.998   9.418
 5683W        W 9734   7.606   9.746  10.778
 5684W        W 9735   3.330   5.245   1.961
 5685W        W 9736   8.432   4.711  10.432
 5686W        W 9737   3.080   0.597   2.742
 5687W        W 9738  10.590   2.333   2.621
 5688W        W 9739  10.040   0.874   9.596
 5689W        W 9740  10.277   9.318   9.524
 5690W        W 9741   9.456   2.716   3.305
 5691W        W 9742   7.385   9.082  11.442
 5692W        W 9743   8.042   3.374   9.175
 5693W        W 9744   5.837   5.546   1.449
 5694W        W 9745   2.153   5.305   3.466
 5695W        W 9746   0.706   5.710   3.442
 5696W        W 9747   4.079   1.437  11.025
 5697W        W 9748   2.662   4.148   1.770
 5698W        W 9749   5.567   8.272   3.207
 5699W        W 9750   6.617  10.003   8.147
 5700W        W 9751   3.356   1.912   1.302
 5701W        W 9752   1.001  10.981   0.825
 5702W        W 9753   6.677   6.724   2.940
 5703W        W 9754   3.875   4.374   0.635
 5704W        W 9755   2.319   0.037   9.538
 5705W        W 9756   0.036  11.408   3.212
 5706W        W 9757   9.161   6.633   9.997
 5707W        W 9758   7.916   4.150   2.190
 5708W        W 9759   9.092   4.251   3.124
 5709W        W 9760   3.234   9.875   1.841
 5710W        W 9761   2.674   6.596   2.407
 5711W        W 9762  10.406   7.061  10.491
 5712W        W 9763   6.769   2.090   2.834
 5713W        W 9764   2.700   9.043  11.483
 5714W        W 9765   4.464   6.772   8.628
 5715W        W 9766   2.105   8.641  11.744
 5716W        W 9767   7.699   3.771  11.528
 5717W        W 9768  10.411   7.633  11.237
 5718W        W 9769   4.372   0.758   1.697
 5719W        W 9770   3.897   4.414  10.556
 5720W        W 9771  10.231  10.426   1.569
 5721W        W 9772   0.102   0.963   1.875
 5722W        W 9773   2.155   7.467   1.003
 5723W        W 9774   1.134   0.223  10.678
 5724W        W 9775  11.324   1.228   1.396
 5725W        W 9776   3.490   9.640   2.813
 5726W        W 9777   3.574   2.318   2.517
 5727W        W 9778   7.655   0.192   9.164
 5728W        W 9779   1.913   1.329   3.333
 5729W        W 9780   3.196   5.700  10.990
 5730W        W 9781   6.963   4.628   0.284
 5731W        W 9782  11.003   0.152   3.098
 5732W        W 9783   4.303   8.645  11.526
 5733W        W 9784   1.214   0.620  10.366
 5734W        W 9785  10.006   1.894  11.898
 5735W        W 9786   5.637   3.253   9.829
 5736W        W 9787   2.500   8.554   8.316
 5737W        W 9788   1.288   1.067  10.613
 5738W        W 9789  10.952   3.308   2.889
 5739W        W 9790   3.960   8.379   1.388
 5740W        W 9791   8.684   7.892  11.907
 5741W        W 9792   9.325   1.838   2.866
 5742W        W 9793   9.429   4.926   0.976
 5743W        W 9794   1.912   3.642   8.888
 5744W        W 9795  11.403   8.859   1.417
 5745W        W 9796   4.210   9.968   0.866
 5746W        W 9797   2.764   1.661   0.209
 5747W        W 9798   7.219   3.840  10.302
 5748W        W 9799   7.726   8.002  11.632
 5749W        W 9800   3.147   3.686   1.833
 5750W        W 9801   5.205   9.038   9.057
 5751W        W 9802  10.643   7.689  11.692
 5752W        W 9803   2.724  10.268   8.743
 5753W        W 9804   0.053   7.491  11.337
 5754W        W 9805   0.263   1.176  11.240
 5755W        W 9806  10.805  11.235   3.433
 5756W        W 9807   5.756   1.480   8.535
 5757W        W 9808   3.287   1.361   9.294
 5758W        W 9809   6.042   6.538   2.647
 5759W        W 9810  10.942   6.255   0.057
 5760W        W 9811   3.862   3.872  10.938
 5761W        W 9812  11.351   7.189   9.388
 5762W        W 9813   0.193   1.408  10.288
 5763W        W 9814   0.782   0.827   2.173
 5764W        W 9815   1.046   6.081  11.340
 5765W        W 9816   3.175   4.951   0.394
 5766W        W 9817   0.693   8.416   0.341
 5767W        W 9818   6.693  11.370   0.373
 5768W        W 9819   8.988   0.942   0.956
 5769W        W 9820  11.282   1.121   9.524
 5770W        W 9821   0.899   4.203   2.242
 5771W        W 9822   8.100   9.243   2.778
 5772W        W 9823   9.471   2.140   1.468
 5773W        W 9824   1.263   7.565  11.859
 5774W        W 9825   2.226   6.126   1.958
 5775W        W 9826   9.486   9.336   1.770
 5776W        W 9827  10.570   6.254  10.768
 5777W        W 9828   9.384   7.016   3.306
 5778W        W 9829   8.592   6.144   1.475
 5779W        W 9830   7.082   6.183   8.324
 5780W        W 9831   0.926   5.324  10.859
 5781W        W 9832   8.899   9.579   2.210
 5782W        W 9833  11.327   7.430   0.304
 5783W        W 9834   8.734   0.307   2.765
 5784W        W 9835   6.715   3.170  10.275
 5785W        W 9836   5.988   9.950   3.463
 5786W        W 9837   5.956   4.588   0.223
 5787W        W 9838   5.719   7.375   3.606
 5788W        W 9839   6.342   8.086  11.846
 5789W        W 9840  11.379   5.762   2.338
 5790W        W 9841  10.807  10.878   0.385
 5791W        W 9842   7.013   3.708  11.805
 5792W        W 9843   6.841   2.267   2.080
 5793W        W 9844   8.152  10.447   0.472
 5794W        W 9845   2.779   1.276   1.743
 5795W        W 9846   8.527   6.637   1.184
 5796W        W 9847   7.956  10.506   2.568
 5797W        W 9848   5.604  10.961   1.725
 5798W        W 9849  11.424   4.730   9.578
 5799W        W 9850   2.879   0.397   9.106
 5800W        W 9851  10.762   4.123  10.566
 5801W        W 9852   3.105   7.120  11.382
 5802W        W 9853   4.645  10.279   2.673
 5803W        W 9854   1.268  10.072   0.924
 5804W        W 9855   5.489   3.659   8.572
 5805W        W 9856   2.309   7.201   0.054
 5806W        W 9857   6.136   9.801  11.859
 5807W        W 9858   4.058   7.541  10.023
 5808W        W 9859   5.192   8.704   4.082
 5809W        W 9860   7.447   1.015   2.879
 5810W        W 9861   0.267   1.360   1.172
 5811W        W 9862   7.148   9.611   9.837
 5812W        W 9863  10.547   2.790  10.494
 5813W        W 9864  11.332   0.733   2.235
 5814W        W 9865   1.280  10.983   3.192
 5815W        W 9866   2.487  10.815   0.694
 5816W        W 9867   0.936   9.588   8.584
 5817W        W 9868   6.747   2.280   8.959
 5818W        W 9869   2.633   0.766  10.795
 5819W        W 9870   4.574   6.201   0.286
 5820W        W 9871   3.430   0.910   0.317
 5821W        W 9872   0.558   9.493  11.790
 5822W        W 9873   5.909   2.288   1.710
 5823W        W 9874   2.778   3.345   9.759
 5824W        W 9875   2.854  10.081  11.456
 5825W        W 9876   5.142   3.279   9.628
 5826W        W 9877   0.208   3.970   8.982
 5827W        W 9878   8.204   3.695  11.534
 5828W        W 9879   6.561   0.121   0.935
 5829W        W 9880   1.772   1.377   0.751
 5830W        W 9881  11.406  10.691   3.755
 5831W        W 9882   0.115   3.823  10.277
 5832W        W 9883  10.255   4.609   3.251
 5833W        W 9884  10.460   7.943   9.004
 5834W        W 9885   5.319   8.022  10.235
 5835W        W 9886   6.972   6.611   0.357
 5836W        W 9887  10.398   6.742  11.532
 5837W        W 9888   6.164   4.573   1.700
 5838W        W 9889  10.545   7.854   1.440
 5839W        W 9890   6.285   7.944  10.048
 5840W        W 9891   4.029   6.417   1.328
 5841W        W 9892   6.732   5.528   0.848
 5842W        W 9893   0.370   0.863   2.937
 5843W        W 9894   3.087   6.211  11.085
 5844W        W 9895   7.287   4.165   0.434
 5845W        W 9896  10.137  10.271   0.277
 5846W        W 9897   6.891   2.183   9.585
 5847W        W 9898  11.073   3.807   2.834
 5848W        W 9899   6.679   0.279  10.239
 5849W        W 9900   1.820   4.387  10.961
 5850W        W 9901  10.857   1.891   9.770
 5851W        W 9902   9.124   7.700   9.273
 5852W        W 9903   0.081   0.078   0.048
 5853W        W 9904   8.269   5.687  11.810
 5854W        W 9905   0.350   9.059   1.231
 5855W        W 9906   4.367   1.755  11.684
 5856W        W 9907   4.194   8.652  10.419
 5857W        W 9908   0.803   4.846  11.454
 5858W        W 9909   6.482   7.187  10.953
 5859W        W 9910   1.721   5.283   8.517
 5860W        W 9911   7.565   0.951   1.590
 5861W        W 9912   7.131   0.141   0.399
 5862W        W 9913   3.518  10.479   9.977
 5863W        W 9914   2.358   0.352   9.055
 5864W        W 9915   9.889  10.056   2.981
 5865W        W 9916   8.235   7.663  11.973
 5866W        W 9917   4.728   6.713   0.671
 5867W        W 9918   9.433   9.337   2.856
 5868W        W 9919  11.099   4.999  10.295
 5869W        W 9920   2.862   4.242   9.859
 5870W        W 9921   3.527   3.026  10.596
 5871W        W 9922  10.924   2.659  11.731
 5872W        W 9923   7.558   1.857   0.328
 5873W        W 9924   7.561   6.680  10.473
 5874W        W 9925   1.901   5.252  10.786
 5875W        W 9926   4.670   9.526  11.722
 5876W        W 9927   7.035   4.312   2.269
 5877W        W 9928   7.111   3.411  10.067
 5878W        W 9929   5.664   5.815   1.017
 5879W        W 9930   2.837   2.871   9.587
 5880W        W 9931  10.606   7.444   1.832
 5881W        W 9932  10.512   4.982   9.499
 5882W        W 9933   7.620  10.408  10.076
 5883W        W 9934   6.308   7.560  11.771
 5884W        W 9935   5.568   8.090  11.732
 5885W        W 9936   9.131   4.170   0.505
 5886W        W 9937  11.260   3.062   9.145
 5887W        W 9938   2.845   8.352  10.149
 5888W        W 9939   7.148   9.271   0.830
 5889W        W 9940   4.217   2.309   9.886
 5890W        W 9941   3.851   6.654   9.887
 5891W        W 9942  11.042   2.715   1.225
 5892W        W 9943   0.210   7.784   2.933
 5893W        W 9944   4.013   1.479  11.968
 5894W        W 9945   5.139   4.662  10.703
 5895W        W 9946   0.285  10.710   0.328
 5896W        W 9947   7.036   7.924  10.921
 5897W        W 9948   1.765   1.791   9.599
 5898W        W 9949  10.110   1.179   3.564
 5899W        W 9950  10.847   9.145   0.542
 5900W        W 9951   8.104   1.593   3.480
 5901W        W 9952   3.578   4.693   8.530
 5902W        W 9953   7.936  10.106  10.583
 5903W        W 9954   5.189   8.072   1.742
 5904W        W 9955   1.844  10.022   2.451
 5905W        W 9956   2.339   1.930   0.392
 5906W        W 9957   6.611   8.202   2.779
 5907W        W 9958   9.776   1.210   1.240
 5908W        W 9959   2.683   3.240   2.734
 5909W        W 9960   8.932   6.855  11.280
 5910W        W 9961   6.137   0.555  11.267
 5911W        W 9962   2.875  10.457   2.892
 5912W        W 9963  10.001  10.800   8.579
 5913W        W 9964   4.627   3.893   0.991
 5914W        W 9965   9.425   9.885   9.895
 5915W        W 9966   5.229   3.730   0.470
 5916W        W 9967   3.295   2.902   0.403
 5917W        W 9968   3.241   1.284   3.860
 5918W        W 9969   0.776  11.199   1.848
 5919W        W 9970   3.704   8.399   0.156
 5920W        W 9971   4.791   8.587  11.422
 5921W        W 9972   9.971  11.357  10.026
 5922W        W 9973   3.770   0.161   8.674
 5923W        W 9974   2.174   9.405   1.677
 5924W        W 9975   9.938   3.746   2.119
 5925W        W 9976  10.891   4.054   9.777
 5926W        W 9977   5.199   7.267   3.172
 5927W        W 9978   5.105   9.472   1.895
 5928W        W 9979   9.067   3.639   2.345
 5929W        W 9980   1.095  10.376   1.686
 5930W        W 9981   1.385   1.431   9.372
 5931W        W 9982   3.324   6.620   3.665
 5932W        W 9983  10.553   7.358   9.450
 5933W        W 9984   6.222   5.584  10.896
 5934W        W 9985  11.327   6.983  11.978
 5935W        W 9986   6.064   5.633   0.753
 5936W        W 9987   4.210   7.945  11.434
 5937W        W 9988   1.275  10.883  11.215
 5938W        W 9989   0.816   3.271  10.536
 5939W        W 9990   4.209   7.809   1.821
 5940W        W 9991   2.949   8.963  11.042
 5941W        W 9992  10.901   1.647   0.440
 5942W        W 9993   4.183   0.177  10.516
 5943W        W 9994   6.390   3.626   2.885
 5944W        W 9995   0.812   7.850   1.059
 5945W        W 9996   1.701   8.951  10.326
 5946W        W 9997   7.309   6.041  11.098
 5947W        W 9998   6.840   7.197   2.732
 5948W        W 9999   8.864   2.225   0.308
 5949W        W10000   2.517   7.802   0.732
 5950W        W10001   6.763   5.479  10.679
 5951W        W10002   9.006   8.078  11.062
 5952W        W10003   3.386   1.824  11.373
 5953W        W10004   8.197   5.416   9.868
 5954W        W10005   0.839  10.690  11.639
 5955W        W10006   2.593   7.543   2.242
 5956W        W10007   2.431   2.893   3.556
 5957W        W10008   1.455   1.192   2.274
 5958W        W10009   4.687   1.944   3.311
 5959W        W10010   5.949   4.689   1.224
 5960W        W10011   8.562  10.385  10.744
 5961W        W10012   2.753   7.394  11.789
 5962W        W10013   8.643   2.813   9.626
 5963W        W10014   7.588   9.897   9.785
 5964W        W10015   4.610   4.257   3.913
 5965W        W10016   4.766   8.818   9.980
 5966W        W10017  11.177   4.297   2.473
 5967W        W10018   8.070  10.507   9.839
 5968W        W10019   1.559   9.994   2.872
 5969W        W10020   1.407  11.436   9.507
 5970W        W10021   2.590   4.121   0.582
 5971W        W10022   9.996   2.078  11.008
 5972W        W10023   4.119  11.204   0.305
 5973W        W10024   8.517   7.620  11.496
 5974W        W10025   7.666   9.566   2.834
 5975W        W10026   3.768   2.445   3.336
 5976W        W10027   7.764   1.513  11.387
 5977W        W10028   7.700   3.103   1.985
 5978W        W10029   9.894   5.401  11.554
 5979W        W10030   2.786   5.306   4.144
 5980W        W10031   8.882   0.513  11.026
 5981W        W10032   4.754   9.930   8.732
 5982W        W10033   6.316   7.039  11.919
 5983W        W10034   9.659   3.322   0.848
 5984W        W10035   0.254   6.940   9.144
 5985W        W10036   9.321   0.155   1.851
 5986W        W10037   8.529   4.694   8.290
 5987W        W10038   9.544   8.641   9.438
 5988W        W10039   2.401   0.532   3.426
 5989W        W10040   2.345   1.426   1.970
 5990W        W10041   6.984   5.637   0.330
 5991W        W10042  10.853   1.681   1.922
 5992W        W10043   0.374   4.253   9.386
 5993W        W10044   5.006  11.345  11.989
 5994W        W10045   6.213   5.263  11.309
 5995W        W10046   5.091  10.431   0.863
 5996W        W10047   9.361   7.999  10.547
 5997W        W10048   0.837  11.074  11.307
 5998W        W10049   6.037   6.935  10.909
 5999W        W10050   8.907   1.831  10.794
 6000W        W10051   8.144   9.099   9.190
 6001W        W10052   7.203   2.225   1.720
 6002W        W10053   0.039   3.842   3.072
 6003W        W10054   8.958   2.093   2.624
 6004W        W10055   3.263   6.205   2.298
 6005W        W10056   8.001   1.931  10.560
 6006W        W10057   8.415   0.770   3.285
 6007W        W10058   5.515   8.045  11.223
 6008W        W10059   3.353   4.489  10.551
 6009W        W10060   4.909   0.141   1.753
 6010W        W10061   8.084   4.954   9.096
 6011W        W10062   6.718   1.354  10.551
 6012W        W10063   6.600   8.936   1.356
 6013W        W10064   0.336   6.530   8.785
 6014W        W10065   7.762   7.064   9.206
 6015W        W10066   8.826   8.496   9.718
 6016W        W10067  10.028  10.702   9.082
 6017W        W10068   6.074   4.159  11.896
 6018W        W10069   7.974   6.841   3.595
 6019W        W10070   9.186   4.777   3.151
 6020W        W10071   9.082   2.881   3.683
 6021W        W10072   5.102   9.955   0.657
 6022W        W10073   3.617   6.592   2.231
 6023W        W10074   3.282   7.064   3.320
 6024W        W10075  10.964  10.967  11.073
 6025W        W10076   1.677  10.399   9.569
 6026W        W10077  10.851   0.475   3.452
 6027W        W10078   6.559   7.497   0.488
 6028W        W10079   5.079  10.922   2.988
 6029W        W10080   5.130   2.355   2.302
 6030W        W10081  10.662   4.063   8.946
 6031W        W10082   2.278   2.800   2.010
 6032W        W10083   9.596   6.948  11.693
 6033W        W10084   3.553   6.844   8.960
 6034W        W10085  11.276  11.162   9.772
 6035W        W10086   3.776   8.871   0.920
 6036W        W10087   6.244   6.833   3.881
 6037W        W10088   5.992   3.407   0.655
 6038W        W10089   7.867   0.812   8.575
 6039W        W10090   3.488   6.569   3.175
 6040W        W10091   2.158   9.140  10.476
 6041W        W10092   5.001   2.425   0.774
 6042W        W10093   8.942   6.192   3.697
 6043W        W10094   2.340   9.374   3.669
 6044W        W10095   6.689  11.360   9.020
 6045W        W10096   1.157   7.886   8.573
 6046W        W10097   7.669   8.217   0.600
 6047W        W10098   4.880  10.723   9.178
 6048W        W10099  10.848   4.551   0.724
 6049W        W10100   6.486   9.061   9.607
 6050W        W10101   7.277   6.673   1.299
 6051W        W10102   2.121   8.284   8.516
 6052W        W10103   0.925   4.540   3.099
 6053W        W10104   4.241   9.112  10.662
 6054W        W10105   0.897   8.757   2.345
 6055W        W10106   1.955   4.714   9.076
 6056W        W10107   2.963   4.304   2.161
 6057W        W10108  11.210   8.903   2.444
 6058W        W10109   3.902   1.063   0.249
 6059W        W10110   2.297   2.747   1.003
 6060W        W10111   7.192  11.264  11.390
 6061W        W10112   8.985   4.976   8.313
 6062W        W10113   9.321   5.830   0.632
 6063W        W10114   9.345   6.170   2.932
 6064W        W10115   6.489  10.309   0.637
 6065W        W10116  10.589   4.413  10.946
 6066W        W10117   1.373  10.291   9.970
 6067W        W10118   5.757   0.904   0.506
 6068W        W10119   8.022  10.964   9.146
 6069W        W10120   8.065   9.530  11.366
 6070W        W10121   9.937   2.866   1.631
 6071W        W10122   0.285  10.874   3.120
 6072W        W10123   8.117   3.115   3.151
 6073W        W10124  10.298   7.440   9.014
 6074W        W10125   6.985   8.006   1.557
 6075W        W10126  11.431   8.334  11.664
 6076W        W10127   5.514   6.965   8.786
 6077W        W10128   7.018  10.349  11.770
 6078W        W10129   4.256   7.978   9.829
 6079W        W10130   8.385   6.118   2.934
 6080W        W10131   4.258   8.966   2.587
 6081W        W10132  11.360   4.276   9.825
 6082W        W10133   0.771   1.732   9.985
 6083W        W10134   7.136   8.371   9.894
 6084W        W10135   6.147   7.601   9.254
 6085W        W10136   1.400   0.221   9.998
 6086W        W10137   5.010  11.181   9.364
 6087W        W10138   7.456   5.698  10.255
 6088W        W10139   6.257   1.942   2.747
 6089W        W10140   2.540   2.165   3.459
 6090W        W10141   7.101   8.216   8.561
 6091W        W10142   4.132   1.684   1.695
 6092W        W10143   1.574   9.247   1.139
 6093W        W10144   8.506   5.433   2.185
 6094W        W10145   0.317   8.384   9.074
 6095W        W10146   8.772   0.432  11.855
 6096W        W10147  10.452   3.586   9.130
 6097W        W10148   6.449   0.031   3.409
 6098W        W10149   1.266   3.774   9.403
 6099W        W10150   5.950   3.474   2.467
 6100W        W10151   9.953   9.418   3.702
 6101W        W10152   4.634   5.744   0.014
 6102W        W10153   8.995   3.738  11.716
 6103W        W10154   8.989   7.102   9.981
 6104W        W10155   9.107  10.016   2.426
 6105W        W10156   6.104   2.462  10.446
 6106W        W10157   2.896   8.493   8.630
 6107W        W10158   8.993   9.808   9.080
 6108W        W10159   8.051   5.967   1.011
 6109W        W10160   5.557   2.820   0.022
 6110W        W10161   0.437   2.188   3.028
 6111W        W10162   6.480   9.479   2.777
 6112W        W10163   5.581   3.319  11.817
 6113W        W10164   3.525   1.441   0.205
 6114W        W10165   8.774   6.150   2.234
 6115W        W10166   4.571   8.542   2.417
 6116W        W10167   0.747  10.018   3.040
 6117W        W10168   5.554   9.299   0.985
 6118W        W10169   3.738   6.145   4.033
 6119W        W10170  10.117  10.756   2.429
 6120W        W10171   0.244  11.356   9.792
 6121W        W10172   6.063   7.542   9.771
 6122W        W10173   2.731   5.153   8.629
 6123W        W10174   2.409   5.752   0.718
 6124W        W10175   5.643   1.815  10.026
 6125W        W10176   6.535   0.755   2.266
 6126W        W10177   1.270   9.213   8.457
 6127W        W10178   8.181   8.656  10.960
 6128W        W10179   3.666   4.843  10.398
 6129W        W10180  11.069   6.978   0.448
 6130W        W10181   2.518   5.236   1.501
 6131W        W10182   4.712   2.292   3.696
 6132W        W10183   9.470   3.116   0.418
 6133W        W10184   7.417   9.553   1.524
 6134W        W10185  10.478   4.028   9.429
 6135W        W10186   8.486   5.700   1.190
 6136W        W10187   4.667   9.549   2.192
 6137W        W10188   8.903  11.280  11.475
 6138W        W10189   6.605  10.001  11.858
 6139W        W10190   2.461   5.259   1.990
 6140W        W10191   7.461   1.677  10.073
 6141W        W10192   9.572   5.186   2.026
 6142W        W10193   7.131  11.349  11.906
 6143W        W10194   7.857   2.321   0.372
 6144W        W10195   0.395   2.619  11.567
 6145W        W10196   8.571   6.577   0.368
 6146W        W10197   0.798   1.815   2.889
 6147W        W10198   0.886   8.085  10.286
 6148W        W10199   1.830   0.984  11.787
 6149W        W10200   4.100   9.403   9.481
 6150W        W10201   4.350   9.853   1.346
 6151W        W10202   6.145  11.454   2.199
 6152W        W10203   1.711  10.654  11.164
 6153W        W10204  10.553   9.970   0.266
 6154W        W10205   4.001   6.553   3.336
 6155W        W10206  11.134   3.044   0.435
 6156W        W10207   1.701   6.203  10.714
 6157W        W10208  10.890   8.633   9.865
 6158W        W10209  10.632  10.483   3.116
 6159W        W10210   5.312   2.202   1.144
 6160W        W10211   4.380   4.419   0.719
 6161W        W10212   6.899   2.944  10.786
 6162W        W10213   9.686  10.983   2.649
 6163W        W10214   6.829   3.829   9.940
 6164W        W10215   9.865   3.899   3.064
 6165W        W10216   6.016   2.775   2.399
 6166W        W10217   4.790   0.488   0.365
 6167W        W10218   1.813   1.176   0.280
 6168W        W10219   9.095   4.808   1.821
 6169W        W10220  10.293   0.348   1.858
 6170W        W10221   7.984   7.220   0.863
 6171W        W10222   6.928  10.869   3.152
 6172W        W10223   6.196   7.933  10.572
 6173W        W10224   9.438   9.503  10.426
 6174W        W10225   3.863   9.829   9.347
 6175W        W10226   8.574   8.051   9.937
 6176W        W10227   3.378   0.933  11.391
 6177W        W10228   3.891   5.919   8.772
 6178W        W10229   8.542   9.014   8.877
 6179W        W10230   7.092   4.153   1.357
 6180W        W10231  11.414  11.030   1.832
 6181W        W10232   3.864   8.743   2.817
 6182W        W10233   0.863   0.543   9.379
 6183W        W10234   8.880   0.815   1.454
 6184W        W10235   4.165   1.853  10.682
 6185W        W10236   6.436  10.346   1.147
 6186W        W10237   0.963  10.128   2.117
 6187W        W10238   6.957  10.464  10.368
 6188W        W10239   7.791   2.272   1.751
 6189W        W10240   4.665   1.642   1.683
 6190W        W10241   0.918   8.948   1.868
 6191W        W10242   5.037   3.756   2.322
 6192W        W10243   4.650   0.143   9.051
 6193W        W10244   8.172   3.695  10.544
 6194W        W10245  10.778   6.423  11.596
 6195W        W10246  10.734   5.967   8.693
 6196W        W10247   1.848   9.359   0.327
 6197W        W10248   7.316  10.532   0.725
 6198W        W10249   7.425   6.597   1.970
 6199W        W10250  11.387   3.441   0.167
 6200W        W10251   9.124  10.831   2.680
 6201W        W10252   7.401   9.582  11.390
 6202W        W10253   2.329   8.086  10.228
 6203W        W10254  11.472   4.311  11.208
 6204W        W10255   4.488   3.676   3.264
 6205W        W10256   8.847   4.249   0.917
 6206W        W10257   9.086   1.752   9.279
 6207W        W10258   1.359   2.352  10.681
 6208W        W10259   3.072   0.806   3.979
 6209W        W10260  11.075   5.995   1.946
 6210W        W10261   8.042   4.556   1.680
 6211W        W10262   6.792  10.028   9.165
 6212W        W10263   2.166   0.453  10.411
 6213W        W10264   2.333   2.858   1.501
 6214W        W10265   3.334   9.875  11.008
 6215W        W10266   5.070  10.331   8.845
 6216W        W10267   5.605   7.430   2.917
 6217W        W10268  11.189   3.994   8.886
 6218W        W10269   8.926   7.077   9.086
 6219W        W10270   1.526   7.305   1.425
 6220W        W10271   9.441   0.526   2.243
 6221W        W10272  10.979   5.255   0.921
 6222W        W10273   7.453   4.117   3.697
 6223W        W10274   5.075   9.537  10.585
 6224W        W10275   9.535   7.111   8.835
 6225W        W10276   9.405   8.914   2.482
 6226W        W10277  10.134   7.645   9.486
 6227W        W10278   4.652  10.714   0.822
 6228W        W10279  11.321   1.778   2.126
 6229W        W10280   7.277   6.784  10.046
 6230W        W10281   5.490   1.968  11.019
 6231W        W10282   6.595   9.501   0.032
 6232W        W10283   8.140   8.788   2.483
 6233W        W10284   7.101   7.476   1.797
 6234W        W10285   4.193   6.144   0.662
 6235W        W10286  10.796   3.974   2.366
 6236W        W10287   4.778   3.479  11.272
 6237W        W10288   9.367   5.066   9.542
 6238W        W10289  11.048   8.371   1.711
 6239W        W10290   7.900   8.302   1.778
 6240W        W10291   2.977   6.659   3.276
 6241W        W10292   0.906   9.656   3.368
 6242W        W10293  10.749   9.753   2.801
 6243W        W10294   2.226   5.746   2.749
 6244W        W10295   1.249   3.325   0.589
 6245W        W10296   3.418   2.887   1.288
 6246W        W10297   9.576   6.607   8.745
 6247W        W10298   7.421   6.231   1.618
 6248W        W10299  10.421   9.943  11.383
 6249W        W10300   2.538  10.441   9.191
 6250W        W10301   0.650   7.883  11.363
 6251W        W10302  11.357  10.328  10.659
 6252W        W10303   8.904  10.963  11.896
 6253W        W10304   4.697   6.733   2.030
 6254W        W10305   3.687   0.111   1.755
 6255W        W10306   8.972   3.561   3.369
 6256W        W10307   7.065   1.187   0.328
 6257W        W10308   4.647   9.302   3.064
 6258W        W10309   3.200  10.883   9.874
 6259W        W10310   3.954   5.831   9.934
 6260W        W10311   5.856   4.171   1.907
 6261W        W10312   5.487   9.831  10.480
 6262W        W10313   3.628   8.894   1.437
 6263W        W10314  11.347   0.225   9.053
 6264W        W10315   2.818   7.903  10.380
 6265W        W10316  11.049   1.684   8.811
 6266W        W10317   2.176   4.407   1.956
 6267W        W10318   9.406   7.189   8.333
 6268W        W10319   4.247   4.200   9.842
 6269W        W10320   1.389   9.957  10.752
 6270W        W10321   7.669   3.770   0.344
 6271W        W10322   9.350   6.178  10.004
 6272W        W10323  11.154   8.848   1.909
 6273W        W10324   8.658  10.858  11.328
 6274W        W10325   4.810   1.262   9.792
 6275W        W10326   7.545   4.500   2.359
 6276W        W10327   4.943   4.548   0.211
 6277W        W10328   9.152   1.315   9.532
 6278W        W10329  10.745   9.165  10.474
 6279W        W10330   0.605   7.877   3.646
 6280W        W10331   0.682   3.212   8.592
 6281W        W10332   2.134   8.419  11.268
 6282W        W10333  11.420  10.836  10.646
 6283W        W10334   4.982   3.488  10.058
 6284W        W10335   7.683   5.970  11.944
 6285W        W10336   4.325  11.443   1.241
 6286W        W10337   0.373   7.652  10.971
 6287W        W10338   1.651   7.448  10.487
 6288W        W10339   6.226   7.622   8.728
 6289W        W10340   7.115   8.675  10.318
 6290W        W10341   5.628  11.473   9.919
 6291W        W10342   8.531   1.948  10.448
 6292W        W10343   3.040  11.401  11.634
 6293W        W10344  11.026   2.196  10.175
 6294W        W10345   1.728   6.897   1.714
 6295W        W10346   3.406   0.241   9.912
 6296W        W10347  10.877   3.062   8.783
 6297W        W10348   8.398   1.790  11.965
 6298W        W10349   1.916   8.591   8.962
 6299W        W10350   4.182   7.454   2.226
 6300W        W10351   7.233   1.240   9.913
 6301W        W10352   4.215  11.035   9.806
 6302W        W10353   5.770   6.734  11.494
 6303W        W10354   5.159   5.549   0.754
 6304W        W10355   6.771   3.416   1.073
 6305W        W10356   0.523   5.158   2.531
 6306W        W10357  10.873  11.379   9.533
 6307W        W10358   7.475   9.615  11.937
 6308W        W10359   8.883   6.907   3.341
 6309W        W10360   9.607   1.051   2.514
 6310W        W10361   2.179   7.129   1.866
 6311W        W10362  10.973   5.133   1.892
 6312W        W10363   4.499   0.775   2.957
 6313W        W10364   0.254  10.510   9.293
 6314W        W10365   2.962   6.742  10.341
 6315W        W10366   1.961   4.780   8.547
 6316W        W10367   1.005  10.512   3.118
 6317W        W10368   9.811  10.980   9.437
 6318W        W10369   1.908   9.573  10.081
 6319W        W10370  11.341   2.722   0.060
 6320W        W10371   8.408   6.354   9.627
 6321W        W10372   8.040  10.974   8.634
 6322W        W10373   8.355   8.033   1.770
 6323W        W10374   2.133   6.751   3.128
 6324W        W10375   1.151   5.827   9.174
 6325W        W10376   2.715   5.091   9.541
 6326W        W10377   3.124   0.376  11.440
 6327W        W10378   1.775   5.946   0.184
 6328W        W10379   6.220  11.233   0.177
 6329W        W10380   0.468   9.935   1.331
 6330W        W10381   1.204  10.396  11.390
 6331W        W10382   0.433   5.271   3.491
 6332W        W10383   6.254   1.080   0.199
 6333W        W10384   0.053   1.297   2.883
 6334W        W10385   3.151  10.993   8.916
 6335W        W10386   5.560  11.421  10.831
 6336W        W10387   3.750  10.733   0.845
 6337W        W10388   5.073   5.054   0.041
 6338W        W10389   0.907   6.279   9.036
 6339W        W10390   0.829  10.207   3.537
 6340W        W10391   9.176   2.164  10.117
 6341W        W10392   0.204   5.641  11.226
 6342W        W10393   9.892   2.903   0.620
 6343W        W10394   8.594   8.483   3.014
 6344W        W10395  10.416   1.479   0.506
 6345W        W10396   6.134   6.930   0.397
 6346W        W10397   4.646  10.601   2.262
 6347W        W10398   1.793   7.243   9.780
 6348W        W10399  10.302   9.131   3.209
 6349W        W10400   9.957   1.807   9.277
 6350W        W10401   4.619  11.307  10.048
 6351W        W10402   7.046   1.073   8.884
 6352W        W10403   8.835   5.295   2.723
 6353W        W10404   2.693   1.733   3.213
 6354W        W10405   3.118   3.352   8.870
 6355W        W10406   0.840   4.839   9.991
 6356W        W10407   9.860   5.691  11.121
 6357W        W10408   2.675   9.594   8.943
 6358W        W10409   2.736   7.525   8.317
 6359W        W10410   3.140   6.266   0.791
 6360W        W10411   4.043   5.153   2.532
 6361W        W10412  10.366   7.915   1.918
 6362W        W10413   9.005   4.713   0.783
 6363W        W10414   7.111  10.305   1.887
 6364W        W10415   5.207   1.675   0.261
 6365W        W10416   7.036   2.442   0.826
 6366W        W10417   4.411   9.569   9.842
 6367W        W10418   5.701   3.593   1.174
 6368W        W10419   3.232   2.141   0.865
 6369W        W10420   2.350   8.925   0.935
 6370W        W10421  10.868   1.783  11.907
 6371W        W10422   7.929   8.905   8.721
 6372W        W10423   4.138   6.151  11.608
 6373W        W10424   2.029   9.322  10.955
 6374W        W10425   0.681   8.838   0.022
 6375W        W10426   7.371   5.550  11.985
 6376W        W10427   3.321   5.785   0.838
 6377W        W10428   0.489   6.202   2.195
 6378W        W10429   0.454   6.099  11.265
 6379W        W10430   1.786   6.037   1.167
 6380W        W10431   8.616   3.734   9.564
 6381W        W10432   9.647   5.269   9.918
 6382W        W10433   0.334   7.492   3.408
 6383W        W10434  10.519   0.471  11.177
 6384W        W10435  11.124   6.961   1.241
 6385W        W10436   3.427  10.006   0.446
 6386W        W10437   0.460   2.171   0.748
 6387W        W10438   3.492   5.254  10.186
 6388W        W10439   1.832   1.891   2.185
 6389W        W10440  10.784   7.027   3.533
 6390W        W10441   6.342   3.609  10.133
 6391W        W10442   0.730  10.660   8.552
 6392W        W10443   7.219   8.448   1.416
 6393W        W10444   3.344   4.404   0.553
 6394W        W10445   4.535   6.736  10.439
 6395W        W10446   6.479   4.686  10.990
 6396W        W10447   9.352  11.400   8.908
 6397W        W10448   8.359   7.397   3.249
 6398W        W10449  10.784   0.803   2.864
 6399W        W10450   9.514   9.173  11.406
 6400W        W10451   9.946   5.705   1.463
 6401W        W10452  10.715   7.626   0.990
 6402W        W10453   8.950  10.396  11.312
 6403W        W10454   5.229   1.650  10.292
 6404W        W10455   6.827   3.195   3.478
 6405W        W10456   0.221   5.508   8.935
 6406W        W10457   1.686   5.807  11.709
 6407W        W10458   9.011   0.244   2.334
 6408W        W10459   2.147   5.690   1.185
 6409W        W10460   1.467   2.389   0.589
 6410W        W10461  10.438   8.110   9.491
 6411W        W10462   0.472   0.769  10.993
 6412W        W10463  11.076  11.088   0.763
 6413W        W10464   1.895   2.738   0.694
 6414W        W10465   7.141  11.289  10.883
 6415W        W10466  10.261   9.602   0.919
 6416W        W10467   7.855   2.787  10.863
 6417W        W10468   5.570   6.208   0.674
 6418W        W10469   9.474   3.100   1.793
 6419W        W10470   6.032   8.467   9.023
 6420W        W10471  11.492   6.104  11.464
 6421W        W10472  10.941   0.460  11.562
 6422W        W10473   9.206   9.317   0.783
 6423W        W10474   5.120   9.438   0.542
 6424W        W10475   6.182   8.643   3.147
 6425W        W10476   5.553   4.517  10.979
 6426W        W10477   5.451   0.752   1.471
 6427W        W10478   9.302   2.332   2.969
 6428W        W10479   1.290   8.431   2.365
 6429W        W10480   4.235   3.106  11.959
 6430W        W10481   1.016   2.175   9.869
 6431W        W10482   1.806   7.792   0.392
 6432W        W10483   4.080   2.224   0.377
 6433W        W10484   2.817   8.531   9.134
 6434W        W10485   8.615  10.832   1.439
 6435W        W10486   7.939   8.897  10.583
 6436W        W10487   8.606   8.090   0.662
 6437W        W10488   7.010   7.921   2.053
 6438W        W10489   7.219   1.912   2.138
 6439W        W10490  11.253   3.234   2.300
 6440W        W10491   8.496   2.912   2.275
 6441W        W10492   4.225   9.562   3.246
 6442W        W10493   3.081   4.243   9.389
 6443W        W10494  10.416   1.632   9.460
 6444W        W10495   9.912   2.586  10.786
 6445W        W10496   2.803   9.695  10.451
 6446W        W10497   0.651   8.145   8.723
 6447W        W10498   3.699   8.696   8.232
 6448W        W10499   2.307   5.935  11.423
 6449W        W10500  11.446   7.973  10.326
 6450W        W10501  10.563   2.639  11.358
 6451W        W10502   3.927   9.592   9.940
 6452W        W10503   2.375   4.363   2.723
 6453W        W10504  11.274   6.526  11.755
 6454W        W10505  10.748  10.235   2.687
 6455W        W10506   9.322   5.246   2.916
 6456W        W10507   0.267   6.970   3.441
 6457W        W10508   5.513   0.275   9.152
 6458W        W10509   3.190   7.623   9.480
 6459W        W10510  11.491  10.765  11.552
 6460W        W10511   8.176  10.018   8.498
 6461W        W10512   1.078   1.919   1.913
 6462W        W10513   5.174   4.144  11.607
 6463W        W10514   5.675   5.275   2.258
 6464W        W10515   1.315   2.655   2.513
 6465W        W10516   9.976   1.264  10.537
 6466W        W10517   9.846   0.707  10.047
 6467W        W10518   4.052   8.460   2.430
 6468W        W10519   8.823   0.533   0.342
 6469W        W10520   8.958   4.584  10.470
 6470W        W10521   4.969   2.112   2.749
 6471W        W10522   8.223  10.037  11.412
 6472W        W10523  10.706   9.482   0.175
 6473W        W10524   1.544   0.684  10.847
 6474W        W10525   7.406   6.608  10.956
 6475W        W10526   8.565   6.546   3.643
 6476W        W10527   3.871   3.002   3.193
 6477W        W10528   9.433   0.175  11.792
 6478W        W10529   8.385   8.593  11.434
 6479W        W10530   4.771   5.708   1.051
 6480W        W10531   0.651  10.481   2.762
 6481W        W10532  10.495   6.488   8.803
 6482W        W10533   0.462   3.669   0.670
 6483W        W10534   0.708   2.196   9.437
 6484W        W10535   1.243   0.741   2.349
 6485W        W10536  10.552   9.286  11.717
 6486W        W10537   4.908   8.294   3.334
 6487W        W10538   7.611   7.519   9.894
 6488W        W10539   1.668   1.968  10.925
 6489W        W10540   4.630   7.528   0.131
 6490W        W10541   0.785  10.185  11.656
 6491W        W10542   2.094   3.316   0.725
 6492W        W10543   0.476  11.412   1.444
 6493W        W10544   1.858   5.542  11.298
 6494W        W10545   4.925   4.099   1.961
 6495W        W10546   3.812   7.026   1.013
 6496W        W10547  10.637   5.891   2.839
 6497W        W10548   8.222   4.376   0.286
 6498W        W10549   0.798   8.868   9.737
 6499W        W10550   7.377  11.253   3.100
 6500W        W10551   9.121   1.900   0.624
 6501W        W10552   9.498  11.326   3.237
 6502W        W10553   2.708   7.659   1.182
 6503W        W10554   6.929   4.992   1.630
 6504W        W10555  11.388   3.414   0.682
 6505W        W10556   2.481   7.081   1.072
 6506W        W10557   0.304   0.677   0.633
 6507W        W10558   5.246   9.951   9.642
 6508W        W10559   3.615   3.043   1.905
 6509W        W10560   5.643   5.350   0.819
 6510W        W10561   7.381   9.425   2.423
 6511W        W10562   1.485   2.299  10.195
 6512W        W10563   3.581   6.492   8.556
 6513W        W10564   2.046   7.426   2.351
 6514W        W10565  11.288  10.048   2.718
 6515W        W10566   4.565   1.365   2.237
 6516W        W10567   6.965   4.177   0.025
 6517W        W10568   0.718   5.357   9.981
 6518W        W10569   6.685   1.703  11.185
 6519W        W10570   8.569  11.354   3.326
 6520W        W10571   7.150   1.988   0.633
 6521W        W10572   1.453   0.716   0.040
 6522W        W10573   7.763   9.913  11.230
 6523W        W10574   4.114   0.457  11.997
 6524W        W10575   8.084   8.197   9.966
 6525W        W10576   0.348   6.492   3.775
 6526W        W10577   4.548   5.751  11.501
 6527W        W10578   4.030  10.532   9.753
 6528W        W10579   5.679   2.346  10.746
 6529W        W10580   8.845   9.293   9.269
 6530W        W10581   1.862   6.933   2.228
 6531W        W10582   0.398  10.826  11.839
 6532W        W10583   3.058  10.851  11.273
 6533W        W10584   0.785   9.958  10.560
 6534W        W10585   2.523   5.385   8.202
 6535W        W10586   6.625   6.682  11.300
 6536W        W10587   3.199   3.304  10.936
 6537W        W10588  10.839  10.283  11.810
 6538W        W10589   1.247  11.167   2.715
 6539W        W10590   3.770  10.941  10.534
 6540W        W10591   7.578   1.978  11.388
 6541W        W10592   4.001  11.468  11.830
 6542W        W10593   0.884   0.809   1.271
 6543W        W10594   1.885   8.626   9.496
 6544W        W10595   3.635   6.171   0.988
 6545W        W10596   9.777   1.690  10.748
 6546W        W10597   3.280   5.611  11.968
 6547W        W10598   0.594   7.267   2.158
 6548W        W10599   5.806   7.011   2.653
 6549W        W10600   9.772  11.420  11.495
 6550W        W10601   5.275   6.741   1.364
 6551W        W10602   6.229   4.125   4.099
 6552W        W10603   1.552   5.992  11.242
 6553W        W10604   6.539   6.893   1.197
 6554W        W10605   7.143   7.656  10.429
 6555W        W10606   6.524   7.755  10.967
 6556W        W10607   4.174  10.991   2.971
 6557W        W10608   7.099   0.830  10.789
 6558W        W10609   5.945   0.000   9.464
 6559W        W10610   5.877   9.528   9.838
 6560W        W10611   3.796   8.934   2.327
 6561W        W10612   4.167   6.250   3.729
 6562W        W10613   1.281   2.804   0.372
 6563W        W10614  10.538   2.378  10.051
 6564W        W10615   0.338  11.448   2.787
 6565W        W10616   0.353   7.256   1.698
 6566W        W10617   3.184   2.118  11.971
 6567W        W10618   2.865   2.797  11.417
 6568W        W10619   5.426   9.238   3.208
 6569W        W10620   9.974   8.386   2.403
 6570W        W10621  10.869  11.136   1.664
 6571W        W10622   1.642   9.168   3.202
 6572W        W10623   2.347  11.093  10.463
 6573W        W10624   7.465   0.954   0.577
 6574W        W10625   1.626   1.327  11.438
 6575W        W10626   6.643   3.109   2.465
 6576W        W10627   2.141   6.567   8.679
 6577W        W10628   2.857   6.227  10.613
 6578W        W10629   4.247   3.527  10.887
 6579W        W10630   6.427   3.127   8.495
 6580W        W10631   2.296   2.464  10.602
 6581W        W10632   1.621   7.047   9.352
 6582W        W10633  11.241   7.631   2.698
 6583W        W10634   9.240   0.639   0.595
 6584W        W10635   1.769   8.671   2.259
 6585W        W10636   5.125  11.289   9.870
 6586W        W10637   2.227   9.483   9.174
 6587W        W10638   9.975   3.282   1.907
 6588W        W10639   8.767   3.359  11.972
 6589W        W10640   4.254   0.084   9.844
 6590W        W10641   9.848   2.428   1.875
 6591W        W10642  10.961   8.189   0.727
 6592W        W10643   9.716   0.705   0.403
 6593W        W10644   5.186   5.981   0.991
 6594W        W10645   7.754   4.555   9.040
 6595W        W10646   3.241   2.643   0.854
 6596W        W10647   5.213   6.092  10.328
 6597W        W10648  10.019   8.140  11.788
 6598W        W10649   6.123   0.964   0.862
 6599W        W10650   1.978   3.397  10.953
 6600W        W10651  10.222   6.099   0.769
 6601W        W10652   8.998   7.845  11.529
 6602W        W10653   1.365   1.915   3.270
 6603W        W10654   6.580   8.645   1.816
 6604W        W10655   6.305   7.179   8.976
 6605W        W10656  10.789   0.769   9.048
 6606W        W10657   2.771   8.872   9.544
 6607W        W10658  11.264   8.594   0.711
 6608W        W10659   3.542   4.108   0.951
 6609W        W10660   4.042   6.174   0.136
 6610W        W10661   4.409   1.775   0.695
 6611W        W10662   6.209   0.291  10.810
 6612W        W10663   4.094  11.441   0.787
 6613W        W10664   7.662   8.862   0.563
 6614W        W10665   2.014   3.029  11.711
 6615W        W10666   8.156   2.840  10.406
 6616W        W10667   1.309   3.614  11.706
 6617W        W10668   4.555   3.385  10.403
 6618W        W10669   4.893   7.151  11.392
 6619W        W10670   5.674   6.309  10.175
 6620W        W10671   7.462   3.860   1.589
 6621W        W10672   0.152   5.640   0.599
 6622W        W10673  10.271   8.583  10.107
 6623W        W10674   7.198   3.085   1.966
 6624W        W10675   5.996   2.365   9.493
 6625W        W10676   4.617   1.448   9.375
 6626W        W10677   4.491   4.686   3.231
 6627W        W10678  10.093   7.440  10.311
 6628W        W10679  10.054  10.919   0.789
 6629W        W10680  11.329   5.260  11.109
 6630W        W10681   4.797   1.341  10.311
 6631W        W10682   0.825   3.502   9.548
 6632W        W10683   5.776   4.374   0.690
 6633W        W10684  10.166   7.520   1.618
 6634W        W10685   8.710   1.293   9.769
 6635W        W10686   3.244   8.620   0.237
 6636W        W10687   5.912   1.634  11.040
 6637W        W10688   4.968   1.765   4.071
 6638W        W10689   6.986   1.321   1.195
 6639W        W10690   7.876   5.235   9.503
 6640W        W10691   0.466   3.750   2.809
 6641W        W10692   8.078  11.384  10.872
 6642W        W10693   1.931   5.266   9.006
 6643W        W10694   1.387   2.820  10.338
 6644W        W10695   8.166  11.303   9.972
 6645W        W10696   9.245   0.387   3.310
 6646W        W10697   0.420  11.220   0.174
 6647W        W10698   8.658  11.254  10.223
 6648W        W10699   2.691   6.551   8.743
 6649W        W10700  10.526   0.692  10.665
 6650W        W10701   5.720   7.729   4.028
 6651W        W10702   3.362   3.362  11.419
 6652W        W10703   4.065  10.363  10.737
 6653W        W10704   9.012   3.344   9.084
 6654W        W10705   6.199   5.693   2.739
 6655W        W10706   4.968   8.119   9.260
 6656W        W10707   9.250   5.918  10.428
 6657W        W10708  10.360   4.131   3.089
 6658W        W10709   3.406   7.389   2.925
 6659W        W10710   7.636   2.115  11.886
 6660W        W10711   3.107   1.387  11.374
 6661W        W10712  10.745  11.273   9.062
 6662W        W10713  10.339   0.992   3.146
 6663W        W10714   4.110   1.237  10.387
 6664W        W10715   5.880  10.859   2.474
 6665W        W10716   2.014  10.355   9.196
 6666W        W10717   1.372   3.722  10.695
 6667W        W10718   1.736   4.606   0.405
 6668W        W10719   4.216   1.215   1.857
 6669W        W10720   9.006   8.982   9.838
 6670W        W10721   1.306   4.572  10.800
 6671W        W10722   4.247   2.779   1.567
 6672W        W10723   0.711   4.164   1.212
 6673W        W10724   9.302  10.424   3.817
 6674W        W10725  10.736   6.073   1.546
 6675W        W10726   2.132  10.614   1.811
 6676W        W10727  11.192   0.709   3.152
 6677W        W10728   0.578   1.905  11.142
 6678W        W10729   1.871   9.977   1.525
 6679W        W10730   7.600   6.217  10.205
 6680W        W10731   4.364   6.651  11.832
 6681W        W10732   0.104   1.689  11.266
 6682W        W10733   7.613  10.322  10.968
 6683W        W10734   7.581   8.016  10.646
 6684W        W10735   3.749   4.994   9.351
 6685W        W10736   5.121   0.315   1.302
 6686W        W10737   1.216   5.940  10.852
 6687W        W10738   9.838   8.932   3.319
 6688W        W10739   7.651   5.493   0.905
 6689W        W10740   2.227   8.783   2.475
 6690W        W10741   7.583   1.915   9.225
 6691W        W10742   9.309   4.850  10.057
 6692W        W10743   7.144   7.442   9.060
 6693W        W10744  10.911  10.941   3.038
 6694W        W10745   7.977   2.333   9.703
 6695W        W10746   3.714   6.609  10.817
 6696W        W10747   7.856  10.831   3.383
 6697W        W10748   3.940  10.289  11.356
 6698W        W10749   5.390   8.476  10.956
 6699W        W10750   0.571   9.071  10.183
 6700W        W10751   0.251   3.172   2.285
 6701W        W10752   6.091   2.525  10.984
 6702W        W10753  10.634   8.399   1.359
 6703W        W10754   3.215  11.491   9.204
 6704W        W10755  10.141   4.240   9.112
 6705W        W10756   6.787   1.838   2.408
 6706W        W10757   0.823   4.568  10.478
 6707W        W10758   5.746   2.828   2.824
 6708W        W10759   9.964   2.715   0.158
 6709W        W10760   3.910   7.267   2.838
 6710W        W10761  10.160   0.258   3.415
 6711W        W10762   7.384   1.027   2.377
 6712W        W10763   7.944   3.307  11.138
 6713W        W10764   0.816   7.389   0.813
 6714W        W10765   1.858   3.113  10.169
 6715W        W10766   1.808   6.416   0.378
 6716W        W10767   5.560   1.904  11.982
 6717W        W10768   2.345   9.583  10.649
 6718W        W10769   6.179   2.512  11.504
 6719W        W10770   4.508   6.112   1.282
 6720W        W10771   4.737  11.481   0.404
 6721W        W10772   9.037   7.370  10.411
 6722W        W10773   1.650  11.008  11.540
 6723W        W10774   4.163   9.550  11.485
 6724W        W10775   6.285   8.733   2.214
 6725W        W10776   3.658   0.890  10.412
 6726W        W10777   0.938   6.270  11.823
 6727W        W10778   8.823   7.621   8.840
 6728W        W10779   5.346   4.457   0.948
 6729W        W10780   9.991   3.245   8.750
 6730W        W10781   8.067   1.933  11.570
 6731W        W10782   9.620   9.474   3.323
 6732W        W10783   5.573   4.614   1.913
 6733W        W10784   5.845   7.085   9.196
 6734W        W10785   3.419   1.941   2.162
 6735W        W10786   8.425   5.916   9.898
 6736W        W10787   8.357   8.396   9.553
 6737W        W10788   0.217   4.082   1.365
 6738W        W10789   6.111   1.602   9.062
 6739W        W10790   4.766   7.958   1.124
 6740W        W10791   8.971   9.222   3.553
 6741W        W10792  10.001   7.976   1.525
 6742W        W10793   6.835  10.936   2.213
 6743W        W10794   9.431   3.361   8.748
 6744W        W10795   8.823   0.140   3.703
 6745W        W10796   2.961   0.696   0.281
 6746W        W10797   6.026   2.149   9.941
 6747W        W10798   4.948   2.617   1.785
 6748W        W10799   7.054   8.669   9.506
 6749W        W10800   7.801  10.377  11.440
 6750W        W10801   5.674   0.763   2.717
 6751W        W10802  11.388   5.177   9.901
 6752W        W10803   7.439  10.033  11.618
 6753W        W10804   7.127  11.165   1.330
 6754W        W10805  11.377   3.835  11.367
 6755W        W10806   9.860   9.997  11.928
 6756W        W10807   7.146   8.904   0.483
 6757W        W10808   2.165   4.982  11.747
 6758W        W10809   4.753   8.917   2.757
 6759W        W10810   2.700   9.502   1.694
 6760W        W10811  10.731   7.718   2.243
 6761W        W10812   1.749   2.681   9.891
 6762W        W10813   5.391   9.368   9.927
 6763W        W10814   2.323  10.050  11.383
 6764W        W10815  11.439   8.112   0.909
 6765W        W10816   8.199   1.199   0.632
 6766W        W10817   9.985   7.604   0.321
 6767W        W10818   5.105   7.239  10.924
 6768W        W10819   3.535   6.908   2.794
 6769W        W10820   8.616   3.018   1.245
 6770W        W10821   7.758   3.582   1.256
 6771W        W10822   1.371   7.168  11.560
 6772W        W10823   0.905   3.806   0.424
 6773W        W10824   2.794   2.853   1.005
 6774W        W10825  10.319  11.013  11.861
 6775W        W10826   6.512   2.343  10.758
 6776W        W10827   9.474   6.940   9.704
 6777W        W10828   4.767   9.911  10.958
 6778W        W10829   6.745   0.986   3.883
 6779W        W10830  10.511   7.295   1.329
 6780W        W10831  11.321   0.141   9.584
 6781W        W10832   5.183   9.001  10.753
 6782W        W10833   2.350   1.964  10.520
 6783W        W10834   5.071   9.337   2.413
 6784W        W10835   3.141   5.121   3.792
 6785W        W10836  11.300   5.267   0.506
 6786W        W10837   8.182   6.004   8.445
 6787W        W10838   9.758   0.491   1.810
 6788W        W10839  10.489   3.868  10.908
 6789W        W10840   1.173   6.708   8.694
 6790W        W10841   2.071   7.602   3.654
 6791W        W10842   4.478   1.442  10.683
 6792W        W10843   6.042   7.542  10.268
 6793W        W10844   2.701   7.525   9.336
 6794W        W10845   4.379  10.694   9.382
 6795W        W10846   4.795   7.165  10.333
 6796W        W10847   7.939  10.323   1.557
 6797W        W10848   7.959   1.235   1.430
 6798W        W10849   7.146   6.793   2.682
 6799W        W10850   9.185   8.430   1.265
 6800W        W10851   5.765   2.634   0.455
 6801W        W10852   1.886   2.149  10.489
 6802W        W10853   3.034   2.491  11.040
 6803W        W10854  10.417   7.435   2.964
 6804W        W10855  11.087   0.437   1.418
 6805W        W10856   5.901   4.281  11.381
 6806W        W10857   7.501   5.349   1.365
 6807W        W10858   7.119   9.546   2.867
 6808W        W10859   9.380   8.871   1.495
 6809W        W10860   5.630  10.757   3.478
 6810W        W10861   7.892   2.367   9.204
 6811W        W10862   3.694   7.031   0.030
 6812W        W10863   2.290  11.091   1.848
 6813W        W10864  11.419   0.522   0.956
 6814W        W10865   3.283   8.883   1.038
 6815W        W10866   7.351   6.982   8.860
 6816W        W10867   8.911   7.622   9.988
 6817W        W10868  10.499   9.089   8.698
 6818W        W10869   4.830   6.663  11.269
 6819W        W10870   0.390   4.882   1.624
 6820W        W10871   2.430   6.454  11.471
 6821W        W10872   9.432   9.861   2.810
 6822W        W10873   8.799   5.754  11.898
 6823W        W10874  10.894   0.357   9.356
 6824W        W10875   4.999   7.482   0.953
 6825W        W10876   2.356  10.315   0.911
 6826W        W10877  10.333   6.322   1.276
 6827W        W10878   5.323   9.789   0.216
 6828W        W10879  11.267   4.690   3.295
 6829W        W10880   5.234   0.805  11.774
 6830W        W10881   5.131   2.600   3.617
 6831W        W10882   5.742   4.098  10.746
 6832W        W10883   9.313  10.361   2.839
 6833W        W10884   1.833   7.809   2.688
 6834W        W10885  10.767   7.103   0.904
 6835W        W10886   9.882   4.739   0.208
 6836W        W10887   9.984   1.230   2.090
 6837W        W10888   3.193   4.743   0.897
 6838W        W10889   2.974   3.429  11.747
 6839W        W10890   0.663  10.444   0.086
 6840W        W10891   6.686   8.721   2.661
 6841W        W10892   8.471   9.478  10.130
 6842W        W10893   1.811   5.532   2.997
 6843W        W10894  11.407   2.903   2.681
 6844W        W10895   5.483  11.313   9.409
 6845W        W10896   9.014   9.914   0.868
 6846W        W10897   8.407   3.466  10.922
 6847W        W10898   6.539   1.660  10.188
 6848W        W10899   0.830   5.328  11.888
 6849W        W10900   2.681   8.157   1.304
 6850W        W10901   9.383   4.225  10.366
 6851W        W10902   7.494   6.700   0.328
 6852W        W10903   9.988   3.755   1.149
 6853W        W10904   2.167   7.410  10.579
 6854W        W10905   9.234   7.908   9.737
 6855W        W10906   8.475   9.889   9.829
 6856W        W10907   2.696   3.780  11.991
 6857W        W10908   1.009   0.706  10.872
 6858W        W10909  10.537  10.300   9.640
 6859W        W10910   6.249   1.298   8.670
 6860W        W10911   0.501   6.018   3.087
 6861W        W10912   0.808   4.548   9.538
 6862W        W10913   7.470   1.415   1.400
 6863W        W10914   9.407   5.833  11.322
 6864W        W10915  10.851   1.335  11.638
 6865W        W10916   8.894   4.779  11.790
 6866W        W10917   2.512   3.316  10.861
 6867W        W10918   6.375   1.371  10.926
 6868W        W10919   7.475   7.369   0.812
 6869W        W10920   1.342  10.916   2.283
 6870W        W10921   8.904   7.411   3.264
 6871W        W10922   5.553  10.407   2.512
 6872W        W10923   4.127  10.368  11.828
 6873W        W10924   1.354   1.805   9.960
 6874W        W10925   3.781   4.158   2.808
 6875W        W10926   5.045   6.047  11.994
 6876W        W10927   9.448   8.418   2.650
 6877W        W10928   7.654   5.560   2.196
 6878W        W10929   1.216  10.046   3.260
 6879W        W10930   5.557   7.567   0.911
 6880W        W10931  10.427   9.993   3.143
 6881W        W10932   4.259   5.232   0.552
 6882W        W10933   4.255   2.200   9.281
 6883W        W10934   8.912   7.159   2.807
 6884W        W10935   5.776   3.687  11.491
 6885W        W10936   7.940   2.757   1.696
 6886W        W10937   3.199   2.341  11.510
 6887W        W10938   7.494  10.003   1.773
 6888W        W10939   2.353   6.675   9.133
 6889W        W10940   9.034   9.538   1.706
 6890W        W10941   4.125  10.262   9.310
 6891W        W10942   3.167   6.169   1.777
 6892W        W10943   1.685   8.145  11.442
 6893W        W10944   6.134   0.196   1.370
 6894W        W10945   2.944   3.320   2.283
 6895W        W10946   4.178  11.452   8.913
 6896W        W10947   8.960   8.743   3.273
 6897W        W10948   7.159   8.154  10.351
 6898W        W10949   7.289   2.243   1.217
 6899W        W10950  10.093   8.096   9.887
 6900W        W10951   5.675   1.771   0.485
 6901W        W10952   0.818  11.344  10.901
 6902W        W10953   0.700  10.742   9.415
 6903W        W10954   3.297  11.214   2.605
 6904W        W10955   0.296   7.883   9.052
 6905W        W10956   2.009   7.601  10.125
 6906W        W10957   4.698   1.896  10.502
 6907W        W10958   7.571  10.429   1.172
 6908W        W10959   5.286   8.854   9.904
 6909W        W10960   7.196   5.336   0.697
 6910W        W10961   8.009   7.463   0.420
 6911W        W10962   5.609   3.116   0.427
 6912W        W10963  10.956   8.950  10.983
 6913W        W10964   3.662  10.434   9.418
 6914W        W10965   8.047   6.342   9.268
 6915W        W10966  10.296   1.992  10.577
 6916W        W10967   2.837   5.713   3.743
 6917W        W10968   6.107   0.262   0.047
 6918W        W10969   2.361   0.916  11.253
 6919W        W10970   8.126  10.325  11.000
 6920W        W10971   2.668  10.177  10.493
 6921W        W10972   1.429   1.507  10.837
 6922W        W10973   9.543   0.325  11.302
 6923W        W10974   7.153   9.195   9.111
 6924W        W10975   3.323   5.233   0.922
 6925W        W10976   9.879   7.223   0.010
 6926W        W10977   7.501   1.809   0.996
 6927W        W10978   6.908   7.422  10.810
 6928W        W10979  11.219   4.737  11.404
 6929W        W10980   9.261   7.605   2.077
 6930W        W10981   2.841   9.948  10.925
 6931W        W10982   7.505  10.063   3.659
 6932W        W10983  10.818   5.515   0.379
 6933W        W10984  10.456   8.838  10.768
 6934W        W10985   0.867   0.006   2.745
 6935W        W10986  11.056   3.369  11.284
 6936W        W10987  10.727   5.108   2.765
 6937W        W10988   4.259  10.014   0.174
 6938W        W10989   8.071  11.076  11.414
 6939W        W10990   0.278   6.751   9.633
 6940W        W10991   9.776   9.458   9.631
 6941W        W10992   7.358   2.441  10.409
 6942W        W10993   5.289   4.316   3.153
 6943W        W10994   2.668  11.337   9.877
 6944W        W10995   3.457   0.986  10.873
 6945W        W10996   1.633   5.703   9.010
 6946W        W10997   1.649   4.029   9.143
 6947W        W10998   8.433   9.238   1.428
 6948W        W10999   3.395   4.707   1.511
 6949W        W11000   1.624   6.879   1.165
 6950W        W11001   6.807   8.815   9.931
 6951W        W11002   9.828   9.470   1.194
 6952W        W11003   9.011   9.959   1.404
 6953W        W11004   3.118   3.834   2.323
 6954W        W11005   7.353   2.673  10.854
 6955W        W11006   8.432   5.229  10.460
 6956W        W11007   8.367   8.557   0.855
 6957W        W11008   7.487   5.674   0.455
 6958W        W11009  11.356   0.315   3.468
 6959W        W11010   8.014   0.729   1.342
 6960W        W11011   0.468   4.009  10.912
 6961W        W11012  10.909   2.470  10.968
 6962W        W11013   6.525   7.683   9.650
 6963W        W11014   4.291   1.355   8.964
 6964W        W11015   6.056   5.015   9.597
 6965W        W11016   5.257   1.663   1.226
 6966W        W11017   5.812  10.030   9.100
 6967W        W11018   6.359  11.426  10.442
 6968W        W11019   4.378   5.610   1.370
 6969W        W11020   8.835   0.970  11.939
 6970W        W11021   3.335   2.204   8.744
 6971W        W11022   9.903   5.968   8.840
 6972W        W11023   7.523   1.702  10.952
 6973W        W11024   3.814  11.427  10.000
 6974W        W11025  10.246   5.344  11.008
 6975W        W11026   7.469   1.340   1.912
 6976W        W11027   9.799   7.499   2.294
 6977W        W11028   5.532   8.523  11.991
 6978W        W11029   5.787  11.032   9.699
 6979W        W11030   6.208   4.077   9.947
 6980W        W11031   5.485  11.423  11.769
 6981W        W11032   8.531   0.794   0.708
 6982W        W11033   5.732   8.894   9.092
 6983W        W11034   9.548  11.280   9.771
 6984W        W11035   2.773   0.715   3.146
 6985W        W11036   4.531   9.271  10.238
 6986W        W11037   6.642   5.175  11.058
 6987W        W11038   4.763   3.301   2.317
 6988W        W11039   2.428   5.173   9.956
 6989W        W11040  11.236   6.504   1.830
 6990W        W11041   2.874   1.950   2.161
 6991W        W11042   3.719   6.244  10.159
 6992W        W11043  11.282   7.372  10.150
 6993W        W11044   4.678  11.445   3.432
 6994W        W11045  10.306   2.039   1.230
 6995W        W11046   9.530   0.437   8.972
 6996W        W11047   8.312   0.674   9.814
 6997W        W11048   3.974  10.272   3.842
 6998W        W11049   1.203   4.555  11.692
 6999W        W11050   5.111   7.099   9.931
 7000W        W11051   6.311  11.180   0.664
 7001W        W11052   2.667   1.389  11.762
 7002W        W11053  10.351   9.546   8.478
 7003W        W11054   9.131   2.865   8.919
 7004W        W11055   1.903   0.093   8.973
 7005W        W11056   7.584   1.049   8.948
 7006W        W11057   3.777   2.869  11.838
 7007W        W11058   6.947   4.055   9.482
 7008W        W11059   2.746   2.938  10.078
 7009W        W11060   0.289   4.020   9.833
 7010W        W11061  10.171   1.921   0.754
 7011W        W11062   1.849  10.809   3.156
 7012W        W11063   8.972   4.121  10.678
 7013W        W11064   2.066   6.357   3.460
 7014W        W11065   2.782  11.235   1.681
 7015W        W11066  10.293   5.699   0.380
 7016W        W11067  10.852   1.341   1.538
 7017W        W11068   9.878   1.192   0.439
 7018W        W11069   1.025   7.049   0.467
 7019W        W11070   0.972   4.973   2.764
 7020W        W11071   7.288   7.148  10.579
 7021W        W11072  11.434   1.048   0.906
 7022W        W11073   2.925  11.296   0.124
 7023W        W11074   5.779   6.682   2.240
 7024W        W11075   1.856   0.884  11.281
 7025W        W11076   4.004   8.400  11.191
 7026W        W11077   7.354   2.339   0.289
 7027W        W11078   0.846   4.658   0.453
 7028W        W11079   1.327   9.798   8.876
 7029W        W11080   8.661   2.954   9.137
 7030W        W11081   6.756   9.033   3.454
 7031W        W11082   4.309   5.656   0.847
 7032W        W11083   6.060   3.691  10.680
 7033W        W11084   5.505   6.305   1.194
 7034W        W11085   4.983   3.649   8.672
 7035W        W11086   5.983   9.983   9.600
 7036W        W11087   6.505  10.889   1.824
 7037W        W11088  11.355   1.702   2.613
 7038W        W11089   7.603   2.767   0.425
 7039W        W11090   0.321   8.139   2.213
 7040W        W11091   9.053   4.658   9.104
 7041W        W11092   1.418  10.805   8.814
 7042W        W11093   7.810   0.206   2.237
 7043W        W11094   3.407   8.977   0.551
 7044W        W11095   7.965   3.652   0.792
 7045W        W11096   5.115   9.748  10.108
 7046W        W11097   8.819   0.882   1.954
 7047W        W11098  10.182  11.175   2.753
 7048W        W11099   5.671   1.288   3.470
 7049W        W11100   6.002   8.921  11.514
 7050W        W11101   5.630   4.659   2.413
 7051W        W11102   8.381   0.769   0.204
 7052W        W11103   8.075   5.825   3.657
 7053W        W11104   0.627   0.920   9.073
 7054W        W11105   2.851   4.217  11.714
 7055W        W11106  11.198   5.983   2.815
 7056W        W11107   7.509   8.024   1.591
 7057W        W11108   5.362   0.318  10.515
 7058W        W11109   5.725   6.586   9.148
 7059W        W11110   7.877   7.879   2.074
 7060W        W11111   8.912  10.412  10.343
 7061W        W11112   7.915  10.777  11.788
 7062W        W11113  10.993   0.318   0.526
 7063W        W11114   3.562   4.004  10.548
 7064W        W11115  10.154   1.431   0.933
 7065W        W11116   9.993   6.513  10.420
 7066W        W11117   4.187   2.702   3.507
 7067W        W11118   6.581   1.786   8.913
 7068W        W11119   5.714   8.171   9.521
 7069W        W11120   3.205   9.339   1.795
 7070W        W11121   7.533  11.455   1.186
 7071W        W11122   1.792   8.684   3.188
 7072W        W11123   7.342   8.337  11.778
 7073W        W11124   6.798  10.382  11.314
 7074W        W11125   0.841   8.547  10.781
 7075W        W11126   5.762  11.453   0.264
 7076W        W11127   6.725   6.327  11.774
 7077W        W11128   9.709   8.235   3.651
 7078W        W11129   5.759   8.833   0.954
 7079W        W11130  10.527   5.515   0.840
 7080W        W11131   9.152  10.431   3.305
 7081W        W11132   7.884  10.955   9.649
 7082W        W11133   6.632  10.901   9.239
 7083W        W11134   2.455   7.053  10.336
 7084W        W11135  10.753   0.337   0.062
 7085W        W11136   6.650   9.126  10.861
 7086W        W11137   4.071   2.837   2.049
 7087W        W11138   8.154   9.875   1.390
 7088W        W11139   5.101   4.520   2.227
 7089W        W11140   0.883   4.146   1.694
 7090W        W11141   6.888   2.504   9.987
 7091W        W11142   2.626   4.935  10.392
 7092W        W11143   8.271   0.356  11.854
 7093W        W11144   7.646   9.056   9.194
 7094W        W11145   3.730   5.738   0.182
 7095W        W11146  10.357   6.103   3.229
 7096W        W11147   0.024  10.805   1.360
 7097W        W11148   4.718   0.341   9.929
 7098W        W11149   5.984   3.360   8.563
 7099W        W11150   8.420  10.528   0.882
 7100W        W11151   4.718   4.134   0.439
 7101W        W11152   0.008   1.818   1.169
 7102W        W11153  10.810   7.356   2.585
 7103W        W11154   5.559   9.402   8.997
 7104W        W11155   1.415   9.155   0.161
 7105W        W11156   9.404   0.478  10.360
 7106W        W11157   2.634   7.059  11.209
 7107W        W11158   2.849  10.930  11.755
 7108W        W11159   2.115   7.333   9.396
 7109W        W11160   1.674   9.635   0.773
 7110W        W11161   0.960  10.122  11.014
 7111W        W11162   9.983   2.854  11.674
 7112W        W11163   2.352   1.554   9.619
 7113W        W11164   8.596   3.373   1.600
 7114W        W11165   0.135  10.508   2.789
 7115W        W11166  11.398   8.458   2.253
 7116W        W11167   8.451   7.106   9.414
 7117W        W11168   5.186   1.605   2.682
 7118W        W11169   9.850   6.130   3.076
 7119W        W11170   7.971   6.967   3.098
 7120W        W11171   6.989   6.585   8.804
 7121W        W11172   1.764   6.469   0.882
 7122W        W11173   6.540   1.828  10.675
 7123W        W11174   2.731   5.736  10.734
 7124W        W11175   6.072  11.303  10.847
 7125W        W11176   1.105   5.748  10.051
 7126W        W11177   1.259   8.870  10.032
 7127W        W11178   5.067   2.976   0.910
 7128W        W11179   0.739   6.506  11.349
 7129W        W11180   8.457   1.127   1.633
 7130W        W11181   7.856   7.424   2.323
 7131W        W11182   2.814   2.574   3.327
 7132W        W11183   5.560   1.347  11.829
 7133W        W11184   2.019   7.679  11.428
 7134W        W11185   8.424   0.740  11.151
 7135W        W11186   0.465   6.727  10.525
 7136W        W11187   1.955  11.133   1.159
 7137W        W11188   0.248  11.103  10.256
 7138W        W11189   4.009   4.572   9.556
 7139W        W11190  10.893   9.037   0.032
 7140W        W11191   5.100   5.569  11.763
 7141W        W11192   9.853   5.274   3.031
 7142W        W11193   6.628   9.594   8.481
 7143W        W11194  10.030   1.781   9.776
 7144W        W11195   4.702   5.733   0.534
 7145W        W11196   1.325   8.389  10.208
 7146W        W11197   8.391  11.288   9.287
 7147W        W11198   3.128   1.024  10.093
 7148W        W11199   8.659   5.851   8.243
 7149W        W11200   3.566   4.153   9.223
 7150W        W11201   2.337  10.052  10.862
 7151W        W11202   1.767   5.029   9.424
 7152W        W11203   8.060   5.996  10.241
 7153W        W11204   6.971   0.959   2.110
 7154W        W11205   5.204   0.827   2.940
 7155W        W11206   4.608   3.218   0.816
 7156W        W11207   3.507   0.050  11.435
 7157W        W11208   8.054   0.076  11.398
 7158W        W11209   4.601   0.317   8.562
 7159W        W11210   8.506   7.636   0.404
 7160W        W11211  10.328   2.696   1.347
 7161W        W11212   8.565   1.173  11.374
 7162W        W11213   5.351  11.350   3.048
 7163W        W11214   4.882   0.641   3.280
 7164W        W11215  10.038   8.469   9.438
 7165W        W11216   4.137   1.873   8.763
 7166W        W11217   5.216   8.267   1.279
 7167W        W11218   3.335  10.796   2.240
 7168W        W11219   5.132   9.111   1.526
 7169W        W11220   6.756  10.911   0.086
 7170W        W11221   1.613   9.001  10.880
 7171W        W11222  11.366   1.893  11.674
 7172W        W11223   2.609   5.731   1.370
 7173W        W11224   8.611   4.085   0.482
 7174W        W11225   3.353   5.214   1.451
 7175W        W11226   6.882   4.572  11.253
 7176W        W11227  10.820   2.730   0.742
 7177W        W11228   6.483  11.152   3.055
 7178W        W11229   5.100   3.093  11.080
 7179W        W11230   9.429  10.879   0.104
 7180W        W11231   3.778   7.973  10.497
 7181W        W11232   7.136   7.048   0.074
 7182W        W11233   1.463   8.536   9.189
 7183W        W11234   3.869   1.868   1.295
 7184W        W11235   1.185   6.729  11.752
 7185W        W11236   5.190   1.429   0.750
 7186W        W11237   4.735   8.683   1.915
 7187W        W11238   3.319   8.797   8.649
 7188W        W11239   1.278   4.660   0.181
 7189W        W11240   7.228   8.395  10.801
 7190W        W11241   0.664   1.472  10.420
 7191W        W11242   2.617   8.651   1.237
 7192W        W11243   7.022   1.695  10.329
 7193W        W11244   5.063  10.800   0.502
 7194W        W11245   2.646   2.343   2.448
 7195W        W11246  10.785   4.224   2.805
 7196W        W11247   4.661   6.109   1.820
 7197W        W11248   8.806   3.670   1.224
 7198W        W11249   5.525   3.261   2.665
 7199W        W11250   1.801   5.537   9.457
 7200W        W11251   4.452   2.152   2.863
 7201W        W11252   6.157   3.135   8.975
 7202W        W11253   6.547   5.642   1.729
 7203W        W11254   3.598  11.243  10.959
 7204W        W11255   3.363   7.151  10.481
 7205W        W11256   3.805   2.615  10.360
 7206W        W11257  11.406   4.328   9.231
 7207W        W11258   9.465   5.021   0.415
 7208W        W11259   6.543   5.686  11.265
 7209W        W11260   8.693   6.643   8.780
 7210W        W11261   0.587   1.246   9.936
 7211W        W11262   4.299   4.573  10.815
 7212W        W11263   1.056   7.866   3.402
 7213W        W11264   4.145   2.535  11.955
 7214W        W11265   5.741   7.514   8.912
 7215W        W11266   8.094   3.701   9.613
 7216W        W11267   0.383   4.895  11.751
 7217W        W11268   0.841   9.037  10.621
 7218W        W11269   6.948   0.844   2.603
 7219W        W11270   0.209   7.645  10.063
 7220W        W11271   3.818   2.086  11.429
 7221W        W11272   7.006  11.457   2.341
 7222W        W11273   9.143   3.319   2.751
 7223W        W11274   4.080   1.718   9.253
 7224W        W11275   9.435   2.427   9.704
 7225W        W11276   5.221   6.752   9.160
 7226W        W11277   6.123   6.235   9.395
 7227W        W11278   0.231   6.613   0.051
 7228W        W11279   2.253   0.206   1.031
 7229W        W11280   5.523  10.256  10.770
 7230W        W11281   4.986   0.181   3.106
 7231W        W11282   2.213   1.927   3.172
 7232W        W11283   0.767  11.196  11.791
 7233W        W11284   8.068  10.919   2.885
 7234W        W11285   8.665   1.324   0.761
 7235W        W11286   0.541   9.715   0.576
 7236W        W11287   7.020   7.553   9.560
 7237W        W11288   0.113   5.272   0.088
 7238W        W11289   4.673   6.172  11.234
 7239W        W11290   3.838  10.982  11.926
 7240W        W11291   4.563   7.574  10.052
 7241W        W11292   8.340   9.837   3.624
 7242W        W11293   3.585   1.309  10.136
 7243W        W11294   2.765   9.926   2.021
 7244W        W11295   2.141   5.127  10.357
 7245W        W11296   1.783   3.574  11.450
 7246W        W11297   8.548   8.863   9.396
 7247W        W11298   6.507   7.099   1.947
 7248W        W11299   2.619   0.937   9.967
 7249W        W11300   2.664   1.837   2.629
 7250W        W11301   0.235  11.500   1.886
 7251W        W11302   4.103   3.596  10.427
 7252W        W11303   3.716   6.058   8.322
 7253W        W11304   3.295   4.760  10.071
 7254W        W11305   0.418   6.667   1.134
 7255W        W11306   0.766   3.146  11.014
 7256W        W11307   8.621   8.914  11.008
 7257W        W11308   1.721   8.990  11.807
 7258W        W11309   8.345   1.101   1.115
 7259W        W11310   2.537   5.614   8.739
 7260W        W11311   7.429   0.496   2.980
 7261W        W11312   2.714   8.836  10.057
 7262W        W11313   4.771   2.488  11.461
 7263W        W11314  10.878   2.942   2.519
 7264W        W11315   3.466  10.551   0.457
 7265W        W11316   6.229   5.514  11.747
 7266W        W11317   7.548   8.076  11.141
 7267W        W11318   8.860   8.503   0.857
 7268W        W11319   8.136   6.365   1.348
 7269W        W11320   9.998   0.304   9.177
 7270W        W11321   9.772   7.905   3.268
 7271W        W11322   5.083   8.259  11.952
 7272W        W11323   1.761   2.621   8.964
 7273W        W11324  10.337   8.874   2.754
 7274W        W11325   3.681   4.217   8.721
 7275W        W11326  10.364   2.169  11.384
 7276W        W11327   6.266  10.395   9.739
 7277W        W11328   2.331   3.837   8.630
 7278W        W11329   3.801   9.717   0.205
 7279W        W11330   4.188   0.380   2.441
 7280W        W11331  10.384   1.800   1.790
 7281W        W11332  10.954   2.582   2.129
 7282W        W11333   1.844   7.749   9.651
 7283W        W11334   0.426   0.415   1.553
 7284W        W11335   9.086   2.797  11.324
 7285W        W11336  10.822   6.137   9.223
 7286W        W11337   2.204   6.660   1.651
 7287W        W11338  10.266   7.962   3.126
 7288W        W11339  10.885   4.669  11.791
 7289W        W11340   6.773   5.819   1.269
 7290W        W11341   0.832   2.897  10.176
 7291W        W11342   2.749   9.936  10.011
 7292W        W11343  11.286   9.512   9.016
 7293W        W11344   8.956   2.547   3.308
 7294W        W11345   1.007   2.821  10.688
 7295W        W11346   7.500  11.275   2.225
 7296W        W11347   5.699   4.048   4.047
 7297W        W11348   0.906  11.373   0.507
 7298W        W11349   1.183   4.185   0.998
 7299W        W11350   8.466   0.968   9.441
 7300W        W11351  11.162   1.687   3.650
 7301W        W11352   3.692   1.279   1.905
 7302W        W11353   2.288   9.360  11.533
 7303W        W11354   7.072   2.001  11.355
 7304W        W11355   1.741   7.839   0.976
 7305W        W11356   9.109  10.838   1.288
 7306W        W11357  10.135  11.053  11.375
 7307W        W11358   1.378   4.113  11.016
 7308W        W11359   4.195   4.689   1.808
 7309W        W11360  10.513   8.429   1.853
 7310W        W11361   2.347   3.451   3.681
 7311W        W11362   6.748   1.369   3.309
 7312W        W11363   1.558  10.490   0.902
 7313W        W11364   5.458   8.408   0.845
 7314W        W11365   0.367  10.409  11.421
 7315W        W11366   5.041  11.055   2.032
 7316W        W11367   1.058   7.481   1.296
 7317W        W11368   2.043   5.166   1.252
 7318W        W11369   0.480   2.651   0.996
 7319W        W11370   5.656   4.659   2.975
 7320W        W11371   4.499   3.236   9.016
 7321W        W11372   9.881   4.210   0.900
 7322W        W11373   3.863   8.352  11.676
 7323W        W11374   4.257  10.579   1.950
 7324W        W11375   8.849   2.353  11.444
 7325W        W11376   6.223   9.233   0.288
 7326W        W11377   0.295   5.147   0.664
 7327W        W11378   5.684   2.806  10.488
 7328W        W11379   0.450  10.993  10.742
 7329W        W11380   0.480   2.137   9.889
 7330W        W11381   0.498   6.720   2.130
 7331W        W11382  10.413   1.980   9.071
 7332W        W11383   6.887   6.047  11.382
 7333W        W11384   9.038   0.318   1.379
 7334W        W11385   2.710   6.216   0.482
 7335W        W11386  11.364  10.240   0.261
 7336W        W11387   9.053   2.129   2.129
 7337W        W11388   1.176   7.925   2.363
 7338W        W11389   3.316   5.089  11.909
 7339W        W11390   6.489   4.509  10.516
 7340W        W11391   9.286   0.573   0.091
 7341W        W11392   1.749   9.057   9.253
 7342W        W11393   3.350   1.757   8.466
 7343W        W11394  10.008   0.944   0.873
 7344W        W11395   9.985   2.405   0.799
 7345W        W11396   0.689  11.243   9.509
 7346W        W11397   8.680   6.099   8.689
 7347W        W11398   7.914   4.265   9.812
 7348W        W11399   9.002  10.185  11.920
 7349W        W11400   6.955   0.840   9.728
 7350W        W11401   7.959   4.498  10.278
 7351W        W11402   9.644   2.923   8.971
 7352W        W11403  10.390   0.952   2.246
 7353W        W11404  11.314   6.145   9.414
 7354W        W11405   5.829   2.305   1.185
 7355W        W11406   6.529   0.247   2.377
 7356W        W11407   8.254   7.890   9.567
 7357W        W11408   8.055   7.159   0.002
 7358W        W11409   7.945  11.236   1.448
 7359W        W11410   2.785   4.985   0.730
 7360W        W11411   4.947   7.069   9.448
 7361W        W11412   4.681   4.760   2.029
 7362W        W11413   1.798   2.328   0.971
 7363W        W11414   0.321   5.765  10.341
 7364W        W11415   2.866   3.704   0.490
 7365W        W11416   4.981   1.784   8.794
 7366W        W11417  10.692   6.810   9.901
 7367W        W11418   2.259   0.263   0.513
 7368W        W11419   4.159   4.877  10.384
 7369W        W11420   2.013   5.406   0.790
 7370W        W11421   6.060   6.480  10.682
 7371W        W11422   8.755   9.520   0.652
 7372W        W11423   9.962   5.655   2.487
 7373W        W11424  10.347   7.448   0.675
 7374W        W11425   1.476  11.383  10.413
 7375W        W11426  10.706   9.647   0.668
 7376W        W11427   8.623   2.553   1.046
 7377W        W11428   4.292   9.963  11.172
 7378W        W11429   8.761   5.919  10.297
 7379W        W11430   8.430   3.834   0.888
 7380W        W11431   2.094   8.081   0.722
 7381W        W11432  11.171   3.570   3.281
 7382W        W11433   7.463  10.491   2.631
 7383W        W11434   9.031   8.593   2.287
 7384W        W11435   0.961   6.924   2.251
 7385W        W11436   7.620  11.328  11.641
 7386W        W11437  10.385   8.919   1.398
 7387W        W11438   3.764   7.101   1.965
 7388W        W11439   0.559   3.685   1.343
 7389W        W11440   3.539   0.737   9.940
 7390W        W11441   0.577   9.123   2.217
 7391W        W11442  11.411   8.630  10.872
 7392W        W11443   7.319   2.820   2.823
 7393W        W11444   8.721   8.381   1.501
 7394W        W11445   3.686   3.644   9.375
 7395W        W11446   4.716   5.717  11.007
 7396W        W11447   5.329   7.277   9.146
 7397W        W11448   7.415   0.523   2.478
 7398W        W11449   3.221   3.137   9.916
 7399W        W11450   9.723   0.311   3.127
 7400W        W11451   2.419   9.950   3.439
 7401W        W11452   7.814  10.596  10.593
 7402W        W11453   7.239   1.324   3.224
 7403W        W11454   1.385   0.247   1.408
 7404W        W11455   4.480   8.472   1.122
 7405W        W11456   5.737   2.817  11.547
 7406W        W11457   1.144   1.016   0.331
 7407W        W11458   6.567   8.126   1.867
 7408W        W11459   2.825   2.710   0.368
 7409W        W11460   9.484   1.948   9.530
 7410W        W11461   3.578   7.004  11.529
 7411W        W11462   0.759   6.064   9.479
 7412W        W11463  10.253   2.920  11.029
 7413W        W11464   3.579   3.185   9.108
 7414W        W11465   2.139   0.973   3.619
 7415W        W11466   5.485   7.557  11.902
 7416W        W11467  11.323   2.718   0.783
 7417W        W11468   6.540   6.650  10.229
 7418W        W11469   7.427  10.243  10.514
 7419W        W11470   6.075   5.075   1.539
 7420W        W11471   3.593   1.812  11.837
 7421W        W11472   1.818   3.598   0.391
 7422W        W11473   5.072   4.229   1.336
 7423W        W11474   3.249   4.701   2.011
 7424W        W11475   6.087   7.749   3.658
 7425W        W11476   7.559   4.487   9.515
 7426W        W11477   5.405   9.060   0.192
 7427W        W11478  10.809   5.586   1.689
 7428W        W11479   8.592   8.882   2.217
 7429W        W11480   9.319   3.643   1.329
 7430W        W11481   8.228   8.150  11.753
 7431W        W11482   2.420   7.404   1.506
 7432W        W11483   9.073   2.668   9.391
 7433W        W11484   2.341   9.993   8.998
 7434W        W11485   6.763   4.192   0.496
 7435W        W11486   8.914   1.013   0.445
 7436W        W11487   9.911  11.253   0.213
 7437W        W11488   5.931  10.652  11.423
 7438W        W11489   4.268   1.353   0.432
 7439W        W11490  10.000  10.310   9.459
 7440W        W11491   2.858   4.547   0.477
 7441W        W11492   8.642   2.565   1.548
 7442W        W11493   8.683   7.562   1.886
 7443W        W11494   3.853   8.056   3.163
 7444W        W11495   9.957   3.290   2.426
 7445W        W11496   0.382   5.010   8.881
 7446W        W11497   0.364   8.587   2.497
 7447W        W11498   9.392  10.375   1.831
 7448W        W11499  11.105   4.576   0.269
 7449W        W11500   2.146   3.243   0.176
 7450W        W11501   5.239   1.230  11.446
 7451W        W11502   9.753   2.297   3.510
 7452W        W11503   4.661  10.397  11.841
 7453W        W11504   5.638   4.802  10.556
 7454W        W11505   7.154   3.845   3.042
 7455W        W11506   4.318   4.728   9.932
 7456W        W11507   0.485   2.695   9.369
 7457W        W11508   9.609   5.698   2.871
 7458W        W11509  10.048   7.479   3.327
 7459W        W11510   2.056   8.786   8.474
 7460W        W11511   1.778   6.466   1.424
 7461W        W11512   4.031   5.924   1.175
 7462W        W11513   5.143   7.844  11.587
 7463W        W11514   2.192  11.303  10.005
 7464W        W11515   1.981   2.679  11.288
 7465W        W11516   8.588   1.586   1.837
 7466W        W11517   0.165   9.442   9.449
 7467W        W11518  10.019   6.153   0.194
 7468W        W11519   3.654   8.441  10.787
 7469W        W11520   6.340  10.740   0.344
 7470W        W11521  10.342   9.954   1.768
 7471W        W11522   7.606   0.023   1.689
 7472W        W11523   5.110   8.621  10.409
 7473W        W11524   8.155   3.883   0.372
 7474W        W11525   8.907   3.272  11.476
 7475W        W11526   7.647   5.609  11.079
 7476W        W11527   6.718   3.672  11.378
 7477W        W11528   8.151   0.401   9.417
 7478W        W11529   4.622   2.470   3.225
 7479W        W11530  10.056   6.176  10.817
 7480W        W11531   2.367   3.383   8.951
 7481W        W11532   8.457   4.995  10.009
 7482W        W11533  11.482   4.746   8.603
 7483W        W11534   8.575   8.334  10.918
 7484W        W11535   0.769   4.873   3.491
 7485W        W11536  10.191   5.829  11.484
 7486W        W11537   0.505   4.731   2.878
 7487W        W11538   0.359   8.521   3.013
 7488W        W11539   8.412  11.204   1.726
 7489W        W11540   9.006   5.052  11.189
 7490W        W11541   7.853   4.522  11.760
 7491W        W11542   7.516   6.970   3.390
 7492W        W11543   8.945   9.139   2.488
 7493W        W11544   5.111   4.031   9.026
 7494W        W11545   8.954   5.663   2.303
 7495W        W11546  11.228  10.135   1.930
 7496W        W11547   5.011  10.052  10.530
 7497W        W11548   4.662   7.001   1.577
 7498W        W11549   1.701   3.102  11.264
 7499W        W11550   0.868  10.413  10.017
 7500W        W11551   5.999   4.909   2.069
 7501W        W11552   2.266   1.153   0.027
 7502W        W11553   2.694   5.435  10.326
 7503W        W11554  10.982  10.093   3.158
 7504W        W11555   7.135   8.356   3.362
 7505W        W11556  11.494   0.286   0.502
 7506W        W11557   6.390   0.214   9.264
 7507W        W11558   3.757   2.647   1.601
 7508W        W11559   6.953   7.974   3.074
 7509W        W11560   9.861   1.031   8.634
 7510W        W11561   5.244   3.596  11.500
 7511W        W11562   6.444   0.991   1.352
 7512W        W11563   1.996   5.095   2.136
 7513W        W11564   4.469   6.524   1.597
 7514W        W11565   0.879   2.099   3.316
 7515W        W11566   2.802   6.445   9.257
 7516W        W11567   5.021   1.238  11.941
 7517W        W11568   6.919   5.681  11.748
 7518W        W11569   9.986   1.356   9.526
 7519W        W11570   0.825   2.381   2.184
 7520W        W11571   6.494   8.142   3.294
 7521W        W11572   5.033   3.455   3.977
 7522W        W11573   8.322   2.979  10.862
 7523W        W11574   9.418   7.639   0.489
 7524W        W11575   7.418  10.742   3.073
 7525W        W11576   6.455   6.111   1.526
 7526W        W11577   6.098   0.688  11.771
 7527W        W11578   8.123   3.289   0.448
 7528W        W11579   8.535   6.575   2.683
 7529W        W11580  11.317   2.289   1.856
 7530W        W11581   9.086   5.217   0.679
 7531W        W11582   5.527  10.952  11.502
 7532W        W11583   0.274   8.521   0.040
 7533W        W11584   9.529   8.659   0.299
 7534W        W11585   6.448   5.940   9.106
 7535W        W11586   5.269   7.471   8.674
 7536W        W11587   4.230   6.215  10.247
 7537W        W11588   5.134   3.105   3.600
 7538W        W11589   8.274   3.704   1.364
 7539W        W11590   8.431   9.748   2.086
 7540W        W11591   6.196  10.847  11.831
 7541W        W11592   4.292   9.116   0.334
 7542W        W11593   1.252  11.426   1.780
 7543W        W11594   1.739   3.202   8.636
 7544W        W11595   3.768   9.252   1.907
 7545W        W11596   3.120   4.073  10.288
 7546W        W11597   2.638   9.006   9.054
 7547W        W11598   4.099  11.367   9.410
 7548W        W11599   6.380  10.077  11.402
 7549W        W11600   4.705   0.106   2.377
 7550W        W11601   1.276   7.038   2.906
 7551W        W11602   7.629   9.541   1.980
 7552W        W11603   7.380  10.763  10.390
 7553W        W11604  10.346   0.446   2.341
 7554W        W11605   0.038   4.642   2.662
 7555W        W11606   5.419   6.020  11.665
 7556W        W11607   7.353   1.676   9.589
 7557W        W11608   8.167   3.285   1.103
 7558W        W11609   6.147   1.333   1.659
 7559W        W11610   5.273   0.929   0.729
 7560W        W11611   2.552   7.034   9.461
 7561W        W11612   2.974   5.833   3.131
 7562W        W11613   2.668  10.686  10.437
 7563W        W11614   6.254   2.859   9.468
 7564W        W11615   0.474   6.183   0.273
 7565W        W11616   5.016   8.367   9.988
 7566W        W11617   5.794   9.546   0.216
 7567W        W11618   7.918   7.659  10.862
 7568W        W11619   2.594   4.228   8.911
 7569W        W11620   8.608  11.313   0.665
 7570W        W11621   3.100   5.880   0.400
 7571W        W11622   2.515  10.370   2.031
 7572W        W11623   9.975   4.187  11.534
 7573W        W11624   6.707   8.601   3.154
 7574W        W11625  11.269   1.737  10.289
 7575W        W11626   0.818  11.014   2.394
 7576W        W11627   6.987  10.949  10.124
 7577W        W11628   6.638   4.275  10.085
 7578W        W11629  10.247   4.592  10.411
 7579W        W11630   8.136   4.798   2.673
 7580W        W11631   1.293   7.541   2.683
 7581W        W11632   9.843   4.283  10.585
 7582W        W11633   2.821   3.720  10.973
 7583W        W11634   0.483   5.059   1.147
 7584W        W11635   9.032   6.853  10.447
 7585W        W11636   9.008   3.170   9.573
 7586W        W11637   9.306   4.090  11.993
 7587W        W11638  11.260   4.236  11.689
 7588W        W11639   5.032   3.799   9.612
 7589W        W11640   4.049   2.059   0.868
 7590W        W11641   8.966   7.865   0.343
 7591W        W11642   3.451   5.235  10.880
 7592W        W11643   7.419   3.248   0.404
 7593W        W11644   2.214   7.661   1.907
 7594W        W11645   3.908   1.717   0.442
 7595W        W11646   4.225   6.694  10.856
 7596W        W11647   3.598   6.584   1.727
 7597W        W11648  10.612   9.564   2.340
 7598W        W11649   9.607   6.440  11.666
 7599W        W11650   6.141   4.431   3.168
 7600W        W11651   9.451   7.024   2.783
 7601W        W11652   0.369  10.211   0.443
 7602W        W11653   2.279   7.946   0.272
 7603W        W11654   9.130   6.869   8.642
 7604W        W11655  10.767   1.985  10.974
 7605W        W11656   2.796   3.292  11.287
 7606W        W11657   6.026  10.409   3.169
 7607W        W11658   2.254   8.091   2.939
 7608W        W11659   1.299   1.762   2.777
 7609W        W11660   2.865   5.986   9.025
 7610W        W11661  10.963   3.551   0.426
 7611W        W11662   9.530   4.790   2.768
 7612W        W11663  10.885   4.134   8.478
 7613W        W11664   2.705  11.351  10.799
 7614W        W11665   4.714   8.453   9.582
 7615W        W11666   1.674   6.747  11.489
 7616W        W11667   9.789   5.668   3.373
 7617W        W11668   6.649   2.893   0.180
 7618W        W11669   7.392   4.564   0.004
 7619W        W11670  10.094   3.555  10.405
 7620W        W11671   6.077  10.855   1.462
 7621W        W11672   8.833   5.082   9.315
 7622W        W11673   9.921   0.751   2.232
 7623W        W11674  11.232   9.910  11.866
 7624W        W11675   7.692   3.200   2.495
 7625W        W11676   8.889   8.007   1.796
 7626W        W11677   8.238   8.604   9.044
 7627W        W11678   6.905  10.221   0.923
 7628W        W11679  10.294   4.149  11.922
 7629W        W11680   3.415   2.858  11.072
 7630W        W11681  10.985   9.955   9.045
 7631W        W11682   3.675  11.268   9.082
 7632W        W11683   8.510   5.072  11.375
 7633W        W11684   3.352   7.517   1.532
 7634W        W11685   5.061   8.683   2.433
 7635W        W11686   9.292   9.622   9.458
 7636W        W11687   2.482   9.112  10.886
 7637W        W11688   4.274   4.836  11.251
 7638W        W11689  11.340   7.205   3.616
 7639W        W11690   2.849   2.167   9.003
 7640W        W11691   0.285   0.349  11.260
 7641W        W11692  11.258   3.385   9.577
 7642W        W11693   5.583   2.364   8.730
 7643W        W11694  10.353   7.547  10.726
 7644W        W11695   1.308  10.927   1.779
 7645W        W11696   7.625   3.601   9.425
 7646W        W11697  10.993  10.582   3.446
 7647W        W11698   5.923   0.948   1.347
 7648W        W11699  11.331   9.858  10.438
 7649W        W11700   5.152   4.055   2.738
 7650W        W11701   6.585   0.684   0.919
 7651W        W11702   9.302   0.271  10.843
 7652W        W11703   6.113   1.885   1.291
 7653W        W11704   3.314   4.498   2.927
 7654W        W11705   7.612   7.589  11.336
 7655W        W11706  10.752  10.875   9.488
 7656W        W11707   4.375   9.067   9.774
 7657W        W11708   5.399   3.232  10.272
 7658W        W11709   4.379   1.810   1.229
 7659W        W11710  11.333   1.904   0.692
 7660W        W11711   1.254   8.831   3.297
 7661W        W11712   8.823   4.628  10.000
 7662W        W11713   0.507   7.938   0.240
 7663W        W11714   7.636   5.847   1.322
 7664W        W11715   5.154   7.575   2.734
 7665W        W11716   3.838   7.932   0.001
 7666W        W11717   3.149   4.980  10.517
 7667W        W11718   4.677   3.533   1.866
 7668W        W11719   0.120   3.593   3.566
 7669W        W11720   5.381   4.145   1.725
 7670W        W11721   5.682   7.603   0.386
 7671W        W11722   7.054  10.878   9.531
 7672W        W11723   1.632   8.502  11.907
 7673W        W11724  10.408   8.641   8.466
 7674W        W11725   8.356   5.069   9.517
 7675W        W11726   7.182   6.092  11.857
 7676W        W11727   6.182   4.429   2.200
 7677W        W11728   6.965   3.255  11.560
 7678W        W11729   0.497   0.276   9.616
 7679W        W11730   8.089   4.955   8.246
 7680W        W11731   3.210   7.605  11.587
 7681W        W11732   4.984   0.751  10.263
 7682W        W11733   1.804   5.655  10.339
 7683W        W11734   8.898   5.073   8.810
 7684W        W11735  11.387  11.001   2.810
 7685W        W11736   4.411   8.118   2.661
 7686W        W11737   1.401   3.812   0.692
 7687W        W11738   7.877  10.763  11.074
 7688W        W11739   5.516   5.153   3.070
 7689W        W11740   1.396   7.147   8.912
 7690W        W11741   9.862   6.045   9.399
 7691W        W11742   7.349   4.359   8.739
 7692W        W11743   5.577   3.117   8.409
 7693W        W11744   0.866   2.513   3.706
 7694W        W11745   4.992   1.497   3.481
 7695W        W11746   6.553   4.073   2.254
 7696W        W11747   8.341   2.934   0.788
 7697W        W11748   3.202   9.369   3.151
 7698W        W11749   8.652   4.883   3.004
 7699W        W11750   4.101   3.714   2.687
 7700W        W11751  11.081  10.565  10.307
 7701W        W11752   8.186   9.811  10.924
 7702W        W11753   2.429  10.430   0.378
 7703W        W11754   7.931   8.945   0.110
 7704W        W11755   4.077   3.731   9.704
 7705W        W11756   1.168   7.428  10.353
 7706W        W11757   2.640   0.547   1.191
 7707W        W11758   9.956   4.992  11.253
 7708W        W11759   6.118  11.325   9.993
 7709W        W11760   7.468   2.217   9.612
 7710W        W11761   7.180   0.653   1.744
 7711W        W11762  11.458  11.062  11.102
 7712W        W11763   5.600   0.045   2.649
 7713W        W11764   5.175   5.045   1.533
 7714W        W11765   6.070   2.645  11.997
 7715W        W11766   0.535  11.488  10.520
 7716W        W11767   3.123   0.766  10.534
 7717W        W11768   7.086  10.661   1.184
 7718W        W11769   4.287   4.070  11.667
 7719W        W11770  11.471   9.361   9.932
 7720W        W11771   0.234   8.379   0.582
 7721W        W11772   2.388   2.953   0.540
 7722W        W11773   4.787   2.406  10.546
 7723W        W11774   0.393   4.334   2.220
 7724W        W11775   7.061   8.035   2.548
 7725W        W11776   5.770  10.046   2.914
 7726W        W11777   6.505   1.612   9.414
 7727W        W11778   1.441  10.795   9.841
 7728W        W11779   1.222   2.147   2.416
 7729W        W11780   0.976   6.256   9.933
 7730W        W11781  10.885   3.840  11.442
 7731W        W11782   4.724   8.778   3.240
 7732W        W11783   6.429   2.257   3.612
 7733W        W11784  10.650   1.233   0.945
 7734W        W11785   6.443   3.147   0.786
 7735W        W11786   5.576   7.318   9.972
 7736W        W11787   4.150   8.677   0.011
 7737W        W11788   2.207  10.491  10.524
 7738W        W11789  10.524   3.129   1.155
 7739W        W11790   1.095   2.713  11.870
 7740W        W11791  10.292   5.587   3.454
 7741W        W11792   5.170   5.633  10.058
 7742W        W11793   9.868   3.136  10.102
 7743W        W11794   5.257   2.093   9.072
 7744W        W11795   0.116   0.961   9.132
 7745W        W11796  10.007   6.455   9.053
 7746W        W11797  11.351   6.670   9.363
 7747W        W11798   2.569   4.554   3.412
 7748W        W11799   9.897   0.687   1.317
 7749W        W11800   6.932   7.907   8.954
 7750W        W11801   2.666   3.841   3.516
 7751W        W11802   2.062   9.307   0.795
 7752W        W11803   0.177   4.318  10.254
 7753W        W11804   0.544  11.297   3.257
 7754W        W11805   0.752   2.570   3.190
 7755W        W11806   5.291   0.860   1.942
 7756W        W11807   8.111  10.462   3.095
 7757W        W11808   5.168   7.545   1.798
 7758W        W11809  10.363  10.885  10.064
 7759W        W11810   1.816   0.191   0.206
 7760W        W11811   5.022   7.354  11.839
 7761W        W11812  10.849   9.285   8.390
 7762W        W11813   1.288   4.784   1.713
 7763W        W11814   8.340   4.498   9.945
 7764W        W11815   1.845   5.363  11.945
 7765W        W11816  11.003   5.528   2.691
 7766W        W11817   8.561  11.323  10.705
 7767W        W11818   2.264   0.325   2.466
 7768W        W11819   9.875   8.483  10.842
 7769W        W11820   8.332   7.651   0.903
 7770W        W11821   5.530   9.202   1.868
 7771W        W11822  10.237   6.042   1.693
 7772W        W11823   9.772   8.852  10.332
 7773W        W11824   0.427   3.592  10.609
 7774W        W11825   0.365   6.569   0.585
 7775W        W11826   5.532   0.408   2.298
 7776W        W11827  10.879   7.318   9.846
 7777W        W11828   4.474   2.832   2.406
 7778W        W11829   2.255   6.548   0.643
 7779W        W11830   5.829   8.061  10.256
 7780W        W11831   1.959   3.226   1.441
 7781W        W11832   6.901   2.060   3.596
 7782W        W11833   3.108   1.797   1.733
 7783W        W11834   6.482   3.504   3.705
 7784W        W11835   1.702   8.419  10.975
 7785W        W11836   4.060   5.698  11.331
 7786W        W11837   2.202   1.357   2.467
 7787W        W11838   8.254   1.440   9.519
 7788W        W11839  11.068   9.057  10.041
 7789W        W11840  10.625  10.442  10.125
 7790W        W11841  10.948   3.786   9.300
 7791W        W11842  11.383   3.568   9.114
 7792W        W11843   2.782   7.348   0.751
 7793W        W11844   7.444   8.102   2.980
 7794W        W11845   3.309  11.114   3.113
 7795W        W11846   0.415   7.050   0.792
 7796W        W11847   0.882   0.325   0.804
 7797W        W11848   9.655  10.371   9.840
 7798W        W11849   8.648   3.525   2.607
 7799W        W11850   0.486   8.360  10.487
 7800W        W11851   5.630   9.157  11.238
 7801W        W11852   3.114   1.647  11.810
 7802W        W11853   9.694  10.092   0.420
 7803W        W11854   3.510   6.694  10.322
 7804W        W11855   6.914   4.082   8.930
 7805W        W11856   1.333   5.475   0.053
 7806W        W11857   5.854   0.276  11.581
 7807W        W11858   9.571  10.773   1.540
 7808W        W11859   5.240   2.759   9.496
 7809W        W11860   8.466   8.536  10.071
 7810W        W11861   7.736   4.891   3.588
 7811W        W11862   1.369   2.832   1.432
 7812W        W11863  10.634  11.050  11.435
 7813W        W11864  10.309  11.453   8.843
 7814W        W11865   8.019   7.398   9.545
 7815W        W11866  11.295   1.820   0.180
 7816W        W11867   8.022   5.500   1.255
 7817W        W11868   9.583   7.446   3.049
 7818W        W11869   5.509  11.197   0.782
 7819W        W11870   7.428   4.780  11.545
 7820W        W11871   7.642   2.865  11.323
 7821W        W11872   3.939   8.973   3.643
 7822W        W11873   4.744   2.883   9.591
 7823W        W11874   8.964   3.781   0.217
 7824W        W11875   0.843   4.779  11.952
 7825W        W11876   6.222   1.292   3.271
 7826W        W11877  10.523   2.289   0.784
 7827W        W11878  10.153  10.401   3.310
 7828W        W11879   0.690  11.299  10.025
 7829W        W11880   4.776   4.183   2.439
 7830W        W11881  10.315   9.327   0.475
 7831W        W11882   8.089   6.339   3.713
 7832W        W11883   6.803   9.129   2.952
 7833W        W11884   1.483  11.248   1.341
 7834W        W11885   5.328   5.180  10.698
 7835W        W11886   0.010   1.242   2.352
 7836W        W11887   8.503   7.691  10.282
 7837W        W11888   3.376   3.784  11.055
 7838W        W11889   0.642   5.418   8.644
 7839W        W11890   6.763   9.914   2.756
 7840W        W11891   0.638   8.087  10.893
 7841W        W11892   5.927   6.083   1.381
 7842W        W11893   8.585   4.093   8.735
 7843W        W11894   9.604   9.875   2.232
 7844W        W11895   8.667   5.476  10.067
 7845W        W11896   9.122   2.785  10.828
 7846W        W11897   8.052   5.370  10.786
 7847W        W11898  10.398   2.480   9.169
 7848W        W11899   2.688   1.998   9.765
 7849W        W11900   1.106   1.407  11.556
 7850W        W11901   3.608  10.744   9.006
 7851W        W11902   6.346   0.316   1.848
 7852W        W11903   7.082  10.408  10.869
 7853W        W11904   0.755   2.308  11.807
 7854W        W11905   7.951   6.913   0.433
 7855W        W11906  10.018   0.464   0.728
 7856W        W11907   7.061   7.011   3.155
 7857W        W11908   0.359   6.496  10.968
 7858W        W11909   4.082   6.709   8.984
 7859W        W11910   3.352   0.394   8.902
 7860W        W11911   8.176   5.609   3.191
 7861W        W11912   0.019   7.906   0.441
 7862W        W11913   2.303   3.308   9.968
 7863W        W11914   7.478   0.760   9.734
 7864W        W11915   9.154   1.207   1.669
 7865W        W11916  11.344   2.134  11.158
 7866W        W11917   5.653   6.528  11.030
 7867W        W11918   4.938   6.775  11.770
 7868W        W11919   5.639   9.025   1.411
 7869W        W11920   6.998   8.333  11.268
 7870W        W11921   0.578   4.062  10.406
 7871W        W11922   2.603   4.691   9.933
 7872W        W11923   8.598   1.148   3.589
 7873W        W11924   3.722   8.870  10.505
 7874W        W11925   9.027   0.295  10.023
 7875W        W11926   5.876   2.186   0.264
 7876W        W11927   2.487   6.563  10.480
 7877W        W11928   5.865   0.086  10.439
 7878W        W11929   0.322   9.905   9.658
 7879W        W11930   0.854   2.305   8.959
 7880W        W11931  11.466   3.620  10.911
 7881W        W11932   5.663   2.411   2.187
 7882W        W11933   5.959   3.158  10.764
 7883W        W11934   9.410  10.151  11.559
 7884W        W11935   9.916   8.235  11.302
 7885W        W11936   0.398   0.786   9.525
 7886W        W11937   4.672   9.045   2.276
 7887W        W11938   2.302   3.767  10.766
 7888W        W11939   7.751   1.035  10.494
 7889W        W11940  10.892  10.494  10.909
 7890W        W11941   0.188   9.961   1.771
 7891W        W11942   7.939   5.994   0.501
 7892W        W11943   3.077  10.502   9.073
 7893W        W11944  10.158   3.274   0.839
 7894W        W11945   3.317  10.988   9.389
 7895W        W11946   4.497   1.894   9.622
 7896W        W11947  10.957   5.889  10.773
 7897W        W11948   5.335   8.552   3.586
 7898W        W11949   0.498   2.709  11.058
 7899W        W11950   5.592   2.865   8.871
 7900W        W11951  10.235   0.831  11.601
 7901W        W11952  10.543   1.494   8.938
 7902W        W11953   8.187   5.085   1.875
 7903W        W11954   6.008   8.099  11.471
 7904W        W11955   7.599   9.397   9.997
 7905W        W11956   6.704   3.129   1.940
 7906W        W11957  10.700   3.591   3.497
 7907W        W11958   9.618   1.962  10.041
 7908W        W11959   8.893   0.017  11.020
 7909W        W11960   9.573   3.124   2.990
 7910W        W11961   4.135   9.566   8.544
 7911W        W11962   4.351   1.808   0.205
 7912W        W11963  10.414  11.074  10.539
 7913W        W11964   7.669   7.679   2.777
 7914W        W11965   6.348   6.114  11.472
 7915W        W11966   7.629   7.055   9.696
 7916W        W11967   3.576   6.612   1.216
 7917W        W11968  10.909   7.716   9.498
 7918W        W11969   8.610   2.807  11.531
 7919W        W11970   8.875  11.281   9.099
 7920W        W11971  10.280   4.600  11.361
 7921W        W11972   5.353   3.220   3.139
 7922W        W11973   8.891  11.369   1.655
 7923W        W11974   4.054   6.831   1.629
 7924W        W11975   9.801   6.183  11.262
 7925W        W11976   4.139   1.090   3.160
 7926W        W11977   4.094   9.104  11.741
 7927W        W11978   3.768   9.744   0.714
 7928W        W11979  10.964   2.400   9.711
 7929W        W11980   9.283   8.505   8.996
 7930W        W11981  10.039   7.160  11.528
 7931W        W11982   5.275   9.849  10.953
 7932W        W11983   2.639   4.914   0.218
 7933W        W11984   9.527  10.326  10.730
 7934W        W11985   6.578   7.188   4.035
 7935W        W11986   5.921   8.371  10.878
 7936W        W11987   1.313   4.222   3.195
 7937W        W11988   1.700   0.678   2.564
 7938W        W11989   8.660   1.203  10.289
 7939W        W11990   4.278   6.025   2.173
 7940W        W11991   3.299   9.581  10.590
 7941W        W11992  10.992   4.298   1.988
 7942W        W11993   8.986   0.821   3.461
 7943W        W11994   9.724   5.116   9.145
 7944W        W11995   6.683   1.785   1.918
 7945W        W11996   9.141   1.223   2.671
 7946W        W11997   2.765   8.076   0.361
 7947W        W11998   1.279   7.156   0.911
 7948W        W11999   4.941  10.721   8.544
 7949W        W12000  11.290   5.707   0.223
 7950W        W12001   1.277   2.233  11.712
 7951W        W12002   5.300   8.059   8.180
 7952W        W12003   5.790   9.091   2.854
 7953W        W12004   9.326   7.245  11.218
 7954W        W12005   3.505   4.580   9.523
 7955W        W12006  11.009   5.318   9.417
 7956W        W12007  11.371   6.732   8.847
 7957W        W12008   9.160  10.881  11.278
 7958W        W12009  10.576  10.939   0.862
 7959W        W12010  10.562   6.312   9.927
 7960W        W12011  10.424   8.848   0.584
 7961W        W12012   6.586   7.682   3.540
 7962W        W12013   5.068  10.962   0.996
 7963W        W12014   2.278   4.192   0.985
 7964W        W12015   8.138   3.289   2.149
 7965W        W12016  10.137   2.375  11.802
 7966W        W12017   9.092   1.249  10.563
 7967W        W12018   9.026   0.284   9.100
 7968W        W12019   4.690   7.480   2.491
 7969W        W12020   3.344  10.715   2.741
 7970W        W12021   7.552   1.902   1.508
 7971W        W12022   5.756  11.363  11.295
 7972W        W12023   5.643   2.294  10.248
 7973W        W12024   9.891   7.011  10.521
 7974W        W12025   5.921   3.277   9.406
 7975W        W12026   8.871   7.544   2.394
 7976W        W12027   9.400   7.172   1.312
 7977W        W12028   2.163   0.456   2.981
 7978W        W12029   2.821   1.557   1.328
 7979W        W12030   2.333   4.739   9.434
 7980W        W12031   9.179   8.287   9.423
 7981W        W12032   4.109   4.324   3.155
 7982W        W12033   9.545  11.333  10.752
 7983W        W12034   7.961   4.877   9.892
 7984W        W12035   1.273   6.485  10.768
 7985W        W12036   7.902   4.779   0.189
 7986W        W12037   2.041   7.094   1.358
 7987W        W12038   1.024   2.467  10.312
 7988W        W12039   0.836   0.884   2.688
 7989W        W12040   6.126   1.981   0.748
 7990W        W12041   2.734   6.098   2.303
 7991W        W12042  10.472   5.687   2.385
 7992W        W12043   9.939  10.430   0.725
 7993W        W12044   7.472   8.566  11.336
 7994W        W12045   4.467   2.509   1.956
 7995W        W12046  11.214   0.007   1.758
 7996W        W12047   9.567   0.992   9.081
 7997W        W12048   8.875   0.416   0.883
 7998W        W12049   1.371   6.130   1.442
 7999W        W12050   2.253   9.014   9.439
 8000W        W12051  10.514   8.111   0.966
 8001W        W12052   9.407  11.372   0.207
 8002W        W12053   6.657  10.450   2.045
 8003W        W12054   0.358   3.997  11.401
 8004W        W12055  10.298   5.474   7.883
 8005W        W12056  11.328   0.627   9.386
 8006W        W12057   1.805   7.200  11.287
 8007W        W12058   8.695   5.135   1.798
 8008W        W12059  10.058   5.532  10.162
 8009W        W12060   2.225   5.651   1.700
 8010W        W12061   3.966   4.563   4.026
 8011W        W12062   0.706   9.861   1.765
 8012W        W12063   9.324   6.730   1.555
 8013W        W12064   8.148   4.337  10.962
 8014W        W12065   6.005   5.354   3.085
 8015W        W12066   9.861   8.972   1.368
 8016W        W12067  10.119   0.807  11.072
 8017W        W12068   2.405   6.146   9.978
 8018W        W12069   6.067  10.290  11.745
 8019W        W12070   7.660   7.109  10.205
 8020W        W12071   9.372   0.806   2.948
 8021W        W12072   6.429   2.420   9.753
 8022W        W12073   7.587  10.325   2.160
 8023W        W12074   9.055   8.799   9.352
 8024W        W12075   8.630   3.353   0.855
 8025W        W12076   3.585   6.048  11.156
 8026W        W12077   7.044   2.782   3.249
 8027W        W12078   7.918   9.414   1.313
 8028W        W12079   0.333  10.018   2.713
 8029W        W12080   8.295  10.367   3.550
 8030W        W12081   1.810   1.161  10.837
 8031W        W12082   1.784   0.851  10.413
 8032W        W12083   5.128   4.451   8.730
 8033W        W12084   8.850  10.418   2.637
 8034W        W12085   0.849   6.237   3.424
 8035W        W12086   7.480   8.825  11.869
 8036W        W12087   5.982   2.019   3.679
 8037W        W12088   4.248  10.042   9.768
 8038W        W12089  11.323   0.775   0.476
 8039W        W12090   1.813   5.991   1.683
 8040W        W12091   6.389   2.872  10.778
 8041W        W12092   1.731   0.973   1.053
 8042W        W12093   0.349   7.197  10.279
 8043W        W12094   0.824   9.853   2.556
 8044W        W12095   8.416   5.527   0.274
 8045W        W12096   0.794   5.080   0.738
 8046W        W12097   6.526  10.475   3.040
 8047W        W12098   1.743   5.003   3.603
 8048W        W12099  11.126   2.632   3.562
 8049W        W12100   7.881   4.103  10.591
 8050W        W12101   9.312   5.331   8.618
 8051W        W12102   1.164   4.018   8.961
 8052W        W12103   9.457   5.623   2.356
 8053W        W12104   6.075  11.344  11.709
 8054W        W12105   0.868   6.857   0.937
 8055W        W12106   6.051   1.188  11.750
 8056W        W12107   8.193   1.421  10.439
 8057W        W12108   4.763   1.493   0.450
 8058W        W12109   3.703   2.141  10.585
 8059W        W12110   6.989   3.153   1.481
 8060W        W12111  11.002   2.319   3.122
 8061W        W12112   1.327   0.321  11.708
 8062W        W12113   0.876   4.265   0.135
 8063W        W12114   7.511   3.099   9.972
 8064W        W12115   9.856   7.204   9.463
 8065W        W12116  10.546   3.314  10.450
 8066W        W12117   0.815   7.508   0.300
 8067W        W12118   6.865   0.259   1.790
 8068W        W12119  11.057   8.096   2.189
 8069W        W12120   4.840   4.639   9.907
 8070W        W12121   4.315   1.289  11.494
 8071W        W12122  10.451   1.859  10.073
 8072W        W12123   1.175   7.049   3.458
 8073W        W12124   9.850   4.709  11.683
 8074W        W12125   3.129  10.505  11.637
 8075W        W12126   0.051   3.824  11.847
 8076W        W12127   3.819   6.625   3.823
 8077W        W12128   8.604   4.621   0.487
 8078W        W12129   1.893   1.779  11.480
 8079W        W12130   0.004  11.257   0.492
 8080W        W12131   1.239   3.251  10.871
 8081W        W12132   7.919   0.739  11.938
 8082W        W12133   9.605   7.674   9.466
 8083W        W12134   9.256   4.331   2.077
 8084W        W12135   6.092   1.296   9.502
 8085W        W12136   8.748   7.113   0.758
 8086W        W12137   4.934   1.221  11.024
 8087W        W12138   8.229   4.324   9.050
 8088W        W12139   8.881   0.331  10.543
 8089W        W12140   1.935  10.377  10.031
 8090W        W12141   5.488  10.543  11.195
 8091W        W12142   9.005   7.353   0.383
 8092W        W12143   8.272   9.550   0.515
 8093W        W12144   8.950   1.675  10.297
 8094W        W12145   0.391   5.114  11.233
 8095W        W12146   6.664  10.819   2.706
 8096W        W12147   6.012   5.490   0.221
 8097W        W12148   2.320   1.448   1.462
 8098W        W12149   0.783   2.777   0.292
 8099W        W12150   5.939   3.677   9.782
 8100W        W12151   3.594   5.075   2.767
 8101W        W12152   9.509   2.451   9.201
 8102W        W12153  11.378   7.128   2.640
 8103W        W12154   7.541   0.089  10.764
 8104W        W12155   0.309   1.752   2.795
 8105W        W12156   8.899   1.612   3.429
 8106W        W12157   7.044   1.166   1.664
 8107W        W12158   8.301   6.184   2.425
 8108W        W12159   6.953   8.561   0.055
 8109W        W12160  10.473  10.568  10.584
 8110W        W12161   9.149  10.341   9.896
 8111W        W12162   1.524   5.117   1.206
 8112W        W12163   6.856   5.922  10.882
 8113W        W12164   6.911   4.190  10.496
 8114W        W12165   1.863   2.654  10.400
 8115W        W12166   4.643   2.695  10.147
 8116W        W12167   6.493  10.002  10.486
 8117W        W12168   2.455   0.329   9.948
 8118W        W12169   3.751  10.281   3.394
 8119W        W12170   3.044   9.293   0.779
 8120W        W12171  11.106   0.747  10.457
 8121W        W12172   0.450   5.298   1.969
 8122W        W12173   3.580   5.764  10.299
 8123W        W12174   1.713   5.557   3.542
 8124W        W12175   5.227   2.123  10.566
 8125W        W12176   0.212   8.977  11.137
 8126W        W12177   8.123   7.371  10.429
 8127W        W12178   5.820   0.059   1.812
 8128W        W12179   5.963   0.784   9.810
 8129W        W12180   2.362   1.198  10.834
 8130W        W12181   1.734   3.862  11.881
 8131W        W12182   4.611   9.937   0.532
 8132W        W12183   9.409   3.321  10.266
 8133W        W12184   3.663   6.102   1.500
 8134W        W12185   2.929  11.053   0.571
 8135W        W12186   2.694   7.456  10.714
 8136W        W12187   6.045   1.775   3.207
 8137W        W12188   6.165   1.818   8.573
 8138W        W12189   2.046  10.495   2.336
 8139W        W12190   9.469  10.016   3.308
 8140W        W12191  10.446   9.910   9.074
 8141W        W12192   5.683   2.359  11.795
 8142W        W12193   6.754  10.394   0.203
 8143W        W12194   3.059   4.262   3.314
 8144W        W12195  10.023  10.994   1.757
 8145W        W12196   7.339   0.243   2.041
 8146W        W12197   7.769   6.232  11.043
 8147W        W12198   4.273   8.168  11.883
 8148W        W12199   6.403  11.278   9.552
 8149W        W12200   3.170   5.576   9.987
 8150W        W12201   5.375  10.283   9.260
 8151W        W12202   5.752   8.003   0.676
 8152W        W12203   0.612   6.650  10.029
 8153W        W12204   2.787   7.555   8.834
 8154W        W12205   2.102  10.482  11.568
 8155W        W12206   1.528   2.237   9.703
 8156W        W12207   1.461   3.842  10.197
 8157W        W12208   3.763   4.942   9.863
 8158W        W12209   7.992   3.551   0.001
 8159W        W12210   5.465  11.039   2.665
 8160W        W12211   7.914   6.738  11.025
 8161W        W12212   6.641  11.318   9.991
 8162W        W12213   8.378   6.220   1.914
 8163W        W12214  10.420   3.007   8.547
 8164W        W12215  10.810   5.776   9.589
 8165W        W12216  10.414   3.112   1.666
 8166W        W12217   7.764   3.159   0.792
 8167W        W12218   5.160   7.010   0.783
 8168W        W12219   0.451   9.830   9.170
 8169W        W12220   5.129   0.352   2.642
 8170W        W12221   1.805   1.822   3.514
 8171W        W12222   6.047   4.773  11.245
 8172W        W12223   3.735   9.325  10.740
 8173W        W12224   1.242   4.969  11.240
 8174W        W12225   9.852  11.147   2.213
 8175W        W12226   5.336  10.797   9.483
 8176W        W12227   9.883   9.946   0.885
 8177W        W12228   7.559  11.030   1.775
 8178W        W12229   3.794   0.863   2.203
 8179W        W12230   4.134   9.589   1.747
 8180W        W12231   4.095  10.488   8.844
 8181W        W12232   5.816  11.279   1.362
 8182W        W12233  10.120   0.848   1.758
 8183W        W12234   1.048   0.031   0.051
 8184W        W12235  11.465  10.412   0.711
 8185W        W12236   2.330   5.427  11.548
 8186W        W12237  10.439   9.952  10.107
 8187W        W12238   0.973  10.879  10.777
 8188W        W12239  10.467   8.651   9.611
 8189W        W12240   4.283   3.159   1.231
 8190W        W12241   9.067   6.051  10.898
 8191W        W12242   9.405   4.866   8.811
 8192W        W12243  11.001   7.811  10.006
 8193W        W12244   8.963   4.135   8.378
 8194W        W12245   1.316   6.605   1.651
 8195W        W12246   6.038   8.373   9.879
 8196W        W12247   9.111   4.645   9.594
 8197W        W12248   8.171   2.775   9.465
 8198W        W12249   7.728   2.998   1.287
 8199W        W12250   3.316   1.421   1.465
 8200W        W12251   6.996   9.187   9.585
 8201W        W12252   0.816   9.094   8.700
 8202W        W12253   6.155   8.708   0.373
 8203W        W12254   1.477  10.958  10.724
 8204W        W12255   1.791   3.740   2.102
 8205W        W12256   4.861   3.330   3.192
 8206W        W12257  11.458   9.326   2.290
 8207W        W12258   2.678  11.472   0.703
 8208W        W12259   1.422   8.071   0.572
 8209W        W12260   6.857   3.522   2.727
 8210W        W12261   5.658   2.227   0.727
 8211W        W12262   9.808   4.275   9.533
 8212W        W12263   3.313   6.268  11.549
 8213W        W12264   4.003   2.262  10.969
 8214W        W12265   9.369   3.613   0.498
 8215W        W12266   7.488   7.123  11.123
 8216W        W12267   2.092   9.584   2.540
 8217W        W12268   2.923   7.981   8.528
 8218W        W12269   6.664   5.295  11.565
 8219W        W12270  10.912   8.990  11.508
 8220W        W12271   2.683   3.719   2.555
 8221W        W12272   5.051   9.309   1.038
 8222W        W12273   4.554   6.382   8.304
 8223W        W12274  10.100   3.266  11.394
 8224W        W12275   7.920   2.658   0.802
 8225W        W12276   9.427   9.685  11.336
 8226W        W12277  10.425   1.923   0.248
 8227W        W12278   9.644   3.782  10.381
 8228W        W12279   8.399   3.245  11.390
 8229W        W12280  10.851   1.840   1.351
 8230W        W12281   2.522   6.165  11.916
 8231W        W12282   4.267   8.788   2.102
 8232W        W12283   0.370   4.557   1.208
 8233W        W12284   0.725   7.666  11.812
 8234W        W12285   4.549   0.255   2.843
 8235W        W12286   9.073   5.915   1.412
 8236W        W12287   0.454  10.385   3.218
 8237W        W12288   0.723   2.819   8.924
 8238W        W12289   9.126   0.754   8.881
 8239W        W12290   5.337   8.414   2.104
 8240W        W12291  10.308   2.718   1.970
 8241W        W12292  10.482  10.582   0.062
 8242W        W12293   4.974   6.702   8.704
 8243W        W12294   1.263   9.295  10.548
 8244W        W12295   2.635   6.064   2.805
 8245W        W12296   6.356   4.079   1.802
 8246W        W12297   1.649   0.362  10.434
 8247W        W12298   9.597   4.647   1.874
 8248W        W12299   5.729   0.461  10.136
 8249W        W12300   7.086  11.500   0.899
 8250W        W12301   1.481   6.565  10.297
 8251W        W12302   5.914   2.095   9.055
 8252W        W12303   9.024   2.933  11.824
 8253W        W12304   4.341   8.581   1.624
 8254W        W12305  10.364   0.971   0.498
 8255W        W12306   3.167   0.944   3.503
 8256W        W12307   4.392   3.594  11.939
 8257W        W12308   3.682   4.105  11.395
 8258W        W12309   0.197  10.348  11.902
 8259W        W12310   8.489  11.428  11.710
 8260W        W12311   6.481   4.815   1.365
 8261W        W12312   2.415   0.297  10.846
 8262W        W12313  10.550   6.559   3.480
 8263W        W12314   1.538   5.073   0.299
 8264W        W12315  11.000   7.988   1.234
 8265W        W12316   2.660   0.980   2.717
 8266W        W12317   6.579   1.093   2.901
 8267W        W12318   5.559   7.596  10.415
 8268W        W12319   8.367   5.721  10.552
 8269W        W12320   9.414   9.141   9.434
 8270W        W12321   5.219   4.268   9.950
 8271W        W12322   4.098   0.973   0.717
 8272W        W12323  10.624   5.150  10.374
 8273W        W12324  10.442  11.477   0.228
 8274W        W12325   9.003   0.804  10.308
 8275W        W12326   2.270   6.158   0.964
 8276W        W12327   1.834   4.107  11.431
 8277W        W12328   6.965   7.479   2.298
 8278W        W12329   1.061   7.522   9.852
 8279W        W12330   2.618   6.909  11.700
 8280W        W12331   3.076   6.309   2.888
 8281W        W12332  11.015  10.831   1.215
 8282W        W12333   9.856   3.684   9.040
 8283W        W12334   8.770   6.363  11.222
 8284W        W12335   6.036   4.158   1.424
 8285W        W12336   0.317   6.016   3.594
 8286W        W12337   5.013   2.188  11.045
 8287W        W12338  10.783   0.387  10.302
 8288W        W12339   8.320   5.792   8.896
 8289W        W12340   4.800   4.877  11.485
 8290W        W12341   4.650   7.488   1.387
 8291W        W12342   2.248   4.166  11.094
 8292W        W12343   7.248   5.066   0.277
 8293W        W12344   9.365   7.246   9.302
 8294W        W12345   6.859  10.059   8.625
 8295W        W12346   7.115   2.883  11.258
 8296W        W12347   1.873   0.052   1.464
 8297W        W12348   9.646  11.204   0.653
 8298W        W12349   4.415   7.033  11.309
 8299W        W12350   8.911   5.606   0.396
 8300W        W12351  11.246   6.220   0.986
 8301W        W12352   5.519   8.885  11.653
 8302W        W12353   7.461   5.272  11.429
 8303W        W12354   7.399   9.291  10.958
 8304W        W12355   1.023   9.065   0.909
 8305W        W12356   0.172   3.540   1.073
 8306W        W12357   8.126   5.188  11.971
 8307W        W12358  10.323   4.746   0.505
 8308W        W12359   5.937  11.466   0.888
 8309W        W12360   5.681   4.675   8.784
 8310W        W12361   5.500   3.851  11.875
 8311W        W12362   2.829   8.776  10.569
 8312W        W12363   5.207   4.568   2.717
 8313W        W12364  10.373   2.954   0.352
 8314W        W12365   3.865   5.387   2.070
 8315W        W12366  10.343  10.140  11.833
 8316W        W12367   3.353   3.891   0.515
 8317W        W12368   6.651   0.265   9.718
 8318W        W12369  10.953   8.202   9.610
 8319W        W12370   2.380  11.027   9.586
 8320W        W12371   6.487   8.510   0.730
 8321W        W12372   5.069   6.102  10.851
 8322W        W12373   8.236   4.881  10.949
 8323W        W12374   9.277   6.176   0.989
 8324W        W12375   7.537  10.786   8.710
 8325W        W12376   3.312   5.483   2.948
 8326W        W12377   9.894   1.219  10.028
 8327W        W12378   2.792   2.837   2.463
 8328W        W12379   4.412  10.373   1.486
 8329W        W12380   9.520   8.035   1.309
 8330W        W12381   3.908   6.566   0.773
 8331W        W12382   3.347   5.692   8.296
 8332W        W12383   7.006   5.992   0.723
 8333W        W12384   0.843   5.077   9.546
 8334W        W12385   9.779   6.185   1.863
 8335W        W12386   1.368   0.467   9.537
 8336W        W12387   5.055   8.175   0.459
 8337W        W12388  10.486   4.462   1.899
 8338W        W12389   9.464  11.493  10.252
 8339W        W12390   8.874  10.417   1.628
 8340W        W12391   1.955   6.638  10.512
 8341W        W12392   8.982   2.571   9.894
 8342W        W12393   8.550   9.852   9.329
 8343W        W12394  10.697   3.757  10.182
 8344W        W12395   3.247   0.530   3.219
 8345W        W12396   0.851   2.296   2.741
 8346W        W12397   9.254   8.450   3.559
 8347W        W12398   6.189   9.314  11.763
 8348W        W12399   1.107  11.403   2.260
 8349W        W12400   5.211   3.590   3.498
 8350W        W12401   0.260   9.083   2.614
 8351W        W12402   5.714   1.247   9.860
 8352W        W12403   1.693   4.541  10.095
 8353W        W12404   5.791   0.386   3.496
 8354W        W12405   4.530   2.722   9.149
 8355W        W12406   1.742   9.434  10.532
 8356W        W12407   7.676   6.471   3.385
 8357W        W12408   9.272   9.371   8.992
 8358W        W12409   5.062   4.577   1.723
 8359W        W12410   3.253   6.162   9.321
 8360W        W12411   7.802   4.599  11.248
 8361W        W12412   3.830   5.772   0.706
 8362W        W12413   1.229   5.893   3.477
 8363W        W12414   7.078   2.659  11.978
 8364W        W12415   1.784   7.243   3.888
 8365W        W12416   4.667   8.858  10.498
 8366W        W12417   9.095   1.661   1.924
 8367W        W12418   8.339   4.343   0.851
 8368W        W12419   2.661   0.226   1.692
 8369W        W12420  10.507   8.657   3.192
 8370W        W12421   1.424   7.127   2.411
 8371W        W12422   2.383   4.853   2.812
 8372W        W12423  10.464   5.813   9.986
 8373W        W12424   4.213   4.266   8.812
 8374W        W12425   1.995   4.616   1.048
 8375W        W12426   5.106   7.229   1.388
 8376W        W12427   2.363   1.893   2.191
 8377W        W12428   8.908   5.071  10.307
 8378W        W12429   4.060   5.309  10.089
 8379W        W12430   8.341   3.848   2.326
 8380W        W12431   9.380   9.353  10.919
 8381W        W12432   4.801   7.752   0.573
 8382W        W12433   1.321   4.637   1.212
 8383W        W12434   8.549   9.572  11.528
 8384W        W12435   2.348   1.525   3.537
 8385W        W12436   3.250   0.116   2.916
 8386W        W12437   7.496   8.468   9.348
 8387W        W12438   1.373   7.087  10.040
 8388W        W12439   8.537   0.310  11.385
 8389W        W12440   7.120  11.302   1.843
 8390W        W12441  11.422   4.823   9.088
 8391W        W12442   0.288   9.895  10.169
 8392W        W12443   5.065   1.675  10.761
 8393W        W12444   1.924   6.147   8.929
 8394W        W12445   7.180   0.022   9.081
 8395W        W12446   7.398   4.338  10.595
 8396W        W12447   2.778   3.286   9.248
 8397W        W12448   6.206   2.866   0.439
 8398W        W12449   8.429   0.167   0.973
 8399W        W12450   2.155   0.424  11.299
 8400W        W12451   3.290   3.857   9.653
 8401W        W12452   6.407   3.345  10.618
 8402W        W12453   0.347   9.513   1.972
 8403W        W12454   0.936   5.993   1.664
 8404W        W12455   1.345   0.970   9.589
 8405W        W12456   1.357   5.084  10.737
 8406W        W12457   7.525   0.260   9.658
 8407W        W12458   3.741   8.518   8.726
 8408W        W12459   4.197  10.930   0.736
 8409W        W12460   9.168   1.392   0.694
 8410W        W12461   2.365   5.270   2.489
 8411W        W12462   2.718   8.029   3.144
 8412W        W12463   6.151   3.460  11.133
 8413W        W12464   4.158   0.879   9.162
 8414W        W12465   5.984   7.252   3.176
 8415W        W12466  10.542   6.022  11.818
 8416W        W12467   3.348  11.405   8.717
 8417W        W12468   7.483   8.615   1.834
 8418W        W12469   1.222  10.446   0.502
 8419W        W12470   6.552   9.595  11.511
 8420W        W12471   9.103   2.449   0.705
 8421W        W12472   3.108   0.666  11.032
 8422W        W12473   8.584   0.716   9.008
 8423W        W12474   1.578   7.633   2.275
 8424W        W12475  11.488   6.510  10.570
 8425W        W12476   7.709   1.805   2.002
 8426W        W12477   7.175   1.207  11.764
 8427W        W12478   4.681   2.842   3.561
 8428W        W12479   6.807   0.381   8.976
 8429W        W12480   2.755   7.394   9.818
 8430W        W12481   0.406   4.974  10.727
 8431W        W12482  10.833  11.411  10.499
 8432W        W12483   1.284   3.280   3.114
 8433W        W12484  10.859   0.838   9.550
 8434W        W12485   8.418   2.471   9.089
 8435W        W12486   1.353   6.206   1.970
 8436W        W12487   7.840   6.069   8.869
 8437W        W12488   9.916   7.198   1.904
 8438W        W12489   9.517   3.890   8.598
 8439W        W12490   6.365   2.027   4.069
 8440W        W12491   2.937   8.414  11.890
 8441W        W12492   9.397   1.672   3.338
 8442W        W12493  10.840  10.107   0.925
 8443W        W12494   3.166   6.653   2.532
 8444W        W12495   4.805  10.308   1.823
 8445W        W12496   3.243  10.056   9.871
 8446W        W12497   6.030  10.991   1.992
 8447W        W12498   3.169   0.325   0.973
 8448ION    NA+12499   2.193   0.090   1.888
 8449ION    NA+12500   3.661   7.528   1.091
 8450ION    NA+12501   9.639   3.938  11.240
 8451ION    NA+12502   3.099   8.834   1.567
 8452ION    NA+12503   9.440   4.680  10.601
 8453ION    NA+12504   2.236   6.592   2.144
 8454ION    NA+12505   4.785   3.804  11.684
 8455ION    NA+12506   7.508   1.276   3.658
 8456ION    NA+12507   0.009   8.478  10.395
 8457ION    NA+12508   6.186   8.187   2.207
 8458ION    NA+12509   9.574   8.361  11.877
 8459ION    NA+12510   9.498   6.089   0.209
 8460ION    NA+12511   3.374   5.696   1.642
 8461ION    NA+12512   9.307   0.923  11.716
 8462ION    NA+12513   5.221   4.989   2.057
 8463ION    NA+12514  11.455   5.184  10.619
 8464ION    NA+12515   7.398   3.500   2.173
 8465ION    NA+12516   7.976  10.496   9.346
 8466ION    NA+12517   0.211   7.414   8.905
 8467ION    NA+12518   9.434   6.446   9.562
 8468ION    NA+12519   2.129   8.175   9.732
 8469ION    NA+12520   7.607   2.173   8.802
 8470ION    NA+12521   8.093   2.591   3.883
 8471ION    NA+12522   8.866  10.949   9.494
 8472ION    NA+12523   5.242   6.358  11.306
 8473ION    NA+12524   0.554   7.476   9.740
 8474ION    NA+12525   9.113  10.702   0.765
 8475ION    NA+12526   4.026   4.039  10.249
 8476ION    NA+12527   9.385   7.749  11.247
 8477ION    NA+12528   3.915   2.173   1.711
 8478ION    NA+12529   4.818   0.935   2.129
 8479ION    NA+12530   1.259   5.050  11.789
 8480ION    NA+12531   0.949  11.207   8.974
 8481ION    NA+12532   8.786   8.387  11.731
 8482ION    NA+12533   0.883   3.996   3.026
 8483ION    NA+12534   7.082   1.346   2.697
 8484ION    NA+12535   5.074   2.101  11.944
 8485ION    NA+12536   4.161   0.726  10.411
 8486ION    NA+12537  10.604   0.115   1.487
 8487ION    NA+12538   5.613   7.578   2.438
 8488ION    NA+12539  11.154   0.486   2.677
 8489ION    NA+12540   4.247   3.954   0.608
 8490ION    NA+12541   6.032   9.434   2.523
 8491ION    NA+12542   3.216   2.372   0.422
 8492ION    NA+12543   1.480   2.204   8.893
 8493ION    NA+12544   3.039   8.925  11.863
 8494ION    NA+12545   4.223   1.759   2.568
 8495ION    NA+12546   8.551   6.824   9.841
 8496ION    NA+12547   7.523   9.545   1.011
 8497ION    NA+12548   7.419   0.854   0.085
 8498ION    NA+12549   1.845   4.128   1.282
 8499ION    NA+12550   7.954   6.372  10.582
 8500ION    NA+12551   3.088   5.838   2.624
 8501ION    NA+12552   5.343   1.672   2.214
 8502ION    NA+12553   0.241   4.393  11.682
 8503ION    NA+12554   3.044   8.285   0.874
 8504ION    NA+12555   7.101   1.688   1.648
 8505ION    NA+12556   3.062  11.037   8.011
 8506ION    NA+12557   8.199   1.075   2.914
 8507ION    NA+12558   4.034   8.425   0.851
 8508ION    NA+12559   9.288   0.082   0.942
 8509ION    NA+12560   3.462   2.055   3.609
 8510ION    NA+12561   5.355  10.110  11.402
 8511ION    NA+12562   7.956   5.109   3.160
 8512ION    NA+12563  11.380   7.930  11.965
 8513ION    NA+12564   9.340   0.752   9.927
 8514ION    NA+12565  11.427  11.078  11.983
 8515ION    NA+12566  11.052   6.519  10.180
 8516ION    NA+12567   5.751   2.817   9.538
 8517ION    NA+12568   6.702   9.167   8.792
 8518ION    NA+12569   1.007   5.097   1.217
 8519ION    NA+12570   7.546   0.235  11.309
 8520ION    NA+12571   0.407   0.435   9.134
 8521ION    NA+12572   2.377   7.806   8.578
 8522ION    NA+12573   8.981   3.295   0.440
 8523ION    NA+12574   9.642   1.627   2.450
 8524ION    NA+12575  10.501   7.713   9.846
 8525ION    NA+12576  10.506   4.178   0.718
 8526ION    NA+12577   7.457   8.695   8.885
 8527ION    NA+12578   0.556   1.532  11.464
 8528ION    NA+12579   9.762  10.137  11.158
 8529ION    NA+12580  10.336  11.014   0.382
 8530ION    NA+12581   9.556   1.487   9.273
 8531ION    NA+12582   0.025   1.790  10.730
 8532ION    NA+12583   8.599   4.534   2.654
 8533ION    NA+12584   1.809  11.211   0.423
 8534ION    NA+12585   2.663   3.415  10.327
 8535ION    NA+12586   8.512   0.172   9.870
 8536ION    NA+12587   5.141   3.379   8.274
 8537ION    CL-12588   2.813   4.606   2.958
 8538ION    CL-12589   4.705   3.243   8.298
 8539ION    CL-12590   0.376   2.364   3.504
 8540ION    CL-12591   1.215  11.346  11.528
 8541ION    CL-12592  10.019   4.120   3.490
 8542ION    CL-12593  11.136  11.412  10.909
 8543ION    CL-12594   5.798  10.110  11.338
 8544ION    CL-12595   9.142   3.744  10.390
 8545ION    CL-12596   9.482  10.494  11.207
 8546ION    CL-12597   0.100   0.591  10.325
 8547ION    CL-12598   2.806   5.104  11.761
 8548ION    CL-12599   5.085   1.305   2.143
 8549ION    CL-12600   3.528  10.689   3.609
 8550ION    CL-12601  11.237   4.093   1.531
 8551ION    CL-12602   1.510   7.653  11.364
 8552ION    CL-12603   0.375   1.517  10.886
 8553ION    CL-12604   6.401   9.291   2.312
 8554ION    CL-12605   0.300  10.529  10.905
 8555ION    CL-12606   4.462   3.934  10.300
 8556ION    CL-12607   6.233   9.326  10.150
 8557ION    CL-12608   0.695   0.077   9.118
 8558ION    CL-12609   2.661   2.194  10.864
 8559ION    CL-12610   7.714   1.727   8.783
 8560ION    CL-12611   9.529   1.931   2.139
 8561ION    CL-12612   9.055   1.193  11.467
 8562ION    CL-12613   0.858   8.788  11.552
 8563ION    CL-12614   8.326   0.676   2.754
 8564ION    CL-12615   9.348  10.859   3.557
 8565ION    CL-12616  11.425   0.834   2.722
 8566ION    CL-12617   8.267   4.625  11.439
 8567ION    CL-12618   2.504   9.849   9.459
 8568ION    CL-12619   8.601   3.072   0.381
 8569ION    CL-12620   9.414   2.888   9.950
 8570ION    CL-12621   4.766   7.225   2.915
 8571ION    CL-12622   9.164   8.590  11.929
 8572ION    CL-12623   8.598   8.124  11.401
 8573ION    CL-12624   6.123   7.408   0.229
 8574ION    CL-12625  10.509   2.117   3.087
 8575ION    CL-12626  11.221   9.419   0.749
 8576ION    CL-12627   1.759   4.961   4.109
 8577ION    CL-12628   0.539   1.813  11.822
 8578ION    CL-12629   8.630  11.257   9.725
 8579ION    CL-12630   1.958  10.200   3.420
 8580ION    CL-12631   8.550   2.127  11.023
 8581ION    CL-12632  11.451   1.438   0.538
 8582ION    CL-12633   2.787  11.090   3.070
 8583ION    CL-12634   8.064   7.913  10.436
 8584ION    CL-12635  10.091   9.867  10.992
 8585ION    CL-12636   4.167   0.057   8.378
 8586ION    CL-12637   0.317   6.753   1.637
 8587ION    CL-12638   5.792   7.979   2.309
 8588ION    CL-12639   7.391   7.048   1.671
 8589ION    CL-12640   1.267   2.257   9.282
 8590ION    CL-12641   9.692   3.496  11.187
 8591ION    CL-12642   5.867  10.359  10.035
 8592ION    CL-12643   2.053  11.098   8.732
 8593ION    CL-12644   4.088   4.076   1.009
 8594ION    CL-12645   0.388  10.510   0.970
 8595ION    CL-12646   3.080   8.484   1.281
 8596ION    CL-12647   9.190  11.141   0.868
 8597ION    CL-12648  10.395   3.972   2.058
 8598ION    CL-12649  10.845   1.194  10.580
 8599ION    CL-12650   4.725   7.847   1.743
 8600ION    CL-12651   5.603   3.240  11.291
 8601ION    CL-12652  10.521   7.015   0.454
 8602ION    CL-12653   2.713   3.834  10.471
 8603ION    CL-12654   4.828   1.313   8.912
 8604ION    CL-12655   0.063   7.723   8.430
 8605ION    CL-12656   6.931   9.289  11.263
 8606ION    CL-12657   9.815   8.530   9.888
 8607ION    CL-12658   5.951   7.010   9.784
 8608ION    CL-12659   4.253   0.552  10.010
 8609ION    CL-12660   9.571   7.991  11.585
 8610ION    CL-12661   0.328   7.435   9.350
 8611ION    CL-12662   8.068   7.371   2.800
 8612ION    CL-12663   1.647   6.538   9.429
 8613ION    CL-12664   7.040   8.853   8.767
 8614ION    CL-12665   2.126  10.906   0.341
 8615ION    CL-12666   9.586   4.389   2.472
 8616ION    CL-12667   5.494   6.023  11.151
 8617ION    CL-12668   4.830   5.252  10.817
 8618ION    CL-12669   7.069   0.674   0.297
 8619ION    CL-12670   0.600   8.086   3.172
 8620ION    CL-12671  11.209   2.122  10.669
 8621ION    CL-12672   4.214   9.608   0.502
 8622ION    CL-12673   1.002  10.080   9.159
 8623ION    CL-12674   6.507   4.453  11.961
 8624ION    CL-12675   0.462   8.591   1.463
 8625ION    CL-12676   6.756   7.561  10.091
  11.50000  11.50000  12.00000
