Protein in INSANE! Membrane UpperLeaflet>POPC=1.0 LowerLeaflet>POPC=1.0
11530
    1AU     AUC    1   1.126   4.929   5.336 -0.0110  0.0851  0.0233
    1AU     AUC    2   1.189   5.229   5.260  0.0851 -0.0491 -0.0423
    1AU     AUC    3   0.903   5.034   5.205  0.0397 -0.0514 -0.0955
    1AU     AUC    4   1.412   4.782   5.464 -0.0194 -0.1221 -0.0340
    1AU     AUC    5   1.135   4.597   5.355  0.0173 -0.0524 -0.0641
    1AU     AUC    6   1.292   4.685   5.158 -0.0640 -0.0163 -0.1110
    1AU     AUC    7   1.170   4.987   5.021 -0.0093  0.0231  0.0025
    1AU     AUC    8   1.158   4.819   5.626  0.0114 -0.1042  0.0279
    1AU     AUC    9   0.964   5.114   5.496 -0.1487  0.0540 -0.0222
    1AU     AUC   10   0.855   4.825   5.385  0.0184  0.0154 -0.0416
    1AU     AUC   11   0.985   4.725   5.102  0.1134  0.0716 -0.0152
    1AU     AUC   12   1.294   5.104   5.539 -0.0888  0.0801 -0.0141
    1AU     AUC   13   1.428   5.019   5.243  0.0383 -0.0205  0.0423
    1AU     AUC   14   1.158   5.587   5.193 -0.0419 -0.0554  0.0214
    1AU     AUC   15   0.902   5.465   5.109  0.0671  0.0424 -0.0277
    1AU     AUC   16   0.597   5.216   5.048  0.0173 -0.1451  0.0038
    1AU     AUC   17   1.699   4.600   5.600  0.0412 -0.0447  0.1174
    1AU     AUC   18   1.416   4.394   5.484  0.0505  0.0142  0.0323
    1AU     AUC   19   1.096   4.252   5.439  0.0277 -0.0111  0.0293
    1AU     AUC   20   1.494   4.467   4.915 -0.0098 -0.0871  0.0062
    1AU     AUC   21   1.376   4.800   4.780 -0.0377 -0.1291 -0.0012
    1AU     AUC   22   1.251   5.082   4.684 -0.0406  0.1004  0.0174
    1AU     AUC   23   1.140   4.732   5.968 -0.0063 -0.0631 -0.0737
    1AU     AUC   24   0.948   4.998   5.877 -0.0655  0.0284 -0.0088
    1AU     AUC   25   0.793   5.316   5.722  0.1101  0.0574  0.0363
    1AU     AUC   26   0.554   4.741   5.539  0.0486 -0.0510  0.1128
    1AU     AUC   27   0.627   4.616   5.232  0.0147 -0.1476  0.1457
    1AU     AUC   28   0.794   4.581   4.910 -0.0748  0.0886  0.0407
    1AU     AUC   29   1.496   5.295   5.763 -0.0705 -0.0224  0.0279
    1AU     AUC   30   1.623   5.243   5.459  0.0311 -0.0472 -0.0957
    1AU     AUC   31   1.731   5.184   5.151 -0.0588 -0.0116 -0.0047
    1AU     AUC   32   0.530   4.994   5.327  0.0781 -0.0188  0.0942
    1AU     AUC   33   0.631   4.864   4.969 -0.0410 -0.0215 -0.0382
    1AU     AUC   34   1.315   5.465   5.532  0.0659  0.0497 -0.0879
    1AU     AUC   35   1.457   5.419   5.170 -0.0404  0.0354 -0.0320
    1AU     AUC   36   0.815   4.456   5.537  0.0348  0.0327 -0.0170
    1AU     AUC   37   0.901   4.390   5.161 -0.0208 -0.0428  0.1258
    1AU     AUC   38   1.639   4.947   5.634  0.0045 -0.0131  0.0946
    1AU     AUC   39   1.773   4.896   5.395  0.0125 -0.0381  0.0500
    1AU     AUC   40   1.198   5.358   4.924 -0.0133 -0.0253 -0.0366
    1AU     AUC   41   0.885   5.131   4.886 -0.0058 -0.0686 -0.0514
    1AU     AUC   42   1.593   4.518   5.244  0.0659  0.0616 -0.0271
    1AU     AUC   43   1.277   4.330   5.153  0.0112  0.0944  0.0522
    1AU     AUC   44   0.955   5.465   5.455 -0.0244  0.0471 -0.1235
    1AU     AUC   45   0.712   5.298   5.366  0.0604  0.0338  0.0505
    1AU     AUC   46   1.436   4.615   5.767  0.0762  0.0688  0.0237
    1AU     AUC   47   1.144   4.455   5.678  0.1018 -0.1374 -0.1117
    1AU     AUC   48   1.144   4.502   4.862 -0.0703  0.0292  0.0175
    1AU     AUC   49   0.989   4.819   4.784  0.0088  0.0717  0.0170
    1AU     AUC   50   0.858   4.731   5.771 -0.0021 -0.0280  0.0725
    1AU     AUC   51   0.637   5.053   5.650 -0.0440  0.0249 -0.0788
    1AU     AUC   52   1.628   4.841   5.051 -0.0335  0.0696 -0.1020
    1AU     AUC   53   1.519   5.167   4.919 -0.0629  0.0505 -0.0217
    1AU     AUC   54   1.357   4.965   5.872  0.0158  0.0440 -0.0323
    1AU     AUC   55   1.125   5.283   5.788  0.0108 -0.0366  0.0400
    1AU    AUSL   56   0.228   4.990   5.072 -0.1148 -0.0089 -0.0294
    1AU    AUSL   57   0.196   5.078   5.528  0.0529  0.0492 -0.0773
    1AU     AUL   58   0.001   5.211   5.215 -0.0686  0.0700  0.0904
    1AU       S   59   0.009   5.426   5.705  0.0377 -0.1308 -0.0743
    1AU     LIG   60  -0.366   5.747   5.708  0.1559 -0.0365  0.0419
    1AU     LIG   61  -0.617   6.031   5.876 -0.3122  0.2306 -0.6077
    1AU       S   62  -0.108   4.752   5.253  0.0031 -0.0809 -0.2413
    1AU     LIG   63  -0.467   4.986   5.277 -0.3280  0.0446 -0.2832
    1AU     LIG   64  -0.935   5.107   5.226  0.2040 -0.3339 -0.0679
    1AU    AUSL   65   0.366   4.695   5.361 -0.0345  0.0524  0.0159
    1AU    AUSL   66   0.477   4.332   5.121  0.0542  0.0937  0.0592
    1AU     AUL   67   0.171   4.392   5.132 -0.0095 -0.1032  0.1417
    1AU       S   68  -0.006   4.644   5.483  0.2462  0.2189 -0.3274
    1AU     LIG   69  -0.239   4.986   5.761  0.4426  0.4682 -0.1328
    1AU     LIG   70  -0.274   5.316   6.088 -0.0897  0.0340 -0.0397
    1AU       S   71   0.028   4.114   5.525  0.0700 -0.0679 -0.2702
    1AU     LIG   72  -0.297   3.863   5.417  0.0564 -0.0699  0.1828
    1AU     LIG   73  -0.656   3.699   5.231  0.0504 -0.1614 -0.3610
    1AU    AUSL   74   0.545   4.701   4.963 -0.1252  0.0063 -0.0044
    1AU    AUSL   75   0.470   5.077   4.705  0.0660  0.0019  0.0019
    1AU     AUL   76   0.200   4.791   4.832  0.0963 -0.0078 -0.0124
    1AU       S   77   0.301   4.299   4.662 -0.1711 -0.0658 -0.3007
    1AU     LIG   78  -0.150   4.336   4.681  0.0487 -0.1232 -0.0326
    1AU     LIG   79  -0.292   4.311   5.120 -0.1648 -0.0603 -0.0124
    1AU       S   80   0.292   5.014   4.431  0.0283 -0.4835  0.0207
    1AU     LIG   81   0.054   5.288   4.705 -0.0880 -0.3095  0.3435
    1AU     LIG   82  -0.015   5.593   4.952 -0.3180 -0.0931  0.0374
    1AU    AUSL   83   1.495   5.786   5.288  0.0760 -0.0408 -0.0235
    1AU    AUSL   84   1.765   5.560   4.890  0.0764  0.0382 -0.0780
    1AU     AUL   85   1.856   5.826   5.096  0.0448  0.1138 -0.0178
    1AU       S   86   1.790   6.054   5.523  0.1224 -0.0243 -0.2449
    1AU     LIG   87   2.271   5.951   5.678 -0.1982  0.0513 -0.0307
    1AU     LIG   88   2.669   6.059   5.896 -0.0722  0.0710 -0.1841
    1AU       S   89   1.703   5.836   4.637  0.1084 -0.3174 -0.0584
    1AU     LIG   90   2.142   5.732   4.586  0.3685 -0.2069  0.1391
    1AU     LIG   91   2.532   5.483   4.499  0.0665  0.3692  0.1403
    1AU    AUSL   92   1.562   5.571   5.663 -0.0471 -0.1138  0.1235
    1AU    AUSL   93   1.151   5.630   5.513  0.0022 -0.0336  0.0920
    1AU     AUL   94   1.324   5.947   5.524  0.0144 -0.0012  0.0426
    1AU       S   95   1.019   6.057   6.148  0.1869  0.4183 -0.0509
    1AU     LIG   96   1.077   6.456   6.362  0.3446  0.2569 -0.0519
    1AU     LIG   97   1.205   6.636   6.678  0.3997 -0.1545  0.0954
    1AU       S   98   1.714   5.820   5.825  0.4494  0.0025 -0.0966
    1AU     LIG   99   1.786   5.546   6.115 -0.2391 -0.0388  0.2990
    1AU     LIG  100   2.031   5.320   6.426  0.0514 -0.1556 -0.0413
    1AU    AUSL  101   1.678   5.379   5.280 -0.0183  0.0248  0.1229
    1AU    AUSL  102   1.892   5.303   5.699 -0.0053  0.0783  0.1189
    1AU     AUL  103   1.940   5.604   5.502  0.0456 -0.0070 -0.0115
    1AU       S  104   2.273   5.342   5.812  0.6050 -0.1833 -0.1888
    1AU     LIG  105   2.715   5.644   5.649 -0.5294 -0.1885 -0.0799
    1AU     LIG  106   3.079   5.882   5.384  0.0331  0.1355  0.1215
    1AU       S  107   1.756   6.034   5.786  0.2706  0.0928  0.3160
    1AU     LIG  108   2.081   6.181   6.148 -0.2641  0.5397 -0.0680
    1AU     LIG  109   2.482   6.153   6.441 -0.1629 -0.2071  0.2847
    1AU    AUSL  110   0.808   4.208   5.377 -0.0479 -0.0489  0.0115
    1AU    AUSL  111   0.836   4.260   4.886  0.0531 -0.0731  0.0255
    1AU     AUL  112   0.578   4.051   5.078 -0.0944  0.0370  0.1181
    1AU       S  113   0.213   3.938   5.382 -0.4713 -0.0344  0.1172
    1AU     LIG  114   0.043   3.614   5.665 -0.2265 -0.1000  0.1655
    1AU     LIG  115   0.059   3.190   5.789 -0.3071  0.2498 -0.2133
    1AU       S  116   0.924   3.806   4.828 -0.0216 -0.2806 -0.1855
    1AU     LIG  117   1.078   3.307   5.001  0.4267 -0.4223 -0.4167
    1AU     LIG  118   1.165   3.146   5.373  0.1064 -0.1402  0.1292
    1AU    AUSL  119   0.416   4.319   5.569  0.0606 -0.0599  0.0309
    1AU    AUSL  120   0.812   4.136   5.799 -0.0035  0.1046 -0.0214
    1AU     AUL  121   0.681   3.977   5.545  0.0298 -0.0844  0.0513
    1AU       S  122   0.703   4.042   6.071  0.0086  0.1518  0.0844
    1AU     LIG  123   0.572   3.620   5.889  0.2146 -0.0697  0.3131
    1AU     LIG  124   0.245   3.488   6.187  0.4737  0.1834  0.3247
    1AU       S  125   0.251   4.229   5.622 -0.1829  0.0961  0.0586
    1AU     LIG  126   0.208   4.029   6.050 -0.0128 -0.2705  0.0637
    1AU     LIG  127  -0.134   3.744   6.249  0.2480  0.0538 -0.1965
    1AU    AUSL  128   2.011   4.903   5.649 -0.0808  0.0582  0.0937
    1AU    AUSL  129   1.617   5.022   5.889 -0.0601 -0.0236 -0.0585
    1AU     AUL  130   1.890   5.098   6.037 -0.0163  0.0439 -0.0689
    1AU       S  131   2.306   5.043   5.817 -0.0496  0.0166  0.0895
    1AU     LIG  132   2.633   5.198   5.476  0.0641 -0.2514  0.0093
    1AU     LIG  133   2.845   5.379   5.156 -0.5116 -0.0268  0.4375
    1AU       S  134   2.145   4.652   6.174  0.7237  0.1489 -0.1275
    1AU     LIG  135   2.515   4.665   6.199 -0.0992  0.2496 -0.0861
    1AU     LIG  136   2.745   4.390   6.602 -0.1904 -0.3121  0.0584
    1AU    AUSL  137   2.071   5.205   5.304  0.0145 -0.0389  0.0093
    1AU    AUSL  138   2.030   4.547   5.415  0.0481  0.0047  0.0255
    1AU     AUL  139   2.273   4.913   5.372 -0.0922 -0.0356 -0.0258
    1AU       S  140   2.264   4.429   5.386 -0.2483 -0.4048  0.0892
    1AU     LIG  141   2.540   4.524   5.596  0.1944 -0.2386 -0.0035
    1AU     LIG  142   2.784   4.857   5.805 -0.0899 -0.0917 -0.4347
    1AU       S  143   2.432   5.184   5.975  0.0364  0.0447 -0.3549
    1AU     LIG  144   2.768   5.352   6.293  0.0273  0.2118  0.2330
    1AU     LIG  145   2.704   5.723   6.428 -0.1143  0.1482 -0.0510
    1AU    AUSL  146   1.048   5.371   4.567  0.0390 -0.0791  0.0123
    1AU    AUSL  147   1.337   5.684   4.918 -0.0411  0.0961  0.0814
    1AU     AUL  148   1.225   5.634   4.486  0.0550  0.1820  0.0414
    1AU       S  149   1.392   5.926   4.824 -0.4019 -0.1879 -0.1722
    1AU     LIG  150   1.096   6.289   4.959 -0.1287 -0.0125 -0.0824
    1AU     LIG  151   1.176   6.712   5.059 -0.3979 -0.0167 -0.3068
    1AU       S  152   0.465   5.683   4.452  0.2529  0.1103  0.0984
    1AU     LIG  153   0.176   5.974   4.171 -0.0446  0.0721  0.2972
    1AU     LIG  154  -0.247   5.859   4.075 -0.0710 -0.1737 -0.0781
    1AU    AUSL  155   0.924   5.713   4.857  0.0873  0.0452  0.0239
    1AU    AUSL  156   0.532   5.648   5.074 -0.0452  0.0447 -0.1050
    1AU     AUL  157   0.666   5.991   4.844 -0.0396 -0.0323  0.0155
    1AU       S  158   0.693   5.694   4.435 -0.2813 -0.0472  0.0318
    1AU     LIG  159   0.583   6.181   4.416 -0.0927 -0.0945 -0.0556
    1AU     LIG  160   0.357   6.388   4.519 -0.0697  0.0380 -0.2588
    1AU       S  161   0.416   6.001   5.227 -0.2967 -0.0757  0.0391
    1AU     LIG  162  -0.002   6.037   5.166  0.1709 -0.5321  0.0274
    1AU     LIG  163  -0.371   6.216   5.375  0.0436 -0.2309  0.0845
    1AU    AUSL  164   0.752   5.324   4.902  0.0068  0.0570  0.0379
    1AU    AUSL  165   0.911   4.976   4.653  0.0543 -0.0031 -0.0217
    1AU     AUL  166   0.735   5.246   4.476 -0.0153  0.0177 -0.0085
    1AU       S  167   0.198   4.911   4.302  0.1937  0.1794  0.0376
    1AU     LIG  168  -0.160   4.861   4.569  0.2393  0.4185 -0.3673
    1AU     LIG  169  -0.479   4.760   4.829 -0.0793  0.0561 -0.0999
    1AU       S  170   0.464   5.574   4.635 -0.4913 -0.1551  0.4201
    1AU     LIG  171   0.190   5.955   4.691  0.2589  0.1666 -0.1436
    1AU     LIG  172  -0.210   6.189   4.471 -0.0574 -0.2058 -0.3183
    1AU    AUSL  173   1.552   4.209   5.012 -0.1394 -0.0280  0.0028
    1AU    AUSL  174   1.146   4.068   5.154 -0.0197  0.0542 -0.0127
    1AU     AUL  175   1.485   3.852   4.965 -0.0664 -0.0564  0.1360
    1AU       S  176   0.981   3.810   5.157 -0.3931  0.1021 -0.0381
    1AU     LIG  177   0.562   3.576   5.231  0.1552  0.5417 -0.0940
    1AU     LIG  178   0.331   3.511   4.814  0.0061  0.1611 -0.0527
    1AU       S  179   1.763   4.123   4.641  0.6357 -0.3815 -0.0510
    1AU     LIG  180   1.814   3.701   4.601 -0.1576  0.4758  0.3030
    1AU     LIG  181   1.625   3.370   4.917 -0.0384 -0.1174 -0.4778
    1AU    AUSL  182   1.649   4.384   5.412 -0.0292 -0.0450  0.0037
    1AU    AUSL  183   1.900   4.453   4.992 -0.0410 -0.0566 -0.0312
    1AU     AUL  184   1.899   4.161   5.201  0.0672 -0.0691 -0.0629
    1AU       S  185   2.148   4.201   5.787 -0.2802 -0.0917  0.1759
    1AU     LIG  186   2.510   3.955   5.736 -0.1114 -0.0815  0.2552
    1AU     LIG  187   2.961   3.987   5.694  0.2703 -0.0238  0.0991
    1AU       S  188   2.256   4.348   4.818 -0.2595 -0.1408 -0.0547
    1AU     LIG  189   2.314   3.924   5.160 -0.1103  0.2684  0.2135
    1AU     LIG  190   2.355   3.598   5.405 -0.0474 -0.1479  0.0518
    1AU    AUSL  191   1.468   3.992   5.406  0.0385  0.0291  0.0539
    1AU    AUSL  192   1.618   4.204   5.808 -0.0943  0.0079 -0.0318
    1AU     AUL  193   1.739   3.992   5.588 -0.0088 -0.0333 -0.0527
    1AU       S  194   1.471   3.877   5.947 -0.0220 -0.0030 -0.0920
    1AU     LIG  195   1.801   3.746   6.309  0.0339 -0.0861 -0.0922
    1AU     LIG  196   2.227   3.673   6.379  0.4143  0.1774 -0.1095
    1AU       S  197   1.385   3.692   5.383 -0.5339  0.2435 -0.2701
    1AU     LIG  198   1.617   3.495   5.576 -0.0234 -0.2579  0.1871
    1AU     LIG  199   1.974   3.699   5.869 -0.5467 -0.3770  0.0061
    1AU    AUSL  200   0.679   5.614   5.470  0.0160  0.0024  0.0103
    1AU    AUSL  201   0.509   5.254   5.267  0.0089 -0.0370 -0.0994
    1AU     AUL  202   0.324   5.526   5.303  0.0543 -0.0550 -0.0001
    1AU       S  203   0.436   5.921   5.464 -0.4929 -0.3498 -0.0487
    1AU     LIG  204   0.468   6.041   5.844 -0.0013  0.1315 -0.0556
    1AU     LIG  205   0.747   6.373   5.908  0.1406  0.1788  0.0872
    1AU       S  206   0.111   5.662   5.772 -0.0623  0.5027  0.0058
    1AU     LIG  207  -0.195   5.826   6.194  0.1434  0.1362  0.0954
    1AU     LIG  208  -0.333   5.941   6.547 -0.2602 -0.2423 -0.0235
    1AU    AUSL  209   0.933   5.877   5.243 -0.0094  0.0531  0.0881
    1AU    AUSL  210   0.825   5.612   5.865  0.0348 -0.0008 -0.1526
    1AU     AUL  211   0.874   5.890   5.641 -0.0406  0.0821  0.0239
    1AU       S  212   0.643   6.083   5.324 -0.0561 -0.4173  0.3786
    1AU     LIG  213   0.900   6.441   5.417 -0.1490  0.1602 -0.0506
    1AU     LIG  214   1.132   6.742   5.592  0.1883  0.1310 -0.1869
    1AU       S  215   0.850   5.856   6.097  0.1588 -0.2421 -0.1417
    1AU     LIG  216   0.749   5.689   6.496  0.4311 -0.1311 -0.2221
    1AU     LIG  217   0.612   5.418   6.655 -0.0987 -0.1299 -0.1492
    1AU    AUSL  218   1.332   4.510   5.942  0.0470 -0.0211  0.0289
    1AU    AUSL  219   1.765   4.595   5.837 -0.0972 -0.1239  0.0460
    1AU     AUL  220   1.600   4.300   6.104  0.0197  0.0404  0.0218
    1AU       S  221   1.992   4.575   6.056 -0.1582  0.0307 -0.4193
    1AU     LIG  222   2.047   4.165   6.303 -0.0824 -0.0439  0.0471
    1AU     LIG  223   2.453   4.098   6.288  0.2151  0.0541  0.0252
    1AU       S  224   1.348   3.744   5.972  0.0443  0.3031  0.3948
    1AU     LIG  225   1.588   3.336   6.088 -0.0132 -0.3408  0.1821
    1AU     LIG  226   1.910   3.120   6.444 -0.0745  0.2627  0.3758
    1AU    AUSL  227   1.196   4.213   5.644  0.0864  0.0636  0.0140
    1AU    AUSL  228   0.927   4.449   6.078  0.0039 -0.0234 -0.0065
    1AU     AUL  229   1.136   4.200   6.037 -0.0043 -0.0924 -0.0177
    1AU       S  230   0.706   4.246   6.302 -0.0273 -0.1417  0.2179
    1AU     LIG  231   0.826   4.057   6.682 -0.0185 -0.2301 -0.0158
    1AU     LIG  232   0.893   3.651   6.874  0.3793 -0.0813  0.1835
    1AU       S  233   1.203   3.804   5.806  0.3300 -0.0409  0.2331
    1AU     LIG  234   0.934   3.554   5.589 -0.1132 -0.2262  0.2872
    1AU     LIG  235   0.634   3.175   5.603 -0.3924  0.1673 -0.1791
    1AU    AUSL  236   1.016   4.542   4.611  0.1057  0.0049 -0.0531
    1AU    AUSL  237   1.217   4.169   4.723 -0.0632  0.0396  0.0065
    1AU     AUL  238   0.809   4.226   4.519  0.0841 -0.0302  0.0017
    1AU       S  239   1.150   3.934   4.660 -0.3620  0.1078 -0.0275
    1AU     LIG  240   1.272   3.494   4.580  0.2646 -0.1635  0.4356
    1AU     LIG  241   1.432   3.266   4.311 -0.0774  0.2340 -0.0265
    1AU       S  242   1.154   4.405   4.198 -0.1074  0.1174  0.1106
    1AU     LIG  243   1.370   4.025   4.247 -0.1637  0.0340 -0.5387
    1AU     LIG  244   1.586   3.691   4.158  0.2147 -0.1813 -0.0801
    1AU    AUSL  245   1.454   4.485   4.556  0.0513 -0.1497 -0.0110
    1AU    AUSL  246   1.634   5.004   4.490 -0.0831 -0.0081 -0.0530
    1AU     AUL  247   1.696   4.643   4.365 -0.0730  0.0698 -0.0305
    1AU       S  248   1.308   4.467   4.088 -0.0893 -0.2443  0.0130
    1AU     LIG  249   1.775   4.206   4.132  0.0213 -0.2096 -0.2162
    1AU     LIG  250   2.138   4.040   4.233 -0.0607 -0.1460 -0.2024
    1AU       S  251   1.973   5.033   4.372 -0.0019 -0.2011 -0.2204
    1AU     LIG  252   2.161   4.653   4.330 -0.1801 -0.5781  0.1288
    1AU     LIG  253   2.239   4.455   3.992  0.0326 -0.0690 -0.5851
    1AU    AUSL  254   1.232   4.869   4.407 -0.0074 -0.0877  0.0319
    1AU    AUSL  255   0.614   4.683   4.551  0.0052  0.0229  0.0275
    1AU     AUL  256   0.894   4.757   4.330  0.0000 -0.0046 -0.0459
    1AU       S  257   0.378   4.701   4.377  0.1717 -0.2602  0.2099
    1AU     LIG  258   0.046   4.384   4.231  0.3108 -0.1192 -0.3429
    1AU     LIG  259  -0.228   3.999   4.234  0.3677  0.0850  0.2124
    1AU       S  260   1.298   4.748   4.127  0.2675  0.3201 -0.1498
    1AU     LIG  261   1.744   4.785   3.939 -0.2141  0.1285  0.3386
    1AU     LIG  262   2.202   4.964   3.923 -0.0616 -0.1435 -0.4105
    1AU    AUSL  263   0.406   4.811   5.807 -0.0605 -0.0151 -0.0227
    1AU    AUSL  264   0.539   5.292   5.698  0.0248  0.0546 -0.0674
    1AU     AUL  265   0.196   5.051   5.904 -0.0727  0.0210  0.0666
    1AU       S  266   0.273   5.076   6.426  0.0711 -0.2002  0.1408
    1AU     LIG  267  -0.062   5.343   6.548  0.0771 -0.1858 -0.0060
    1AU     LIG  268  -0.113   5.504   6.954  0.3405 -0.3657  0.3633
    1AU       S  269   0.324   5.493   5.801  0.0902 -0.1704 -0.0236
    1AU     LIG  270   0.346   5.610   6.223  0.0742 -0.0889 -0.4470
    1AU     LIG  271   0.256   5.757   6.606 -0.2784  0.2118 -0.0809
    1AU    AUSL  272   0.768   4.842   6.054 -0.0292 -0.0068  0.0095
    1AU    AUSL  273   0.735   4.569   5.705  0.0820 -0.0027 -0.0675
    1AU     AUL  274   0.506   4.526   5.997 -0.0002 -0.0566  0.1498
    1AU       S  275   0.431   4.861   6.329 -0.3308  0.3548 -0.1843
    1AU     LIG  276   0.136   4.422   6.386 -0.5117  0.0976  0.2247
    1AU     LIG  277   0.272   3.995   6.538  0.2147 -0.0376 -0.0450
    1AU       S  278   0.714   3.899   6.242  0.3347  0.0821 -0.4603
    1AU     LIG  279   0.984   3.497   6.244 -0.4065  0.2120 -0.0509
    1AU     LIG  280   1.180   3.237   5.911 -0.3145 -0.3690 -0.2417
    1AU    AUSL  281   0.638   5.252   6.113  0.0562 -0.0578  0.0261
    1AU    AUSL  282   1.155   4.913   6.215  0.1056  0.0268 -0.0519
    1AU     AUL  283   0.849   5.056   6.358 -0.0087 -0.0395  0.0180
    1AU       S  284   1.159   4.668   6.456  0.2595  0.3063 -0.1577
    1AU     LIG  285   0.949   4.942   6.834  0.0830  0.0773  0.4904
    1AU     LIG  286   1.138   4.991   7.243  0.0862 -0.0482 -0.3056
    1AU       S  287   0.348   4.994   6.651  0.3823 -0.0178  0.1203
    1AU     LIG  288   0.295   5.230   7.031 -0.1130 -0.0673  0.3697
    1AU     LIG  289   0.249   5.328   7.359 -0.0556 -0.1168  0.0841
    1AU    AUSL  290   1.866   5.133   4.842  0.0476 -0.0031 -0.0604
    1AU    AUSL  291   1.429   5.272   4.751  0.0157  0.0254 -0.1060
    1AU     AUL  292   1.672   5.389   4.542  0.1114 -0.0078  0.0092
    1AU       S  293   2.106   5.218   4.697  0.3180 -0.3178 -0.1714
    1AU     LIG  294   2.336   5.483   4.978 -0.1031  0.2049 -0.1995
    1AU     LIG  295   2.378   5.636   5.309  0.0281 -0.0128 -0.0372
    1AU       S  296   1.564   6.091   4.685 -0.0479  0.0032  0.0896
    1AU     LIG  297   1.585   6.330   5.053 -0.0678  0.1344  0.1717
    1AU     LIG  298   1.571   6.494   5.415  0.0202 -0.0940 -0.2120
    1AU    AUSL  299   1.610   4.751   4.834 -0.0582  0.0590  0.0525
    1AU    AUSL  300   1.869   4.859   5.166  0.0185 -0.0717  0.0239
    1AU     AUL  301   2.014   4.743   4.819  0.0882  0.0775  0.0233
    1AU       S  302   2.112   5.238   4.419 -0.2076 -0.5045 -0.0507
    1AU     LIG  303   2.502   5.018   4.351  0.0813 -0.0240 -0.2331
    1AU     LIG  304   2.671   4.644   4.100 -0.2809  0.2527  0.1585
    1AU       S  305   2.381   4.583   5.061  0.0678  0.3588  0.2715
    1AU     LIG  306   2.761   4.799   5.229 -0.1477 -0.0868  0.0528
    1AU     LIG  307   3.162   4.940   5.479 -0.1692 -0.0609 -0.4261
    1AU    AUSL  308   1.389   5.267   6.141 -0.0064  0.0148 -0.0378
    1AU    AUSL  309   1.556   4.739   6.214 -0.0138  0.0395 -0.0216
    1AU     AUL  310   1.500   5.048   6.314  0.0298 -0.0641  0.0233
    1AU       S  311   1.815   4.690   6.331  0.0283 -0.0269  0.2017
    1AU     LIG  312   1.836   4.483   6.666 -0.1639 -0.3192  0.4938
    1AU     LIG  313   1.641   4.354   6.990 -0.1843 -0.0913  0.0207
    1AU       S  314   1.150   4.432   6.484 -0.3156 -0.2766 -0.1591
    1AU     LIG  315   0.720   4.574   6.646 -0.1568  0.2394  0.1053
    1AU     LIG  316   0.396   4.453   6.881  0.1530  0.2439  0.0151
    1AU    AUSL  317   1.014   5.223   5.913 -0.0601  0.0161 -0.0055
    1AU    AUSL  318   1.253   5.604   5.942  0.0078 -0.0600  0.1204
    1AU     AUL  319   1.063   5.457   6.196 -0.0088 -0.0058 -0.0446
    1AU       S  320   1.354   4.411   6.555 -0.0690  0.0481  0.0072
    1AU     LIG  321   1.332   4.002   6.410 -0.1550 -0.1921  0.1207
    1AU     LIG  322   1.326   3.577   6.553  0.1310  0.1646  0.0880
    1AU       S  323   1.251   5.846   5.981  0.0571 -0.1979 -0.0695
    1AU     LIG  324   1.310   5.832   6.450  0.2832 -0.1436  0.1221
    1AU     LIG  325   1.010   6.028   6.722  0.1016 -0.0873 -0.0856
    2POPC   NC3  326   4.454   7.241   7.282 -0.0335  0.1313 -0.1325
    2POPC   PO4  327   4.535   7.755   7.157 -0.2616 -0.1869  0.0753
    2POPC   GL1  328   4.481   7.788   6.799  0.1584 -0.2647 -0.1977
    2POPC   GL2  329   4.721   7.903   6.512 -0.1724 -0.0531  0.0733
    2POPC   C1A  330   4.230   7.698   6.422 -0.3825 -0.1878 -0.3050
    2POPC   D2A  331   3.892   7.747   6.174  0.3312 -0.2546  0.1320
    2POPC   C3A  332   3.651   7.483   5.853  0.2334 -0.0487 -0.4100
    2POPC   C4A  333   3.313   7.168   5.782 -0.0369 -0.0483  0.0165
    2POPC   C1B  334   4.783   8.126   6.180 -0.3886  0.1063 -0.0718
    2POPC   C2B  335   4.538   8.271   5.803 -0.1083 -0.0517  0.1140
    2POPC   C3B  336   4.311   8.248   5.382  0.0120  0.2425  0.3415
    2POPC   C4B  337   4.295   8.448   5.015  0.0324 -0.1457 -0.0110
    3POPC   NC3  338   1.278   8.562   7.732 -0.0968  0.0157  0.1826
    3POPC   PO4  339   1.606   8.386   7.685  0.0279  0.0613 -0.1049
    3POPC   GL1  340   1.414   8.074   7.456 -0.0909  0.3485 -0.2453
    3POPC   GL2  341   1.028   8.036   7.512  0.0641  0.0282 -0.0347
    3POPC   C1A  342   1.451   7.966   7.076 -0.1198  0.1382 -0.2822
    3POPC   D2A  343   1.227   7.805   6.622 -0.2236  0.1169  0.1202
    3POPC   C3A  344   1.222   8.057   6.312  0.0257  0.2021  0.3223
    3POPC   C4A  345   1.074   8.013   5.921 -0.1237 -0.1721  0.1561
    3POPC   C1B  346   0.949   8.054   7.074  0.0252  0.0667 -0.2011
    3POPC   C2B  347   0.852   8.141   6.630 -0.1911 -0.2865  0.1251
    3POPC   C3B  348   0.744   7.876   6.348  0.0777  0.5079  0.2230
    3POPC   C4B  349   0.638   7.734   5.950  0.1561 -0.0959 -0.1640
    4POPC   NC3  350   8.802   8.876   7.669  0.0935  0.0364 -0.0222
    4POPC   PO4  351   8.537   8.841   7.302 -0.0386 -0.1787  0.3327
    4POPC   GL1  352   8.614   8.516   7.057  0.3312 -0.2150  0.1447
    4POPC   GL2  353   8.795   8.155   6.945 -0.0119  0.1157 -0.0163
    4POPC   C1A  354   8.673   8.492   6.596 -0.1175  0.1355 -0.0062
    4POPC   D2A  355   8.424   8.759   6.192 -0.1189 -0.1814 -0.2043
    4POPC   C3A  356   8.411   8.664   5.733  0.3446 -0.1695 -0.0218
    4POPC   C4A  357   8.134   9.037   5.650 -0.4659  0.1477  0.4647
    4POPC   C1B  358   9.119   8.321   6.558 -0.0120  0.0362  0.1120
    4POPC   C2B  359   8.993   8.533   6.178 -0.0568 -0.0826 -0.0869
    4POPC   C3B  360   9.007   8.441   5.743 -0.2497  0.2105  0.0424
    4POPC   C4B  361   9.366   8.554   5.576 -0.0888  0.1661 -0.0324
    5POPC   NC3  362   1.187   6.534   8.367 -0.0166 -0.0489 -0.0036
    5POPC   PO4  363   1.652   6.262   8.266  0.4758  0.4376  0.0995
    5POPC   GL1  364   1.623   6.126   7.870 -0.3072 -0.0158  0.2096
    5POPC   GL2  365   1.769   6.235   7.676  0.0758  0.3362  0.1666
    5POPC   C1A  366   1.359   6.181   7.465  0.1590 -0.0363  0.0699
    5POPC   D2A  367   1.247   6.322   7.135 -0.0328  0.3237  0.1738
    5POPC   C3A  368   1.499   6.176   6.751 -0.1507  0.2535  0.2319
    5POPC   C4A  369   1.801   5.929   6.459  0.0571 -0.2846 -0.0261
    5POPC   C1B  370   1.830   6.285   7.195  0.0133 -0.2308 -0.2030
    5POPC   C2B  371   2.067   6.079   6.901 -0.4065  0.2107 -0.4235
    5POPC   C3B  372   2.536   6.022   6.877 -0.3282 -0.7785 -0.0816
    5POPC   C4B  373   2.692   6.171   7.225 -0.0335 -0.0393  0.2657
    6POPC   NC3  374   8.450   5.572   7.362 -0.0113 -0.2647 -0.2930
    6POPC   PO4  375   8.013   5.544   7.354  0.1980 -0.0780  0.1107
    6POPC   GL1  376   7.938   5.392   7.002  0.0387 -0.1094 -0.0965
    6POPC   GL2  377   7.692   5.604   6.982  0.5549  0.0163  0.2241
    6POPC   C1A  378   7.991   5.297   6.573 -0.0461 -0.2336  0.1679
    6POPC   D2A  379   8.176   5.322   6.087  0.0486 -0.3512  0.1476
    6POPC   C3A  380   8.316   4.988   5.832  0.0794 -0.0992 -0.1834
    6POPC   C4A  381   8.455   4.617   5.763 -0.1535 -0.0667 -0.2305
    6POPC   C1B  382   7.754   5.707   6.625  0.6860  0.1307 -0.2235
    6POPC   C2B  383   8.119   5.788   6.408  0.0468 -0.0100  0.1645
    6POPC   C3B  384   8.474   6.053   6.390 -0.2083  0.1784 -0.1009
    6POPC   C4B  385   8.866   5.956   6.343 -0.0412 -0.0905  0.0162
    7POPC   NC3  386   8.548   6.705   7.872 -0.0293  0.0514 -0.4195
    7POPC   PO4  387   8.819   6.346   7.646  0.1366 -0.2706 -0.2293
    7POPC   GL1  388   8.859   6.133   7.282 -0.0268  0.3438  0.1674
    7POPC   GL2  389   8.466   6.113   7.230  0.3327 -0.0858 -0.2435
    7POPC   C1A  390   8.838   5.954   6.860  0.3056 -0.1909  0.1063
    7POPC   D2A  391   9.155   5.670   6.702  0.0638 -0.0618  0.2225
    7POPC   C3A  392   8.978   5.399   6.420  0.1636  0.1054  0.1040
    7POPC   C4A  393   9.286   5.041   6.133  0.1600 -0.1442  0.1820
    7POPC   C1B  394   8.187   6.024   6.992  0.1161 -0.2257 -0.5480
    7POPC   C2B  395   7.770   6.123   6.788  0.0255 -0.2929 -0.0166
    7POPC   C3B  396   7.506   6.371   6.500  0.2700  0.2072 -0.0771
    7POPC   C4B  397   7.154   6.211   6.113  0.0573  0.0359  0.0897
    8POPC   NC3  398  10.323  10.640   7.941  0.1474 -0.0023  0.0207
    8POPC   PO4  399  10.478  10.836   7.636  0.1598  0.1315 -0.1072
    8POPC   GL1  400  10.560  10.825   7.223  0.5011 -0.2007  0.0214
    8POPC   GL2  401  10.324  10.757   6.985  0.0863  0.3337 -0.1350
    8POPC   C1A  402  10.729  11.080   6.880 -0.0683 -0.4942  0.0841
    8POPC   D2A  403  10.712  11.251   6.316  0.0676  0.1395 -0.3331
    8POPC   C3A  404  10.753  11.039   6.004 -0.1648  0.0972 -0.1328
    8POPC   C4A  405  11.064  10.738   5.891  0.0422 -0.0601 -0.2958
    8POPC   C1B  406  10.583  10.402   6.914  0.0384 -0.0569 -0.1948
    8POPC   C2B  407  10.670  10.244   6.492 -0.1536 -0.2329 -0.1570
    8POPC   C3B  408  10.686   9.924   6.199  0.2098 -0.0436 -0.2996
    8POPC   C4B  409  10.951   9.750   5.853 -0.0670  0.1425  0.5527
    9POPC   NC3  410   7.994   7.523   7.805 -0.1582 -0.1104 -0.1536
    9POPC   PO4  411   8.293   7.612   7.599 -0.0933  0.0563  0.0234
    9POPC   GL1  412   8.354   7.552   7.040 -0.0246  0.0369 -0.3041
    9POPC   GL2  413   8.625   7.428   6.963  0.0757  0.2046  0.1450
    9POPC   C1A  414   8.293   7.523   6.582  0.1491 -0.0271  0.0119
    9POPC   D2A  415   7.926   7.399   6.277  0.1228  0.2163 -0.0936
    9POPC   C3A  416   8.024   7.068   5.874 -0.0489  0.5273  0.0119
    9POPC   C4A  417   7.946   6.668   5.759 -0.1162 -0.4523  0.0679
    9POPC   C1B  418   8.654   7.065   6.746 -0.1685  0.1206 -0.0288
    9POPC   C2B  419   8.707   6.897   6.389 -0.1031 -0.0379 -0.0120
    9POPC   C3B  420   8.799   6.970   5.985 -0.0411 -0.2412 -0.1271
    9POPC   C4B  421   8.785   7.220   5.693 -0.0535  0.4595  0.5064
   10POPC   NC3  422   6.768   4.428   6.949  0.1534  0.0035 -0.2526
   10POPC   PO4  423   6.862   3.982   7.080  0.0320 -0.1764 -0.1310
   10POPC   GL1  424   6.959   4.060   6.649 -0.0764  0.0171  0.0605
   10POPC   GL2  425   7.153   3.828   6.525 -0.1735 -0.0835  0.1498
   10POPC   C1A  426   6.935   4.371   6.252 -0.2261  0.4566 -0.1033
   10POPC   D2A  427   6.814   4.780   5.974 -0.3936 -0.0558 -0.0477
   10POPC   C3A  428   6.531   4.885   5.773  0.0544  0.0588  0.2310
   10POPC   C4A  429   6.171   5.046   5.532  0.1804 -0.0457 -0.1762
   10POPC   C1B  430   7.419   3.975   6.151 -0.2074  0.0859 -0.2408
   10POPC   C2B  431   7.543   3.892   5.631 -0.3085  0.0294  0.0891
   10POPC   C3B  432   7.372   3.878   5.143  0.2645  0.2374 -0.0398
   10POPC   C4B  433   7.138   3.620   4.912  0.0829 -0.1239 -0.2804
   11POPC   NC3  434   1.775   6.877   8.246 -0.3225 -0.1855 -0.1338
   11POPC   PO4  435   1.455   6.690   7.952  0.1301  0.1400 -0.3406
   11POPC   GL1  436   1.428   6.669   7.476 -0.0574 -0.0666 -0.1157
   11POPC   GL2  437   1.666   6.781   7.222 -0.0333 -0.2178  0.1539
   11POPC   C1A  438   1.168   6.920   7.163  0.2379  0.1453 -0.2980
   11POPC   D2A  439   0.790   6.955   6.932  0.3069  0.2307  0.3087
   11POPC   C3A  440   0.825   6.975   6.472  0.0718  0.2629 -0.1679
   11POPC   C4A  441   0.951   6.857   6.075  0.1489 -0.2244  0.1044
   11POPC   C1B  442   1.813   6.679   6.878  0.0369  0.8770  0.0282
   11POPC   C2B  443   1.651   6.618   6.472  0.2579  0.0286 -0.0948
   11POPC   C3B  444   1.552   6.303   6.222 -0.1395 -0.0320 -0.1523
   11POPC   C4B  445   1.274   6.335   5.808 -0.1190  0.1479  0.2236
   12POPC   NC3  446   0.543   5.047   8.510  0.0776  0.2634  0.3005
   12POPC   PO4  447   0.814   4.657   8.506 -0.3559  0.2214  0.0101
   12POPC   GL1  448   0.965   4.549   8.133 -0.1972  0.0936  0.1820
   12POPC   GL2  449   1.173   4.505   7.988 -0.2087 -0.1516  0.0075
   12POPC   C1A  450   1.009   4.260   7.642  0.1221 -0.2587  0.1208
   12POPC   D2A  451   0.915   3.980   7.229 -0.1641  0.2617  0.0341
   12POPC   C3A  452   0.495   3.958   7.009 -0.1686  0.0586 -0.1079
   12POPC   C4A  453   0.089   4.035   7.018  0.1049  0.0217 -0.3076
   12POPC   C1B  454   1.447   4.161   7.928 -0.1124  0.0374 -0.1144
   12POPC   C2B  455   1.577   3.751   7.769 -0.0371  0.1245 -0.2447
   12POPC   C3B  456   1.855   3.809   7.396  0.4145  0.1815  0.0788
   12POPC   C4B  457   2.140   4.133   7.211 -0.0730  0.2049  0.0602
   13POPC   NC3  458   2.487   1.699   7.522 -0.1074 -0.2680 -0.0130
   13POPC   PO4  459   2.830   1.712   7.162 -0.3143  0.2301 -0.1861
   13POPC   GL1  460   2.970   1.689   6.773  0.0775  0.4792 -0.0149
   13POPC   GL2  461   3.280   1.732   6.803  0.0743  0.1667 -0.0348
   13POPC   C1A  462   2.920   1.769   6.349 -0.2076 -0.1541 -0.3735
   13POPC   D2A  463   3.088   1.936   5.947 -0.0073  0.0431  0.0657
   13POPC   C3A  464   2.812   1.759   5.548  0.3014 -0.1233  0.0034
   13POPC   C4A  465   2.517   1.627   5.289  0.1508  0.2317 -0.0541
   13POPC   C1B  466   3.488   1.724   6.382 -0.1264 -0.0059  0.1519
   13POPC   C2B  467   3.632   2.006   6.060 -0.1599  0.2266  0.0536
   13POPC   C3B  468   3.430   2.271   5.688 -0.0191 -0.1315 -0.1459
   13POPC   C4B  469   3.465   2.729   5.589 -0.3039  0.1795  0.2512
   14POPC   NC3  470   4.154   7.883   7.506 -0.0718 -0.2379 -0.0982
   14POPC   PO4  471   3.970   7.490   7.368  0.2955  0.3665  0.2087
   14POPC   GL1  472   3.667   7.128   7.239 -0.2393 -0.2144 -0.3128
   14POPC   GL2  473   3.459   7.311   7.241  0.1051 -0.1649  0.0011
   14POPC   C1A  474   3.558   6.732   7.042 -0.2030 -0.2106  0.0859
   14POPC   D2A  475   3.264   6.417   6.930  0.3003  0.3534 -0.0631
   14POPC   C3A  476   3.405   6.259   6.523  0.0074  0.0912 -0.2641
   14POPC   C4A  477   3.480   5.908   6.296  0.1337 -0.0612  0.2995
   14POPC   C1B  478   3.293   7.175   6.842  0.1508 -0.0109 -0.2240
   14POPC   C2B  479   3.151   6.770   6.512  0.0865  0.2215  0.1232
   14POPC   C3B  480   3.108   6.498   6.196  0.3156  0.2715  0.1324
   14POPC   C4B  481   3.021   6.351   5.784 -0.2124  0.0344  0.1019
   15POPC   NC3  482   1.144  10.668   7.301  0.3085 -0.0606 -0.1730
   15POPC   PO4  483   0.739  10.756   7.456 -0.2261 -0.1459  0.0857
   15POPC   GL1  484   0.766  10.925   6.893  0.0125  0.2815  0.0814
   15POPC   GL2  485   0.596  11.067   6.732 -0.2705  0.2695 -0.0114
   15POPC   C1A  486   0.735  10.657   6.417 -0.1933  0.1860 -0.0391
   15POPC   D2A  487   0.963  10.435   6.046  0.1474  0.1499 -0.0123
   15POPC   C3A  488   1.329  10.320   5.818  0.1498  0.0847 -0.1180
   15POPC   C4A  489   1.460  10.491   5.347 -0.2055 -0.0499 -0.1044
   15POPC   C1B  490   0.466  11.142   6.320 -0.0057  0.0672 -0.1623
   15POPC   C2B  491   0.468  11.253   5.875 -0.1435 -0.1070 -0.2318
   15POPC   C3B  492   0.425  10.992   5.447 -0.0196 -0.1033 -0.0651
   15POPC   C4B  493   0.688  10.704   5.189  0.1372  0.1147  0.0488
   16POPC   NC3  494   8.545   4.644   7.157  0.0426  0.0670  0.1924
   16POPC   PO4  495   8.904   4.626   7.382  0.0181 -0.0472  0.3055
   16POPC   GL1  496   9.019   4.781   7.004  0.0039  0.0778  0.2845
   16POPC   GL2  497   9.052   5.152   6.993  0.2569  0.1675  0.0226
   16POPC   C1A  498   8.953   4.822   6.533  0.2112 -0.0739  0.1023
   16POPC   D2A  499   8.829   4.745   6.163 -0.0455 -0.2268 -0.5405
   16POPC   C3A  500   8.926   4.738   5.702  0.1099  0.1768 -0.1001
   16POPC   C4A  501   9.098   4.376   5.434 -0.0183  0.2711  0.0288
   16POPC   C1B  502   9.363   5.105   6.650  0.0649 -0.1369 -0.2204
   16POPC   C2B  503   9.718   4.960   6.452 -0.1670  0.1478  0.1602
   16POPC   C3B  504   9.897   5.064   6.144  0.4356 -0.0533  0.3106
   16POPC   C4B  505   9.997   4.909   5.725 -0.2150  0.1338 -0.1218
   17POPC   NC3  506   6.515   8.414   7.117  0.1140 -0.0395  0.4426
   17POPC   PO4  507   6.437   7.954   7.081  0.2625  0.2268  0.0479
   17POPC   GL1  508   6.427   7.581   6.834 -0.0174  0.2075 -0.3774
   17POPC   GL2  509   6.143   7.365   6.649  0.2059 -0.2104  0.0483
   17POPC   C1A  510   6.582   7.298   6.428 -0.0120 -0.1715 -0.2052
   17POPC   D2A  511   6.815   7.093   6.052  0.0990  0.0396 -0.0600
   17POPC   C3A  512   6.569   6.885   5.717 -0.1425  0.0989  0.2778
   17POPC   C4A  513   6.261   6.590   5.864  0.0181  0.1239 -0.0550
   17POPC   C1B  514   6.214   7.641   6.279  0.1629  0.2896  0.1748
   17POPC   C2B  515   6.529   7.587   5.975 -0.1511  0.0476 -0.1871
   17POPC   C3B  516   6.892   7.525   5.687  0.0434  0.0673  0.0536
   17POPC   C4B  517   7.265   7.783   5.787 -0.4329 -0.0661 -0.0957
   18POPC   NC3  518   3.624   7.802   7.429  0.0284 -0.2542 -0.2699
   18POPC   PO4  519   3.875   8.265   7.440  0.1165  0.0338 -0.0913
   18POPC   GL1  520   3.771   8.013   7.005  0.2616 -0.0160 -0.1466
   18POPC   GL2  521   4.027   7.832   6.995  0.0381 -0.0004 -0.0377
   18POPC   C1A  522   3.470   7.904   6.644  0.3466  0.2753  0.0763
   18POPC   D2A  523   3.432   7.584   6.314 -0.1182 -0.0413  0.1362
   18POPC   C3A  524   3.063   7.580   5.971  0.1988  0.1470  0.0916
   18POPC   C4A  525   2.909   7.409   5.552 -0.0203 -0.2535 -0.2039
   18POPC   C1B  526   3.777   7.512   6.677 -0.3843  0.0490  0.0465
   18POPC   C2B  527   3.888   7.257   6.288 -0.1723  0.1295  0.1333
   18POPC   C3B  528   4.146   7.401   5.908  0.1285  0.0789 -0.2016
   18POPC   C4B  529   4.010   7.659   5.504 -0.2748  0.1999  0.3341
   19POPC   NC3  530   3.321   1.335   7.128  0.0131  0.1313  0.0354
   19POPC   PO4  531   3.646   1.093   7.139  0.1830  0.2986  0.0466
   19POPC   GL1  532   3.560   0.978   6.787  0.2619  0.1179  0.1465
   19POPC   GL2  533   3.247   0.939   6.746  0.1611 -0.1539 -0.1338
   19POPC   C1A  534   3.437   1.199   6.396  0.0215  0.2541 -0.0761
   19POPC   D2A  535   3.469   1.081   5.937  0.0909 -0.0118 -0.1912
   19POPC   C3A  536   3.888   1.154   5.755  0.1007 -0.0555  0.1340
   19POPC   C4A  537   4.048   1.202   5.388  0.1908  0.1261  0.0439
   19POPC   C1B  538   2.967   1.258   6.528  0.3309 -0.0449 -0.1652
   19POPC   C2B  539   3.002   1.316   6.089  0.0837  0.0545  0.4328
   19POPC   C3B  540   3.167   1.402   5.701 -0.2371 -0.1934  0.2109
   19POPC   C4B  541   3.027   1.394   5.246  0.0946 -0.0997  0.1327
   20POPC   NC3  542   0.619   1.204   7.718  0.1291  0.0445  0.0103
   20POPC   PO4  543   0.383   0.939   7.378  0.0641  0.2835  0.0166
   20POPC   GL1  544   0.136   0.941   6.975  0.0585 -0.0402 -0.0352
   20POPC   GL2  545  -0.051   1.259   6.916  0.0550 -0.1877 -0.0089
   20POPC   C1A  546   0.209   0.869   6.492 -0.3689  0.1370 -0.0876
   20POPC   D2A  547   0.228   0.985   6.082  0.2354  0.4841 -0.1149
   20POPC   C3A  548   0.035   0.731   5.777 -0.3858  0.0583  0.2181
   20POPC   C4A  549  -0.318   0.651   5.484 -0.0193  0.2336  0.1523
   20POPC   C1B  550   0.318   1.352   6.709  0.2001  0.3593  0.0603
   20POPC   C2B  551   0.450   1.354   6.300 -0.2064 -0.1687  0.0499
   20POPC   C3B  552   0.717   1.522   5.868 -0.1073 -0.0236 -0.2297
   20POPC   C4B  553   0.841   1.767   5.526 -0.2404 -0.1709  0.0013
   21POPC   NC3  554   3.954   0.570   7.034 -0.3466 -0.1144 -0.1071
   21POPC   PO4  555   4.046   1.097   6.903 -0.2448 -0.1499  0.0530
   21POPC   GL1  556   4.128   0.948   6.651  0.2764 -0.0612 -0.1920
   21POPC   GL2  557   4.410   1.169   6.481  0.1405 -0.2823 -0.0310
   21POPC   C1A  558   3.878   0.887   6.263  0.2571 -0.2031 -0.1429
   21POPC   D2A  559   3.808   0.649   5.851  0.1605 -0.0958 -0.3047
   21POPC   C3A  560   3.620   0.696   5.611  0.5326 -0.2940 -0.2867
   21POPC   C4A  561   3.458   0.986   5.396 -0.1058 -0.2575  0.2238
   21POPC   C1B  562   4.339   1.252   6.136  0.1273  0.1348 -0.2185
   21POPC   C2B  563   4.412   1.424   5.733 -0.0127 -0.0040  0.0240
   21POPC   C3B  564   4.752   1.568   5.425 -0.3545  0.0434  0.0685
   21POPC   C4B  565   5.145   1.671   5.439 -0.3037  0.0087 -0.1192
   22POPC   NC3  566   7.904   3.975   7.164  0.2754 -0.0940 -0.0465
   22POPC   PO4  567   8.318   4.026   7.163 -0.0123  0.0416 -0.1574
   22POPC   GL1  568   8.350   3.811   6.812  0.0685 -0.1215  0.3080
   22POPC   GL2  569   8.748   3.874   6.688  0.2814 -0.0847  0.0381
   22POPC   C1A  570   8.351   3.830   6.338  0.0477  0.2920  0.0070
   22POPC   D2A  571   8.274   3.610   6.028  0.2190 -0.1901  0.0458
   22POPC   C3A  572   8.504   3.484   5.582  0.5685  0.1736  0.0406
   22POPC   C4A  573   8.738   3.753   5.386 -0.0264 -0.0518  0.1352
   22POPC   C1B  574   9.022   3.766   6.445  0.0154 -0.0463 -0.1293
   22POPC   C2B  575   9.288   3.789   6.064  0.0599 -0.2294 -0.2144
   22POPC   C3B  576   9.478   3.486   5.739  0.2204  0.0675  0.0667
   22POPC   C4B  577   9.703   3.378   5.259 -0.1575 -0.0810 -0.0639
   23POPC   NC3  578   2.254   8.874   7.574  0.0535 -0.2037 -0.2336
   23POPC   PO4  579   1.892   9.174   7.413 -0.0859  0.1232  0.3940
   23POPC   GL1  580   1.769   8.733   7.376  0.1798 -0.3158 -0.3627
   23POPC   GL2  581   1.447   8.748   7.290 -0.0807  0.0862 -0.1035
   23POPC   C1A  582   1.831   8.371   7.087 -0.2604  0.0256 -0.1555
   23POPC   D2A  583   2.130   8.299   6.791 -0.1392 -0.1122 -0.2817
   23POPC   C3A  584   2.377   7.998   6.624 -0.2259  0.2023 -0.2320
   23POPC   C4A  585   2.499   8.241   6.308 -0.4385  0.0923 -0.0982
   23POPC   C1B  586   1.737   8.794   6.915 -0.1796  0.0467 -0.1938
   23POPC   C2B  587   1.978   8.979   6.657  0.1493 -0.1035  0.2493
   23POPC   C3B  588   2.322   8.714   6.566 -0.1317 -0.1104 -0.0298
   23POPC   C4B  589   2.617   8.463   6.803  0.2715 -0.2019  0.2133
   24POPC   NC3  590   7.432   8.124   6.996  0.2596 -0.1518 -0.2164
   24POPC   PO4  591   7.443   7.705   7.085 -0.0256 -0.1678  0.1024
   24POPC   GL1  592   7.525   7.403   6.699 -0.2460 -0.0861 -0.3869
   24POPC   GL2  593   7.826   7.378   6.853 -0.1896 -0.2281  0.0284
   24POPC   C1A  594   7.552   7.037   6.532 -0.0767 -0.1207 -0.1838
   24POPC   D2A  595   7.719   6.780   6.207  0.0357 -0.1311 -0.1109
   24POPC   C3A  596   7.617   6.481   6.038  0.0217  0.2691 -0.0306
   24POPC   C4A  597   7.401   6.360   5.708 -0.0354 -0.1756 -0.0649
   24POPC   C1B  598   8.132   7.101   6.711  0.2975 -0.0916  0.0588
   24POPC   C2B  599   8.152   6.926   6.384  0.0947 -0.0209  0.0213
   24POPC   C3B  600   8.291   6.643   6.104 -0.1093  0.0103  0.1270
   24POPC   C4B  601   8.411   6.486   5.756 -0.1556  0.3968 -0.1215
   25POPC   NC3  602   4.109   6.916   7.387  0.3210  0.1395  0.2261
   25POPC   PO4  603   4.439   6.621   7.526 -0.1926 -0.2442 -0.2588
   25POPC   GL1  604   4.281   6.557   7.102  0.4093  0.4214 -0.0655
   25POPC   GL2  605   4.425   6.870   6.941 -0.0084  0.0660  0.0956
   25POPC   C1A  606   4.170   6.494   6.601  0.0294 -0.0497 -0.0394
   25POPC   D2A  607   3.841   6.533   6.418  0.1182 -0.0645 -0.2269
   25POPC   C3A  608   3.520   6.353   6.049  0.1245 -0.1417 -0.2123
   25POPC   C4A  609   3.449   6.106   5.700 -0.2215  0.0674  0.0362
   25POPC   C1B  610   3.960   6.992   6.746 -0.3592  0.0798 -0.0322
   25POPC   C2B  611   3.591   6.927   6.540 -0.0037  0.1048 -0.1155
   25POPC   C3B  612   3.499   6.892   6.141 -0.1921 -0.2081 -0.1282
   25POPC   C4B  613   3.358   6.706   5.700  0.2452  0.0000 -0.2985
   26POPC   NC3  614   5.214   3.377   7.236  0.2205 -0.1609 -0.1920
   26POPC   PO4  615   4.782   3.482   7.124  0.3453 -0.0310 -0.1375
   26POPC   GL1  616   4.945   3.609   6.674 -0.0487  0.1655  0.0669
   26POPC   GL2  617   4.926   3.904   6.388 -0.1099  0.1307 -0.3847
   26POPC   C1A  618   4.899   3.450   6.243  0.3233  0.0614 -0.0318
   26POPC   D2A  619   5.011   3.557   5.766 -0.2233 -0.3370  0.0680
   26POPC   C3A  620   5.073   3.260   5.353 -0.2160 -0.2936  0.0402
   26POPC   C4A  621   5.148   3.414   4.992 -0.0250 -0.1433 -0.0637
   26POPC   C1B  622   5.260   3.909   6.081 -0.0359 -0.1186  0.1972
   26POPC   C2B  623   5.354   4.096   5.673  0.0013 -0.0490 -0.1085
   26POPC   C3B  624   5.526   4.412   5.574  0.1609 -0.0947 -0.0816
   26POPC   C4B  625   5.715   4.783   5.564 -0.2149 -0.0188 -0.0054
   27POPC   NC3  626   9.115   2.419   7.795  0.0915 -0.1294 -0.1894
   27POPC   PO4  627   9.332   2.745   7.586  0.0769 -0.0394 -0.0247
   27POPC   GL1  628   9.545   2.882   7.274 -0.0170  0.2829  0.2155
   27POPC   GL2  629   9.526   2.586   7.074 -0.5622  0.1017  0.0845
   27POPC   C1A  630   9.642   3.085   6.862 -0.1210  0.3559  0.0007
   27POPC   D2A  631   9.695   3.423   6.599 -0.2405  0.2840 -0.1149
   27POPC   C3A  632   9.509   3.731   6.661 -0.1998  0.3698 -0.2650
   27POPC   C4A  633   9.554   4.168   6.548  0.4711  0.3981 -0.1710
   27POPC   C1B  634   9.639   2.594   6.730 -0.1051 -0.1240 -0.0210
   27POPC   C2B  635   9.798   2.519   6.250  0.1872  0.2246  0.4974
   27POPC   C3B  636  10.018   2.452   5.737  0.3404  0.2439 -0.0478
   27POPC   C4B  637  10.327   2.405   5.409  0.0901  0.3269 -0.2322
   28POPC   NC3  638   8.966   9.249   7.185  0.3953 -0.1062  0.0081
   28POPC   PO4  639   9.309   9.489   7.316  0.1213  0.2298  0.1507
   28POPC   GL1  640   9.396   9.597   6.901  0.1006  0.0177 -0.2562
   28POPC   GL2  641   9.133   9.340   6.691  0.1398  0.2257 -0.2407
   28POPC   C1A  642   9.251   9.811   6.550 -0.0153 -0.1062  0.1746
   28POPC   D2A  643   9.205  10.072   6.102  0.0681  0.3235  0.1681
   28POPC   C3A  644   9.162   9.985   5.617  0.0604  0.1233  0.0134
   28POPC   C4A  645   9.512   9.953   5.316 -0.2476 -0.2653  0.1649
   28POPC   C1B  646   9.118   9.176   6.298 -0.1936  0.0976 -0.0592
   28POPC   C2B  647   9.313   9.045   5.890  0.0322  0.1179  0.0936
   28POPC   C3B  648   9.308   9.093   5.458 -0.1903 -0.1070  0.1822
   28POPC   C4B  649   9.264   8.892   5.056  0.0022  0.0980 -0.1732
   29POPC   NC3  650   1.412   5.205   8.850 -0.2090  0.0325  0.0513
   29POPC   PO4  651   1.494   5.276   8.393  0.0528  0.0211 -0.0186
   29POPC   GL1  652   1.586   5.595   8.156 -0.0110  0.1384  0.1662
   29POPC   GL2  653   1.786   5.781   8.211 -0.0693 -0.1658 -0.3231
   29POPC   C1A  654   1.562   5.641   7.722  0.3165 -0.3107 -0.0561
   29POPC   D2A  655   1.688   5.863   7.257 -0.0113  0.0382 -0.2153
   29POPC   C3A  656   1.346   5.790   6.993 -0.2602  0.0219  0.0535
   29POPC   C4A  657   1.163   5.401   6.734 -0.0788 -0.3397  0.1575
   29POPC   C1B  658   2.046   5.617   7.826 -0.2200 -0.1858  0.1598
   29POPC   C2B  659   2.065   5.350   7.434  0.0404 -0.0712 -0.0380
   29POPC   C3B  660   2.057   5.150   6.941  0.2735  0.0130 -0.1499
   29POPC   C4B  661   2.166   4.878   6.646 -0.3120 -0.0801  0.1402
   30POPC   NC3  662   1.362   0.845   7.318  0.0435 -0.0182  0.5120
   30POPC   PO4  663   1.038   0.532   7.180 -0.0397 -0.2241  0.1599
   30POPC   GL1  664   1.147   0.771   6.880  0.4092  0.1142  0.3227
   30POPC   GL2  665   1.456   0.706   6.834  0.2614 -0.0193  0.2281
   30POPC   C1A  666   1.162   1.131   6.481 -0.2977 -0.1006 -0.1309
   30POPC   D2A  667   1.089   1.314   6.073 -0.0627  0.0435 -0.1027
   30POPC   C3A  668   1.207   1.724   5.954 -0.2750  0.0519 -0.1940
   30POPC   C4A  669   1.510   2.082   5.684 -0.0250  0.1545 -0.0347
   30POPC   C1B  670   1.453   0.663   6.410 -0.1020 -0.0332 -0.0118
   30POPC   C2B  671   1.256   0.798   6.033 -0.0011  0.0391  0.0534
   30POPC   C3B  672   1.219   0.903   5.609 -0.0741 -0.0506  0.2139
   30POPC   C4B  673   0.871   1.272   5.384  0.3578  0.1431 -0.2644
   31POPC   NC3  674   6.440   1.932   6.834  0.1767 -0.1737 -0.0525
   31POPC   PO4  675   5.984   1.866   6.818  0.0965  0.2369 -0.2003
   31POPC   GL1  676   5.924   1.920   6.410 -0.0454  0.1447 -0.1347
   31POPC   GL2  677   5.646   1.669   6.398 -0.0801 -0.1005 -0.0994
   31POPC   C1A  678   5.802   1.933   5.908  0.2226  0.1638  0.0805
   31POPC   D2A  679   6.095   1.848   5.620  0.1041 -0.2492 -0.0716
   31POPC   C3A  680   6.325   1.877   5.238  0.0344 -0.2122  0.2558
   31POPC   C4A  681   6.677   1.942   4.883 -0.3497  0.0616 -0.0055
   31POPC   C1B  682   5.938   1.438   6.201 -0.1540  0.2045  0.1804
   31POPC   C2B  683   5.862   1.374   5.770  0.2987  0.0904  0.0508
   31POPC   C3B  684   5.862   1.055   5.430  0.1399  0.0727 -0.0304
   31POPC   C4B  685   5.628   0.708   5.424  0.0098  0.1640 -0.1343
   32POPC   NC3  686   2.913   3.139   7.665 -0.1444 -0.1821 -0.0737
   32POPC   PO4  687   2.728   2.813   8.054  0.1990  0.2170 -0.1241
   32POPC   GL1  688   2.535   2.840   7.576  0.2611 -0.1802 -0.2115
   32POPC   GL2  689   2.578   2.651   7.520  0.0350 -0.0644 -0.0855
   32POPC   C1A  690   2.336   3.138   7.319 -0.2464 -0.1819 -0.3793
   32POPC   D2A  691   2.314   3.360   6.871  0.0167 -0.0009 -0.0101
   32POPC   C3A  692   2.495   3.242   6.420 -0.0090 -0.0615 -0.2917
   32POPC   C4A  693   2.600   3.576   6.053  0.0566  0.0232  0.1173
   32POPC   C1B  694   2.245   2.648   7.238  0.0981 -0.3355  0.2307
   32POPC   C2B  695   2.202   2.328   6.925  0.3267 -0.1672 -0.3117
   32POPC   C3B  696   2.478   1.993   6.657  0.0172  0.1779  0.0717
   32POPC   C4B  697   2.443   1.689   6.363  0.0081  0.1447 -0.2455
   33POPC   NC3  698   7.842   5.103   7.535  0.0934 -0.1727  0.0341
   33POPC   PO4  699   8.235   5.094   7.244 -0.0838  0.1317 -0.1763
   33POPC   GL1  700   8.525   5.255   6.939  0.0710  0.0486  0.0555
   33POPC   GL2  701   8.602   4.972   6.778  0.2069 -0.2052 -0.2255
   33POPC   C1A  702   8.494   5.592   6.631 -0.2346  0.1708  0.0034
   33POPC   D2A  703   8.606   5.593   6.185  0.1582  0.0036 -0.0384
   33POPC   C3A  704   8.485   5.912   5.914 -0.1609  0.1743 -0.2328
   33POPC   C4A  705   8.331   5.976   5.487  0.0681 -0.2364 -0.2903
   33POPC   C1B  706   8.557   5.125   6.410 -0.0210 -0.2176  0.0988
   33POPC   C2B  707   8.802   5.172   5.946  0.1859  0.0182  0.0064
   33POPC   C3B  708   9.164   5.222   5.663 -0.2596  0.1418  0.2005
   33POPC   C4B  709   9.619   5.287   5.735 -0.1215 -0.0905 -0.1568
   34POPC   NC3  710   1.204   0.786   7.928 -0.1422 -0.1156  0.1528
   34POPC   PO4  711   0.853   0.793   7.596  0.1341  0.0225 -0.2309
   34POPC   GL1  712   0.926   1.089   7.223  0.0400  0.0743  0.3698
   34POPC   GL2  713   0.674   0.857   7.021  0.1640 -0.2257 -0.0331
   34POPC   C1A  714   0.807   1.321   6.838 -0.0608 -0.0589  0.0767
   34POPC   D2A  715   0.883   1.635   6.543  0.3889 -0.2677 -0.2395
   34POPC   C3A  716   1.094   1.960   6.508  0.0933 -0.1765  0.2025
   34POPC   C4A  717   1.442   2.142   6.674  0.1507  0.2958  0.0062
   34POPC   C1B  718   0.745   0.793   6.611  0.2882  0.0131  0.0627
   34POPC   C2B  719   0.786   0.831   6.189 -0.0216 -0.2089  0.0875
   34POPC   C3B  720   0.729   0.933   5.730 -0.0193 -0.1358 -0.2144
   34POPC   C4B  721   0.616   0.862   5.493  0.3865  0.0098 -0.0951
   35POPC   NC3  722   4.067   1.905   7.164  0.2542  0.0679 -0.1049
   35POPC   PO4  723   3.878   2.296   7.234  0.1410  0.2519 -0.1394
   35POPC   GL1  724   3.895   2.538   6.900 -0.3814 -0.0244 -0.1538
   35POPC   GL2  725   4.077   2.757   6.888  0.3350  0.0485 -0.0774
   35POPC   C1A  726   3.817   2.640   6.491  0.0967 -0.0015 -0.0511
   35POPC   D2A  727   3.579   3.012   6.395  0.1207 -0.1681  0.0032
   35POPC   C3A  728   3.438   3.059   5.996  0.1216  0.1574 -0.1253
   35POPC   C4A  729   3.322   3.489   5.715 -0.0386  0.0855  0.2169
   35POPC   C1B  730   4.267   2.966   6.658 -0.4391 -0.0777  0.2703
   35POPC   C2B  731   4.404   3.191   6.223  0.2944  0.1602 -0.0293
   35POPC   C3B  732   4.404   3.485   5.818 -0.0190 -0.2240  0.2144
   35POPC   C4B  733   4.277   3.820   5.653  0.1228  0.2947 -0.2577
   36POPC   NC3  734   1.817   8.131   8.076  0.1489  0.3550 -0.2639
   36POPC   PO4  735   2.189   7.835   7.871  0.0286  0.3056 -0.5284
   36POPC   GL1  736   2.019   7.530   7.558 -0.0978  0.0203  0.1429
   36POPC   GL2  737   2.091   7.277   7.438  0.0300  0.1216  0.0492
   36POPC   C1A  738   1.694   7.590   7.370  0.0066 -0.0319  0.1850
   36POPC   D2A  739   1.547   7.325   7.209 -0.1900  0.0844  0.0678
   36POPC   C3A  740   1.408   7.190   6.744  0.2446  0.2107 -0.2169
   36POPC   C4A  741   1.313   7.061   6.385  0.1814  0.2036 -0.1322
   36POPC   C1B  742   1.975   7.243   7.006  0.1858  0.0580  0.0052
   36POPC   C2B  743   1.729   7.543   6.732 -0.1493  0.1662 -0.1168
   36POPC   C3B  744   1.569   7.563   6.357 -0.1010  0.0324  0.1271
   36POPC   C4B  745   1.470   7.599   5.956 -0.0741 -0.3265 -0.0137
   37POPC   NC3  746   5.733   9.976   7.090 -0.0637  0.3177  0.0341
   37POPC   PO4  747   5.282   9.897   6.854 -0.1649 -0.0071  0.1863
   37POPC   GL1  748   5.442   9.907   6.537 -0.2193 -0.1968  0.6556
   37POPC   GL2  749   5.475  10.234   6.423  0.1379  0.1576 -0.1317
   37POPC   C1A  750   5.682   9.725   6.220 -0.1147  0.2029 -0.3675
   37POPC   D2A  751   6.069   9.780   5.933  0.0829  0.2646 -0.0903
   37POPC   C3A  752   6.211   9.372   5.840  0.2339 -0.0618  0.1509
   37POPC   C4A  753   6.146   9.154   5.502 -0.0374 -0.0792 -0.4523
   37POPC   C1B  754   5.336  10.565   6.191  0.1763 -0.2429  0.1115
   37POPC   C2B  755   5.061  10.997   6.367  0.0262 -0.1443 -0.2689
   37POPC   C3B  756   4.820  11.245   6.137 -0.0027  0.2118 -0.2233
   37POPC   C4B  757   4.719  11.232   5.671  0.1808 -0.0248 -0.0324
   38POPC   NC3  758   8.213   9.133   7.154 -0.0325  0.0768  0.0376
   38POPC   PO4  759   7.764   9.004   7.285 -0.2542  0.2620 -0.1944
   38POPC   GL1  760   7.819   8.791   6.786 -0.1568 -0.1141  0.0511
   38POPC   GL2  761   7.943   8.394   6.763 -0.1012  0.0311 -0.2649
   38POPC   C1A  762   7.858   8.852   6.344 -0.0652 -0.5063  0.0230
   38POPC   D2A  763   7.722   9.196   6.044 -0.2104  0.2230  0.3114
   38POPC   C3A  764   8.095   9.474   5.825  0.3340  0.1267 -0.2591
   38POPC   C4A  765   8.205   9.763   5.469  0.1541 -0.0353 -0.0955
   38POPC   C1B  766   8.079   8.459   6.327 -0.0504  0.0013 -0.2130
   38POPC   C2B  767   8.411   8.285   6.082  0.0328  0.2124 -0.0462
   38POPC   C3B  768   8.473   8.126   5.630 -0.3643  0.0167  0.0076
   38POPC   C4B  769   8.243   8.371   5.298 -0.2622  0.0928  0.1735
   39POPC   NC3  770   7.096   7.501   7.378 -0.2527  0.0658  0.0048
   39POPC   PO4  771   6.943   7.418   7.014  0.1547 -0.0344 -0.0377
   39POPC   GL1  772   6.943   7.647   6.696 -0.2602 -0.1806 -0.0786
   39POPC   GL2  773   7.207   7.778   6.647 -0.1268  0.2853 -0.0886
   39POPC   C1A  774   6.655   7.917   6.416 -0.1480 -0.2814 -0.0951
   39POPC   D2A  775   6.307   8.073   6.096 -0.0997  0.0961  0.0013
   39POPC   C3A  776   6.200   7.896   5.736  0.2265 -0.2281  0.1137
   39POPC   C4A  777   6.035   7.515   5.784  0.3090  0.0018  0.0151
   39POPC   C1B  778   7.486   7.727   6.291  0.0068  0.1150 -0.0497
   39POPC   C2B  779   7.729   7.769   5.945 -0.1657 -0.0822  0.1815
   39POPC   C3B  780   7.826   7.684   5.562 -0.4130 -0.0235 -0.1065
   39POPC   C4B  781   7.819   7.390   5.277  0.1946 -0.0864 -0.0650
   40POPC   NC3  782   5.012   1.896   6.569 -0.4154  0.3263  0.0368
   40POPC   PO4  783   4.759   2.219   6.777 -0.1088  0.1152  0.1827
   40POPC   GL1  784   4.593   2.206   6.452  0.0563  0.2439  0.1879
   40POPC   GL2  785   4.310   2.495   6.434 -0.1577 -0.1737  0.0795
   40POPC   C1A  786   4.600   2.160   6.010  0.1611 -0.0191 -0.1929
   40POPC   D2A  787   4.597   1.962   5.614  0.0765 -0.4649 -0.1096
   40POPC   C3A  788   4.820   2.054   5.288 -0.1625  0.2292 -0.1127
   40POPC   C4A  789   4.823   2.267   4.954 -0.2271  0.0753  0.1317
   40POPC   C1B  790   4.165   2.774   6.192  0.2103  0.1824 -0.2091
   40POPC   C2B  791   3.924   3.165   6.006  0.0843  0.0678 -0.0233
   40POPC   C3B  792   3.707   3.249   5.564  0.1129  0.0268  0.1856
   40POPC   C4B  793   3.792   2.993   5.110  0.1494  0.0115 -0.0791
   41POPC   NC3  794   9.464   4.024   8.316  0.1000 -0.3536 -0.1246
   41POPC   PO4  795   9.606   3.742   8.162 -0.1900 -0.1014  0.1773
   41POPC   GL1  796   9.722   3.708   7.680 -0.2019 -0.0770  0.0213
   41POPC   GL2  797  10.088   3.627   7.438 -0.1023  0.1539 -0.1119
   41POPC   C1A  798   9.543   3.556   7.239 -0.0968 -0.1528 -0.1874
   41POPC   D2A  799   9.109   3.590   6.973  0.1066  0.4391  0.1115
   41POPC   C3A  800   9.087   3.255   6.679 -0.0144  0.2823 -0.1973
   41POPC   C4A  801   9.316   3.338   6.256  0.3152 -0.1561  0.0333
   41POPC   C1B  802  10.031   3.313   7.052  0.0265  0.1330  0.0790
   41POPC   C2B  803  10.095   3.029   6.626  0.1770 -0.1408  0.0315
   41POPC   C3B  804  10.197   2.835   6.207  0.2928 -0.1017  0.4602
   41POPC   C4B  805  10.553   2.831   5.931  0.1450 -0.1405  0.1147
   42POPC   NC3  806   7.565   0.445   6.900 -0.0217  0.3094 -0.0377
   42POPC   PO4  807   7.219   0.589   7.073  0.0386 -0.0088 -0.0178
   42POPC   GL1  808   7.275   0.737   6.641  0.1013  0.2403 -0.0707
   42POPC   GL2  809   7.119   0.463   6.522 -0.0965  0.3584  0.1851
   42POPC   C1A  810   7.241   0.862   6.145 -0.2521  0.1517 -0.0053
   42POPC   D2A  811   7.220   0.900   5.710 -0.1607  0.1204 -0.2063
   42POPC   C3A  812   7.261   0.485   5.487 -0.0737  0.0773  0.1716
   42POPC   C4A  813   7.404   0.166   5.375  0.0632 -0.0069  0.2260
   42POPC   C1B  814   6.753   0.656   6.312  0.3082  0.1278 -0.2200
   42POPC   C2B  815   6.481   0.707   5.974  0.2467  0.0744 -0.1954
   42POPC   C3B  816   6.093   0.920   5.916  0.4603  0.2177 -0.1842
   42POPC   C4B  817   5.789   0.725   5.923 -0.1548  0.1121  0.0779
   43POPC   NC3  818   7.685   9.801   7.163  0.1873 -0.3753 -0.2793
   43POPC   PO4  819   7.658   9.382   6.996  0.1969  0.0206  0.0622
   43POPC   GL1  820   7.905   9.239   6.601  0.1953  0.0349  0.1042
   43POPC   GL2  821   8.189   9.282   6.696 -0.0548 -0.4517 -0.0010
   43POPC   C1A  822   8.173   9.243   6.240  0.1664  0.1058  0.1885
   43POPC   D2A  823   8.568   9.275   6.043 -0.1020  0.0918  0.2012
   43POPC   C3A  824   8.809   8.905   5.972  0.0005  0.1666 -0.2391
   43POPC   C4A  825   8.827   8.826   5.505 -0.1577  0.0153  0.0346
   43POPC   C1B  826   8.638   9.163   6.515  0.0390  0.2149  0.3268
   43POPC   C2B  827   9.008   8.828   6.731 -0.3309 -0.0405  0.0541
   43POPC   C3B  828   9.382   8.758   6.567  0.0921  0.2569 -0.1640
   43POPC   C4B  829   9.492   8.636   6.085  0.2236 -0.0281 -0.1729
   44POPC   NC3  830   8.610   7.278   7.833 -0.1834 -0.0020  0.1158
   44POPC   PO4  831   8.950   6.854   7.660  0.0081 -0.1803  0.4614
   44POPC   GL1  832   9.283   6.751   7.409  0.2877  0.1053 -0.1310
   44POPC   GL2  833   9.083   6.616   7.119 -0.2430  0.0491 -0.1305
   44POPC   C1A  834   9.582   6.547   7.081  0.1270 -0.0971  0.0763
   44POPC   D2A  835   9.683   6.511   6.649  0.0213 -0.1818  0.3209
   44POPC   C3A  836  10.101   6.508   6.591 -0.0799 -0.0774  0.0093
   44POPC   C4A  837  10.354   6.409   6.284 -0.3373  0.2279 -0.0134
   44POPC   C1B  838   9.196   6.756   6.627  0.1671  0.1565  0.0207
   44POPC   C2B  839   9.286   6.847   6.182  0.1732 -0.0594  0.0011
   44POPC   C3B  840   9.411   6.577   5.860 -0.2746  0.1817 -0.0554
   44POPC   C4B  841   9.735   6.366   5.730 -0.0435 -0.2054  0.2411
   45POPC   NC3  842   5.538   5.853   7.204  0.0845 -0.2452  0.0160
   45POPC   PO4  843   5.502   6.194   7.428 -0.1214  0.2134 -0.0601
   45POPC   GL1  844   5.533   6.292   6.945  0.1454  0.0922  0.0298
   45POPC   GL2  845   5.457   6.579   6.831  0.0093  0.0191 -0.0277
   45POPC   C1A  846   5.542   6.143   6.501 -0.0832  0.2676  0.0598
   45POPC   D2A  847   5.657   6.237   6.086 -0.1147 -0.0826 -0.1668
   45POPC   C3A  848   5.758   6.044   5.683  0.1048 -0.1721 -0.3467
   45POPC   C4A  849   5.509   5.985   5.272  0.3579  0.1508 -0.1456
   45POPC   C1B  850   5.561   6.601   6.384 -0.0188 -0.1832  0.1398
   45POPC   C2B  851   5.748   6.743   5.962 -0.0086  0.0466  0.3278
   45POPC   C3B  852   5.942   6.955   5.632  0.0312  0.2912  0.3052
   45POPC   C4B  853   6.297   7.178   5.427 -0.1660  0.2693 -0.0877
   46POPC   NC3  854   0.412   6.968   8.405 -0.3287 -0.1244  0.1778
   46POPC   PO4  855   0.451   6.480   8.353  0.3387  0.0104 -0.3330
   46POPC   GL1  856   0.623   6.520   7.930  0.2103 -0.1490  0.4117
   46POPC   GL2  857   0.422   6.786   7.787 -0.3700  0.1459  0.1915
   46POPC   C1A  858   0.472   6.285   7.525  0.0675  0.2806 -0.0183
   46POPC   D2A  859   0.255   6.389   7.056 -0.4575  0.2717 -0.1371
   46POPC   C3A  860   0.031   6.209   6.691  0.0405  0.0590 -0.0945
   46POPC   C4A  861   0.124   6.189   6.301 -0.0821 -0.0089 -0.1578
   46POPC   C1B  862   0.398   6.797   7.408  0.0150  0.0800  0.0471
   46POPC   C2B  863   0.328   6.932   7.111  0.3153  0.0760  0.2126
   46POPC   C3B  864   0.396   6.710   6.714  0.3735 -0.1213 -0.1048
   46POPC   C4B  865   0.495   6.670   6.231  0.4067  0.4720 -0.3510
   47POPC   NC3  866   3.484   0.565   7.047 -0.0476 -0.2205  0.2790
   47POPC   PO4  867   3.148   0.358   6.914 -0.2833 -0.0096 -0.1993
   47POPC   GL1  868   2.990   0.215   6.476  0.2099 -0.3115  0.2277
   47POPC   GL2  869   3.145   0.028   6.220  0.1168  0.0231 -0.1052
   47POPC   C1A  870   2.851   0.401   6.078  0.1611 -0.0364  0.2541
   47POPC   D2A  871   2.667   0.416   5.684  0.0927 -0.3052 -0.1204
   47POPC   C3A  872   2.663   0.717   5.372  0.0156  0.1045 -0.1471
   47POPC   C4A  873   3.005   0.787   5.147  0.0281 -0.2498  0.1220
   47POPC   C1B  874   2.789  -0.241   6.376 -0.4025  0.1365  0.0155
   47POPC   C2B  875   2.576  -0.496   6.060  0.0286  0.0612 -0.1568
   47POPC   C3B  876   2.422  -0.682   5.697 -0.0539 -0.3611 -0.1094
   47POPC   C4B  877   2.246  -0.545   5.286  0.2664  0.0287  0.2287
   48POPC   NC3  878   3.971   4.781   7.626 -0.1810  0.1091 -0.2841
   48POPC   PO4  879   4.062   4.703   7.325 -0.1577  0.0624 -0.0386
   48POPC   GL1  880   4.006   4.866   6.980  0.1304 -0.0314  0.1706
   48POPC   GL2  881   3.710   4.773   6.823  0.3167 -0.0520  0.2108
   48POPC   C1A  882   4.216   4.807   6.598  0.0468 -0.1378  0.1582
   48POPC   D2A  883   4.157   4.642   6.247 -0.0801  0.1288 -0.1103
   48POPC   C3A  884   3.916   4.657   5.967 -0.0043  0.3823  0.0783
   48POPC   C4A  885   3.743   4.556   5.560  0.0657  0.0942 -0.3010
   48POPC   C1B  886   3.733   4.476   6.482  0.1600 -0.0667  0.0907
   48POPC   C2B  887   3.885   4.200   6.083  0.2537 -0.0413 -0.2635
   48POPC   C3B  888   4.254   4.103   6.087 -0.1274 -0.2057 -0.2640
   48POPC   C4B  889   4.485   3.780   6.234 -0.1400  0.1893  0.1681
   49POPC   NC3  890   4.797   5.253   7.530 -0.1475  0.0458  0.2769
   49POPC   PO4  891   5.229   5.010   7.397  0.0852  0.2598 -0.6189
   49POPC   GL1  892   4.938   5.072   7.051 -0.3561  0.1306 -0.1074
   49POPC   GL2  893   5.039   5.197   6.752  0.0054  0.1870  0.0598
   49POPC   C1A  894   4.696   4.803   6.695 -0.0318  0.2295  0.2109
   49POPC   D2A  895   4.681   4.732   6.294  0.0697 -0.1798  0.0050
   49POPC   C3A  896   4.544   4.517   5.913 -0.3056 -0.0946 -0.0494
   49POPC   C4A  897   4.204   4.353   5.639  0.0473  0.1767 -0.4740
   49POPC   C1B  898   5.065   5.316   6.356 -0.0245  0.1800 -0.2859
   49POPC   C2B  899   4.944   5.180   6.019  0.1712 -0.0541 -0.1272
   49POPC   C3B  900   4.748   4.921   5.672 -0.2554  0.0020  0.3721
   49POPC   C4B  901   4.597   4.733   5.345  0.0178  0.0217 -0.3753
   50POPC   NC3  902   8.738   3.428   7.799  0.2245 -0.3830  0.0309
   50POPC   PO4  903   8.784   3.921   7.771 -0.1818  0.1780 -0.4252
   50POPC   GL1  904   8.987   4.064   7.363  0.1371  0.0396  0.0219
   50POPC   GL2  905   8.756   4.201   7.121  0.1402  0.1062  0.4737
   50POPC   C1A  906   9.289   4.028   6.995  0.0694  0.0294 -0.1594
   50POPC   D2A  907   9.763   4.008   7.016  0.1266 -0.0066  0.4362
   50POPC   C3A  908  10.083   3.762   6.911 -0.2378 -0.2459  0.1614
   50POPC   C4A  909  10.486   3.717   7.101  0.0696  0.0222  0.2682
   50POPC   C1B  910   9.008   4.341   6.733  0.0203 -0.1011 -0.1640
   50POPC   C2B  911   9.038   4.263   6.363  0.3282  0.0648 -0.0728
   50POPC   C3B  912   9.124   4.289   5.913 -0.2452 -0.0036 -0.0491
   50POPC   C4B  913   9.115   3.911   5.626 -0.0503  0.1295 -0.0784
   51POPC   NC3  914  10.516   2.267   7.700 -0.0925  0.1061  0.1947
   51POPC   PO4  915  10.298   2.613   7.772 -0.0630 -0.1085  0.3042
   51POPC   GL1  916  10.397   2.648   7.364  0.0442  0.0742 -0.1227
   51POPC   GL2  917  10.398   2.298   7.248  0.0858 -0.0905  0.0708
   51POPC   C1A  918  10.534   2.719   6.963  0.1088  0.3129  0.0190
   51POPC   D2A  919  10.574   2.746   6.532  0.0379 -0.0595 -0.0288
   51POPC   C3A  920  10.832   2.662   6.272 -0.0542 -0.0157 -0.2022
   51POPC   C4A  921  11.098   2.797   5.912 -0.2650 -0.0808 -0.1593
   51POPC   C1B  922  10.319   2.309   6.806  0.1058 -0.2098  0.0995
   51POPC   C2B  923  10.310   2.340   6.249 -0.0103 -0.0656  0.3793
   51POPC   C3B  924  10.526   2.328   5.892 -0.0594 -0.0733  0.0441
   51POPC   C4B  925  10.938   2.354   5.743  0.4425 -0.2023  0.1136
   52POPC   NC3  926   8.469   9.893   6.996 -0.3621 -0.1266 -0.0547
   52POPC   PO4  927   8.121   9.633   7.133 -0.3101 -0.1571 -0.0554
   52POPC   GL1  928   8.094   9.786   6.714 -0.0992  0.1431 -0.3343
   52POPC   GL2  929   8.436   9.764   6.480 -0.0078 -0.0387  0.2368
   52POPC   C1A  930   7.933   9.663   6.340  0.1189 -0.2517  0.3636
   52POPC   D2A  931   7.595   9.895   6.081  0.1630  0.2307  0.0335
   52POPC   C3A  932   7.699   9.621   5.644  0.0041  0.2694  0.0748
   52POPC   C4A  933   7.823   9.352   5.379 -0.0847  0.2716  0.1482
   52POPC   C1B  934   8.754   9.627   6.327 -0.2923  0.0929 -0.1247
   52POPC   C2B  935   9.188   9.578   6.029 -0.1106 -0.2792  0.0322
   52POPC   C3B  936   9.603   9.598   5.845 -0.0073 -0.1197  0.2805
   52POPC   C4B  937  10.013   9.603   5.879 -0.1060  0.0003 -0.0840
   53POPC   NC3  938   7.429   7.183   7.123 -0.0607 -0.2302 -0.1438
   53POPC   PO4  939   7.045   6.929   7.324  0.1269  0.1807  0.1257
   53POPC   GL1  940   7.021   6.906   6.778 -0.0457  0.1134 -0.1496
   53POPC   GL2  941   7.090   7.223   6.575 -0.0820  0.0944  0.1228
   53POPC   C1A  942   7.111   6.688   6.436 -0.1254  0.1642 -0.1149
   53POPC   D2A  943   7.264   6.802   6.043  0.0887 -0.2126 -0.0621
   53POPC   C3A  944   7.090   6.827   5.663 -0.0024 -0.0196 -0.2343
   53POPC   C4A  945   6.889   7.105   5.351 -0.2269  0.3191  0.2013
   53POPC   C1B  946   7.011   7.494   6.229 -0.2340 -0.2627  0.0682
   53POPC   C2B  947   7.320   7.313   6.003 -0.3508 -0.0038 -0.1368
   53POPC   C3B  948   7.576   7.085   5.699  0.0949  0.0072 -0.0485
   53POPC   C4B  949   7.659   6.701   5.344 -0.2141  0.2216  0.0281
   54POPC   NC3  950   7.277   2.343   7.569 -0.3017  0.0142 -0.0771
   54POPC   PO4  951   7.225   2.259   7.131 -0.1090 -0.0324 -0.0284
   54POPC   GL1  952   7.012   2.201   6.700 -0.1865 -0.1941 -0.1820
   54POPC   GL2  953   6.826   2.490   6.642 -0.1639 -0.3382 -0.0919
   54POPC   C1A  954   7.198   2.151   6.300 -0.0338  0.1181 -0.0921
   54POPC   D2A  955   7.235   2.430   5.891  0.3217 -0.1633  0.0193
   54POPC   C3A  956   7.180   2.581   5.487  0.0143  0.0338  0.2693
   54POPC   C4A  957   7.239   2.843   5.159  0.0556  0.2800  0.2754
   54POPC   C1B  958   6.781   2.670   6.255 -0.1177 -0.1604  0.0496
   54POPC   C2B  959   6.678   2.986   5.906  0.2655  0.1050  0.2924
   54POPC   C3B  960   6.514   3.136   5.525  0.2753  0.0398 -0.0758
   54POPC   C4B  961   6.363   3.345   5.095  0.2844 -0.2175 -0.0501
   55POPC   NC3  962   6.436   9.285   7.275  0.1231  0.1887 -0.2583
   55POPC   PO4  963   6.353   8.827   7.316 -0.1908 -0.4695 -0.0749
   55POPC   GL1  964   6.434   8.905   6.877  0.4450 -0.0880 -0.1016
   55POPC   GL2  965   6.143   8.777   6.770 -0.0587  0.0064 -0.1380
   55POPC   C1A  966   6.577   8.705   6.548  0.2130  0.1826 -0.1861
   55POPC   D2A  967   6.618   8.442   6.197  0.0209  0.2312 -0.3131
   55POPC   C3A  968   6.879   8.565   5.829  0.0796 -0.0857  0.0593
   55POPC   C4A  969   7.221   8.585   5.498  0.2326 -0.1655 -0.0541
   55POPC   C1B  970   6.066   8.611   6.276  0.2260 -0.0633 -0.2514
   55POPC   C2B  971   6.154   8.510   5.807 -0.3077 -0.3417 -0.1500
   55POPC   C3B  972   5.945   8.226   5.378  0.2668  0.2179 -0.0010
   55POPC   C4B  973   5.856   8.107   4.909  0.3196 -0.0069 -0.1587
   56POPC   NC3  974   9.342   8.055   7.678  0.1149 -0.1097 -0.1321
   56POPC   PO4  975   9.643   7.725   7.491  0.0717 -0.1710  0.0876
   56POPC   GL1  976   9.626   7.543   7.106 -0.0744  0.1545  0.1039
   56POPC   GL2  977   9.876   7.357   7.012 -0.1069  0.1977 -0.0236
   56POPC   C1A  978   9.553   7.563   6.699 -0.0615  0.2922 -0.2646
   56POPC   D2A  979   9.376   7.866   6.525  0.0124  0.0086 -0.1114
   56POPC   C3A  980   9.182   7.717   6.247 -0.1081  0.0663 -0.0337
   56POPC   C4A  981   9.172   7.423   6.028  0.0668 -0.0388 -0.1316
   56POPC   C1B  982  10.031   7.391   6.637 -0.0392 -0.2253  0.2640
   56POPC   C2B  983  10.123   7.426   6.208 -0.0146  0.1974  0.2824
   56POPC   C3B  984  10.131   7.645   5.837  0.2401 -0.2799 -0.2697
   56POPC   C4B  985  10.118   7.701   5.421  0.0055 -0.0069  0.1844
   57POPC   NC3  986   5.913   5.526   7.228 -0.0822  0.4393  0.0180
   57POPC   PO4  987   5.610   5.349   6.948  0.0153  0.3308  0.0060
   57POPC   GL1  988   5.429   5.640   6.568 -0.3903 -0.2266 -0.0425
   57POPC   GL2  989   5.193   5.698   6.797  0.2981 -0.1244 -0.0068
   57POPC   C1A  990   5.416   5.801   6.186 -0.1235  0.0626 -0.1501
   57POPC   D2A  991   5.326   5.935   5.781 -0.0289  0.3071 -0.0026
   57POPC   C3A  992   5.004   5.847   5.521  0.0723  0.0143 -0.0981
   57POPC   C4A  993   4.573   5.774   5.238  0.0113  0.1158 -0.1686
   57POPC   C1B  994   5.014   5.873   6.467  0.0631 -0.1897  0.1510
   57POPC   C2B  995   4.965   5.696   6.027  0.0109 -0.0501  0.1413
   57POPC   C3B  996   5.239   5.468   5.729 -0.0003  0.2790  0.0169
   57POPC   C4B  997   5.615   5.352   5.645 -0.1462 -0.2909 -0.0518
   58POPC   NC3  998   0.453   5.970   8.562 -0.2440 -0.4132  0.0343
   58POPC   PO4  999   0.747   5.982   8.242  0.1986  0.1169  0.0626
   58POPC   GL1 1000   0.782   5.681   7.995 -0.2358  0.0288  0.3696
   58POPC   GL2 1001   1.071   5.507   8.062 -0.2449  0.0838  0.1980
   58POPC   C1A 1002   1.104   5.748   7.632 -0.1087  0.0073  0.0227
   58POPC   D2A 1003   1.093   5.543   7.287 -0.1027  0.3055 -0.3061
   58POPC   C3A 1004   0.808   5.370   7.113 -0.0217  0.2560 -0.3366
   58POPC   C4A 1005   0.655   4.977   7.257  0.0374  0.0455  0.2392
   58POPC   C1B 1006   1.109   5.239   7.721 -0.3820  0.0088  0.0577
   58POPC   C2B 1007   1.492   5.215   7.499  0.0978  0.3842  0.0094
   58POPC   C3B 1008   1.590   5.350   6.973  0.2085 -0.2332 -0.2572
   58POPC   C4B 1009   1.823   5.575   6.798 -0.1527 -0.2438 -0.0829
   59POPC   NC3 1010   9.765   4.366   7.931  0.3132  0.2377  0.2550
   59POPC   PO4 1011   9.733   4.191   7.506  0.1571 -0.0351 -0.0971
   59POPC   GL1 1012   9.812   4.503   7.197  0.2913  0.5543  0.0457
   59POPC   GL2 1013   9.461   4.505   7.043  0.1970 -0.1427 -0.0121
   59POPC   C1A 1014   9.995   4.449   6.726  0.2272 -0.0437 -0.2578
   59POPC   D2A 1015   9.924   4.384   6.354 -0.0360 -0.3141  0.2365
   59POPC   C3A 1016  10.237   4.593   6.128 -0.0825  0.0218 -0.2927
   59POPC   C4A 1017  10.702   4.513   5.959  0.2490 -0.4433 -0.1402
   59POPC   C1B 1018   9.514   4.635   6.756  0.1188 -0.2352 -0.0865
   59POPC   C2B 1019   9.420   4.519   6.253 -0.1330 -0.0742 -0.0623
   59POPC   C3B 1020   9.559   4.634   5.903 -0.0722  0.1077  0.0066
   59POPC   C4B 1021   9.481   4.839   5.588  0.0272  0.2959 -0.1460
   60POPC   NC3 1022  10.215   6.273   8.708  0.0235 -0.0308 -0.0111
   60POPC   PO4 1023  10.189   6.199   8.358 -0.0909  0.0086  0.1230
   60POPC   GL1 1024  10.253   6.199   7.977  0.0560  0.0663  0.1738
   60POPC   GL2 1025  10.349   6.400   7.828  0.0895  0.0014 -0.0341
   60POPC   C1A 1026  10.318   5.910   7.544  0.2413 -0.1520  0.0976
   60POPC   D2A 1027  10.522   6.022   7.165 -0.2952  0.2112  0.0828
   60POPC   C3A 1028  10.920   5.828   7.188  0.2125  0.2587  0.0705
   60POPC   C4A 1029  11.231   5.920   7.041 -0.1730  0.3541 -0.0598
   60POPC   C1B 1030  10.598   6.470   7.341 -0.3327  0.2502 -0.2117
   60POPC   C2B 1031  10.595   6.630   6.946  0.2002 -0.1917  0.0425
   60POPC   C3B 1032  10.685   6.670   6.556  0.1601 -0.0223 -0.3280
   60POPC   C4B 1033  10.728   6.770   6.054 -0.1327  0.0466  0.1452
   61POPC   NC3 1034   0.403   2.108   7.638 -0.0326 -0.1415  0.2264
   61POPC   PO4 1035   0.309   1.844   7.287  0.4638  0.1489 -0.2092
   61POPC   GL1 1036   0.367   1.931   6.906 -0.1485  0.0021 -0.2526
   61POPC   GL2 1037  -0.068   1.993   6.932 -0.0796 -0.0772  0.1180
   61POPC   C1A 1038   0.430   1.824   6.512 -0.1802 -0.3485 -0.1596
   61POPC   D2A 1039   0.619   1.985   6.149  0.1932  0.3761 -0.1440
   61POPC   C3A 1040   0.609   2.385   6.062  0.0072  0.3597 -0.0390
   61POPC   C4A 1041   0.857   2.814   5.999 -0.1377  0.0227 -0.2111
   61POPC   C1B 1042  -0.047   1.744   6.615 -0.1799  0.1308 -0.0614
   61POPC   C2B 1043  -0.345   1.794   6.374  0.1188  0.2922 -0.0425
   61POPC   C3B 1044  -0.398   1.736   6.100  0.1907 -0.0409  0.0806
   61POPC   C4B 1045  -0.162   1.673   5.694  0.1882 -0.0782  0.0211
   62POPC   NC3 1046   7.930   8.489   7.746 -0.1412  0.0601  0.2924
   62POPC   PO4 1047   7.833   8.088   7.461 -0.0925 -0.1117 -0.1952
   62POPC   GL1 1048   7.915   7.962   7.117 -0.2473 -0.2030  0.1043
   62POPC   GL2 1049   8.168   8.111   7.074 -0.1743  0.2294 -0.0752
   62POPC   C1A 1050   7.873   7.797   6.611  0.1231 -0.0104  0.0741
   62POPC   D2A 1051   8.048   7.931   6.275 -0.1575 -0.1111  0.1299
   62POPC   C3A 1052   8.325   7.753   5.978 -0.1461 -0.1727  0.0051
   62POPC   C4A 1053   8.697   7.692   5.746  0.1291 -0.3902  0.1268
   62POPC   C1B 1054   8.353   8.023   6.688 -0.0056  0.0605  0.1446
   62POPC   C2B 1055   8.573   7.862   6.411  0.1618  0.1005 -0.0390
   62POPC   C3B 1056   8.855   8.014   6.054 -0.3489  0.1861 -0.1845
   62POPC   C4B 1057   9.162   7.971   5.730  0.0868 -0.0191 -0.1073
   63POPC   NC3 1058   5.734   4.016   7.587  0.2624 -0.1695 -0.1185
   63POPC   PO4 1059   5.642   4.009   7.120 -0.1434 -0.1436 -0.0600
   63POPC   GL1 1060   5.834   4.174   6.725 -0.1152  0.2304 -0.2713
   63POPC   GL2 1061   5.707   4.431   6.645  0.1305 -0.1059 -0.2740
   63POPC   C1A 1062   6.016   4.293   6.276 -0.0090 -0.2994 -0.0700
   63POPC   D2A 1063   5.951   4.511   5.901  0.3439  0.2130  0.1539
   63POPC   C3A 1064   6.161   4.557   5.581 -0.0239  0.0324 -0.0166
   63POPC   C4A 1065   6.554   4.390   5.362 -0.0202  0.1716  0.0341
   63POPC   C1B 1066   5.533   4.511   6.205  0.0714 -0.0011 -0.2369
   63POPC   C2B 1067   5.182   4.654   5.970 -0.1700  0.1387  0.1037
   63POPC   C3B 1068   5.050   4.484   5.640  0.0901 -0.3746  0.0538
   63POPC   C4B 1069   4.992   4.415   5.158 -0.1521 -0.0427  0.0497
   64POPC   NC3 1070  10.250   3.272   7.918  0.0277 -0.0578 -0.4376
   64POPC   PO4 1071  10.236   3.741   7.889  0.1376 -0.3267  0.1147
   64POPC   GL1 1072  10.419   3.994   7.646  0.1062 -0.1628  0.0970
   64POPC   GL2 1073  10.191   4.265   7.568 -0.0018 -0.0538  0.0340
   64POPC   C1A 1074  10.647   4.322   7.414  0.0633 -0.1757 -0.1920
   64POPC   D2A 1075  11.040   4.645   7.306  0.3106  0.3059 -0.1746
   64POPC   C3A 1076  11.491   4.511   7.279 -0.0973 -0.0553  0.1147
   64POPC   C4A 1077  11.770   4.465   7.029  0.0981  0.1843 -0.0492
   64POPC   C1B 1078  10.261   4.272   7.114  0.1312  0.3066  0.1374
   64POPC   C2B 1079  10.372   4.095   6.743  0.1208  0.0632  0.0601
   64POPC   C3B 1080  10.415   4.200   6.378 -0.0029 -0.0939  0.4228
   64POPC   C4B 1081  10.389   4.065   5.848 -0.4689 -0.0301 -0.3131
   65POPC   NC3 1082  10.120   7.630   7.757  0.1288  0.0104  0.2828
   65POPC   PO4 1083  10.059   7.290   7.528 -0.0663 -0.0572 -0.2606
   65POPC   GL1 1084  10.346   7.474   7.291  0.0680  0.0598  0.5190
   65POPC   GL2 1085  10.149   7.767   7.254 -0.0440 -0.2182 -0.0914
   65POPC   C1A 1086  10.374   7.704   6.827 -0.1314  0.3488  0.2081
   65POPC   D2A 1087  10.577   8.062   6.498  0.2739 -0.0961 -0.2724
   65POPC   C3A 1088  10.452   8.190   6.099  0.0509  0.1234 -0.1246
   65POPC   C4A 1089  10.311   8.180   5.686 -0.2059 -0.2734  0.1142
   65POPC   C1B 1090   9.924   7.878   6.931 -0.2936  0.2122  0.1410
   65POPC   C2B 1091   9.890   7.824   6.446 -0.0389 -0.3110  0.4543
   65POPC   C3B 1092   9.655   7.823   5.970  0.2699  0.1588  0.4133
   65POPC   C4B 1093   9.625   7.642   5.544  0.0137  0.3325  0.1744
   66POPC   NC3 1094   9.989   0.319   7.899  0.1046 -0.0515 -0.5561
   66POPC   PO4 1095  10.194   0.505   7.499 -0.1403 -0.0085 -0.2879
   66POPC   GL1 1096  10.209   0.521   7.082  0.0433 -0.0997 -0.0288
   66POPC   GL2 1097  10.000   0.405   6.885  0.0393 -0.2572  0.0887
   66POPC   C1A 1098  10.402   0.751   6.869 -0.0159  0.0588 -0.3410
   66POPC   D2A 1099  10.465   0.969   6.556 -0.0494 -0.5018  0.0238
   66POPC   C3A 1100  10.675   1.307   6.379  0.0496 -0.0115 -0.0953
   66POPC   C4A 1101  10.847   1.458   6.019  0.1100 -0.2547 -0.0799
   66POPC   C1B 1102  10.142   0.526   6.510  0.4146  0.1792  0.0148
   66POPC   C2B 1103  10.301   0.638   6.004 -0.0340  0.1407 -0.0725
   66POPC   C3B 1104  10.328   1.026   5.926 -0.3280  0.1156  0.0022
   66POPC   C4B 1105  10.237   1.381   5.770  0.2956  0.3914 -0.0770
   67POPC   NC3 1106   3.250   9.606   7.386 -0.1952  0.2169  0.1825
   67POPC   PO4 1107   2.943   9.361   7.179 -0.3903 -0.1205  0.0181
   67POPC   GL1 1108   2.906   9.398   6.686 -0.1691  0.5066  0.1098
   67POPC   GL2 1109   2.655   9.362   6.440  0.1017 -0.1773 -0.3727
   67POPC   C1A 1110   3.106   9.304   6.305  0.2189  0.0359  0.2259
   67POPC   D2A 1111   3.228   9.112   5.842 -0.0189 -0.1288 -0.0028
   67POPC   C3A 1112   3.528   9.361   5.620 -0.1657 -0.0939 -0.2559
   67POPC   C4A 1113   3.907   9.651   5.559 -0.0139  0.0777 -0.2926
   67POPC   C1B 1114   2.291   9.246   6.187 -0.4662 -0.0214 -0.0229
   67POPC   C2B 1115   2.181   9.196   5.838  0.0188  0.0530 -0.4952
   67POPC   C3B 1116   1.888   9.140   5.551 -0.1470  0.0249 -0.0158
   67POPC   C4B 1117   1.735   8.797   5.404  0.1263 -0.1189  0.0026
   68POPC   NC3 1118   4.898   3.029   6.996 -0.2775  0.2760 -0.2027
   68POPC   PO4 1119   5.246   3.122   6.767  0.1767  0.0060 -0.1315
   68POPC   GL1 1120   5.090   3.025   6.495 -0.0468  0.1002  0.1844
   68POPC   GL2 1121   4.789   2.815   6.518 -0.1316 -0.3893 -0.0794
   68POPC   C1A 1122   5.310   2.899   6.124  0.0615  0.1013  0.2109
   68POPC   D2A 1123   5.008   3.080   5.861  0.0977 -0.0009  0.0303
   68POPC   C3A 1124   4.828   2.892   5.529 -0.1115 -0.1046 -0.0943
   68POPC   C4A 1125   4.765   2.514   5.409  0.0977  0.0730  0.1825
   68POPC   C1B 1126   4.829   2.680   6.103 -0.1723 -0.0203  0.2284
   68POPC   C2B 1127   5.174   2.607   5.782 -0.1896  0.0857  0.0079
   68POPC   C3B 1128   5.201   2.388   5.320 -0.1640  0.0642 -0.5953
   68POPC   C4B 1129   5.399   2.484   4.942  0.0955  0.0463  0.1076
   69POPC   NC3 1130   5.206   0.063   7.025 -0.0496  0.1803  0.0431
   69POPC   PO4 1131   4.784   0.367   7.045 -0.1165  0.0284 -0.0069
   69POPC   GL1 1132   4.623   0.432   6.640 -0.0964 -0.1466  0.1914
   69POPC   GL2 1133   4.561   0.742   6.714 -0.0739  0.5338 -0.2534
   69POPC   C1A 1134   4.448   0.146   6.387 -0.3120 -0.2709 -0.1279
   69POPC   D2A 1135   4.305  -0.218   6.171 -0.0001 -0.1021  0.1871
   69POPC   C3A 1136   4.485  -0.540   6.361  0.1410  0.1123  0.0515
   69POPC   C4A 1137   4.480  -0.878   6.341  0.3625  0.1719  0.0399
   69POPC   C1B 1138   4.400   0.725   6.282 -0.0108 -0.2639 -0.1423
   69POPC   C2B 1139   4.308   0.786   5.881  0.0135 -0.0080 -0.0310
   69POPC   C3B 1140   4.482   0.936   5.586  0.0356 -0.0799  0.4113
   69POPC   C4B 1141   4.477   1.228   5.208 -0.2867  0.1574 -0.1073
   70POPC   NC3 1142   6.145   2.316   7.149 -0.1585 -0.1239 -0.1219
   70POPC   PO4 1143   6.360   2.465   6.741  0.0279 -0.1826  0.0781
   70POPC   GL1 1144   6.330   2.299   6.400 -0.0084  0.1833 -0.0564
   70POPC   GL2 1145   6.595   2.126   6.338 -0.3273  0.1232 -0.1939
   70POPC   C1A 1146   6.234   2.245   5.970 -0.1124  0.0533  0.0791
   70POPC   D2A 1147   6.301   2.278   5.541  0.0859 -0.0503 -0.6039
   70POPC   C3A 1148   6.006   2.260   5.304  0.0810 -0.5111  0.1798
   70POPC   C4A 1149   5.748   2.041   4.955 -0.0065 -0.0734 -0.1873
   70POPC   C1B 1150   6.744   2.300   5.907  0.0522  0.2422 -0.2686
   70POPC   C2B 1151   6.691   2.573   5.593  0.1421 -0.1608 -0.0718
   70POPC   C3B 1152   6.751   2.766   5.179 -0.2109 -0.0974 -0.0593
   70POPC   C4B 1153   6.845   3.158   4.955 -0.0884  0.2841  0.1462
   71POPC   NC3 1154   0.576   8.817   8.285  0.0994  0.0623 -0.0593
   71POPC   PO4 1155   0.486   8.596   7.898 -0.1469 -0.0644  0.0878
   71POPC   GL1 1156   0.491   8.180   7.522 -0.0048 -0.1590 -0.1186
   71POPC   GL2 1157   0.447   8.275   7.210  0.0039  0.2012  0.0998
   71POPC   C1A 1158   0.619   7.695   7.198  0.3450 -0.1562 -0.3841
   71POPC   D2A 1159   0.453   7.355   6.939 -0.0161  0.2102  0.0706
   71POPC   C3A 1160   0.441   7.188   6.688  0.1975 -0.0946 -0.0872
   71POPC   C4A 1161   0.224   7.071   6.374 -0.1471 -0.0797 -0.1679
   71POPC   C1B 1162   0.494   8.318   6.885 -0.2814 -0.0272  0.4520
   71POPC   C2B 1163   0.400   8.202   6.454 -0.2575  0.2208 -0.0402
   71POPC   C3B 1164   0.193   8.097   6.093 -0.0839 -0.1497 -0.0179
   71POPC   C4B 1165   0.067   8.379   5.742 -0.2128 -0.0539  0.0562
   72POPC   NC3 1166   6.234   7.226   7.568 -0.2168  0.0014 -0.0467
   72POPC   PO4 1167   6.522   6.844   7.690  0.1199  0.1481 -0.1795
   72POPC   GL1 1168   6.381   6.665   7.198 -0.1494 -0.0335 -0.0041
   72POPC   GL2 1169   6.731   6.552   7.042  0.0919 -0.1184 -0.2792
   72POPC   C1A 1170   6.197   6.438   6.871  0.1281  0.0136  0.0255
   72POPC   D2A 1171   6.112   6.372   6.405  0.0205  0.0506  0.0868
   72POPC   C3A 1172   6.153   6.884   6.294 -0.0204 -0.1149 -0.0178
   72POPC   C4A 1173   6.247   7.094   6.045 -0.0899  0.0797  0.2650
   72POPC   C1B 1174   6.519   6.637   6.597  0.2033 -0.2393  0.0232
   72POPC   C2B 1175   6.730   6.600   6.151  0.0904 -0.1791 -0.5218
   72POPC   C3B 1176   6.711   6.382   5.852  0.2714 -0.0337 -0.1173
   72POPC   C4B 1177   6.824   6.145   5.488  0.1122  0.0598  0.0672
   73POPC   NC3 1178   2.220   6.281   7.823  0.0593  0.3185 -0.1467
   73POPC   PO4 1179   2.548   6.535   7.697 -0.0552 -0.0473  0.2818
   73POPC   GL1 1180   2.843   6.589   7.398 -0.0851  0.0373  0.2064
   73POPC   GL2 1181   3.157   6.553   7.439 -0.1158 -0.1501  0.0914
   73POPC   C1A 1182   2.760   6.619   7.023  0.2740  0.2328 -0.1841
   73POPC   D2A 1183   2.752   6.529   6.636 -0.0510  0.0609  0.3166
   73POPC   C3A 1184   2.642   6.820   6.388  0.0347 -0.2103 -0.1227
   73POPC   C4A 1185   2.250   7.009   6.191 -0.1555  0.5106  0.0551
   73POPC   C1B 1186   3.115   6.952   7.202 -0.0859 -0.3348  0.0697
   73POPC   C2B 1187   2.833   7.097   6.748  0.1287  0.0520  0.1999
   73POPC   C3B 1188   2.559   7.337   6.385  0.1140  0.1552  0.1390
   73POPC   C4B 1189   2.684   7.789   6.293 -0.3210 -0.0671 -0.0666
   74POPC   NC3 1190   3.814   5.790   7.607  0.1105  0.4276  0.0156
   74POPC   PO4 1191   3.876   5.265   7.620  0.2554  0.1211  0.3063
   74POPC   GL1 1192   3.862   5.546   7.158  0.2526 -0.0119 -0.1113
   74POPC   GL2 1193   4.134   5.548   7.027 -0.2551 -0.0185  0.0112
   74POPC   C1A 1194   3.670   5.662   6.699  0.0391 -0.2098 -0.2157
   74POPC   D2A 1195   3.664   5.463   6.292  0.1179 -0.0308 -0.3349
   74POPC   C3A 1196   3.258   5.372   6.165  0.0660  0.5140 -0.0472
   74POPC   C4A 1197   3.019   5.288   5.866 -0.0960  0.2507 -0.0989
   74POPC   C1B 1198   3.922   5.273   6.695  0.0229  0.1921  0.0264
   74POPC   C2B 1199   3.907   5.075   6.239  0.2241 -0.1001  0.0343
   74POPC   C3B 1200   3.552   5.119   5.786 -0.3254 -0.0756 -0.1255
   74POPC   C4B 1201   3.710   5.060   5.236  0.6520  0.1741  0.1399
   75POPC   NC3 1202   1.164   3.532   8.572 -0.0086 -0.2782  0.0739
   75POPC   PO4 1203   0.877   3.207   8.370  0.2011  0.4417 -0.0711
   75POPC   GL1 1204   0.807   3.734   8.216 -0.5128 -0.0910 -0.0159
   75POPC   GL2 1205   1.077   3.837   8.086 -0.0391 -0.3551  0.0671
   75POPC   C1A 1206   0.628   3.819   7.819  0.1085  0.1142  0.0463
   75POPC   D2A 1207   0.466   4.161   7.642 -0.0536 -0.0188  0.2099
   75POPC   C3A 1208   0.631   4.558   7.762 -0.1608  0.1162 -0.1310
   75POPC   C4A 1209   0.915   4.779   7.660 -0.2521 -0.0148 -0.0355
   75POPC   C1B 1210   1.099   3.696   7.708 -0.2107  0.0800 -0.0043
   75POPC   C2B 1211   1.333   3.617   7.285  0.0670 -0.0749 -0.1645
   75POPC   C3B 1212   1.420   3.272   7.037  0.0499  0.2821 -0.0564
   75POPC   C4B 1213   1.392   2.887   6.939 -0.3120 -0.0307 -0.1455
   76POPC   NC3 1214   9.253  10.021   7.307 -0.2033  0.0519  0.1029
   76POPC   PO4 1215   8.891  10.215   7.123  0.1949 -0.2101 -0.1259
   76POPC   GL1 1216   9.284  10.265   6.814  0.2279  0.1852  0.3500
   76POPC   GL2 1217   9.594  10.110   6.900  0.0178 -0.2439 -0.0370
   76POPC   C1A 1218   9.575  10.339   6.420 -0.2355 -0.0857  0.1262
   76POPC   D2A 1219   9.412  10.521   6.021 -0.0206  0.2217  0.1025
   76POPC   C3A 1220   9.309  10.453   5.607 -0.1398  0.1026 -0.0196
   76POPC   C4A 1221   9.224  10.733   5.270 -0.1617  0.4532  0.0987
   76POPC   C1B 1222   9.747   9.816   6.669 -0.0795 -0.1514  0.1615
   76POPC   C2B 1223   9.569   9.515   6.331 -0.3316  0.0991  0.3179
   76POPC   C3B 1224   9.695   9.073   6.257  0.1703 -0.1537  0.2734
   76POPC   C4B 1225   9.867   8.798   6.485 -0.1965  0.0221 -0.0872
   77POPC   NC3 1226   1.699   7.050   7.669  0.0444 -0.2542  0.0386
   77POPC   PO4 1227   2.116   6.789   7.870  0.1255 -0.1695 -0.0479
   77POPC   GL1 1228   2.136   6.649   7.415  0.0138 -0.0472  0.0159
   77POPC   GL2 1229   2.262   6.352   7.329 -0.2982  0.1316 -0.1247
   77POPC   C1A 1230   2.341   6.898   7.088  0.0364 -0.0652 -0.0325
   77POPC   D2A 1231   2.283   6.994   6.694 -0.1756 -0.0976  0.0620
   77POPC   C3A 1232   1.808   7.088   6.484  0.0295  0.2253 -0.1042
   77POPC   C4A 1233   1.792   7.177   6.040 -0.0685  0.1377  0.1131
   77POPC   C1B 1234   2.286   6.502   6.775  0.2362  0.0170 -0.1308
   77POPC   C2B 1235   2.115   6.539   6.441 -0.1431 -0.0258  0.2357
   77POPC   C3B 1236   1.932   6.649   6.061  0.1150  0.0725 -0.2199
   77POPC   C4B 1237   2.005   6.493   5.711 -0.0528  0.0812 -0.0577
   78POPC   NC3 1238   5.686   9.188   7.284 -0.2642  0.2144  0.1174
   78POPC   PO4 1239   5.436   9.556   7.329  0.2542  0.1042  0.1252
   78POPC   GL1 1240   5.622   9.540   6.919 -0.0179 -0.0041  0.0199
   78POPC   GL2 1241   5.900   9.687   6.687  0.1372  0.1279  0.1528
   78POPC   C1A 1242   5.397   9.353   6.451 -0.0423  0.1846  0.1935
   78POPC   D2A 1243   5.345   9.519   5.949 -0.1686 -0.3156  0.1055
   78POPC   C3A 1244   5.564   9.871   5.760 -0.0767  0.2199  0.2312
   78POPC   C4A 1245   5.572  10.086   5.313 -0.1653 -0.2424  0.0485
   78POPC   C1B 1246   6.314   9.666   6.514 -0.1220  0.1922  0.1009
   78POPC   C2B 1247   6.350   9.247   6.326  0.0198 -0.2868  0.1436
   78POPC   C3B 1248   6.501   8.912   6.033  0.2239  0.3364  0.1095
   78POPC   C4B 1249   6.532   8.853   5.603  0.0130  0.1360 -0.2301
   79POPC   NC3 1250   9.454   5.233   7.906 -0.0077 -0.3617  0.4335
   79POPC   PO4 1251   9.615   4.892   7.947 -0.0487  0.0235 -0.0337
   79POPC   GL1 1252   9.747   4.777   7.622 -0.0654 -0.0121 -0.1179
   79POPC   GL2 1253   9.990   4.714   7.620 -0.0596 -0.2541  0.2637
   79POPC   C1A 1254   9.720   5.019   7.102  0.1846 -0.2653 -0.1844
   79POPC   D2A 1255   9.693   5.448   6.836  0.2472 -0.0416 -0.1439
   79POPC   C3A 1256   9.516   5.504   6.367 -0.3980 -0.1535 -0.2682
   79POPC   C4A 1257   9.207   5.558   6.015 -0.0704 -0.2264 -0.0295
   79POPC   C1B 1258  10.161   4.832   7.190 -0.0060 -0.2494  0.0385
   79POPC   C2B 1259  10.112   5.046   6.810 -0.0668  0.4374  0.0442
   79POPC   C3B 1260  10.226   4.971   6.501 -0.1499 -0.1984  0.0844
   79POPC   C4B 1261  10.602   4.816   6.421  0.2742 -0.2258 -0.2039
   80POPC   NC3 1262   1.740   9.647   7.603  0.1281  0.1990 -0.0713
   80POPC   PO4 1263   1.241   9.440   7.896  0.1769  0.2290 -0.1716
   80POPC   GL1 1264   1.254   9.536   7.403  0.1725 -0.1860 -0.1103
   80POPC   GL2 1265   1.157   9.194   7.247 -0.0019  0.2748  0.1051
   80POPC   C1A 1266   1.287   9.654   6.955 -0.0365  0.3796 -0.1526
   80POPC   D2A 1267   1.038   9.480   6.582 -0.0496 -0.1965  0.0767
   80POPC   C3A 1268   1.278   9.500   6.193 -0.1118 -0.2448 -0.3440
   80POPC   C4A 1269   0.928   9.340   5.797  0.1461  0.3050 -0.2293
   80POPC   C1B 1270   1.379   9.185   6.845 -0.1374 -0.2188 -0.4145
   80POPC   C2B 1271   1.569   8.905   6.390 -0.0124  0.1611 -0.1846
   80POPC   C3B 1272   1.846   8.867   6.047 -0.0288 -0.3054  0.1568
   80POPC   C4B 1273   1.785   8.463   5.834 -0.1421  0.0236  0.1718
   81POPC   NC3 1274   1.021   2.194   7.950  0.0013 -0.0022  0.0558
   81POPC   PO4 1275   1.185   1.729   7.812  0.0766  0.1638 -0.2850
   81POPC   GL1 1276   1.273   1.708   7.415 -0.1711  0.0332 -0.0569
   81POPC   GL2 1277   1.013   1.604   7.196 -0.1365 -0.1981 -0.2873
   81POPC   C1A 1278   1.435   1.788   7.025  0.0102 -0.2332 -0.0493
   81POPC   D2A 1279   1.496   1.550   6.582  0.2766  0.2156  0.1086
   81POPC   C3A 1280   1.576   1.780   6.324  0.0166 -0.0565 -0.0458
   81POPC   C4A 1281   1.518   2.199   6.209  0.0572  0.1493  0.1782
   81POPC   C1B 1282   0.906   1.949   7.015  0.2652 -0.3387 -0.1172
   81POPC   C2B 1283   0.695   2.386   7.068  0.2410  0.1816 -0.0754
   81POPC   C3B 1284   0.726   2.841   7.181  0.0825  0.1998  0.1233
   81POPC   C4B 1285   1.054   3.055   7.362 -0.0193  0.0199 -0.2090
   82POPC   NC3 1286  10.235   9.002   7.894  0.0223  0.1365 -0.0805
   82POPC   PO4 1287  10.519   8.629   7.760  0.0854 -0.2012 -0.1238
   82POPC   GL1 1288  10.369   8.462   7.383  0.1605 -0.1904 -0.2883
   82POPC   GL2 1289  10.517   8.600   7.172  0.1638  0.0241  0.0225
   82POPC   C1A 1290  10.055   8.609   7.094  0.3235  0.2639  0.2658
   82POPC   D2A 1291   9.746   8.429   6.870  0.0499  0.0697 -0.2043
   82POPC   C3A 1292   9.648   8.283   6.466 -0.0787 -0.0556  0.0624
   82POPC   C4A 1293   9.322   8.180   6.163 -0.1132 -0.3724  0.0047
   82POPC   C1B 1294  10.756   8.410   6.783 -0.3585  0.2794 -0.2518
   82POPC   C2B 1295  10.727   8.557   6.269 -0.0211  0.0632 -0.4432
   82POPC   C3B 1296  11.120   8.652   5.988 -0.1537 -0.0947 -0.1187
   82POPC   C4B 1297  11.470   8.384   5.773 -0.0147 -0.0383  0.2825
   83POPC   NC3 1298   4.130   3.980   7.968 -0.1002  0.1572  0.1009
   83POPC   PO4 1299   4.052   3.915   7.618  0.0402 -0.0231 -0.0586
   83POPC   GL1 1300   3.899   3.917   7.143 -0.1143 -0.0120 -0.1308
   83POPC   GL2 1301   4.004   4.269   7.027 -0.1451  0.2310 -0.0577
   83POPC   C1A 1302   3.667   3.763   6.778 -0.3297  0.0482 -0.3428
   83POPC   D2A 1303   3.900   3.868   6.448  0.1602  0.0145 -0.0186
   83POPC   C3A 1304   4.151   4.153   6.588  0.0459  0.1349 -0.0182
   83POPC   C4A 1305   4.588   4.290   6.419 -0.0563  0.3051  0.0032
   83POPC   C1B 1306   3.557   4.224   6.877 -0.1074 -0.1345  0.0838
   83POPC   C2B 1307   3.196   4.128   6.853  0.1427  0.1040 -0.0506
   83POPC   C3B 1308   2.898   3.982   7.094  0.0091  0.0750 -0.1181
   83POPC   C4B 1309   2.680   3.987   7.481 -0.2166 -0.1083  0.1853
   84POPC   NC3 1310   4.343  10.192   7.567 -0.0526 -0.3328  0.0640
   84POPC   PO4 1311   4.541  10.028   7.109  0.0127 -0.2443 -0.1542
   84POPC   GL1 1312   4.781   9.961   6.714 -0.0815 -0.0339 -0.4316
   84POPC   GL2 1313   4.929  10.255   6.562 -0.2221 -0.0532  0.0886
   84POPC   C1A 1314   4.985   9.769   6.309  0.2540  0.1980 -0.2469
   84POPC   D2A 1315   4.915   9.405   6.171  0.1595 -0.1298  0.1389
   84POPC   C3A 1316   5.061   9.089   5.957 -0.1223 -0.0826 -0.1100
   84POPC   C4A 1317   5.538   9.074   5.821 -0.0083  0.6901 -0.4066
   84POPC   C1B 1318   4.828  10.553   6.223 -0.1778  0.3554  0.1074
   84POPC   C2B 1319   4.849  10.743   5.808  0.2512 -0.1040  0.0044
   84POPC   C3B 1320   5.202  10.902   5.805 -0.1666  0.0853  0.2868
   84POPC   C4B 1321   5.529  11.076   6.174  0.0896 -0.0183  0.2632
   85POPC   NC3 1322   3.787   2.007   7.604  0.3906  0.0593 -0.1203
   85POPC   PO4 1323   3.496   1.934   7.198 -0.3813  0.0685  0.3239
   85POPC   GL1 1324   3.531   2.135   6.768 -0.2252 -0.1463 -0.1705
   85POPC   GL2 1325   3.803   1.979   6.732  0.0776 -0.4009  0.0268
   85POPC   C1A 1326   3.445   2.399   6.308  0.1134  0.1582 -0.4641
   85POPC   D2A 1327   3.703   2.605   6.037 -0.0701  0.0929 -0.0608
   85POPC   C3A 1328   3.981   2.801   5.622  0.0206 -0.0759 -0.3343
   85POPC   C4A 1329   4.258   2.822   5.294  0.0740 -0.1707  0.0207
   85POPC   C1B 1330   4.001   2.174   6.464  0.1844 -0.3179 -0.0345
   85POPC   C2B 1331   4.074   2.289   6.026  0.1187  0.0122 -0.1571
   85POPC   C3B 1332   4.383   2.583   5.788  0.2790 -0.0962 -0.1489
   85POPC   C4B 1333   4.485   2.942   5.854  0.0792 -0.1309  0.2651
   86POPC   NC3 1334   3.081   2.115   7.453 -0.3168  0.2565 -0.3156
   86POPC   PO4 1335   2.753   2.111   7.606 -0.1032 -0.1558 -0.0013
   86POPC   GL1 1336   2.702   2.328   7.123  0.0520 -0.1619  0.0176
   86POPC   GL2 1337   2.970   2.179   6.931  0.4202  0.1051 -0.0418
   86POPC   C1A 1338   2.601   2.472   6.654 -0.1711 -0.2969 -0.3826
   86POPC   D2A 1339   2.213   2.488   6.411  0.0172  0.0334  0.1196
   86POPC   C3A 1340   2.056   2.754   6.183  0.4949  0.4284 -0.1828
   86POPC   C4A 1341   2.176   3.197   6.005 -0.1046 -0.2746  0.0015
   86POPC   C1B 1342   3.024   2.230   6.497 -0.0862 -0.0629  0.4236
   86POPC   C2B 1343   2.680   2.198   6.180 -0.1912  0.5165 -0.0959
   86POPC   C3B 1344   2.426   1.974   5.900 -0.2681  0.1941 -0.0718
   86POPC   C4B 1345   2.372   1.561   5.750 -0.1319 -0.0045  0.0287
   87POPC   NC3 1346   2.912   7.361   7.808  0.1078  0.0319 -0.3415
   87POPC   PO4 1347   3.119   7.589   7.526 -0.2952  0.1078 -0.0549
   87POPC   GL1 1348   2.959   7.513   7.113  0.4653  0.0064 -0.0517
   87POPC   GL2 1349   2.684   7.455   7.081  0.0967 -0.0438  0.1255
   87POPC   C1A 1350   2.996   7.521   6.630  0.2653  0.1797  0.1495
   87POPC   D2A 1351   3.077   7.244   6.342 -0.0709  0.0889 -0.0029
   87POPC   C3A 1352   2.935   6.890   6.010  0.2179  0.0108 -0.1512
   87POPC   C4A 1353   2.536   6.586   5.954  0.2526  0.0051 -0.2249
   87POPC   C1B 1354   2.355   7.535   6.843 -0.1300  0.2726  0.0126
   87POPC   C2B 1355   2.122   7.499   6.385 -0.0675  0.1437  0.1678
   87POPC   C3B 1356   2.158   7.520   5.946 -0.1098  0.0298  0.2920
   87POPC   C4B 1357   1.834   7.469   5.589  0.2360  0.0261  0.1141
   88POPC   NC3 1358   7.331   9.007   7.083 -0.1078  0.1456  0.0754
   88POPC   PO4 1359   7.315   8.647   6.854 -0.1419 -0.1804  0.0053
   88POPC   GL1 1360   7.355   8.340   6.518  0.0551 -0.0473 -0.2754
   88POPC   GL2 1361   7.629   8.227   6.431  0.2615  0.0548  0.0794
   88POPC   C1A 1362   7.014   8.116   6.178 -0.2418  0.1533 -0.2637
   88POPC   D2A 1363   6.782   8.034   5.864 -0.1382  0.1580  0.2481
   88POPC   C3A 1364   6.999   8.097   5.490 -0.0811 -0.1312  0.2540
   88POPC   C4A 1365   6.896   8.038   5.080  0.1472 -0.0994  0.1121
   88POPC   C1B 1366   7.445   8.271   6.013  0.0453 -0.0757 -0.3489
   88POPC   C2B 1367   7.536   8.170   5.606  0.1792  0.0953  0.1034
   88POPC   C3B 1368   7.832   8.075   5.314  0.2325 -0.0076  0.0668
   88POPC   C4B 1369   8.220   7.856   5.330  0.0254 -0.1551 -0.1621
   89POPC   NC3 1370   0.473   7.622   8.377  0.2245 -0.1161  0.1517
   89POPC   PO4 1371   0.061   7.334   8.306 -0.2882  0.0962 -0.0629
   89POPC   GL1 1372  -0.027   6.895   8.067 -0.0245  0.3730 -0.0654
   89POPC   GL2 1373   0.062   6.531   8.018  0.0140  0.0354 -0.0716
   89POPC   C1A 1374  -0.027   6.831   7.663 -0.3398 -0.1926  0.0052
   89POPC   D2A 1375  -0.171   7.047   7.235 -0.1637 -0.0112 -0.1146
   89POPC   C3A 1376  -0.057   7.145   6.842  0.0124 -0.0917  0.1583
   89POPC   C4A 1377  -0.150   7.342   6.499  0.2070 -0.2966 -0.1341
   89POPC   C1B 1378   0.018   6.139   7.705 -0.0412  0.2572  0.5009
   89POPC   C2B 1379   0.136   5.730   7.693  0.1489  0.1805 -0.0286
   89POPC   C3B 1380  -0.144   5.423   7.629  0.1677 -0.0226 -0.0383
   89POPC   C4B 1381  -0.404   5.348   7.325  0.3900 -0.1466 -0.1135
   90POPC   NC3 1382   1.831   0.142   7.006 -0.0385 -0.2197 -0.0488
   90POPC   PO4 1383   1.526   0.301   7.157  0.3178 -0.0088  0.0662
   90POPC   GL1 1384   1.329   0.207   6.873 -0.0394  0.0486 -0.1211
   90POPC   GL2 1385   1.441   0.190   6.624 -0.3855  0.1131 -0.2308
   90POPC   C1A 1386   1.035   0.327   6.409  0.0125  0.0305 -0.0834
   90POPC   D2A 1387   0.906   0.318   6.027  0.2977  0.2444  0.0197
   90POPC   C3A 1388   0.909   0.388   5.680 -0.4470  0.0709  0.1913
   90POPC   C4A 1389   0.784   0.469   5.236 -0.1916  0.0224 -0.0234
   90POPC   C1B 1390   1.495   0.261   6.176  0.1353 -0.0509  0.1706
   90POPC   C2B 1391   1.297   0.036   5.886 -0.2232 -0.1024 -0.2199
   90POPC   C3B 1392   1.080  -0.056   5.596  0.0556 -0.0291  0.2238
   90POPC   C4B 1393   0.663  -0.369   5.589  0.0609  0.3803 -0.2126
   91POPC   NC3 1394   3.699  10.229   6.870  0.1076  0.4079 -0.0389
   91POPC   PO4 1395   3.868  10.487   6.564 -0.2811  0.0163 -0.2873
   91POPC   GL1 1396   3.707  10.627   6.259  0.0786  0.2030  0.2577
   91POPC   GL2 1397   3.462  10.404   6.254 -0.1117 -0.0240 -0.0822
   91POPC   C1A 1398   3.524  10.758   5.893 -0.4671  0.3146  0.1168
   91POPC   D2A 1399   3.795  10.978   5.535 -0.1865 -0.3363 -0.1015
   91POPC   C3A 1400   3.724  10.781   5.091 -0.0534  0.0565 -0.0288
   91POPC   C4A 1401   4.038  10.645   4.753  0.2052  0.1708 -0.1265
   91POPC   C1B 1402   3.130  10.178   6.055 -0.1867 -0.1129  0.0260
   91POPC   C2B 1403   2.948  10.234   5.639 -0.1192  0.1707  0.0023
   91POPC   C3B 1404   2.775  10.518   5.258 -0.2869  0.4597  0.0295
   91POPC   C4B 1405   2.835  10.962   5.272  0.0939 -0.3312  0.0604
   92POPC   NC3 1406   2.512   8.127   7.630 -0.1255 -0.0960  0.0207
   92POPC   PO4 1407   2.873   8.084   7.526 -0.2173  0.2130 -0.1420
   92POPC   GL1 1408   2.666   7.971   7.108  0.0467 -0.3751  0.0963
   92POPC   GL2 1409   2.349   7.862   7.252  0.2456 -0.1958 -0.0746
   92POPC   C1A 1410   2.900   7.996   6.753 -0.0499 -0.5224 -0.0023
   92POPC   D2A 1411   3.136   8.245   6.567  0.0751  0.4921  0.0193
   92POPC   C3A 1412   2.893   8.541   6.357  0.0398 -0.0328  0.2198
   92POPC   C4A 1413   2.753   8.885   6.321 -0.1290 -0.1565 -0.0203
   92POPC   C1B 1414   2.026   7.899   7.006  0.1460 -0.0404 -0.4334
   92POPC   C2B 1415   1.879   7.954   6.553  0.1003 -0.0559  0.1196
   92POPC   C3B 1416   1.684   8.063   6.178 -0.0829  0.0063  0.0305
   92POPC   C4B 1417   1.589   7.984   5.633 -0.3812  0.1461  0.5020
   93POPC   NC3 1418   6.505  10.176   7.095 -0.1019  0.0446 -0.0038
   93POPC   PO4 1419   6.847  10.354   6.864 -0.1292  0.0338 -0.1383
   93POPC   GL1 1420   6.901  10.621   6.570  0.0731  0.2256  0.0534
   93POPC   GL2 1421   7.221  10.647   6.607  0.2895 -0.0580 -0.2419
   93POPC   C1A 1422   6.826  10.871   6.256  0.1245  0.1581 -0.0290
   93POPC   D2A 1423   7.039  11.154   5.950 -0.0990  0.1645  0.2353
   93POPC   C3A 1424   6.771  11.409   5.576  0.2421 -0.1881 -0.1640
   93POPC   C4A 1425   6.455  11.729   5.517 -0.6227 -0.1548  0.2122
   93POPC   C1B 1426   7.338  10.828   6.111  0.2053  0.1367  0.2508
   93POPC   C2B 1427   7.235  10.711   5.766 -0.2586 -0.0042  0.0733
   93POPC   C3B 1428   7.327  10.346   5.509  0.3518  0.0761  0.1425
   93POPC   C4B 1429   7.081  10.380   5.123 -0.0070  0.1888 -0.1657
   94POPC   NC3 1430   1.665   1.609   7.839 -0.0266  0.0156  0.1015
   94POPC   PO4 1431   2.024   1.854   7.763 -0.1240  0.1357  0.1489
   94POPC   GL1 1432   1.744   1.940   7.403  0.1882  0.0161 -0.1273
   94POPC   GL2 1433   1.842   2.043   7.121 -0.1573  0.3115  0.1695
   94POPC   C1A 1434   1.376   2.209   7.310 -0.1569 -0.1572  0.0142
   94POPC   D2A 1435   1.165   2.590   7.223  0.0059  0.1820 -0.3782
   94POPC   C3A 1436   1.099   2.527   6.737 -0.0022 -0.0465  0.1051
   94POPC   C4A 1437   1.124   2.510   6.360 -0.0488 -0.0231  0.3170
   94POPC   C1B 1438   1.955   1.886   6.702  0.2227 -0.1415 -0.2120
   94POPC   C2B 1439   2.041   2.042   6.290 -0.1230  0.1169  0.1992
   94POPC   C3B 1440   2.017   2.264   5.975  0.0200  0.1935  0.0177
   94POPC   C4B 1441   1.841   2.436   5.726 -0.2714 -0.0845  0.0219
   95POPC   NC3 1442   7.082   1.503   7.184  0.0975  0.0504 -0.0384
   95POPC   PO4 1443   7.224   1.100   6.983  0.1768  0.0655 -0.2095
   95POPC   GL1 1444   7.384   1.265   6.518 -0.6202 -0.0396  0.0369
   95POPC   GL2 1445   7.454   1.552   6.417 -0.1082  0.3431  0.0736
   95POPC   C1A 1446   7.746   0.937   6.317  0.1182  0.1281  0.0084
   95POPC   D2A 1447   7.922   0.886   5.967  0.3285  0.0524  0.1720
   95POPC   C3A 1448   7.760   0.990   5.603 -0.0506  0.0723  0.0729
   95POPC   C4A 1449   7.473   1.305   5.497  0.0617 -0.2303 -0.1230
   95POPC   C1B 1450   7.806   1.457   6.237 -0.0998  0.1034 -0.0120
   95POPC   C2B 1451   8.244   1.437   5.935  0.0045 -0.2664 -0.2261
   95POPC   C3B 1452   8.626   1.478   5.794 -0.0965 -0.0042  0.0638
   95POPC   C4B 1453   9.011   1.634   5.825  0.1007  0.0572  0.1203
   96POPC   NC3 1454   8.027   4.157   7.599 -0.2434 -0.3991  0.0146
   96POPC   PO4 1455   8.036   4.490   7.304 -0.1469  0.4351 -0.0317
   96POPC   GL1 1456   8.220   4.363   6.845  0.0533 -0.1549  0.1437
   96POPC   GL2 1457   8.164   4.697   6.797  0.1553 -0.1301  0.0413
   96POPC   C1A 1458   8.545   4.316   6.578 -0.2327  0.3008 -0.0037
   96POPC   D2A 1459   8.598   4.222   6.110  0.4357  0.0207  0.2828
   96POPC   C3A 1460   8.706   3.813   5.964 -0.1829  0.2235 -0.1200
   96POPC   C4A 1461   8.969   3.428   5.808 -0.2360  0.1082 -0.0527
   96POPC   C1B 1462   7.759   4.782   6.614 -0.0199  0.1543 -0.0715
   96POPC   C2B 1463   7.790   4.937   6.249 -0.4442  0.0107  0.0292
   96POPC   C3B 1464   7.928   4.627   5.886  0.1546 -0.1471 -0.1201
   96POPC   C4B 1465   7.985   4.798   5.453  0.0496  0.3909  0.2670
   97POPC   NC3 1466   4.956   9.583   7.120  0.1581  0.1388 -0.0294
   97POPC   PO4 1467   4.698   9.196   7.089 -0.2220  0.0678 -0.1462
   97POPC   GL1 1468   4.917   8.894   6.832  0.0969  0.0874  0.0536
   97POPC   GL2 1469   4.780   8.616   6.654 -0.3778 -0.0125 -0.0188
   97POPC   C1A 1470   5.200   8.918   6.452  0.0707  0.2505 -0.0257
   97POPC   D2A 1471   5.554   8.781   6.304 -0.0620 -0.1604  0.0363
   97POPC   C3A 1472   5.648   8.608   5.963  0.0262  0.4760  0.0421
   97POPC   C4A 1473   5.738   8.168   5.838 -0.2802  0.0414  0.0027
   97POPC   C1B 1474   4.752   8.762   6.218  0.5018  0.0996  0.1323
   97POPC   C2B 1475   4.768   8.706   5.718  0.2063  0.2541 -0.2828
   97POPC   C3B 1476   4.902   8.504   5.381 -0.1205 -0.1957  0.1391
   97POPC   C4B 1477   4.818   8.166   5.093  0.0517 -0.1345  0.0033
   98POPC   NC3 1478   4.971   8.802   7.362  0.1548 -0.0041  0.1157
   98POPC   PO4 1479   5.391   8.812   7.232 -0.2008  0.0128  0.3133
   98POPC   GL1 1480   5.617   8.786   6.846  0.0568 -0.1690 -0.0418
   98POPC   GL2 1481   5.721   8.489   6.670  0.1016  0.0607  0.1485
   98POPC   C1A 1482   5.818   9.137   6.594  0.1799 -0.2174 -0.0167
   98POPC   D2A 1483   5.873   9.146   6.186 -0.0911 -0.1125  0.0354
   98POPC   C3A 1484   6.008   8.950   5.931  0.1425 -0.1703  0.0926
   98POPC   C4A 1485   5.756   8.781   5.511  0.1441 -0.1811  0.0221
   98POPC   C1B 1486   5.747   8.210   6.360 -0.1301 -0.2450  0.4073
   98POPC   C2B 1487   5.642   7.773   6.206  0.0768 -0.1070  0.0237
   98POPC   C3B 1488   5.581   7.703   5.772  0.1159  0.3390 -0.3453
   98POPC   C4B 1489   5.749   7.726   5.303 -0.2355  0.1055  0.0538
   99POPC   NC3 1490  10.202   5.208   8.414 -0.0300  0.0774 -0.1720
   99POPC   PO4 1491  10.712   5.065   8.455 -0.2497  0.1502 -0.3236
   99POPC   GL1 1492  10.626   4.807   8.130 -0.0847 -0.0165  0.2054
   99POPC   GL2 1493  10.699   5.030   7.910  0.1094  0.0003 -0.1760
   99POPC   C1A 1494  10.448   4.669   7.706 -0.2055  0.0357  0.0384
   99POPC   D2A 1495  10.652   4.988   7.394 -0.2552  0.3117  0.0500
   99POPC   C3A 1496  10.625   4.852   7.004  0.0758  0.2522 -0.0610
   99POPC   C4A 1497  10.609   4.552   6.830  0.0150 -0.0208  0.1444
   99POPC   C1B 1498  11.152   5.034   7.713 -0.0511 -0.2303 -0.3968
   99POPC   C2B 1499  11.392   5.380   7.571 -0.4160  0.1301  0.2365
   99POPC   C3B 1500  11.326   5.791   7.567 -0.4181  0.0994  0.3838
   99POPC   C4B 1501  11.588   6.063   7.297 -0.2662 -0.1316 -0.1035
  100POPC   NC3 1502   1.931   2.426   8.213 -0.1181  0.2676 -0.0261
  100POPC   PO4 1503   2.035   2.490   7.851  0.2259  0.0489 -0.1618
  100POPC   GL1 1504   1.834   2.503   7.453 -0.0405 -0.0448  0.0847
  100POPC   GL2 1505   1.744   2.777   7.349 -0.1342 -0.1291  0.0172
  100POPC   C1A 1506   1.716   2.458   6.959  0.0404 -0.0351  0.6460
  100POPC   D2A 1507   1.638   2.629   6.497  0.2960  0.1954  0.0369
  100POPC   C3A 1508   1.580   2.681   6.101 -0.0862 -0.1190 -0.2517
  100POPC   C4A 1509   1.592   2.954   5.746  0.0247 -0.2758  0.0017
  100POPC   C1B 1510   1.877   2.971   6.980 -0.2309 -0.2969 -0.0130
  100POPC   C2B 1511   2.307   2.812   6.808  0.1655  0.0600 -0.1655
  100POPC   C3B 1512   2.702   2.927   6.833 -0.0192  0.0420 -0.0885
  100POPC   C4B 1513   3.188   3.099   6.758 -0.1223  0.2012  0.0706
  101POPC   NC3 1514   6.800   0.786   6.964 -0.0856  0.1024  0.0892
  101POPC   PO4 1515   6.368   1.006   6.985 -0.2066 -0.1712  0.2138
  101POPC   GL1 1516   6.353   1.237   6.589  0.2205  0.0943 -0.2711
  101POPC   GL2 1517   6.309   1.539   6.553  0.0392  0.1328 -0.4228
  101POPC   C1A 1518   6.463   1.139   6.240  0.0168 -0.0152 -0.1450
  101POPC   D2A 1519   6.372   1.349   5.840  0.1367  0.3694  0.1523
  101POPC   C3A 1520   6.243   1.425   5.425 -0.0067 -0.0293  0.3004
  101POPC   C4A 1521   5.998   1.547   5.187  0.1263 -0.2035  0.1936
  101POPC   C1B 1522   6.319   1.741   6.081 -0.0314  0.3158 -0.0278
  101POPC   C2B 1523   6.561   1.768   5.685 -0.2990 -0.4420  0.1633
  101POPC   C3B 1524   6.788   2.086   5.450  0.1850 -0.1031  0.1136
  101POPC   C4B 1525   6.972   2.332   5.162 -0.1912  0.2099 -0.1940
  102POPC   NC3 1526   4.378   9.158   6.709  0.0825 -0.1690  0.0516
  102POPC   PO4 1527   3.985   9.160   6.723 -0.1815  0.0348 -0.0423
  102POPC   GL1 1528   4.119   9.158   6.278  0.1893  0.2065  0.0284
  102POPC   GL2 1529   4.390   9.146   6.200  0.0370 -0.0981 -0.0611
  102POPC   C1A 1530   3.743   9.105   6.002  0.1641 -0.0359 -0.0171
  102POPC   D2A 1531   3.669   8.614   5.875 -0.2544 -0.1997 -0.1488
  102POPC   C3A 1532   3.313   8.409   5.525 -0.0007 -0.3813  0.4193
  102POPC   C4A 1533   2.998   8.086   5.430  0.2353 -0.0887 -0.1241
  102POPC   C1B 1534   4.630   9.209   5.797  0.0825 -0.0595  0.0697
  102POPC   C2B 1535   4.760   9.554   5.723  0.1661 -0.1370  0.0096
  102POPC   C3B 1536   5.023   9.887   5.801  0.0022  0.0428 -0.1818
  102POPC   C4B 1537   5.072  10.159   6.063 -0.1887  0.0470 -0.0775
  103POPC   NC3 1538   7.874   2.974   7.040 -0.1229  0.2157 -0.0155
  103POPC   PO4 1539   8.116   2.537   7.283 -0.1306  0.1928 -0.2093
  103POPC   GL1 1540   8.366   2.541   6.877 -0.0143 -0.1280 -0.0465
  103POPC   GL2 1541   8.130   2.687   6.660  0.2525 -0.3164  0.2104
  103POPC   C1A 1542   8.508   2.218   6.549  0.2138  0.0235 -0.0588
  103POPC   D2A 1543   8.564   2.160   6.081  0.2491 -0.1583 -0.0980
  103POPC   C3A 1544   8.608   1.834   6.111 -0.0731 -0.4571  0.1316
  103POPC   C4A 1545   8.681   1.335   6.237  0.4160  0.4097 -0.5693
  103POPC   C1B 1546   8.214   2.588   6.207 -0.1457 -0.2670 -0.0611
  103POPC   C2B 1547   8.146   2.427   5.780  0.2487 -0.0113  0.3124
  103POPC   C3B 1548   8.034   2.233   5.396  0.1641  0.3228 -0.1328
  103POPC   C4B 1549   8.023   2.312   4.956 -0.0541  0.0915  0.0175
  104POPC   NC3 1550   6.751   6.392   7.532  0.1404  0.0995 -0.0871
  104POPC   PO4 1551   6.741   6.026   7.379  0.0690  0.0530 -0.2321
  104POPC   GL1 1552   6.600   6.084   6.996  0.1093 -0.3307 -0.0878
  104POPC   GL2 1553   6.781   5.787   6.920 -0.0566 -0.0411  0.2067
  104POPC   C1A 1554   6.306   5.933   6.698  0.2589  0.5046  0.0967
  104POPC   D2A 1555   5.979   5.916   6.404  0.1995  0.1084 -0.1689
  104POPC   C3A 1556   6.155   6.070   5.987 -0.1674  0.4354  0.1271
  104POPC   C4A 1557   6.289   6.184   5.599 -0.0757 -0.1148 -0.2272
  104POPC   C1B 1558   6.828   5.743   6.463 -0.0307 -0.0702 -0.1958
  104POPC   C2B 1559   7.090   5.744   6.022 -0.0052  0.2552 -0.0676
  104POPC   C3B 1560   7.011   5.609   5.642  0.0828 -0.0530  0.1224
  104POPC   C4B 1561   6.873   5.559   5.211 -0.1911 -0.1041 -0.1615
  105POPC   NC3 1562   0.522   2.931   7.957  0.0484 -0.0133  0.1029
  105POPC   PO4 1563   0.213   2.532   7.812  0.1145 -0.2100  0.3867
  105POPC   GL1 1564   0.124   2.551   7.378  0.0682  0.1324  0.2928
  105POPC   GL2 1565   0.169   2.336   7.187 -0.2612 -0.0545  0.0350
  105POPC   C1A 1566   0.257   2.814   7.064  0.3008 -0.0019 -0.1382
  105POPC   D2A 1567   0.319   3.003   6.643  0.1583 -0.1430 -0.0844
  105POPC   C3A 1568   0.615   2.742   6.452  0.1284 -0.0855 -0.1079
  105POPC   C4A 1569   0.662   2.301   6.577  0.2247 -0.0184  0.0061
  105POPC   C1B 1570   0.156   2.381   6.767 -0.1548 -0.1919  0.3227
  105POPC   C2B 1571   0.136   2.202   6.437  0.0503 -0.3908  0.1084
  105POPC   C3B 1572   0.124   1.990   6.095 -0.2832 -0.0434 -0.0168
  105POPC   C4B 1573   0.331   1.878   5.757  0.2083  0.3789 -0.1966
  106POPC   NC3 1574   2.418   1.316   7.110  0.1549 -0.0287  0.0968
  106POPC   PO4 1575   2.380   0.926   7.137  0.1063 -0.0689 -0.0818
  106POPC   GL1 1576   2.351   0.978   6.745 -0.1198 -0.0228 -0.1444
  106POPC   GL2 1577   2.143   0.776   6.623 -0.6286  0.1028  0.0889
  106POPC   C1A 1578   2.350   1.225   6.367  0.1094 -0.2093 -0.0791
  106POPC   D2A 1579   2.157   1.086   6.004 -0.2220  0.1230 -0.2720
  106POPC   C3A 1580   2.262   0.681   5.650 -0.0389  0.2143  0.2018
  106POPC   C4A 1581   2.268   0.381   5.363  0.1154 -0.2965  0.0632
  106POPC   C1B 1582   1.934   0.788   6.386 -0.0210  0.0143  0.2378
  106POPC   C2B 1583   1.795   0.621   6.046  0.1773  0.2476  0.1821
  106POPC   C3B 1584   1.573   0.483   5.737  0.1537 -0.0883  0.0755
  106POPC   C4B 1585   1.393   0.507   5.301  0.5513  0.1715  0.0212
  107POPC   NC3 1586   8.715   1.710   7.254 -0.1008  0.2051 -0.1377
  107POPC   PO4 1587   8.622   2.159   7.176 -0.0863 -0.0279  0.2831
  107POPC   GL1 1588   8.989   2.005   6.867  0.1455 -0.0417  0.1389
  107POPC   GL2 1589   9.343   2.137   6.903 -0.1627 -0.0768  0.1017
  107POPC   C1A 1590   8.966   1.908   6.445 -0.3468 -0.1192 -0.2711
  107POPC   D2A 1591   9.043   2.152   6.007 -0.4782  0.0185  0.0277
  107POPC   C3A 1592   8.776   2.053   5.686 -0.1552  0.1162  0.3390
  107POPC   C4A 1593   8.401   1.914   5.569 -0.2208  0.0260 -0.0169
  107POPC   C1B 1594   9.625   1.729   6.768  0.2414 -0.2050 -0.2278
  107POPC   C2B 1595   9.870   1.598   6.367 -0.2079 -0.4703  0.0867
  107POPC   C3B 1596   9.776   1.441   5.985 -0.0350 -0.0070 -0.1422
  107POPC   C4B 1597   9.420   1.439   5.702 -0.0471 -0.2519  0.0177
  108POPC   NC3 1598   5.356   3.939   6.694  0.2644 -0.1863 -0.0458
  108POPC   PO4 1599   5.443   3.583   6.885  0.0484  0.2326  0.0042
  108POPC   GL1 1600   5.393   3.527   6.463 -0.3026  0.0950 -0.1415
  108POPC   GL2 1601   5.706   3.677   6.345 -0.0123 -0.6018  0.1112
  108POPC   C1A 1602   5.405   3.365   6.080 -0.4237  0.3539  0.1192
  108POPC   D2A 1603   5.464   3.402   5.644  0.1385 -0.0974  0.3407
  108POPC   C3A 1604   5.394   3.735   5.322 -0.3542  0.2254 -0.1955
  108POPC   C4A 1605   5.359   4.054   5.045  0.3085  0.1030 -0.1662
  108POPC   C1B 1606   6.104   3.702   6.250 -0.2176 -0.2244 -0.2740
  108POPC   C2B 1607   6.230   3.845   5.971  0.0130  0.0174  0.1656
  108POPC   C3B 1608   6.084   4.079   5.630  0.0467 -0.0229  0.1999
  108POPC   C4B 1609   5.763   4.078   5.311  0.1055  0.3474 -0.1569
  109POPC   NC3 1610   9.532  10.433   7.271  0.0325  0.3140  0.0854
  109POPC   PO4 1611   9.823  10.237   7.487  0.2621  0.0026 -0.1708
  109POPC   GL1 1612   9.991  10.334   7.041  0.3061  0.2718  0.1448
  109POPC   GL2 1613  10.106  10.034   7.077 -0.2805 -0.0581  0.0411
  109POPC   C1A 1614  10.137  10.348   6.558  0.0075  0.1805  0.0767
  109POPC   D2A 1615  10.308  10.303   6.132 -0.0519  0.1222  0.1345
  109POPC   C3A 1616  10.655  10.467   5.963  0.1929 -0.1087 -0.1147
  109POPC   C4A 1617  10.639  10.801   5.603  0.1052  0.0500 -0.2562
  109POPC   C1B 1618  10.348   9.951   6.709  0.0203 -0.4350  0.0685
  109POPC   C2B 1619  10.179   9.861   6.349  0.3095 -0.0447 -0.0990
  109POPC   C3B 1620   9.896   9.965   6.217  0.1088 -0.2016 -0.4067
  109POPC   C4B 1621   9.689  10.119   5.847  0.1793  0.1409 -0.2569
  110POPC   NC3 1622   6.631   4.892   7.564  0.0003 -0.0641  0.1366
  110POPC   PO4 1623   6.962   4.813   7.326 -0.2769 -0.1386 -0.2038
  110POPC   GL1 1624   7.243   4.751   6.958  0.0779  0.2922 -0.1105
  110POPC   GL2 1625   7.068   4.928   6.732  0.0691  0.0538 -0.3059
  110POPC   C1A 1626   7.260   4.476   6.581  0.2356  0.0432 -0.1386
  110POPC   D2A 1627   7.534   4.472   6.266 -0.3298 -0.2788  0.1782
  110POPC   C3A 1628   7.994   4.411   6.393  0.1451  0.0977 -0.1682
  110POPC   C4A 1629   8.323   4.705   6.275 -0.3017  0.1250 -0.0295
  110POPC   C1B 1630   7.159   4.874   6.393  0.1049 -0.2460  0.3208
  110POPC   C2B 1631   7.364   4.848   5.964 -0.4382  0.0021  0.2522
  110POPC   C3B 1632   7.578   5.014   5.670 -0.2310 -0.0396  0.0295
  110POPC   C4B 1633   7.857   5.325   5.662 -0.1260 -0.2388 -0.0397
  111POPC   NC3 1634   0.020   3.907   7.984 -0.2522  0.0059 -0.0379
  111POPC   PO4 1635  -0.095   3.493   8.135  0.1336 -0.1409  0.0352
  111POPC   GL1 1636  -0.167   3.498   7.593  0.1055  0.3824 -0.0839
  111POPC   GL2 1637  -0.271   3.158   7.413 -0.4076 -0.2051  0.1640
  111POPC   C1A 1638   0.178   3.478   7.240  0.0064  0.1856  0.2553
  111POPC   D2A 1639   0.235   3.580   6.852 -0.2091  0.2280  0.1991
  111POPC   C3A 1640   0.551   3.457   6.603  0.1359 -0.1488  0.1726
  111POPC   C4A 1641   0.636   3.176   6.195 -0.0069 -0.3492  0.0823
  111POPC   C1B 1642  -0.216   3.275   6.846  0.1849 -0.0253  0.1105
  111POPC   C2B 1643  -0.260   3.206   6.411  0.1590 -0.2283  0.0289
  111POPC   C3B 1644  -0.344   3.386   6.017  0.0383  0.0349  0.2352
  111POPC   C4B 1645  -0.735   3.651   5.711  0.0583  0.4037  0.0970
  112POPC   NC3 1646   0.952   9.042   7.678  0.1157 -0.1349  0.0180
  112POPC   PO4 1647   0.654   8.976   7.327 -0.0663 -0.3974 -0.4731
  112POPC   GL1 1648   0.787   8.953   6.980 -0.0175  0.1090 -0.0989
  112POPC   GL2 1649   0.892   8.638   7.012 -0.0822 -0.0781  0.1187
  112POPC   C1A 1650   1.042   8.944   6.585  0.1321  0.0904  0.1429
  112POPC   D2A 1651   1.116   9.013   6.227 -0.0207 -0.0187  0.1939
  112POPC   C3A 1652   0.927   8.850   5.873 -0.0413 -0.3063  0.3516
  112POPC   C4A 1653   0.602   8.964   5.560 -0.1333 -0.4224 -0.0288
  112POPC   C1B 1654   1.201   8.465   6.947 -0.1851  0.0997 -0.0471
  112POPC   C2B 1655   1.532   8.280   6.638 -0.1878 -0.0471  0.0397
  112POPC   C3B 1656   1.869   8.488   6.382  0.0836  0.1268 -0.2740
  112POPC   C4B 1657   2.273   8.692   6.102  0.0534 -0.2154  0.3316
  113POPC   NC3 1658   5.258   1.468   6.765 -0.0558 -0.1438 -0.0887
  113POPC   PO4 1659   5.071   1.061   6.839 -0.0826  0.3644 -0.2650
  113POPC   GL1 1660   4.932   1.064   6.477  0.2667  0.3299 -0.0597
  113POPC   GL2 1661   4.943   1.423   6.309 -0.2581  0.1863  0.5258
  113POPC   C1A 1662   4.838   0.996   6.041  0.1013 -0.1448 -0.2206
  113POPC   D2A 1663   4.910   1.177   5.783 -0.1084 -0.1300  0.0125
  113POPC   C3A 1664   5.362   1.136   5.676 -0.1227 -0.0015  0.1880
  113POPC   C4A 1665   5.552   1.356   5.269 -0.0398 -0.0866 -0.2283
  113POPC   C1B 1666   4.834   1.652   5.979  0.0567  0.1480  0.1136
  113POPC   C2B 1667   5.055   2.122   5.793  0.3976  0.1313  0.2688
  113POPC   C3B 1668   5.418   2.226   5.999  0.0101 -0.0572 -0.0077
  113POPC   C4B 1669   5.771   2.341   6.171  0.1562 -0.3316  0.2145
  114POPC   NC3 1670   7.782   1.147   7.665  0.0101  0.0509  0.0009
  114POPC   PO4 1671   7.997   1.151   7.253  0.0122  0.1336  0.4131
  114POPC   GL1 1672   8.227   1.040   6.850 -0.1728  0.0014 -0.2633
  114POPC   GL2 1673   8.380   1.229   6.706  0.1266  0.1998 -0.2212
  114POPC   C1A 1674   8.445   0.775   6.505  0.1504 -0.2139 -0.0472
  114POPC   D2A 1675   8.513   0.479   6.175  0.2412  0.2362 -0.3988
  114POPC   C3A 1676   8.751   0.600   5.848  0.0413  0.0496 -0.0972
  114POPC   C4A 1677   9.058   0.382   5.581  0.1709 -0.2310  0.1136
  114POPC   C1B 1678   8.241   1.214   6.370  0.2030  0.1277  0.2144
  114POPC   C2B 1679   8.442   0.968   6.000  0.0448 -0.1282  0.2482
  114POPC   C3B 1680   8.374   1.029   5.611  0.1913  0.1554  0.0326
  114POPC   C4B 1681   8.489   1.277   5.320  0.2182 -0.2242  0.0804
  115POPC   NC3 1682   1.881   0.653   7.259  0.1465 -0.0947  0.1494
  115POPC   PO4 1683   1.884   1.021   7.106 -0.1085 -0.1645 -0.0708
  115POPC   GL1 1684   1.859   1.178   6.696  0.0319  0.1709  0.0482
  115POPC   GL2 1685   1.956   1.434   6.546  0.1380  0.1990  0.0834
  115POPC   C1A 1686   1.664   1.138   6.172 -0.0907  0.1440  0.1510
  115POPC   D2A 1687   1.759   0.986   5.748 -0.0019 -0.0388  0.0220
  115POPC   C3A 1688   2.118   1.163   5.489 -0.0539 -0.2085 -0.1474
  115POPC   C4A 1689   2.246   0.915   5.114  0.0781 -0.3571 -0.2563
  115POPC   C1B 1690   1.965   1.541   6.156 -0.0591  0.1911 -0.2456
  115POPC   C2B 1691   1.804   1.590   5.796  0.3585 -0.3629  0.0722
  115POPC   C3B 1692   2.000   1.643   5.326 -0.2334 -0.1104  0.2425
  115POPC   C4B 1693   2.157   1.506   4.997  0.2111  0.1052  0.0071
  116POPC   NC3 1694   0.880   2.368   8.533 -0.1108 -0.1986  0.3793
  116POPC   PO4 1695   0.964   2.645   8.124  0.2577 -0.0510  0.0200
  116POPC   GL1 1696   1.052   3.011   7.939  0.0379  0.0705 -0.2531
  116POPC   GL2 1697   0.847   3.346   7.868  0.1917  0.2464  0.0160
  116POPC   C1A 1698   1.417   3.261   7.606 -0.2958  0.0561  0.2148
  116POPC   D2A 1699   1.853   3.272   7.362  0.1615 -0.0459  0.2145
  116POPC   C3A 1700   1.868   3.593   6.930  0.0750 -0.1366  0.1943
  116POPC   C4A 1701   1.839   3.951   6.759 -0.0214 -0.5415  0.1655
  116POPC   C1B 1702   0.710   3.405   7.495 -0.1793  0.4623  0.1163
  116POPC   C2B 1703   0.599   3.293   7.054  0.1361 -0.1279 -0.0765
  116POPC   C3B 1704   0.942   3.181   6.872 -0.0161 -0.0123 -0.2570
  116POPC   C4B 1705   1.194   3.091   6.489  0.2429  0.2820  0.1607
  117POPC   NC3 1706   3.615   3.573   7.598  0.1094 -0.3554  0.1036
  117POPC   PO4 1707   3.345   3.423   7.679 -0.0751  0.2152 -0.0339
  117POPC   GL1 1708   3.192   3.379   7.306 -0.3323  0.0751 -0.2582
  117POPC   GL2 1709   2.901   3.306   7.215  0.2444 -0.1500  0.3811
  117POPC   C1A 1710   3.233   3.635   6.970 -0.3857 -0.2814  0.1264
  117POPC   D2A 1711   3.299   3.655   6.531  0.0616 -0.0630  0.0113
  117POPC   C3A 1712   3.063   3.424   6.416  0.3406 -0.0210 -0.2016
  117POPC   C4A 1713   2.958   3.168   6.132  0.1974 -0.1799  0.3311
  117POPC   C1B 1714   2.813   3.411   6.848 -0.0697  0.3244 -0.0138
  117POPC   C2B 1715   2.815   3.766   6.656 -0.0841 -0.0217 -0.0283
  117POPC   C3B 1716   2.935   3.998   6.316 -0.0322 -0.0624  0.1762
  117POPC   C4B 1717   2.937   4.381   6.098  0.0447 -0.1992  0.0020
  118POPC   NC3 1718   8.583   6.668   7.337 -0.1502  0.4140 -0.1547
  118POPC   PO4 1719   8.119   6.591   7.440 -0.2367  0.1223  0.0740
  118POPC   GL1 1720   8.211   6.696   6.974 -0.0315 -0.1782 -0.2565
  118POPC   GL2 1721   7.946   6.622   6.800 -0.1456 -0.1419  0.0783
  118POPC   C1A 1722   8.449   6.567   6.627 -0.1246  0.1689 -0.0823
  118POPC   D2A 1723   8.857   6.438   6.513 -0.3647 -0.0573  0.1809
  118POPC   C3A 1724   8.813   6.493   6.125  0.0042  0.0190  0.2112
  118POPC   C4A 1725   8.997   6.191   5.760  0.1975  0.0373 -0.0912
  118POPC   C1B 1726   8.031   6.345   6.442  0.2535 -0.1814 -0.0947
  118POPC   C2B 1727   8.130   6.193   6.070 -0.1778 -0.1605  0.0041
  118POPC   C3B 1728   7.919   6.139   5.693  0.0139 -0.0553 -0.5589
  118POPC   C4B 1729   7.949   6.254   5.233  0.1035 -0.0332 -0.1120
  119POPC   NC3 1730   6.606   2.861   6.930  0.1527 -0.0147  0.1470
  119POPC   PO4 1731   6.976   3.075   6.997 -0.3069 -0.2512 -0.2055
  119POPC   GL1 1732   6.933   3.158   6.536  0.1867  0.1766  0.0154
  119POPC   GL2 1733   6.697   3.438   6.575  0.3958 -0.0459  0.0280
  119POPC   C1A 1734   7.025   3.395   6.169  0.0209  0.1975 -0.1448
  119POPC   D2A 1735   7.189   3.564   5.866 -0.0598  0.2551 -0.0702
  119POPC   C3A 1736   7.063   3.911   5.750 -0.0343 -0.0877  0.1137
  119POPC   C4A 1737   7.080   4.371   5.724  0.1182 -0.2110  0.2924
  119POPC   C1B 1738   6.427   3.314   6.224  0.0696  0.0719  0.0208
  119POPC   C2B 1739   6.171   3.333   5.909 -0.1978 -0.0586  0.0170
  119POPC   C3B 1740   5.829   3.599   5.794  0.0221 -0.1158  0.0273
  119POPC   C4B 1741   5.734   3.951   5.928 -0.1386 -0.0349 -0.1196
  120POPC   NC3 1742   5.289   6.616   7.326  0.0091 -0.2823 -0.0493
  120POPC   PO4 1743   4.820   6.832   7.268  0.0494  0.3018  0.1556
  120POPC   GL1 1744   4.936   6.587   6.928  0.0031  0.1376  0.1102
  120POPC   GL2 1745   4.698   6.371   6.870 -0.3030 -0.3135 -0.1644
  120POPC   C1A 1746   5.058   6.410   6.514 -0.0039  0.2076  0.0103
  120POPC   D2A 1747   5.129   6.249   6.165 -0.1829 -0.2199  0.0351
  120POPC   C3A 1748   4.824   6.163   5.866  0.4806 -0.3423  0.1123
  120POPC   C4A 1749   4.654   6.217   5.526  0.1868 -0.4738 -0.0532
  120POPC   C1B 1750   4.590   6.108   6.461  0.0080 -0.1202  0.0189
  120POPC   C2B 1751   4.530   5.809   6.175  0.0185  0.3896  0.0217
  120POPC   C3B 1752   4.592   5.447   5.815 -0.0062  0.1359  0.1903
  120POPC   C4B 1753   4.857   5.381   5.446  0.1106  0.0632  0.0814
  121POPC   NC3 1754   9.724   0.522   7.382 -0.0731 -0.1337  0.1785
  121POPC   PO4 1755   9.494   0.214   7.138 -0.0925 -0.1522 -0.1420
  121POPC   GL1 1756   9.426  -0.044   6.686  0.2291  0.0680  0.1953
  121POPC   GL2 1757   9.771  -0.018   6.792  0.1599  0.3486  0.3104
  121POPC   C1A 1758   9.059  -0.148   6.354 -0.4647 -0.1639  0.0915
  121POPC   D2A 1759   8.874  -0.230   5.927  0.2301  0.1769  0.2017
  121POPC   C3A 1760   8.629  -0.617   5.966 -0.0355 -0.1361 -0.0146
  121POPC   C4A 1761   8.111  -0.650   5.807 -0.3596 -0.1685  0.0196
  121POPC   C1B 1762   9.810   0.037   6.417  0.3013 -0.1436 -0.0765
  121POPC   C2B 1763   9.883  -0.128   6.001 -0.0332 -0.0765 -0.1322
  121POPC   C3B 1764   9.930  -0.205   5.586  0.0035  0.0052  0.3160
  121POPC   C4B 1765  10.362  -0.332   5.526 -0.4993  0.2586 -0.1897
  122POPC   NC3 1766   2.205   3.253   8.527 -0.0906 -0.3171 -0.2331
  122POPC   PO4 1767   1.975   3.648   8.479  0.3886  0.1248  0.0246
  122POPC   GL1 1768   2.131   3.736   8.103  0.0928  0.2143 -0.0841
  122POPC   GL2 1769   2.336   4.050   8.114  0.2003 -0.1609 -0.2844
  122POPC   C1A 1770   2.239   3.518   7.669  0.0467 -0.0198  0.0686
  122POPC   D2A 1771   2.399   3.692   7.276  0.5471 -0.1589 -0.2354
  122POPC   C3A 1772   2.346   3.921   6.855 -0.0297 -0.1324  0.0405
  122POPC   C4A 1773   2.290   4.315   6.752 -0.1192  0.0704  0.2281
  122POPC   C1B 1774   1.980   4.297   7.860  0.1256  0.0020 -0.2230
  122POPC   C2B 1775   1.790   4.290   7.556 -0.1185 -0.0647 -0.0544
  122POPC   C3B 1776   1.442   4.075   7.398  0.1188 -0.2475 -0.0244
  122POPC   C4B 1777   1.321   3.957   6.935 -0.1472  0.0558  0.2731
  123POPC   NC3 1778   2.726   0.210   7.185  0.1939 -0.1970 -0.2031
  123POPC   PO4 1779   2.503  -0.097   7.144  0.0104 -0.1334  0.2579
  123POPC   GL1 1780   2.586   0.096   6.716  0.0087 -0.2497 -0.1871
  123POPC   GL2 1781   2.361  -0.086   6.541 -0.0981  0.1117 -0.1087
  123POPC   C1A 1782   2.490   0.431   6.430  0.2637  0.0522 -0.1808
  123POPC   D2A 1783   2.373   0.592   6.166  0.0685  0.0926  0.1915
  123POPC   C3A 1784   2.634   0.926   5.882 -0.1524 -0.1399 -0.0919
  123POPC   C4A 1785   3.072   0.741   5.659  0.0820  0.0043  0.2022
  123POPC   C1B 1786   2.440   0.054   6.125  0.0949  0.1339  0.1401
  123POPC   C2B 1787   2.810  -0.045   5.856  0.0643 -0.2319  0.0164
  123POPC   C3B 1788   3.158   0.247   5.705 -0.0535 -0.3822 -0.0171
  123POPC   C4B 1789   3.330   0.434   5.260 -0.0721 -0.1372 -0.1270
  124POPC   NC3 1790   5.891   0.646   6.841  0.6272 -0.0126 -0.0679
  124POPC   PO4 1791   6.113   0.241   6.765  0.0945  0.0223 -0.2304
  124POPC   GL1 1792   6.344   0.222   6.384  0.0093  0.3482  0.0060
  124POPC   GL2 1793   6.335  -0.106   6.246  0.2933 -0.0538 -0.0329
  124POPC   C1A 1794   6.192   0.309   5.980 -0.0309  0.0530  0.2035
  124POPC   D2A 1795   6.143   0.583   5.594 -0.0718  0.3144 -0.0515
  124POPC   C3A 1796   6.067   0.662   5.155 -0.0192  0.1050 -0.1317
  124POPC   C4A 1797   5.854   1.010   4.899  0.0913  0.1606  0.0235
  124POPC   C1B 1798   6.490  -0.001   5.830 -0.0474  0.1291 -0.0917
  124POPC   C2B 1799   6.820   0.125   5.560  0.1409 -0.0334  0.0292
  124POPC   C3B 1800   6.976   0.162   5.091  0.0414  0.3659  0.0836
  124POPC   C4B 1801   7.267   0.307   4.913 -0.2337 -0.1144 -0.0550
  125POPC   NC3 1802   6.419  10.579   6.804  0.0034  0.0388  0.0448
  125POPC   PO4 1803   6.079  10.239   6.847 -0.0894 -0.0779  0.0889
  125POPC   GL1 1804   5.995  10.211   6.408  0.4301  0.1220 -0.2121
  125POPC   GL2 1805   5.875  10.553   6.483  0.0847  0.1489  0.1170
  125POPC   C1A 1806   5.759  10.173   6.056  0.0266  0.0352 -0.2383
  125POPC   D2A 1807   5.575  10.420   5.732 -0.2300 -0.0140  0.0535
  125POPC   C3A 1808   5.994  10.500   5.581 -0.2308 -0.0144 -0.0961
  125POPC   C4A 1809   6.388  10.652   5.348 -0.1541  0.1405 -0.3591
  125POPC   C1B 1810   5.883  10.612   6.090  0.1526 -0.0691  0.1580
  125POPC   C2B 1811   5.702  10.943   5.743 -0.2248 -0.1653 -0.2059
  125POPC   C3B 1812   5.379  10.784   5.339  0.1007  0.1865 -0.1175
  125POPC   C4B 1813   5.333  10.436   5.137  0.0075  0.1517  0.0003
  126POPC   NC3 1814   3.412  10.672   6.711 -0.0832  0.0480  0.0251
  126POPC   PO4 1815   3.707  10.866   7.022  0.1063 -0.0335 -0.2622
  126POPC   GL1 1816   3.836  10.957   6.660 -0.0714  0.1757  0.0087
  126POPC   GL2 1817   4.069  11.190   6.557 -0.0098  0.2752  0.0607
  126POPC   C1A 1818   3.637  11.160   6.294 -0.1953 -0.0432  0.1201
  126POPC   D2A 1819   3.317  11.316   6.080 -0.1467  0.1117 -0.2804
  126POPC   C3A 1820   3.082  11.569   6.235 -0.1784 -0.3651  0.0399
  126POPC   C4A 1821   2.718  11.557   6.453 -0.1632  0.2939 -0.0540
  126POPC   C1B 1822   4.129  11.100   6.106 -0.0741 -0.0006 -0.1080
  126POPC   C2B 1823   4.266  10.847   5.777  0.3146  0.2026 -0.1258
  126POPC   C3B 1824   4.057  10.471   5.738  0.0321  0.0698  0.1990
  126POPC   C4B 1825   4.051  10.114   5.598 -0.0130  0.0257 -0.0804
  127POPC   NC3 1826   7.162   4.301   7.218 -0.3859 -0.0418  0.2946
  127POPC   PO4 1827   7.433   3.887   7.040  0.1909 -0.0962 -0.1596
  127POPC   GL1 1828   7.672   3.712   6.699  0.2188 -0.0255  0.0010
  127POPC   GL2 1829   7.918   3.477   6.750  0.0385 -0.1467  0.0183
  127POPC   C1A 1830   7.882   3.909   6.494 -0.0799  0.0573 -0.5971
  127POPC   D2A 1831   7.925   4.026   6.012 -0.2176  0.0817 -0.0327
  127POPC   C3A 1832   8.292   4.049   5.731 -0.0020  0.0651  0.2596
  127POPC   C4A 1833   8.691   4.199   5.613 -0.2145  0.0878  0.0906
  127POPC   C1B 1834   8.222   3.343   6.416  0.0803  0.2190 -0.0407
  127POPC   C2B 1835   8.374   3.057   6.172 -0.1067  0.2375 -0.1429
  127POPC   C3B 1836   8.564   3.039   5.760  0.0921 -0.1689 -0.1440
  127POPC   C4B 1837   8.752   3.167   5.260 -0.1902 -0.3424  0.0469
  128POPC   NC3 1838   0.083   8.173   7.813  0.0830 -0.1321  0.0879
  128POPC   PO4 1839   0.390   7.779   7.870 -0.2789  0.4171 -0.1274
  128POPC   GL1 1840   0.167   7.768   7.505 -0.0333 -0.2348  0.2124
  128POPC   GL2 1841  -0.193   7.885   7.511 -0.1433  0.4677 -0.0488
  128POPC   C1A 1842   0.058   7.550   7.076  0.0463  0.0932  0.0209
  128POPC   D2A 1843   0.143   7.802   6.728  0.3082 -0.2112 -0.0277
  128POPC   C3A 1844   0.293   7.625   6.353 -0.1392  0.1110 -0.3923
  128POPC   C4A 1845   0.590   7.279   6.144  0.0685 -0.1337 -0.2309
  128POPC   C1B 1846  -0.163   8.057   7.156 -0.0646  0.0997 -0.1510
  128POPC   C2B 1847  -0.454   8.203   6.898 -0.1582 -0.0777  0.0878
  128POPC   C3B 1848  -0.596   8.318   6.481 -0.2384 -0.2888  0.1209
  128POPC   C4B 1849  -0.779   8.171   6.039 -0.0904 -0.0360  0.0592
  129POPC   NC3 1850   3.289   2.965   7.945  0.2036 -0.2133 -0.1659
  129POPC   PO4 1851   3.359   2.925   7.554 -0.2422  0.0427  0.0338
  129POPC   GL1 1852   3.458   2.933   7.125  0.4075  0.2431 -0.3356
  129POPC   GL2 1853   3.459   2.680   6.771 -0.0069 -0.0960 -0.2444
  129POPC   C1A 1854   3.803   3.214   6.862  0.0753 -0.1279 -0.1528
  129POPC   D2A 1855   3.845   3.397   6.438 -0.0676  0.0671 -0.2262
  129POPC   C3A 1856   3.599   3.525   6.129 -0.0524  0.0064  0.2855
  129POPC   C4A 1857   3.880   3.683   5.881 -0.0287 -0.1226 -0.2371
  129POPC   C1B 1858   3.078   2.716   6.457  0.0853  0.1482 -0.1951
  129POPC   C2B 1859   2.655   2.721   6.170 -0.2081 -0.0765 -0.4669
  129POPC   C3B 1860   2.441   2.515   5.858  0.2623  0.3532  0.1023
  129POPC   C4B 1861   2.656   2.304   5.663 -0.4798 -0.2023 -0.2397
  130POPC   NC3 1862   8.058   2.122   7.060 -0.3480 -0.3641 -0.1153
  130POPC   PO4 1863   7.756   1.944   7.057 -0.1687  0.2856 -0.0226
  130POPC   GL1 1864   7.804   1.998   6.607  0.2694 -0.0796 -0.1428
  130POPC   GL2 1865   7.638   2.270   6.700  0.1452 -0.3150 -0.1704
  130POPC   C1A 1866   7.664   1.940   6.201  0.0655  0.0797 -0.0951
  130POPC   D2A 1867   7.667   2.157   5.779 -0.1128 -0.3391 -0.1575
  130POPC   C3A 1868   7.716   2.543   5.650  0.1621  0.2407  0.0570
  130POPC   C4A 1869   7.814   2.715   5.303  0.0581  0.0186  0.0968
  130POPC   C1B 1870   7.673   2.536   6.322  0.5270 -0.3368 -0.1876
  130POPC   C2B 1871   7.806   2.833   6.008 -0.0489  0.0815  0.0335
  130POPC   C3B 1872   7.543   3.023   5.733 -0.0657 -0.0318  0.2729
  130POPC   C4B 1873   7.460   3.435   5.458  0.0944 -0.1285  0.0642
  131POPC   NC3 1874   3.722   6.303   8.034  0.1792  0.1455  0.0317
  131POPC   PO4 1875   3.532   6.214   7.670 -0.1163 -0.0556  0.0012
  131POPC   GL1 1876   3.604   6.209   7.291  0.0284  0.3075 -0.0458
  131POPC   GL2 1877   3.226   6.077   7.230 -0.1463  0.0352  0.0753
  131POPC   C1A 1878   3.824   6.240   6.859  0.1414 -0.0953  0.1817
  131POPC   D2A 1879   3.957   6.037   6.410 -0.1599 -0.0753 -0.2195
  131POPC   C3A 1880   3.928   6.057   5.968  0.0602  0.0145 -0.2223
  131POPC   C4A 1881   3.887   6.307   5.546  0.1467 -0.0783  0.3269
  131POPC   C1B 1882   3.077   5.919   6.792  0.4975 -0.0807  0.0287
  131POPC   C2B 1883   3.038   6.024   6.277  0.2519  0.2217 -0.1480
  131POPC   C3B 1884   3.144   5.832   5.925 -0.0915 -0.2029 -0.1789
  131POPC   C4B 1885   3.424   5.600   5.714  0.1459  0.0187 -0.0740
  132POPC   NC3 1886   9.182   5.990   7.762 -0.0166 -0.1155  0.1759
  132POPC   PO4 1887   9.385   5.647   7.604  0.1255  0.0499  0.1347
  132POPC   GL1 1888   9.471   5.742   7.218 -0.5329  0.0911  0.1027
  132POPC   GL2 1889   9.347   6.100   7.223  0.3154  0.0402  0.0725
  132POPC   C1A 1890   9.624   5.915   6.843  0.0771 -0.0793 -0.0174
  132POPC   D2A 1891   9.856   5.946   6.374 -0.1048  0.1367 -0.0848
  132POPC   C3A 1892   9.850   6.301   6.237 -0.0966 -0.1295  0.1754
  132POPC   C4A 1893   9.792   6.657   6.188 -0.0689  0.1847 -0.1571
  132POPC   C1B 1894   9.225   6.235   6.798 -0.3283 -0.0618 -0.0159
  132POPC   C2B 1895   9.303   6.231   6.321  0.0753 -0.1003  0.0592
  132POPC   C3B 1896   9.473   6.119   6.025  0.4091  0.2629 -0.1112
  132POPC   C4B 1897   9.643   5.846   5.779 -0.0333 -0.0347 -0.3256
  133POPC   NC3 1898   4.270   9.587   7.021 -0.2119  0.0475 -0.4003
  133POPC   PO4 1899   3.822   9.647   6.787 -0.1362 -0.0720 -0.1795
  133POPC   GL1 1900   4.048   9.612   6.420  0.4360 -0.1690  0.3198
  133POPC   GL2 1901   3.820   9.654   6.106  0.2593 -0.1944 -0.2148
  133POPC   C1A 1902   4.221   9.529   5.953 -0.4661 -0.3621 -0.1183
  133POPC   D2A 1903   4.125   9.176   5.710  0.1035  0.1209  0.1993
  133POPC   C3A 1904   4.220   9.367   5.253  0.0441  0.1442 -0.2571
  133POPC   C4A 1905   4.216   9.781   5.225  0.0921 -0.1026 -0.2731
  133POPC   C1B 1906   3.640   9.949   5.845  0.4840  0.0441  0.1476
  133POPC   C2B 1907   3.611  10.324   5.521 -0.2035 -0.0463 -0.0061
  133POPC   C3B 1908   3.636  10.305   5.148  0.2620  0.0203  0.2228
  133POPC   C4B 1909   3.569  10.316   4.814  0.2570 -0.3031 -0.0097
  134POPC   NC3 1910   7.126   5.601   7.298 -0.1387  0.0699 -0.0838
  134POPC   PO4 1911   6.882   5.275   7.086 -0.1352 -0.3059 -0.2680
  134POPC   GL1 1912   7.228   5.464   6.783 -0.0118 -0.1450 -0.0940
  134POPC   GL2 1913   7.523   5.163   6.750  0.2161  0.1587 -0.0329
  134POPC   C1A 1914   7.075   5.334   6.346 -0.0333 -0.1725 -0.0597
  134POPC   D2A 1915   6.825   5.312   6.053 -0.0385  0.0824  0.2266
  134POPC   C3A 1916   6.977   5.107   5.659  0.0627 -0.1648 -0.0431
  134POPC   C4A 1917   7.115   4.838   5.500 -0.0719  0.2555  0.0321
  134POPC   C1B 1918   7.577   5.371   6.329 -0.1687 -0.3203  0.1972
  134POPC   C2B 1919   7.438   5.403   5.925  0.2583 -0.0278  0.2184
  134POPC   C3B 1920   7.483   5.852   5.676  0.0977  0.0508 -0.1780
  134POPC   C4B 1921   7.358   6.059   5.340 -0.0769  0.1740  0.2818
  135POPC   NC3 1922   4.748   4.249   7.415 -0.0357  0.0954  0.1438
  135POPC   PO4 1923   5.042   4.485   7.115 -0.0787 -0.2014 -0.2210
  135POPC   GL1 1924   5.141   4.558   6.699 -0.1922 -0.3527 -0.2771
  135POPC   GL2 1925   5.115   4.337   6.486  0.3533 -0.1699 -0.0860
  135POPC   C1A 1926   5.205   4.825   6.416 -0.0922 -0.1861 -0.1275
  135POPC   D2A 1927   5.502   5.000   6.128  0.0138  0.0924 -0.0304
  135POPC   C3A 1928   5.278   5.003   5.638  0.5325  0.0289 -0.2480
  135POPC   C4A 1929   5.081   4.925   5.263  0.1597 -0.2714  0.1435
  135POPC   C1B 1930   4.889   4.267   6.041 -0.0844 -0.0311  0.0108
  135POPC   C2B 1931   4.725   4.022   5.729  0.2161 -0.0474  0.2177
  135POPC   C3B 1932   4.562   4.181   5.342 -0.2413 -0.1661  0.3680
  135POPC   C4B 1933   4.411   4.262   4.888  0.2123 -0.1724 -0.0947
  136POPC   NC3 1934   0.463   7.277   7.950 -0.1273  0.3823 -0.0690
  136POPC   PO4 1935   0.823   7.274   8.309  0.0846  0.0022 -0.1114
  136POPC   GL1 1936   1.022   7.021   8.017  0.1272  0.1148  0.1639
  136POPC   GL2 1937   1.216   7.140   7.719  0.5215  0.1689 -0.1840
  136POPC   C1A 1938   0.894   6.744   7.537 -0.2570  0.0972 -0.3270
  136POPC   D2A 1939   0.740   6.536   7.224 -0.1658  0.0826 -0.0786
  136POPC   C3A 1940   0.810   6.442   6.850  0.2396  0.0068 -0.1327
  136POPC   C4A 1941   0.589   6.180   6.456 -0.0570 -0.1780 -0.0884
  136POPC   C1B 1942   1.205   7.434   7.481 -0.2747  0.1086 -0.0093
  136POPC   C2B 1943   1.088   7.477   7.098  0.2505 -0.1003 -0.2611
  136POPC   C3B 1944   0.893   7.405   6.659  0.3099 -0.0898  0.3020
  136POPC   C4B 1945   1.092   7.481   6.229  0.2499  0.1661  0.0404
  137POPC   NC3 1946   3.087   4.973   8.266  0.2075 -0.3102  0.4105
  137POPC   PO4 1947   3.047   5.385   8.129  0.1998 -0.0217 -0.1673
  137POPC   GL1 1948   2.798   5.354   7.858  0.2594 -0.0863 -0.0093
  137POPC   GL2 1949   2.521   5.488   7.781 -0.0847 -0.1806 -0.1811
  137POPC   C1A 1950   2.742   5.149   7.512  0.3320  0.1597 -0.0113
  137POPC   D2A 1951   2.451   4.978   7.272  0.0258  0.2231 -0.4840
  137POPC   C3A 1952   2.143   4.884   7.626  0.1180 -0.0118 -0.0665
  137POPC   C4A 1953   2.042   4.718   8.043  0.2521  0.2691  0.1051
  137POPC   C1B 1954   2.367   5.742   7.366  0.1730  0.1473 -0.2041
  137POPC   C2B 1955   2.269   5.580   7.005 -0.2491  0.3153 -0.1311
  137POPC   C3B 1956   2.263   5.688   6.638 -0.2478 -0.0677 -0.2242
  137POPC   C4B 1957   2.240   5.686   6.218  0.0419 -0.1167  0.0253
  138POPC   NC3 1958   5.796   3.216   6.856 -0.1490  0.0588 -0.1185
  138POPC   PO4 1959   6.075   2.853   6.970 -0.1922 -0.0117  0.0873
  138POPC   GL1 1960   6.055   2.820   6.495 -0.0071  0.0112  0.0691
  138POPC   GL2 1961   6.379   2.873   6.438 -0.3562  0.0900  0.3704
  138POPC   C1A 1962   5.851   3.105   6.161  0.0415 -0.1184 -0.1499
  138POPC   D2A 1963   5.708   2.961   5.784  0.0716  0.3704 -0.1610
  138POPC   C3A 1964   5.897   3.171   5.426  0.0761 -0.1066  0.0921
  138POPC   C4A 1965   5.894   3.613   5.312 -0.2870 -0.1080  0.1748
  138POPC   C1B 1966   6.221   2.727   5.967 -0.4110  0.1087 -0.1069
  138POPC   C2B 1967   6.210   2.746   5.524 -0.1926  0.0668 -0.1589
  138POPC   C3B 1968   6.230   2.827   5.058 -0.2134  0.0028 -0.0292
  138POPC   C4B 1969   6.470   2.838   4.738  0.0947  0.0925 -0.1161
  139POPC   NC3 1970   7.711   6.321   7.669  0.0314  0.4828 -0.0092
  139POPC   PO4 1971   7.264   6.377   7.423  0.0150  0.0869  0.0589
  139POPC   GL1 1972   7.127   6.248   7.001  0.0327  0.0482  0.2544
  139POPC   GL2 1973   7.318   5.920   6.905 -0.1032 -0.3056  0.0057
  139POPC   C1A 1974   6.847   6.242   6.602  0.0526 -0.0989 -0.2137
  139POPC   D2A 1975   6.594   6.154   6.241  0.4175  0.2311  0.1130
  139POPC   C3A 1976   6.633   5.854   5.877  0.2796 -0.1013 -0.1383
  139POPC   C4A 1977   6.456   5.825   5.348 -0.0009 -0.3584 -0.4564
  139POPC   C1B 1978   7.363   5.905   6.388  0.1787  0.1064 -0.5827
  139POPC   C2B 1979   7.707   5.956   6.144 -0.3373  0.0848 -0.3015
  139POPC   C3B 1980   7.988   5.728   5.920  0.3427 -0.2649 -0.3364
  139POPC   C4B 1981   8.313   5.522   5.649  0.3881  0.0371 -0.1094
  140POPC   NC3 1982   7.986   0.646   7.080  0.0172  0.2059  0.0077
  140POPC   PO4 1983   7.974   0.167   7.026  0.0859  0.2852 -0.2560
  140POPC   GL1 1984   7.805   0.013   6.560  0.0918 -0.4181  0.0431
  140POPC   GL2 1985   7.575   0.164   6.485 -0.0880  0.1400  0.3099
  140POPC   C1A 1986   7.963  -0.120   6.201  0.1611 -0.1189  0.1525
  140POPC   D2A 1987   7.749  -0.281   5.858 -0.3194  0.1614  0.1868
  140POPC   C3A 1988   7.760  -0.606   5.459  0.1669  0.0722 -0.3139
  140POPC   C4A 1989   7.697  -0.897   5.156 -0.3643 -0.0592 -0.0727
  140POPC   C1B 1990   7.819   0.376   6.145  0.1976  0.1405  0.0582
  140POPC   C2B 1991   8.020   0.312   5.853 -0.0333  0.0797  0.1350
  140POPC   C3B 1992   8.242   0.304   5.425 -0.2349 -0.2026 -0.1599
  140POPC   C4B 1993   8.624   0.544   5.339 -0.0862  0.1084  0.0945
  141POPC   NC3 1994   8.642   2.716   7.248 -0.0573 -0.1131  0.0959
  141POPC   PO4 1995   9.063   2.497   7.231  0.1701 -0.0853 -0.4411
  141POPC   GL1 1996   8.944   2.549   6.842  0.0407  0.2004 -0.4204
  141POPC   GL2 1997   9.174   2.794   6.808 -0.0099  0.2653  0.0395
  141POPC   C1A 1998   9.183   2.335   6.473  0.0377  0.0436 -0.1720
  141POPC   D2A 1999   9.235   2.606   5.994 -0.0581  0.1863  0.1198
  141POPC   C3A 2000   9.124   2.488   5.655  0.1937  0.4577  0.2110
  141POPC   C4A 2001   8.904   2.538   5.375  0.2499  0.1485 -0.3051
  141POPC   C1B 2002   9.360   2.877   6.423 -0.0520  0.0852 -0.1772
  141POPC   C2B 2003   9.687   3.009   6.176 -0.0790  0.0437  0.1708
  141POPC   C3B 2004   9.831   3.385   6.119  0.2617  0.0211  0.0901
  141POPC   C4B 2005   9.987   3.958   6.118 -0.2317 -0.1023  0.1418
  142POPC   NC3 2006   7.856  10.233   7.000 -0.2154 -0.2095 -0.1381
  142POPC   PO4 2007   8.239  10.401   6.881 -0.0562 -0.1372  0.1155
  142POPC   GL1 2008   8.217  10.289   6.470 -0.0181 -0.0743  0.2802
  142POPC   GL2 2009   7.899  10.147   6.401  0.0564 -0.1955 -0.1066
  142POPC   C1A 2010   8.436  10.520   6.140  0.0283 -0.0644  0.0314
  142POPC   D2A 2011   8.549  10.873   5.800 -0.0823  0.1214 -0.0203
  142POPC   C3A 2012   8.793  10.734   5.470 -0.0352 -0.0917  0.0341
  142POPC   C4A 2013   8.906  10.291   5.358  0.2217 -0.0453  0.2497
  142POPC   C1B 2014   7.483  10.382   6.337  0.4449 -0.0173 -0.1430
  142POPC   C2B 2015   7.171  10.358   6.058  0.0326 -0.1740 -0.0733
  142POPC   C3B 2016   6.773  10.404   5.934 -0.2073  0.2806  0.1031
  142POPC   C4B 2017   6.661  10.286   5.527  0.2082 -0.1411 -0.0736
  143POPC   NC3 2018   9.703   1.785   7.434  0.2551 -0.1102  0.2910
  143POPC   PO4 2019  10.163   1.861   7.352  0.0747  0.1896  0.3204
  143POPC   GL1 2020  10.163   1.788   6.879  0.0369  0.1424  0.3319
  143POPC   GL2 2021   9.948   2.098   6.556 -0.3439 -0.0255  0.0721
  143POPC   C1A 2022  10.288   1.410   6.662  0.3039  0.0004  0.0493
  143POPC   D2A 2023   9.984   1.110   6.361  0.0057 -0.0774 -0.1905
  143POPC   C3A 2024   9.802   0.984   6.045  0.2710 -0.0155  0.0552
  143POPC   C4A 2025   9.919   0.840   5.616 -0.0652 -0.3309 -0.2874
  143POPC   C1B 2026   9.947   2.054   6.117  0.0729 -0.2388  0.0334
  143POPC   C2B 2027   9.947   1.862   5.700 -0.0023 -0.0695 -0.0348
  143POPC   C3B 2028   9.662   1.899   5.452  0.1358  0.1810 -0.0060
  143POPC   C4B 2029   9.209   1.919   5.472 -0.2652  0.0527  0.1184
  144POPC   NC3 2030   0.224   8.653   7.508 -0.1957 -0.1921 -0.1536
  144POPC   PO4 2031   0.001   9.019   7.542 -0.0195  0.1749  0.2595
  144POPC   GL1 2032   0.088   9.037   7.123  0.0259 -0.2508 -0.1953
  144POPC   GL2 2033   0.287   8.752   7.052 -0.2911 -0.1380  0.0490
  144POPC   C1A 2034   0.061   9.190   6.654 -0.2100 -0.2154 -0.2705
  144POPC   D2A 2035  -0.148   9.452   6.390 -0.3376  0.3744  0.1169
  144POPC   C3A 2036  -0.185   9.457   5.974 -0.1113  0.1165 -0.1755
  144POPC   C4A 2037  -0.171   9.213   5.637  0.0183  0.1160 -0.0601
  144POPC   C1B 2038   0.310   8.752   6.594  0.0821 -0.2611 -0.2852
  144POPC   C2B 2039   0.683   8.663   6.399 -0.1200 -0.1279  0.0583
  144POPC   C3B 2040   0.968   8.511   6.243  0.0089  0.2508  0.0352
  144POPC   C4B 2041   1.376   8.486   6.094 -0.1185  0.1666  0.0390
  145POPC   NC3 2042   7.414   2.954   7.222 -0.1566  0.1362 -0.3259
  145POPC   PO4 2043   7.579   3.391   7.146  0.1991  0.1697  0.2710
  145POPC   GL1 2044   7.467   3.182   6.752 -0.0205  0.4317  0.0118
  145POPC   GL2 2045   7.769   3.036   6.479  0.0428  0.2541 -0.0636
  145POPC   C1A 2046   7.593   3.498   6.282  0.1320 -0.0588  0.0526
  145POPC   D2A 2047   7.788   3.535   5.859  0.2340 -0.0786  0.2186
  145POPC   C3A 2048   8.014   3.121   5.667 -0.2048 -0.1979 -0.0658
  145POPC   C4A 2049   8.239   2.997   5.264 -0.0172 -0.0568 -0.1747
  145POPC   C1B 2050   7.381   3.012   6.265  0.0828 -0.1172 -0.1367
  145POPC   C2B 2051   7.157   2.948   6.008 -0.1061  0.1009 -0.2028
  145POPC   C3B 2052   7.023   3.057   5.558  0.1106  0.0256 -0.1989
  145POPC   C4B 2053   6.916   3.448   5.356  0.1185  0.1785  0.5470
  146POPC   NC3 2054   2.610   4.755   9.107 -0.0829  0.0572  0.4065
  146POPC   PO4 2055   2.663   4.836   8.573 -0.1495  0.1360 -0.1790
  146POPC   GL1 2056   2.563   4.931   8.147 -0.0204 -0.2166  0.2177
  146POPC   GL2 2057   2.573   4.536   7.924  0.2212 -0.3010 -0.3497
  146POPC   C1A 2058   2.237   5.170   8.065  0.0101 -0.2057  0.4522
  146POPC   D2A 2059   1.757   5.151   7.982 -0.0829  0.1708  0.0029
  146POPC   C3A 2060   1.545   4.784   7.685 -0.2142  0.0985 -0.4028
  146POPC   C4A 2061   1.386   4.573   7.458  0.0919  0.1566 -0.0292
  146POPC   C1B 2062   2.358   4.478   7.489 -0.1570 -0.1008 -0.1000
  146POPC   C2B 2063   2.051   4.618   7.155 -0.0680  0.2276 -0.2915
  146POPC   C3B 2064   1.704   4.851   7.167 -0.0425 -0.2291  0.0733
  146POPC   C4B 2065   1.498   4.831   6.874  0.1071 -0.0354 -0.1824
  147POPC   NC3 2066   4.701   8.197   6.915 -0.2783  0.1066  0.1149
  147POPC   PO4 2067   4.280   8.241   7.090 -0.1582 -0.0854  0.1845
  147POPC   GL1 2068   4.157   8.282   6.686 -0.1654  0.1506 -0.2279
  147POPC   GL2 2069   4.297   8.706   6.506 -0.2776 -0.3145 -0.0478
  147POPC   C1A 2070   4.322   8.249   6.335  0.0495  0.0305  0.1997
  147POPC   D2A 2071   4.327   7.883   5.941 -0.0432  0.1868 -0.0949
  147POPC   C3A 2072   4.710   7.593   6.014  0.3301  0.0520  0.1993
  147POPC   C4A 2073   5.122   7.530   5.947 -0.1615  0.1573  0.2166
  147POPC   C1B 2074   4.193   8.681   6.072  0.0668  0.3136 -0.0741
  147POPC   C2B 2075   3.954   8.231   5.838 -0.1726  0.0564 -0.3182
  147POPC   C3B 2076   3.540   7.978   5.703 -0.1363 -0.1765  0.3624
  147POPC   C4B 2077   3.354   7.677   5.435 -0.1120 -0.2059 -0.3113
  148POPC   NC3 2078   5.404   7.475   7.256  0.1175 -0.0965  0.1514
  148POPC   PO4 2079   5.594   7.793   7.023  0.0194  0.3228 -0.1823
  148POPC   GL1 2080   5.550   7.417   6.720  0.2761  0.3553 -0.0660
  148POPC   GL2 2081   5.752   7.075   6.611 -0.0245 -0.2291 -0.2738
  148POPC   C1A 2082   5.145   7.381   6.409  0.0636  0.0340  0.2515
  148POPC   D2A 2083   4.923   7.071   6.121 -0.2298  0.0699  0.2785
  148POPC   C3A 2084   4.613   7.181   5.730  0.0920 -0.0468  0.5571
  148POPC   C4A 2085   4.495   7.397   5.345  0.3758  0.0778 -0.0748
  148POPC   C1B 2086   5.439   7.036   6.235 -0.1852 -0.3301  0.1794
  148POPC   C2B 2087   5.215   6.656   5.947 -0.1274  0.0573 -0.0720
  148POPC   C3B 2088   5.178   6.379   5.527  0.1497  0.1186 -0.0380
  148POPC   C4B 2089   5.174   6.358   5.154 -0.0288  0.3164  0.2552
  149POPC   NC3 2090   8.653   7.894   7.375 -0.0994  0.0421  0.1350
  149POPC   PO4 2091   9.105   7.797   7.267  0.1836  0.1944  0.1628
  149POPC   GL1 2092   9.132   7.468   6.924 -0.0396  0.0007 -0.2063
  149POPC   GL2 2093   9.039   7.106   7.039 -0.3007  0.2172  0.2674
  149POPC   C1A 2094   9.076   7.238   6.554  0.1363  0.2015 -0.0351
  149POPC   D2A 2095   8.771   7.415   6.304  0.0059  0.3913 -0.2265
  149POPC   C3A 2096   8.421   7.292   6.164 -0.0633  0.2481 -0.0835
  149POPC   C4A 2097   8.298   7.366   5.641  0.0953  0.1391  0.0027
  149POPC   C1B 2098   9.478   7.058   6.981  0.1796 -0.4377  0.0925
  149POPC   C2B 2099   9.714   7.064   6.623 -0.3225  0.1013 -0.1640
  149POPC   C3B 2100   9.600   7.266   6.291 -0.1693 -0.5021 -0.1077
  149POPC   C4B 2101   9.711   7.327   5.962 -0.0360  0.2873  0.2977
  150POPC   NC3 2102   3.751   4.288   7.484 -0.1445 -0.0017 -0.0785
  150POPC   PO4 2103   3.493   4.483   7.635  0.1619 -0.0243  0.1297
  150POPC   GL1 2104   3.462   4.708   7.317 -0.0802 -0.3262 -0.0907
  150POPC   GL2 2105   3.613   4.931   7.254 -0.0721  0.1964  0.0265
  150POPC   C1A 2106   3.198   4.577   7.028  0.1030 -0.2766  0.3828
  150POPC   D2A 2107   3.255   4.520   6.564  0.2480  0.1619 -0.1134
  150POPC   C3A 2108   3.397   4.132   6.416  0.2063  0.1770  0.1241
  150POPC   C4A 2109   3.367   3.999   6.010 -0.0826 -0.0626 -0.0522
  150POPC   C1B 2110   3.505   5.173   6.910  0.0323 -0.1415  0.2216
  150POPC   C2B 2111   3.471   4.998   6.444 -0.1035  0.2867 -0.0292
  150POPC   C3B 2112   3.447   4.689   6.078 -0.2154 -0.3476 -0.3621
  150POPC   C4B 2113   3.205   4.456   5.732  0.0664  0.1112  0.1282
  151POPC   NC3 2114   3.557   5.386   7.963 -0.0843  0.0509 -0.0582
  151POPC   PO4 2115   3.291   5.820   7.938 -0.2078  0.2982 -0.1532
  151POPC   GL1 2116   3.296   5.692   7.555 -0.0062  0.1538  0.0350
  151POPC   GL2 2117   2.985   5.665   7.547 -0.0279  0.1027  0.1987
  151POPC   C1A 2118   3.299   5.558   7.107  0.0982 -0.2497  0.0842
  151POPC   D2A 2119   3.057   5.279   6.791 -0.4029 -0.3134  0.3191
  151POPC   C3A 2120   2.894   4.962   7.071  0.1327 -0.0199 -0.0148
  151POPC   C4A 2121   2.677   4.462   7.103 -0.1119  0.0745 -0.1596
  151POPC   C1B 2122   2.771   5.474   7.170 -0.0159  0.1653  0.2081
  151POPC   C2B 2123   2.532   5.261   6.745 -0.1207  0.3154 -0.0115
  151POPC   C3B 2124   2.691   4.936   6.594  0.3051  0.3564 -0.1346
  151POPC   C4B 2125   3.013   4.874   6.329 -0.1340  0.0569  0.1686
  152POPC   NC3 2126   0.363   9.389   7.426 -0.0094 -0.2519  0.1680
  152POPC   PO4 2127   0.733   9.456   7.535 -0.2078 -0.3656  0.0236
  152POPC   GL1 2128   0.798   9.779   7.248  0.0363  0.2856 -0.1455
  152POPC   GL2 2129   0.511   9.847   7.129 -0.0890  0.3298  0.4263
  152POPC   C1A 2130   0.813   9.930   6.755 -0.2336 -0.2660 -0.2008
  152POPC   D2A 2131   0.729  10.175   6.375  0.1571  0.1399  0.0999
  152POPC   C3A 2132   0.456  10.162   6.017  0.2714 -0.1144 -0.1133
  152POPC   C4A 2133   0.185  10.149   5.526 -0.2197 -0.1057  0.0825
  152POPC   C1B 2134   0.227   9.701   6.769 -0.2543 -0.0054  0.1780
  152POPC   C2B 2135   0.434   9.439   6.457  0.1200 -0.1201  0.1565
  152POPC   C3B 2136   0.692   9.639   6.200  0.0436  0.2356 -0.1456
  152POPC   C4B 2137   0.959   9.971   5.850 -0.2993  0.1896 -0.1885
  153POPC   NC3 2138   7.205   9.708   7.269  0.1510 -0.0477  0.0893
  153POPC   PO4 2139   6.905   9.438   7.247 -0.1091 -0.2906  0.2012
  153POPC   GL1 2140   6.713   9.309   6.868 -0.2597 -0.2265  0.2409
  153POPC   GL2 2141   6.907   9.061   6.701 -0.0013  0.0816  0.0740
  153POPC   C1A 2142   6.873   9.439   6.419 -0.2008 -0.3709 -0.3046
  153POPC   D2A 2143   6.727   9.511   6.016  0.0914  0.2760 -0.2439
  153POPC   C3A 2144   6.550   9.944   6.012  0.0712  0.1548 -0.2707
  153POPC   C4A 2145   6.291  10.214   5.880  0.2302  0.1853  0.1793
  153POPC   C1B 2146   6.978   8.895   6.328  0.0147 -0.0637 -0.0318
  153POPC   C2B 2147   7.258   8.789   6.018  0.0124 -0.3145  0.1639
  153POPC   C3B 2148   7.704   8.654   5.865 -0.0165  0.1167 -0.1922
  153POPC   C4B 2149   7.992   8.236   5.803  0.1632 -0.0615 -0.0460
  154POPC   NC3 2150   1.015   9.832   7.726 -0.3522 -0.0479  0.2357
  154POPC   PO4 2151   0.815  10.254   7.558 -0.0647  0.1118  0.2742
  154POPC   GL1 2152   0.687  10.307   7.157  0.2344 -0.1196  0.0606
  154POPC   GL2 2153   0.837  10.451   6.933  0.0059 -0.1099 -0.0458
  154POPC   C1A 2154   0.387  10.281   6.773  0.0844  0.1833 -0.2436
  154POPC   D2A 2155   0.213  10.682   6.455  0.2583  0.0480 -0.2809
  154POPC   C3A 2156  -0.231  10.796   6.501  0.0791 -0.1232  0.0978
  154POPC   C4A 2157  -0.408  10.801   6.145  0.1018 -0.2119  0.0655
  154POPC   C1B 2158   1.164  10.446   6.607 -0.0413  0.1616  0.0710
  154POPC   C2B 2159   1.516  10.529   6.313 -0.3702  0.0839  0.2240
  154POPC   C3B 2160   1.777  10.695   5.791  0.4083  0.0376 -0.0428
  154POPC   C4B 2161   2.047  10.936   5.818 -0.1671  0.3457  0.0968
  155POPC   NC3 2162   7.167  10.547   7.383  0.2074  0.6402  0.0760
  155POPC   PO4 2163   7.363  10.192   7.021  0.1261  0.2017 -0.1551
  155POPC   GL1 2164   7.233  10.080   6.637 -0.1240 -0.0079 -0.2580
  155POPC   GL2 2165   7.547   9.875   6.666 -0.1326  0.3547 -0.2703
  155POPC   C1A 2166   7.002   9.891   6.318  0.1646 -0.2313  0.3231
  155POPC   D2A 2167   7.081   9.851   5.884  0.1046 -0.1901 -0.0345
  155POPC   C3A 2168   6.778   9.754   5.579 -0.1080  0.0421 -0.1420
  155POPC   C4A 2169   6.677   9.429   5.405  0.2050  0.2332  0.2551
  155POPC   C1B 2170   7.400   9.511   6.406  0.1899 -0.1034  0.1370
  155POPC   C2B 2171   7.243   9.399   6.056 -0.0065  0.0513  0.1913
  155POPC   C3B 2172   7.221   9.454   5.611  0.0044  0.0566  0.0231
  155POPC   C4B 2173   7.270   9.865   5.392  0.6264 -0.2092 -0.1423
  156POPC   NC3 2174   6.059   7.039   7.090  0.0760 -0.0635 -0.3965
  156POPC   PO4 2175   5.592   7.034   7.099  0.2281 -0.0014 -0.0007
  156POPC   GL1 2176   5.121   7.077   6.825 -0.0125  0.0071  0.1769
  156POPC   GL2 2177   4.892   7.225   6.929 -0.0176  0.0500 -0.1121
  156POPC   C1A 2178   4.868   6.890   6.580 -0.1909  0.0061  0.2305
  156POPC   D2A 2179   4.598   6.634   6.312 -0.0697 -0.3061 -0.1979
  156POPC   C3A 2180   4.707   6.644   5.881  0.2510 -0.0057  0.0264
  156POPC   C4A 2181   4.303   6.551   5.469 -0.1409  0.0786 -0.2363
  156POPC   C1B 2182   4.695   7.421   6.527  0.0705  0.1825 -0.1358
  156POPC   C2B 2183   4.428   7.168   6.462 -0.0815 -0.1272  0.0832
  156POPC   C3B 2184   4.209   6.900   6.298 -0.4146 -0.1426 -0.3216
  156POPC   C4B 2185   4.203   6.533   6.006  0.0334 -0.2696  0.0864
  157POPC   NC3 2186   2.342  10.107   7.197 -0.2741  0.1260 -0.1560
  157POPC   PO4 2187   1.866   9.965   7.130  0.1909 -0.0481  0.1162
  157POPC   GL1 2188   1.676   9.967   6.773 -0.0721 -0.2463  0.6020
  157POPC   GL2 2189   1.437  10.067   6.775  0.0439  0.0908 -0.0591
  157POPC   C1A 2190   1.810  10.095   6.381  0.3206  0.2275  0.3146
  157POPC   D2A 2191   2.049  10.289   6.056 -0.1779  0.0060  0.0508
  157POPC   C3A 2192   1.800  10.189   5.669 -0.0433 -0.2466  0.0492
  157POPC   C4A 2193   1.577   9.968   5.325  0.3568  0.0111  0.0797
  157POPC   C1B 2194   1.302  10.066   6.309 -0.0561  0.1732 -0.1117
  157POPC   C2B 2195   1.529   9.909   5.990 -0.2508  0.3344 -0.3851
  157POPC   C3B 2196   1.459   9.617   5.670 -0.1802  0.1384  0.0181
  157POPC   C4B 2197   1.542   9.495   5.239 -0.1357  0.2626  0.0948
  158POPC   NC3 2198   8.675   3.667   7.251  0.1992 -0.0148 -0.0978
  158POPC   PO4 2199   8.444   3.221   7.477 -0.0864 -0.0565  0.0386
  158POPC   GL1 2200   8.620   3.237   7.064 -0.0045 -0.1568  0.0115
  158POPC   GL2 2201   8.340   3.071   6.905 -0.2286 -0.0599  0.1920
  158POPC   C1A 2202   8.616   3.396   6.655 -0.0849  0.0874 -0.5423
  158POPC   D2A 2203   8.749   3.343   6.312  0.0254  0.4218  0.2025
  158POPC   C3A 2204   8.962   3.001   6.103 -0.2165 -0.1955 -0.0628
  158POPC   C4A 2205   9.060   2.982   5.592  0.3779 -0.4754  0.0498
  158POPC   C1B 2206   8.621   2.867   6.603 -0.0993  0.0668 -0.1308
  158POPC   C2B 2207   8.763   2.593   6.312 -0.2407  0.1122  0.0404
  158POPC   C3B 2208   8.683   2.522   5.839 -0.1395 -0.2572  0.3085
  158POPC   C4B 2209   8.428   2.573   5.299 -0.1246 -0.1523 -0.0270
  159POPC   NC3 2210   6.216   3.836   7.254  0.1018 -0.1859  0.1087
  159POPC   PO4 2211   6.355   4.208   7.106 -0.0069 -0.1158  0.1111
  159POPC   GL1 2212   6.191   4.555   6.827 -0.1368 -0.1739 -0.3486
  159POPC   GL2 2213   6.395   4.383   6.598 -0.4172  0.1367  0.2758
  159POPC   C1A 2214   5.965   4.825   6.473  0.0806 -0.1045 -0.1969
  159POPC   D2A 2215   5.965   4.964   6.014 -0.0193  0.0550 -0.2034
  159POPC   C3A 2216   6.325   5.222   6.094  0.1217 -0.1597 -0.2471
  159POPC   C4A 2217   6.380   5.540   6.295 -0.2236  0.1469  0.1938
  159POPC   C1B 2218   6.520   4.044   6.356 -0.1134  0.0029  0.1457
  159POPC   C2B 2219   6.749   3.807   6.148  0.0669  0.1630  0.2985
  159POPC   C3B 2220   6.666   3.536   5.819  0.2423 -0.0530  0.2178
  159POPC   C4B 2221   6.449   3.734   5.433 -0.0429 -0.1232 -0.0821
  160POPC   NC3 2222   6.111   1.448   7.136 -0.1930 -0.1149 -0.0699
  160POPC   PO4 2223   6.578   1.480   7.120 -0.1005  0.1295 -0.0798
  160POPC   GL1 2224   6.805   1.301   6.794 -0.0567  0.1945 -0.0956
  160POPC   GL2 2225   6.920   1.617   6.666 -0.2834  0.0120  0.2809
  160POPC   C1A 2226   6.917   1.207   6.387 -0.0188  0.1363 -0.2326
  160POPC   D2A 2227   6.817   1.159   5.919 -0.2794  0.0052 -0.2366
  160POPC   C3A 2228   6.963   1.434   5.631 -0.1276 -0.1419  0.0406
  160POPC   C4A 2229   6.917   1.681   5.280  0.1820 -0.0810  0.0572
  160POPC   C1B 2230   6.898   1.643   6.206  0.0982  0.0090 -0.2708
  160POPC   C2B 2231   7.055   1.920   5.893 -0.1148  0.0386 -0.0109
  160POPC   C3B 2232   7.244   2.034   5.562  0.0081  0.0733  0.0134
  160POPC   C4B 2233   7.506   2.221   5.278  0.1731 -0.2538 -0.0522
  161POPC   NC3 2234   9.811   6.448   7.859 -0.1884  0.0486 -0.0949
  161POPC   PO4 2235   9.592   6.089   8.001 -0.0072  0.5224 -0.1352
  161POPC   GL1 2236   9.785   5.970   7.609  0.1011  0.1201  0.0027
  161POPC   GL2 2237   9.771   6.219   7.440 -0.1175  0.0612  0.1720
  161POPC   C1A 2238   9.959   5.692   7.234 -0.0664  0.0218 -0.1236
  161POPC   D2A 2239  10.151   5.684   6.875 -0.1156 -0.0296  0.0603
  161POPC   C3A 2240  10.099   5.474   6.458  0.1180  0.3128  0.0981
  161POPC   C4A 2241  10.006   5.547   6.000 -0.0753 -0.0495 -0.0528
  161POPC   C1B 2242  10.065   6.484   7.140 -0.2144 -0.0410 -0.0319
  161POPC   C2B 2243  10.135   6.894   6.874  0.2468  0.0889  0.2921
  161POPC   C3B 2244  10.218   6.952   6.410  0.3810  0.2645 -0.0753
  161POPC   C4B 2245  10.455   7.141   6.018 -0.1083 -0.0179 -0.0343
  162POPC   NC3 2246   8.536  10.721   7.128  0.0402 -0.0965  0.2466
  162POPC   PO4 2247   8.827  11.063   7.337 -0.0099  0.0772  0.2011
  162POPC   GL1 2248   8.903  11.161   6.927  0.0422  0.2982 -0.4486
  162POPC   GL2 2249   9.124  11.350   7.006  0.1316 -0.1890  0.3472
  162POPC   C1A 2250   8.784  11.089   6.546 -0.0464  0.1038 -0.2129
  162POPC   D2A 2251   8.941  11.010   6.118  0.1133 -0.0926 -0.1858
  162POPC   C3A 2252   9.312  10.983   6.055  0.1428 -0.1164 -0.0917
  162POPC   C4A 2253   9.600  10.899   5.695  0.2670  0.0924 -0.0059
  162POPC   C1B 2254   9.279  11.303   6.623 -0.2329 -0.1267  0.1563
  162POPC   C2B 2255   9.676  11.403   6.374  0.1405 -0.0255  0.2463
  162POPC   C3B 2256   9.824  11.147   6.013 -0.1305 -0.2000  0.1105
  162POPC   C4B 2257  10.098  10.994   5.717  0.0573  0.3403 -0.1274
  163POPC   NC3 2258   2.428   9.323   7.310  0.2791 -0.0387  0.2539
  163POPC   PO4 2259   2.296   9.654   7.421  0.0426  0.0835 -0.1188
  163POPC   GL1 2260   2.077   9.521   7.017 -0.0395  0.1167 -0.3665
  163POPC   GL2 2261   1.756   9.416   7.028 -0.0188  0.0227  0.3497
  163POPC   C1A 2262   2.158   9.448   6.618  0.2296 -0.0776  0.0044
  163POPC   D2A 2263   2.220   9.795   6.221 -0.2257  0.2057  0.2206
  163POPC   C3A 2264   2.623   9.679   5.957 -0.2900 -0.1612 -0.3818
  163POPC   C4A 2265   2.710   9.299   5.902 -0.2045 -0.5067  0.1890
  163POPC   C1B 2266   1.683   9.508   6.499  0.1315 -0.4512 -0.1790
  163POPC   C2B 2267   1.857   9.390   6.135  0.1763  0.0131  0.1837
  163POPC   C3B 2268   1.973   9.625   5.790 -0.0595  0.0950  0.0552
  163POPC   C4B 2269   2.075   9.602   5.395  0.1537 -0.1127  0.0825
  164POPC   NC3 2270   5.495   8.317   7.153  0.2401  0.0629 -0.1970
  164POPC   PO4 2271   5.102   8.420   7.104 -0.0791  0.1369  0.1545
  164POPC   GL1 2272   5.206   8.213   6.726 -0.1510  0.0176  0.0599
  164POPC   GL2 2273   5.224   8.467   6.549 -0.2960  0.1444  0.5093
  164POPC   C1A 2274   5.212   8.023   6.378 -0.0859  0.2714 -0.2791
  164POPC   D2A 2275   5.249   8.009   5.973  0.1172  0.3317  0.0486
  164POPC   C3A 2276   5.000   8.138   5.696 -0.0207 -0.0010  0.1112
  164POPC   C4A 2277   4.724   7.840   5.524 -0.1563 -0.1390  0.1182
  164POPC   C1B 2278   5.156   8.504   6.078 -0.0922  0.2971  0.1247
  164POPC   C2B 2279   5.241   8.666   5.744 -0.2572  0.2240  0.3290
  164POPC   C3B 2280   5.279   8.850   5.325  0.1157  0.1509  0.1237
  164POPC   C4B 2281   5.128   9.233   5.447  0.2804  0.0666  0.0550
  165POPC   NC3 2282   8.878   0.874   7.404  0.0230  0.1424  0.3551
  165POPC   PO4 2283   9.110   1.266   7.404 -0.1846  0.0786 -0.0516
  165POPC   GL1 2284   9.104   1.116   6.982  0.1650 -0.2598  0.1013
  165POPC   GL2 2285   8.835   0.934   6.735 -0.0125  0.2851  0.3658
  165POPC   C1A 2286   9.400   1.097   6.537 -0.1401  0.0497 -0.1857
  165POPC   D2A 2287   9.278   1.204   6.145 -0.0846  0.2079 -0.0590
  165POPC   C3A 2288   8.950   1.096   5.884 -0.1315  0.1247  0.0230
  165POPC   C4A 2289   9.028   0.857   5.440 -0.3645 -0.1318  0.2088
  165POPC   C1B 2290   8.931   0.857   6.324  0.0614 -0.1043 -0.1462
  165POPC   C2B 2291   9.222   0.709   6.066 -0.1198  0.0719 -0.3133
  165POPC   C3B 2292   9.453   0.678   5.669 -0.1337 -0.1557  0.0996
  165POPC   C4B 2293   9.508   0.934   5.266  0.1514 -0.0584 -0.0413
  166POPC   NC3 2294   4.506   1.160   6.975  0.0423  0.0983  0.1254
  166POPC   PO4 2295   4.762   1.469   6.745  0.1875  0.1598 -0.1050
  166POPC   GL1 2296   4.534   1.667   6.569 -0.3494  0.1607 -0.0449
  166POPC   GL2 2297   4.200   1.622   6.758 -0.1182 -0.3578 -0.0767
  166POPC   C1A 2298   4.279   1.874   6.209  0.1098  0.0787  0.1715
  166POPC   D2A 2299   4.117   1.839   5.727  0.1527  0.2055  0.0330
  166POPC   C3A 2300   4.201   2.209   5.457  0.0206 -0.0748  0.0599
  166POPC   C4A 2301   4.361   2.329   5.137  0.0031  0.0766 -0.3823
  166POPC   C1B 2302   4.008   1.498   6.477 -0.2025  0.2036 -0.0532
  166POPC   C2B 2303   3.891   1.527   6.085 -0.1642  0.0092  0.1511
  166POPC   C3B 2304   3.602   1.596   5.800 -0.3859  0.2015 -0.0197
  166POPC   C4B 2305   3.805   1.855   5.322  0.0554  0.0627 -0.1352
  167POPC   NC3 2306   8.256   1.513   7.585  0.1010  0.1180  0.4857
  167POPC   PO4 2307   8.221   1.647   7.200  0.0252 -0.1982  0.0967
  167POPC   GL1 2308   8.354   1.830   6.745  0.0950 -0.0298 -0.1599
  167POPC   GL2 2309   8.661   1.671   6.738  0.2019 -0.0264  0.2922
  167POPC   C1A 2310   8.200   1.755   6.336  0.1674  0.0417  0.1311
  167POPC   D2A 2311   8.081   1.918   5.942 -0.0083 -0.0914  0.0955
  167POPC   C3A 2312   7.670   1.688   5.799  0.1166 -0.0071 -0.0115
  167POPC   C4A 2313   7.400   1.307   5.957  0.2457 -0.1341  0.0467
  167POPC   C1B 2314   8.960   1.433   6.617 -0.0920  0.1827  0.2168
  167POPC   C2B 2315   9.370   1.608   6.342  0.3509 -0.1337  0.0812
  167POPC   C3B 2316   9.518   1.852   6.002 -0.0652 -0.2880  0.4254
  167POPC   C4B 2317   9.536   2.252   5.884 -0.0476 -0.0824  0.2496
  168POPC   NC3 2318   3.384   9.404   6.883 -0.0293  0.1396 -0.3746
  168POPC   PO4 2319   3.181   9.769   6.880  0.2259 -0.0413 -0.4145
  168POPC   GL1 2320   3.399   9.663   6.426  0.2203 -0.3111  0.1911
  168POPC   GL2 2321   3.652  10.004   6.421  0.0270 -0.1819  0.0193
  168POPC   C1A 2322   3.209   9.672   6.011 -0.1259 -0.0812  0.0136
  168POPC   D2A 2323   2.993   9.571   5.585 -0.0018 -0.0687 -0.1575
  168POPC   C3A 2324   2.829   9.182   5.445 -0.1573  0.0600 -0.0172
  168POPC   C4A 2325   2.981   8.968   5.122  0.1713  0.0429  0.3008
  168POPC   C1B 2326   4.040  10.064   6.110 -0.1989 -0.0451  0.0068
  168POPC   C2B 2327   4.543  10.055   5.819  0.1324  0.5316  0.1036
  168POPC   C3B 2328   4.562  10.429   5.486  0.3865  0.0430  0.0938
  168POPC   C4B 2329   4.826  10.738   5.255 -0.0688 -0.0358  0.1983
  169POPC   NC3 2330  10.148   9.715   7.490  0.1643  0.1156  0.1227
  169POPC   PO4 2331  10.414   9.410   7.606 -0.1440  0.3480 -0.2310
  169POPC   GL1 2332  10.204   9.221   7.305 -0.2478 -0.2670  0.0635
  169POPC   GL2 2333   9.988   9.419   7.112  0.2148 -0.0903  0.2693
  169POPC   C1A 2334  10.187   8.985   6.855  0.1728 -0.1127 -0.3139
  169POPC   D2A 2335  10.362   8.723   6.543 -0.2105  0.0683 -0.1191
  169POPC   C3A 2336  10.588   8.996   6.267  0.1523  0.0329 -0.1700
  169POPC   C4A 2337  10.955   9.125   6.066 -0.1311  0.0297  0.2413
  169POPC   C1B 2338  10.147   9.511   6.748 -0.0568  0.0188 -0.0380
  169POPC   C2B 2339  10.115   9.329   6.374  0.1594  0.0669  0.1822
  169POPC   C3B 2340  10.134   9.100   5.964  0.0383  0.2205 -0.4370
  169POPC   C4B 2341   9.788   9.142   5.755 -0.1228  0.0594  0.0671
  170POPC   NC3 2342   4.703   6.252   7.332  0.0473 -0.0943  0.0799
  170POPC   PO4 2343   5.066   6.066   7.135 -0.1507 -0.1932  0.0466
  170POPC   GL1 2344   4.698   5.882   6.986 -0.4772 -0.4354 -0.4801
  170POPC   GL2 2345   4.671   5.496   7.129 -0.0782  0.0492 -0.0365
  170POPC   C1A 2346   4.632   5.629   6.643  0.0828 -0.0299  0.1645
  170POPC   D2A 2347   4.207   5.627   6.504 -0.1036  0.2456  0.0452
  170POPC   C3A 2348   4.125   5.588   6.065  0.0661  0.0660 -0.0321
  170POPC   C4A 2349   4.016   5.480   5.592 -0.0704 -0.0579 -0.5540
  170POPC   C1B 2350   4.442   5.199   6.789  0.1301 -0.0501 -0.1329
  170POPC   C2B 2351   4.478   5.250   6.276 -0.0656 -0.1612 -0.0497
  170POPC   C3B 2352   4.271   5.083   5.920  0.3090 -0.0517  0.1959
  170POPC   C4B 2353   4.042   4.918   5.526  0.1317  0.0086  0.1210
  171POPC   NC3 2354   4.926   0.898   7.273 -0.4350 -0.0367 -0.1693
  171POPC   PO4 2355   5.385   0.755   7.075  0.0231  0.2367 -0.2907
  171POPC   GL1 2356   5.525   0.795   6.594  0.1302 -0.0370  0.2447
  171POPC   GL2 2357   5.612   1.053   6.401  0.1280  0.1005  0.2827
  171POPC   C1A 2358   5.282   0.790   6.192  0.1301 -0.2363 -0.0282
  171POPC   D2A 2359   5.309   0.674   5.848 -0.2941  0.1107 -0.0090
  171POPC   C3A 2360   5.141   0.688   5.443  0.1429 -0.2214  0.0137
  171POPC   C4A 2361   5.060   0.432   5.177  0.2422 -0.2889 -0.0029
  171POPC   C1B 2362   5.415   1.263   6.146  0.1963  0.0850 -0.0753
  171POPC   C2B 2363   5.392   1.651   5.841  0.3915 -0.1085 -0.2523
  171POPC   C3B 2364   5.540   1.943   5.452 -0.1810 -0.0995  0.2711
  171POPC   C4B 2365   5.743   2.432   5.687 -0.2144  0.1851  0.0023
  172POPC   NC3 2366   3.679   8.742   7.428  0.0694  0.6341  0.3170
  172POPC   PO4 2367   3.505   8.463   7.025 -0.0853  0.1527 -0.5462
  172POPC   GL1 2368   3.545   8.705   6.608  0.2439  0.2024 -0.1008
  172POPC   GL2 2369   3.819   8.781   6.469 -0.0766 -0.2053  0.0636
  172POPC   C1A 2370   3.344   8.783   6.228  0.0867 -0.1845  0.2652
  172POPC   D2A 2371   3.028   8.633   5.888  0.0964 -0.0822 -0.0665
  172POPC   C3A 2372   2.540   8.846   5.756  0.1802 -0.1518 -0.0957
  172POPC   C4A 2373   2.255   8.630   5.567 -0.1019 -0.0336 -0.3525
  172POPC   C1B 2374   3.857   8.369   6.309 -0.1450 -0.2863 -0.0736
  172POPC   C2B 2375   3.408   8.265   6.094  0.2351  0.1772 -0.0353
  172POPC   C3B 2376   3.024   8.069   6.075 -0.1129  0.1312  0.1305
  172POPC   C4B 2377   2.662   7.837   5.734 -0.1005  0.0825  0.0026
  173POPC   NC3 2378   6.368   5.896   7.742 -0.0841 -0.1482  0.0798
  173POPC   PO4 2379   6.402   5.688   7.283 -0.1663  0.0466  0.0783
  173POPC   GL1 2380   6.374   5.397   6.871  0.0440  0.2445 -0.2185
  173POPC   GL2 2381   6.044   5.459   6.696  0.4349 -0.2152  0.1847
  173POPC   C1A 2382   6.389   5.084   6.565  0.0356  0.0239 -0.0777
  173POPC   D2A 2383   6.635   4.974   6.394  0.0058  0.0756 -0.0098
  173POPC   C3A 2384   6.377   4.616   6.154  0.3586 -0.0972 -0.0563
  173POPC   C4A 2385   6.528   4.301   5.831  0.1040 -0.1361  0.3469
  173POPC   C1B 2386   5.851   5.340   6.281 -0.0588  0.1515 -0.2434
  173POPC   C2B 2387   5.889   5.593   6.031 -0.0567 -0.0629 -0.0362
  173POPC   C3B 2388   6.185   5.590   5.770  0.0361 -0.2426 -0.0377
  173POPC   C4B 2389   6.543   5.358   5.615 -0.1145 -0.1348  0.2148
  174POPC   NC3 2390   7.791   3.594   3.027 -0.2937  0.2369 -0.0687
  174POPC   PO4 2391   7.502   3.912   3.170  0.0918  0.0570  0.0238
  174POPC   GL1 2392   7.608   3.734   3.634 -0.1417  0.1204 -0.0295
  174POPC   GL2 2393   7.512   3.936   3.925 -0.1516  0.3487  0.0752
  174POPC   C1A 2394   7.750   3.392   3.961  0.0134  0.1568  0.2693
  174POPC   D2A 2395   7.861   3.495   4.379  0.1135  0.1079  0.1537
  174POPC   C3A 2396   8.061   3.190   4.652  0.2791 -0.0887  0.0220
  174POPC   C4A 2397   8.023   2.826   4.854  0.0784 -0.1658 -0.1332
  174POPC   C1B 2398   7.235   3.702   4.210  0.2515  0.0718  0.1292
  174POPC   C2B 2399   6.991   3.441   4.406  0.2915 -0.1115  0.1926
  174POPC   C3B 2400   6.962   3.024   4.463  0.3385  0.1609  0.1268
  174POPC   C4B 2401   7.064   2.643   4.725 -0.1595 -0.1661 -0.0111
  175POPC   NC3 2402   4.241   8.755   2.709  0.1009 -0.1173  0.1886
  175POPC   PO4 2403   4.471   8.559   2.993 -0.0748  0.1857 -0.0553
  175POPC   GL1 2404   4.558   8.370   3.369  0.0001  0.3672  0.1116
  175POPC   GL2 2405   4.768   8.576   3.558 -0.2151  0.0834 -0.1763
  175POPC   C1A 2406   4.285   8.002   3.720 -0.2001  0.0822 -0.1825
  175POPC   D2A 2407   4.247   7.834   4.230 -0.0298 -0.0278  0.1622
  175POPC   C3A 2408   4.376   7.677   4.574 -0.1088  0.0005 -0.0020
  175POPC   C4A 2409   4.207   7.451   4.946  0.0469 -0.0548 -0.2051
  175POPC   C1B 2410   4.663   8.449   3.931  0.0136  0.0216 -0.0500
  175POPC   C2B 2411   4.476   8.265   4.252  0.2824  0.0814 -0.2135
  175POPC   C3B 2412   4.361   8.161   4.639  0.2358  0.2071 -0.1842
  175POPC   C4B 2413   4.221   7.933   5.042  0.2691 -0.1749 -0.2401
  176POPC   NC3 2414   1.162   9.537   2.868 -0.1083  0.3390  0.0722
  176POPC   PO4 2415   1.158   9.785   3.218 -0.0528 -0.2113  0.1476
  176POPC   GL1 2416   1.155   9.976   3.705 -0.0050 -0.3600  0.2145
  176POPC   GL2 2417   0.906   9.761   3.843  0.1837 -0.0932  0.0506
  176POPC   C1A 2418   0.971  10.143   4.148 -0.2712  0.2070 -0.1039
  176POPC   D2A 2419   0.837  10.321   4.447  0.1765 -0.1669 -0.0188
  176POPC   C3A 2420   0.742  10.771   4.344  0.1531  0.2925 -0.0020
  176POPC   C4A 2421   0.424  11.020   4.438  0.1424 -0.1072 -0.0720
  176POPC   C1B 2422   0.739   9.670   4.140 -0.0397 -0.0410 -0.2823
  176POPC   C2B 2423   0.288   9.593   4.304  0.0373 -0.2132  0.0909
  176POPC   C3B 2424   0.060   9.584   4.699 -0.4187 -0.0197  0.0317
  176POPC   C4B 2425   0.178   9.838   5.006  0.0066  0.1373 -0.0296
  177POPC   NC3 2426   1.270   6.706   3.834  0.0337 -0.0229 -0.0927
  177POPC   PO4 2427   1.771   6.663   3.748  0.1513  0.0397  0.0727
  177POPC   GL1 2428   2.055   6.593   4.103  0.1951 -0.2871  0.1621
  177POPC   GL2 2429   1.953   6.844   4.298  0.0234  0.0647  0.5070
  177POPC   C1A 2430   1.954   6.247   4.356 -0.0510 -0.0856  0.2784
  177POPC   D2A 2431   2.080   6.240   4.766 -0.2934  0.1459  0.2406
  177POPC   C3A 2432   2.336   5.982   4.944 -0.2406 -0.1493  0.3205
  177POPC   C4A 2433   2.734   5.906   5.005 -0.2881 -0.2259  0.1797
  177POPC   C1B 2434   2.155   6.709   4.664 -0.0540 -0.1554  0.0700
  177POPC   C2B 2435   2.334   6.910   4.924  0.0577 -0.0470 -0.1009
  177POPC   C3B 2436   2.405   6.924   5.419  0.0973  0.1654  0.3260
  177POPC   C4B 2437   2.129   6.997   5.711 -0.2040  0.0616 -0.2550
  178POPC   NC3 2438   2.998   7.429   3.128 -0.0877  0.0975  0.1955
  178POPC   PO4 2439   2.741   7.093   3.416 -0.1581 -0.0096 -0.0387
  178POPC   GL1 2440   2.953   7.555   3.579 -0.0903 -0.0399 -0.3245
  178POPC   GL2 2441   3.416   7.511   3.624 -0.1418 -0.0895 -0.1070
  178POPC   C1A 2442   2.967   7.759   4.002  0.1215 -0.0168  0.0197
  178POPC   D2A 2443   2.870   7.642   4.455  0.1348  0.2046 -0.0427
  178POPC   C3A 2444   2.644   7.835   4.723 -0.0067 -0.1061  0.4557
  178POPC   C4A 2445   2.491   7.730   5.196  0.0616  0.0688  0.0181
  178POPC   C1B 2446   3.167   7.142   3.900 -0.0245  0.0640  0.0431
  178POPC   C2B 2447   3.086   7.083   4.332  0.0788 -0.2123 -0.0490
  178POPC   C3B 2448   3.102   7.248   4.681  0.4747  0.1236 -0.0326
  178POPC   C4B 2449   3.301   7.215   5.129  0.0556  0.4054  0.1851
  179POPC   NC3 2450   7.523   8.261   3.047  0.1456 -0.1472 -0.1192
  179POPC   PO4 2451   7.694   8.243   3.469 -0.1587  0.3022  0.4317
  179POPC   GL1 2452   7.730   8.147   3.951 -0.1175  0.1905 -0.2809
  179POPC   GL2 2453   7.681   7.859   4.018  0.0631  0.2867 -0.0393
  179POPC   C1A 2454   8.052   8.298   4.267 -0.1098  0.1549 -0.2006
  179POPC   D2A 2455   8.413   8.380   4.170 -0.0712 -0.0489 -0.0458
  179POPC   C3A 2456   8.554   8.507   4.438  0.1326 -0.1256  0.0359
  179POPC   C4A 2457   8.782   8.708   4.745  0.3480 -0.0438 -0.0768
  179POPC   C1B 2458   7.610   7.652   4.446  0.1803 -0.1363 -0.0383
  179POPC   C2B 2459   7.481   7.416   4.836 -0.0448 -0.1487 -0.3846
  179POPC   C3B 2460   7.275   7.058   4.985  0.1655 -0.3445 -0.2250
  179POPC   C4B 2461   6.874   6.900   4.892  0.3771  0.2138  0.0045
  180POPC   NC3 2462   1.727   1.258   3.004 -0.1782  0.2509 -0.3097
  180POPC   PO4 2463   2.072   1.463   3.224 -0.0837 -0.1754 -0.2799
  180POPC   GL1 2464   1.856   1.259   3.536 -0.0062 -0.1943 -0.1804
  180POPC   GL2 2465   1.900   1.320   3.852  0.2534  0.0140  0.1616
  180POPC   C1A 2466   1.673   0.870   3.697  0.2963 -0.2655  0.1762
  180POPC   D2A 2467   1.392   0.710   4.094 -0.0602 -0.0623 -0.0085
  180POPC   C3A 2468   1.126   1.045   4.298 -0.2338  0.3805  0.4190
  180POPC   C4A 2469   0.581   0.937   4.359 -0.1932  0.2031  0.0072
  180POPC   C1B 2470   2.335   1.381   4.129  0.0052 -0.2059  0.0584
  180POPC   C2B 2471   2.450   1.442   4.592  0.1677  0.1713  0.1240
  180POPC   C3B 2472   2.594   1.215   4.988 -0.3993 -0.0730 -0.2307
  180POPC   C4B 2473   2.669   1.226   5.486  0.1403  0.2703  0.2861
  181POPC   NC3 2474   6.966   1.858   2.927  0.0995 -0.0979 -0.0715
  181POPC   PO4 2475   7.225   1.505   2.977 -0.1125  0.1476  0.0076
  181POPC   GL1 2476   7.129   1.602   3.350  0.0923 -0.1094 -0.0899
  181POPC   GL2 2477   7.163   1.369   3.465  0.3672 -0.1093  0.1628
  181POPC   C1A 2478   7.188   1.800   3.696 -0.2253 -0.0962  0.0828
  181POPC   D2A 2479   7.299   1.553   4.003  0.2625 -0.2497  0.4266
  181POPC   C3A 2480   7.229   1.646   4.458 -0.0959  0.0298 -0.1104
  181POPC   C4A 2481   7.186   1.821   4.887  0.1746  0.3004  0.2607
  181POPC   C1B 2482   6.772   1.394   3.743 -0.4376  0.0843  0.1392
  181POPC   C2B 2483   6.780   1.577   4.266 -0.1018  0.1732  0.2260
  181POPC   C3B 2484   6.456   1.640   4.484 -0.2863  0.0150 -0.1590
  181POPC   C4B 2485   6.251   1.322   4.608  0.5911 -0.0350  0.0164
  182POPC   NC3 2486   2.173   6.400   3.570  0.0638 -0.3011  0.3652
  182POPC   PO4 2487   2.634   6.221   3.591  0.1585 -0.0172 -0.2141
  182POPC   GL1 2488   2.569   6.271   3.966  0.0188  0.0127 -0.1669
  182POPC   GL2 2489   2.839   6.283   4.098 -0.0247  0.0481 -0.2127
  182POPC   C1A 2490   2.465   6.558   4.311 -0.3322 -0.0776  0.3203
  182POPC   D2A 2491   2.424   7.034   4.360 -0.0334 -0.0464 -0.2541
  182POPC   C3A 2492   2.576   7.270   4.649  0.0485  0.2964 -0.3010
  182POPC   C4A 2493   2.703   7.295   5.077 -0.1521 -0.0968  0.1455
  182POPC   C1B 2494   2.950   6.519   4.388  0.0324  0.0572 -0.0837
  182POPC   C2B 2495   2.834   6.664   4.669 -0.1665 -0.4215  0.0744
  182POPC   C3B 2496   2.922   6.840   4.994  0.0478  0.0992 -0.0701
  182POPC   C4B 2497   2.959   6.907   5.421 -0.0832 -0.2562 -0.0168
  183POPC   NC3 2498   5.374   2.688   3.369  0.1686  0.2626 -0.2238
  183POPC   PO4 2499   5.799   2.792   3.180  0.3077 -0.3304 -0.1834
  183POPC   GL1 2500   5.788   2.396   3.539 -0.1521  0.2625 -0.1494
  183POPC   GL2 2501   5.823   2.085   3.569  0.1115 -0.2497  0.0377
  183POPC   C1A 2502   5.693   2.422   3.884 -0.3289 -0.3427  0.2762
  183POPC   D2A 2503   5.717   2.392   4.292  0.2602 -0.1018 -0.0599
  183POPC   C3A 2504   5.851   2.054   4.500  0.4169 -0.3380 -0.0436
  183POPC   C4A 2505   6.181   1.978   4.745 -0.0471  0.2898 -0.0608
  183POPC   C1B 2506   6.111   2.104   4.032 -0.1361  0.1457 -0.4736
  183POPC   C2B 2507   6.437   2.092   4.276  0.0305 -0.0807  0.0287
  183POPC   C3B 2508   6.900   2.039   4.397 -0.1637  0.1980 -0.2459
  183POPC   C4B 2509   7.237   2.160   4.468 -0.0232 -0.1382 -0.1134
  184POPC   NC3 2510   7.054   9.952   3.635  0.2005  0.0410  0.1234
  184POPC   PO4 2511   7.331  10.192   3.543 -0.3381  0.0362 -0.2309
  184POPC   GL1 2512   7.157  10.310   3.954  0.1925  0.1007 -0.0085
  184POPC   GL2 2513   7.193  10.576   3.912  0.2096  0.5044  0.0601
  184POPC   C1A 2514   6.797  10.367   4.255  0.0162  0.1406 -0.2924
  184POPC   D2A 2515   6.697  10.391   4.621 -0.3120 -0.2865  0.1284
  184POPC   C3A 2516   6.583  10.792   4.835 -0.0554  0.2144  0.3231
  184POPC   C4A 2517   6.446  11.137   5.183 -0.2465 -0.0946  0.1188
  184POPC   C1B 2518   7.232  10.921   4.072  0.1546  0.0166  0.0620
  184POPC   C2B 2519   7.497  10.973   4.380  0.1727  0.0026  0.0378
  184POPC   C3B 2520   7.827  11.003   4.603 -0.5252 -0.1423  0.1647
  184POPC   C4B 2521   8.247  11.061   4.881  0.2434  0.4001  0.0597
  185POPC   NC3 2522   3.732  10.415   2.786  0.4667 -0.0997  0.0660
  185POPC   PO4 2523   3.424  10.726   3.040  0.2877 -0.1311 -0.2215
  185POPC   GL1 2524   3.480  10.426   3.428  0.2049 -0.0889  0.1274
  185POPC   GL2 2525   3.224  10.363   3.693 -0.3379  0.0177  0.1136
  185POPC   C1A 2526   3.656  10.357   3.852 -0.1555 -0.2850 -0.2983
  185POPC   D2A 2527   4.146  10.420   4.114  0.0636  0.0959  0.1782
  185POPC   C3A 2528   4.304  10.339   4.485  0.3473  0.1992 -0.0438
  185POPC   C4A 2529   4.114  10.123   4.858 -0.1340  0.1619 -0.2476
  185POPC   C1B 2530   3.168  10.473   4.169 -0.1993 -0.0890  0.0969
  185POPC   C2B 2531   3.080  10.480   4.645 -0.2045  0.1989  0.2609
  185POPC   C3B 2532   3.188  10.727   4.951  0.0484 -0.2318  0.0205
  185POPC   C4B 2533   3.251  10.664   5.346 -0.0542 -0.0385 -0.1078
  186POPC   NC3 2534   1.006   5.140   4.000 -0.1387  0.2303 -0.0268
  186POPC   PO4 2535   1.406   5.289   4.122  0.5969 -0.3331  0.1959
  186POPC   GL1 2536   1.842   5.341   3.986 -0.2668 -0.3050 -0.2295
  186POPC   GL2 2537   1.924   5.646   4.144  0.2390 -0.1170  0.3686
  186POPC   C1A 2538   2.342   5.453   3.980 -0.4408  0.3135 -0.0044
  186POPC   D2A 2539   2.744   5.632   3.932 -0.1695  0.0591 -0.2454
  186POPC   C3A 2540   2.859   5.812   4.330  0.1057  0.3234  0.0206
  186POPC   C4A 2541   2.990   5.625   4.680  0.0323 -0.0637 -0.1740
  186POPC   C1B 2542   2.349   5.933   4.158 -0.0325  0.0320  0.1837
  186POPC   C2B 2543   2.587   6.144   4.567  0.1627 -0.0427 -0.0802
  186POPC   C3B 2544   2.526   6.447   4.964  0.2401 -0.0593  0.0373
  186POPC   C4B 2545   2.607   6.379   5.432 -0.0561 -0.1790  0.0908
  187POPC   NC3 2546   8.647   3.066   3.006 -0.0056 -0.2071  0.2178
  187POPC   PO4 2547   8.790   2.679   3.236  0.0781  0.0024 -0.2135
  187POPC   GL1 2548   8.704   2.547   3.556 -0.1187  0.3905  0.0367
  187POPC   GL2 2549   8.624   2.749   3.841 -0.1304 -0.3456  0.0039
  187POPC   C1A 2550   8.494   2.303   3.849 -0.1043  0.1024 -0.1677
  187POPC   D2A 2551   8.153   2.163   4.186  0.3782 -0.0956  0.1349
  187POPC   C3A 2552   8.337   2.079   4.657  0.0763  0.2526  0.0604
  187POPC   C4A 2553   8.658   1.877   4.800  0.2178 -0.0022  0.0461
  187POPC   C1B 2554   8.159   2.714   4.051 -0.0175 -0.0367 -0.2527
  187POPC   C2B 2555   7.762   2.969   4.269  0.1468 -0.1290 -0.0040
  187POPC   C3B 2556   7.553   2.793   4.629 -0.1946  0.3674 -0.1113
  187POPC   C4B 2557   7.503   2.505   4.842 -0.3379 -0.1524 -0.0051
  188POPC   NC3 2558   5.823   7.587   3.249  0.0943  0.1809 -0.3673
  188POPC   PO4 2559   6.055   7.215   3.566  0.0195  0.1503  0.0067
  188POPC   GL1 2560   6.120   7.337   3.945 -0.2907  0.0089 -0.1732
  188POPC   GL2 2561   6.260   7.694   3.906 -0.0924 -0.1525 -0.0426
  188POPC   C1A 2562   6.134   7.504   4.343  0.2591  0.0561 -0.1001
  188POPC   D2A 2563   6.128   7.446   4.740 -0.2584  0.0263  0.2225
  188POPC   C3A 2564   6.241   7.643   5.160 -0.1819  0.4200 -0.0409
  188POPC   C4A 2565   6.619   7.718   5.356  0.1008 -0.2869 -0.2071
  188POPC   C1B 2566   6.269   7.954   4.156 -0.4976 -0.1411  0.0278
  188POPC   C2B 2567   6.229   7.946   4.622  0.0486 -0.0151  0.2365
  188POPC   C3B 2568   6.344   8.184   5.059 -0.2877 -0.0142  0.0058
  188POPC   C4B 2569   6.474   8.266   5.529 -0.0433 -0.0681 -0.0388
  189POPC   NC3 2570   5.515   4.007   3.101 -0.3115  0.0971  0.3673
  189POPC   PO4 2571   5.314   3.605   3.028  0.1470 -0.3454  0.0868
  189POPC   GL1 2572   5.293   3.700   3.469  0.1901 -0.0372  0.2514
  189POPC   GL2 2573   5.067   3.823   3.656  0.1697 -0.0363  0.1108
  189POPC   C1A 2574   5.340   3.451   3.726 -0.2170  0.0472 -0.3653
  189POPC   D2A 2575   5.698   3.455   3.995 -0.0437  0.0338 -0.3125
  189POPC   C3A 2576   6.088   3.176   4.220  0.1030  0.0677  0.0940
  189POPC   C4A 2577   6.538   2.929   4.226 -0.0115 -0.2545 -0.0066
  189POPC   C1B 2578   5.207   3.844   3.999 -0.1775  0.2432  0.0458
  189POPC   C2B 2579   5.360   3.670   4.325  0.2127 -0.1375 -0.1040
  189POPC   C3B 2580   5.384   3.720   4.688 -0.2008  0.1475  0.0174
  189POPC   C4B 2581   5.774   3.745   4.851 -0.1128  0.2000  0.0263
  190POPC   NC3 2582   9.057   9.009   3.471 -0.3566  0.0891 -0.0940
  190POPC   PO4 2583   8.683   9.168   3.515  0.3323  0.0385 -0.0954
  190POPC   GL1 2584   8.756   9.220   3.878  0.1115 -0.0703 -0.2784
  190POPC   GL2 2585   8.964   9.531   3.820  0.0305 -0.0374 -0.0585
  190POPC   C1A 2586   8.764   9.418   4.313 -0.2132 -0.1785 -0.1306
  190POPC   D2A 2587   8.489   9.495   4.612  0.1793  0.1057 -0.0149
  190POPC   C3A 2588   8.088   9.294   4.481  0.1034 -0.0078  0.0279
  190POPC   C4A 2589   7.803   8.894   4.637  0.2332 -0.0230 -0.3443
  190POPC   C1B 2590   9.177   9.646   4.120 -0.2952 -0.0566 -0.2540
  190POPC   C2B 2591   9.275   9.307   4.444  0.1991 -0.2293  0.1310
  190POPC   C3B 2592   9.002   9.194   4.678  0.1319 -0.0175 -0.1102
  190POPC   C4B 2593   8.801   9.173   5.053  0.1933 -0.1331 -0.2027
  191POPC   NC3 2594   4.529   4.409   2.917  0.3178 -0.1581  0.4379
  191POPC   PO4 2595   4.640   4.838   3.185 -0.0532 -0.0351 -0.0194
  191POPC   GL1 2596   4.538   4.771   3.625  0.1584  0.1385  0.4837
  191POPC   GL2 2597   4.663   5.048   3.664 -0.0664 -0.1324 -0.2409
  191POPC   C1A 2598   4.710   4.556   3.929  0.3890  0.2652 -0.3079
  191POPC   D2A 2599   5.113   4.360   3.872 -0.1435 -0.1496 -0.1852
  191POPC   C3A 2600   5.427   4.362   4.139 -0.2648 -0.2600 -0.2866
  191POPC   C4A 2601   5.580   4.121   4.479  0.0091 -0.0653 -0.3745
  191POPC   C1B 2602   4.495   4.983   4.138  0.0590  0.2171 -0.0084
  191POPC   C2B 2603   4.353   5.056   4.571 -0.1473  0.0941  0.4932
  191POPC   C3B 2604   4.263   4.712   4.815 -0.0820  0.2474  0.0544
  191POPC   C4B 2605   4.121   4.588   5.202 -0.1380 -0.1703 -0.3894
  192POPC   NC3 2606   1.461   0.475   2.710  0.0240  0.5626 -0.2311
  192POPC   PO4 2607   1.816   0.737   2.836 -0.0176 -0.2856  0.0904
  192POPC   GL1 2608   1.967   0.623   3.321 -0.0704 -0.2401  0.0605
  192POPC   GL2 2609   2.213   0.821   3.539  0.2351 -0.0484  0.0491
  192POPC   C1A 2610   1.954   0.327   3.710 -0.1377 -0.2176  0.0721
  192POPC   D2A 2611   1.566   0.234   4.040 -0.0427 -0.1492 -0.2734
  192POPC   C3A 2612   1.395  -0.081   4.095  0.0493  0.3980  0.1883
  192POPC   C4A 2613   1.018  -0.168   3.886  0.1749 -0.0114 -0.0948
  192POPC   C1B 2614   2.113   0.803   3.878 -0.2824 -0.1850  0.2519
  192POPC   C2B 2615   2.019   1.022   4.225 -0.3137 -0.4940  0.3956
  192POPC   C3B 2616   1.959   1.359   4.570  0.0723 -0.2902 -0.2466
  192POPC   C4B 2617   1.693   1.560   4.831 -0.2893  0.0411 -0.1398
  193POPC   NC3 2618   5.481  10.728   3.352 -0.0392 -0.1483 -0.0858
  193POPC   PO4 2619   5.590  11.034   3.027 -0.0595 -0.1199  0.0803
  193POPC   GL1 2620   5.636  11.145   3.529  0.1178 -0.0249  0.0476
  193POPC   GL2 2621   5.891  11.285   3.625 -0.3353  0.2651 -0.0807
  193POPC   C1A 2622   5.453  11.499   3.741  0.0165 -0.0662  0.1061
  193POPC   D2A 2623   5.398  11.693   3.989  0.3082  0.0879 -0.1119
  193POPC   C3A 2624   5.474  11.575   4.446  0.3263  0.0161  0.0986
  193POPC   C4A 2625   5.360  11.737   4.900 -0.3212  0.1388  0.3068
  193POPC   C1B 2626   5.804  11.376   4.100  0.1780 -0.0843  0.3453
  193POPC   C2B 2627   5.959  11.431   4.510  0.0688 -0.0652 -0.0551
  193POPC   C3B 2628   6.290  11.587   4.706 -0.1026 -0.1672 -0.0150
  193POPC   C4B 2629   6.298  11.830   5.073  0.2615 -0.0374  0.0998
  194POPC   NC3 2630   9.667   1.706   3.530  0.3487  0.2928  0.1306
  194POPC   PO4 2631   9.303   1.899   3.400  0.0786  0.0834 -0.1794
  194POPC   GL1 2632   9.370   1.959   3.828 -0.0764  0.1114 -0.2525
  194POPC   GL2 2633   9.592   2.031   3.936 -0.0521 -0.2386  0.3099
  194POPC   C1A 2634   9.265   2.003   4.347  0.0211  0.1836  0.0042
  194POPC   D2A 2635   9.062   2.139   4.654 -0.0928 -0.1077 -0.1470
  194POPC   C3A 2636   8.834   2.369   4.874 -0.0314 -0.1727 -0.0981
  194POPC   C4A 2637   8.533   2.686   4.827  0.0634 -0.1968 -0.3540
  194POPC   C1B 2638   9.710   1.712   4.215 -0.2595  0.0181 -0.1212
  194POPC   C2B 2639   9.865   1.570   4.528  0.2465 -0.0691  0.0158
  194POPC   C3B 2640   9.877   1.673   4.986  0.5928 -0.2024  0.1578
  194POPC   C4B 2641   9.861   1.462   5.441  0.3850  0.0076  0.0863
  195POPC   NC3 2642   4.978   7.338   3.551  0.1522 -0.1431 -0.3238
  195POPC   PO4 2643   4.843   6.836   3.640  0.2585  0.0100 -0.2095
  195POPC   GL1 2644   4.823   6.687   4.016  0.0148  0.0225  0.0924
  195POPC   GL2 2645   4.821   6.866   4.292 -0.0347 -0.0180  0.0739
  195POPC   C1A 2646   5.050   6.364   4.212  0.0894 -0.0096  0.2853
  195POPC   D2A 2647   5.015   5.901   4.396  0.2174  0.0250 -0.4189
  195POPC   C3A 2648   5.093   5.917   4.815  0.2970  0.1462 -0.1873
  195POPC   C4A 2649   5.461   6.125   4.796 -0.1367 -0.0931  0.2901
  195POPC   C1B 2650   4.569   6.783   4.624 -0.0617  0.0281  0.0075
  195POPC   C2B 2651   4.414   6.956   4.959 -0.0277  0.0217 -0.0394
  195POPC   C3B 2652   4.185   6.983   5.304 -0.1218 -0.3517  0.0274
  195POPC   C4B 2653   4.027   6.951   5.781 -0.0126  0.2159 -0.0873
  196POPC   NC3 2654   8.141   8.983   3.529  0.2743  0.0637 -0.0464
  196POPC   PO4 2655   7.814   8.993   3.821 -0.1441  0.0091 -0.0532
  196POPC   GL1 2656   7.710   9.297   4.144  0.1789  0.4667  0.1200
  196POPC   GL2 2657   7.901   9.655   4.159 -0.1118  0.1012  0.0853
  196POPC   C1A 2658   7.458   9.584   4.423  0.1793  0.3827 -0.0192
  196POPC   D2A 2659   7.346   9.705   4.799 -0.0816  0.0044 -0.2648
  196POPC   C3A 2660   7.448  10.125   4.832  0.1150  0.0925  0.1846
  196POPC   C4A 2661   7.533  10.528   5.043 -0.1377 -0.1914 -0.1800
  196POPC   C1B 2662   7.871   9.716   4.654  0.0906 -0.0011 -0.1263
  196POPC   C2B 2663   8.090   9.560   4.988 -0.1163 -0.1473  0.2639
  196POPC   C3B 2664   8.336   9.361   5.270  0.1041 -0.3184  0.5289
  196POPC   C4B 2665   8.576   9.266   5.554  0.0514  0.2982  0.2827
  197POPC   NC3 2666   6.030   5.020   3.157 -0.0109  0.1817  0.1909
  197POPC   PO4 2667   5.822   5.310   3.345 -0.1694 -0.0501 -0.1182
  197POPC   GL1 2668   5.753   5.290   3.749 -0.0724 -0.1563  0.1109
  197POPC   GL2 2669   5.587   5.517   3.932  0.3157  0.0317 -0.4090
  197POPC   C1A 2670   5.853   5.244   4.204  0.1303 -0.1015  0.0428
  197POPC   D2A 2671   5.506   4.984   4.370  0.2801 -0.1845  0.1224
  197POPC   C3A 2672   5.212   5.002   4.783 -0.1901  0.3453 -0.8127
  197POPC   C4A 2673   4.845   5.279   4.950 -0.0784 -0.2304  0.2105
  197POPC   C1B 2674   5.939   5.723   4.093 -0.0082  0.0520 -0.3069
  197POPC   C2B 2675   6.125   5.833   4.494  0.0165  0.0226 -0.0631
  197POPC   C3B 2676   6.025   5.830   4.965 -0.1501 -0.2283  0.0795
  197POPC   C4B 2677   5.907   5.660   5.349  0.0077  0.0987 -0.1709
  198POPC   NC3 2678   3.300   8.254   2.748  0.0412 -0.0874 -0.1705
  198POPC   PO4 2679   3.303   8.359   3.125  0.0287  0.3007  0.1476
  198POPC   GL1 2680   3.577   8.385   3.421 -0.1386 -0.0913 -0.3732
  198POPC   GL2 2681   3.395   8.536   3.616  0.4957 -0.4982  0.3642
  198POPC   C1A 2682   3.806   8.213   3.793  0.5161 -0.0143  0.2818
  198POPC   D2A 2683   3.903   8.203   4.190 -0.2769  0.0607  0.4009
  198POPC   C3A 2684   3.566   8.118   4.543  0.1418  0.2139  0.1423
  198POPC   C4A 2685   3.118   8.043   4.596 -0.0581 -0.1733  0.1570
  198POPC   C1B 2686   3.502   8.489   4.083  0.2906 -0.0307 -0.1265
  198POPC   C2B 2687   3.757   8.615   4.501 -0.0114 -0.0535  0.1303
  198POPC   C3B 2688   3.811   8.351   4.922  0.0284 -0.1536  0.0487
  198POPC   C4B 2689   3.813   8.355   5.369  0.0957  0.0951 -0.1234
  199POPC   NC3 2690   7.493   4.401   3.777 -0.1342 -0.0367  0.1347
  199POPC   PO4 2691   7.161   4.703   3.464 -0.3519 -0.3749 -0.1760
  199POPC   GL1 2692   7.038   4.511   3.835 -0.1928  0.4370 -0.0216
  199POPC   GL2 2693   7.050   4.190   3.941 -0.1199  0.2788 -0.4404
  199POPC   C1A 2694   6.767   4.384   4.315 -0.0889  0.0322  0.2707
  199POPC   D2A 2695   6.548   4.366   4.722 -0.1171  0.1366 -0.0265
  199POPC   C3A 2696   6.858   4.635   4.986  0.1248  0.0093  0.1219
  199POPC   C4A 2697   6.627   4.887   5.296  0.3045 -0.1189  0.0859
  199POPC   C1B 2698   7.385   4.160   4.375  0.1163 -0.1036 -0.1898
  199POPC   C2B 2699   7.518   3.802   4.637 -0.2332 -0.4279  0.1286
  199POPC   C3B 2700   7.675   3.528   4.936  0.3226  0.0396  0.2880
  199POPC   C4B 2701   7.746   3.165   5.141  0.2269  0.0945 -0.1355
  200POPC   NC3 2702   1.674   1.780   3.401 -0.0365 -0.1180 -0.1705
  200POPC   PO4 2703   1.408   1.401   3.327  0.1880 -0.2026 -0.0419
  200POPC   GL1 2704   1.325   1.238   3.662  0.0717  0.1871 -0.3402
  200POPC   GL2 2705   1.228   1.370   3.891 -0.1698 -0.4186  0.2882
  200POPC   C1A 2706   1.133   0.842   3.721  0.0005 -0.3440  0.0104
  200POPC   D2A 2707   0.743   0.696   3.952  0.1047  0.1282  0.1221
  200POPC   C3A 2708   0.932   0.539   4.335 -0.2343  0.1244 -0.3638
  200POPC   C4A 2709   1.217   0.282   4.463  0.1305 -0.0879 -0.1890
  200POPC   C1B 2710   1.564   1.143   4.147 -0.2139 -0.1463 -0.0573
  200POPC   C2B 2711   1.611   1.025   4.535  0.1681  0.1622  0.0862
  200POPC   C3B 2712   1.737   0.922   4.894  0.0265 -0.0196  0.1243
  200POPC   C4B 2713   1.838   0.745   5.344 -0.0517 -0.1101  0.1130
  201POPC   NC3 2714   8.153   6.478   2.971 -0.0941  0.1636  0.2459
  201POPC   PO4 2715   7.997   6.754   3.199 -0.1604 -0.2406 -0.1188
  201POPC   GL1 2716   8.100   6.521   3.690  0.1722 -0.2106  0.0991
  201POPC   GL2 2717   8.074   6.216   3.805  0.0893  0.3851  0.0713
  201POPC   C1A 2718   8.461   6.685   4.049  0.0397  0.0469  0.1219
  201POPC   D2A 2719   8.810   6.347   4.126  0.1577 -0.0409 -0.2040
  201POPC   C3A 2720   9.204   6.365   4.188 -0.1769 -0.4064  0.3005
  201POPC   C4A 2721   9.562   6.303   4.386 -0.0309  0.0767 -0.3680
  201POPC   C1B 2722   7.896   6.105   4.165  0.1259  0.0430  0.2046
  201POPC   C2B 2723   8.034   5.897   4.575 -0.0374  0.1327  0.0080
  201POPC   C3B 2724   7.991   5.827   4.959 -0.0797 -0.0776  0.1175
  201POPC   C4B 2725   7.893   5.760   5.417 -0.0076  0.1193 -0.2426
  202POPC   NC3 2726   3.969   9.460   2.887 -0.0652 -0.0476 -0.3741
  202POPC   PO4 2727   4.122   9.035   3.091  0.0733  0.0934  0.1865
  202POPC   GL1 2728   4.275   8.927   3.532 -0.1648 -0.0363 -0.0902
  202POPC   GL2 2729   4.292   8.609   3.671  0.0209 -0.0866 -0.1092
  202POPC   C1A 2730   4.434   9.000   3.918 -0.0262  0.4804 -0.2325
  202POPC   D2A 2731   4.384   9.170   4.379  0.1202  0.0968  0.2333
  202POPC   C3A 2732   4.779   9.075   4.594 -0.2755  0.0922 -0.1998
  202POPC   C4A 2733   5.082   9.090   4.938 -0.0557 -0.1485  0.4039
  202POPC   C1B 2734   4.146   8.672   4.166  0.1632  0.1608  0.2743
  202POPC   C2B 2735   4.221   8.632   4.562 -0.4279 -0.3233  0.2336
  202POPC   C3B 2736   4.408   8.907   4.945  0.3550 -0.3213 -0.3254
  202POPC   C4B 2737   4.667   9.064   5.270  0.0475 -0.3266 -0.2807
  203POPC   NC3 2738   2.188   9.368   3.332  0.1157 -0.3273  0.2308
  203POPC   PO4 2739   2.019   9.642   3.101  0.1835  0.0427  0.3295
  203POPC   GL1 2740   1.886   9.720   3.452  0.0857 -0.1944 -0.0167
  203POPC   GL2 2741   2.128   9.800   3.646 -0.1266 -0.3035 -0.0195
  203POPC   C1A 2742   1.733   9.701   3.932  0.0335  0.1009 -0.0206
  203POPC   D2A 2743   1.728   9.818   4.360 -0.0458  0.3282  0.1840
  203POPC   C3A 2744   1.780  10.158   4.514 -0.0722 -0.3651 -0.3583
  203POPC   C4A 2745   1.829  10.305   4.965  0.1216  0.4418 -0.4408
  203POPC   C1B 2746   2.184   9.556   4.018 -0.0025 -0.0207 -0.0386
  203POPC   C2B 2747   2.149   9.578   4.432 -0.0084 -0.2044  0.5527
  203POPC   C3B 2748   2.004   9.327   4.804  0.1181 -0.0609 -0.1525
  203POPC   C4B 2749   1.954   8.914   5.004 -0.0425 -0.0983  0.1015
  204POPC   NC3 2750   6.172   9.777   2.927 -0.1836 -0.0151 -0.0209
  204POPC   PO4 2751   5.884   9.500   3.096  0.0047 -0.1349  0.2682
  204POPC   GL1 2752   5.942   9.738   3.475  0.0647 -0.0339 -0.0010
  204POPC   GL2 2753   5.968   9.505   3.748  0.3281 -0.0069 -0.2021
  204POPC   C1A 2754   5.896   9.963   3.907  0.0279 -0.0004  0.0447
  204POPC   D2A 2755   5.854   9.966   4.331  0.1164 -0.1107  0.1773
  204POPC   C3A 2756   5.555   9.834   4.601  0.1108  0.0657  0.1600
  204POPC   C4A 2757   5.320   9.974   4.928 -0.0343 -0.1522 -0.0004
  204POPC   C1B 2758   5.831   9.510   4.248 -0.1091  0.2180  0.0706
  204POPC   C2B 2759   5.945   9.437   4.674  0.1170 -0.3505 -0.3481
  204POPC   C3B 2760   5.805   9.752   5.062 -0.1990 -0.2361 -0.1667
  204POPC   C4B 2761   5.861  10.138   4.855  0.1617  0.1563  0.3720
  205POPC   NC3 2762   9.178   2.385   3.451 -0.2365 -0.2844  0.0460
  205POPC   PO4 2763   9.672   2.272   3.385  0.1105  0.0543 -0.1833
  205POPC   GL1 2764   9.524   2.571   3.750  0.2287  0.0614 -0.0186
  205POPC   GL2 2765   9.227   2.488   3.906 -0.0885 -0.3498  0.2733
  205POPC   C1A 2766   9.563   2.924   4.027  0.1917  0.2476  0.0387
  205POPC   D2A 2767   9.603   3.287   4.071 -0.4276 -0.1145 -0.1847
  205POPC   C3A 2768   9.218   3.421   4.154  0.4080  0.1203 -0.0472
  205POPC   C4A 2769   8.856   3.353   4.450  0.0699  0.0762 -0.2240
  205POPC   C1B 2770   9.513   2.511   4.356  0.1085  0.2383 -0.2192
  205POPC   C2B 2771   9.457   2.600   4.759 -0.0167  0.0558  0.0256
  205POPC   C3B 2772   9.371   2.713   5.266 -0.1908  0.0520  0.2511
  205POPC   C4B 2773   9.614   2.743   5.708  0.0125 -0.0370 -0.2065
  206POPC   NC3 2774   9.828   7.559   3.695  0.2309  0.3753 -0.0872
  206POPC   PO4 2775   9.854   7.984   3.842 -0.0294 -0.3159 -0.0717
  206POPC   GL1 2776   9.870   7.797   4.171 -0.2631  0.0566 -0.0967
  206POPC   GL2 2777  10.135   7.634   4.099 -0.1114 -0.2847  0.3192
  206POPC   C1A 2778   9.849   7.759   4.620  0.0434  0.5015 -0.1890
  206POPC   D2A 2779  10.216   7.703   4.946 -0.0473  0.1640  0.0261
  206POPC   C3A 2780  10.387   8.105   5.223 -0.3295  0.1281  0.2405
  206POPC   C4A 2781  10.771   8.374   5.211 -0.1252 -0.1573  0.3052
  206POPC   C1B 2782  10.390   7.776   4.480 -0.0841 -0.3102 -0.0042
  206POPC   C2B 2783  10.725   7.752   4.786 -0.1493 -0.0931 -0.2030
  206POPC   C3B 2784  10.777   7.617   5.204  0.0295  0.1729 -0.1600
  206POPC   C4B 2785  10.533   7.503   5.551 -0.1242  0.1367 -0.0964
  207POPC   NC3 2786   2.647   3.550   3.149  0.0742  0.1896  0.0089
  207POPC   PO4 2787   2.796   3.193   3.317 -0.3830 -0.0866 -0.1708
  207POPC   GL1 2788   2.952   3.328   3.776 -0.1130  0.1062  0.0452
  207POPC   GL2 2789   2.943   3.141   4.057  0.1441  0.1260  0.0443
  207POPC   C1A 2790   2.981   3.659   4.137 -0.0724  0.0422  0.0501
  207POPC   D2A 2791   2.970   3.840   4.531  0.2051 -0.1929 -0.0948
  207POPC   C3A 2792   3.207   3.695   4.834 -0.1878 -0.2570 -0.1742
  207POPC   C4A 2793   3.340   3.435   5.236  0.1110  0.1209 -0.1357
  207POPC   C1B 2794   2.961   3.305   4.493  0.4180  0.0924  0.1411
  207POPC   C2B 2795   2.821   3.450   4.910  0.3391  0.3710  0.1044
  207POPC   C3B 2796   2.892   3.767   5.249  0.1723 -0.0397  0.3855
  207POPC   C4B 2797   2.804   3.462   5.603 -0.0102 -0.1707 -0.0816
  208POPC   NC3 2798   0.203   9.098   3.774 -0.0061 -0.2397 -0.1981
  208POPC   PO4 2799   0.168   8.731   4.056 -0.2912 -0.1534 -0.0763
  208POPC   GL1 2800   0.412   8.500   4.417 -0.1025  0.0311  0.1235
  208POPC   GL2 2801   0.433   8.143   4.439  0.0091  0.5214  0.3693
  208POPC   C1A 2802   0.438   8.529   4.851  0.0059  0.1684 -0.1919
  208POPC   D2A 2803   0.580   8.501   5.271  0.0559  0.0260 -0.2371
  208POPC   C3A 2804   0.975   8.605   5.393 -0.2434  0.0483 -0.0832
  208POPC   C4A 2805   1.306   8.464   5.550 -0.1285  0.1517  0.2289
  208POPC   C1B 2806   0.533   7.993   4.851  0.0386  0.0080  0.0093
  208POPC   C2B 2807   0.384   7.971   5.266  0.0635  0.0698  0.0830
  208POPC   C3B 2808   0.032   7.894   5.675 -0.0903  0.0037  0.0822
  208POPC   C4B 2809  -0.153   7.676   6.027 -0.1427  0.3070 -0.0571
  209POPC   NC3 2810   1.994   8.543   3.615 -0.2420 -0.1589  0.1647
  209POPC   PO4 2811   1.888   8.134   3.746  0.0922  0.0524  0.1473
  209POPC   GL1 2812   1.846   8.287   4.063  0.0712  0.0053 -0.1343
  209POPC   GL2 2813   1.916   8.107   4.205 -0.2197 -0.0794 -0.1245
  209POPC   C1A 2814   1.681   8.730   4.183  0.1711 -0.0438 -0.3371
  209POPC   D2A 2815   1.657   8.844   4.640  0.3072  0.0295 -0.0319
  209POPC   C3A 2816   1.361   8.982   5.133 -0.1262 -0.1803  0.2412
  209POPC   C4A 2817   1.364   9.129   5.590 -0.0575 -0.2530  0.1730
  209POPC   C1B 2818   2.239   8.211   4.476 -0.0431  0.1089  0.0376
  209POPC   C2B 2819   2.290   8.118   4.865  0.0670 -0.1580 -0.1488
  209POPC   C3B 2820   2.484   8.152   5.397  0.1509 -0.1412 -0.3185
  209POPC   C4B 2821   2.619   8.347   5.858  0.2791  0.1667 -0.0659
  210POPC   NC3 2822   6.987   8.932   3.374 -0.1053 -0.3023  0.1886
  210POPC   PO4 2823   6.679   8.639   3.597 -0.2960 -0.0674 -0.0205
  210POPC   GL1 2824   6.835   8.666   3.968  0.2368  0.1418  0.0668
  210POPC   GL2 2825   6.509   8.418   4.132 -0.2183 -0.1714  0.0377
  210POPC   C1A 2826   6.927   8.576   4.389  0.0489  0.2648 -0.0940
  210POPC   D2A 2827   7.166   8.454   4.787  0.1847  0.1052 -0.0848
  210POPC   C3A 2828   7.305   8.770   5.092 -0.3881  0.0861  0.1270
  210POPC   C4A 2829   7.441   9.039   5.487 -0.1918  0.0143  0.1673
  210POPC   C1B 2830   6.447   8.733   4.476  0.0204 -0.1285 -0.1459
  210POPC   C2B 2831   6.346   9.085   4.856 -0.2300  0.2908 -0.1308
  210POPC   C3B 2832   5.873   9.174   5.108 -0.1758  0.2865 -0.2925
  210POPC   C4B 2833   5.692   9.460   5.527 -0.0385  0.2294 -0.1329
  211POPC   NC3 2834   4.174   9.731   3.252 -0.2690 -0.0420  0.0853
  211POPC   PO4 2835   4.020   9.395   3.514  0.0709 -0.3401 -0.0969
  211POPC   GL1 2836   3.950   9.424   3.975  0.0468 -0.0356  0.0932
  211POPC   GL2 2837   3.622   9.429   3.951 -0.1017 -0.3148 -0.1001
  211POPC   C1A 2838   3.926   9.159   4.310 -0.1097 -0.3961  0.0575
  211POPC   D2A 2839   3.901   9.030   4.772  0.1279 -0.1160  0.0300
  211POPC   C3A 2840   3.921   8.760   5.135 -0.1750  0.0445  0.0273
  211POPC   C4A 2841   4.303   8.781   5.506 -0.2392  0.2456  0.1255
  211POPC   C1B 2842   3.531   9.528   4.379 -0.0438  0.1469  0.0467
  211POPC   C2B 2843   3.442   9.505   4.762 -0.3037  0.2007 -0.2377
  211POPC   C3B 2844   3.607   9.804   5.102 -0.0833  0.1605 -0.0457
  211POPC   C4B 2845   3.444   9.781   5.367 -0.1293 -0.0491  0.0874
  212POPC   NC3 2846  10.186   6.646   3.300  0.1814  0.2547  0.0615
  212POPC   PO4 2847  10.413   6.900   3.628 -0.1001 -0.1407  0.4685
  212POPC   GL1 2848  10.300   7.138   3.977  0.0965 -0.2098  0.3718
  212POPC   GL2 2849  10.025   7.125   4.103  0.0813 -0.4050  0.1818
  212POPC   C1A 2850  10.578   7.375   4.282  0.2607  0.1753 -0.1399
  212POPC   D2A 2851  10.608   7.338   4.693  0.1260 -0.2087  0.2242
  212POPC   C3A 2852  10.424   7.280   5.104 -0.3151  0.1536 -0.3661
  212POPC   C4A 2853  10.248   7.097   5.504 -0.5110 -0.3179 -0.2793
  212POPC   C1B 2854  10.084   7.331   4.523 -0.2372 -0.0793 -0.2176
  212POPC   C2B 2855   9.881   7.385   5.087 -0.0879  0.1734 -0.0315
  212POPC   C3B 2856   9.756   7.188   5.381 -0.1186  0.3756 -0.1213
  212POPC   C4B 2857   9.781   6.900   5.761  0.3746 -0.2187  0.1340
  213POPC   NC3 2858   1.463  10.294   3.274 -0.3481 -0.1460 -0.2063
  213POPC   PO4 2859   1.704  10.453   3.109  0.0499  0.0446  0.0942
  213POPC   GL1 2860   1.819  10.586   3.604  0.5096 -0.1355 -0.0436
  213POPC   GL2 2861   1.770  10.234   3.648 -0.1432  0.4250 -0.0655
  213POPC   C1A 2862   1.905  10.582   4.013 -0.0784  0.1347 -0.0725
  213POPC   D2A 2863   1.774  10.649   4.409 -0.2601 -0.1520 -0.0394
  213POPC   C3A 2864   1.631  10.809   4.876 -0.0454  0.0565  0.0133
  213POPC   C4A 2865   1.804  10.910   5.327 -0.1587 -0.0162  0.1329
  213POPC   C1B 2866   1.476  10.166   4.035 -0.0347 -0.0514  0.0538
  213POPC   C2B 2867   1.299  10.367   4.467  0.0131  0.1303  0.2505
  213POPC   C3B 2868   1.208  10.591   4.705 -0.3311  0.2677 -0.0448
  213POPC   C4B 2869   1.111  10.965   5.013  0.0024  0.0772  0.3024
  214POPC   NC3 2870   9.631   8.119   3.393 -0.0515  0.0419 -0.0247
  214POPC   PO4 2871   9.529   8.606   3.521  0.1267 -0.5419  0.0324
  214POPC   GL1 2872   9.505   8.464   3.910 -0.0503 -0.0163  0.1767
  214POPC   GL2 2873   9.401   8.158   3.902 -0.2135  0.0394  0.0886
  214POPC   C1A 2874   9.763   8.585   4.170  0.0259  0.1910 -0.2374
  214POPC   D2A 2875  10.090   8.594   4.460  0.1225 -0.1042 -0.2171
  214POPC   C3A 2876  10.020   8.633   4.932 -0.2638  0.1745  0.2920
  214POPC   C4A 2877   9.942   8.375   5.320  0.2464  0.1166 -0.0318
  214POPC   C1B 2878   9.540   8.184   4.338  0.0663  0.0510  0.0090
  214POPC   C2B 2879   9.602   8.322   4.711  0.2170  0.1138 -0.1395
  214POPC   C3B 2880   9.550   8.531   5.068 -0.2696  0.2438 -0.2383
  214POPC   C4B 2881   9.797   8.818   5.302  0.1634 -0.0031 -0.2796
  215POPC   NC3 2882   0.762   1.963   3.407  0.0744 -0.2608 -0.5490
  215POPC   PO4 2883   1.112   1.776   3.648  0.0918 -0.2600 -0.1856
  215POPC   GL1 2884   1.455   1.941   3.999 -0.1233 -0.2375 -0.0649
  215POPC   GL2 2885   1.678   1.810   3.919 -0.1474  0.1002  0.1894
  215POPC   C1A 2886   1.514   1.972   4.476 -0.2287 -0.3743  0.3393
  215POPC   D2A 2887   1.500   2.025   4.958  0.3331 -0.1067 -0.1812
  215POPC   C3A 2888   1.856   2.140   5.235  0.0381 -0.0594 -0.2877
  215POPC   C4A 2889   2.162   2.082   5.511  0.1496  0.3162 -0.0874
  215POPC   C1B 2890   2.002   1.813   4.206 -0.3249  0.2722 -0.1148
  215POPC   C2B 2891   2.042   1.959   4.730 -0.0640 -0.1896  0.0574
  215POPC   C3B 2892   2.338   2.020   5.015  0.0162  0.0978 -0.0632
  215POPC   C4B 2893   2.622   2.184   5.149  0.0576  0.0219  0.0265
  216POPC   NC3 2894   6.015   8.720   2.969 -0.2723  0.1271  0.3075
  216POPC   PO4 2895   5.735   8.628   3.288 -0.0158 -0.0935 -0.2267
  216POPC   GL1 2896   5.387   8.569   3.409 -0.0860  0.2741 -0.0412
  216POPC   GL2 2897   5.213   8.887   3.468 -0.1922  0.1279 -0.3626
  216POPC   C1A 2898   5.143   8.480   3.813  0.0117 -0.0886  0.1326
  216POPC   D2A 2899   5.040   8.705   4.007  0.0232 -0.1420 -0.0709
  216POPC   C3A 2900   4.655   8.761   4.276 -0.0737  0.2703  0.0623
  216POPC   C4A 2901   4.691   8.530   4.694  0.2012 -0.1305 -0.0042
  216POPC   C1B 2902   4.930   9.033   3.674 -0.0727 -0.0697 -0.1481
  216POPC   C2B 2903   4.861   9.262   4.100  0.2609  0.0128 -0.2829
  216POPC   C3B 2904   4.747   9.560   4.423  0.1362  0.0934  0.1089
  216POPC   C4B 2905   4.936   9.660   4.786  0.0866  0.2174  0.1833
  217POPC   NC3 2906   2.400   8.180   2.878 -0.1702  0.1731  0.1637
  217POPC   PO4 2907   2.786   7.908   3.032 -0.0106 -0.0905  0.2738
  217POPC   GL1 2908   2.961   8.051   3.388  0.0011 -0.0305 -0.0944
  217POPC   GL2 2909   2.793   8.126   3.682 -0.2911 -0.0152 -0.2607
  217POPC   C1A 2910   3.315   7.998   3.647 -0.0198 -0.1612 -0.1120
  217POPC   D2A 2911   3.441   8.024   4.108  0.0655  0.0304  0.0720
  217POPC   C3A 2912   3.416   7.623   4.372  0.0453 -0.2445 -0.3053
  217POPC   C4A 2913   3.381   7.668   4.848 -0.1838  0.4250  0.3136
  217POPC   C1B 2914   3.061   8.295   4.020 -0.2003 -0.0055  0.1195
  217POPC   C2B 2915   3.123   8.473   4.349 -0.3185 -0.2139  0.0159
  217POPC   C3B 2916   3.315   8.492   4.810  0.0273 -0.0421  0.1462
  217POPC   C4B 2917   3.340   8.165   5.085 -0.2235  0.1971 -0.0409
  218POPC   NC3 2918   1.179   9.300   3.465  0.0291 -0.2138  0.0086
  218POPC   PO4 2919   1.387   8.862   3.498  0.0442  0.0287 -0.2263
  218POPC   GL1 2920   1.262   9.079   3.867 -0.0168  0.0576 -0.2494
  218POPC   GL2 2921   1.141   9.323   3.969  0.0380 -0.1264  0.1230
  218POPC   C1A 2922   1.217   8.941   4.374 -0.1553  0.0267 -0.1546
  218POPC   D2A 2923   1.235   8.585   4.610 -0.1136  0.1899  0.1362
  218POPC   C3A 2924   1.409   8.510   4.979 -0.0044 -0.1703  0.0752
  218POPC   C4A 2925   1.504   8.172   5.096 -0.1752  0.1001 -0.1841
  218POPC   C1B 2926   1.268   9.696   4.135 -0.1958  0.1674  0.0453
  218POPC   C2B 2927   1.168   9.875   4.482 -0.2849  0.2505  0.0259
  218POPC   C3B 2928   1.242  10.129   4.922 -0.0750  0.0355 -0.0256
  218POPC   C4B 2929   1.114  10.060   5.386  0.0890 -0.1072  0.0790
  219POPC   NC3 2930   8.308   5.587   3.705 -0.0740 -0.1759  0.0167
  219POPC   PO4 2931   8.798   5.547   3.695  0.1614 -0.2806 -0.1969
  219POPC   GL1 2932   8.607   5.589   4.086 -0.1553 -0.1201 -0.2059
  219POPC   GL2 2933   8.343   5.937   4.153 -0.0781  0.0218 -0.0734
  219POPC   C1A 2934   8.306   5.525   4.514  0.1219 -0.2843 -0.0461
  219POPC   D2A 2935   8.132   5.208   4.821 -0.0644  0.1032 -0.1175
  219POPC   C3A 2936   8.206   5.207   5.315  0.0863 -0.2715 -0.1640
  219POPC   C4A 2937   8.570   5.072   5.456 -0.1063  0.1132  0.2143
  219POPC   C1B 2938   8.505   6.071   4.540 -0.2473 -0.0733  0.2011
  219POPC   C2B 2939   8.402   6.199   5.078  0.1153  0.2487  0.1474
  219POPC   C3B 2940   8.651   6.306   5.366  0.0175  0.0443  0.2165
  219POPC   C4B 2941   8.999   6.674   5.548  0.3630  0.1754  0.1491
  220POPC   NC3 2942   9.127   8.743   2.667 -0.1616 -0.0833  0.1727
  220POPC   PO4 2943   9.064   8.632   3.150 -0.2706 -0.1278 -0.2009
  220POPC   GL1 2944   9.093   8.601   3.725  0.1887  0.1762  0.2055
  220POPC   GL2 2945   9.141   8.801   4.030  0.0868  0.0453  0.0462
  220POPC   C1A 2946   8.985   8.296   4.042 -0.1811 -0.0316  0.0676
  220POPC   D2A 2947   9.080   8.391   4.423 -0.0021  0.1616  0.0887
  220POPC   C3A 2948   9.264   8.759   4.532  0.0013 -0.1662 -0.0043
  220POPC   C4A 2949   9.631   8.869   4.675 -0.0300 -0.0525  0.2899
  220POPC   C1B 2950   8.844   8.917   4.295 -0.0742  0.2707 -0.1565
  220POPC   C2B 2951   8.529   9.019   4.401 -0.1865  0.0406 -0.0588
  220POPC   C3B 2952   8.328   8.902   4.748 -0.0397  0.0357 -0.2798
  220POPC   C4B 2953   8.159   8.610   4.719 -0.1872  0.1393  0.1347
  221POPC   NC3 2954  10.345   4.537   3.200  0.0877 -0.2310 -0.0042
  221POPC   PO4 2955  10.664   4.545   3.520 -0.1098  0.0075 -0.3194
  221POPC   GL1 2956  10.391   4.442   3.878  0.0941 -0.0729 -0.1814
  221POPC   GL2 2957  10.461   4.698   4.029  0.0182 -0.0948 -0.0327
  221POPC   C1A 2958  10.240   4.433   4.325 -0.1874  0.0624 -0.1849
  221POPC   D2A 2959  10.024   4.372   4.689 -0.0589  0.0126 -0.2750
  221POPC   C3A 2960   9.897   4.144   5.092  0.1024  0.2308  0.0941
  221POPC   C4A 2961   9.998   4.143   5.491  0.1200 -0.1780  0.0745
  221POPC   C1B 2962  10.060   4.889   4.304 -0.1651  0.0062 -0.1850
  221POPC   C2B 2963  10.001   5.381   4.554  0.1939  0.0902  0.1351
  221POPC   C3B 2964  10.266   5.344   4.902 -0.0198 -0.0105 -0.0110
  221POPC   C4B 2965  10.399   5.511   5.264 -0.0322 -0.0192 -0.5016
  222POPC   NC3 2966  10.673   2.300   3.206 -0.1235  0.0616 -0.1806
  222POPC   PO4 2967  10.467   2.233   3.548 -0.1034 -0.2781 -0.0652
  222POPC   GL1 2968  10.457   2.055   3.956 -0.0398  0.1377 -0.1487
  222POPC   GL2 2969  10.823   2.090   4.029  0.3752  0.1973 -0.3759
  222POPC   C1A 2970  10.114   2.223   4.276 -0.1198  0.0170 -0.2564
  222POPC   D2A 2971   9.941   2.211   4.675  0.0296  0.0572 -0.1727
  222POPC   C3A 2972   9.567   2.025   4.794 -0.1544  0.0422  0.0821
  222POPC   C4A 2973   9.353   2.234   5.126 -0.0083 -0.1038  0.2710
  222POPC   C1B 2974  10.694   1.957   4.398  0.1797 -0.1830 -0.0622
  222POPC   C2B 2975  10.802   2.017   4.880  0.2473  0.1509 -0.2336
  222POPC   C3B 2976  10.915   1.903   5.282  0.2046  0.0189  0.1692
  222POPC   C4B 2977  10.507   1.907   5.246 -0.1391 -0.1682 -0.0529
  223POPC   NC3 2978   3.738   8.142   2.986 -0.1566  0.0851 -0.2520
  223POPC   PO4 2979   3.875   7.738   3.048  0.0265  0.2704 -0.1324
  223POPC   GL1 2980   3.819   7.746   3.512 -0.1036 -0.1705 -0.3583
  223POPC   GL2 2981   4.049   7.584   3.554  0.1761  0.1376 -0.0114
  223POPC   C1A 2982   3.794   7.676   3.949  0.0500  0.0309 -0.0903
  223POPC   D2A 2983   3.984   7.485   4.363 -0.0496 -0.0591  0.2180
  223POPC   C3A 2984   3.897   7.756   4.650  0.1218  0.0589  0.0683
  223POPC   C4A 2985   3.721   7.823   5.139  0.1820 -0.1718  0.0585
  223POPC   C1B 2986   4.219   7.427   3.948 -0.1441  0.1097 -0.1994
  223POPC   C2B 2987   4.410   7.267   4.312  0.0405 -0.3793 -0.1545
  223POPC   C3B 2988   4.733   7.269   4.512  0.0848  0.0370 -0.0905
  223POPC   C4B 2989   5.119   7.350   4.534 -0.4615  0.4711  0.3519
  224POPC   NC3 2990   1.151   2.653   3.862  0.0234 -0.0067  0.3020
  224POPC   PO4 2991   1.042   3.075   3.733 -0.0922  0.0871  0.2158
  224POPC   GL1 2992   0.873   2.947   4.102  0.0572  0.4140 -0.1169
  224POPC   GL2 2993   0.988   2.894   4.289 -0.1886  0.2617  0.0471
  224POPC   C1A 2994   0.583   2.785   4.475  0.2279 -0.2474 -0.2941
  224POPC   D2A 2995   0.657   2.596   4.880 -0.2672 -0.0366  0.0721
  224POPC   C3A 2996   0.873   2.757   5.292 -0.0205  0.2143 -0.2595
  224POPC   C4A 2997   0.669   2.634   5.602 -0.1489  0.0693 -0.3136
  224POPC   C1B 2998   1.132   2.933   4.635  0.0960  0.2129  0.0489
  224POPC   C2B 2999   1.460   2.908   4.927  0.0615 -0.1906  0.3844
  224POPC   C3B 3000   1.755   3.015   5.291 -0.1136  0.0351 -0.0035
  224POPC   C4B 3001   2.036   3.181   5.525  0.2468  0.0565 -0.0964
  225POPC   NC3 3002   7.591   7.128   3.012  0.1992  0.0461 -0.0821
  225POPC   PO4 3003   7.713   7.262   3.393  0.0865 -0.2466  0.2773
  225POPC   GL1 3004   7.861   7.353   3.808 -0.0940 -0.0764 -0.2093
  225POPC   GL2 3005   8.133   7.485   3.807 -0.0082  0.0679 -0.1020
  225POPC   C1A 3006   7.642   7.257   4.154  0.2504  0.1117  0.3074
  225POPC   D2A 3007   7.776   7.083   4.534  0.2815 -0.1849 -0.0769
  225POPC   C3A 3008   7.991   7.373   4.719 -0.0064  0.0812 -0.0541
  225POPC   C4A 3009   7.887   7.757   4.932 -0.0312 -0.0240 -0.5124
  225POPC   C1B 3010   8.095   7.578   4.195 -0.5750 -0.1346  0.0556
  225POPC   C2B 3011   8.118   7.818   4.484 -0.0841  0.1945  0.2111
  225POPC   C3B 3012   8.281   8.050   4.703  0.2004  0.0694  0.0698
  225POPC   C4B 3013   8.590   8.271   4.977 -0.0713 -0.0075  0.1394
  226POPC   NC3 3014   0.660   2.749   3.643  0.4127  0.0019 -0.0544
  226POPC   PO4 3015   0.818   2.355   3.697 -0.0950  0.1081 -0.0068
  226POPC   GL1 3016   0.990   2.199   4.086 -0.1498 -0.0273  0.2200
  226POPC   GL2 3017   0.922   2.372   4.260 -0.1782  0.0949  0.1324
  226POPC   C1A 3018   1.054   1.781   4.282  0.0832 -0.2298 -0.0606
  226POPC   D2A 3019   1.348   1.466   4.497 -0.1035  0.1323  0.2485
  226POPC   C3A 3020   1.342   1.264   4.971  0.4670 -0.0736 -0.0634
  226POPC   C4A 3021   1.701   1.266   5.252 -0.1335  0.0484  0.1800
  226POPC   C1B 3022   0.839   2.201   4.607 -0.0728  0.1725 -0.1334
  226POPC   C2B 3023   0.941   1.959   4.829  0.2427 -0.0282 -0.3648
  226POPC   C3B 3024   1.083   1.680   5.088  0.0853  0.0788  0.1462
  226POPC   C4B 3025   1.396   1.635   5.427  0.0147 -0.1146  0.2811
  227POPC   NC3 3026   6.107   3.247   3.267 -0.3283 -0.3419  0.0491
  227POPC   PO4 3027   6.425   3.140   3.102 -0.2478  0.0801  0.0803
  227POPC   GL1 3028   6.579   3.042   3.554  0.2979  0.1796  0.0093
  227POPC   GL2 3029   6.422   3.385   3.655 -0.0560  0.4125 -0.0558
  227POPC   C1A 3030   6.874   3.130   3.888 -0.0779 -0.1022  0.3578
  227POPC   D2A 3031   7.246   3.274   3.912  0.1938  0.1335 -0.1974
  227POPC   C3A 3032   7.451   3.306   4.333 -0.0296 -0.2292 -0.0905
  227POPC   C4A 3033   7.361   3.195   4.754 -0.0890 -0.0941 -0.0050
  227POPC   C1B 3034   6.526   3.494   4.097  0.1785 -0.1430  0.0171
  227POPC   C2B 3035   6.497   3.333   4.617  0.1792  0.3794 -0.2928
  227POPC   C3B 3036   6.652   3.662   4.853  0.2151 -0.0431  0.0578
  227POPC   C4B 3037   6.863   3.941   5.248 -0.5235  0.1412  0.0019
  228POPC   NC3 3038   1.496   7.684   3.649  0.1047 -0.2066 -0.1848
  228POPC   PO4 3039   1.893   7.643   3.943  0.1032  0.1077  0.0010
  228POPC   GL1 3040   1.833   7.591   4.360 -0.0237 -0.1419 -0.0584
  228POPC   GL2 3041   1.963   7.329   4.482 -0.0691 -0.3297  0.0602
  228POPC   C1A 3042   1.783   7.851   4.649  0.0198 -0.1373  0.0616
  228POPC   D2A 3043   1.872   7.826   5.121 -0.0367 -0.0186  0.2076
  228POPC   C3A 3044   2.173   7.862   5.573  0.1818  0.0029  0.1116
  228POPC   C4A 3045   2.135   8.144   5.919  0.1546 -0.3738  0.1223
  228POPC   C1B 3046   1.709   7.418   4.860 -0.0404  0.1106 -0.3357
  228POPC   C2B 3047   1.660   7.188   5.156  0.1330  0.1507  0.0300
  228POPC   C3B 3048   1.640   6.957   5.604  0.1082 -0.0719  0.2002
  228POPC   C4B 3049   1.438   6.777   6.032 -0.1928 -0.2042  0.1101
  229POPC   NC3 3050   2.118   7.210   4.006  0.2138 -0.4702 -0.2519
  229POPC   PO4 3051   2.348   7.433   3.643 -0.1004  0.1294  0.1571
  229POPC   GL1 3052   2.432   7.822   4.020 -0.1134 -0.0739  0.0208
  229POPC   GL2 3053   2.352   7.658   4.309 -0.0149  0.0900 -0.1367
  229POPC   C1A 3054   2.668   8.152   4.232  0.4320  0.0911  0.2240
  229POPC   D2A 3055   2.707   8.388   4.589  0.0961 -0.3027 -0.1333
  229POPC   C3A 3056   2.774   8.253   4.975 -0.0756  0.1923  0.1994
  229POPC   C4A 3057   2.964   7.743   5.108 -0.1811  0.0558 -0.0139
  229POPC   C1B 3058   2.204   7.663   4.732 -0.0287 -0.0416 -0.0222
  229POPC   C2B 3059   2.172   7.393   5.144 -0.1320  0.1455  0.0684
  229POPC   C3B 3060   2.365   7.395   5.500 -0.2768  0.3437 -0.0743
  229POPC   C4B 3061   2.587   7.263   5.893  0.1326 -0.1815  0.3813
  230POPC   NC3 3062   4.705   0.084   3.170  0.0045  0.0197  0.0878
  230POPC   PO4 3063   4.910  -0.276   3.437  0.2978  0.0739 -0.0137
  230POPC   GL1 3064   5.276  -0.177   3.763  0.0668  0.0887  0.2669
  230POPC   GL2 3065   5.230  -0.197   4.122 -0.0859  0.3144 -0.2514
  230POPC   C1A 3066   5.491   0.207   3.943  0.0907  0.0711  0.2209
  230POPC   D2A 3067   5.556   0.269   4.386  0.0109 -0.1362  0.0006
  230POPC   C3A 3068   5.659   0.019   4.712 -0.1490 -0.0401  0.0077
  230POPC   C4A 3069   5.787  -0.155   5.095  0.0879  0.1970 -0.1329
  230POPC   C1B 3070   5.016   0.131   4.295 -0.1306 -0.1286  0.1211
  230POPC   C2B 3071   4.706   0.308   4.492  0.1051  0.3915  0.0778
  230POPC   C3B 3072   4.548   0.319   4.958 -0.1012 -0.1361  0.0611
  230POPC   C4B 3073   4.324   0.197   5.265  0.2696  0.0617 -0.1577
  231POPC   NC3 3074   3.760   0.389   3.231 -0.0693 -0.1549  0.0838
  231POPC   PO4 3075   3.865   0.802   3.201  0.0132  0.1433 -0.1127
  231POPC   GL1 3076   3.924   0.736   3.641  0.0811 -0.1837  0.3235
  231POPC   GL2 3077   3.673   0.588   3.744 -0.3331  0.2063 -0.1766
  231POPC   C1A 3078   3.954   0.547   4.134  0.1427  0.0662  0.1273
  231POPC   D2A 3079   4.026   0.532   4.552  0.1322 -0.0016 -0.1564
  231POPC   C3A 3080   3.965   0.466   5.003  0.2428 -0.2661  0.1503
  231POPC   C4A 3081   4.194   0.719   5.335  0.2649  0.0146  0.2588
  231POPC   C1B 3082   3.746   1.119   3.985 -0.2045  0.1903 -0.3469
  231POPC   C2B 3083   3.539   1.422   4.212 -0.2343  0.0203 -0.0379
  231POPC   C3B 3084   3.766   1.660   4.604 -0.1367 -0.1490 -0.3846
  231POPC   C4B 3085   3.962   1.521   4.928 -0.2177 -0.0594 -0.1579
  232POPC   NC3 3086   4.967   7.313   2.759  0.1052 -0.3687 -0.0358
  232POPC   PO4 3087   4.881   7.584   3.114 -0.0777 -0.0398  0.3295
  232POPC   GL1 3088   4.730   7.820   3.469 -0.2257  0.0398  0.2890
  232POPC   GL2 3089   4.626   7.652   3.752 -0.1801 -0.0241  0.1170
  232POPC   C1A 3090   4.935   8.029   3.910 -0.0270  0.3221 -0.1941
  232POPC   D2A 3091   4.964   8.267   4.277  0.1249 -0.0306  0.0261
  232POPC   C3A 3092   4.840   8.096   4.576 -0.1281 -0.2484 -0.2945
  232POPC   C4A 3093   4.882   7.750   4.860 -0.2736 -0.0805 -0.0086
  232POPC   C1B 3094   4.735   7.671   4.221  0.0075  0.0426 -0.0929
  232POPC   C2B 3095   5.173   7.784   4.361  0.1336 -0.2085 -0.0218
  232POPC   C3B 3096   5.547   7.637   4.712 -0.1131 -0.0249 -0.0938
  232POPC   C4B 3097   5.372   7.407   5.032  0.0464 -0.0465  0.2041
  233POPC   NC3 3098   1.891   2.900   3.573 -0.0996  0.0552  0.2401
  233POPC   PO4 3099   1.541   2.601   3.548 -0.2303 -0.0824  0.2006
  233POPC   GL1 3100   1.764   2.499   3.879 -0.3778  0.3129 -0.0905
  233POPC   GL2 3101   1.465   2.471   4.172 -0.0257  0.1465  0.1782
  233POPC   C1A 3102   1.974   2.301   4.357  0.0055  0.2441  0.3563
  233POPC   D2A 3103   2.218   2.434   4.650  0.1593 -0.0802  0.2517
  233POPC   C3A 3104   2.189   2.471   5.073 -0.0698  0.0232 -0.3571
  233POPC   C4A 3105   2.207   2.655   5.418 -0.0707 -0.2395  0.2128
  233POPC   C1B 3106   1.267   2.471   4.546 -0.1469 -0.0525 -0.2140
  233POPC   C2B 3107   1.194   2.461   4.973 -0.1622  0.2245  0.1724
  233POPC   C3B 3108   1.057   2.259   5.384  0.1024  0.1583  0.2051
  233POPC   C4B 3109   0.981   2.136   5.883  0.1042  0.0287  0.2733
  234POPC   NC3 3110   8.102   1.300   3.298 -0.1210  0.2978  0.3133
  234POPC   PO4 3111   8.548   1.224   3.166 -0.1001  0.1194 -0.0672
  234POPC   GL1 3112   8.480   1.165   3.607  0.2036 -0.0900  0.2736
  234POPC   GL2 3113   8.159   1.178   3.759 -0.1278 -0.2429  0.2163
  234POPC   C1A 3114   8.644   1.300   3.994 -0.0369  0.3804  0.3446
  234POPC   D2A 3115   8.564   1.014   4.292  0.0180 -0.1783 -0.3481
  234POPC   C3A 3116   8.213   0.801   4.654 -0.1042  0.0601 -0.2277
  234POPC   C4A 3117   8.158   0.747   5.149  0.0314 -0.1528  0.1243
  234POPC   C1B 3118   8.146   1.278   4.249  0.0142  0.1663  0.0862
  234POPC   C2B 3119   7.956   1.190   4.571 -0.0766 -0.0426 -0.0115
  234POPC   C3B 3120   8.041   1.223   5.009 -0.0603  0.3469  0.0258
  234POPC   C4B 3121   8.043   1.421   5.460  0.1296  0.3551 -0.2481
  235POPC   NC3 3122   9.418   6.926   3.491 -0.0027  0.1141 -0.0139
  235POPC   PO4 3123   9.450   7.278   3.527  0.2975  0.2941 -0.0043
  235POPC   GL1 3124   9.450   7.271   3.949  0.1247  0.0046 -0.0758
  235POPC   GL2 3125   9.467   7.569   4.195 -0.0986  0.0762  0.1164
  235POPC   C1A 3126   9.647   7.201   4.441  0.0222 -0.1100 -0.2434
  235POPC   D2A 3127   9.452   7.405   4.766 -0.0722  0.2383  0.2029
  235POPC   C3A 3128   9.341   7.528   5.115  0.0501 -0.3439 -0.0106
  235POPC   C4A 3129   9.178   7.497   5.522  0.0213  0.0360 -0.1198
  235POPC   C1B 3130   9.098   7.333   4.330 -0.3542  0.2548 -0.1031
  235POPC   C2B 3131   8.976   7.266   4.772 -0.1889 -0.1711 -0.1226
  235POPC   C3B 3132   9.094   7.047   5.250 -0.2327 -0.0047 -0.0996
  235POPC   C4B 3133   9.292   7.037   5.747  0.2109  0.2633 -0.0877
  236POPC   NC3 3134   2.246   2.789   3.153 -0.1072 -0.0296  0.1280
  236POPC   PO4 3135   2.276   2.523   3.613  0.0230 -0.3401  0.1671
  236POPC   GL1 3136   2.264   2.630   4.078  0.2567 -0.4144 -0.0617
  236POPC   GL2 3137   2.067   2.906   4.053  0.2672 -0.0588 -0.1292
  236POPC   C1A 3138   2.435   2.919   4.418 -0.1442 -0.2590 -0.3045
  236POPC   D2A 3139   2.444   3.338   4.630  0.0507  0.0866 -0.1302
  236POPC   C3A 3140   2.178   3.489   4.938 -0.1514 -0.1512 -0.0956
  236POPC   C4A 3141   1.883   3.691   5.203  0.5521 -0.0046 -0.0083
  236POPC   C1B 3142   1.832   2.759   4.426 -0.0283  0.1110  0.1954
  236POPC   C2B 3143   1.716   2.461   4.837 -0.0825  0.0609  0.1924
  236POPC   C3B 3144   1.556   2.518   5.332 -0.1185  0.1254  0.0948
  236POPC   C4B 3145   1.228   2.605   5.680  0.1045 -0.1158  0.2235
  237POPC   NC3 3146   8.233  10.710   3.159 -0.3060  0.0284 -0.2263
  237POPC   PO4 3147   8.590  10.981   3.323  0.1824  0.3377  0.1122
  237POPC   GL1 3148   8.576  11.059   3.652 -0.0366 -0.2114 -0.1510
  237POPC   GL2 3149   8.515  11.354   3.802 -0.0866 -0.1870 -0.0158
  237POPC   C1A 3150   8.424  10.899   4.090 -0.1666  0.0367  0.3532
  237POPC   D2A 3151   8.297  11.149   4.345  0.0109  0.1638 -0.1346
  237POPC   C3A 3152   8.177  11.475   4.146 -0.0723 -0.0700  0.0045
  237POPC   C4A 3153   7.844  11.626   4.063 -0.1969 -0.1902 -0.0208
  237POPC   C1B 3154   8.794  11.287   4.134 -0.2697  0.0122  0.0764
  237POPC   C2B 3155   8.721  11.302   4.542 -0.0520  0.0687  0.0293
  237POPC   C3B 3156   8.907  11.338   4.889 -0.0457  0.0533  0.0790
  237POPC   C4B 3157   9.276  11.197   5.112  0.0051  0.3648  0.1075
  238POPC   NC3 3158   2.696   0.445   2.664  0.0415  0.2689  0.0540
  238POPC   PO4 3159   2.667   0.071   2.898 -0.0935 -0.0702  0.1341
  238POPC   GL1 3160   2.597   0.155   3.401 -0.1232 -0.1351  0.0957
  238POPC   GL2 3161   2.415   0.406   3.428 -0.1633  0.2775 -0.3807
  238POPC   C1A 3162   2.772   0.024   3.792 -0.0432  0.1192  0.0213
  238POPC   D2A 3163   2.748   0.011   4.267  0.2246  0.1475  0.1883
  238POPC   C3A 3164   2.634   0.291   4.507 -0.0048  0.0114 -0.2895
  238POPC   C4A 3165   2.654   0.570   4.811  0.2367  0.0485 -0.1330
  238POPC   C1B 3166   2.411   0.364   3.992 -0.0130 -0.1361 -0.0014
  238POPC   C2B 3167   2.028   0.327   4.313  0.0646  0.1928  0.0701
  238POPC   C3B 3168   1.674   0.525   4.499 -0.0826 -0.0227 -0.1371
  238POPC   C4B 3169   1.289   0.673   4.792  0.2100  0.2347  0.0237
  239POPC   NC3 3170   3.804   4.660   3.153  0.2871 -0.0706 -0.3107
  239POPC   PO4 3171   3.767   4.256   3.163  0.4017 -0.1065  0.0007
  239POPC   GL1 3172   3.941   4.155   3.533 -0.2396  0.0673 -0.0358
  239POPC   GL2 3173   3.729   4.074   3.804 -0.2871  0.1780 -0.3337
  239POPC   C1A 3174   4.247   4.166   3.815 -0.2749  0.1912  0.1648
  239POPC   D2A 3175   4.572   4.069   4.095  0.3130 -0.1006  0.1865
  239POPC   C3A 3176   5.004   4.202   4.342  0.1834 -0.1284 -0.1316
  239POPC   C4A 3177   5.180   4.459   4.646  0.0937 -0.0899  0.0700
  239POPC   C1B 3178   4.060   3.927   4.226 -0.0496  0.0161  0.1744
  239POPC   C2B 3179   4.098   3.922   4.713  0.1205 -0.1418  0.1820
  239POPC   C3B 3180   4.119   3.846   5.143 -0.2109 -0.2784  0.3142
  239POPC   C4B 3181   3.809   3.592   5.245  0.2643 -0.0930  0.1173
  240POPC   NC3 3182   6.332   9.430   3.388  0.1144 -0.0690 -0.3412
  240POPC   PO4 3183   6.543   9.846   3.398  0.0166 -0.2720 -0.1294
  240POPC   GL1 3184   6.587   9.695   3.755 -0.0699 -0.0600 -0.0054
  240POPC   GL2 3185   6.815   9.759   4.096  0.1356  0.0459  0.1001
  240POPC   C1A 3186   6.317   9.601   4.160  0.1041  0.2607  0.1599
  240POPC   D2A 3187   6.276   9.282   4.406 -0.3245  0.1406 -0.1478
  240POPC   C3A 3188   5.889   8.960   4.485 -0.2463  0.0955 -0.0893
  240POPC   C4A 3189   5.497   8.996   4.756 -0.3574  0.2369  0.3860
  240POPC   C1B 3190   6.945   9.590   4.414  0.0619 -0.2605  0.4856
  240POPC   C2B 3191   6.734   9.410   4.705  0.0287 -0.0848  0.1483
  240POPC   C3B 3192   6.455   9.631   5.010  0.1061  0.0951 -0.0090
  240POPC   C4B 3193   6.246   9.763   5.424 -0.0179  0.0315 -0.1499
  241POPC   NC3 3194   7.516   5.117   3.434 -0.0598  0.0775  0.1570
  241POPC   PO4 3195   7.905   5.243   3.600  0.1253 -0.0413 -0.2825
  241POPC   GL1 3196   7.806   5.037   3.998  0.0843  0.1541  0.4206
  241POPC   GL2 3197   7.553   4.848   4.002  0.0946  0.1610  0.1174
  241POPC   C1A 3198   7.714   4.988   4.457  0.3642 -0.0788  0.2135
  241POPC   D2A 3199   7.816   4.778   4.874 -0.1335  0.0085  0.0102
  241POPC   C3A 3200   7.531   4.683   5.277  0.1597  0.0790  0.0292
  241POPC   C4A 3201   7.227   4.359   5.213  0.1854  0.0267  0.2192
  241POPC   C1B 3202   7.242   4.679   4.306 -0.2372  0.0001 -0.3386
  241POPC   C2B 3203   7.338   4.506   4.743 -0.4026 -0.2045 -0.1307
  241POPC   C3B 3204   7.085   4.154   4.778  0.0990  0.0150 -0.2437
  241POPC   C4B 3205   6.759   3.936   4.413  0.0341  0.2419  0.0142
  242POPC   NC3 3206   3.617   6.016   3.277  0.1370 -0.0950 -0.2932
  242POPC   PO4 3207   3.342   5.716   3.429 -0.3366 -0.1306  0.0049
  242POPC   GL1 3208   3.619   5.865   3.719 -0.5124 -0.1841 -0.0041
  242POPC   GL2 3209   3.842   6.021   3.922  0.1123  0.0308 -0.0040
  242POPC   C1A 3210   3.930   5.579   3.913 -0.4131 -0.0717 -0.0004
  242POPC   D2A 3211   4.153   5.570   4.258  0.2716  0.0129 -0.1844
  242POPC   C3A 3212   3.900   5.555   4.655  0.1567  0.1152  0.0072
  242POPC   C4A 3213   3.865   5.468   5.097  0.1125 -0.1178 -0.0585
  242POPC   C1B 3214   3.934   6.012   4.419 -0.0498  0.0068  0.1261
  242POPC   C2B 3215   3.992   5.937   4.916  0.4381  0.0835  0.1501
  242POPC   C3B 3216   3.993   5.913   5.330 -0.2819 -0.2767  0.1984
  242POPC   C4B 3217   4.322   5.868   5.691 -0.1018 -0.0397  0.3357
  243POPC   NC3 3218   4.214   2.025   3.307  0.0213 -0.1867 -0.1514
  243POPC   PO4 3219   4.400   1.763   3.026 -0.0457  0.1354 -0.0576
  243POPC   GL1 3220   4.458   1.470   3.364  0.1394  0.1243 -0.0412
  243POPC   GL2 3221   4.520   1.766   3.585  0.2157 -0.1103 -0.2076
  243POPC   C1A 3222   4.581   1.188   3.732 -0.0299 -0.1923 -0.1267
  243POPC   D2A 3223   4.849   0.999   3.881  0.0958 -0.2342  0.0447
  243POPC   C3A 3224   4.718   1.117   4.321 -0.2336 -0.0279 -0.0830
  243POPC   C4A 3225   4.868   1.015   4.789  0.3751 -0.2130  0.2184
  243POPC   C1B 3226   4.550   1.553   4.027 -0.2793  0.1689  0.0124
  243POPC   C2B 3227   4.739   1.585   4.460 -0.2015 -0.1430  0.1627
  243POPC   C3B 3228   4.855   1.537   4.923  0.1494  0.1853 -0.1342
  243POPC   C4B 3229   5.025   1.176   5.271 -0.1150  0.1224  0.0923
  244POPC   NC3 3230   2.577   2.170   3.540 -0.2195 -0.5678  0.1385
  244POPC   PO4 3231   2.630   1.746   3.620 -0.1500 -0.0592 -0.2830
  244POPC   GL1 3232   2.563   1.879   3.962  0.2980 -0.0716  0.2890
  244POPC   GL2 3233   2.326   2.124   3.997 -0.2416  0.2638  0.1909
  244POPC   C1A 3234   2.848   2.001   4.222  0.3982  0.2485 -0.3297
  244POPC   D2A 3235   3.151   2.284   4.357 -0.2060 -0.1728 -0.0791
  244POPC   C3A 3236   3.287   2.153   4.854  0.0849 -0.1302  0.1197
  244POPC   C4A 3237   3.124   2.274   5.174  0.0350 -0.4357  0.2326
  244POPC   C1B 3238   2.414   2.004   4.414  0.0815  0.0554 -0.4332
  244POPC   C2B 3239   2.673   1.848   4.686 -0.0232 -0.0611  0.2132
  244POPC   C3B 3240   2.917   1.785   5.009 -0.1551  0.4252 -0.1457
  244POPC   C4B 3241   3.262   1.870   5.491 -0.2005  0.0163  0.0781
  245POPC   NC3 3242   6.031   2.533   2.810 -0.2024 -0.0700  0.0327
  245POPC   PO4 3243   6.310   2.642   3.180  0.0848 -0.1705 -0.1526
  245POPC   GL1 3244   6.126   2.812   3.576 -0.1265 -0.1768  0.0219
  245POPC   GL2 3245   5.733   2.921   3.714  0.0176 -0.0923 -0.0824
  245POPC   C1A 3246   6.095   2.740   3.974  0.1531  0.0150 -0.1132
  245POPC   D2A 3247   6.195   2.567   4.361 -0.3532  0.4036  0.0994
  245POPC   C3A 3248   6.114   2.472   4.758 -0.3737 -0.1072 -0.5392
  245POPC   C4A 3249   6.447   2.334   5.074  0.0964  0.2505 -0.3058
  245POPC   C1B 3250   5.640   2.930   4.142 -0.1090  0.2591  0.1027
  245POPC   C2B 3251   5.735   2.788   4.614 -0.2162 -0.2247 -0.1686
  245POPC   C3B 3252   5.751   2.808   5.104  0.0487 -0.0762 -0.0275
  245POPC   C4B 3253   5.374   2.849   5.394 -0.1289 -0.1106  0.0045
  246POPC   NC3 3254   7.638   6.207   3.490  0.2697  0.2598  0.0094
  246POPC   PO4 3255   7.275   6.009   3.644  0.3046 -0.1109 -0.1367
  246POPC   GL1 3256   7.391   6.008   4.062 -0.0259  0.0923  0.2659
  246POPC   GL2 3257   7.485   6.308   4.034 -0.2820 -0.0962  0.2086
  246POPC   C1A 3258   7.490   5.793   4.382 -0.1794  0.0704 -0.2115
  246POPC   D2A 3259   7.724   5.427   4.653 -0.2456  0.0665  0.2161
  246POPC   C3A 3260   7.725   5.338   5.129 -0.0509  0.0653 -0.1910
  246POPC   C4A 3261   7.359   5.344   5.407  0.5439 -0.0210  0.0344
  246POPC   C1B 3262   7.553   6.257   4.520 -0.1173  0.0533 -0.0189
  246POPC   C2B 3263   7.439   6.267   4.824 -0.2240  0.0348 -0.0784
  246POPC   C3B 3264   7.154   6.512   5.024 -0.1142 -0.0339 -0.1726
  246POPC   C4B 3265   6.877   6.560   5.264 -0.3388  0.0846  0.0340
  247POPC   NC3 3266   6.207   0.560   3.211 -0.1974 -0.1690 -0.1907
  247POPC   PO4 3267   6.648   0.652   3.241 -0.0469  0.2644  0.0763
  247POPC   GL1 3268   6.476   0.369   3.684 -0.0234 -0.0558  0.2909
  247POPC   GL2 3269   6.749   0.157   3.919 -0.0773  0.0019 -0.2258
  247POPC   C1A 3270   6.333   0.607   4.129 -0.0111  0.4705  0.1363
  247POPC   D2A 3271   6.496   0.942   4.272 -0.0627 -0.1221 -0.0078
  247POPC   C3A 3272   6.310   1.337   4.067  0.1544 -0.1808 -0.0112
  247POPC   C4A 3273   5.945   1.669   4.266 -0.2116  0.3148  0.3381
  247POPC   C1B 3274   6.877   0.154   4.406 -0.0195 -0.1561 -0.1053
  247POPC   C2B 3275   6.733   0.579   4.770  0.3576 -0.0512  0.0851
  247POPC   C3B 3276   6.810   0.764   5.130  0.1098 -0.4229  0.0240
  247POPC   C4B 3277   6.817   1.192   5.245  0.0055  0.0837  0.1900
  248POPC   NC3 3278   9.364   0.935   3.398  0.0128  0.1648  0.0352
  248POPC   PO4 3279   9.714   1.196   3.591  0.1585  0.4370  0.1815
  248POPC   GL1 3280   9.978   1.087   4.016  0.0160 -0.1021 -0.2438
  248POPC   GL2 3281  10.277   0.929   3.990 -0.2398  0.2092  0.1128
  248POPC   C1A 3282  10.058   1.189   4.320  0.1015 -0.1620 -0.0942
  248POPC   D2A 3283  10.211   1.363   4.861 -0.2168 -0.2698  0.1384
  248POPC   C3A 3284  10.343   1.292   5.318 -0.0685 -0.2901  0.2444
  248POPC   C4A 3285  10.675   1.146   5.452  0.0414  0.3022 -0.1645
  248POPC   C1B 3286  10.148   0.696   4.304  0.1191 -0.1177 -0.0818
  248POPC   C2B 3287  10.303   0.727   4.713  0.2576  0.3547  0.3591
  248POPC   C3B 3288  10.580   1.035   4.898  0.1211 -0.1501 -0.0405
  248POPC   C4B 3289  10.683   1.496   4.997 -0.2175 -0.0229  0.2778
  249POPC   NC3 3290  10.225   4.919   3.641 -0.1427  0.0179  0.0161
  249POPC   PO4 3291  10.469   5.326   3.570  0.2431 -0.0666  0.1178
  249POPC   GL1 3292  10.304   5.444   3.955 -0.0043  0.3811 -0.0165
  249POPC   GL2 3293   9.959   5.508   3.924  0.1583 -0.0840 -0.2162
  249POPC   C1A 3294  10.431   5.247   4.258 -0.0651 -0.1586 -0.0759
  249POPC   D2A 3295  10.539   5.655   4.531  0.0381  0.0169 -0.0011
  249POPC   C3A 3296  10.319   5.896   4.935  0.0527  0.0291 -0.0766
  249POPC   C4A 3297  10.278   6.397   4.938  0.2074  0.0675 -0.0755
  249POPC   C1B 3298  10.025   5.822   4.246  0.1506 -0.2372 -0.1377
  249POPC   C2B 3299   9.964   6.120   4.681 -0.0885 -0.0823  0.0539
  249POPC   C3B 3300   9.821   6.161   5.175  0.0973  0.0651 -0.2286
  249POPC   C4B 3301   9.332   6.166   5.382 -0.1103  0.0816 -0.2291
  250POPC   NC3 3302   5.499   4.929   3.207 -0.1994  0.0775  0.0184
  250POPC   PO4 3303   5.659   4.494   3.111  0.1684  0.0058 -0.0485
  250POPC   GL1 3304   5.723   4.708   3.615  0.2639  0.2345  0.1835
  250POPC   GL2 3305   6.000   4.818   3.636 -0.4834  0.1735  0.2345
  250POPC   C1A 3306   5.385   4.774   3.931  0.0958  0.0234  0.2534
  250POPC   D2A 3307   5.034   4.760   4.219  0.0342  0.0239  0.0255
  250POPC   C3A 3308   4.855   5.090   4.428 -0.2140 -0.0552 -0.0144
  250POPC   C4A 3309   4.768   5.477   4.448  0.0406 -0.0067  0.1217
  250POPC   C1B 3310   6.246   4.955   3.882  0.1185  0.1970  0.0963
  250POPC   C2B 3311   6.386   5.187   4.267 -0.2252 -0.0241  0.2607
  250POPC   C3B 3312   6.243   5.370   4.616 -0.0892  0.3706 -0.3090
  250POPC   C4B 3313   6.251   5.294   5.076 -0.0075  0.1829 -0.0716
  251POPC   NC3 3314   9.034   3.597   3.094 -0.1392 -0.3227  0.2261
  251POPC   PO4 3315   9.121   3.721   3.413  0.0413  0.1873 -0.2188
  251POPC   GL1 3316   9.117   3.890   3.831 -0.0798  0.3579  0.2299
  251POPC   GL2 3317   9.459   3.805   3.842 -0.0544  0.1002 -0.0047
  251POPC   C1A 3318   8.939   3.882   4.226  0.0979 -0.0226  0.0632
  251POPC   D2A 3319   9.112   3.835   4.612 -0.0507  0.1063 -0.0820
  251POPC   C3A 3320   9.230   3.467   4.790  0.1969 -0.0887  0.1712
  251POPC   C4A 3321   9.197   3.384   5.211 -0.0445 -0.1217 -0.3676
  251POPC   C1B 3322   9.495   3.783   4.280 -0.2344  0.0009 -0.0460
  251POPC   C2B 3323   9.632   4.047   4.634  0.0776 -0.5207 -0.0490
  251POPC   C3B 3324   9.386   4.264   5.037  0.1811  0.0448  0.4056
  251POPC   C4B 3325   9.340   4.669   5.112 -0.0779  0.0652 -0.0747
  252POPC   NC3 3326   6.868   6.177   3.417  0.0304 -0.4111 -0.0351
  252POPC   PO4 3327   6.550   6.503   3.264 -0.3250  0.0100 -0.2876
  252POPC   GL1 3328   6.550   6.629   3.656 -0.4956 -0.1494 -0.2552
  252POPC   GL2 3329   6.355   6.909   3.851  0.0013 -0.0187 -0.3635
  252POPC   C1A 3330   6.374   6.475   4.060 -0.0564  0.0656  0.0753
  252POPC   D2A 3331   6.551   6.160   4.297  0.1260 -0.1069 -0.0235
  252POPC   C3A 3332   6.483   6.305   4.657 -0.1212 -0.2159 -0.2924
  252POPC   C4A 3333   6.507   6.232   5.106  0.2091  0.1891 -0.2438
  252POPC   C1B 3334   6.087   6.910   4.185  0.1917 -0.1991 -0.2336
  252POPC   C2B 3335   6.009   6.779   4.632 -0.2534  0.0752  0.0661
  252POPC   C3B 3336   5.661   6.664   4.972 -0.1148 -0.1146 -0.0261
  252POPC   C4B 3337   5.384   6.865   5.090 -0.2584  0.1087  0.2052
  253POPC   NC3 3338   3.347   9.720   2.794 -0.0041  0.1303 -0.0860
  253POPC   PO4 3339   3.642   9.710   3.157  0.0685  0.1901 -0.2634
  253POPC   GL1 3340   3.496   9.923   3.481 -0.0339 -0.0752  0.3734
  253POPC   GL2 3341   3.777   9.863   3.672 -0.0192  0.0652  0.0343
  253POPC   C1A 3342   3.333   9.907   3.918 -0.2439 -0.2095  0.1934
  253POPC   D2A 3343   3.394  10.061   4.319  0.2438 -0.4028  0.0096
  253POPC   C3A 3344   3.730  10.411   4.384 -0.1975 -0.1782  0.2299
  253POPC   C4A 3345   4.061  10.830   4.275  0.1159  0.0093 -0.0814
  253POPC   C1B 3346   3.818   9.899   4.055  0.0986 -0.0347  0.3585
  253POPC   C2B 3347   3.826   9.888   4.484  0.5181  0.3822 -0.1278
  253POPC   C3B 3348   3.983   9.610   4.847  0.1669 -0.1434 -0.0935
  253POPC   C4B 3349   3.748   9.316   5.166  0.1690 -0.2269  0.1929
  254POPC   NC3 3350   0.766   3.163   3.359 -0.2620  0.4057 -0.2466
  254POPC   PO4 3351   0.524   3.261   3.583 -0.1520 -0.2849 -0.0524
  254POPC   GL1 3352   0.487   3.263   3.860 -0.2634 -0.0273 -0.2207
  254POPC   GL2 3353   0.259   2.990   3.989 -0.1265 -0.0051 -0.1698
  254POPC   C1A 3354   0.337   3.257   4.369 -0.1338  0.2835 -0.0087
  254POPC   D2A 3355   0.132   3.091   4.714 -0.3665 -0.0713 -0.1713
  254POPC   C3A 3356   0.088   2.665   4.715 -0.0178  0.0054  0.1315
  254POPC   C4A 3357   0.318   2.353   4.588 -0.1038  0.0723 -0.3087
  254POPC   C1B 3358  -0.103   3.057   4.260  0.1974  0.1052 -0.0533
  254POPC   C2B 3359  -0.353   3.000   4.621 -0.1362 -0.1491 -0.0853
  254POPC   C3B 3360  -0.235   2.971   5.031  0.0147  0.1508 -0.2831
  254POPC   C4B 3361  -0.121   2.866   5.396 -0.0307  0.4485  0.2313
  255POPC   NC3 3362   2.842   5.679   3.451  0.0872 -0.0877 -0.1939
  255POPC   PO4 3363   2.708   5.358   3.172  0.0075 -0.0239 -0.1589
  255POPC   GL1 3364   2.821   5.140   3.496 -0.0046  0.0123 -0.2210
  255POPC   GL2 3365   3.080   5.323   3.636  0.0734  0.0631 -0.3491
  255POPC   C1A 3366   2.771   5.110   3.944  0.3556 -0.2891 -0.0001
  255POPC   D2A 3367   3.010   5.248   4.347 -0.2103  0.1076 -0.0580
  255POPC   C3A 3368   2.934   5.108   4.708  0.1471 -0.1710 -0.0632
  255POPC   C4A 3369   3.075   4.669   4.873  0.0956 -0.2931  0.0253
  255POPC   C1B 3370   3.264   5.513   4.009  0.2810 -0.1562 -0.2335
  255POPC   C2B 3371   3.452   5.692   4.362 -0.3762  0.1443  0.0796
  255POPC   C3B 3372   3.479   5.751   4.839 -0.1506 -0.2623  0.3522
  255POPC   C4B 3373   3.547   6.004   5.222  0.0439  0.3151  0.1800
  256POPC   NC3 3374   8.632  10.445   2.998  0.2524  0.0477  0.0776
  256POPC   PO4 3375   8.903  10.455   3.358  0.0807 -0.0648  0.1933
  256POPC   GL1 3376   8.689  10.565   3.755  0.2194  0.1533  0.2029
  256POPC   GL2 3377   8.623  10.341   3.928  0.1552 -0.1854 -0.4112
  256POPC   C1A 3378   8.884  10.688   4.126  0.0307  0.0764  0.0241
  256POPC   D2A 3379   8.969  10.380   4.492 -0.2593  0.2495 -0.1508
  256POPC   C3A 3380   8.646  10.297   4.865 -0.1493 -0.2217  0.0664
  256POPC   C4A 3381   8.498  10.636   5.078 -0.2488 -0.0044 -0.1128
  256POPC   C1B 3382   8.519  10.407   4.379  0.1094 -0.0508  0.0996
  256POPC   C2B 3383   8.173  10.613   4.681  0.1154 -0.1691 -0.0170
  256POPC   C3B 3384   8.009  10.642   5.086 -0.1896 -0.0877 -0.0677
  256POPC   C4B 3385   8.000  10.561   5.414 -0.0489 -0.0375 -0.1205
  257POPC   NC3 3386   8.284   2.302   2.602 -0.1842 -0.3431 -0.0888
  257POPC   PO4 3387   8.288   1.893   2.935  0.0380 -0.1418  0.5367
  257POPC   GL1 3388   8.281   1.839   3.321  0.1879 -0.2911 -0.1895
  257POPC   GL2 3389   8.373   1.666   3.569 -0.1991 -0.0123  0.0049
  257POPC   C1A 3390   8.061   2.002   3.715  0.1049 -0.0889 -0.2705
  257POPC   D2A 3391   7.659   2.050   3.953  0.0240  0.1939  0.3938
  257POPC   C3A 3392   7.280   2.229   3.961  0.0438 -0.0764 -0.1974
  257POPC   C4A 3393   6.830   2.070   3.883 -0.0578 -0.1173 -0.0478
  257POPC   C1B 3394   8.473   1.755   3.977 -0.2886 -0.2537 -0.2456
  257POPC   C2B 3395   8.462   1.632   4.379 -0.2359  0.2581 -0.1536
  257POPC   C3B 3396   8.442   1.253   4.759 -0.1338  0.0473 -0.1071
  257POPC   C4B 3397   8.588   0.922   4.983 -0.1843 -0.0870  0.1724
  258POPC   NC3 3398   7.634   0.178   3.416  0.1090 -0.0828  0.0921
  258POPC   PO4 3399   7.747   0.622   3.266 -0.3430 -0.0097 -0.1524
  258POPC   GL1 3400   7.752   0.621   3.684 -0.2797  0.2603 -0.0495
  258POPC   GL2 3401   7.425   0.612   3.703  0.1457 -0.2233  0.1273
  258POPC   C1A 3402   7.850   0.365   4.095  0.1590 -0.2478  0.1495
  258POPC   D2A 3403   7.959  -0.029   4.224  0.2101 -0.0478  0.1414
  258POPC   C3A 3404   7.648  -0.178   4.575 -0.0821  0.1759 -0.1619
  258POPC   C4A 3405   7.194  -0.202   4.541 -0.2825  0.1071 -0.2743
  258POPC   C1B 3406   7.428   0.661   4.087  0.3382 -0.1230  0.0734
  258POPC   C2B 3407   7.621   0.777   4.498 -0.1264  0.1482  0.0400
  258POPC   C3B 3408   7.684   0.715   4.846  0.0467  0.0082 -0.1055
  258POPC   C4B 3409   7.781   0.366   5.127  0.0683 -0.3465  0.1933
  259POPC   NC3 3410   0.575   6.569   3.577  0.0147  0.0653 -0.2377
  259POPC   PO4 3411   0.722   6.842   3.939  0.0220  0.1883 -0.3423
  259POPC   GL1 3412   0.395   7.186   4.096  0.3494  0.0312 -0.2265
  259POPC   GL2 3413   0.143   6.925   4.206 -0.2992 -0.2257  0.2221
  259POPC   C1A 3414   0.340   7.404   4.441 -0.0412  0.1348  0.1609
  259POPC   D2A 3415   0.356   7.420   4.877 -0.1921 -0.2930  0.1541
  259POPC   C3A 3416   0.142   7.099   5.150 -0.0854  0.1438 -0.0045
  259POPC   C4A 3417   0.041   7.054   5.558  0.1037 -0.0582  0.0195
  259POPC   C1B 3418   0.170   6.837   4.716 -0.0289  0.3224  0.0600
  259POPC   C2B 3419  -0.012   6.600   5.084 -0.3664  0.2410  0.2206
  259POPC   C3B 3420  -0.111   6.634   5.533  0.3240  0.1556  0.0516
  259POPC   C4B 3421  -0.471   6.664   5.854 -0.2002 -0.2328  0.0866
  260POPC   NC3 3422   7.918  10.022   3.740  0.3137 -0.0717  0.1742
  260POPC   PO4 3423   7.538   9.673   3.656  0.3999  0.0838  0.1536
  260POPC   GL1 3424   7.396   9.857   3.955  0.0300 -0.1302 -0.2788
  260POPC   GL2 3425   7.618  10.034   4.115 -0.1190  0.0918  0.1023
  260POPC   C1A 3426   7.217  10.046   4.359  0.1055 -0.0049 -0.1597
  260POPC   D2A 3427   6.948   9.979   4.676  0.1710  0.3041 -0.3999
  260POPC   C3A 3428   6.923   9.747   5.037  0.0927 -0.0468 -0.3377
  260POPC   C4A 3429   7.074   9.326   5.102  0.0692  0.5136  0.0066
  260POPC   C1B 3430   7.910  10.169   4.467  0.0464 -0.0636  0.3687
  260POPC   C2B 3431   7.972  10.138   4.860 -0.0722 -0.0605 -0.0319
  260POPC   C3B 3432   8.200  10.152   5.194  0.3279 -0.0408 -0.0599
  260POPC   C4B 3433   8.426  10.391   5.561  0.0648 -0.0318  0.1740
  261POPC   NC3 3434   2.942   1.408   3.450 -0.0620  0.1822  0.2899
  261POPC   PO4 3435   3.385   1.597   3.257  0.0791  0.2782  0.0776
  261POPC   GL1 3436   3.429   1.604   3.656  0.2119 -0.3895  0.0591
  261POPC   GL2 3437   3.712   1.654   3.802 -0.0719  0.0572 -0.2420
  261POPC   C1A 3438   3.048   1.590   4.024 -0.2341 -0.1730  0.4114
  261POPC   D2A 3439   2.820   1.525   4.342  0.3456 -0.3206 -0.0341
  261POPC   C3A 3440   2.960   1.347   4.700 -0.4041 -0.0062 -0.1885
  261POPC   C4A 3441   3.372   1.082   4.923 -0.1104 -0.3995 -0.1475
  261POPC   C1B 3442   4.062   1.605   4.133  0.0825 -0.0337 -0.0507
  261POPC   C2B 3443   4.230   1.669   4.398  0.0250  0.0516  0.2419
  261POPC   C3B 3444   4.405   1.808   4.827 -0.1712 -0.4238 -0.1669
  261POPC   C4B 3445   4.301   1.688   5.299 -0.0405  0.0122 -0.3417
  262POPC   NC3 3446   9.347   0.080   3.223  0.3547 -0.0587  0.0739
  262POPC   PO4 3447   9.616   0.156   3.634  0.1312  0.0523  0.0269
  262POPC   GL1 3448   9.520   0.115   4.034  0.5714  0.3704 -0.1409
  262POPC   GL2 3449   9.336  -0.154   4.252 -0.2086 -0.3702  0.1783
  262POPC   C1A 3450   9.294   0.387   4.268  0.0790  0.1857  0.0213
  262POPC   D2A 3451   9.401   0.580   4.641 -0.0678 -0.0059 -0.0722
  262POPC   C3A 3452   9.802   0.624   4.847 -0.1884 -0.0673 -0.2546
  262POPC   C4A 3453   9.835   0.404   5.337  0.0781  0.2160  0.1410
  262POPC   C1B 3454   9.487  -0.584   4.418  0.2078  0.2811  0.1164
  262POPC   C2B 3455   9.380  -0.954   4.608  0.1436 -0.1425 -0.3483
  262POPC   C3B 3456   9.206  -1.146   5.000  0.0208  0.2919 -0.0489
  262POPC   C4B 3457   9.035  -1.240   5.415  0.1829  0.0561  0.0135
  263POPC   NC3 3458   8.167   7.354   3.309 -0.0630 -0.1463  0.0450
  263POPC   PO4 3459   8.569   7.343   3.194  0.1275  0.1569  0.1106
  263POPC   GL1 3460   8.515   7.179   3.630  0.0490 -0.4635  0.1160
  263POPC   GL2 3461   8.227   7.024   3.630 -0.1035 -0.0437  0.1989
  263POPC   C1A 3462   8.651   7.271   4.080  0.1656 -0.1143  0.0193
  263POPC   D2A 3463   8.524   7.489   4.454 -0.0914  0.1384 -0.2483
  263POPC   C3A 3464   8.463   7.418   4.899 -0.0205  0.3877  0.1660
  263POPC   C4A 3465   8.234   7.193   5.175  0.2032  0.3477 -0.0639
  263POPC   C1B 3466   8.194   7.092   4.053 -0.1134 -0.2310  0.0565
  263POPC   C2B 3467   8.290   7.043   4.386  0.3075  0.0695  0.0781
  263POPC   C3B 3468   8.188   6.821   4.796 -0.2482  0.1457  0.0756
  263POPC   C4B 3469   8.234   6.681   5.078  0.1150  0.2849 -0.2793
  264POPC   NC3 3470   3.423   2.051   3.426  0.1892  0.1927 -0.0224
  264POPC   PO4 3471   3.121   2.417   3.394 -0.0492 -0.1549  0.0320
  264POPC   GL1 3472   2.825   2.515   3.814  0.0723 -0.1714 -0.4447
  264POPC   GL2 3473   2.978   2.642   4.002  0.1710  0.0091  0.2625
  264POPC   C1A 3474   2.686   2.461   4.346  0.0807  0.1636  0.2789
  264POPC   D2A 3475   2.836   2.412   4.738  0.1068 -0.1162  0.2636
  264POPC   C3A 3476   2.607   2.667   4.936  0.3673 -0.0695  0.2373
  264POPC   C4A 3477   2.804   2.623   5.295  0.2071  0.2049 -0.1871
  264POPC   C1B 3478   3.007   2.793   4.429 -0.2244 -0.0729 -0.0284
  264POPC   C2B 3479   2.985   2.991   4.854  0.0282  0.0605  0.0142
  264POPC   C3B 3480   3.010   3.095   5.249  0.0160 -0.1551 -0.0440
  264POPC   C4B 3481   3.014   3.008   5.658 -0.0198  0.0542  0.1152
  265POPC   NC3 3482   5.342   1.688   3.304  0.0136  0.1241  0.3463
  265POPC   PO4 3483   5.432   1.265   3.276 -0.0310 -0.1757  0.1548
  265POPC   GL1 3484   5.122   1.370   3.707 -0.0652 -0.3500 -0.1150
  265POPC   GL2 3485   5.025   1.786   3.654 -0.1025  0.5066  0.1516
  265POPC   C1A 3486   5.070   1.537   4.111  0.0934  0.3948  0.1121
  265POPC   D2A 3487   5.165   1.290   4.506  0.1092 -0.0063  0.0272
  265POPC   C3A 3488   5.310   1.506   4.793 -0.0469  0.0484 -0.4541
  265POPC   C4A 3489   5.268   1.926   5.009 -0.0358 -0.0842 -0.1360
  265POPC   C1B 3490   4.868   1.996   3.989  0.2117  0.2568 -0.3279
  265POPC   C2B 3491   4.420   2.101   4.153  0.1569  0.0744 -0.2619
  265POPC   C3B 3492   4.028   2.127   4.392  0.0532  0.2282  0.0783
  265POPC   C4B 3493   3.642   2.387   4.424 -0.2272 -0.3018  0.0011
  266POPC   NC3 3494   4.601   6.345   3.449  0.1278 -0.1825 -0.2814
  266POPC   PO4 3495   4.173   6.100   3.383  0.1410 -0.1441 -0.3547
  266POPC   GL1 3496   4.068   6.401   3.682 -0.3470  0.1177 -0.0157
  266POPC   GL2 3497   4.336   6.370   3.944 -0.0287  0.1354 -0.1143
  266POPC   C1A 3498   3.833   6.447   4.092 -0.2511  0.0315  0.0788
  266POPC   D2A 3499   3.792   6.501   4.476 -0.2589  0.3137 -0.0218
  266POPC   C3A 3500   4.224   6.365   4.682 -0.4987  0.0538 -0.2728
  266POPC   C4A 3501   4.356   6.242   5.112  0.1831  0.1773 -0.0927
  266POPC   C1B 3502   4.454   6.501   4.285 -0.3159  0.0081  0.4903
  266POPC   C2B 3503   4.778   6.370   4.637 -0.2332  0.1246 -0.2837
  266POPC   C3B 3504   4.749   6.534   5.011 -0.2570  0.1951 -0.2872
  266POPC   C4B 3505   4.911   6.791   5.434 -0.2369 -0.2117 -0.0252
  267POPC   NC3 3506   0.004  10.152   3.286  0.2376 -0.0886 -0.0150
  267POPC   PO4 3507  -0.397  10.041   3.541  0.1258 -0.1820  0.0244
  267POPC   GL1 3508  -0.456   9.881   3.956 -0.0771 -0.0840  0.2210
  267POPC   GL2 3509  -0.712   9.973   3.939  0.5012  0.2395 -0.0542
  267POPC   C1A 3510  -0.434   9.701   4.368  0.1459 -0.4952 -0.1227
  267POPC   D2A 3511  -0.426   9.619   4.896  0.0159  0.1062  0.2810
  267POPC   C3A 3512  -0.720   9.699   5.102  0.0187  0.1247  0.1723
  267POPC   C4A 3513  -0.725   9.960   5.509 -0.0226 -0.0969  0.2221
  267POPC   C1B 3514  -0.799  10.053   4.351 -0.1453  0.0915 -0.2125
  267POPC   C2B 3515  -0.842  10.024   4.718 -0.2551 -0.0102 -0.2757
  267POPC   C3B 3516  -0.794  10.264   5.080 -0.3701  0.0759 -0.1336
  267POPC   C4B 3517  -1.009  10.642   5.100 -0.2109 -0.0534  0.0648
  268POPC   NC3 3518   7.194   8.409   3.508 -0.1442  0.2276 -0.3808
  268POPC   PO4 3519   7.161   7.970   3.262  0.0485 -0.1015 -0.1865
  268POPC   GL1 3520   7.314   7.985   3.726  0.2746  0.4693 -0.1033
  268POPC   GL2 3521   7.183   8.223   3.962 -0.1985 -0.1834 -0.1398
  268POPC   C1A 3522   7.195   7.755   4.109  0.0352  0.1018 -0.0261
  268POPC   D2A 3523   7.137   7.761   4.574 -0.2924  0.1015 -0.0080
  268POPC   C3A 3524   7.392   7.993   4.908 -0.2036 -0.3989 -0.0489
  268POPC   C4A 3525   7.373   7.852   5.226 -0.0946  0.0761 -0.3509
  268POPC   C1B 3526   6.888   8.084   4.306  0.2442  0.2718  0.1199
  268POPC   C2B 3527   6.687   8.146   4.617  0.0952 -0.1055  0.3373
  268POPC   C3B 3528   6.663   8.519   4.867  0.1791  0.2234  0.3796
  268POPC   C4B 3529   6.789   8.505   5.191  0.0649 -0.0029 -0.1186
  269POPC   NC3 3530   4.062   0.574   2.773  0.2624 -0.1498  0.0628
  269POPC   PO4 3531   4.266   0.491   3.170 -0.1059 -0.3110  0.2439
  269POPC   GL1 3532   4.110   0.283   3.592  0.1319 -0.2486  0.4274
  269POPC   GL2 3533   4.374   0.071   3.589  0.3120 -0.3039  0.1829
  269POPC   C1A 3534   3.850   0.105   3.805  0.1767 -0.0055 -0.2472
  269POPC   D2A 3535   3.478   0.142   4.121  0.2432 -0.1950  0.1304
  269POPC   C3A 3536   3.617   0.218   4.618  0.1153  0.0181 -0.1874
  269POPC   C4A 3537   3.519   0.590   4.844 -0.0797 -0.0045  0.0231
  269POPC   C1B 3538   4.412   0.556   3.880  0.0162 -0.0097 -0.1386
  269POPC   C2B 3539   4.403   0.746   4.359 -0.0034 -0.1011 -0.0411
  269POPC   C3B 3540   4.402   0.788   4.866 -0.0294 -0.0568 -0.0602
  269POPC   C4B 3541   4.666   0.736   5.185 -0.2677 -0.0409  0.2932
  270POPC   NC3 3542   2.053  10.132   3.216 -0.1653  0.2677 -0.0105
  270POPC   PO4 3543   2.476  10.370   3.266 -0.0769  0.1638  0.2430
  270POPC   GL1 3544   2.258  10.331   3.636  0.2460 -0.1759  0.3055
  270POPC   GL2 3545   2.308  10.651   3.749  0.2219  0.0319 -0.2324
  270POPC   C1A 3546   2.124  10.058   4.075  0.1465 -0.2702  0.1627
  270POPC   D2A 3547   2.267  10.104   4.599  0.1173  0.0170  0.0326
  270POPC   C3A 3548   2.042   9.864   4.800  0.1122  0.4311  0.3865
  270POPC   C4A 3549   1.670   9.757   4.838 -0.1407 -0.0516  0.2172
  270POPC   C1B 3550   2.274  10.591   4.281  0.1417 -0.2273  0.1677
  270POPC   C2B 3551   2.453  10.532   4.687 -0.3885  0.1790 -0.1213
  270POPC   C3B 3552   2.234  10.700   5.092  0.1215 -0.0408  0.0868
  270POPC   C4B 3553   2.363  10.643   5.536 -0.1728  0.0722 -0.0097
  271POPC   NC3 3554   9.713  10.063   3.473 -0.0209 -0.1777 -0.0290
  271POPC   PO4 3555   9.425  10.350   3.453  0.0530  0.4674 -0.1164
  271POPC   GL1 3556   9.639  10.342   3.863  0.2387 -0.1556 -0.1290
  271POPC   GL2 3557   9.885  10.434   3.823 -0.1005 -0.0523  0.0119
  271POPC   C1A 3558   9.897  10.564   4.288  0.3859 -0.0559 -0.3346
  271POPC   D2A 3559   9.978  10.512   4.658  0.1993  0.3988 -0.0908
  271POPC   C3A 3560  10.368  10.484   4.939  0.2136  0.3257 -0.0144
  271POPC   C4A 3561  10.439  10.069   5.169 -0.1574 -0.0501  0.1603
  271POPC   C1B 3562  10.228  10.719   3.974  0.1192 -0.0433 -0.0516
  271POPC   C2B 3563  10.239  10.940   4.374  0.1220 -0.0186 -0.0836
  271POPC   C3B 3564  10.177  10.932   4.879 -0.1133 -0.3377 -0.1034
  271POPC   C4B 3565  10.299  10.937   5.293  0.2788 -0.0230  0.2828
  272POPC   NC3 3566   9.053   4.794   3.558  0.3051  0.2028 -0.1348
  272POPC   PO4 3567   9.410   4.872   3.528  0.0031  0.0441  0.1812
  272POPC   GL1 3568   9.586   5.011   3.927  0.3008 -0.0032 -0.2745
  272POPC   GL2 3569   9.398   4.787   3.991  0.2286 -0.1412 -0.1831
  272POPC   C1A 3570   9.593   5.309   4.316 -0.1910 -0.3586  0.2190
  272POPC   D2A 3571   9.557   5.278   4.785  0.0055  0.0632  0.0422
  272POPC   C3A 3572   9.794   5.615   4.977  0.1837 -0.0172 -0.0579
  272POPC   C4A 3573   9.905   5.663   5.358 -0.2491 -0.0284 -0.2628
  272POPC   C1B 3574   9.547   4.602   4.412 -0.1035 -0.0691 -0.0131
  272POPC   C2B 3575   9.731   4.759   4.842 -0.0580  0.1587 -0.1033
  272POPC   C3B 3576   9.964   4.569   5.311 -0.0509  0.0708  0.1266
  272POPC   C4B 3577  10.278   4.512   5.673  0.0381  0.3938  0.4399
  273POPC   NC3 3578   7.184   9.580   3.175 -0.0282 -0.1570 -0.0336
  273POPC   PO4 3579   6.843   9.381   3.407 -0.1645 -0.5047  0.3029
  273POPC   GL1 3580   6.713   9.160   3.796 -0.0051 -0.1153  0.5161
  273POPC   GL2 3581   6.438   9.081   3.763 -0.0618 -0.2626  0.0318
  273POPC   C1A 3582   6.868   9.075   4.263 -0.0608 -0.0881 -0.0126
  273POPC   D2A 3583   6.915   8.952   4.761  0.0236 -0.2261 -0.0428
  273POPC   C3A 3584   6.737   8.947   5.173  0.2012 -0.0058  0.0886
  273POPC   C4A 3585   6.941   9.068   5.576 -0.0209 -0.1020 -0.0778
  273POPC   C1B 3586   6.201   8.864   4.076 -0.1057 -0.1160  0.0959
  273POPC   C2B 3587   6.027   8.525   4.284 -0.0107 -0.0450 -0.0838
  273POPC   C3B 3588   6.089   8.510   4.762 -0.2518  0.1082 -0.2551
  273POPC   C4B 3589   6.115   8.664   5.169 -0.0417 -0.0262 -0.1977
  274POPC   NC3 3590   4.412   5.322   3.367  0.3702  0.0581 -0.0899
  274POPC   PO4 3591   4.462   5.737   3.162 -0.1308 -0.0209 -0.1295
  274POPC   GL1 3592   4.444   5.728   3.655 -0.2382 -0.3500 -0.1522
  274POPC   GL2 3593   4.315   5.908   3.841  0.1122  0.2841  0.1027
  274POPC   C1A 3594   4.609   5.441   3.980  0.0495  0.0611  0.2048
  274POPC   D2A 3595   5.044   5.298   3.978 -0.2606  0.1905  0.4730
  274POPC   C3A 3596   5.233   5.417   4.295 -0.0027 -0.0304  0.3593
  274POPC   C4A 3597   5.217   5.445   4.623  0.0333 -0.0904  0.0789
  274POPC   C1B 3598   4.524   5.910   4.206  0.1983 -0.1422  0.2686
  274POPC   C2B 3599   4.498   5.849   4.635  0.3054  0.3574 -0.0457
  274POPC   C3B 3600   4.357   5.479   4.890 -0.1611  0.0346  0.1422
  274POPC   C4B 3601   4.414   5.167   5.253 -0.3912 -0.1093  0.0538
  275POPC   NC3 3602   2.862   4.627   3.118  0.1351 -0.0441  0.0323
  275POPC   PO4 3603   3.322   4.835   2.975 -0.1202  0.0214  0.0110
  275POPC   GL1 3604   3.401   4.945   3.495  0.0728 -0.2185 -0.3882
  275POPC   GL2 3605   3.583   4.562   3.589 -0.0972 -0.1689  0.0141
  275POPC   C1A 3606   3.303   4.984   3.904 -0.1991  0.1292 -0.1154
  275POPC   D2A 3607   3.162   4.759   4.280 -0.0391  0.1479  0.6479
  275POPC   C3A 3608   3.502   4.679   4.581  0.1606  0.2137  0.1562
  275POPC   C4A 3609   3.833   4.930   4.677 -0.0367 -0.0938  0.0687
  275POPC   C1B 3610   3.536   4.538   4.072  0.4024 -0.0317  0.1212
  275POPC   C2B 3611   3.724   4.389   4.298  0.0382  0.1064 -0.1300
  275POPC   C3B 3612   3.847   4.382   4.720  0.2913 -0.3012 -0.1355
  275POPC   C4B 3613   3.555   4.516   5.046 -0.0787  0.1035  0.2399
  276POPC   NC3 3614   6.087   0.221   2.859 -0.1152 -0.0251  0.1796
  276POPC   PO4 3615   6.008   0.113   3.327  0.4986  0.0626 -0.0658
  276POPC   GL1 3616   6.003   0.056   3.749 -0.3053  0.0687  0.1888
  276POPC   GL2 3617   6.364  -0.125   3.736 -0.0075 -0.0815 -0.1124
  276POPC   C1A 3618   6.048   0.238   4.207  0.2703  0.3042 -0.1537
  276POPC   D2A 3619   6.308   0.285   4.530 -0.0224  0.0780  0.3676
  276POPC   C3A 3620   6.083   0.176   4.915  0.1360 -0.4875  0.0715
  276POPC   C4A 3621   6.010   0.187   5.368  0.3466 -0.2579  0.4701
  276POPC   C1B 3622   6.253  -0.400   4.036  0.1385  0.0188 -0.0641
  276POPC   C2B 3623   6.352  -0.560   4.302  0.0603  0.0808  0.1376
  276POPC   C3B 3624   6.349  -0.797   4.680 -0.0318 -0.1584 -0.0344
  276POPC   C4B 3625   6.540  -0.625   5.008 -0.1107  0.1687  0.2029
  277POPC   NC3 3626   6.170   5.473   2.876  0.0359  0.2401 -0.4901
  277POPC   PO4 3627   6.472   5.271   3.111  0.0637  0.0251  0.0123
  277POPC   GL1 3628   6.442   5.290   3.550  0.0397  0.0868 -0.1089
  277POPC   GL2 3629   6.296   5.541   3.753  0.2563 -0.0982  0.0966
  277POPC   C1A 3630   6.737   5.299   3.896 -0.2026  0.1334 -0.2242
  277POPC   D2A 3631   6.774   4.856   4.091  0.2196 -0.2292  0.1548
  277POPC   C3A 3632   6.840   4.952   4.557  0.1476  0.3866  0.2748
  277POPC   C4A 3633   6.678   5.210   4.770 -0.2478  0.1183  0.1250
  277POPC   C1B 3634   6.490   5.689   4.122 -0.0705  0.0139  0.2659
  277POPC   C2B 3635   6.671   5.672   4.558  0.2313 -0.3430 -0.0319
  277POPC   C3B 3636   6.652   5.794   4.864  0.0732 -0.2055 -0.0955
  277POPC   C4B 3637   6.978   5.967   4.968  0.3179 -0.0846  0.2142
  278POPC   NC3 3638   8.214   3.820   3.361 -0.0375 -0.0608  0.0455
  278POPC   PO4 3639   8.543   3.654   3.103  0.5186  0.1737  0.3613
  278POPC   GL1 3640   8.607   3.538   3.475  0.2561 -0.2047  0.1427
  278POPC   GL2 3641   8.577   3.735   3.791 -0.0698  0.0811  0.0819
  278POPC   C1A 3642   8.744   3.251   3.879  0.1248 -0.3436  0.3516
  278POPC   D2A 3643   9.006   2.963   4.076 -0.1558 -0.0392  0.0057
  278POPC   C3A 3644   8.895   2.829   4.575  0.4020  0.1318  0.0971
  278POPC   C4A 3645   8.988   2.828   5.035 -0.1455 -0.3179  0.0124
  278POPC   C1B 3646   8.487   3.622   4.267  0.2519 -0.2527  0.0578
  278POPC   C2B 3647   8.313   3.613   4.564  0.0703  0.1727 -0.1067
  278POPC   C3B 3648   8.258   3.551   5.049 -0.2744 -0.3334  0.0190
  278POPC   C4B 3649   7.925   3.668   5.330  0.2993  0.3526  0.0663
  279POPC   NC3 3650  10.102   0.300   3.356  0.1228 -0.2840 -0.1238
  279POPC   PO4 3651   9.704   0.582   3.254  0.1059 -0.0918  0.2421
  279POPC   GL1 3652   9.705   0.720   3.677 -0.2312  0.1776 -0.2104
  279POPC   GL2 3653   9.959   0.492   3.910 -0.1477  0.0603  0.1150
  279POPC   C1A 3654   9.602   0.789   4.100  0.0099  0.1271 -0.1545
  279POPC   D2A 3655   9.673   0.934   4.499 -0.3053 -0.0630  0.2048
  279POPC   C3A 3656   9.847   1.080   4.838 -0.3255 -0.3739  0.2897
  279POPC   C4A 3657  10.080   0.854   5.137 -0.2904 -0.2301  0.2060
  279POPC   C1B 3658   9.801   0.392   4.329  0.1334  0.2085 -0.2423
  279POPC   C2B 3659   9.557   0.028   4.646 -0.2264 -0.0500  0.1338
  279POPC   C3B 3660   9.163   0.106   4.717 -0.1721 -0.0920  0.0621
  279POPC   C4B 3661   8.736   0.078   4.598  0.0550  0.4697  0.0051
  280POPC   NC3 3662   8.363   4.662   3.431 -0.2105  0.1752 -0.1840
  280POPC   PO4 3663   8.618   4.680   3.806  0.1629  0.0896 -0.4104
  280POPC   GL1 3664   8.652   4.670   4.274 -0.0548 -0.0279  0.1667
  280POPC   GL2 3665   8.945   4.648   4.165  0.0274 -0.2530 -0.0794
  280POPC   C1A 3666   8.633   5.077   4.538 -0.1781  0.2889  0.0526
  280POPC   D2A 3667   8.620   5.175   4.978  0.2321  0.0831  0.0218
  280POPC   C3A 3668   8.934   5.361   5.200  0.0147  0.0855 -0.3200
  280POPC   C4A 3669   9.232   5.194   5.140 -0.1855  0.0151  0.1483
  280POPC   C1B 3670   9.132   4.987   4.355 -0.1075  0.1317 -0.2614
  280POPC   C2B 3671   9.088   5.287   4.592  0.0605  0.1241  0.1193
  280POPC   C3B 3672   8.821   5.637   4.752 -0.3328 -0.2354 -0.1431
  280POPC   C4B 3673   8.523   5.684   4.972 -0.0923  0.2090 -0.2072
  281POPC   NC3 3674   9.730   4.930   3.062 -0.0505 -0.1156  0.2271
  281POPC   PO4 3675   9.872   4.638   3.339 -0.0186 -0.1835 -0.0135
  281POPC   GL1 3676   9.806   4.635   3.671 -0.1050 -0.0430 -0.0057
  281POPC   GL2 3677   9.562   4.381   3.701 -0.2990 -0.0609  0.1600
  281POPC   C1A 3678   9.939   4.532   3.988  0.1538  0.2079  0.4517
  281POPC   D2A 3679   9.864   4.092   4.192 -0.1889  0.0839  0.1373
  281POPC   C3A 3680  10.065   3.915   4.485 -0.0536 -0.2045 -0.3298
  281POPC   C4A 3681  10.274   3.890   4.808 -0.0543 -0.1008 -0.1275
  281POPC   C1B 3682   9.306   4.274   4.060 -0.4245  0.3886  0.2677
  281POPC   C2B 3683   9.133   4.322   4.490  0.0554  0.0264  0.0349
  281POPC   C3B 3684   8.946   4.512   4.885 -0.2155  0.2782 -0.1584
  281POPC   C4B 3685   8.881   4.811   5.148 -0.1457 -0.0324 -0.0922
  282POPC   NC3 3686   7.464   2.809   2.448  0.0506 -0.0916  0.5159
  282POPC   PO4 3687   7.281   2.800   2.851  0.0765  0.1662  0.0716
  282POPC   GL1 3688   7.439   2.714   3.201  0.3839  0.1179 -0.5018
  282POPC   GL2 3689   7.697   2.652   3.331  0.1072  0.1834 -0.0823
  282POPC   C1A 3690   7.386   2.844   3.703 -0.0601 -0.0040  0.3936
  282POPC   D2A 3691   7.351   2.774   4.125  0.2874 -0.0992 -0.2934
  282POPC   C3A 3692   6.946   2.489   4.193  0.1044 -0.1395  0.5778
  282POPC   C4A 3693   6.644   2.434   4.614 -0.0088 -0.3022 -0.0633
  282POPC   C1B 3694   7.790   2.508   3.782 -0.1725  0.1232 -0.2373
  282POPC   C2B 3695   7.724   2.471   4.232 -0.1263  0.1714  0.0743
  282POPC   C3B 3696   7.738   2.165   4.440 -0.0350 -0.4199 -0.1057
  282POPC   C4B 3697   7.638   2.038   4.820  0.0008 -0.0183  0.3516
  283POPC   NC3 3698   8.962   9.514   3.354 -0.0364 -0.1056  0.5481
  283POPC   PO4 3699   9.341   9.547   3.340  0.1287  0.3000  0.1411
  283POPC   GL1 3700   9.539   9.471   3.817  0.1984  0.1473  0.1165
  283POPC   GL2 3701   9.448   9.220   4.002 -0.1607 -0.2383  0.0742
  283POPC   C1A 3702   9.677   9.614   4.224 -0.0531 -0.0147  0.2185
  283POPC   D2A 3703   9.884   9.510   4.540 -0.1744 -0.3363 -0.1770
  283POPC   C3A 3704   9.685   9.378   4.880  0.1820  0.2044  0.1851
  283POPC   C4A 3705   9.674   9.463   5.391 -0.0774 -0.0375  0.0312
  283POPC   C1B 3706   9.828   9.108   4.284  0.1622  0.0378 -0.2801
  283POPC   C2B 3707  10.119   9.084   4.590  0.0504 -0.0308  0.3212
  283POPC   C3B 3708  10.140   9.133   5.035 -0.2244  0.1628 -0.0921
  283POPC   C4B 3709  10.159   9.369   5.494 -0.0243 -0.0042 -0.3650
  284POPC   NC3 3710   7.682   1.194   3.012 -0.3360  0.1246  0.1429
  284POPC   PO4 3711   7.581   1.046   3.412  0.1869  0.2375 -0.3435
  284POPC   GL1 3712   7.631   1.235   3.792  0.0379  0.0443  0.0729
  284POPC   GL2 3713   7.764   1.539   3.888 -0.1393  0.1666  0.4587
  284POPC   C1A 3714   7.529   1.251   4.261 -0.1538 -0.4182 -0.0265
  284POPC   D2A 3715   7.494   1.184   4.753 -0.0292 -0.1517  0.0353
  284POPC   C3A 3716   7.489   1.447   5.035  0.1301  0.2668 -0.0743
  284POPC   C4A 3717   7.660   1.747   5.284  0.0104  0.1199 -0.4449
  284POPC   C1B 3718   7.800   1.666   4.248 -0.0462  0.0519  0.0255
  284POPC   C2B 3719   7.952   1.674   4.615  0.2866  0.1669 -0.2119
  284POPC   C3B 3720   8.122   1.826   5.087  0.0478  0.1778 -0.2403
  284POPC   C4B 3721   8.588   2.147   5.204  0.0888  0.1252 -0.1027
  285POPC   NC3 3722   7.556   8.596   3.849 -0.0235 -0.1979  0.2338
  285POPC   PO4 3723   7.330   8.810   3.748 -0.1247 -0.0839 -0.1065
  285POPC   GL1 3724   7.340   8.871   4.200 -0.0894 -0.2240 -0.3755
  285POPC   GL2 3725   7.412   8.585   4.336 -0.4473  0.0991 -0.0173
  285POPC   C1A 3726   7.399   9.075   4.569  0.1049 -0.0276  0.1967
  285POPC   D2A 3727   7.646   9.304   4.938 -0.0976  0.1924  0.2215
  285POPC   C3A 3728   7.986   8.957   5.147  0.0396  0.0015  0.2233
  285POPC   C4A 3729   8.379   8.832   5.252 -0.1019 -0.1803 -0.1576
  285POPC   C1B 3730   7.567   8.149   4.465  0.0207 -0.0454 -0.0323
  285POPC   C2B 3731   7.786   8.212   4.750  0.0834 -0.1243 -0.1347
  285POPC   C3B 3732   7.716   8.477   4.986 -0.1202  0.0001  0.0912
  285POPC   C4B 3733   7.727   8.647   5.384 -0.1148  0.0955  0.1699
  286POPC   NC3 3734   2.364   9.999   2.893 -0.0718 -0.2615  0.0727
  286POPC   PO4 3735   2.471   9.826   3.294 -0.0572 -0.0982  0.1675
  286POPC   GL1 3736   2.598   9.976   3.694  0.2527  0.3267  0.0249
  286POPC   GL2 3737   2.772   9.826   3.839 -0.1570  0.3528  0.0480
  286POPC   C1A 3738   2.611  10.317   3.987 -0.0946  0.0611 -0.0087
  286POPC   D2A 3739   2.782  10.163   4.452  0.0193 -0.0579 -0.2347
  286POPC   C3A 3740   2.744  10.180   4.908 -0.0987 -0.0628  0.0721
  286POPC   C4A 3741   2.712   9.941   5.266 -0.0176 -0.1463 -0.1081
  286POPC   C1B 3742   2.536   9.844   4.227  0.0783  0.1112  0.2760
  286POPC   C2B 3743   2.616   9.702   4.690  0.1051  0.0147  0.0819
  286POPC   C3B 3744   2.430   9.658   5.051 -0.1631  0.1272 -0.1822
  286POPC   C4B 3745   2.522   9.565   5.530 -0.0502 -0.2358 -0.0934
  287POPC   NC3 3746   3.029   0.427   3.100  0.1120  0.0482 -0.0158
  287POPC   PO4 3747   2.623   0.724   3.091 -0.3265 -0.1331  0.3009
  287POPC   GL1 3748   2.703   0.928   3.536  0.2783  0.0453  0.3031
  287POPC   GL2 3749   2.833   0.602   3.645 -0.1069  0.0673  0.0449
  287POPC   C1A 3750   2.705   1.009   3.947 -0.0759 -0.0590 -0.1665
  287POPC   D2A 3751   2.576   0.838   4.386 -0.0664  0.2620 -0.2229
  287POPC   C3A 3752   2.168   0.744   4.595  0.0420  0.1224 -0.2232
  287POPC   C4A 3753   2.043   0.454   4.847  0.0143  0.1083 -0.0290
  287POPC   C1B 3754   3.104   0.520   4.067 -0.1223 -0.3168  0.1263
  287POPC   C2B 3755   3.531   0.749   4.296  0.1871  0.1243 -0.0976
  287POPC   C3B 3756   3.657   1.038   4.566  0.2230  0.0455 -0.3489
  287POPC   C4B 3757   3.927   1.015   4.969  0.0630  0.0896  0.0228
  288POPC   NC3 3758   5.545   6.738   3.472  0.0991 -0.0310  0.0025
  288POPC   PO4 3759   5.511   7.274   3.501 -0.5936 -0.0403 -0.1864
  288POPC   GL1 3760   5.653   7.111   3.967 -0.0012 -0.0378 -0.1718
  288POPC   GL2 3761   5.621   7.348   4.279 -0.2354 -0.2214 -0.0247
  288POPC   C1A 3762   5.560   6.744   4.260 -0.0328 -0.2036  0.0551
  288POPC   D2A 3763   5.292   6.635   4.627 -0.0641 -0.3099 -0.1577
  288POPC   C3A 3764   5.048   6.943   4.728  0.0623  0.0718  0.1895
  288POPC   C4A 3765   4.950   7.199   5.146 -0.1666 -0.1406  0.0907
  288POPC   C1B 3766   5.613   7.084   4.707 -0.1403 -0.0537 -0.0208
  288POPC   C2B 3767   5.846   7.180   5.074 -0.1467 -0.3375  0.0229
  288POPC   C3B 3768   5.601   7.259   5.445  0.0769  0.0689  0.0041
  288POPC   C4B 3769   5.115   7.221   5.602 -0.3147  0.2186 -0.0451
  289POPC   NC3 3770   7.557   4.425   3.301 -0.0961  0.1715 -0.1229
  289POPC   PO4 3771   7.870   4.147   3.530 -0.0209  0.1558  0.1914
  289POPC   GL1 3772   7.929   4.191   3.984 -0.0671  0.0314 -0.1846
  289POPC   GL2 3773   8.018   4.549   4.094 -0.0899 -0.1788  0.1522
  289POPC   C1A 3774   8.009   3.989   4.438 -0.0411  0.0797 -0.3035
  289POPC   D2A 3775   8.196   3.987   4.864  0.1413 -0.1237 -0.1121
  289POPC   C3A 3776   8.248   4.068   5.261  0.0908  0.1315  0.2386
  289POPC   C4A 3777   8.331   4.485   5.272 -0.0632 -0.2335 -0.0379
  289POPC   C1B 3778   7.793   4.413   4.458  0.0221 -0.0264 -0.0922
  289POPC   C2B 3779   7.744   4.222   4.856  0.3933  0.0806  0.1957
  289POPC   C3B 3780   7.830   4.298   5.275  0.2030  0.1092 -0.1458
  289POPC   C4B 3781   7.581   4.364   5.694  0.4196 -0.1285  0.4090
  290POPC   NC3 3782   5.215   1.870   2.567 -0.0906 -0.1585 -0.0809
  290POPC   PO4 3783   5.176   2.018   2.959 -0.2343  0.0024  0.0235
  290POPC   GL1 3784   5.241   2.180   3.473  0.1526  0.1605 -0.0314
  290POPC   GL2 3785   4.970   2.328   3.613  0.0461 -0.1523  0.1218
  290POPC   C1A 3786   5.344   2.004   3.933  0.1736  0.4761  0.1489
  290POPC   D2A 3787   5.312   2.144   4.453  0.2094 -0.2758 -0.0391
  290POPC   C3A 3788   4.813   2.239   4.469 -0.1265  0.2031  0.2477
  290POPC   C4A 3789   4.431   2.239   4.647 -0.1363  0.1401  0.2012
  290POPC   C1B 3790   5.135   2.414   4.074 -0.0585  0.2380  0.0941
  290POPC   C2B 3791   5.274   2.654   4.483 -0.0666 -0.2072  0.2443
  290POPC   C3B 3792   5.352   2.984   4.882  0.2035 -0.3698 -0.4661
  290POPC   C4B 3793   5.588   3.259   5.084  0.0440 -0.1688  0.2027
  291POPC   NC3 3794   2.392   7.927   3.434  0.3369  0.0606 -0.1312
  291POPC   PO4 3795   2.497   8.386   3.380 -0.1780  0.0614  0.1256
  291POPC   GL1 3796   2.473   8.555   3.790  0.0934 -0.3064  0.0030
  291POPC   GL2 3797   2.309   8.264   3.884  0.1721  0.0069  0.1813
  291POPC   C1A 3798   2.745   8.735   4.153  0.1091  0.1885  0.0994
  291POPC   D2A 3799   2.833   8.862   4.549 -0.0290 -0.0623 -0.0339
  291POPC   C3A 3800   2.963   9.378   4.738  0.1142 -0.0169 -0.2262
  291POPC   C4A 3801   3.041   9.625   5.098  0.1724  0.0589  0.1795
  291POPC   C1B 3802   2.213   8.608   4.219 -0.1393 -0.0455 -0.0302
  291POPC   C2B 3803   2.281   8.707   4.629 -0.2303  0.2584 -0.1786
  291POPC   C3B 3804   2.431   8.622   5.058 -0.0038  0.1370 -0.3722
  291POPC   C4B 3805   2.775   8.600   5.381  0.0218  0.2327 -0.0639
  292POPC   NC3 3806   7.241   5.430   2.893  0.0779 -0.2599  0.0611
  292POPC   PO4 3807   7.452   5.618   3.389 -0.0890 -0.0355 -0.1981
  292POPC   GL1 3808   7.530   5.577   3.804  0.0940  0.0464  0.0017
  292POPC   GL2 3809   7.769   5.778   3.861 -0.0536  0.0404  0.3131
  292POPC   C1A 3810   7.458   5.370   4.158 -0.1546 -0.2337  0.1928
  292POPC   D2A 3811   7.268   5.208   4.480 -0.1214  0.1213 -0.3690
  292POPC   C3A 3812   7.215   5.507   4.804  0.0484  0.0128 -0.0361
  292POPC   C4A 3813   7.468   5.773   4.968  0.0218  0.2169  0.0419
  292POPC   C1B 3814   7.925   5.517   4.181 -0.1213 -0.1115  0.1307
  292POPC   C2B 3815   8.251   5.115   4.216 -0.0076 -0.1376 -0.0973
  292POPC   C3B 3816   8.225   4.764   4.515 -0.3101  0.0339 -0.1247
  292POPC   C4B 3817   8.482   4.681   4.840  0.2101 -0.2835 -0.0693
  293POPC   NC3 3818  10.334   8.558   3.970 -0.0243 -0.0769  0.2228
  293POPC   PO4 3819  10.462   9.013   3.860 -0.1262  0.3697  0.2912
  293POPC   GL1 3820  10.675   9.188   4.276 -0.2430 -0.0316 -0.0749
  293POPC   GL2 3821  11.019   9.129   4.375  0.0909 -0.2831 -0.6337
  293POPC   C1A 3822  10.562   9.163   4.731 -0.1398 -0.1068  0.2506
  293POPC   D2A 3823  10.599   9.297   5.110  0.0780 -0.0847  0.1870
  293POPC   C3A 3824  10.554   9.654   5.377 -0.2339  0.1793  0.0037
  293POPC   C4A 3825  10.461   9.932   5.684  0.2624 -0.0028  0.2365
  293POPC   C1B 3826  11.049   9.011   4.736  0.1195  0.1656 -0.1496
  293POPC   C2B 3827  10.981   8.895   5.134 -0.1797 -0.3789  0.0740
  293POPC   C3B 3828  10.836   8.842   5.557  0.2165  0.3605  0.0359
  293POPC   C4B 3829  10.553   8.774   5.840  0.2124  0.0928 -0.0327
  294POPC   NC3 3830   0.533   7.133   3.579 -0.0839 -0.1855  0.2681
  294POPC   PO4 3831   0.733   7.475   3.806  0.0666 -0.0166  0.0669
  294POPC   GL1 3832   0.814   7.387   4.257  0.2233 -0.2255 -0.0447
  294POPC   GL2 3833   0.910   7.179   4.245  0.0664 -0.1206  0.2627
  294POPC   C1A 3834   0.818   7.585   4.628 -0.2163 -0.3444  0.1607
  294POPC   D2A 3835   0.853   7.674   5.061  0.2082  0.0718 -0.1814
  294POPC   C3A 3836   0.596   7.440   5.285 -0.0847 -0.0865  0.0086
  294POPC   C4A 3837   0.350   7.352   5.719  0.2087  0.0055 -0.1401
  294POPC   C1B 3838   0.751   7.067   4.675  0.0664  0.1236 -0.0639
  294POPC   C2B 3839   0.695   6.978   5.000 -0.4122 -0.0256 -0.0036
  294POPC   C3B 3840   0.572   6.897   5.391  0.3674 -0.2545  0.2447
  294POPC   C4B 3841   0.509   6.769   5.775 -0.0307  0.0962 -0.0808
  295POPC   NC3 3842   8.798   2.095   2.812  0.1184  0.0716 -0.1380
  295POPC   PO4 3843   8.746   2.211   3.195  0.2024  0.5641  0.0405
  295POPC   GL1 3844   8.828   2.028   3.611  0.0888  0.2890  0.1056
  295POPC   GL2 3845   8.903   1.739   3.823 -0.1784  0.0472  0.0923
  295POPC   C1A 3846   8.909   2.143   4.053  0.3542  0.0854 -0.1057
  295POPC   D2A 3847   8.666   2.108   4.289  0.1800  0.0066  0.3569
  295POPC   C3A 3848   8.533   2.471   4.361  0.0484 -0.2501 -0.1863
  295POPC   C4A 3849   8.145   2.549   4.509  0.0492  0.1389 -0.1488
  295POPC   C1B 3850   8.953   1.635   4.215 -0.1180  0.3598 -0.1661
  295POPC   C2B 3851   8.908   1.311   4.496  0.0713 -0.2267 -0.1364
  295POPC   C3B 3852   8.912   1.276   4.960 -0.0601  0.1505  0.0063
  295POPC   C4B 3853   9.114   1.345   5.339  0.5364  0.2069  0.1910
  296POPC   NC3 3854   1.120   7.351   3.434  0.0413  0.2614  0.0177
  296POPC   PO4 3855   1.246   7.224   3.756  0.0076  0.0569 -0.0075
  296POPC   GL1 3856   1.385   7.434   4.047 -0.0613  0.0391 -0.0450
  296POPC   GL2 3857   1.585   7.117   4.099  0.0138 -0.0428  0.0413
  296POPC   C1A 3858   1.286   7.708   4.429  0.3774 -0.0017  0.0189
  296POPC   D2A 3859   1.299   7.888   4.765  0.0744  0.0591  0.0509
  296POPC   C3A 3860   1.384   7.708   5.157  0.2730  0.0198  0.0828
  296POPC   C4A 3861   1.332   7.472   5.517 -0.0704  0.1670  0.3304
  296POPC   C1B 3862   1.345   7.202   4.563 -0.0722 -0.0118  0.1059
  296POPC   C2B 3863   1.153   7.296   4.893 -0.1915 -0.1324  0.3828
  296POPC   C3B 3864   1.044   7.162   5.336  0.0946  0.1677  0.1290
  296POPC   C4B 3865   0.930   7.255   5.814  0.2157  0.1091  0.0441
  297POPC   NC3 3866   3.474   3.462   2.998  0.1420  0.1205  0.0673
  297POPC   PO4 3867   3.545   3.333   3.382 -0.1271  0.2593  0.2509
  297POPC   GL1 3868   3.526   3.217   3.790  0.0712 -0.3222  0.0230
  297POPC   GL2 3869   3.382   3.518   3.871  0.2698 -0.1329 -0.3647
  297POPC   C1A 3870   3.392   3.198   4.266 -0.2446  0.0539 -0.0447
  297POPC   D2A 3871   3.416   3.196   4.775  0.0270 -0.1300  0.0602
  297POPC   C3A 3872   3.384   2.689   4.999  0.1060 -0.0010 -0.0582
  297POPC   C4A 3873   3.753   2.419   5.231  0.4094  0.0611  0.0243
  297POPC   C1B 3874   3.478   3.798   4.257  0.6023 -0.1903  0.0474
  297POPC   C2B 3875   3.561   3.978   4.612 -0.2955  0.2408  0.1181
  297POPC   C3B 3876   3.709   4.077   5.071  0.0452 -0.3159 -0.0756
  297POPC   C4B 3877   3.784   4.037   5.530 -0.1307 -0.2262 -0.0029
  298POPC   NC3 3878   8.813   1.681   3.270  0.3551 -0.0504 -0.0415
  298POPC   PO4 3879   9.055   1.381   3.464  0.1346 -0.2719  0.0913
  298POPC   GL1 3880   9.194   1.256   3.800  0.0580  0.2475 -0.1030
  298POPC   GL2 3881   9.392   1.466   3.882  0.2768  0.0430 -0.1572
  298POPC   C1A 3882   9.003   0.972   4.104 -0.0317 -0.0536  0.0105
  298POPC   D2A 3883   9.131   0.891   4.482  0.0626 -0.0037  0.3589
  298POPC   C3A 3884   9.363   1.091   4.783  0.3726 -0.0596  0.0884
  298POPC   C4A 3885   9.533   1.362   5.100  0.2816 -0.0415 -0.1761
  298POPC   C1B 3886   9.394   1.342   4.346 -0.0034 -0.2278 -0.0792
  298POPC   C2B 3887   9.315   1.594   4.678 -0.1534 -0.1372  0.2038
  298POPC   C3B 3888   9.101   1.753   5.006 -0.2494  0.0079 -0.0123
  298POPC   C4B 3889   8.733   1.712   5.294  0.0281  0.1700 -0.0589
  299POPC   NC3 3890   4.657   9.857   3.381  0.1393  0.1586  0.1565
  299POPC   PO4 3891   4.995   9.985   3.392  0.0591  0.1152 -0.1240
  299POPC   GL1 3892   4.904  10.119   3.832 -0.0552  0.0597 -0.1084
  299POPC   GL2 3893   4.564  10.221   3.842 -0.0280 -0.0647 -0.2134
  299POPC   C1A 3894   4.938  10.201   4.277  0.0323  0.4107 -0.3996
  299POPC   D2A 3895   4.731  10.065   4.685 -0.0899 -0.2580 -0.1905
  299POPC   C3A 3896   4.870  10.211   5.105  0.2601  0.2893  0.0506
  299POPC   C4A 3897   5.074  10.330   5.543  0.0944 -0.0546  0.0142
  299POPC   C1B 3898   4.505   9.949   4.232  0.0986  0.1674  0.3185
  299POPC   C2B 3899   4.309   9.777   4.498  0.5244  0.3913  0.1294
  299POPC   C3B 3900   4.446   9.497   4.782  0.3220 -0.1136 -0.1464
  299POPC   C4B 3901   4.670   9.599   5.218 -0.1138 -0.2908  0.4075
  300POPC   NC3 3902   7.120   0.540   3.193  0.1329  0.0790  0.0357
  300POPC   PO4 3903   6.918   0.277   3.486 -0.4243 -0.1801  0.0475
  300POPC   GL1 3904   6.882   0.630   3.741 -0.1164  0.0181  0.4043
  300POPC   GL2 3905   7.062   0.903   3.557  0.0296 -0.0015  0.0800
  300POPC   C1A 3906   6.871   0.680   4.107  0.3408  0.2259 -0.0458
  300POPC   D2A 3907   7.151   0.561   4.450 -0.0183  0.0560 -0.0661
  300POPC   C3A 3908   7.173   0.789   4.804 -0.1664  0.1767  0.1725
  300POPC   C4A 3909   7.325   0.983   5.160  0.0225 -0.4600  0.1700
  300POPC   C1B 3910   7.135   1.078   3.932  0.0729 -0.3455  0.1964
  300POPC   C2B 3911   7.031   1.084   4.378  0.1514  0.1490  0.0090
  300POPC   C3B 3912   6.850   1.306   4.714  0.0290 -0.0340  0.1495
  300POPC   C4B 3913   6.574   1.483   4.979  0.2501 -0.1122 -0.0424
  301POPC   NC3 3914   6.273   6.933   3.202 -0.1413 -0.2610  0.2526
  301POPC   PO4 3915   6.640   7.144   3.389  0.3194  0.0775 -0.0005
  301POPC   GL1 3916   6.840   7.039   3.806 -0.3561 -0.2071  0.0650
  301POPC   GL2 3917   6.934   6.753   3.958 -0.1936 -0.2490 -0.3903
  301POPC   C1A 3918   7.105   7.246   4.130 -0.0615  0.2323  0.0439
  301POPC   D2A 3919   7.240   7.278   4.454  0.1987 -0.0543  0.0189
  301POPC   C3A 3920   6.835   7.307   4.658 -0.2231  0.1974 -0.0028
  301POPC   C4A 3921   6.567   7.269   4.948  0.0800  0.2796  0.1973
  301POPC   C1B 3922   6.821   6.885   4.340 -0.0780  0.1396 -0.5532
  301POPC   C2B 3923   6.947   6.543   4.598  0.1344  0.1771  0.0755
  301POPC   C3B 3924   7.060   6.032   4.493  0.1499  0.0634  0.1280
  301POPC   C4B 3925   7.031   5.567   4.226 -0.0276 -0.0759  0.0717
  302POPC   NC3 3926   8.863  10.024   3.613  0.1834 -0.0617  0.0985
  302POPC   PO4 3927   8.574   9.743   3.586  0.1050  0.1443 -0.3261
  302POPC   GL1 3928   8.572   9.795   3.991  0.1854  0.2805  0.3246
  302POPC   GL2 3929   8.318  10.003   4.145  0.2199 -0.0666  0.1590
  302POPC   C1A 3930   8.795   9.900   4.304  0.1805 -0.1972 -0.2924
  302POPC   D2A 3931   8.905   9.774   4.608  0.2243 -0.2321 -0.1613
  302POPC   C3A 3932   9.109  10.077   4.922 -0.0357  0.0008 -0.1142
  302POPC   C4A 3933   9.464  10.244   4.879 -0.1186 -0.3895 -0.0042
  302POPC   C1B 3934   8.364   9.947   4.611 -0.4719 -0.0188  0.1147
  302POPC   C2B 3935   8.546   9.821   4.987  0.4381 -0.0351  0.1311
  302POPC   C3B 3936   8.710   9.852   5.288 -0.1060 -0.1503  0.0588
  302POPC   C4B 3937   8.718   9.688   5.731  0.3636 -0.2693  0.3055
  303POPC   NC3 3938   3.684   6.929   2.995 -0.0892 -0.2378  0.2520
  303POPC   PO4 3939   3.805   6.768   3.428  0.0531  0.3320 -0.2463
  303POPC   GL1 3940   3.993   6.853   3.721  0.1760  0.1594  0.1828
  303POPC   GL2 3941   3.839   7.165   3.772 -0.1725 -0.0809  0.2966
  303POPC   C1A 3942   3.986   6.910   4.235 -0.1095  0.0726 -0.1963
  303POPC   D2A 3943   4.025   7.070   4.599 -0.1529 -0.2918  0.0393
  303POPC   C3A 3944   3.943   6.811   4.854  0.1675 -0.1282  0.1816
  303POPC   C4A 3945   3.697   6.382   4.927 -0.1753  0.0853  0.1222
  303POPC   C1B 3946   3.610   7.195   4.107  0.0556  0.1656  0.0123
  303POPC   C2B 3947   3.551   7.208   4.552 -0.1760  0.1302 -0.0470
  303POPC   C3B 3948   3.736   7.310   4.928  0.2454  0.2985  0.0458
  303POPC   C4B 3949   3.772   7.259   5.378  0.1040 -0.1097 -0.1252
  304POPC   NC3 3950   2.579   2.943   3.715 -0.0094  0.1006 -0.2287
  304POPC   PO4 3951   2.324   3.220   3.421  0.2307  0.4006  0.0801
  304POPC   GL1 3952   2.328   3.336   3.953 -0.1267 -0.1748 -0.0281
  304POPC   GL2 3953   2.054   3.474   4.138  0.1058  0.1024  0.1304
  304POPC   C1A 3954   2.474   3.676   4.256 -0.0661 -0.2008 -0.0656
  304POPC   D2A 3955   2.413   3.841   4.656  0.1510  0.1098 -0.1008
  304POPC   C3A 3956   2.709   4.149   4.881 -0.1975  0.0223  0.0565
  304POPC   C4A 3957   2.752   4.225   5.273  0.1478  0.6018  0.1164
  304POPC   C1B 3958   1.982   3.210   4.451 -0.3507 -0.2681  0.0011
  304POPC   C2B 3959   2.146   2.952   4.872  0.1276 -0.3452  0.1865
  304POPC   C3B 3960   2.458   3.105   5.131  0.4656 -0.0063 -0.3061
  304POPC   C4B 3961   2.493   3.030   5.612 -0.1315 -0.0020  0.0677
  305POPC   NC3 3962   6.297   3.988   3.399 -0.0582  0.0831  0.4064
  305POPC   PO4 3963   5.966   3.739   3.407  0.1668  0.1522 -0.2410
  305POPC   GL1 3964   5.844   4.115   3.570  0.3368  0.2677  0.0484
  305POPC   GL2 3965   5.549   4.099   3.653 -0.1364 -0.2191  0.2534
  305POPC   C1A 3966   5.930   4.379   3.923 -0.1125 -0.2304 -0.2486
  305POPC   D2A 3967   5.883   4.675   4.235 -0.1929 -0.1989  0.0296
  305POPC   C3A 3968   5.726   4.650   4.644 -0.1881  0.0157  0.0434
  305POPC   C4A 3969   5.588   4.591   5.035  0.1761  0.1670 -0.0083
  305POPC   C1B 3970   5.720   3.922   4.038  0.0731  0.1000  0.2453
  305POPC   C2B 3971   5.913   3.676   4.388 -0.2496  0.1400  0.1382
  305POPC   C3B 3972   6.211   3.794   4.655  0.2777 -0.3750  0.3117
  305POPC   C4B 3973   6.261   3.893   5.037 -0.2555 -0.3728 -0.1369
  306POPC   NC3 3974   4.837   3.668   3.199 -0.0364 -0.2539 -0.1506
  306POPC   PO4 3975   4.450   3.549   3.125 -0.3996 -0.2769  0.0843
  306POPC   GL1 3976   4.441   3.592   3.505 -0.2562 -0.1946  0.1847
  306POPC   GL2 3977   4.581   3.216   3.608  0.2624  0.1432 -0.0949
  306POPC   C1A 3978   4.341   3.637   3.937  0.2421 -0.0380 -0.0543
  306POPC   D2A 3979   4.368   3.506   4.363  0.2356 -0.1042  0.2224
  306POPC   C3A 3980   4.659   3.340   4.751 -0.0581 -0.1003  0.2068
  306POPC   C4A 3981   4.659   3.161   5.097  0.1208  0.0518 -0.4601
  306POPC   C1B 3982   4.808   3.472   4.015 -0.0827  0.0584  0.0264
  306POPC   C2B 3983   4.866   3.683   4.427 -0.0016  0.3678  0.2045
  306POPC   C3B 3984   4.815   3.835   4.956 -0.1552 -0.1980  0.2225
  306POPC   C4B 3985   4.744   3.642   5.332  0.1777  0.3949 -0.0240
  307POPC   NC3 3986  10.565   2.720   3.451 -0.1750 -0.1700 -0.5133
  307POPC   PO4 3987  10.909   2.556   3.612 -0.1747  0.1289  0.0330
  307POPC   GL1 3988  10.636   2.580   3.973  0.0146 -0.3137 -0.0457
  307POPC   GL2 3989  10.372   2.623   3.917  0.0186 -0.0425 -0.3781
  307POPC   C1A 3990  10.569   2.450   4.392 -0.1116 -0.1657 -0.1270
  307POPC   D2A 3991  10.388   2.378   4.798 -0.0983  0.4294 -0.2195
  307POPC   C3A 3992  10.717   2.438   5.143  0.0328 -0.2109 -0.1000
  307POPC   C4A 3993  11.073   2.655   5.256  0.2341 -0.0757  0.1639
  307POPC   C1B 3994  10.033   2.800   4.175 -0.2270 -0.0300 -0.1619
  307POPC   C2B 3995  10.010   2.709   4.591  0.1125  0.2320  0.2679
  307POPC   C3B 3996  10.026   2.735   5.060 -0.0026 -0.1853  0.4743
  307POPC   C4B 3997  10.144   2.899   5.548 -0.0320 -0.1004  0.2147
  308POPC   NC3 3998   3.724   5.188   3.105  0.2582 -0.0331 -0.0275
  308POPC   PO4 3999   4.127   5.001   3.184  0.1318 -0.3360  0.0562
  308POPC   GL1 4000   4.029   4.994   3.566 -0.1422 -0.2161 -0.0107
  308POPC   GL2 4001   4.176   5.152   3.836  0.2327 -0.2200 -0.0941
  308POPC   C1A 4002   4.037   4.619   3.794  0.0478 -0.4328  0.2088
  308POPC   D2A 4003   4.194   4.551   4.231 -0.2485 -0.3571 -0.0698
  308POPC   C3A 4004   4.616   4.571   4.402 -0.2079  0.1058 -0.1543
  308POPC   C4A 4005   4.755   4.718   4.781 -0.2862  0.3451  0.0259
  308POPC   C1B 4006   3.773   5.114   4.147 -0.0455 -0.1815  0.2992
  308POPC   C2B 4007   3.499   5.187   4.418  0.3102 -0.0222 -0.2171
  308POPC   C3B 4008   3.406   5.212   4.882 -0.2873  0.4276  0.1673
  308POPC   C4B 4009   3.361   5.446   5.259 -0.1488 -0.0425 -0.0318
  309POPC   NC3 4010   8.922   6.912   3.312  0.2891 -0.1181 -0.0948
  309POPC   PO4 4011   8.928   6.467   3.358  0.0542 -0.2686  0.0162
  309POPC   GL1 4012   9.209   6.534   3.684 -0.1898  0.1831  0.0018
  309POPC   GL2 4013   9.019   6.824   3.914  0.1852 -0.0538 -0.2648
  309POPC   C1A 4014   9.520   6.758   4.075 -0.2484 -0.1065  0.0919
  309POPC   D2A 4015   9.352   6.806   4.434  0.2067 -0.1283  0.0199
  309POPC   C3A 4016   9.207   6.770   4.716 -0.2346 -0.0827  0.1305
  309POPC   C4A 4017   9.104   6.515   5.084  0.2349 -0.0165 -0.6511
  309POPC   C1B 4018   8.879   6.829   4.341 -0.0807  0.0729  0.1611
  309POPC   C2B 4019   8.663   6.929   4.683 -0.0127  0.1136 -0.0143
  309POPC   C3B 4020   8.695   6.891   5.115 -0.0584  0.0176 -0.0336
  309POPC   C4B 4021   8.458   6.895   5.498 -0.1098  0.0849  0.1457
  310POPC   NC3 4022   0.902   1.439   3.360  0.0136 -0.2937  0.1311
  310POPC   PO4 4023   0.524   1.532   3.493  0.1387 -0.0409 -0.1078
  310POPC   GL1 4024   0.512   1.606   3.871 -0.1174  0.1344  0.0888
  310POPC   GL2 4025   0.641   1.905   3.952 -0.0136 -0.1818 -0.0311
  310POPC   C1A 4026   0.658   1.428   4.225  0.0998 -0.1873  0.0916
  310POPC   D2A 4027   0.832   1.486   4.706  0.0088 -0.0672  0.1394
  310POPC   C3A 4028   0.606   1.643   5.111 -0.0592  0.3457  0.0189
  310POPC   C4A 4029   0.415   1.414   5.528 -0.0092  0.3517 -0.2529
  310POPC   C1B 4030   0.461   1.914   4.323  0.0284 -0.0228  0.1370
  310POPC   C2B 4031   0.439   1.839   4.671  0.0647 -0.0544 -0.0264
  310POPC   C3B 4032   0.546   2.151   5.074 -0.0644  0.1838 -0.3100
  310POPC   C4B 4033   0.589   2.188   5.488  0.0195 -0.1770  0.2017
  311POPC   NC3 4034   0.913   6.130   3.534 -0.1965 -0.3998 -0.0848
  311POPC   PO4 4035   0.900   6.364   3.897  0.2271 -0.1251 -0.2718
  311POPC   GL1 4036   0.951   6.612   4.253  0.0167  0.3340  0.3157
  311POPC   GL2 4037   1.160   6.777   4.363  0.2417 -0.2257 -0.2879
  311POPC   C1A 4038   0.832   6.557   4.716 -0.0039  0.0517 -0.1618
  311POPC   D2A 4039   0.507   6.479   5.008 -0.2049  0.0198 -0.0156
  311POPC   C3A 4040   0.342   6.407   5.486 -0.0688 -0.6565 -0.1799
  311POPC   C4A 4041   0.138   6.325   5.855  0.1675  0.0470  0.0888
  311POPC   C1B 4042   1.384   6.576   4.631 -0.3985 -0.0379  0.1030
  311POPC   C2B 4043   1.678   6.823   4.840 -0.2078  0.2309 -0.3972
  311POPC   C3B 4044   1.935   6.750   5.179 -0.1837  0.1004  0.2158
  311POPC   C4B 4045   2.098   6.305   5.269 -0.0436  0.2100 -0.1252
  312POPC   NC3 4046   2.683   9.353   3.264  0.0630  0.3171 -0.2071
  312POPC   PO4 4047   2.405   8.931   3.401  0.0500  0.0211 -0.1166
  312POPC   GL1 4048   2.347   9.106   3.755  0.0285  0.0092  0.0030
  312POPC   GL2 4049   2.523   9.374   3.725  0.1721 -0.3222 -0.1059
  312POPC   C1A 4050   2.050   9.120   4.150  0.0127  0.0485 -0.0686
  312POPC   D2A 4051   1.610   9.275   4.187  0.0844 -0.1815  0.1393
  312POPC   C3A 4052   1.471   9.435   4.487  0.1083  0.1580  0.1700
  312POPC   C4A 4053   1.164   9.514   4.842  0.0405 -0.2541 -0.1496
  312POPC   C1B 4054   2.590   9.317   4.224  0.3427  0.3687 -0.1377
  312POPC   C2B 4055   2.448   9.223   4.553 -0.1512 -0.2298 -0.1773
  312POPC   C3B 4056   2.511   9.103   4.944 -0.3937  0.1395 -0.1209
  312POPC   C4B 4057   2.341   9.084   5.338  0.0532 -0.0171 -0.2302
  313POPC   NC3 4058   1.497   8.364   3.648  0.0572 -0.2473  0.1498
  313POPC   PO4 4059   1.132   8.040   3.609 -0.2845  0.1155 -0.1596
  313POPC   GL1 4060   0.853   7.986   3.989  0.0749 -0.0237 -0.0500
  313POPC   GL2 4061   0.686   8.302   4.023  0.0358  0.2828  0.0599
  313POPC   C1A 4062   0.883   8.085   4.459 -0.0146  0.1308 -0.1791
  313POPC   D2A 4063   0.960   8.346   4.954 -0.1574  0.2357 -0.0389
  313POPC   C3A 4064   1.052   8.100   5.304 -0.1180 -0.1542  0.1357
  313POPC   C4A 4065   0.955   7.758   5.529 -0.0365 -0.1606 -0.2092
  313POPC   C1B 4066   1.156   8.469   4.151  0.1507 -0.0425 -0.1780
  313POPC   C2B 4067   1.553   8.311   4.461  0.1716  0.0082  0.0781
  313POPC   C3B 4068   1.837   8.400   4.777  0.1824  0.0918 -0.1794
  313POPC   C4B 4069   1.960   8.315   5.228  0.0691 -0.3226  0.4370
  314POPC   NC3 4070   2.955   6.616   3.388 -0.2773 -0.1506  0.0094
  314POPC   PO4 4071   3.400   6.524   3.131 -0.2459  0.0007 -0.4210
  314POPC   GL1 4072   3.455   6.395   3.578 -0.0606  0.1593  0.0204
  314POPC   GL2 4073   3.458   6.744   3.749  0.2969 -0.2719  0.1434
  314POPC   C1A 4074   3.386   6.222   4.007 -0.0869  0.1642 -0.0498
  314POPC   D2A 4075   3.288   6.146   4.450  0.2208 -0.1746  0.2830
  314POPC   C3A 4076   3.158   6.184   4.883 -0.2154  0.1096 -0.3847
  314POPC   C4A 4077   3.204   6.399   5.293 -0.2419  0.2617  0.1121
  314POPC   C1B 4078   3.393   6.752   4.218  0.0286  0.0332  0.2622
  314POPC   C2B 4079   3.342   6.776   4.665  0.3691 -0.0156  0.0080
  314POPC   C3B 4080   3.461   6.791   5.001 -0.0613  0.0475  0.1259
  314POPC   C4B 4081   3.732   6.768   5.311  0.1578 -0.5032 -0.0060
  315POPC   NC3 4082   6.085   1.492   2.706  0.1706  0.2120 -0.2628
  315POPC   PO4 4083   6.467   1.786   2.827 -0.0831 -0.1056  0.1902
  315POPC   GL1 4084   6.506   1.637   3.186 -0.0406  0.2201  0.1985
  315POPC   GL2 4085   6.565   1.855   3.456 -0.1911 -0.4041  0.1232
  315POPC   C1A 4086   6.193   1.220   3.466 -0.2253 -0.1419 -0.1357
  315POPC   D2A 4087   5.911   1.100   3.765 -0.2224  0.0915 -0.2159
  315POPC   C3A 4088   5.879   1.116   4.214 -0.4089  0.2456 -0.0354
  315POPC   C4A 4089   5.748   1.342   4.570 -0.0540 -0.2218  0.3013
  315POPC   C1B 4090   6.311   1.696   3.681  0.3163 -0.0415  0.2232
  315POPC   C2B 4091   5.884   1.570   3.722  0.0570  0.0061  0.1666
  315POPC   C3B 4092   5.533   1.450   3.979 -0.3220  0.0579 -0.0378
  315POPC   C4B 4093   5.433   1.697   4.335  0.0827  0.1224  0.0366
  316POPC   NC3 4094   5.417   9.747   3.258  0.0895  0.1241  0.0014
  316POPC   PO4 4095   5.364  10.206   3.146 -0.0857  0.1752  0.3937
  316POPC   GL1 4096   5.496  10.152   3.542  0.2206 -0.1083  0.1780
  316POPC   GL2 4097   5.757  10.341   3.625 -0.3093 -0.0352 -0.3101
  316POPC   C1A 4098   5.415  10.099   4.000  0.0128 -0.0689  0.5189
  316POPC   D2A 4099   5.503  10.308   4.498 -0.1027  0.0570 -0.2054
  316POPC   C3A 4100   5.162  10.443   4.671  0.2301 -0.3075  0.1647
  316POPC   C4A 4101   5.142  10.882   4.763 -0.1166 -0.0382  0.3493
  316POPC   C1B 4102   5.731  10.444   4.063 -0.0426 -0.0324  0.2195
  316POPC   C2B 4103   6.000  10.521   4.488  0.0406  0.3105  0.1607
  316POPC   C3B 4104   6.244  10.456   4.815 -0.1264 -0.2829  0.0416
  316POPC   C4B 4105   6.159  10.213   5.227 -0.0604  0.0485 -0.2606
  317POPC   NC3 4106   5.424   5.671   3.423 -0.0693  0.0237 -0.3229
  317POPC   PO4 4107   5.113   5.974   3.402  0.0235  0.0645 -0.0571
  317POPC   GL1 4108   5.350   5.976   3.857 -0.0928 -0.2773 -0.0957
  317POPC   GL2 4109   5.520   6.255   3.973 -0.0130 -0.1741  0.0671
  317POPC   C1A 4110   5.495   5.910   4.311 -0.0864 -0.6870 -0.1363
  317POPC   D2A 4111   5.707   5.612   4.521 -0.2349 -0.2011 -0.0609
  317POPC   C3A 4112   5.542   5.560   4.912  0.1916 -0.2385 -0.0189
  317POPC   C4A 4113   5.291   5.403   5.166  0.1971  0.1431 -0.2171
  317POPC   C1B 4114   5.846   6.281   4.408 -0.0724 -0.2553  0.1092
  317POPC   C2B 4115   5.981   6.317   4.864 -0.2008 -0.4453 -0.1257
  317POPC   C3B 4116   5.870   6.345   5.301  0.0299 -0.1676 -0.0930
  317POPC   C4B 4117   5.592   6.626   5.494  0.1933 -0.0638  0.1777
  318POPC   NC3 4118   5.747   7.606   3.791  0.0809  0.1638  0.1556
  318POPC   PO4 4119   5.998   7.935   3.581  0.0380  0.3814  0.2127
  318POPC   GL1 4120   5.921   8.224   3.891 -0.0093 -0.0635 -0.0543
  318POPC   GL2 4121   5.765   8.394   3.811 -0.0754 -0.0845  0.3454
  318POPC   C1A 4122   5.691   8.028   4.377 -0.0430  0.3427 -0.1838
  318POPC   D2A 4123   5.310   8.128   4.661  0.1946 -0.4642 -0.0024
  318POPC   C3A 4124   5.311   7.996   5.033  0.1226 -0.1206  0.0991
  318POPC   C4A 4125   5.243   7.797   5.422 -0.4525 -0.0024  0.0257
  318POPC   C1B 4126   5.506   8.477   4.161  0.1945 -0.0466  0.0682
  318POPC   C2B 4127   5.595   8.555   4.555 -0.1197  0.0792 -0.0682
  318POPC   C3B 4128   5.635   8.580   4.986  0.1222  0.1307 -0.0653
  318POPC   C4B 4129   5.480   8.298   5.370 -0.1073 -0.0872 -0.0350
  319POPC   NC3 4130   0.657   4.181   3.729 -0.0426  0.1085  0.3605
  319POPC   PO4 4131   0.648   4.429   4.062 -0.0007 -0.1145 -0.1539
  319POPC   GL1 4132   0.412   4.092   4.222 -0.0269 -0.1412  0.2207
  319POPC   GL2 4133   0.442   3.789   4.028 -0.0278 -0.2816  0.0420
  319POPC   C1A 4134   0.142   3.835   4.548  0.1422  0.0297  0.0143
  319POPC   D2A 4135  -0.002   3.926   4.960  0.2521  0.2635  0.1656
  319POPC   C3A 4136  -0.181   3.468   5.088  0.0452 -0.1321  0.0506
  319POPC   C4A 4137  -0.377   3.300   5.474 -0.1350 -0.0502  0.0123
  319POPC   C1B 4138   0.616   3.714   4.455  0.2341  0.0380  0.3819
  319POPC   C2B 4139   0.796   3.297   4.546 -0.0453  0.2719  0.3303
  319POPC   C3B 4140   0.599   3.103   5.027 -0.4964  0.1188 -0.0228
  319POPC   C4B 4141   0.203   3.255   5.266  0.0810  0.1798  0.0930
  320POPC   NC3 4142  10.173   0.776   3.536 -0.0635  0.0058  0.0659
  320POPC   PO4 4143  10.251   1.238   3.522  0.0339 -0.0336  0.2659
  320POPC   GL1 4144  10.471   1.392   3.891  0.3415 -0.0660 -0.2178
  320POPC   GL2 4145  10.707   1.596   3.880 -0.0215  0.2285 -0.3026
  320POPC   C1A 4146  10.311   1.649   4.278  0.0336 -0.0715  0.0023
  320POPC   D2A 4147  10.300   1.870   4.746  0.0030  0.0660  0.0757
  320POPC   C3A 4148  10.040   2.085   5.135  0.0557  0.0170 -0.0217
  320POPC   C4A 4149   9.757   2.441   5.321  0.2191  0.3127  0.0628
  320POPC   C1B 4150  10.844   1.516   4.357 -0.0044  0.0002 -0.0661
  320POPC   C2B 4151  11.045   1.331   4.676  0.1885  0.1589  0.2188
  320POPC   C3B 4152  11.067   1.133   5.089  0.0961  0.1263  0.1184
  320POPC   C4B 4153  10.977   0.794   5.207 -0.2304  0.0231 -0.1262
  321POPC   NC3 4154  10.419   0.065   3.047 -0.1538 -0.0510  0.4584
  321POPC   PO4 4155  10.803  -0.086   3.330 -0.3817  0.1401  0.0653
  321POPC   GL1 4156  11.122  -0.217   3.545  0.1689 -0.0527  0.1987
  321POPC   GL2 4157  11.395  -0.140   3.522  0.0097  0.5120  0.1202
  321POPC   C1A 4158  11.225  -0.375   3.976  0.1222  0.0588  0.1528
  321POPC   D2A 4159  11.168  -0.664   4.204 -0.1174  0.1417 -0.2584
  321POPC   C3A 4160  11.119  -0.700   4.587 -0.6986 -0.1546  0.0434
  321POPC   C4A 4161  11.338  -0.592   4.955  0.1774 -0.2122  0.0564
  321POPC   C1B 4162  11.193   0.185   3.816 -0.1187 -0.1660 -0.1699
  321POPC   C2B 4163  10.919   0.564   3.946 -0.0518 -0.0742 -0.0413
  321POPC   C3B 4164  10.764   0.937   4.115  0.0664 -0.1116  0.0472
  321POPC   C4B 4165  10.510   1.032   4.418 -0.0774  0.3916  0.0260
  322POPC   NC3 4166   4.946   3.225   2.716  0.1035 -0.1236 -0.0464
  322POPC   PO4 4167   4.720   3.030   3.120  0.1515 -0.0545  0.1329
  322POPC   GL1 4168   4.956   2.902   3.400  0.1685 -0.0948  0.0207
  322POPC   GL2 4169   4.732   2.748   3.598  0.0019 -0.0449  0.0969
  322POPC   C1A 4170   5.030   2.977   3.900 -0.1498  0.1439  0.1444
  322POPC   D2A 4171   5.167   3.138   4.391 -0.1041 -0.1451 -0.4451
  322POPC   C3A 4172   5.653   3.260   4.474 -0.0513  0.0207  0.0420
  322POPC   C4A 4173   5.950   3.293   4.710 -0.2056 -0.0876 -0.0271
  322POPC   C1B 4174   4.712   2.667   4.067  0.0233 -0.3510 -0.2383
  322POPC   C2B 4175   4.340   2.662   4.365  0.2326 -0.3022 -0.0638
  322POPC   C3B 4176   3.976   2.481   4.764 -0.0248 -0.1804  0.0403
  322POPC   C4B 4177   3.857   2.042   4.864  0.0619  0.1074 -0.2798
  323POPC   NC3 4178   5.099   9.157   3.086 -0.1721  0.2992 -0.1217
  323POPC   PO4 4179   4.958   9.475   3.163 -0.0403  0.1985 -0.1590
  323POPC   GL1 4180   5.093   9.444   3.580 -0.2688 -0.0764 -0.2461
  323POPC   GL2 4181   4.891   9.556   3.698 -0.0146  0.0407 -0.3263
  323POPC   C1A 4182   5.302   9.251   3.906 -0.2407  0.2478  0.1370
  323POPC   D2A 4183   5.411   8.971   4.245 -0.1788  0.3328  0.3366
  323POPC   C3A 4184   5.129   8.659   4.492  0.1610 -0.3275  0.3897
  323POPC   C4A 4185   5.118   8.539   4.949  0.0167  0.2427  0.1444
  323POPC   C1B 4186   5.152   9.677   4.157 -0.3012  0.0421  0.1232
  323POPC   C2B 4187   5.325   9.382   4.494 -0.0544  0.2542 -0.1186
  323POPC   C3B 4188   5.456   9.432   4.980 -0.3702  0.0026 -0.1937
  323POPC   C4B 4189   5.245   9.682   5.320  0.1852  0.2439  0.0177
  324POPC   NC3 4190   7.096   3.653   3.561  0.2000 -0.0929 -0.0244
  324POPC   PO4 4191   6.726   3.919   3.613  0.2567  0.0813 -0.0677
  324POPC   GL1 4192   6.504   4.007   3.870  0.3089 -0.0403 -0.0130
  324POPC   GL2 4193   6.485   4.418   3.871  0.2267  0.0210 -0.3145
  324POPC   C1A 4194   6.244   4.030   4.197  0.2743 -0.4410  0.2638
  324POPC   D2A 4195   6.152   4.261   4.451  0.3495  0.1472 -0.1494
  324POPC   C3A 4196   6.070   4.340   4.883 -0.2619  0.0496  0.2968
  324POPC   C4A 4197   6.097   4.689   5.105  0.3919  0.2353 -0.1946
  324POPC   C1B 4198   6.357   4.690   4.324 -0.3727  0.3083  0.3659
  324POPC   C2B 4199   6.194   4.876   4.683  0.3145 -0.0129 -0.3620
  324POPC   C3B 4200   5.819   5.095   4.808 -0.1332 -0.2313 -0.0457
  324POPC   C4B 4201   5.713   5.153   5.159 -0.0351 -0.1043  0.1127
  325POPC   NC3 4202   2.312   4.061   3.379 -0.4147  0.0990 -0.1586
  325POPC   PO4 4203   2.758   4.067   3.172  0.0787  0.1213 -0.0702
  325POPC   GL1 4204   2.843   4.080   3.629  0.0651  0.2915 -0.1877
  325POPC   GL2 4205   3.243   4.047   3.688  0.0485  0.2140  0.0258
  325POPC   C1A 4206   2.623   4.130   3.999 -0.1321 -0.2313  0.1608
  325POPC   D2A 4207   2.575   4.239   4.434  0.0619  0.3227 -0.2923
  325POPC   C3A 4208   2.630   4.599   4.599 -0.1845  0.1654  0.0434
  325POPC   C4A 4209   2.486   5.020   4.857  0.0073 -0.1670  0.1825
  325POPC   C1B 4210   3.093   4.211   4.113  0.1014  0.1360 -0.0805
  325POPC   C2B 4211   3.188   4.290   4.585 -0.2010 -0.1422  0.4426
  325POPC   C3B 4212   3.186   4.150   4.981  0.0163 -0.0843  0.4431
  325POPC   C4B 4213   3.265   4.161   5.347  0.0923 -0.1564  0.0899
  326POPC   NC3 4214   4.236   3.019   3.102  0.0159  0.0929  0.0448
  326POPC   PO4 4215   3.902   3.024   3.224  0.1607 -0.0246 -0.0992
  326POPC   GL1 4216   4.039   3.256   3.691  0.1185 -0.2948  0.0063
  326POPC   GL2 4217   3.907   3.602   3.726  0.1789 -0.1518 -0.0932
  326POPC   C1A 4218   4.262   3.119   4.008  0.1669 -0.1146  0.0476
  326POPC   D2A 4219   4.672   3.107   4.279  0.2259 -0.0160 -0.0166
  326POPC   C3A 4220   4.851   2.852   4.598 -0.0745 -0.1337 -0.3496
  326POPC   C4A 4221   4.902   2.753   4.970 -0.1603 -0.2895  0.0243
  326POPC   C1B 4222   3.878   3.423   4.246 -0.1942  0.0565 -0.2443
  326POPC   C2B 4223   3.805   3.511   4.690 -0.1739 -0.1461 -0.1825
  326POPC   C3B 4224   4.204   3.346   5.013 -0.0942  0.1382  0.0456
  326POPC   C4B 4225   4.289   3.348   5.372 -0.2049 -0.1655  0.2970
  327POPC   NC3 4226   0.713  10.096   3.503 -0.3925  0.1405  0.2330
  327POPC   PO4 4227   0.420   9.894   3.395  0.0198  0.0469  0.1221
  327POPC   GL1 4228   0.091   9.985   3.773  0.3437  0.2310  0.1538
  327POPC   GL2 4229  -0.094  10.351   3.879  0.4262 -0.0167 -0.0392
  327POPC   C1A 4230  -0.049   9.950   4.227 -0.4614 -0.2287  0.1038
  327POPC   D2A 4231  -0.152  10.020   4.602 -0.3096 -0.3395 -0.2804
  327POPC   C3A 4232   0.066  10.312   4.890 -0.1431 -0.2164 -0.1458
  327POPC   C4A 4233   0.131  10.646   5.211  0.0150  0.0715 -0.1431
  327POPC   C1B 4234  -0.375  10.307   4.250  0.3896 -0.3097 -0.2216
  327POPC   C2B 4235  -0.186  10.502   4.481  0.0105 -0.0996 -0.0074
  327POPC   C3B 4236  -0.063  10.816   4.710  0.1568 -0.0230  0.2589
  327POPC   C4B 4237  -0.053  11.171   4.868  0.2556  0.1787  0.2151
  328POPC   NC3 4238   0.093   0.866   3.184  0.1121 -0.0419  0.2217
  328POPC   PO4 4239  -0.177   0.488   3.274  0.1003 -0.2139  0.4582
  328POPC   GL1 4240  -0.132   0.303   3.695 -0.2254  0.0374  0.0309
  328POPC   GL2 4241  -0.277   0.446   3.954 -0.0732  0.4764  0.0537
  328POPC   C1A 4242   0.028   0.053   4.132 -0.1229  0.0950  0.1341
  328POPC   D2A 4243   0.289  -0.209   4.372  0.0739  0.0084  0.0469
  328POPC   C3A 4244   0.426  -0.062   4.774  0.0633  0.1098  0.3301
  328POPC   C4A 4245   0.392   0.297   4.959  0.2972  0.1714  0.0774
  328POPC   C1B 4246  -0.072   0.516   4.393 -0.1042  0.0870 -0.2892
  328POPC   C2B 4247   0.261   0.740   4.707  0.0277  0.0796 -0.0099
  328POPC   C3B 4248   0.627   0.654   4.783 -0.2666  0.0601  0.1326
  328POPC   C4B 4249   0.899   0.903   5.045 -0.2574  0.0138 -0.0481
  329POPC   NC3 4250   3.554   1.091   2.925 -0.0645  0.3151 -0.0256
  329POPC   PO4 4251   3.407   0.709   3.297 -0.0100  0.0786  0.1812
  329POPC   GL1 4252   3.482   0.989   3.557  0.3073 -0.3462  0.0457
  329POPC   GL2 4253   3.691   1.226   3.497  0.1465 -0.4070 -0.0822
  329POPC   C1A 4254   3.217   1.086   3.939 -0.1433 -0.0101  0.3015
  329POPC   D2A 4255   3.106   1.114   4.290  0.2569  0.2727 -0.0321
  329POPC   C3A 4256   3.090   0.797   4.544 -0.0705  0.1447 -0.3018
  329POPC   C4A 4257   3.095   0.338   4.621  0.0286  0.2418 -0.0973
  329POPC   C1B 4258   4.032   1.343   3.620  0.1008 -0.2882  0.1202
  329POPC   C2B 4259   4.230   1.148   4.052 -0.0414 -0.3069  0.4774
  329POPC   C3B 4260   4.156   1.135   4.477  0.0419 -0.1114  0.1880
  329POPC   C4B 4261   4.395   1.336   4.665  0.2168 -0.0070  0.1291
  330POPC   NC3 4262   5.226   0.753   3.033  0.0753 -0.0352 -0.1761
  330POPC   PO4 4263   5.146   0.390   3.197 -0.0963  0.3558  0.0536
  330POPC   GL1 4264   5.093   0.256   3.604 -0.0413 -0.1488 -0.1747
  330POPC   GL2 4265   4.850   0.094   3.719  0.1202  0.2686 -0.2310
  330POPC   C1A 4266   5.068   0.503   3.950  0.0583 -0.0228 -0.0171
  330POPC   D2A 4267   4.979   0.704   4.363  0.0141  0.3246  0.1861
  330POPC   C3A 4268   5.141   0.613   4.737 -0.5316  0.1135  0.2275
  330POPC   C4A 4269   5.625   0.497   4.939 -0.1889 -0.0829  0.1985
  330POPC   C1B 4270   4.620  -0.083   4.137 -0.1919  0.3814  0.0046
  330POPC   C2B 4271   4.691  -0.155   4.630  0.1457  0.2210 -0.0911
  330POPC   C3B 4272   4.464  -0.214   4.989  0.2290 -0.0346 -0.2240
  330POPC   C4B 4273   4.100  -0.261   5.219  0.1876  0.1706 -0.1901
  331POPC   NC3 4274   0.521   8.679   3.690 -0.2768  0.0733 -0.4549
  331POPC   PO4 4275   0.722   9.082   3.635 -0.3480 -0.2923 -0.0496
  331POPC   GL1 4276   0.629   9.100   4.052 -0.4528  0.4312  0.0916
  331POPC   GL2 4277   0.719   8.821   4.191 -0.0825 -0.5330  0.1332
  331POPC   C1A 4278   0.863   9.307   4.438 -0.1945 -0.1394  0.0324
  331POPC   D2A 4279   0.621   9.587   4.694  0.0257  0.2122 -0.0158
  331POPC   C3A 4280   0.450   9.338   5.065  0.2730  0.1656 -0.4837
  331POPC   C4A 4281   0.367   9.444   5.481  0.4522  0.0589  0.1291
  331POPC   C1B 4282   0.729   8.891   4.639  0.0601  0.1861 -0.1560
  331POPC   C2B 4283   0.945   8.856   4.936  0.0553 -0.3400  0.1501
  331POPC   C3B 4284   0.883   9.200   5.216 -0.2270 -0.3515  0.0969
  331POPC   C4B 4285   0.788   9.673   5.272  0.1429  0.1520  0.0635
  332POPC   NC3 4286   6.965   6.804   3.237 -0.1937  0.1764 -0.3206
  332POPC   PO4 4287   7.175   7.093   3.322  0.0470  0.0201 -0.1769
  332POPC   GL1 4288   7.441   7.023   3.744  0.3339 -0.2010 -0.1316
  332POPC   GL2 4289   7.676   6.820   3.618 -0.0575  0.0487 -0.2308
  332POPC   C1A 4290   7.387   6.762   4.191  0.1393  0.0638  0.2426
  332POPC   D2A 4291   7.353   6.824   4.605  0.1338  0.0060 -0.0407
  332POPC   C3A 4292   7.715   6.675   4.806  0.0059 -0.1261 -0.1326
  332POPC   C4A 4293   7.995   6.331   4.787  0.0280  0.1140  0.3010
  332POPC   C1B 4294   7.841   6.802   4.048 -0.1395  0.0991  0.0288
  332POPC   C2B 4295   8.039   6.609   4.368  0.1420  0.2373  0.0905
  332POPC   C3B 4296   8.484   6.541   4.526 -0.0743  0.0844 -0.2767
  332POPC   C4B 4297   8.843   6.460   4.672 -0.1337 -0.0723  0.0025
  333POPC   NC3 4298  10.569   5.792   3.426 -0.3423  0.0555  0.0683
  333POPC   PO4 4299  10.347   6.181   3.445  0.0313  0.0814 -0.1925
  333POPC   GL1 4300  10.222   6.454   3.816 -0.0734 -0.4359  0.1960
  333POPC   GL2 4301  10.507   6.619   4.143  0.1761 -0.0763  0.1575
  333POPC   C1A 4302  10.137   6.322   4.168 -0.2760 -0.0942  0.4229
  333POPC   D2A 4303  10.061   6.608   4.505 -0.1162  0.1510 -0.0574
  333POPC   C3A 4304   9.678   6.579   4.811 -0.2156  0.2665 -0.2864
  333POPC   C4A 4305   9.573   6.951   4.991 -0.1099 -0.1384 -0.0686
  333POPC   C1B 4306  10.385   6.946   4.549  0.0895 -0.2366 -0.1102
  333POPC   C2B 4307  10.100   6.941   4.981  0.0888  0.1164 -0.0047
  333POPC   C3B 4308   9.862   6.708   5.299  0.1509 -0.0387  0.1831
  333POPC   C4B 4309   9.464   6.643   5.372  0.1522  0.2665 -0.2032
  334POPC   NC3 4310   3.603   2.685   3.435 -0.0888  0.1198  0.1474
  334POPC   PO4 4311   3.917   2.343   3.504  0.1027 -0.1344 -0.3479
  334POPC   GL1 4312   3.709   2.239   3.865  0.2913  0.0042 -0.2503
  334POPC   GL2 4313   3.402   2.445   3.786  0.2133  0.1350 -0.0691
  334POPC   C1A 4314   3.472   1.951   4.163  0.0378  0.0740 -0.1556
  334POPC   D2A 4315   3.269   1.681   4.556  0.1081  0.6585  0.1907
  334POPC   C3A 4316   3.403   1.574   4.946 -0.0228 -0.1394 -0.0678
  334POPC   C4A 4317   3.573   1.423   5.313  0.1499 -0.1089 -0.0233
  334POPC   C1B 4318   3.467   2.704   4.112 -0.3186 -0.0055 -0.0554
  334POPC   C2B 4319   3.838   2.862   4.307  0.0554  0.0544  0.0857
  334POPC   C3B 4320   4.128   3.101   4.570 -0.1122  0.1316 -0.1538
  334POPC   C4B 4321   4.366   2.862   4.797  0.1574 -0.0016  0.3116
  335POPC   NC3 4322  10.402   3.661   3.689 -0.0651  0.1189  0.0931
  335POPC   PO4 4323   9.986   3.506   3.857  0.1318 -0.0649 -0.1089
  335POPC   GL1 4324  10.154   3.328   4.238  0.1341  0.4809 -0.2249
  335POPC   GL2 4325   9.866   3.203   4.422  0.1371  0.5086 -0.1325
  335POPC   C1A 4326  10.350   3.474   4.611 -0.1377 -0.0543 -0.3397
  335POPC   D2A 4327  10.085   3.302   4.919 -0.0859  0.0772  0.2335
  335POPC   C3A 4328   9.580   3.055   4.891  0.4364  0.3738 -0.0601
  335POPC   C4A 4329   9.357   3.079   4.479  0.0556 -0.1708  0.3492
  335POPC   C1B 4330   9.732   3.541   4.610  0.2380  0.1749  0.0625
  335POPC   C2B 4331   9.578   3.746   5.031 -0.0901 -0.0500  0.6338
  335POPC   C3B 4332   9.586   3.872   5.461  0.2268  0.1802  0.3466
  335POPC   C4B 4333   9.632   4.132   5.837  0.1060  0.4528 -0.2369
  336POPC   NC3 4334   2.893   8.620   3.485 -0.1909  0.0691 -0.0077
  336POPC   PO4 4335   3.238   8.944   3.287  0.1006 -0.1783 -0.5326
  336POPC   GL1 4336   3.239   9.012   3.699  0.0431  0.0579  0.4312
  336POPC   GL2 4337   2.869   9.043   3.794 -0.2465 -0.0959 -0.0582
  336POPC   C1A 4338   3.319   8.949   4.121  0.1888  0.0647  0.0252
  336POPC   D2A 4339   3.417   9.010   4.581 -0.0662 -0.2117 -0.0011
  336POPC   C3A 4340   3.464   8.987   5.021  0.4320 -0.1947  0.5095
  336POPC   C4A 4341   3.617   8.884   5.478 -0.1740 -0.1006 -0.0557
  336POPC   C1B 4342   3.072   9.459   4.023  0.1355  0.4681  0.1219
  336POPC   C2B 4343   3.042   9.718   4.366  0.0774 -0.1454 -0.2164
  336POPC   C3B 4344   3.178   9.944   4.767 -0.7462 -0.0675  0.1394
  336POPC   C4B 4345   3.143  10.141   5.187 -0.3987 -0.2342  0.0459
  337POPC   NC3 4346   8.120   2.917   3.179 -0.4712 -0.0183 -0.2723
  337POPC   PO4 4347   8.125   3.344   3.283 -0.2785 -0.1077 -0.2097
  337POPC   GL1 4348   8.179   3.476   3.765  0.3323 -0.1607 -0.1021
  337POPC   GL2 4349   8.065   3.759   3.908  0.1185  0.0563 -0.0876
  337POPC   C1A 4350   8.198   3.182   4.050 -0.5527  0.0864 -0.2151
  337POPC   D2A 4351   8.460   2.963   4.365  0.2503  0.1547  0.3766
  337POPC   C3A 4352   8.603   3.213   4.811 -0.3980  0.2174 -0.1024
  337POPC   C4A 4353   8.717   3.621   4.861 -0.2948  0.2854 -0.0192
  337POPC   C1B 4354   8.361   4.110   4.138  0.1242  0.1013 -0.1274
  337POPC   C2B 4355   8.601   4.247   4.498  0.1890  0.1655 -0.2014
  337POPC   C3B 4356   8.670   4.105   4.963  0.0173  0.2147  0.2406
  337POPC   C4B 4357   9.124   3.854   5.133 -0.0886 -0.0506  0.3770
  338POPC   NC3 4358   0.373   7.835   4.028 -0.0964 -0.0071 -0.1131
  338POPC   PO4 4359   0.074   8.228   4.079 -0.2659  0.2082  0.2146
  338POPC   GL1 4360  -0.065   8.400   4.407  0.0777 -0.3829  0.0744
  338POPC   GL2 4361  -0.174   8.723   4.438 -0.0869 -0.0289 -0.1497
  338POPC   C1A 4362  -0.228   8.195   4.753 -0.2133 -0.1632  0.2160
  338POPC   D2A 4363  -0.660   8.185   4.761  0.0105  0.0120  0.2697
  338POPC   C3A 4364  -0.935   7.935   5.061  0.1950  0.1927 -0.0422
  338POPC   C4A 4365  -1.252   8.083   5.312 -0.1272  0.5409 -0.6095
  338POPC   C1B 4366  -0.130   8.682   4.889  0.2837  0.0216  0.1372
  338POPC   C2B 4367  -0.382   8.757   5.281 -0.3569  0.2077  0.1417
  338POPC   C3B 4368  -0.660   8.717   5.661 -0.2694  0.2319 -0.1266
  338POPC   C4B 4369  -0.598   8.607   6.054 -0.0233  0.0278 -0.2928
  339POPC   NC3 4370   9.177   5.273   3.724 -0.0633  0.2567 -0.4319
  339POPC   PO4 4371   9.526   5.540   3.604  0.2077  0.0224 -0.1571
  339POPC   GL1 4372   9.464   5.688   4.048  0.0415  0.0085  0.3733
  339POPC   GL2 4373   9.163   5.605   4.126 -0.3243  0.0472 -0.0152
  339POPC   C1A 4374   9.506   5.776   4.540  0.1710 -0.2089  0.1206
  339POPC   D2A 4375   9.364   6.074   4.826  0.1107  0.1415 -0.1635
  339POPC   C3A 4376   9.282   5.792   5.045  0.0292  0.4451 -0.0907
  339POPC   C4A 4377   9.357   5.631   5.416  0.0711  0.0379 -0.0425
  339POPC   C1B 4378   8.962   5.974   4.392 -0.5274  0.2404 -0.2945
  339POPC   C2B 4379   8.917   6.066   4.918  0.2703  0.2432  0.3453
  339POPC   C3B 4380   8.880   5.890   5.263 -0.1693  0.1569  0.0295
  339POPC   C4B 4381   8.816   5.672   5.562  0.1213 -0.3022 -0.2494
  340POPC   NC3 4382   6.411   8.231   3.632  0.0624  0.3923  0.2060
  340POPC   PO4 4383   6.787   8.010   3.588 -0.1837  0.0512  0.0987
  340POPC   GL1 4384   6.737   7.872   3.881 -0.0788 -0.1635 -0.1127
  340POPC   GL2 4385   6.788   7.540   3.894 -0.1609 -0.0169  0.0309
  340POPC   C1A 4386   6.626   7.708   4.388 -0.0867  0.0447  0.1436
  340POPC   D2A 4387   6.661   7.732   4.784  0.0483  0.2392 -0.1324
  340POPC   C3A 4388   7.016   7.536   5.015 -0.3220 -0.2540 -0.1074
  340POPC   C4A 4389   7.297   7.397   5.417 -0.0320  0.0378 -0.0242
  340POPC   C1B 4390   6.561   7.288   4.136  0.1746  0.0268 -0.3888
  340POPC   C2B 4391   6.433   7.058   4.575  0.2258  0.2412 -0.0752
  340POPC   C3B 4392   6.371   6.847   4.982  0.2397 -0.1228 -0.0279
  340POPC   C4B 4393   6.211   6.635   5.353 -0.1383 -0.1854  0.3794
  341POPC   NC3 4394   8.772   7.888   3.231 -0.1040 -0.0512 -0.2642
  341POPC   PO4 4395   8.430   7.757   3.442 -0.3816 -0.0756 -0.0508
  341POPC   GL1 4396   8.556   7.690   3.765  0.0436  0.2788 -0.2387
  341POPC   GL2 4397   8.891   7.856   3.707  0.1044  0.2126 -0.3098
  341POPC   C1A 4398   8.522   7.831   4.112 -0.1725  0.1970  0.0429
  341POPC   D2A 4399   8.718   8.000   4.520 -0.1269 -0.0151 -0.0253
  341POPC   C3A 4400   8.798   7.758   4.852  0.2826  0.0478 -0.1117
  341POPC   C4A 4401   8.795   7.782   5.272 -0.1766  0.1230 -0.0355
  341POPC   C1B 4402   9.030   7.816   4.202  0.1487 -0.1092  0.0227
  341POPC   C2B 4403   9.198   7.871   4.556  0.1357  0.1310  0.2405
  341POPC   C3B 4404   9.238   8.103   4.930  0.1182  0.0502  0.3778
  341POPC   C4B 4405   9.047   8.437   5.202  0.0098  0.1801 -0.2171
  342W        W 4406   1.263   2.342   9.488 -0.1738  0.3156  0.1344
  343W        W 4407   8.665   3.577   0.277 -0.2269 -0.2904  0.0826
  344W        W 4408   5.887   2.217   9.397  0.1448  0.0644  0.3514
  345W        W 4409   2.632   5.916   2.806 -0.0145  0.1659 -0.0180
  346W        W 4410   5.660   4.491   1.532  0.0506  0.1049 -0.2537
  347W        W 4411   0.352   5.769   2.276 -0.1122  0.1793 -0.0155
  348W        W 4412   7.932   9.898  10.012  0.1222  0.0036  0.3373
  349W        W 4413   6.997   6.179  10.544 -0.0656 -0.0830  0.3035
  350W        W 4414   2.585   8.838  11.285 -0.3328  0.0573  0.0417
  351W        W 4415   0.992   5.082   0.834  0.0989  0.1886 -0.0077
  352W        W 4416   2.739   9.040   2.547  0.0616 -0.4311 -0.2110
  353W        W 4417   5.005   8.184   1.647  0.5362  0.3385 -0.0067
  354W        W 4418   6.655   8.762   1.676 -0.3201 -0.0445 -0.1155
  355W        W 4419   7.000   3.926   0.887  0.0509  0.4120  0.1319
  356W        W 4420  10.006   4.089   3.706  0.2146 -0.4324 -0.2747
  357W        W 4421   4.745   9.132   1.795  0.1497  0.1030  0.2443
  358W        W 4422   2.567   7.951   0.400 -0.0567 -0.1809  0.1636
  359W        W 4423   8.360   1.542   8.445  0.1244  0.2050  0.0109
  360W        W 4424   2.640  10.178   6.806 -0.2254 -0.1064 -0.0660
  361W        W 4425   1.460   8.637   0.492  0.2196 -0.0590 -0.2118
  362W        W 4426   7.729   6.473   8.914 -0.0761 -0.5276 -0.2770
  363W        W 4427   5.851   5.590   8.489 -0.1606 -0.0869 -0.2690
  364W        W 4428  10.041   9.502  10.984  0.2696 -0.1296 -0.3675
  365W        W 4429  10.093   6.428  11.243  0.0771  0.1372 -0.0809
  366W        W 4430   1.274   2.930   8.410  0.0641 -0.1889 -0.2285
  367W        W 4431   7.081   8.392   7.257 -0.1899  0.0691 -0.1439
  368W        W 4432   2.296   9.950   0.934 -0.1169 -0.1576  0.0003
  369W        W 4433   5.207   7.101  10.707 -0.0545 -0.1345  0.1404
  370W        W 4434   0.724   2.545   7.691  0.0932  0.1461 -0.0045
  371W        W 4435   4.275   0.695   7.704  0.0949  0.0098 -0.0114
  372W        W 4436   1.786   8.887   9.098 -0.3491  0.2215 -0.0146
  373W        W 4437   2.051   3.311   1.251  0.0269  0.2497 -0.0327
  374W        W 4438   2.263  10.248   8.044  0.2888  0.2708  0.3680
  375W        W 4439   9.718   2.087   0.798 -0.1194 -0.2408 -0.2479
  376W        W 4440   0.293   8.137   8.890  0.0218 -0.0423 -0.3047
  377W        W 4441   4.968   8.175   2.390 -0.0348  0.1135  0.0909
  378W        W 4442   7.671   4.373   0.378  0.4489  0.0592  0.0524
  379W        W 4443   9.213  10.533   0.031 -0.1192  0.0199 -0.2733
  380W        W 4444  10.396   8.885  10.141  0.2166  0.0281 -0.1551
  381W        W 4445   7.981   3.954   0.479  0.1224 -0.1806  0.1086
  382W        W 4446   9.982   8.316   3.020  0.1136  0.1437  0.2520
  383W        W 4447   4.605   2.182  11.181 -0.0497  0.1321 -0.0778
  384W        W 4448   9.996   5.676   2.257 -0.0575 -0.2317 -0.1493
  385W        W 4449   0.726   1.204   2.500 -0.4514 -0.2254 -0.0562
  386W        W 4450   1.636  10.681   8.926  0.1931  0.0675  0.1668
  387W        W 4451   6.980   2.522   9.114 -0.1770 -0.0333 -0.1181
  388W        W 4452   4.241   9.580  10.202  0.1036  0.0789 -0.2292
  389W        W 4453   3.042   1.525   2.868  0.3625 -0.1024 -0.2723
  390W        W 4454  10.273   3.105   3.338 -0.5272  0.0951  0.0391
  391W        W 4455   7.734  10.083   1.944 -0.2183  0.0038 -0.0793
  392W        W 4456   9.395   0.213  10.624  0.1888  0.0217 -0.1916
  393W        W 4457   6.882   2.234   3.285  0.2772 -0.1264  0.0591
  394W        W 4458   8.486   2.592   1.756  0.0733 -0.1958 -0.0923
  395W        W 4459   9.423   9.998   8.196 -0.0565 -0.0295  0.0125
  396W        W 4460   1.197   7.999   9.005  0.0925 -0.1925  0.0200
  397W        W 4461   2.575   6.043   9.808  0.1336 -0.2053 -0.0576
  398W        W 4462   9.869   0.284   1.183 -0.0940 -0.1654  0.0174
  399W        W 4463   6.676   9.233   2.015  0.1840 -0.0729 -0.1114
  400W        W 4464   7.007   8.473   1.140 -0.0118 -0.0544  0.0450
  401W        W 4465   8.581   8.288   3.647  0.2057 -0.3742 -0.0252
  402W        W 4466   4.633   3.060   9.848  0.1720 -0.1403 -0.0179
  403W        W 4467   9.696   0.052  11.247  0.0941  0.1677  0.1182
  404W        W 4468   4.438   1.103  10.150 -0.0951 -0.0448 -0.0116
  405W        W 4469   8.892   2.995   7.632 -0.0344 -0.1833  0.1226
  406W        W 4470   4.017   8.611   1.537 -0.3150  0.0521 -0.1101
  407W        W 4471   9.862   7.004   2.228 -0.0045  0.0337 -0.0926
  408W        W 4472   1.334   2.920   0.192 -0.0011  0.2541 -0.0447
  409W        W 4473   2.693   0.870   0.338  0.1659 -0.0578 -0.0486
  410W        W 4474   7.303   6.737   9.941  0.1923  0.1321 -0.4005
  411W        W 4475   2.031  10.406   6.861  0.3216  0.0493  0.3813
  412W        W 4476   2.017   7.702   2.491 -0.2157  0.2000 -0.0662
  413W        W 4477   2.088   6.044   1.901  0.2640  0.0281  0.1075
  414W        W 4478   3.985   8.581   2.313  0.0770  0.0195 -0.0483
  415W        W 4479   5.905   6.867   8.630  0.3069  0.1385 -0.0920
  416W        W 4480   4.242   8.752   0.240  0.0951 -0.2815 -0.1409
  417W        W 4481   1.074   6.142   4.386  0.0312  0.0372 -0.2508
  418W        W 4482   8.595   4.487   1.407 -0.4134  0.2035 -0.0720
  419W        W 4483   6.166   1.588   9.682  0.2901  0.1788 -0.1291
  420W        W 4484   5.976   3.661   0.519  0.4458 -0.1907  0.1001
  421W        W 4485   6.144   8.373   8.277 -0.0961 -0.2395 -0.1774
  422W        W 4486   6.680   9.855   8.835 -0.0002 -0.1454 -0.0271
  423W        W 4487   2.182  10.352   9.611  0.0642 -0.0576 -0.1438
  424W        W 4488   3.061   7.579   8.312 -0.1139 -0.0099  0.2864
  425W        W 4489   1.936   6.657   9.462  0.3360 -0.0912  0.0437
  426W        W 4490   9.816   4.187   1.472 -0.2374 -0.2427 -0.0138
  427W        W 4491   5.694   8.772   9.891  0.1811 -0.0743  0.0337
  428W        W 4492   7.972   3.677   2.391 -0.0732  0.0326 -0.2605
  429W        W 4493   2.921   8.176   1.399  0.1749 -0.0902  0.0178
  430W        W 4494   3.318   7.787   2.194  0.0508  0.0573 -0.2622
  431W        W 4495   6.741   8.034   9.811 -0.1382  0.2077  0.0523
  432W        W 4496   2.929   2.596  10.174  0.1303 -0.1094  0.0357
  433W        W 4497   2.013   6.280   2.340  0.1163  0.0250 -0.0497
  434W        W 4498   7.638   7.094   9.816  0.0909 -0.1222 -0.0378
  435W        W 4499   2.557   4.765   2.148 -0.0681  0.3194  0.1721
  436W        W 4500  10.639   7.910   9.143 -0.1198 -0.1630 -0.0356
  437W        W 4501   5.408   6.659   8.471 -0.0459  0.0932 -0.2110
  438W        W 4502   9.109   0.684  10.930 -0.0655 -0.0870  0.1596
  439W        W 4503   6.611   6.018   0.503 -0.2574 -0.1199 -0.3846
  440W        W 4504   1.882   6.112   3.857 -0.1269 -0.1107 -0.0133
  441W        W 4505   7.039   5.196   3.335  0.0658  0.0066 -0.0334
  442W        W 4506   3.142   6.182   0.248  0.1373 -0.0874 -0.2376
  443W        W 4507   9.223   4.952   9.860 -0.0172 -0.0338  0.3571
  444W        W 4508   9.950   9.675  10.439 -0.0571 -0.2210  0.2850
  445W        W 4509   3.265   1.141   9.088  0.4047  0.3623  0.0622
  446W        W 4510   2.652   6.303   8.155  0.1170  0.0134  0.3477
  447W        W 4511   2.219   0.433   6.980 -0.2685  0.1823  0.1001
  448W        W 4512  10.000  10.148   8.356 -0.0923 -0.1378  0.2062
  449W        W 4513   7.976   4.432   9.621  0.4706 -0.0116 -0.1161
  450W        W 4514   3.563   8.839   8.811 -0.1009  0.2332 -0.1376
  451W        W 4515   5.750   9.845  10.739  0.0706  0.0945 -0.1661
  452W        W 4516   6.334   9.893   0.791 -0.1328  0.0732  0.1695
  453W        W 4517   7.964   3.244   8.807  0.1215  0.0493 -0.1736
  454W        W 4518   6.401   7.706   1.117 -0.0450 -0.0552 -0.1754
  455W        W 4519   5.602   1.581   8.005 -0.2404  0.2853  0.1418
  456W        W 4520   0.788   0.684   9.915  0.0816 -0.4581  0.2099
  457W        W 4521   0.102   9.330   2.772 -0.2042 -0.1678 -0.0607
  458W        W 4522   3.993  10.548   1.330  0.3098  0.0493  0.1818
  459W        W 4523   9.560   1.070   1.894 -0.2105 -0.0860  0.3342
  460W        W 4524   5.934   3.411  11.045  0.1365 -0.4682  0.2829
  461W        W 4525   6.556   0.727   2.251 -0.0206  0.0188  0.0091
  462W        W 4526   8.062   8.027   3.193 -0.0248 -0.1642  0.2958
  463W        W 4527   4.091   6.515  10.782 -0.1186  0.1762  0.1489
  464W        W 4528   8.309   5.967   2.800  0.1078 -0.1540  0.0004
  465W        W 4529   8.256   5.367   1.644 -0.0243  0.1897 -0.0156
  466W        W 4530   6.369   1.217   9.396 -0.0424 -0.3746 -0.1549
  467W        W 4531   9.111   0.108   3.648  0.2466  0.3033 -0.0866
  468W        W 4532   2.723   5.535   0.991  0.1272 -0.0963  0.2387
  469W        W 4533   8.863   2.142   8.074  0.2285  0.0092  0.1621
  470W        W 4534   2.576   2.168   2.257 -0.1248  0.1091 -0.4148
  471W        W 4535   9.249   7.028   1.375  0.0833 -0.0882  0.2904
  472W        W 4536   5.808   0.813   0.553  0.1948 -0.3706  0.1527
  473W        W 4537   6.507   3.745  10.476  0.2206 -0.2449 -0.2560
  474W        W 4538   3.599   9.304   9.528  0.1961 -0.0963 -0.1257
  475W        W 4539  10.163   3.823   1.916  0.0887  0.1671 -0.0719
  476W        W 4540   4.158   3.002  10.751 -0.0779  0.4073 -0.1474
  477W        W 4541   6.750  10.657  10.050 -0.1121 -0.0998  0.2780
  478W        W 4542   5.671   2.328   8.454 -0.0056  0.0976 -0.2081
  479W        W 4543   5.793   4.957   7.463  0.0724  0.0329  0.0074
  480W        W 4544   1.360   7.844  10.416  0.2058 -0.0048  0.2000
  481W        W 4545   1.161  10.082   7.217  0.0587  0.1540  0.0564
  482W        W 4546   0.512   8.809  10.078  0.0370  0.0453 -0.1852
  483W        W 4547   7.903   6.719   1.513  0.1264  0.4645 -0.0495
  484W        W 4548   8.097   8.488  11.070  0.0598 -0.1558  0.0257
  485W        W 4549   2.899  10.525   9.063  0.0651  0.1721 -0.2169
  486W        W 4550   8.964   7.480  10.181 -0.0005 -0.4905  0.0821
  487W        W 4551   7.353   1.978  10.605  0.0543 -0.2814 -0.1937
  488W        W 4552   4.947   9.026   0.332 -0.2609 -0.0012 -0.3226
  489W        W 4553   5.090   4.721   3.477  0.0959 -0.2057 -0.2695
  490W        W 4554   7.804   8.748   8.600  0.0391  0.0713 -0.1783
  491W        W 4555   6.611   3.408   7.104 -0.3422  0.3641  0.2156
  492W        W 4556   3.186   0.993   2.549  0.0557  0.0670  0.0461
  493W        W 4557   7.968   4.799   9.291  0.0417  0.1011 -0.1658
  494W        W 4558   5.906   2.148  10.646  0.1433 -0.0506 -0.1721
  495W        W 4559   3.597   5.616   2.871  0.2525 -0.1349 -0.0492
  496W        W 4560   6.270   5.416  11.066 -0.2012 -0.2242  0.2996
  497W        W 4561   4.834   3.133   1.053  0.1142 -0.0820  0.2246
  498W        W 4562   2.413   9.765   7.962 -0.0460  0.1258 -0.2345
  499W        W 4563   4.753   5.429   1.246 -0.0895 -0.0101  0.1136
  500W        W 4564   0.077   9.070   0.976  0.1118  0.1660 -0.1794
  501W        W 4565   1.062   3.965   0.369  0.1510  0.0847  0.1506
  502W        W 4566   2.687   0.778  10.339 -0.0261 -0.4263 -0.0439
  503W        W 4567   6.862   4.883   0.816  0.0383 -0.1072 -0.1748
  504W        W 4568   6.075  10.598   7.742 -0.0734  0.4365 -0.1203
  505W        W 4569   5.304   3.900   9.470 -0.1584 -0.4214 -0.1085
  506W        W 4570   5.517   3.312   1.687 -0.1958  0.0202 -0.1593
  507W        W 4571   7.427   6.679   6.940  0.1801  0.1650  0.0014
  508W        W 4572   1.382   0.383   1.363 -0.2510  0.1836  0.5025
  509W        W 4573  10.554   7.197   2.792 -0.0006  0.1376  0.0137
  510W        W 4574   4.548   3.907   6.783  0.1775 -0.0758 -0.2328
  511W        W 4575   5.133   4.493   2.981 -0.0255  0.2280 -0.1825
  512W        W 4576   5.343   7.467  11.339 -0.1386  0.2492 -0.3800
  513W        W 4577   8.773   0.898   9.498  0.3874 -0.1483 -0.0980
  514W        W 4578   4.084   1.590   2.692  0.3237 -0.0925 -0.0604
  515W        W 4579   1.217   6.997   8.506 -0.0963 -0.1163 -0.1723
  516W        W 4580   1.190   4.128   3.736 -0.0386 -0.0166 -0.1083
  517W        W 4581   0.400   3.986   1.009  0.1678 -0.0543  0.0814
  518W        W 4582   3.885  10.688   0.494 -0.4488 -0.0332  0.1935
  519W        W 4583   0.074   6.419   3.347 -0.1446  0.0775 -0.4029
  520W        W 4584   0.584   8.702   9.529 -0.1606  0.1975 -0.3366
  521W        W 4585  10.006   8.785   7.498 -0.4584 -0.3998 -0.1404
  522W        W 4586   7.646  10.459   0.734  0.1070 -0.0432  0.1378
  523W        W 4587   9.776   0.785   1.447  0.2258  0.4573 -0.0238
  524W        W 4588   2.922   1.159   0.716  0.1193 -0.1768 -0.0596
  525W        W 4589   5.115   9.755   0.775  0.4196 -0.0852  0.1822
  526W        W 4590   0.959  10.377   2.526  0.1187  0.1882 -0.0112
  527W        W 4591   1.460   9.653  10.614 -0.3439 -0.1133  0.3438
  528W        W 4592   0.872   2.642   0.396 -0.0556 -0.0050  0.1110
  529W        W 4593   9.171  10.183   9.866  0.0124  0.2233 -0.1540
  530W        W 4594  10.026   2.389   2.433 -0.2145  0.0872 -0.0755
  531W        W 4595   4.587  10.590   2.595  0.2320  0.2546 -0.1043
  532W        W 4596   7.198   9.655   1.526  0.0612  0.0864 -0.0454
  533W        W 4597   1.084   3.931  10.553  0.1474 -0.1016  0.0628
  534W        W 4598   7.764   2.699   7.575 -0.2449 -0.4095 -0.0168
  535W        W 4599   6.363   8.784   8.505 -0.1083 -0.0255 -0.5862
  536W        W 4600   5.989   4.104   2.855 -0.2510  0.2528  0.0694
  537W        W 4601   8.378   6.678   8.358  0.0017  0.2707  0.2497
  538W        W 4602   0.980   2.633   2.835 -0.0552 -0.0916 -0.2014
  539W        W 4603   2.322   5.796   8.215 -0.0709 -0.1407  0.1727
  540W        W 4604   3.312   3.230  10.413 -0.3316  0.3751 -0.0964
  541W        W 4605   7.479   5.048   8.573 -0.1310 -0.1581  0.1262
  542W        W 4606   4.056   7.641   8.251  0.0074 -0.2388 -0.0138
  543W        W 4607   5.045   5.168   3.132 -0.0049 -0.1496 -0.1057
  544W        W 4608   4.544  10.550   1.164  0.3202 -0.1286 -0.4372
  545W        W 4609   5.320   9.269   9.997  0.0453 -0.0840  0.1893
  546W        W 4610   5.912   1.715   7.539 -0.0734 -0.0168 -0.0868
  547W        W 4611   1.479  10.400   9.376  0.4654 -0.5199  0.1059
  548W        W 4612   9.231   1.747   2.650  0.2473 -0.1949 -0.0424
  549W        W 4613   2.584   0.289  10.885 -0.1590  0.3594 -0.3644
  550W        W 4614   1.544   1.297   7.402  0.1073  0.1356  0.2315
  551W        W 4615  10.156   9.503   9.028 -0.3089  0.0690 -0.0384
  552W        W 4616   7.223   9.299   9.702  0.0855 -0.0041 -0.1648
  553W        W 4617   0.678   4.748  10.819 -0.1074  0.0025 -0.1879
  554W        W 4618   2.827   4.558   9.871  0.4921  0.2417  0.2851
  555W        W 4619   5.476   3.382   9.482 -0.0103  0.0067  0.0589
  556W        W 4620   8.235   4.541   8.872 -0.0388  0.0036 -0.1517
  557W        W 4621   7.486   9.309   9.339  0.1499 -0.0319  0.1918
  558W        W 4622   4.989   0.352   0.800 -0.1057 -0.0145  0.0322
  559W        W 4623   5.132   2.843   7.919  0.0649  0.1563 -0.2704
  560W        W 4624   8.695   2.631   2.722  0.2286 -0.0579  0.2193
  561W        W 4625   0.091   9.464   1.377  0.0096 -0.1037 -0.0144
  562W        W 4626   5.895   9.022   2.538 -0.1364  0.3004  0.1411
  563W        W 4627   3.795   9.318   8.979  0.0932  0.0564  0.0380
  564W        W 4628   3.753   1.507   9.787 -0.2587 -0.0710 -0.5278
  565W        W 4629   1.674   7.679   7.868  0.0482 -0.0394  0.1420
  566W        W 4630   2.067   9.668   2.017  0.2334 -0.1531  0.2028
  567W        W 4631   9.780   9.295   2.448 -0.0530 -0.2833  0.0752
  568W        W 4632   7.076   8.699   1.993 -0.1879 -0.2070  0.1455
  569W        W 4633  10.019   8.281   0.671 -0.4435 -0.0101  0.1240
  570W        W 4634   7.513   6.824  11.382 -0.2040  0.0093 -0.0141
  571W        W 4635   1.957   1.598   2.723  0.1170 -0.0677  0.1782
  572W        W 4636   1.698   3.430   2.762 -0.0629  0.0983 -0.0689
  573W        W 4637   2.186   3.483  10.286 -0.1126  0.1134 -0.1747
  574W        W 4638   1.270   2.595  10.268 -0.1174  0.1244  0.0964
  575W        W 4639   4.189   8.855   8.147  0.0437 -0.3020  0.1177
  576W        W 4640   2.440   0.132   8.613 -0.2006 -0.0054  0.1411
  577W        W 4641   4.029   2.690   1.083 -0.1393 -0.3492 -0.0561
  578W        W 4642   5.168   7.686   1.252 -0.1508 -0.2066 -0.2851
  579W        W 4643   6.442   9.433   8.614  0.0318  0.0401  0.0009
  580W        W 4644   3.558   7.485  10.916 -0.0339  0.1777 -0.0008
  581W        W 4645   0.490   2.532   4.069  0.0913  0.0357 -0.0356
  582W        W 4646   8.541   8.748   3.850  0.1110 -0.0088  0.0738
  583W        W 4647   5.306   8.767  10.165  0.2163 -0.4285  0.0581
  584W        W 4648   2.170   5.892   1.377  0.0497  0.0084 -0.1176
  585W        W 4649   4.866   7.647   0.019  0.0314  0.0530  0.0928
  586W        W 4650   2.442   7.622   8.304  0.2367  0.0783 -0.0310
  587W        W 4651   3.659   9.604  11.221 -0.0926 -0.0377 -0.0829
  588W        W 4652   6.379   7.166   8.036  0.1740 -0.2634 -0.0576
  589W        W 4653   6.812   0.315   0.651  0.2918 -0.1679 -0.0636
  590W        W 4654   5.662   7.777   0.375 -0.2674  0.2671 -0.0583
  591W        W 4655   6.655   1.234  11.035 -0.0176 -0.1749  0.1021
  592W        W 4656   8.609   7.068   9.088  0.0019 -0.1518  0.0911
  593W        W 4657   7.495   5.598   9.167  0.0635 -0.0320 -0.0908
  594W        W 4658   5.711   4.597   0.470  0.4489 -0.0192 -0.4169
  595W        W 4659   3.310   2.081   0.326  0.0818  0.1435  0.0308
  596W        W 4660   1.202   8.559   1.893 -0.1704 -0.1216 -0.2053
  597W        W 4661   9.959   7.749  10.461  0.2525 -0.1530 -0.1067
  598W        W 4662   8.605  10.294   2.043 -0.0409 -0.0461  0.1166
  599W        W 4663   9.232   8.061   0.530  0.1523  0.4428  0.0432
  600W        W 4664   4.783   1.570   2.612 -0.4048 -0.0080 -0.1642
  601W        W 4665   2.626   7.609  10.168 -0.1807 -0.2636 -0.0360
  602W        W 4666   9.899   0.132   2.971 -0.2346  0.0167 -0.1892
  603W        W 4667   4.340   5.164   7.747 -0.1868  0.3148  0.1262
  604W        W 4668   3.946   9.974   7.197 -0.2712 -0.2583  0.3539
  605W        W 4669   5.683   3.694   9.087 -0.0300 -0.2311 -0.0227
  606W        W 4670   8.055   2.385  11.165 -0.1420 -0.1664 -0.3422
  607W        W 4671   8.008   0.194   9.814 -0.2253  0.0434  0.0944
  608W        W 4672   3.629   0.992   1.107  0.2188  0.0655  0.0063
  609W        W 4673   6.329   4.734   0.707  0.3928 -0.0445 -0.0070
  610W        W 4674   1.866   2.532   2.824 -0.1737 -0.0870 -0.1994
  611W        W 4675   6.725   1.961  11.033  0.0581  0.1995  0.3874
  612W        W 4676   7.692   5.418   8.696 -0.1004 -0.1580 -0.1090
  613W        W 4677   5.122   0.436   0.213 -0.1339  0.4196 -0.0374
  614W        W 4678   0.823   4.346   8.930  0.1555 -0.1663  0.0398
  615W        W 4679  10.078   0.285   9.215  0.0489  0.0290 -0.0243
  616W        W 4680   0.404   3.823   2.610 -0.1193  0.0176  0.2291
  617W        W 4681   0.203   7.030  11.360  0.0289  0.0146  0.2673
  618W        W 4682   1.506   0.447  10.699  0.0085  0.0441 -0.1276
  619W        W 4683   6.676   9.391   2.521 -0.0514 -0.1691 -0.2091
  620W        W 4684   2.219  10.493   2.818 -0.2969 -0.1742 -0.2398
  621W        W 4685   6.932   6.110   1.071 -0.3224  0.0120 -0.1513
  622W        W 4686   2.939   1.677   7.925 -0.0196 -0.2197  0.0239
  623W        W 4687   7.913   9.203   2.020  0.1901  0.1603  0.1056
  624W        W 4688   8.593   3.550   2.573  0.1719  0.1994 -0.3003
  625W        W 4689   3.889   9.742  10.699  0.0096 -0.0667 -0.1200
  626W        W 4690   6.513   8.272  10.212 -0.0748  0.3609 -0.0793
  627W        W 4691   7.835   1.954   1.920 -0.0132 -0.3833 -0.0808
  628W        W 4692   5.232   1.001  10.785  0.1597  0.0072  0.0710
  629W        W 4693   2.045   3.049   2.079  0.2342 -0.1915 -0.0510
  630W        W 4694   5.350   1.231   7.222 -0.0397 -0.1774 -0.1527
  631W        W 4695   6.962   7.499   9.729  0.2846  0.3517 -0.0241
  632W        W 4696   9.016   1.080   3.105 -0.3043  0.2466 -0.0717
  633W        W 4697   8.388   0.387   6.843 -0.1190  0.4084  0.1955
  634W        W 4698   0.066  10.109   8.730 -0.2925 -0.2469  0.1518
  635W        W 4699  10.548   0.989   7.346  0.2766 -0.0681 -0.1763
  636W        W 4700   7.573  10.450   1.229  0.1613  0.1220 -0.1149
  637W        W 4701   5.099   8.440  11.084  0.3499 -0.1043  0.0122
  638W        W 4702   5.089   6.342  10.448  0.2504 -0.0115  0.0512
  639W        W 4703   2.779   2.183   1.123 -0.1769  0.0500  0.0655
  640W        W 4704   1.142   2.994   1.455  0.1038 -0.0064 -0.0771
  641W        W 4705   6.361   4.985   1.158 -0.1363  0.0304  0.0439
  642W        W 4706   4.429   5.110   0.131  0.0742 -0.0006 -0.0333
  643W        W 4707   0.397   5.500  10.951  0.3424  0.3175 -0.0620
  644W        W 4708   8.540  10.065  10.606  0.1350 -0.1810  0.1878
  645W        W 4709   0.991   3.349   0.978  0.0326 -0.0213 -0.0738
  646W        W 4710  10.726   1.681   2.324  0.3375 -0.0979  0.1284
  647W        W 4711   1.969   9.302   2.711  0.2276  0.2692 -0.0599
  648W        W 4712   3.392   6.697   1.515 -0.2211  0.2298  0.1666
  649W        W 4713   8.153   1.737   8.022  0.0198 -0.0853  0.1117
  650W        W 4714   9.557   6.643   2.132  0.0368 -0.1853  0.3422
  651W        W 4715   2.479   9.947   8.446  0.0249 -0.0018  0.0519
  652W        W 4716   3.564   9.185   8.322 -0.1868 -0.0271 -0.1252
  653W        W 4717   3.571   8.628   0.182 -0.0502  0.1312  0.0468
  654W        W 4718   2.430  10.143  10.577  0.0129  0.1549  0.5999
  655W        W 4719   1.233   8.286   2.369  0.4354  0.0061  0.3440
  656W        W 4720   9.022   4.937   0.162  0.1465 -0.1267 -0.0295
  657W        W 4721   3.032   6.281   1.324 -0.2589 -0.2007 -0.1709
  658W        W 4722   2.150   9.724   2.512  0.3777  0.1596  0.1534
  659W        W 4723   1.861   0.409   2.431  0.0606 -0.1934  0.1907
  660W        W 4724   7.921   0.154   8.738  0.0393 -0.0708  0.4202
  661W        W 4725  10.528   7.405   1.720  0.2017  0.0266 -0.2760
  662W        W 4726   3.859   3.110   1.341  0.3145 -0.0960 -0.1818
  663W        W 4727  10.381   9.276  10.608 -0.0998  0.0015 -0.2811
  664W        W 4728   3.229   1.702   8.390  0.1287 -0.0017  0.2132
  665W        W 4729   3.359   4.796   1.173 -0.1175  0.0559  0.1326
  666W        W 4730   0.772   4.679   2.414 -0.1549 -0.2054 -0.4386
  667W        W 4731   8.240   8.179   1.293  0.3856  0.2070 -0.0919
  668W        W 4732   0.681   7.965   0.627 -0.2681 -0.1730  0.2419
  669W        W 4733   1.202   7.246   9.502  0.3628 -0.0714  0.3289
  670W        W 4734   3.225   1.635   7.529  0.1887  0.1845  0.3293
  671W        W 4735   4.067   5.462  10.072 -0.2022 -0.0896  0.3131
  672W        W 4736   2.828   8.447  11.090 -0.1551  0.0860 -0.3547
  673W        W 4737   8.553   1.668   0.627 -0.0993 -0.0542 -0.1123
  674W        W 4738   4.094   4.299   9.309 -0.1348  0.1876 -0.2903
  675W        W 4739   2.329   2.554   2.045  0.0100  0.1365 -0.1212
  676W        W 4740   6.591   3.988  10.033 -0.1875  0.4476  0.1343
  677W        W 4741   9.373   7.097   3.032 -0.2367 -0.1701 -0.0719
  678W        W 4742   5.901   0.509   6.361 -0.1675  0.0850  0.3607
  679W        W 4743   9.253   0.780   1.497 -0.4002  0.1152 -0.3699
  680W        W 4744   2.777   1.763  10.236 -0.1187 -0.1115  0.0301
  681W        W 4745  10.042   8.819   2.287  0.3101  0.0926 -0.0261
  682W        W 4746   4.892   5.796   7.562  0.1790  0.0220 -0.0224
  683W        W 4747   8.709   3.538   1.731  0.3427 -0.4200  0.0803
  684W        W 4748   4.751   1.348   9.607 -0.0224  0.0644  0.1169
  685W        W 4749   4.092   0.445   0.492 -0.1381  0.0802  0.4873
  686W        W 4750   2.165   0.333   2.875  0.0055 -0.1955  0.1469
  687W        W 4751  10.208   2.324   8.722  0.2680 -0.0147  0.2132
  688W        W 4752   2.417   6.632  10.499 -0.4724  0.0831 -0.1762
  689W        W 4753   5.585   9.551  10.363 -0.3562 -0.2081  0.0237
  690W        W 4754   4.161   1.961   3.785 -0.1533  0.0777 -0.6517
  691W        W 4755   0.327   3.425   7.877  0.0115  0.0450  0.2034
  692W        W 4756   0.425   7.828  10.079 -0.0709  0.2166  0.0181
  693W        W 4757   5.108   5.052   9.120  0.1224 -0.1296 -0.1482
  694W        W 4758   3.767   0.292   1.111 -0.0721 -0.1551  0.1921
  695W        W 4759   9.217   6.480   9.245  0.1989  0.1184  0.4609
  696W        W 4760   9.240   7.199   8.563  0.1393  0.0573  0.1713
  697W        W 4761   7.019   2.991   2.407  0.0197  0.3643 -0.0424
  698W        W 4762   4.858  10.569   0.797  0.4094 -0.0011  0.1936
  699W        W 4763  10.296   6.449   0.328  0.1685  0.0284 -0.2692
  700W        W 4764   6.177   9.936   8.910 -0.0761 -0.2158  0.2895
  701W        W 4765   1.086   1.968   9.763 -0.1755 -0.3240  0.0447
  702W        W 4766   7.755   4.284   9.184  0.0353 -0.0467  0.1231
  703W        W 4767   6.859   7.681  10.751  0.0830  0.2519  0.2310
  704W        W 4768   7.504   8.834   2.272 -0.3046  0.0178 -0.1648
  705W        W 4769   3.879   5.476   1.998 -0.0146  0.2367  0.0821
  706W        W 4770   3.748   3.362   9.258  0.2366 -0.1097 -0.2755
  707W        W 4771   8.460   4.101   2.901  0.0859 -0.2181  0.0331
  708W        W 4772   4.739   5.599   2.219  0.1448  0.0136 -0.2899
  709W        W 4773   1.188  10.080   0.763 -0.0174  0.1756  0.0998
  710W        W 4774   7.971   8.796   8.158 -0.3571 -0.1340  0.3661
  711W        W 4775   4.211   6.094   9.331  0.4317 -0.0024  0.1257
  712W        W 4776  10.396  10.153  11.110  0.0066 -0.0132 -0.0233
  713W        W 4777   5.868   6.527   8.257 -0.0821 -0.1818 -0.0497
  714W        W 4778   6.334   5.668   9.956 -0.0041  0.0915  0.0683
  715W        W 4779   1.661   2.220   0.385 -0.0766  0.1956 -0.0068
  716W        W 4780   1.761   0.629   1.114  0.0142 -0.0118 -0.1191
  717W        W 4781   0.009   8.308   1.958 -0.0151  0.0522 -0.2502
  718W        W 4782  10.402   5.115  11.103 -0.1333  0.1971  0.2666
  719W        W 4783   1.825   3.542   0.810  0.0382 -0.1293  0.0628
  720W        W 4784  10.572   0.573   7.827 -0.1342 -0.3001  0.0994
  721W        W 4785   3.347   5.649   8.399  0.0734 -0.1733 -0.4782
  722W        W 4786   7.611   7.258   9.330 -0.0614 -0.2230  0.0409
  723W        W 4787  10.053   2.593   3.533 -0.1977 -0.1298 -0.1820
  724W        W 4788   0.500   5.434   9.013 -0.1655 -0.2819  0.2128
  725W        W 4789   7.064   6.584   9.367  0.2581 -0.0829 -0.1095
  726W        W 4790   3.443   0.380  11.149  0.1094 -0.4112 -0.0487
  727W        W 4791   6.861   4.189   8.640 -0.3164 -0.1042  0.2823
  728W        W 4792   3.550   7.100   8.819  0.0184  0.0198 -0.2467
  729W        W 4793   2.525   5.484   1.515 -0.1547  0.3781  0.2490
  730W        W 4794   8.986   3.474  11.292  0.1309  0.1306 -0.0844
  731W        W 4795   6.522   9.133   9.049 -0.1076  0.1668  0.1051
  732W        W 4796   1.373   0.151   8.110  0.0559 -0.2386  0.1274
  733W        W 4797   9.217  10.075   1.344 -0.0571 -0.0639 -0.0882
  734W        W 4798   4.102   1.709  10.106  0.2576 -0.2480  0.2470
  735W        W 4799   4.279   5.597   8.073 -0.1750  0.0447 -0.0847
  736W        W 4800   8.706   9.381   9.022  0.2493  0.1744 -0.1076
  737W        W 4801   8.854   0.950   0.810 -0.0886  0.3619 -0.0593
  738W        W 4802   5.893   6.242   9.745 -0.1249  0.1874 -0.1104
  739W        W 4803   9.500   1.480  11.160 -0.1367 -0.2483  0.0438
  740W        W 4804   7.576   0.392  10.693 -0.1132 -0.1054 -0.0126
  741W        W 4805   9.453   2.226   7.442  0.2113  0.3518  0.2324
  742W        W 4806   2.434   6.782   3.807 -0.2733 -0.0448 -0.1378
  743W        W 4807   7.672   1.472   1.887 -0.1055  0.0018 -0.0457
  744W        W 4808   4.727   3.438   7.943 -0.1357 -0.0110 -0.2529
  745W        W 4809   2.584   1.315   3.136  0.0838 -0.0634  0.3068
  746W        W 4810   2.178  10.278  10.111 -0.2445  0.4742  0.0916
  747W        W 4811   2.841   5.873  11.080  0.0063  0.1074  0.0011
  748W        W 4812   0.887   2.512   0.938 -0.0604 -0.0158  0.1645
  749W        W 4813   5.960   8.399   9.289  0.1010 -0.2067 -0.0730
  750W        W 4814   0.935   8.510   8.085 -0.2792  0.4068 -0.2340
  751W        W 4815   1.558   6.072   8.778 -0.1684  0.0283  0.4378
  752W        W 4816   5.458   5.595   9.404  0.0149  0.1226  0.0383
  753W        W 4817   4.607   9.210   9.362 -0.0245 -0.3087  0.3018
  754W        W 4818   9.363   0.905  11.293 -0.0419 -0.1502 -0.1416
  755W        W 4819   4.936  10.261   7.979 -0.0755 -0.3133  0.0142
  756W        W 4820   3.045   8.859   6.751  0.0979 -0.0404  0.0204
  757W        W 4821   2.222  10.212   2.382  0.0238  0.1426 -0.0069
  758W        W 4822   1.084   9.797   9.208  0.0626  0.1076 -0.1192
  759W        W 4823   3.414   2.669  10.534  0.1652 -0.1580 -0.2977
  760W        W 4824   1.810   5.149   0.311  0.0550  0.1714  0.3628
  761W        W 4825   0.919   8.113  11.207  0.1693 -0.0511 -0.0814
  762W        W 4826   6.231   1.072   2.477  0.1364 -0.1440 -0.4684
  763W        W 4827   5.855   7.569   9.301 -0.2485 -0.2031  0.5289
  764W        W 4828   5.038   3.900   7.140 -0.0032  0.0677  0.2353
  765W        W 4829   4.850   7.125   0.071 -0.0198  0.0753 -0.2239
  766W        W 4830   7.385   8.500  10.379  0.0349  0.0493  0.2307
  767W        W 4831   8.769   6.227   1.545 -0.0690 -0.1581  0.0195
  768W        W 4832   1.665   4.385   2.580 -0.0885 -0.0753  0.1430
  769W        W 4833   5.552   1.551   0.515  0.1826  0.0771  0.3821
  770W        W 4834   3.587   1.805   0.772  0.1011 -0.1267 -0.0881
  771W        W 4835   2.059   7.442   2.053  0.3965 -0.1093  0.2291
  772W        W 4836   6.450   7.195   0.071  0.1217  0.0920 -0.0299
  773W        W 4837   0.237   8.432   0.128  0.1368 -0.0814  0.3822
  774W        W 4838   4.985   1.060   2.725 -0.2475  0.1668 -0.1609
  775W        W 4839   9.706   9.393   8.952 -0.0895 -0.0012  0.0791
  776W        W 4840   0.303   5.727   9.818 -0.0460 -0.1244 -0.1724
  777W        W 4841  10.016   1.087  10.009 -0.0212  0.0884 -0.2495
  778W        W 4842   2.784   4.630   0.246 -0.2466 -0.0976 -0.0554
  779W        W 4843   5.296   6.578   9.448  0.1200 -0.4062  0.0621
  780W        W 4844   4.046   4.945   9.449 -0.2284  0.0842  0.1656
  781W        W 4845   9.692  10.571   1.228  0.3393  0.1165 -0.0357
  782W        W 4846   1.555   2.634   9.834  0.1944 -0.0867 -0.0848
  783W        W 4847   3.151   0.622   0.411 -0.3753  0.1211  0.0055
  784W        W 4848   7.070   1.630   8.782 -0.1835  0.0345 -0.0381
  785W        W 4849   9.125   6.607   9.922 -0.4225  0.1185 -0.0625
  786W        W 4850   5.070   0.790  10.187  0.1335  0.1444 -0.0112
  787W        W 4851   7.555   0.132  10.084 -0.3291 -0.0915 -0.2136
  788W        W 4852   5.481   7.201   2.042  0.1535 -0.1113 -0.0746
  789W        W 4853   0.971   8.583   2.772  0.1667 -0.0037  0.0251
  790W        W 4854   8.672   9.815   0.402 -0.0630 -0.0890  0.2533
  791W        W 4855   2.476   0.729  10.757 -0.0349 -0.0497  0.1341
  792W        W 4856   1.497   3.918   2.933  0.1560 -0.0423  0.1097
  793W        W 4857   1.313   5.538   1.342  0.1218  0.2278  0.3993
  794W        W 4858   1.583   4.504   0.080  0.1442 -0.2575 -0.0023
  795W        W 4859   1.782   2.726   1.837 -0.0570  0.0642 -0.0422
  796W        W 4860   9.407   6.094  10.718 -0.0531  0.2260 -0.1715
  797W        W 4861   1.068   7.107   8.983 -0.2809  0.0611 -0.0256
  798W        W 4862   6.471   0.764   9.763  0.1851 -0.0391  0.2706
  799W        W 4863   2.455   4.233   9.725  0.1658 -0.1419  0.0616
  800W        W 4864   6.502   8.005   1.558  0.2846 -0.0570 -0.0904
  801W        W 4865   3.220   4.119   9.369 -0.0617  0.2536 -0.2843
  802W        W 4866   7.679  10.453   2.574 -0.0165 -0.2628  0.1964
  803W        W 4867   4.865   3.220   7.516  0.0466 -0.4652  0.0026
  804W        W 4868   8.574   4.199   0.575 -0.0829 -0.1612  0.0759
  805W        W 4869   2.883   1.923   8.789 -0.1110 -0.1681 -0.2715
  806W        W 4870   8.521  10.677   6.578  0.0398  0.0800  0.1374
  807W        W 4871   0.776   7.661   1.718  0.2258 -0.3688  0.1731
  808W        W 4872   9.498   5.971   8.766  0.0936  0.0484 -0.0273
  809W        W 4873   6.616   6.893   0.813 -0.1190 -0.0205 -0.0220
  810W        W 4874   6.736   2.319   0.677  0.2771  0.1416 -0.0065
  811W        W 4875   8.061  10.054   7.441 -0.0991  0.0502 -0.0998
  812W        W 4876   9.268   7.393   0.040  0.1635  0.1074  0.1687
  813W        W 4877   1.089   6.776   1.510 -0.0967  0.0902 -0.1159
  814W        W 4878   3.439   4.702  10.725 -0.0312 -0.0771 -0.1604
  815W        W 4879  10.080   3.171   9.538 -0.2074  0.3596 -0.3273
  816W        W 4880   6.341   5.629  10.531  0.0142 -0.2769 -0.1986
  817W        W 4881   1.461   8.475   8.143 -0.2578  0.1849  0.0310
  818W        W 4882   7.543   1.663  11.144  0.2298 -0.0426  0.2168
  819W        W 4883   5.456   2.681   1.294 -0.2046  0.0138  0.1264
  820W        W 4884   9.517   4.833   2.583  0.0507 -0.0742  0.0172
  821W        W 4885   2.608   9.724   9.510  0.6067  0.0545 -0.1024
  822W        W 4886   1.147   4.565   2.729  0.1570  0.1426 -0.1816
  823W        W 4887   1.802   0.234   1.863 -0.1037  0.0710 -0.0962
  824W        W 4888   0.529   0.872   3.516  0.2609  0.0176 -0.1237
  825W        W 4889   8.035   1.258  10.620  0.1257  0.1018  0.2020
  826W        W 4890   6.990   6.546   1.408 -0.0884  0.1768 -0.1579
  827W        W 4891  10.104   0.605  10.220 -0.0008  0.1027  0.1280
  828W        W 4892   0.464   3.738   3.106 -0.3067  0.3562 -0.3979
  829W        W 4893   1.395   5.349   9.385 -0.1930 -0.2894 -0.1365
  830W        W 4894   3.157   7.253   9.745  0.0833  0.2024 -0.0206
  831W        W 4895   4.169   1.454   9.250  0.3288 -0.2055 -0.2193
  832W        W 4896   3.252   4.482   8.074  0.2263  0.4113 -0.2040
  833W        W 4897  10.197   0.072   0.610  0.1989  0.1817  0.1077
  834W        W 4898   6.825   7.494   1.304  0.0448  0.0047 -0.1369
  835W        W 4899   7.595   2.400   7.988  0.0526  0.0184 -0.0369
  836W        W 4900   5.412   0.557   0.688  0.0609 -0.1793  0.1650
  837W        W 4901   8.453   4.034   0.108  0.1948  0.2262 -0.0338
  838W        W 4902   2.934   3.893  10.414 -0.1014  0.1005 -0.1497
  839W        W 4903   5.273   9.488   9.551  0.2528  0.0799 -0.1114
  840W        W 4904   2.432  10.404   1.425 -0.1270  0.2472  0.1068
  841W        W 4905   7.014   4.600   7.776 -0.2164  0.3475  0.2138
  842W        W 4906   0.550   1.854   9.322 -0.0496 -0.0032  0.3821
  843W        W 4907   8.832   7.700   2.659  0.2911 -0.0317  0.1841
  844W        W 4908   8.261   6.632  10.248 -0.1661 -0.0808 -0.0003
  845W        W 4909   6.877   9.262  10.345 -0.0733  0.0952  0.2072
  846W        W 4910   0.289   0.389   3.385  0.2674  0.0908 -0.0133
  847W        W 4911   9.995   2.945   0.806 -0.1818  0.0272 -0.2635
  848W        W 4912   0.634   4.067  11.209  0.1856  0.1003  0.3935
  849W        W 4913   8.992   8.771   1.274 -0.0532  0.2179 -0.2725
  850W        W 4914   2.240   3.250   9.762 -0.0611 -0.1088  0.0541
  851W        W 4915   1.519   8.093   0.552 -0.0345 -0.0645  0.2016
  852W        W 4916   9.295   3.045   9.304  0.0156 -0.1756 -0.0442
  853W        W 4917   9.996   8.052  11.009  0.1515  0.0261  0.1654
  854W        W 4918  10.156   0.414   2.499  0.0545  0.1868 -0.3439
  855W        W 4919   6.503   6.630   1.200 -0.0892  0.0932  0.1863
  856W        W 4920  10.576   5.955  10.585  0.2889  0.1167 -0.2477
  857W        W 4921  10.116   4.687   1.401 -0.0270 -0.2424 -0.0250
  858W        W 4922   0.709   6.333  11.067 -0.2017 -0.0750  0.0694
  859W        W 4923   7.484   8.364   2.534  0.0198 -0.0103 -0.1093
  860W        W 4924   2.873   2.163   8.253 -0.0170 -0.2371 -0.1773
  861W        W 4925   1.667   6.513   9.867 -0.1587  0.2033 -0.0522
  862W        W 4926   8.956   9.398   7.673  0.1178  0.2303  0.1249
  863W        W 4927   9.263   2.546  10.489 -0.3573 -0.0990  0.2847
  864W        W 4928   6.638  10.184   3.799 -0.0884 -0.0834  0.0585
  865W        W 4929   0.511   1.084  10.745 -0.0564 -0.0631  0.1172
  866W        W 4930   3.503   3.191   8.779 -0.0656 -0.0846  0.0494
  867W        W 4931   5.447   0.850   7.576  0.4626  0.0885  0.0249
  868W        W 4932   0.954   0.577  10.828  0.2514 -0.0561  0.1052
  869W        W 4933   5.757   1.680   8.531 -0.2694 -0.1295  0.1630
  870W        W 4934   2.483   3.576   8.808 -0.1817  0.1294  0.1454
  871W        W 4935   4.960   2.107   8.615 -0.0621  0.2914 -0.0216
  872W        W 4936   9.566   7.828   9.484  0.0128 -0.0145 -0.0782
  873W        W 4937   3.155   0.852   8.717  0.2598  0.0810  0.3426
  874W        W 4938   1.012   9.041   2.608 -0.1881 -0.1155  0.1196
  875W        W 4939   0.612   5.144  10.492  0.1718 -0.1177 -0.2380
  876W        W 4940   7.709   7.175   1.837  0.0580 -0.1316 -0.2592
  877W        W 4941   2.891   8.029  10.270  0.1486  0.1787  0.1324
  878W        W 4942   5.839   4.656   8.756  0.1197  0.1174 -0.0460
  879W        W 4943   9.749   3.028   3.561 -0.0999  0.1994 -0.1826
  880W        W 4944   9.378   8.681   1.653 -0.1216 -0.1504  0.0286
  881W        W 4945   2.702   0.914   2.041  0.2290 -0.0767  0.0248
  882W        W 4946   7.658   0.571   8.592  0.1700  0.0892 -0.1572
  883W        W 4947   8.451   2.621   9.294  0.3786 -0.2918  0.1786
  884W        W 4948   1.146   7.427  11.289  0.1476 -0.0742 -0.0623
  885W        W 4949   7.246   4.451  10.204  0.0074 -0.2467  0.3777
  886W        W 4950   1.881   4.614   0.516  0.1909  0.0398  0.1503
  887W        W 4951   6.694   5.685   9.592 -0.0713 -0.0956 -0.2101
  888W        W 4952   7.583   3.625  11.237  0.2090  0.0207 -0.0552
  889W        W 4953   1.385   5.307  10.899  0.2303 -0.1054  0.1915
  890W        W 4954   1.167   0.981   9.803 -0.1725  0.1651  0.0701
  891W        W 4955   5.448   8.432   2.916  0.0442 -0.4026  0.0079
  892W        W 4956   3.549   4.954   2.222 -0.2361 -0.3356  0.0148
  893W        W 4957   7.674   2.398  10.496 -0.0795 -0.0110 -0.0849
  894W        W 4958   7.243   1.394   1.176 -0.0837 -0.0523  0.1527
  895W        W 4959   8.350   0.977   7.620 -0.1253 -0.1311  0.0957
  896W        W 4960   2.410  10.692  10.561 -0.0217 -0.3572 -0.0656
  897W        W 4961   3.786   8.557  11.097  0.2334 -0.1280 -0.0558
  898W        W 4962   4.404   0.654   7.196 -0.5694 -0.0510  0.2185
  899W        W 4963   9.557   8.009   0.870 -0.1821 -0.1572  0.0277
  900W        W 4964   8.190   7.130  10.574  0.5621 -0.0093 -0.0964
  901W        W 4965   7.726   5.391   8.209 -0.0410  0.0202  0.1570
  902W        W 4966   8.814   4.650   0.646  0.1625 -0.1323 -0.3321
  903W        W 4967   3.627   0.691   8.942  0.2239  0.0427  0.0481
  904W        W 4968   4.959   3.475   0.300  0.1031 -0.1240 -0.1612
  905W        W 4969   5.880   2.236   7.594 -0.1197 -0.1094 -0.3896
  906W        W 4970   9.626  10.639   2.493 -0.0739  0.1273  0.0031
  907W        W 4971   3.411  10.289  11.353 -0.1009 -0.1694 -0.2014
  908W        W 4972   3.665   9.518   0.627 -0.1190 -0.3305 -0.1263
  909W        W 4973   4.855   2.702   2.719 -0.0194 -0.1126 -0.0498
  910W        W 4974   9.523   9.484  10.589  0.2742  0.0775 -0.1567
  911W        W 4975   7.756   4.213  10.868 -0.2045  0.0187 -0.0993
  912W        W 4976   5.165   0.585   9.729  0.0001  0.2489 -0.0521
  913W        W 4977   7.234   3.019   0.869  0.0278  0.1103 -0.0816
  914W        W 4978   4.514   4.422   6.994 -0.1902  0.0762  0.0208
  915W        W 4979   6.115   4.827  11.246  0.0338  0.0617 -0.0436
  916W        W 4980   5.568   1.544   2.406  0.0889  0.0688  0.0097
  917W        W 4981   8.603   0.555   7.704  0.0022  0.1211  0.0559
  918W        W 4982   2.803   9.792   2.966  0.3177  0.0858 -0.0104
  919W        W 4983   8.369   1.610  10.561 -0.0054 -0.1829 -0.1133
  920W        W 4984   4.454   2.805   0.720  0.0957 -0.1628 -0.1780
  921W        W 4985   7.879   4.718   3.543  0.1540  0.1728 -0.0069
  922W        W 4986   7.797   0.971  10.310  0.0902  0.0786  0.0708
  923W        W 4987   6.841   9.985   9.259 -0.1418 -0.0046 -0.1464
  924W        W 4988   4.263   2.257   6.863 -0.1277 -0.0867  0.0186
  925W        W 4989   6.089   6.820  11.383  0.0758  0.0831 -0.1155
  926W        W 4990   8.965   4.195  10.921 -0.0178  0.0664 -0.0108
  927W        W 4991   9.363   3.857   0.695  0.0044 -0.1850  0.0924
  928W        W 4992   6.359   0.668   8.419 -0.0149 -0.0625 -0.0894
  929W        W 4993   0.190   3.124   9.921  0.3018 -0.4142 -0.0534
  930W        W 4994   4.730   5.494   7.992 -0.0390  0.0238 -0.2057
  931W        W 4995   7.638   3.720   0.838 -0.3207 -0.4390  0.3832
  932W        W 4996   0.529   8.916   2.803 -0.0517  0.0139 -0.2520
  933W        W 4997  10.390   9.657   9.507  0.0229  0.0941 -0.0275
  934W        W 4998   8.798   5.809   2.829  0.1034 -0.1036 -0.0052
  935W        W 4999   5.113   5.267   2.599 -0.0466 -0.1266 -0.0822
  936W        W 5000  10.074   9.361   3.930 -0.0276 -0.5298  0.0033
  937W        W 5001   7.717   0.029   8.320  0.0211 -0.0600  0.1817
  938W        W 5002   8.428  10.259  11.104  0.1694  0.1625  0.0423
  939W        W 5003  10.719   6.992   1.929 -0.0836 -0.1052  0.0427
  940W        W 5004   4.733   1.665   8.340 -0.3242  0.0939  0.3991
  941W        W 5005   3.358   7.211   2.602 -0.0160  0.2400  0.2890
  942W        W 5006   7.029   8.270   7.823 -0.0406 -0.1404 -0.0676
  943W        W 5007   7.283   2.264   2.964 -0.2798  0.1520 -0.1863
  944W        W 5008   5.738   9.243   2.021 -0.0841 -0.2113 -0.2923
  945W        W 5009   4.604   9.739   2.910  0.1974 -0.4134  0.0922
  946W        W 5010   3.366   8.489   8.117  0.0917  0.0182 -0.2513
  947W        W 5011   4.388   3.330   1.366  0.1406  0.0768  0.0488
  948W        W 5012   4.020   6.059  10.641 -0.0993 -0.1038 -0.2865
  949W        W 5013  10.475   8.785  10.765 -0.1190  0.0408  0.1507
  950W        W 5014   6.457   6.322   8.451  0.1156 -0.2213 -0.2018
  951W        W 5015   6.242   9.241   2.892 -0.1061  0.0127  0.0146
  952W        W 5016   8.793   2.139   1.757  0.1529 -0.0093 -0.2587
  953W        W 5017   0.546   8.926   0.800 -0.3289  0.3993 -0.2118
  954W        W 5018   9.819   6.138   1.091  0.2444 -0.0943  0.0501
  955W        W 5019   7.323   5.304  10.338 -0.1744  0.3215  0.0833
  956W        W 5020   6.383   8.407   0.663  0.0404 -0.3896  0.1347
  957W        W 5021   4.382   1.369   2.377  0.1122  0.2672  0.0289
  958W        W 5022   0.364  10.514  10.029  0.2376 -0.1034  0.1042
  959W        W 5023   8.237   8.382   0.612 -0.0792  0.0609 -0.3377
  960W        W 5024   8.940   5.421   7.719  0.2692  0.1167  0.0434
  961W        W 5025   1.532   5.066  10.364 -0.2385 -0.0385 -0.2263
  962W        W 5026   1.868   9.594   9.128 -0.1840 -0.1000  0.1463
  963W        W 5027   3.276  10.212   7.163  0.2554  0.0440 -0.1736
  964W        W 5028   2.799   7.871   8.008 -0.1442  0.1215 -0.0915
  965W        W 5029   1.147   8.324   9.513 -0.0188  0.0891  0.1187
  966W        W 5030   9.041   8.668   2.159  0.0449 -0.3065  0.0827
  967W        W 5031   5.520   2.824  11.339 -0.1364 -0.0591  0.2700
  968W        W 5032   8.222   6.266   1.589  0.1938 -0.0206 -0.3268
  969W        W 5033   8.118   3.943   8.905  0.1836  0.0899  0.1016
  970W        W 5034   8.141   1.258  10.128 -0.3294 -0.0272  0.0464
  971W        W 5035   6.133   3.758   1.976  0.5834  0.1636  0.1579
  972W        W 5036   8.485   7.099  10.184 -0.2748 -0.0549  0.1851
  973W        W 5037   7.475   8.549   1.026 -0.0062  0.1024 -0.2390
  974W        W 5038   6.704   5.542   0.200 -0.3414  0.3929 -0.1008
  975W        W 5039   2.565   2.052   0.661 -0.1279  0.0087  0.2055
  976W        W 5040   0.816   9.524   8.611 -0.0641  0.0023  0.1905
  977W        W 5041   3.055   5.966   3.806 -0.0720 -0.0402 -0.1997
  978W        W 5042   4.342   8.328   9.818 -0.3200  0.3122 -0.1986
  979W        W 5043   8.683   2.564  10.911 -0.0942 -0.0267 -0.2795
  980W        W 5044   8.993   0.257   0.417 -0.0941 -0.2388 -0.0685
  981W        W 5045   2.347   9.635  10.411 -0.3237 -0.0542  0.2588
  982W        W 5046  10.504   7.300   2.201 -0.1312 -0.1404  0.1140
  983W        W 5047   5.642   0.740   0.061  0.3343 -0.1108 -0.3058
  984W        W 5048   2.134   5.053   0.668  0.3000 -0.3833 -0.0147
  985W        W 5049   6.257   9.077   1.795  0.0345  0.1684  0.0710
  986W        W 5050   6.013   0.952   1.141  0.1779 -0.4232  0.1476
  987W        W 5051   3.122   7.815  11.000 -0.3123 -0.1982  0.0659
  988W        W 5052   9.392   0.310   8.536  0.2495 -0.4938  0.1824
  989W        W 5053   7.906   7.024   7.168 -0.0218  0.0213  0.0853
  990W        W 5054   3.631   5.340   3.643  0.2621 -0.1102  0.1553
  991W        W 5055   0.344   2.663   0.190 -0.0204  0.0269  0.1420
  992W        W 5056   4.324   4.204   0.817 -0.2285  0.2305  0.1099
  993W        W 5057   5.873   4.404   7.268 -0.0857 -0.2382 -0.0706
  994W        W 5058   6.212   5.468   8.156 -0.1225  0.0688 -0.1829
  995W        W 5059   4.251   0.403  10.537 -0.0014  0.0768 -0.1262
  996W        W 5060   3.645   4.116   8.302  0.1342  0.3041 -0.0621
  997W        W 5061   4.791   6.047  10.237  0.1089 -0.1847 -0.3081
  998W        W 5062   6.575   0.640   7.908 -0.0582 -0.0180  0.2548
  999W        W 5063   2.617   5.374   8.348  0.3335 -0.1013  0.0265
 1000W        W 5064   4.706   8.652   8.287  0.0767  0.4718  0.0657
 1001W        W 5065   0.012   8.970   1.517  0.0520  0.1978  0.2208
 1002W        W 5066   1.892   5.542   1.150  0.0450  0.3334 -0.0087
 1003W        W 5067   5.737   7.173   8.968 -0.2903 -0.0291 -0.0078
 1004W        W 5068   6.540  10.167   2.255 -0.0451 -0.1444  0.1944
 1005W        W 5069   0.873   7.049   0.905  0.0887 -0.3003 -0.0080
 1006W        W 5070   6.828  10.620   2.369  0.0475 -0.0433  0.0265
 1007W        W 5071   7.492   0.136   1.514 -0.2694  0.0544  0.0311
 1008W        W 5072   5.699   0.821   8.956  0.0168 -0.1793 -0.0260
 1009W        W 5073   3.248   3.605   2.101 -0.1325 -0.2901 -0.0998
 1010W        W 5074   3.615   0.125   9.798  0.2579 -0.2018 -0.1646
 1011W        W 5075   8.804   6.330   8.143  0.1102 -0.0807 -0.1251
 1012W        W 5076   3.336   5.945  11.235  0.1391  0.3880 -0.1238
 1013W        W 5077   8.164   7.836   9.556 -0.0521  0.0357 -0.1947
 1014W        W 5078   0.976   9.860   0.341  0.0540 -0.0290  0.0764
 1015W        W 5079   0.783   5.744   1.458  0.2077 -0.1790 -0.0102
 1016W        W 5080   4.907   4.444   1.447  0.0465 -0.2056 -0.0961
 1017W        W 5081   0.829   8.908   1.807 -0.4431 -0.1293 -0.1857
 1018W        W 5082   8.598   6.822  10.563  0.0841  0.4165 -0.0628
 1019W        W 5083   2.103   1.154   9.632 -0.1435  0.0721 -0.3893
 1020W        W 5084   8.532   8.908  11.337  0.0222 -0.0645 -0.1641
 1021W        W 5085   4.012  10.417   1.893  0.0317 -0.0000  0.3388
 1022W        W 5086   5.220   7.031   8.823 -0.2684 -0.1674  0.2736
 1023W        W 5087   4.671   0.635   3.003  0.1283 -0.0593  0.1509
 1024W        W 5088   0.484   8.134   8.271 -0.0705 -0.2077  0.0156
 1025W        W 5089   1.165   5.812   0.681  0.1068  0.1699 -0.1910
 1026W        W 5090   9.623   1.605   7.932  0.0298  0.1033 -0.4410
 1027W        W 5091  10.435   6.392   2.747  0.3198  0.0635 -0.0413
 1028W        W 5092   5.432   7.694   8.286 -0.1609 -0.2176 -0.0855
 1029W        W 5093   0.973   9.267   9.022  0.1740 -0.0999  0.0631
 1030W        W 5094   5.339  10.284  10.962  0.1098 -0.0496 -0.1455
 1031W        W 5095   2.729   3.318   9.592  0.0752  0.0861 -0.2627
 1032W        W 5096   9.591   2.212   9.723 -0.1171  0.2756  0.4020
 1033W        W 5097   4.425   1.333   8.478 -0.0527  0.0654  0.2835
 1034W        W 5098   4.093   8.294   8.256  0.3031 -0.0002  0.3306
 1035W        W 5099   5.094   9.817  10.050 -0.1036  0.2111  0.0945
 1036W        W 5100   6.350   2.283  10.929 -0.0151 -0.2613  0.0739
 1037W        W 5101   4.256   7.601   9.461  0.1148 -0.3507  0.3065
 1038W        W 5102   5.339   8.313   2.049 -0.0178 -0.1029 -0.0947
 1039W        W 5103   7.993   7.672   1.963 -0.0226  0.2393  0.4889
 1040W        W 5104   1.771   2.920   9.022 -0.0890  0.0114  0.2129
 1041W        W 5105   5.697   7.091  10.042 -0.0316 -0.0151  0.2286
 1042W        W 5106   0.356   1.692   1.980 -0.0802  0.0708  0.0263
 1043W        W 5107   2.029   0.112   0.180 -0.0170  0.0553  0.4078
 1044W        W 5108   4.818   6.155   1.356 -0.3006  0.0092 -0.2987
 1045W        W 5109   5.248   8.579  10.643 -0.0366 -0.0178 -0.3672
 1046W        W 5110   8.894   9.942   9.517  0.1103  0.0907  0.0346
 1047W        W 5111  10.260   7.138   7.970  0.1825  0.0831  0.2594
 1048W        W 5112   7.223   8.933  10.600 -0.1005  0.0987 -0.2306
 1049W        W 5113   5.396   1.712   0.054  0.2655  0.1110 -0.1585
 1050W        W 5114   7.099   7.563   8.590 -0.3009  0.2614  0.0028
 1051W        W 5115  10.313   0.982   1.545 -0.1154  0.1938  0.0253
 1052W        W 5116   7.512   3.540   9.798  0.1387  0.0658 -0.3165
 1053W        W 5117   8.941   0.874   3.603  0.3221  0.1824  0.1669
 1054W        W 5118   5.128   3.178   1.997  0.2120 -0.4812  0.1214
 1055W        W 5119   8.299   5.477  11.066 -0.4204  0.0370 -0.1652
 1056W        W 5120   7.185  10.634   9.830 -0.2239  0.1403 -0.1217
 1057W        W 5121   8.437   4.831   0.133  0.0240 -0.0015 -0.0755
 1058W        W 5122   1.782   4.589   9.603 -0.1775 -0.0030  0.0121
 1059W        W 5123   9.275   6.466  11.150 -0.0943  0.1673  0.4236
 1060W        W 5124   5.839   6.666   3.069 -0.0306 -0.3067  0.0759
 1061W        W 5125   8.706   2.291   9.898 -0.2026 -0.0704 -0.0984
 1062W        W 5126   9.030   2.939   0.730  0.1362  0.1307 -0.0203
 1063W        W 5127   6.394   0.012   9.271  0.1856 -0.3028  0.0765
 1064W        W 5128   0.395   5.819  11.327 -0.1832 -0.2021 -0.0360
 1065W        W 5129   2.673   7.223   2.815  0.1493 -0.0692 -0.2988
 1066W        W 5130   3.832   5.935  10.170 -0.3006  0.1536  0.2174
 1067W        W 5131   0.222   5.830   9.306 -0.1093 -0.3294 -0.1044
 1068W        W 5132   2.562   4.147   2.529 -0.1650 -0.1018 -0.1950
 1069W        W 5133   1.330   4.831  11.188 -0.0019  0.0899 -0.0740
 1070W        W 5134   7.911   2.723  10.181  0.2500 -0.0929 -0.4021
 1071W        W 5135   8.176   2.946   1.873  0.0609  0.1712  0.1935
 1072W        W 5136   3.404  10.552  10.271 -0.0901 -0.1256 -0.1342
 1073W        W 5137   6.201   8.072   0.956 -0.1084 -0.1806  0.0078
 1074W        W 5138   7.230   7.019  10.905 -0.0816 -0.0942 -0.0085
 1075W        W 5139   5.991   7.438  11.231  0.1305 -0.1544  0.1797
 1076W        W 5140   6.599   8.841   9.449 -0.3403  0.0245 -0.2049
 1077W        W 5141   1.331   0.956  10.930  0.2492 -0.1441 -0.2382
 1078W        W 5142   7.518   7.568   9.721 -0.2906  0.4335  0.0997
 1079W        W 5143   1.993   1.874  10.091  0.1145  0.0786 -0.1177
 1080W        W 5144   2.743   0.639   6.950 -0.1121 -0.1949 -0.0072
 1081W        W 5145   6.112   4.556  10.782  0.1230 -0.0092 -0.0447
 1082W        W 5146   3.611   9.302   7.443  0.0852  0.3523 -0.2070
 1083W        W 5147   2.479   6.624   3.254 -0.0103  0.1503  0.0681
 1084W        W 5148   6.520   2.769   2.683  0.2150 -0.2002  0.2977
 1085W        W 5149   2.571  10.435   8.364 -0.2562  0.0743 -0.1284
 1086W        W 5150   4.585   2.559   9.974 -0.2393  0.1586 -0.0272
 1087W        W 5151   1.575   7.442   2.271  0.2546  0.1493  0.1451
 1088W        W 5152   3.772   3.100   7.849 -0.0283  0.1550  0.1545
 1089W        W 5153   4.038   7.200   3.290  0.1770  0.1145  0.1117
 1090W        W 5154   7.056   1.560   2.510  0.1524 -0.1894 -0.2323
 1091W        W 5155   8.692   9.830   1.827 -0.1185  0.2430 -0.1681
 1092W        W 5156   8.841   0.391  10.112 -0.2160  0.0515 -0.0691
 1093W        W 5157   6.612   6.108   1.394 -0.3425 -0.1709  0.0176
 1094W        W 5158   0.687   5.601   9.418 -0.1522  0.1226  0.1930
 1095W        W 5159   6.275   8.964   1.313 -0.1636 -0.1498  0.0346
 1096W        W 5160   2.791   9.574   7.659  0.1578 -0.0531  0.2536
 1097W        W 5161   9.582   9.750   2.967  0.1461 -0.0676  0.2533
 1098W        W 5162   1.794   3.187  10.930  0.2218  0.1909  0.0857
 1099W        W 5163   4.199   6.405  11.331 -0.1805 -0.0495  0.0290
 1100W        W 5164   8.821   3.839   2.160 -0.1380 -0.2082 -0.0132
 1101W        W 5165   6.849   4.532   0.121 -0.0429 -0.0833  0.0763
 1102W        W 5166   0.673   1.380   8.542 -0.0452  0.1784  0.5391
 1103W        W 5167   7.967   8.571   1.016  0.0397 -0.0370 -0.1361
 1104W        W 5168   2.146   2.911   0.033 -0.0721  0.0067 -0.0704
 1105W        W 5169   0.697   7.545   9.611  0.0770  0.2127  0.1134
 1106W        W 5170   6.029   9.598  11.131 -0.0342 -0.0960  0.2202
 1107W        W 5171   5.521   5.666  11.041 -0.0006 -0.1096 -0.0474
 1108W        W 5172   5.219   1.407   0.925 -0.2054  0.2793 -0.0578
 1109W        W 5173   2.588   8.909   9.032  0.3748 -0.1362 -0.1514
 1110W        W 5174   8.837   2.572   2.096 -0.2473  0.2193 -0.0672
 1111W        W 5175   1.416   4.998   9.750  0.0781 -0.1619  0.1287
 1112W        W 5176   5.809   5.864   0.918 -0.0473  0.0901  0.1043
 1113W        W 5177   9.980   0.908   7.257 -0.2632 -0.2752 -0.0540
 1114W        W 5178   1.005   7.208   9.957  0.2577 -0.0372  0.0303
 1115W        W 5179   6.869   3.906  11.262 -0.0560  0.0008  0.0789
 1116W        W 5180   6.914   9.455   9.246 -0.2465 -0.2053 -0.2234
 1117W        W 5181   6.642   3.336  10.258  0.0555  0.3174 -0.0389
 1118W        W 5182   6.551   3.579   1.610  0.0223 -0.0485 -0.0414
 1119W        W 5183   7.373   2.668   9.429  0.2793 -0.0694  0.3808
 1120W        W 5184   7.058   0.114   7.014  0.0805 -0.0083  0.4571
 1121W        W 5185   0.064   7.901   8.234 -0.3165 -0.3815 -0.2434
 1122W        W 5186   6.331   1.692  11.370  0.0609 -0.0505 -0.0572
 1123W        W 5187   4.998   5.627   3.012  0.0390  0.1728  0.0872
 1124W        W 5188   6.094   6.079   0.578  0.2060  0.0165 -0.0233
 1125W        W 5189   2.459   9.430   0.991  0.0540 -0.0128 -0.0369
 1126W        W 5190   4.367   4.099   2.515  0.0078 -0.1725  0.0766
 1127W        W 5191   3.012   4.891   7.775  0.0151  0.0944 -0.3028
 1128W        W 5192   3.362   4.663   0.204 -0.0771 -0.2574 -0.0433
 1129W        W 5193   4.193   9.376   8.156  0.0103 -0.0823  0.1081
 1130W        W 5194  10.365   2.965  11.301 -0.1232 -0.2111 -0.1194
 1131W        W 5195   5.908   1.092   8.420  0.3051  0.4455 -0.2738
 1132W        W 5196   3.649   9.952   0.194  0.2169  0.2741  0.0653
 1133W        W 5197   9.154   5.405   1.758  0.2031 -0.2731 -0.1381
 1134W        W 5198   6.526   4.560  11.117 -0.1628  0.0381 -0.1173
 1135W        W 5199   0.040   4.337  10.564 -0.0536 -0.1804 -0.0685
 1136W        W 5200   5.320   2.723  10.874  0.0124  0.2003  0.2563
 1137W        W 5201   5.523   4.243   0.182  0.0804 -0.3587 -0.0901
 1138W        W 5202   3.508   2.183   1.922  0.2646 -0.3049 -0.2708
 1139W        W 5203   8.462   0.185   8.026 -0.0363  0.1173  0.0004
 1140W        W 5204   0.398   9.177   9.737 -0.1524 -0.0260  0.0156
 1141W        W 5205   9.311   7.587   8.238 -0.1933  0.0515 -0.3543
 1142W        W 5206  10.619  10.377   9.164 -0.1283  0.4615  0.2452
 1143W        W 5207   6.434   9.713   2.138  0.0500  0.1673  0.0895
 1144W        W 5208   1.389   9.870  10.104  0.2642 -0.2824 -0.1820
 1145W        W 5209   8.180   2.793   2.702  0.0386  0.1833  0.3645
 1146W        W 5210   0.511   3.359   1.041 -0.0947 -0.1651  0.0174
 1147W        W 5211   7.841   3.697  10.847  0.0525 -0.0105 -0.2689
 1148W        W 5212   5.075   1.760   7.971  0.1445 -0.1262 -0.2916
 1149W        W 5213   6.125   2.508   8.588  0.1436  0.0642  0.0736
 1150W        W 5214   0.591   3.871   9.123  0.2688  0.0801 -0.1037
 1151W        W 5215   6.574   8.087   3.152  0.0619  0.1837  0.3126
 1152W        W 5216   8.280   0.289   7.419  0.2499 -0.2616  0.0336
 1153W        W 5217   1.544   9.799   8.439  0.0521  0.1460  0.2659
 1154W        W 5218   6.154  10.698   8.625  0.0050 -0.2462 -0.1018
 1155W        W 5219  10.262   3.298   2.846  0.0948 -0.2226 -0.0980
 1156W        W 5220   6.594  10.378   7.574  0.0392  0.0820  0.2887
 1157W        W 5221   9.129   9.553   2.051 -0.2109 -0.2001 -0.0115
 1158W        W 5222   9.176   0.795   2.014 -0.1513  0.2286  0.2243
 1159W        W 5223   6.315   5.054  10.629 -0.0706 -0.0907  0.1437
 1160W        W 5224   4.197   3.539  10.528  0.1613  0.1024  0.1264
 1161W        W 5225   9.055   2.888   3.605 -0.1619  0.1976 -0.0446
 1162W        W 5226   6.730  10.233   1.048 -0.2045 -0.3099  0.2045
 1163W        W 5227   0.117   3.874  10.985 -0.1892 -0.3676 -0.4575
 1164W        W 5228   3.062   4.255   0.488 -0.2847 -0.2219 -0.1633
 1165W        W 5229   6.022   8.036   2.385  0.2246  0.3040  0.3144
 1166W        W 5230   2.990   0.490  10.951 -0.0037  0.2648  0.1571
 1167W        W 5231   9.601   0.063   7.642  0.0633  0.1168 -0.0966
 1168W        W 5232   3.180   6.397   9.409  0.2120  0.1580  0.2139
 1169W        W 5233   3.775   8.696   8.313 -0.0345 -0.3377  0.0853
 1170W        W 5234   9.601   4.663   8.977 -0.1343 -0.0605 -0.5182
 1171W        W 5235   6.406   0.682   2.772 -0.1324  0.2061  0.5071
 1172W        W 5236   7.478   4.379   7.959  0.2688 -0.1361 -0.0990
 1173W        W 5237   0.946   1.945  10.633  0.0518  0.0949  0.1421
 1174W        W 5238   4.639   0.867   8.544  0.0503 -0.1142  0.0318
 1175W        W 5239   4.071   5.877   2.442 -0.1547 -0.0593 -0.0436
 1176W        W 5240   1.816   3.247  10.011 -0.0305 -0.1033  0.0459
 1177W        W 5241  10.368   9.347   1.136 -0.0902  0.0425 -0.0428
 1178W        W 5242   4.020   2.216   8.665 -0.0164 -0.0719 -0.1289
 1179W        W 5243   1.404   0.139   2.350 -0.0477 -0.0413 -0.0771
 1180W        W 5244   6.763   3.256   8.234  0.2949  0.0261 -0.1016
 1181W        W 5245   0.724   1.698   7.589 -0.1308  0.3416 -0.0841
 1182W        W 5246   9.774   0.209  10.166  0.3082  0.0793  0.1129
 1183W        W 5247   7.772   2.140   1.447 -0.1885 -0.2495 -0.0275
 1184W        W 5248   5.293   8.150   8.838  0.3919  0.0233 -0.1590
 1185W        W 5249   4.255   7.366   6.868  0.5199  0.0156  0.3066
 1186W        W 5250   6.945   9.479  11.268 -0.4274  0.0153  0.0163
 1187W        W 5251   4.759   0.439  10.036  0.1229 -0.0184  0.1487
 1188W        W 5252   8.071   8.544  10.486  0.3691  0.0168  0.0669
 1189W        W 5253   6.684   1.682   9.592 -0.0769  0.0968  0.0292
 1190W        W 5254   4.602   7.257   9.733 -0.0252  0.1079  0.5614
 1191W        W 5255   4.503   5.393  10.705  0.2053 -0.0920 -0.0995
 1192W        W 5256  10.216   7.609   2.412  0.2802 -0.1365 -0.3135
 1193W        W 5257   0.015   9.322  10.322 -0.1784  0.0010  0.0263
 1194W        W 5258   1.608   9.686  11.077 -0.1373  0.0420  0.0313
 1195W        W 5259  10.040   2.076   3.765 -0.0743 -0.2329 -0.0457
 1196W        W 5260   3.535   2.421   0.832 -0.0020 -0.1681  0.1884
 1197W        W 5261   4.032   0.435   8.947 -0.0369  0.1257 -0.0669
 1198W        W 5262   4.692   1.665   8.928 -0.2496 -0.0104  0.2192
 1199W        W 5263   1.206   6.764   9.981 -0.1245  0.3265 -0.4344
 1200W        W 5264  10.410   2.473  10.498 -0.1206 -0.2848  0.5345
 1201W        W 5265   7.363   4.294   2.896  0.0240 -0.0720  0.1335
 1202W        W 5266   2.813   9.384  10.352  0.1196 -0.3703 -0.1244
 1203W        W 5267   2.477   1.160   8.561 -0.0920  0.0264 -0.3100
 1204W        W 5268   2.265   9.285   8.972 -0.0006  0.0334  0.2185
 1205W        W 5269   7.048   0.525   7.943  0.0717 -0.0525 -0.2272
 1206W        W 5270   6.700   8.592   7.554  0.3801  0.0894  0.0156
 1207W        W 5271   8.016   1.918  11.392 -0.0595  0.0561  0.1435
 1208W        W 5272   9.461   8.258  10.263  0.0955 -0.0263  0.1300
 1209W        W 5273   8.424   0.105   9.518 -0.2228  0.3261  0.0266
 1210W        W 5274   9.990   6.709   8.674 -0.1022 -0.2039 -0.1686
 1211W        W 5275   8.263   9.267   3.950  0.0294  0.0185 -0.0208
 1212W        W 5276   5.611   9.033   8.854  0.0490 -0.0282  0.0311
 1213W        W 5277   8.878   6.274  11.369  0.2208 -0.0432  0.2126
 1214W        W 5278   1.782  10.366   7.939  0.1993  0.2069 -0.0378
 1215W        W 5279   0.979   6.536   1.031 -0.0648 -0.5342 -0.1746
 1216W        W 5280   6.469   3.340   7.674 -0.1495 -0.2688  0.3125
 1217W        W 5281   0.418  10.567   1.123  0.0811  0.0402 -0.0013
 1218W        W 5282   7.080   8.827   8.555 -0.0446 -0.1490  0.0582
 1219W        W 5283   5.183   6.796   2.289 -0.1848  0.0901 -0.5061
 1220W        W 5284   1.479   9.068   7.670  0.1809  0.2717  0.2922
 1221W        W 5285   2.198   9.712  11.016  0.1897 -0.0337 -0.0605
 1222W        W 5286  10.516   8.223   9.513 -0.3593 -0.2886  0.0347
 1223W        W 5287   2.651   9.708   2.443 -0.0881  0.0654  0.1734
 1224W        W 5288   6.991   7.265  10.548 -0.0040  0.1611 -0.1157
 1225W        W 5289   4.753   0.913   9.826  0.0208 -0.0513  0.0320
 1226W        W 5290   6.585  10.409   8.127  0.1672 -0.0820  0.0413
 1227W        W 5291   2.885   5.057   2.793 -0.5039 -0.1364 -0.2470
 1228W        W 5292   1.067   3.855   8.964 -0.1900 -0.0186  0.0752
 1229W        W 5293   2.939   1.373   9.883 -0.2407 -0.0098  0.0996
 1230W        W 5294   4.119  10.299   0.902  0.1583  0.2582 -0.0045
 1231W        W 5295   2.876   8.420   8.463  0.1385  0.0053 -0.2140
 1232W        W 5296   5.590   9.414   7.772  0.3872  0.2357  0.0917
 1233W        W 5297   8.183  10.542   3.810 -0.0355  0.0091 -0.2138
 1234W        W 5298   3.055   5.301   9.293 -0.1972 -0.2898 -0.0550
 1235W        W 5299   0.272   9.256   0.527 -0.1094  0.2683  0.1598
 1236W        W 5300   8.155   6.240   9.957  0.1189  0.0100  0.1706
 1237W        W 5301   9.937   6.668  10.358  0.0718 -0.1137 -0.4547
 1238W        W 5302   5.696   9.927   2.778 -0.1176 -0.1850 -0.0698
 1239W        W 5303   7.946   2.575   8.297  0.1691 -0.4396  0.1795
 1240W        W 5304   7.308   3.991  10.989  0.1463  0.3308  0.0648
 1241W        W 5305  10.662   9.730  11.072  0.0058  0.0470  0.0608
 1242W        W 5306  10.280  10.336   0.733 -0.0617 -0.5769  0.2122
 1243W        W 5307   5.029   3.641   1.882  0.0709  0.0569  0.2849
 1244W        W 5308   8.323   5.950   9.541 -0.1120 -0.1915  0.0823
 1245W        W 5309   2.572   6.565  11.269  0.1253  0.0538  0.1523
 1246W        W 5310   2.569   7.110   9.990  0.0611 -0.2701 -0.0754
 1247W        W 5311   3.748   5.250   9.742 -0.1835 -0.2203  0.2088
 1248W        W 5312   3.553   7.176  10.488 -0.1396 -0.0423 -0.0307
 1249W        W 5313   1.335   5.843   9.206 -0.1229 -0.2409 -0.0903
 1250W        W 5314   5.947  10.158   8.003  0.0770 -0.4533  0.0878
 1251W        W 5315   5.873   5.243  11.287  0.2119  0.1267  0.2313
 1252W        W 5316   8.929   6.481  10.362  0.2068  0.1438 -0.1225
 1253W        W 5317   7.576   7.286  11.142  0.0054 -0.1662 -0.0229
 1254W        W 5318   3.294   1.445   9.553 -0.1644 -0.1584 -0.1886
 1255W        W 5319   6.565   2.813   8.505  0.1068  0.1030  0.0394
 1256W        W 5320   5.142   3.573   2.431  0.0387  0.1813  0.0348
 1257W        W 5321   9.248   9.624   8.945  0.0578 -0.2177 -0.1251
 1258W        W 5322   9.121   5.516  10.144 -0.0733 -0.0480  0.1768
 1259W        W 5323   0.388   1.153   9.981 -0.2644  0.3508 -0.0346
 1260W        W 5324   8.521   4.761   7.798 -0.0861  0.0481  0.2743
 1261W        W 5325   8.018   6.005   7.490  0.0803 -0.0033  0.1240
 1262W        W 5326   4.568   1.068   7.530 -0.2641 -0.0865 -0.0519
 1263W        W 5327   0.973   0.689   0.669  0.0280 -0.0313 -0.0117
 1264W        W 5328   3.908   6.734   0.184  0.2230  0.0678 -0.1005
 1265W        W 5329   8.994   1.618  11.145  0.1084 -0.2763 -0.0331
 1266W        W 5330   4.859   0.089   9.112  0.2394  0.1557 -0.1801
 1267W        W 5331   0.308   3.231   2.509  0.1191  0.1371 -0.1211
 1268W        W 5332   2.955   6.768   9.708  0.1554  0.2082  0.0548
 1269W        W 5333   9.101   6.675   2.897 -0.1082 -0.1040  0.0161
 1270W        W 5334   2.037   6.302  10.835  0.3402  0.0649  0.0489
 1271W        W 5335   0.893   7.537   7.832  0.2638  0.0863  0.0812
 1272W        W 5336  10.600   8.371  11.100  0.1256 -0.1820  0.4604
 1273W        W 5337   2.459   3.040  10.194 -0.1270  0.0839 -0.0098
 1274W        W 5338   5.283   8.665   9.032 -0.2140  0.3016 -0.1371
 1275W        W 5339   2.646  10.556   0.486 -0.1399  0.3748  0.0567
 1276W        W 5340   4.956   7.255   2.259 -0.1986 -0.1279 -0.0061
 1277W        W 5341   3.872   9.435   1.636 -0.0465 -0.2372 -0.0889
 1278W        W 5342   9.489   3.834   1.592 -0.0952  0.0978 -0.0272
 1279W        W 5343   3.849   7.557   1.509  0.0242  0.0117  0.2481
 1280W        W 5344   8.435   0.936   9.038 -0.2942 -0.0836 -0.3137
 1281W        W 5345   6.713   4.832   1.891 -0.1414 -0.1921  0.0440
 1282W        W 5346   8.159   7.838   9.070  0.4964 -0.0371  0.0822
 1283W        W 5347   2.927   1.901   3.207 -0.1652  0.2733  0.0683
 1284W        W 5348   9.853   2.995  11.263 -0.0251 -0.1078  0.2675
 1285W        W 5349   4.797   2.161   2.659 -0.1400  0.2586  0.1606
 1286W        W 5350   6.400   7.505   9.426 -0.0052 -0.0192  0.0012
 1287W        W 5351   1.697   4.831   8.766 -0.0330 -0.0885  0.0908
 1288W        W 5352   2.674   1.043   2.704 -0.2939  0.0354  0.0966
 1289W        W 5353   9.381   1.605   8.929  0.1048 -0.0380 -0.2229
 1290W        W 5354   4.101   9.295   9.396 -0.3044 -0.0187  0.0820
 1291W        W 5355   5.705   4.247   9.428  0.0565 -0.1888 -0.1039
 1292W        W 5356  10.378   0.456   2.050  0.1514  0.1581 -0.0765
 1293W        W 5357   8.273  10.216  10.241 -0.1646 -0.0438  0.0291
 1294W        W 5358   8.482  10.537   2.476  0.3334  0.0638 -0.3156
 1295W        W 5359   6.074   0.466   0.180  0.4895 -0.0050  0.1972
 1296W        W 5360   0.620   5.193   2.390 -0.2059 -0.3330  0.0125
 1297W        W 5361   9.668  10.049   1.189 -0.2196  0.1856  0.1645
 1298W        W 5362   7.951   6.183  11.236  0.0410 -0.0701 -0.0845
 1299W        W 5363   4.180   8.000   2.217  0.0777 -0.0406 -0.0724
 1300W        W 5364   6.240   5.811   0.153 -0.0893  0.2596  0.3014
 1301W        W 5365   7.469   9.115   2.902  0.2399 -0.0412 -0.0548
 1302W        W 5366   1.392   6.170   3.734 -0.0049 -0.0244 -0.2489
 1303W        W 5367   7.653  10.639  10.688  0.1429  0.4143  0.0535
 1304W        W 5368   4.254   9.858   3.727 -0.0527  0.3229 -0.0332
 1305W        W 5369   2.166   1.930   0.216  0.0288 -0.0034  0.5406
 1306W        W 5370  10.659   0.380  11.113 -0.1278 -0.0287 -0.2369
 1307W        W 5371   7.916  10.468   1.608  0.0490 -0.3281 -0.0123
 1308W        W 5372   8.053  10.460   9.519  0.0422 -0.0417 -0.0770
 1309W        W 5373   8.601   3.253   0.784 -0.0765  0.0676  0.2440
 1310W        W 5374   8.253   1.017  11.188 -0.1642  0.0761  0.0659
 1311W        W 5375   0.904   0.185   2.631  0.3644  0.1780  0.0595
 1312W        W 5376   9.023  10.497   2.356  0.0349  0.1526 -0.1984
 1313W        W 5377   5.223   7.539   3.959 -0.0877 -0.2032 -0.0252
 1314W        W 5378   9.545   3.936   9.709  0.0634 -0.2067 -0.1944
 1315W        W 5379   5.820   3.054   1.374  0.2038  0.0807  0.0684
 1316W        W 5380   6.109   7.249  10.251 -0.1404  0.2370 -0.1930
 1317W        W 5381   4.919   7.147   1.248  0.2602  0.0783  0.2724
 1318W        W 5382   1.629   2.330   9.053  0.0738 -0.1014  0.0641
 1319W        W 5383   5.876   1.993   8.120  0.3569 -0.4075  0.2094
 1320W        W 5384   5.951   4.998   6.950 -0.0067  0.3860 -0.0038
 1321W        W 5385   0.062   9.722   8.335  0.1948  0.1777 -0.1387
 1322W        W 5386   5.051   0.792   8.794 -0.2277  0.0492 -0.1282
 1323W        W 5387   2.482   4.398  11.332  0.2313  0.4849 -0.0351
 1324W        W 5388   5.367   7.630   0.797  0.2323  0.0188  0.1997
 1325W        W 5389   1.089   6.268   7.866  0.0181  0.0599 -0.2034
 1326W        W 5390   3.737   6.261   9.366  0.1822  0.0810 -0.4451
 1327W        W 5391   9.133   8.165   3.455  0.0347  0.0585  0.0660
 1328W        W 5392   0.940   8.767  10.356 -0.2079  0.0833  0.0553
 1329W        W 5393   4.522   3.760   0.475  0.0477 -0.0734 -0.1624
 1330W        W 5394   9.987   5.856   8.865 -0.2744 -0.0659 -0.0474
 1331W        W 5395   4.903   6.732   7.757  0.3066  0.4363  0.2017
 1332W        W 5396   3.881   4.246   0.095  0.1995  0.0167 -0.2658
 1333W        W 5397   0.896   4.200   9.480  0.2102 -0.2832  0.0074
 1334W        W 5398  10.209   5.161   7.896  0.1449  0.3855  0.0313
 1335W        W 5399   6.785   4.777   1.332  0.0039 -0.0222 -0.1748
 1336W        W 5400   3.160   0.859  11.298 -0.0553  0.1608  0.1626
 1337W        W 5401   3.034   1.400   0.236 -0.0310  0.0419 -0.0182
 1338W        W 5402   1.459   3.015  10.546  0.2453 -0.2714 -0.0868
 1339W        W 5403   7.549   4.393   1.330 -0.2405  0.0003  0.2628
 1340W        W 5404   5.990   5.959   7.051 -0.2237  0.2213  0.2647
 1341W        W 5405   3.717   2.064   9.003 -0.0007 -0.4351 -0.0762
 1342W        W 5406   9.824   5.362   9.996 -0.2941 -0.0031  0.0363
 1343W        W 5407   9.416   5.004  11.300  0.2725 -0.1865  0.2671
 1344W        W 5408   4.355   4.749   8.419  0.0232  0.1430 -0.0139
 1345W        W 5409   5.574   3.777   2.558 -0.1058 -0.0759 -0.1637
 1346W        W 5410   5.387   7.829  10.089  0.3750 -0.0139 -0.1136
 1347W        W 5411   1.801   0.757  10.987 -0.1052 -0.0718  0.0490
 1348W        W 5412  10.685   1.034  10.827 -0.0249 -0.1420  0.0957
 1349W        W 5413   9.543   9.814   0.388 -0.0254 -0.1121  0.0214
 1350W        W 5414   3.480   2.470   7.774  0.1506  0.0518 -0.3251
 1351W        W 5415   1.390   6.963   2.089  0.2658  0.2730 -0.0781
 1352W        W 5416   2.436   4.399   2.967 -0.0255 -0.0626 -0.1422
 1353W        W 5417   6.394   4.070   1.551  0.1744  0.0855 -0.0914
 1354W        W 5418   7.874   5.206   1.865  0.1650  0.1554  0.1329
 1355W        W 5419   6.807   5.602  10.372  0.0439 -0.1807  0.0858
 1356W        W 5420   0.835   5.771  11.014 -0.0630 -0.2327 -0.0386
 1357W        W 5421   2.462   5.198   9.332 -0.5284  0.3121  0.0425
 1358W        W 5422   2.260   0.477  11.175 -0.2116  0.0575  0.1652
 1359W        W 5423   1.159   6.162  11.181 -0.3158  0.0399 -0.0643
 1360W        W 5424   0.354   6.432   4.015 -0.2319  0.4237 -0.0411
 1361W        W 5425   9.662   8.915   7.904  0.0987  0.2586 -0.1750
 1362W        W 5426   6.549   6.632   1.723 -0.1158 -0.2104  0.2844
 1363W        W 5427   7.361   9.940   0.523  0.0542  0.0711  0.1721
 1364W        W 5428   8.372   5.632   3.204 -0.1831  0.1792 -0.0504
 1365W        W 5429   3.041   5.795  10.034  0.2706  0.0081  0.0628
 1366W        W 5430   9.498   9.899   1.826 -0.1758 -0.1759  0.1274
 1367W        W 5431   1.723  10.412   0.293  0.2311 -0.2282  0.1099
 1368W        W 5432   8.722   5.415   8.520  0.0284  0.2404  0.3758
 1369W        W 5433  10.396   2.136   2.768 -0.4158  0.0708  0.0568
 1370W        W 5434   2.645  10.559   9.545 -0.2950  0.1644  0.1480
 1371W        W 5435   9.885   8.958   8.964 -0.0682  0.1623  0.2223
 1372W        W 5436   9.123   0.888   8.472 -0.3066 -0.2313  0.0980
 1373W        W 5437   1.367   1.366  10.638  0.1770  0.4470  0.1856
 1374W        W 5438   3.329   6.625   2.673 -0.1230 -0.2962 -0.1454
 1375W        W 5439   0.436  10.386   0.142  0.1059  0.1844 -0.0784
 1376W        W 5440   3.273   2.183  10.865  0.0172 -0.2339  0.1049
 1377W        W 5441   9.462   5.314   3.159 -0.0433  0.4414  0.2902
 1378W        W 5442   7.275   4.297   9.080 -0.0582 -0.0283  0.2017
 1379W        W 5443   6.511   5.874   8.266  0.0815  0.0462 -0.2203
 1380W        W 5444   6.359   2.747   9.493 -0.3091 -0.0593  0.2132
 1381W        W 5445   5.874   4.506   7.833  0.0289 -0.1505  0.2738
 1382W        W 5446  10.641   0.180   2.532  0.1029 -0.0976 -0.1117
 1383W        W 5447   8.991   5.464   3.217 -0.0222 -0.0444  0.0392
 1384W        W 5448   4.375   6.883  10.565 -0.0053  0.1543  0.1292
 1385W        W 5449   2.861   5.528   1.901 -0.0144 -0.1100 -0.3648
 1386W        W 5450   2.160   1.952   1.378  0.0195  0.0298 -0.0260
 1387W        W 5451   8.925   8.308  10.400  0.0033  0.2334  0.1968
 1388W        W 5452   0.264   2.665   9.674  0.2711  0.1688 -0.1298
 1389W        W 5453   4.215   1.212   0.761 -0.1823  0.0722 -0.0694
 1390W        W 5454   9.011  10.556  10.767  0.0793  0.1492  0.1551
 1391W        W 5455   3.514   9.072  10.039  0.1930  0.0039  0.1568
 1392W        W 5456   1.025   0.765   1.186  0.2375 -0.0327  0.2919
 1393W        W 5457   6.776   6.375   8.835 -0.3035 -0.0555  0.1921
 1394W        W 5458   4.004   0.299   1.534 -0.1523 -0.1334  0.0196
 1395W        W 5459   5.664   0.003  10.951 -0.2783 -0.2533  0.1640
 1396W        W 5460   9.868   0.698   9.278  0.0867  0.0136 -0.0836
 1397W        W 5461   9.118   4.263   0.699  0.3062  0.0986 -0.1367
 1398W        W 5462   6.014  10.239   0.317 -0.1769  0.0012  0.2382
 1399W        W 5463   1.115   1.878   0.282  0.2134  0.1913 -0.1378
 1400W        W 5464   3.213   5.164   1.469 -0.0205  0.1914  0.1101
 1401W        W 5465   8.945   9.780   1.042  0.4208 -0.0005  0.1233
 1402W        W 5466   1.691   5.717   2.918 -0.0669 -0.2225 -0.0266
 1403W        W 5467   6.222   3.269  10.647  0.3963  0.1110  0.1387
 1404W        W 5468   6.684   9.784   1.228 -0.0990 -0.3223  0.0969
 1405W        W 5469   0.295   2.224   2.054  0.0456 -0.2442  0.2443
 1406W        W 5470   1.210  10.344  10.415  0.2046 -0.0769 -0.3749
 1407W        W 5471   3.681   1.624   9.225 -0.0737 -0.1449 -0.4143
 1408W        W 5472   3.639   2.526   8.242 -0.4306 -0.0066  0.0267
 1409W        W 5473   1.006   7.729  10.006 -0.1728 -0.0410  0.2654
 1410W        W 5474   1.625   8.062   9.277 -0.2420  0.0806  0.1534
 1411W        W 5475   9.715   8.483   8.726  0.4302  0.0738  0.1706
 1412W        W 5476  10.048   7.247  10.612 -0.1024 -0.0905  0.1565
 1413W        W 5477   0.292  10.459   7.441  0.0337 -0.2210  0.0301
 1414W        W 5478   5.303  10.245   0.729 -0.0578  0.0171 -0.4159
 1415W        W 5479   8.498   7.109   0.626  0.1467 -0.1029 -0.0491
 1416W        W 5480   6.346   7.726  10.296  0.0051  0.0183  0.0672
 1417W        W 5481   2.920   3.667   9.148  0.2028 -0.1345  0.1992
 1418W        W 5482   3.295   5.451   9.746 -0.0771  0.3781  0.1055
 1419W        W 5483   9.104   6.204   1.130  0.4076  0.1570  0.0233
 1420W        W 5484   3.200   2.758   1.948  0.1178 -0.0908  0.3420
 1421W        W 5485   8.111  10.408  10.758 -0.1514 -0.3064  0.0772
 1422W        W 5486   7.486   1.381   9.225  0.0959 -0.2421 -0.0644
 1423W        W 5487   9.432   5.025   9.339 -0.1120  0.1881  0.0473
 1424W        W 5488   0.680   3.187  10.745  0.1547 -0.1985 -0.2714
 1425W        W 5489   5.373  10.261   0.184  0.0862 -0.3783 -0.1666
 1426W        W 5490   8.909   1.686  10.630 -0.2294 -0.0796 -0.1160
 1427W        W 5491   7.310   8.683   1.511 -0.3380  0.0737 -0.1848
 1428W        W 5492   7.014   7.980   8.864 -0.0108  0.2590 -0.1419
 1429W        W 5493   1.499   5.954   4.210 -0.0478  0.0447  0.2085
 1430W        W 5494   0.726   1.519   8.061 -0.1812  0.0173 -0.4328
 1431W        W 5495   9.681   4.498   8.528  0.2453  0.2403 -0.0390
 1432W        W 5496   8.975   8.213   2.773  0.2935 -0.2403  0.1739
 1433W        W 5497   1.377   6.312   0.726 -0.1549  0.1585 -0.0926
 1434W        W 5498   3.859   1.108  10.805 -0.0254 -0.2245  0.0697
 1435W        W 5499   5.358   4.564   9.680  0.1077 -0.1158 -0.0035
 1436W        W 5500  10.678   4.566  11.027 -0.2060  0.3237 -0.0057
 1437W        W 5501   4.359  10.663   8.331 -0.0418 -0.0459 -0.2057
 1438W        W 5502   9.638   7.573   3.128 -0.0579  0.0083 -0.1087
 1439W        W 5503   6.782   6.844   9.039 -0.4117 -0.4379  0.1740
 1440W        W 5504   1.159   3.072   2.954  0.1250 -0.0565  0.1016
 1441W        W 5505   3.200   8.428   0.472  0.3510  0.1197  0.0204
 1442W        W 5506   8.015   7.275  10.103 -0.0557 -0.1814  0.1405
 1443W        W 5507   5.564   1.036   0.944  0.5243  0.4893  0.0252
 1444W        W 5508   8.885   2.919   1.185  0.0598  0.3076 -0.1163
 1445W        W 5509   7.863   6.215   0.612  0.1060 -0.1897 -0.0233
 1446W        W 5510   8.348   9.540  10.037  0.0792  0.0558  0.2126
 1447W        W 5511   2.254   0.385  10.332  0.0482  0.0078 -0.2825
 1448W        W 5512   1.738   4.080   1.393  0.1052  0.1048 -0.1161
 1449W        W 5513   4.789   5.490  10.281 -0.2244 -0.1460 -0.2056
 1450W        W 5514   9.148   9.304   1.174  0.0135 -0.1785 -0.2148
 1451W        W 5515   6.028   0.694   9.417 -0.1658  0.0137 -0.3130
 1452W        W 5516   5.030   9.912   8.304 -0.2365 -0.1967  0.1088
 1453W        W 5517   2.925  10.137   1.648 -0.0862  0.0858 -0.1722
 1454W        W 5518   8.796   1.056  11.215  0.1256  0.0894 -0.0518
 1455W        W 5519   5.362   2.093   0.457  0.1951  0.0867 -0.2920
 1456W        W 5520   8.515   0.622  10.846 -0.4133  0.0025 -0.2958
 1457W        W 5521   4.150   4.695   1.100 -0.0442 -0.2202  0.2371
 1458W        W 5522   1.389   5.033   1.263 -0.1316 -0.0888  0.2122
 1459W        W 5523  10.311   2.626   1.017 -0.4421 -0.0314 -0.0016
 1460W        W 5524   9.878   2.845   8.575 -0.0667 -0.1078 -0.0561
 1461W        W 5525   2.940   6.604   8.409 -0.0634  0.0813 -0.2427
 1462W        W 5526   8.698   8.587   0.453 -0.1200 -0.3894 -0.1023
 1463W        W 5527   2.812   1.985   2.694 -0.3495  0.2222  0.0929
 1464W        W 5528   5.467   4.164   9.004 -0.2379  0.1905 -0.1729
 1465W        W 5529   0.521   1.162   3.097 -0.1935 -0.0660 -0.0276
 1466W        W 5530   7.545   0.735   0.327 -0.1687  0.0683 -0.2194
 1467W        W 5531   4.728   9.028   1.090 -0.2447  0.1868  0.3616
 1468W        W 5532   4.339  10.698   9.188  0.5703  0.0227 -0.0181
 1469W        W 5533   9.436   5.967   1.423 -0.0107  0.1050 -0.0955
 1470W        W 5534   3.626   6.316   0.052 -0.1605  0.3918  0.0269
 1471W        W 5535   6.150   1.008   2.988 -0.2790 -0.2057  0.2490
 1472W        W 5536   0.032   4.773   0.077  0.0994  0.0163 -0.0367
 1473W        W 5537   3.128   0.887   7.266 -0.0468  0.1025  0.3679
 1474W        W 5538   9.942  10.051   0.174 -0.0517 -0.0660 -0.6095
 1475W        W 5539   2.968   5.651  10.539 -0.2636 -0.0708  0.0909
 1476W        W 5540   2.662   3.526  11.088 -0.5973  0.1092  0.2031
 1477W        W 5541  10.018   2.320  10.113 -0.0796  0.0814  0.0720
 1478W        W 5542  10.311  10.260   2.352 -0.0495 -0.1953  0.0537
 1479W        W 5543   3.432   9.863   8.194  0.0691 -0.4285  0.0190
 1480W        W 5544   9.695   4.161   8.900  0.0375  0.0934 -0.3049
 1481W        W 5545   1.176   4.705   8.929 -0.4595  0.0622  0.1402
 1482W        W 5546   8.132   9.352   2.656 -0.0285  0.2068  0.2496
 1483W        W 5547   6.128   9.381   9.815 -0.2264 -0.3787  0.2358
 1484W        W 5548   0.735   2.819   9.287 -0.0432  0.1959 -0.1935
 1485W        W 5549   5.416   4.607   9.167  0.0446 -0.0758  0.1256
 1486W        W 5550  10.425   7.678  10.578  0.1867 -0.0035 -0.1108
 1487W        W 5551   0.346   0.701   7.827 -0.0409 -0.0903  0.2845
 1488W        W 5552   8.531   7.674   1.658 -0.0739 -0.2584  0.0292
 1489W        W 5553   7.513   8.702   3.254  0.0309  0.2130 -0.0964
 1490W        W 5554   9.361   9.086  11.389  0.1189 -0.3438  0.0180
 1491W        W 5555  10.016   5.095   2.684  0.1241 -0.0020 -0.0352
 1492W        W 5556   7.349   3.264   2.667 -0.1166 -0.1862 -0.2603
 1493W        W 5557   3.874   6.072   1.010  0.3474  0.0530 -0.1153
 1494W        W 5558   4.881   3.524   1.434  0.2656  0.1407  0.1469
 1495W        W 5559   9.449  10.419   9.048 -0.1630 -0.1958  0.0544
 1496W        W 5560   0.774   1.738   1.453  0.2061  0.1878 -0.0241
 1497W        W 5561   0.344   7.497   3.135 -0.1165 -0.0557  0.2332
 1498W        W 5562   9.783   9.486   1.913  0.0500  0.4263 -0.1296
 1499W        W 5563  10.407   9.840   1.993 -0.0422  0.0419  0.1778
 1500W        W 5564   0.112   2.307   1.490 -0.0487  0.2993 -0.1261
 1501W        W 5565   3.819   9.405   1.109  0.0911 -0.1521 -0.0624
 1502W        W 5566   0.683   7.326   8.768  0.0634  0.0776 -0.2819
 1503W        W 5567   1.373   2.364   3.074 -0.0346  0.1029  0.1366
 1504W        W 5568   1.785  10.089   2.203  0.3471  0.3090  0.0807
 1505W        W 5569   4.799   1.098   2.137  0.4905 -0.0684 -0.0572
 1506W        W 5570   1.952   1.866   8.253 -0.0013  0.0167  0.2846
 1507W        W 5571   4.754   1.213  10.597 -0.2536  0.2749 -0.5033
 1508W        W 5572   1.608   3.620   3.351 -0.2087  0.0231  0.2226
 1509W        W 5573   8.480   5.832   2.330 -0.1356  0.0498  0.1720
 1510W        W 5574   9.024   1.628   1.186  0.0103  0.0556 -0.0882
 1511W        W 5575   5.167   7.104   7.496 -0.0922  0.1488 -0.1349
 1512W        W 5576   9.833   1.989   8.858 -0.3034  0.0057  0.1417
 1513W        W 5577   6.707   4.626   8.490 -0.1944  0.0633  0.3594
 1514W        W 5578   9.438   1.410   3.187  0.2344  0.4770  0.0613
 1515W        W 5579   7.265   2.611   0.102  0.4431  0.0783  0.2012
 1516W        W 5580   3.722   6.881   1.049  0.3844  0.3173  0.6036
 1517W        W 5581   8.873   9.712   8.084  0.0121  0.2456  0.2687
 1518W        W 5582   9.893   5.059   9.149  0.0083  0.1525  0.0262
 1519W        W 5583   0.613   4.213   8.210 -0.0909 -0.0975 -0.1270
 1520W        W 5584   8.088   5.234   9.009 -0.0520 -0.1690  0.4586
 1521W        W 5585   1.248  10.245   8.265 -0.0034  0.0626 -0.2544
 1522W        W 5586   9.280   9.564  11.025 -0.0092 -0.0609  0.0724
 1523W        W 5587   8.494   4.965   8.738  0.3461  0.1653 -0.0420
 1524W        W 5588   5.503   3.772   8.554 -0.2447  0.3653 -0.2290
 1525W        W 5589   0.896   9.709  10.263  0.1913  0.3248  0.0796
 1526W        W 5590   1.345   6.444   9.076  0.1336  0.1633  0.3392
 1527W        W 5591   3.194   2.950   3.582  0.2227 -0.1827 -0.2184
 1528W        W 5592   9.540   9.406   8.039  0.0304 -0.0425  0.0647
 1529W        W 5593   3.240   5.289   3.155  0.1001 -0.3008  0.1308
 1530W        W 5594   0.087   1.149  11.275 -0.1196 -0.3115 -0.2500
 1531W        W 5595   8.302   3.066   8.466 -0.0483  0.0748 -0.1195
 1532W        W 5596   4.493  10.476  10.523 -0.2516  0.0404  0.0920
 1533W        W 5597   5.059   5.983   2.534 -0.0798 -0.3994  0.0665
 1534W        W 5598   9.703   6.382   8.387  0.3580  0.0258  0.0690
 1535W        W 5599   4.083   9.619   8.674  0.1174 -0.0114  0.0420
 1536W        W 5600   2.052   7.959   1.747  0.3514 -0.0581 -0.0549
 1537W        W 5601   2.003   8.851  10.863 -0.0627  0.1657  0.0024
 1538W        W 5602   6.300   5.462   8.712  0.1955 -0.0398  0.0928
 1539W        W 5603   7.901   5.683   7.843 -0.0189  0.0938  0.1964
 1540W        W 5604   4.295   5.150   7.262 -0.1255 -0.2009  0.0273
 1541W        W 5605   4.567   6.557  11.009  0.0471 -0.1567 -0.0796
 1542W        W 5606   7.575   9.449   8.002 -0.0041  0.1041  0.0578
 1543W        W 5607   9.041  10.248  10.372 -0.0481  0.7241  0.0643
 1544W        W 5608   7.904   0.688   2.664 -0.0710 -0.1070 -0.0536
 1545W        W 5609   0.857   8.048  10.359 -0.0467 -0.1119 -0.0386
 1546W        W 5610  10.576   7.816   3.312 -0.0355  0.1889  0.0708
 1547W        W 5611   9.296  10.625   8.066  0.1681 -0.6167  0.0140
 1548W        W 5612   6.040   5.832  11.078 -0.3562 -0.0179 -0.2881
 1549W        W 5613   4.461   4.258  11.102 -0.0802 -0.0454  0.1979
 1550W        W 5614   5.479   2.080   7.769  0.2894  0.2533 -0.0713
 1551W        W 5615   9.770   6.381   0.272  0.0074  0.1392  0.0025
 1552W        W 5616   2.201   5.930   0.395 -0.2332 -0.0003 -0.2265
 1553W        W 5617   7.836   3.692   7.584  0.0420  0.0150  0.2856
 1554W        W 5618   2.518   6.768   8.156  0.0227  0.0692 -0.2149
 1555W        W 5619   9.931   8.837   8.375  0.1267 -0.2547  0.0838
 1556W        W 5620   7.407   3.744   7.957 -0.1658  0.1349  0.1542
 1557W        W 5621   5.760   3.878  11.338  0.1161  0.2638  0.1313
 1558W        W 5622   0.908   2.888   2.391  0.1999  0.1920 -0.2131
 1559W        W 5623   1.298   2.543   8.763 -0.0565 -0.1103 -0.0961
 1560W        W 5624   1.621   3.638   1.602  0.0696  0.2211 -0.0551
 1561W        W 5625   2.874   4.064   0.013  0.2367  0.1641 -0.0419
 1562W        W 5626   6.781   0.212   9.647 -0.2526 -0.1933  0.0987
 1563W        W 5627   2.418   1.834   3.151 -0.0061 -0.3715 -0.2560
 1564W        W 5628   4.997   0.947   3.425 -0.0286 -0.2639  0.0172
 1565W        W 5629   6.039   2.633   1.318  0.1525  0.2966  0.0070
 1566W        W 5630   7.267   2.170   1.463 -0.0523 -0.2435 -0.2428
 1567W        W 5631  10.478   9.283   8.168  0.0421 -0.1698  0.2945
 1568W        W 5632   5.683   8.858   9.298  0.0284 -0.1916  0.1088
 1569W        W 5633   9.532   8.595   7.456  0.5285 -0.1660 -0.0163
 1570W        W 5634   8.093   6.234   8.695 -0.1624  0.1546  0.1352
 1571W        W 5635   0.349   9.082   9.267  0.3154  0.1535  0.0491
 1572W        W 5636   6.285   4.687   7.320  0.1630 -0.0217  0.1079
 1573W        W 5637  10.205   0.476   1.515  0.0327 -0.1352  0.4181
 1574W        W 5638   6.456   6.600   2.201  0.2407 -0.1053  0.0065
 1575W        W 5639   3.503   8.893   7.923 -0.2745 -0.3529  0.2245
 1576W        W 5640   7.773   8.901   1.452  0.2154 -0.0235  0.4856
 1577W        W 5641   5.994   1.883   0.790  0.1906  0.1951  0.0601
 1578W        W 5642   7.389   8.383   8.686 -0.2118 -0.0343  0.0315
 1579W        W 5643   8.611  10.408   9.378 -0.2960 -0.2672  0.0107
 1580W        W 5644   3.981   8.066   9.243  0.0681  0.1985 -0.0455
 1581W        W 5645   5.528   3.291   2.700  0.3881 -0.1608  0.2841
 1582W        W 5646   2.744   0.515   7.956 -0.4415  0.0585  0.0020
 1583W        W 5647   9.223   1.062  10.413 -0.1853 -0.0103 -0.0762
 1584W        W 5648   0.701   7.616  11.127 -0.0827 -0.0824 -0.0119
 1585W        W 5649   5.257   6.928   0.272  0.0409 -0.1852 -0.1370
 1586W        W 5650   5.357   5.986  10.129 -0.2678  0.2109 -0.2612
 1587W        W 5651   5.692   7.081   9.456 -0.2536  0.2255 -0.0451
 1588W        W 5652   7.867   1.582   8.705 -0.1404  0.1158 -0.0181
 1589W        W 5653  10.387   1.059   3.074 -0.1566  0.2101 -0.1326
 1590W        W 5654   8.050   9.270   8.086 -0.2537 -0.2603  0.1401
 1591W        W 5655   9.983   1.789   9.847 -0.1021 -0.1545 -0.1341
 1592W        W 5656   1.264   7.590   8.702  0.0131  0.1030 -0.0117
 1593W        W 5657   8.943   9.419   9.498  0.0590 -0.3127  0.1972
 1594W        W 5658   5.388   3.207   7.678  0.0223  0.1996  0.1371
 1595W        W 5659  10.034  10.671   8.392  0.0638  0.0891 -0.3562
 1596W        W 5660   6.412   2.693  11.209  0.0677  0.2534 -0.1050
 1597W        W 5661   3.636   9.076   0.392 -0.1400 -0.4587  0.1200
 1598W        W 5662   3.064   2.633  10.857 -0.0754  0.1656 -0.3620
 1599W        W 5663   9.673   1.347   2.775 -0.0163 -0.2449  0.1481
 1600W        W 5664   1.730   4.898   2.455 -0.1319 -0.0734  0.1796
 1601W        W 5665   2.896   2.462   2.821  0.1235  0.0634  0.0131
 1602W        W 5666   5.221   4.284  10.569  0.0134 -0.1191 -0.0142
 1603W        W 5667   9.159   1.616   7.762 -0.0008 -0.0374  0.0832
 1604W        W 5668   1.876   1.991   2.935  0.2089  0.0010  0.1015
 1605W        W 5669   7.273   3.451   0.675 -0.0573  0.1827 -0.1512
 1606W        W 5670   3.189   1.054   1.975 -0.4202  0.2230 -0.0340
 1607W        W 5671   4.123   7.786   1.145 -0.0462  0.2614  0.1142
 1608W        W 5672   0.052   9.417   2.024  0.1668 -0.2955  0.1027
 1609W        W 5673   1.298   2.087   0.736  0.0241 -0.1889  0.1175
 1610W        W 5674   2.174   5.527  10.415 -0.0839 -0.3700 -0.0086
 1611W        W 5675   7.205   4.216   0.048 -0.4597 -0.1892 -0.2427
 1612W        W 5676   3.599   1.954  11.345  0.0797 -0.0127  0.3922
 1613W        W 5677   6.462   3.418   2.052  0.0042  0.0902 -0.0865
 1614W        W 5678   9.693   1.363   7.111  0.0601  0.2022  0.5277
 1615W        W 5679   6.973   6.678   2.001  0.2041 -0.0291  0.0369
 1616W        W 5680   4.192   4.519   9.747 -0.4492 -0.3093  0.3643
 1617W        W 5681  10.698   4.600   1.629 -0.0558 -0.0048 -0.0254
 1618W        W 5682   1.490   2.141   2.626 -0.1814 -0.0950 -0.3741
 1619W        W 5683   6.828   8.932   1.249  0.0673  0.2322 -0.1208
 1620W        W 5684  10.151   4.342   1.843  0.2675 -0.2418 -0.0211
 1621W        W 5685   9.774   5.949   9.394  0.1631  0.0320 -0.2131
 1622W        W 5686   5.981   2.016   8.818 -0.1270 -0.2454 -0.2081
 1623W        W 5687   1.375   8.881   3.026 -0.2038  0.1819 -0.3241
 1624W        W 5688   2.798   0.173   2.224  0.0938  0.0143 -0.0814
 1625W        W 5689   4.230   0.111   0.004 -0.2967  0.1956  0.0187
 1626W        W 5690   0.003   5.828  11.043  0.1728  0.0759 -0.0327
 1627W        W 5691   9.729   5.685   0.935  0.1162  0.0592 -0.3611
 1628W        W 5692   7.219   4.174   1.652 -0.1261  0.0631 -0.0714
 1629W        W 5693   2.510   8.222   8.177 -0.2252 -0.0758 -0.3273
 1630W        W 5694   2.287   0.725   2.495  0.2098  0.1861 -0.4913
 1631W        W 5695   7.933   3.061   2.341  0.4268 -0.3298 -0.2251
 1632W        W 5696   2.862   3.714   1.414  0.2132  0.2739 -0.1915
 1633W        W 5697   5.445   1.421   1.470  0.0795  0.4117  0.2132
 1634W        W 5698   6.536   1.162   8.423  0.2461 -0.0888 -0.0215
 1635W        W 5699  10.259   1.925   2.358 -0.0460  0.1169 -0.0937
 1636W        W 5700   0.478  10.234   2.572 -0.2902 -0.0238  0.1256
 1637W        W 5701   6.048   9.765  10.184  0.0480 -0.3360  0.1647
 1638W        W 5702   9.038   1.378   0.686 -0.0583  0.2937  0.1220
 1639W        W 5703   8.392   7.606   0.480  0.0306  0.1522 -0.2477
 1640W        W 5704   0.694   0.987   1.491 -0.1219  0.0454 -0.0604
 1641W        W 5705   4.504   3.284   8.461 -0.1322  0.0784 -0.1946
 1642W        W 5706   9.102   4.802   1.509  0.2798  0.1234 -0.1352
 1643W        W 5707   8.326   9.046   1.789  0.1231 -0.2389  0.0033
 1644W        W 5708   7.982   8.905   2.456 -0.1361  0.1714  0.0043
 1645W        W 5709   2.736   3.623   7.798  0.3158  0.0889 -0.0545
 1646W        W 5710   8.323   7.710   2.858 -0.0617 -0.0050  0.0808
 1647W        W 5711   1.466  10.375   2.493  0.2692 -0.0933  0.0513
 1648W        W 5712   6.458   4.182  10.693  0.2297 -0.2926  0.1492
 1649W        W 5713   3.117   7.814   8.788  0.0779 -0.0973 -0.0333
 1650W        W 5714   4.440   5.560  11.171 -0.0360  0.0105 -0.1620
 1651W        W 5715   7.486   6.338  11.213 -0.1227  0.1194 -0.0783
 1652W        W 5716   9.162   0.562   0.797  0.1436 -0.1315  0.0098
 1653W        W 5717   0.200   7.757   9.650  0.2515  0.3150  0.2516
 1654W        W 5718   9.667   6.864   1.690 -0.0206 -0.2287 -0.1157
 1655W        W 5719   7.452   3.326   7.628  0.0051  0.0234 -0.0776
 1656W        W 5720   1.137   6.473   3.256 -0.2864 -0.1548 -0.0778
 1657W        W 5721   8.568   3.226   9.334  0.1222 -0.1508  0.0080
 1658W        W 5722   2.229   7.034   3.422  0.1322 -0.1042 -0.0524
 1659W        W 5723   4.904   2.409   9.600  0.0240  0.1159  0.0599
 1660W        W 5724  10.172  10.609   1.157  0.1895  0.0270 -0.2392
 1661W        W 5725   7.031   6.557  11.356  0.1810  0.0156 -0.0563
 1662W        W 5726   4.126   6.060   7.940  0.0405  0.0028  0.5167
 1663W        W 5727   0.619  10.144  10.548 -0.4513  0.0312 -0.1242
 1664W        W 5728   7.776   6.745  10.179 -0.0219 -0.3100 -0.1270
 1665W        W 5729   6.472   8.133   2.475 -0.1176  0.1533  0.1414
 1666W        W 5730   5.941   8.011  10.883  0.0344  0.0485  0.1534
 1667W        W 5731   0.569   2.354   2.545  0.0074 -0.0611 -0.3909
 1668W        W 5732   1.830   5.428  10.739 -0.1122 -0.0702  0.1426
 1669W        W 5733   8.969   2.407   0.897  0.1055  0.0803  0.2122
 1670W        W 5734   2.573   6.723   2.818 -0.0933  0.0886  0.2534
 1671W        W 5735   2.444   1.274   0.822 -0.1673 -0.0728  0.2307
 1672W        W 5736   8.381   5.793   8.669  0.0552 -0.1233  0.3521
 1673W        W 5737   3.347   1.264   8.109 -0.0029  0.1524 -0.0375
 1674W        W 5738   7.670   2.849   0.995 -0.3933 -0.1186 -0.2281
 1675W        W 5739   8.878   5.498   2.430  0.0280 -0.1583 -0.0662
 1676W        W 5740   8.563   8.285   3.096  0.0677 -0.1016 -0.0471
 1677W        W 5741   8.953   2.118  10.877 -0.1155 -0.2056 -0.0517
 1678W        W 5742   3.904   3.272   2.791 -0.0732 -0.3785 -0.2176
 1679W        W 5743   8.106   7.933  10.054 -0.1381  0.1604 -0.0235
 1680W        W 5744   1.130   4.082   3.232 -0.0924 -0.2087 -0.2759
 1681W        W 5745   9.291   7.308   7.433 -0.6212 -0.1044 -0.2623
 1682W        W 5746   5.082   2.736   9.937  0.0276 -0.2726  0.0899
 1683W        W 5747   6.395   5.877   1.025  0.0843 -0.3810 -0.0695
 1684W        W 5748   7.540   0.439   7.836 -0.2451 -0.0992 -0.2354
 1685W        W 5749   9.722   1.227   7.579 -0.0303  0.5656  0.1314
 1686W        W 5750   7.426   6.438   1.202  0.0351 -0.2777  0.3652
 1687W        W 5751   4.947   3.161   8.962  0.1430  0.2878  0.0424
 1688W        W 5752  10.309   1.371   1.192  0.1643 -0.1212  0.1411
 1689W        W 5753   7.828   9.185   0.879  0.0270 -0.1912 -0.2811
 1690W        W 5754   8.809   4.417   0.201  0.3217 -0.3411  0.3271
 1691W        W 5755   9.923   7.413   9.655  0.1118 -0.2744  0.2229
 1692W        W 5756   9.553   7.540   8.784  0.1395  0.3709  0.1798
 1693W        W 5757   5.911   1.957   0.164  0.0551 -0.1997 -0.0005
 1694W        W 5758   4.667   7.044  10.981  0.1891  0.0694 -0.0775
 1695W        W 5759   3.093   5.667   0.203 -0.0273 -0.2797  0.0061
 1696W        W 5760   9.171   7.851  10.432  0.3922 -0.0644 -0.0124
 1697W        W 5761   7.237   0.014   2.736 -0.3793 -0.1350  0.0173
 1698W        W 5762   3.255   9.397   1.776  0.1006  0.1266 -0.1180
 1699W        W 5763   5.194  10.717   0.371 -0.0335  0.2159  0.0067
 1700W        W 5764   4.657   7.833   1.215 -0.2152 -0.1697 -0.1642
 1701W        W 5765   4.198   3.988   9.689 -0.0647 -0.2809 -0.0926
 1702W        W 5766   0.368   6.029   3.393  0.2929 -0.1308  0.2255
 1703W        W 5767   3.584  10.180   1.769 -0.2694 -0.5228  0.0943
 1704W        W 5768   7.936   6.314   2.507 -0.3801  0.0749 -0.1183
 1705W        W 5769   5.614   8.870   7.679  0.0050 -0.1433  0.3346
 1706W        W 5770   8.502   0.394   1.623 -0.1596 -0.1786  0.0332
 1707W        W 5771   2.620   7.159  10.557  0.0512 -0.0255 -0.1160
 1708W        W 5772   7.691   9.617   1.772  0.2436 -0.0196  0.3767
 1709W        W 5773   0.775   0.193   8.740  0.0926  0.2699 -0.0411
 1710W        W 5774   0.327   7.518   1.869  0.0895  0.4453  0.0372
 1711W        W 5775   1.837   6.434   9.005  0.2020  0.0921 -0.0978
 1712W        W 5776   8.087   0.100   2.680 -0.0266 -0.2053 -0.0079
 1713W        W 5777   7.857   5.291  10.252  0.1267 -0.2885 -0.0884
 1714W        W 5778   6.949   3.970   3.064  0.3759  0.0745  0.2051
 1715W        W 5779   8.998   6.979  10.252 -0.1405 -0.1967  0.0317
 1716W        W 5780   7.166   5.347   8.247 -0.0591 -0.1399  0.0090
 1717W        W 5781   1.207   8.396   3.198 -0.1270 -0.0860 -0.1339
 1718W        W 5782   0.082   2.151  10.804 -0.0959 -0.0697 -0.3435
 1719W        W 5783   1.125   0.472   3.070  0.1515 -0.0708 -0.1072
 1720W        W 5784  10.312   5.280  10.184  0.4097 -0.2055  0.0612
 1721W        W 5785   6.740   4.399   1.638 -0.1367 -0.0477  0.1024
 1722W        W 5786   6.021   7.347   0.393  0.0308 -0.2972  0.1028
 1723W        W 5787   9.283   7.519   0.596 -0.2641  0.2317  0.0159
 1724W        W 5788   7.387   4.023   8.597  0.0559  0.1139 -0.1576
 1725W        W 5789   5.170   4.760   0.143  0.0907 -0.1023  0.0951
 1726W        W 5790   7.313   7.326  10.085  0.2522 -0.1594 -0.5370
 1727W        W 5791   5.837   7.691   8.708 -0.3560  0.1713  0.1375
 1728W        W 5792   0.685   0.148   3.106  0.0951  0.1275 -0.1716
 1729W        W 5793   3.594   7.454   8.096  0.0525 -0.0250  0.1195
 1730W        W 5794   6.323   2.645   0.624  0.1740 -0.0632  0.0478
 1731W        W 5795   7.250   1.851   7.547 -0.1271 -0.0994 -0.1222
 1732W        W 5796   9.780   4.814  10.656  0.1186 -0.1476  0.3407
 1733W        W 5797   2.877   1.240   6.968 -0.0633 -0.1572 -0.1273
 1734W        W 5798   6.868   0.764   2.670 -0.0707  0.1025  0.1948
 1735W        W 5799   0.409  10.052   9.927 -0.1738 -0.0848 -0.2534
 1736W        W 5800   8.631   5.912   1.864 -0.1121  0.2703  0.3043
 1737W        W 5801   0.335   9.548   8.806  0.0288  0.2728  0.1847
 1738W        W 5802  10.451   9.262  11.122 -0.1311  0.0259  0.1375
 1739W        W 5803  10.317   3.365   1.472 -0.1416 -0.1676 -0.1057
 1740W        W 5804   5.117  10.575   8.760 -0.1204  0.2559 -0.0965
 1741W        W 5805   5.289   7.591   7.759 -0.3404  0.3725  0.0191
 1742W        W 5806  10.236   5.892   3.036  0.1356 -0.0475  0.1717
 1743W        W 5807   0.344   2.232   8.541 -0.0575  0.2713  0.0981
 1744W        W 5808   8.419   1.305   1.644  0.1998  0.0600 -0.1688
 1745W        W 5809  10.152   5.693   9.866 -0.0006  0.1189  0.3525
 1746W        W 5810   2.754   3.488   0.603  0.1688 -0.2624 -0.3756
 1747W        W 5811  10.732   8.832   9.767 -0.1518 -0.2925 -0.2215
 1748W        W 5812   9.472   3.272   2.295  0.1084 -0.0011 -0.0722
 1749W        W 5813   8.595   2.682   0.769  0.1892 -0.0078  0.1351
 1750W        W 5814   3.156   7.428   0.857 -0.0092  0.2533 -0.0241
 1751W        W 5815   7.803   4.316   2.055  0.1137  0.1121 -0.0038
 1752W        W 5816  10.099   2.050   3.261  0.3382 -0.1870  0.2353
 1753W        W 5817   9.488   1.585   1.449 -0.1454 -0.2541 -0.0008
 1754W        W 5818   8.708   4.107   1.037 -0.1203  0.1287  0.0631
 1755W        W 5819   0.576   2.016   9.882  0.1224 -0.0760 -0.2445
 1756W        W 5820   1.273   8.941   1.556 -0.0572 -0.1736 -0.0356
 1757W        W 5821   9.786   5.892   2.787 -0.0242  0.4102  0.2807
 1758W        W 5822   4.532   5.344   1.858  0.0663  0.0473  0.1328
 1759W        W 5823   9.751   0.871   6.805 -0.1404 -0.0478 -0.1474
 1760W        W 5824   0.156   5.560   8.692  0.0938  0.0533 -0.0838
 1761W        W 5825   1.847   3.223   3.212 -0.0841  0.0266  0.0737
 1762W        W 5826  10.398   8.867   0.517  0.2675  0.5316  0.2272
 1763W        W 5827  10.622   9.728  10.105 -0.0076 -0.1380  0.0255
 1764W        W 5828   5.578   7.485   1.666  0.1855  0.2778 -0.0265
 1765W        W 5829   7.469   6.765   1.742 -0.0766 -0.0407  0.0758
 1766W        W 5830   4.605   6.564   1.276  0.4180 -0.1147 -0.0485
 1767W        W 5831   6.773   1.200   9.742 -0.1418  0.0922  0.0333
 1768W        W 5832   8.078  10.171   9.131  0.0227  0.0586  0.0972
 1769W        W 5833  10.196   4.172   2.351 -0.1192  0.2847  0.0290
 1770W        W 5834   5.874   0.639   7.622  0.0107 -0.1241  0.1195
 1771W        W 5835   5.759   3.811   9.680 -0.1401 -0.0345  0.3252
 1772W        W 5836   8.550   9.566  10.568 -0.1920  0.0103  0.0524
 1773W        W 5837   3.450   3.892   2.429  0.1739  0.0747  0.5547
 1774W        W 5838   8.498   9.072   9.611 -0.0960  0.0237 -0.1400
 1775W        W 5839   7.175   4.160   3.459 -0.0509 -0.1056 -0.1327
 1776W        W 5840   4.934   9.426   2.623  0.0071 -0.1143  0.0341
 1777W        W 5841   1.259   4.498   9.377 -0.2336  0.3659 -0.0701
 1778W        W 5842   0.996   0.288  10.382 -0.0372 -0.1975 -0.1634
 1779W        W 5843   4.706   7.922   7.590 -0.2697 -0.0490 -0.3193
 1780W        W 5844   4.933   0.205   2.726  0.0104  0.0335  0.2346
 1781W        W 5845   0.543   9.909  10.976  0.4160 -0.5160 -0.2675
 1782W        W 5846   4.552   0.286   1.236 -0.0838  0.1771  0.4425
 1783W        W 5847   0.610   6.629   0.068  0.2040  0.1556 -0.1576
 1784W        W 5848   9.780   6.101   9.897  0.1514  0.2805 -0.5194
 1785W        W 5849   4.784   0.700   7.721  0.1611  0.4249  0.3904
 1786W        W 5850   3.759   0.974   7.947  0.4382 -0.0549 -0.0270
 1787W        W 5851   5.876   7.555   7.936  0.0093  0.1009  0.1647
 1788W        W 5852   3.523   7.610   8.623 -0.3192 -0.4268  0.2190
 1789W        W 5853   5.282   3.869   0.881  0.0624  0.0145 -0.1711
 1790W        W 5854   0.841   9.625  11.266  0.2518  0.2391  0.0401
 1791W        W 5855   0.969   4.337  10.941  0.2050  0.0950  0.1537
 1792W        W 5856   8.469   6.219   1.142  0.0880 -0.2250 -0.0536
 1793W        W 5857   5.535   2.011   6.707  0.1343 -0.0534  0.1798
 1794W        W 5858   0.838   1.509   2.018 -0.1749  0.2260 -0.0074
 1795W        W 5859   8.409   9.397   0.226 -0.2396  0.0919  0.1817
 1796W        W 5860   1.612   5.632   2.073 -0.1204 -0.0559 -0.0731
 1797W        W 5861   5.841   3.096  10.385 -0.2755 -0.0828 -0.1400
 1798W        W 5862   6.078   9.221   0.077  0.2911  0.0157  0.0957
 1799W        W 5863   7.675   7.628  10.293  0.0138  0.0693  0.1034
 1800W        W 5864   7.764   1.719   7.633 -0.1520  0.0286 -0.3611
 1801W        W 5865   2.934   0.202   8.296  0.0709  0.0871  0.1458
 1802W        W 5866   5.620   2.265   1.690  0.2109 -0.0945 -0.3146
 1803W        W 5867   5.967   8.712   7.957  0.0417 -0.2261  0.0363
 1804W        W 5868  10.509  10.710   8.474  0.1142 -0.0896  0.1245
 1805W        W 5869   9.178   3.475   8.554  0.1917 -0.2182  0.0146
 1806W        W 5870   9.040   5.285   8.191 -0.0021  0.0726  0.0247
 1807W        W 5871   6.923   9.684   7.797  0.1598 -0.2399  0.0912
 1808W        W 5872   2.987   0.911   1.494  0.1960  0.1117 -0.0589
 1809W        W 5873   1.860   2.922   2.549  0.0032  0.0739  0.0636
 1810W        W 5874   9.555   6.029   3.710 -0.1776 -0.1816 -0.1376
 1811W        W 5875   6.366   1.447   7.692 -0.1328 -0.0056 -0.0269
 1812W        W 5876   3.646   0.669   9.939 -0.0454  0.3941 -0.0419
 1813W        W 5877   3.986   6.681   7.913  0.0811 -0.1303  0.2262
 1814W        W 5878   2.349   3.255  10.754 -0.0477 -0.2053  0.1965
 1815W        W 5879   6.027   3.026   2.817 -0.1498  0.0203 -0.1122
 1816W        W 5880   3.440   6.192   8.970  0.1501  0.1218 -0.2306
 1817W        W 5881   7.585   2.330   1.004  0.1933 -0.0611 -0.1191
 1818W        W 5882   5.681   8.589   2.466  0.1362 -0.0081  0.0528
 1819W        W 5883  10.666  10.245   1.818  0.1596  0.0872 -0.1001
 1820W        W 5884   5.455   3.642   0.409  0.1531  0.2417  0.0806
 1821W        W 5885   5.245   9.398   0.408 -0.1542  0.0434 -0.1700
 1822W        W 5886   0.818   5.821   8.976  0.0268 -0.2701  0.2358
 1823W        W 5887   6.293   1.620   0.486 -0.2171  0.0116  0.3862
 1824W        W 5888   5.615   9.412   8.452  0.1695  0.1697  0.0328
 1825W        W 5889   0.070   7.524   1.273  0.0695  0.0337  0.0430
 1826W        W 5890   3.746   7.094   0.560  0.3508 -0.2448 -0.6843
 1827W        W 5891   0.374   3.640   1.402  0.0334  0.0584  0.3330
 1828W        W 5892   0.678   0.216   1.823  0.1700 -0.0884 -0.3040
 1829W        W 5893   8.075   9.688   1.043  0.1879  0.2941  0.0591
 1830W        W 5894   8.218   4.895   9.710  0.0277 -0.0356  0.2037
 1831W        W 5895   7.754   2.396   9.190 -0.0440 -0.5018  0.2556
 1832W        W 5896   4.861   1.461  10.060 -0.1949  0.0514  0.0075
 1833W        W 5897   3.446   1.098   0.226  0.1120  0.1531 -0.2878
 1834W        W 5898   7.851   3.967   1.242  0.0972 -0.0780  0.0991
 1835W        W 5899   1.272   3.678   0.706  0.4276  0.1155  0.0337
 1836W        W 5900  10.690   2.377   8.845  0.0176  0.1523 -0.1441
 1837W        W 5901   3.638   9.633   2.040  0.0882 -0.1056 -0.0150
 1838W        W 5902   4.604   2.199  10.466 -0.3282 -0.1563  0.0341
 1839W        W 5903   5.935   8.343   9.856  0.1990  0.2205 -0.1520
 1840W        W 5904   5.698   3.077   7.287  0.0654 -0.1346 -0.2720
 1841W        W 5905   6.825   0.286   2.839 -0.3408 -0.1395 -0.0907
 1842W        W 5906   4.370   4.355   0.221 -0.0640 -0.1763  0.0124
 1843W        W 5907   5.384   3.129   0.362 -0.1469  0.1363 -0.1589
 1844W        W 5908   7.214   6.746   2.786  0.0055 -0.1475 -0.0937
 1845W        W 5909   6.500   7.352   9.901 -0.1060 -0.0923  0.1044
 1846W        W 5910   8.897   0.882   7.988 -0.1160  0.2007 -0.0496
 1847W        W 5911   6.092   2.789   9.044 -0.1142 -0.1421 -0.1170
 1848W        W 5912   1.110   3.501   3.158  0.1870 -0.1443  0.0126
 1849W        W 5913   4.776   2.226   8.147  0.1413  0.2959 -0.2618
 1850W        W 5914   4.030   5.035   8.612  0.0016  0.0273 -0.1233
 1851W        W 5915   3.860   4.426   7.980 -0.0019  0.1530 -0.0033
 1852W        W 5916   0.539   1.655   2.980  0.2516 -0.1432  0.0093
 1853W        W 5917   9.741   5.109   2.171  0.0515 -0.2279 -0.1573
 1854W        W 5918   4.234   3.660   2.241 -0.0258  0.0616 -0.2659
 1855W        W 5919   9.837   9.436   9.550 -0.4340 -0.0084 -0.0809
 1856W        W 5920   3.733   2.512  10.146 -0.1529 -0.0780 -0.1886
 1857W        W 5921   4.563   6.238   8.449  0.2764  0.0087  0.1126
 1858W        W 5922   9.936   1.328  10.617  0.0485 -0.0485  0.0446
 1859W        W 5923   6.379   6.395   9.903 -0.1915  0.3253  0.0768
 1860W        W 5924   4.524   9.824   8.872 -0.1019  0.2287 -0.3272
 1861W        W 5925   7.049   4.780   8.212 -0.4776  0.0542  0.0635
 1862W        W 5926   6.018   7.394   1.856  0.1522 -0.1856  0.1107
 1863W        W 5927   8.366   4.608   0.849 -0.2557 -0.0254 -0.1419
 1864W        W 5928   1.245   9.312  11.022 -0.2570  0.2988 -0.2309
 1865W        W 5929   1.570  10.169   1.658 -0.0348  0.0539  0.1011
 1866W        W 5930   4.814  10.078  10.768  0.0014 -0.0012  0.1973
 1867W        W 5931   9.683   0.947   8.427  0.0144  0.0646 -0.3144
 1868W        W 5932  10.306   5.691   8.530  0.4505 -0.2097  0.0161
 1869W        W 5933   4.247   8.415   1.952 -0.1952 -0.1975  0.1641
 1870W        W 5934   9.412   2.561   2.036 -0.0915  0.0841  0.0616
 1871W        W 5935   8.722   3.037   1.844  0.1560  0.0215 -0.1021
 1872W        W 5936   0.322   3.268   3.094  0.1573  0.1500 -0.1300
 1873W        W 5937   4.658   5.267   2.830  0.2063 -0.2205  0.1715
 1874W        W 5938   1.410   7.896  11.220 -0.1238  0.5261 -0.1107
 1875W        W 5939   9.282   6.140  10.217  0.0482  0.0955  0.0958
 1876W        W 5940   0.263   1.856   0.768  0.1096  0.0336 -0.0827
 1877W        W 5941   8.411   1.697   2.471 -0.0344 -0.0308 -0.0629
 1878W        W 5942  10.341   3.641   9.453 -0.0641  0.2071  0.3825
 1879W        W 5943   3.979   2.550   2.996 -0.0311 -0.0723 -0.0777
 1880W        W 5944   0.045   4.971   3.775  0.3024  0.2310  0.4421
 1881W        W 5945   7.809   8.797   9.393  0.0921 -0.0630 -0.0003
 1882W        W 5946   9.415   1.121   8.789  0.0612 -0.0014  0.1103
 1883W        W 5947   1.133   9.217  10.519 -0.1535 -0.0485 -0.3212
 1884W        W 5948   7.433   9.326   8.821 -0.0352 -0.2078 -0.4233
 1885W        W 5949   5.284   5.190   3.564 -0.4344  0.1221 -0.1423
 1886W        W 5950   3.231   8.082   8.307  0.0197 -0.0124  0.1896
 1887W        W 5951   4.680   3.892   2.223 -0.1149 -0.0524 -0.1401
 1888W        W 5952   7.282   1.842   2.043 -0.3775 -0.1811 -0.1687
 1889W        W 5953   9.900   9.782   1.525 -0.1967 -0.2279  0.0763
 1890W        W 5954   7.098   7.000   0.594  0.1441 -0.0318  0.0898
 1891W        W 5955   9.772   0.921  10.441 -0.0572  0.0773 -0.2155
 1892W        W 5956  10.454   5.604   1.444 -0.0491  0.0555 -0.3636
 1893W        W 5957   0.246   4.800   2.541  0.0551  0.2236 -0.4429
 1894W        W 5958   3.461  10.245   9.314 -0.0114 -0.2592 -0.1096
 1895W        W 5959   5.767   4.794   9.512 -0.2439  0.1558 -0.3612
 1896W        W 5960   2.707   0.818  11.219  0.1566  0.3909  0.0824
 1897W        W 5961  10.026   1.014   8.874 -0.1311 -0.0041  0.2291
 1898W        W 5962   9.218   6.160   8.310 -0.3655  0.3435 -0.0276
 1899W        W 5963   4.235   8.663   7.486  0.0282 -0.0832 -0.1293
 1900W        W 5964   8.621   9.347   8.474  0.1377  0.0711 -0.0312
 1901W        W 5965   6.028   1.402   2.204  0.1908  0.0328  0.2601
 1902W        W 5966   7.109  10.286   9.023  0.2365 -0.2939 -0.0682
 1903W        W 5967   4.673   6.976   1.668  0.4269  0.0039 -0.0062
 1904W        W 5968   6.426   6.422   0.724 -0.1547  0.1949 -0.3403
 1905W        W 5969   6.087   4.052   8.079 -0.1062 -0.1189  0.2348
 1906W        W 5970   9.713   4.636  11.207 -0.3249  0.1006  0.1259
 1907W        W 5971   8.553   2.638   0.121 -0.0015 -0.0741  0.1851
 1908W        W 5972   2.476   8.838   2.207  0.3140 -0.0311 -0.3419
 1909W        W 5973   0.256   1.044   8.678 -0.1327 -0.0034 -0.2848
 1910W        W 5974   4.805   7.012  10.233  0.2352 -0.1675  0.0268
 1911W        W 5975   3.516   4.373   9.086 -0.0098 -0.1525 -0.1224
 1912W        W 5976   6.479   2.987   7.376 -0.3203 -0.0171  0.2346
 1913W        W 5977   2.073  10.082   7.624 -0.0991 -0.1531 -0.0519
 1914W        W 5978   0.160   8.331   9.836 -0.3476 -0.1921  0.0268
 1915W        W 5979   4.618  10.550   6.754  0.2610 -0.0326  0.3211
 1916W        W 5980   9.571   7.445  10.292 -0.1876  0.0677 -0.0446
 1917W        W 5981   6.104   9.213   9.246 -0.1928 -0.0953 -0.0296
 1918W        W 5982   6.574   2.310   8.695 -0.0809 -0.2709  0.2393
 1919W        W 5983   4.403   2.093   1.867 -0.2151 -0.0625 -0.0244
 1920W        W 5984   3.135   3.265   0.053  0.1285  0.1213  0.0176
 1921W        W 5985   3.314   6.620  10.628 -0.1675 -0.0421  0.3813
 1922W        W 5986   5.491   0.369   1.625 -0.1651 -0.2428  0.2253
 1923W        W 5987   9.784   6.569   3.649  0.2028  0.2323  0.0710
 1924W        W 5988   9.251   9.575   8.440  0.1613 -0.1332 -0.1714
 1925W        W 5989   7.305   1.100   9.574 -0.0118 -0.0599  0.2176
 1926W        W 5990   3.598   2.488   0.166  0.2870  0.1821 -0.2767
 1927W        W 5991   7.715   6.140   8.104 -0.0523 -0.1020  0.0216
 1928W        W 5992   9.634   0.501  11.044 -0.1473 -0.0905  0.0062
 1929W        W 5993   0.760   8.667   3.222 -0.1922  0.2590 -0.2119
 1930W        W 5994   2.638   1.292   7.986  0.1528  0.0032  0.0028
 1931W        W 5995   3.479   4.837   1.774  0.6384  0.1376  0.0579
 1932W        W 5996   0.064   4.072  10.068  0.0849  0.1038  0.1541
 1933W        W 5997   3.098   5.154  10.522  0.2331 -0.1142  0.0929
 1934W        W 5998   8.367   7.660  10.925  0.0843 -0.1376 -0.1201
 1935W        W 5999   8.079   4.102   9.990  0.2547 -0.0874  0.0551
 1936W        W 6000   8.538   8.601   0.937 -0.1949  0.3074  0.3011
 1937W        W 6001   6.167   5.040   9.161 -0.0071 -0.4126  0.0780
 1938W        W 6002   8.898   5.834  10.414  0.2633 -0.3146  0.0221
 1939W        W 6003   5.118   3.251   9.998 -0.2193 -0.2349  0.0301
 1940W        W 6004   5.777   9.959   1.557  0.3799  0.2825  0.0903
 1941W        W 6005   6.963   7.908   7.159 -0.2443  0.2873  0.4396
 1942W        W 6006   1.519   8.123   1.787 -0.2327 -0.1053 -0.0602
 1943W        W 6007   0.290   6.052   0.359  0.2596  0.3500  0.0616
 1944W        W 6008   1.400   8.708   2.513  0.2419 -0.0539 -0.2657
 1945W        W 6009   1.797   3.319   3.736 -0.2232  0.1722  0.0367
 1946W        W 6010   8.677   7.336  11.378  0.0665 -0.2968  0.3115
 1947W        W 6011   4.478   8.787  10.036  0.0565 -0.0782 -0.1548
 1948W        W 6012   3.210   3.797   8.282 -0.1536  0.2152 -0.0947
 1949W        W 6013   1.327   4.671   8.472  0.2641  0.0828  0.0662
 1950W        W 6014   8.793   8.182   7.858  0.2351  0.0479  0.0334
 1951W        W 6015   9.605   7.028  10.532  0.0665 -0.1869  0.0067
 1952W        W 6016   8.100   3.704   0.099 -0.0047  0.1860  0.2282
 1953W        W 6017  10.515   0.831   8.722  0.0118  0.0620  0.0995
 1954W        W 6018   2.622   6.021   1.122 -0.4095  0.2568 -0.0391
 1955W        W 6019   4.477   3.267   0.522 -0.0559  0.2522 -0.3850
 1956W        W 6020   3.732   7.628  10.392 -0.3422 -0.0302 -0.4917
 1957W        W 6021   3.468   1.343   0.682 -0.1756  0.0626  0.2468
 1958W        W 6022   7.662   6.278   1.602  0.5461 -0.0256 -0.1953
 1959W        W 6023   0.607   0.508   0.399  0.2552 -0.2516  0.2404
 1960W        W 6024   5.009   1.635  10.573  0.3660 -0.0257  0.2307
 1961W        W 6025   0.387   5.127   1.615 -0.0634 -0.0768 -0.3244
 1962W        W 6026   2.676   5.260  10.924  0.1508  0.1630 -0.0361
 1963W        W 6027   6.243  10.008  11.245 -0.1164  0.1589  0.2274
 1964W        W 6028  10.074   5.734  10.387 -0.0533  0.0265 -0.4392
 1965W        W 6029  10.180   6.021   2.538 -0.3475 -0.4750 -0.0340
 1966W        W 6030   1.109   6.846   2.454 -0.0724  0.2496 -0.4337
 1967W        W 6031   1.966   8.834   2.201 -0.2636  0.2426  0.2164
 1968W        W 6032   2.634   9.948  10.995  0.1401 -0.2052 -0.0169
 1969W        W 6033   2.389   3.329   0.898  0.2594  0.2583 -0.1483
 1970W        W 6034   5.585   0.255   6.721 -0.3128  0.3307  0.0440
 1971W        W 6035   9.498   2.066   1.198 -0.0205  0.1025 -0.1607
 1972W        W 6036   8.723  10.217   6.630 -0.0348 -0.1147  0.1914
 1973W        W 6037  10.507   6.151  11.376  0.1930 -0.0597  0.2011
 1974W        W 6038   1.347   0.561  11.284  0.3581  0.2117 -0.4834
 1975W        W 6039   3.767   2.062   3.001 -0.1790  0.1586 -0.2115
 1976W        W 6040   1.566   7.085  10.173  0.1924 -0.4073 -0.0854
 1977W        W 6041   3.792   4.884   2.674 -0.1412 -0.1200 -0.0036
 1978W        W 6042   5.077   4.501   8.878  0.1205  0.2386 -0.1198
 1979W        W 6043   8.907   2.676   8.985 -0.0122  0.0373  0.2404
 1980W        W 6044   7.469   6.231   2.693  0.3286  0.0159 -0.1035
 1981W        W 6045   6.564   0.059   7.237 -0.2745 -0.0052 -0.1171
 1982W        W 6046   3.272   0.578   7.658 -0.2091  0.3125 -0.0734
 1983W        W 6047   3.128   7.754   1.246 -0.2946  0.1764  0.2170
 1984W        W 6048   1.624   1.054  11.378  0.2240  0.2113 -0.1970
 1985W        W 6049   5.833   2.122   1.164  0.2318  0.0198 -0.0554
 1986W        W 6050   9.842   4.104   2.722  0.2097  0.0025 -0.2917
 1987W        W 6051   2.851   9.433   1.467  0.4529 -0.1871 -0.0558
 1988W        W 6052   7.137   1.001   3.020  0.1413  0.0934 -0.1133
 1989W        W 6053   3.957   2.482  10.624  0.0846 -0.2473 -0.0833
 1990W        W 6054   2.962   8.615   2.443  0.0125  0.0209  0.0088
 1991W        W 6055   9.661   0.600   8.831 -0.0499  0.0367  0.0155
 1992W        W 6056   6.815   0.230   8.963  0.0921 -0.1535 -0.0425
 1993W        W 6057   2.793   7.603   9.717 -0.2201 -0.0721 -0.1612
 1994W        W 6058   6.065   9.231   6.962 -0.2374 -0.3422  0.1573
 1995W        W 6059  10.426   5.090   9.332  0.2124 -0.1794  0.0807
 1996W        W 6060   5.507   2.561   2.159  0.0525 -0.1582  0.2800
 1997W        W 6061  10.211   6.033  10.962 -0.1784  0.2792  0.1717
 1998W        W 6062   9.791   1.821  10.925 -0.2249  0.0352 -0.1960
 1999W        W 6063   8.074   8.091  10.767 -0.1666 -0.2663 -0.1151
 2000W        W 6064   0.856   7.715   1.115  0.0065  0.0500  0.0446
 2001W        W 6065   5.719   0.519   1.104 -0.0162  0.1185 -0.0121
 2002W        W 6066   1.006   4.444  10.463 -0.0908 -0.0823  0.0005
 2003W        W 6067   9.097   1.764   1.733  0.0661 -0.2901 -0.0014
 2004W        W 6068   0.477   1.416  11.155 -0.1384  0.1488 -0.3786
 2005W        W 6069   6.822   6.281   3.878  0.1307  0.1137 -0.1699
 2006W        W 6070   9.781   9.345   7.549 -0.1679  0.2085 -0.1272
 2007W        W 6071   9.257   3.751  11.001 -0.1907  0.3559  0.0345
 2008W        W 6072   0.595   5.436   1.911 -0.0324 -0.0231  0.1092
 2009W        W 6073   6.661   1.597   8.093 -0.2476 -0.3289 -0.3807
 2010W        W 6074   2.041   4.308   0.113  0.1025  0.0903  0.0858
 2011W        W 6075   1.317   8.997   2.117 -0.1835  0.3739 -0.0318
 2012W        W 6076   1.529   9.727   1.370 -0.0437  0.2427 -0.2470
 2013W        W 6077   9.914  10.379   8.969 -0.0275  0.0630 -0.0904
 2014W        W 6078   0.750   6.868  10.438 -0.1431  0.0720 -0.3179
 2015W        W 6079   8.874   7.178   2.852  0.1343  0.0661  0.4473
 2016W        W 6080   9.014   7.675   7.808  0.1014  0.2970 -0.2992
 2017W        W 6081   5.687   1.173   1.917 -0.4914  0.0699 -0.0270
 2018W        W 6082   4.856   3.997   9.122  0.0999 -0.2645 -0.2010
 2019W        W 6083  10.473   3.930   8.449  0.0920 -0.2023  0.1259
 2020W        W 6084   5.980   3.749  10.643  0.1928 -0.0003  0.3161
 2021W        W 6085   1.131   4.331  11.393  0.0273  0.1817 -0.2224
 2022W        W 6086   6.032   0.504   2.375 -0.0061 -0.0551 -0.1439
 2023W        W 6087   4.178   9.997   6.709 -0.2196 -0.1616 -0.1235
 2024W        W 6088   2.650   8.182  10.712  0.1145  0.1436 -0.2934
 2025W        W 6089   3.431   8.327   9.290 -0.0074  0.1084 -0.2478
 2026W        W 6090   3.420   3.411   1.170  0.2186  0.0719  0.1529
 2027W        W 6091   3.109   4.186   2.302  0.0127  0.1704  0.1402
 2028W        W 6092  10.012   1.814   9.291 -0.0681 -0.0746  0.1623
 2029W        W 6093   8.823   7.023   0.984 -0.0626  0.0343  0.0467
 2030W        W 6094   8.163   4.413   0.400  0.0597 -0.1663 -0.0595
 2031W        W 6095   9.302   9.038   7.581  0.4437  0.1855  0.1358
 2032W        W 6096   0.808   1.075  10.255 -0.2398 -0.1041  0.2621
 2033W        W 6097   6.958   3.191   1.732  0.0423  0.1578 -0.2686
 2034W        W 6098   1.320   1.396   9.258 -0.3828  0.0057 -0.0036
 2035W        W 6099   9.078   6.846   1.989 -0.0547 -0.3898  0.0313
 2036W        W 6100   5.802   5.787   9.813 -0.1085  0.1741 -0.0718
 2037W        W 6101   6.653   9.984   2.684 -0.1164 -0.1952  0.1196
 2038W        W 6102   6.510   6.113  10.350 -0.3224 -0.3348 -0.2305
 2039W        W 6103   3.650   5.489  11.134 -0.1435 -0.2024 -0.0684
 2040W        W 6104   5.662   6.728   2.028  0.0237 -0.1584 -0.0151
 2041W        W 6105  10.123   5.592   9.369  0.1243 -0.0167 -0.0278
 2042W        W 6106   3.523  10.305   9.813 -0.1737  0.0191 -0.1176
 2043W        W 6107   1.485   4.020   9.298  0.0596 -0.0653  0.1833
 2044W        W 6108   4.375  10.378   3.230 -0.2410 -0.4501  0.1473
 2045W        W 6109   4.823   8.917   2.639 -0.1650  0.1983  0.0521
 2046W        W 6110   5.562   1.042   8.023 -0.0017  0.1211 -0.3766
 2047W        W 6111   1.941   7.402   0.341  0.3540 -0.0589 -0.3957
 2048W        W 6112   4.209   2.190   1.379 -0.2879  0.3240 -0.1887
 2049W        W 6113   5.871   4.370  11.218 -0.1457  0.1095  0.0853
 2050W        W 6114   7.303   0.901   1.261 -0.0515  0.0577 -0.1811
 2051W        W 6115   8.313  10.631   8.985 -0.4836  0.1131  0.2379
 2052W        W 6116   7.670   2.529   7.086  0.0708  0.0502 -0.1255
 2053W        W 6117  10.045   2.795   2.752  0.1756  0.0560 -0.0415
 2054W        W 6118   6.691   2.824   9.947  0.0253  0.1373 -0.0821
 2055W        W 6119   0.832   2.167   0.562  0.0889 -0.0102 -0.0228
 2056W        W 6120   5.631   2.375   0.118 -0.0607 -0.0336  0.0056
 2057W        W 6121   5.543   0.741  10.168 -0.0020 -0.4624  0.3151
 2058W        W 6122   1.041   0.411   2.156 -0.0645 -0.0346 -0.1973
 2059W        W 6123  10.629   4.980   3.225  0.0453 -0.0312  0.1744
 2060W        W 6124   3.382   4.015   1.894  0.6510  0.1817  0.1148
 2061W        W 6125   3.832  10.086   1.250 -0.2105 -0.0463  0.3286
 2062W        W 6126   9.711   1.549   8.496  0.1083  0.2860  0.0133
 2063W        W 6127   5.202   8.990   0.818 -0.1348 -0.1558  0.0703
 2064W        W 6128   2.584   7.355   2.272 -0.2032 -0.0970 -0.1073
 2065W        W 6129   0.551   2.190   1.618  0.4058  0.0964  0.1792
 2066W        W 6130   9.927   8.699   1.492 -0.1474  0.4173 -0.0785
 2067W        W 6131   8.526   3.720   8.141  0.2484  0.1782  0.4680
 2068W        W 6132   7.935   8.423   2.317 -0.4249 -0.0423 -0.3180
 2069W        W 6133   9.009   4.971  10.339 -0.0133  0.1830  0.0339
 2070W        W 6134   7.424   7.302   0.856 -0.0701  0.0123  0.1575
 2071W        W 6135   8.520   8.079   8.331  0.5535 -0.1209  0.0487
 2072W        W 6136   6.877   7.189   2.929 -0.0176  0.0230  0.1878
 2073W        W 6137   0.520   8.763  10.692  0.0279  0.1303  0.3011
 2074W        W 6138   2.191   8.790   7.090 -0.0861  0.0324  0.1591
 2075W        W 6139   1.822   8.188   2.705 -0.0170 -0.2560  0.3699
 2076W        W 6140  10.244   8.554   9.760  0.2579 -0.3722 -0.0870
 2077W        W 6141   1.373   3.617   0.144 -0.0497 -0.0483 -0.0863
 2078W        W 6142   8.135   0.234  10.752  0.1850  0.1454 -0.1700
 2079W        W 6143   9.995   8.235   0.148 -0.1790  0.0703  0.3657
 2080W        W 6144   8.064   4.609   7.868  0.0851  0.1683  0.0923
 2081W        W 6145   4.462   0.508  10.996  0.3057 -0.0421 -0.0202
 2082W        W 6146   9.691   3.444  10.986  0.1169 -0.2283  0.0257
 2083W        W 6147   4.100   5.117  11.020  0.1013  0.0169 -0.0205
 2084W        W 6148   2.299   2.288   1.037  0.3308  0.1764 -0.3824
 2085W        W 6149   1.520   4.772   1.937 -0.2902  0.2378 -0.2609
 2086W        W 6150   4.997   4.318   0.041 -0.1744 -0.2399 -0.1231
 2087W        W 6151  10.218   8.210   9.070 -0.0575 -0.0018 -0.1886
 2088W        W 6152  10.071   6.973  11.058  0.0704 -0.1216  0.5140
 2089W        W 6153   0.873   1.632  10.122 -0.0174  0.1191 -0.1730
 2090W        W 6154   2.778   8.135   0.935  0.0598 -0.2218  0.0937
 2091W        W 6155   6.592   9.759   7.456  0.2534 -0.0230  0.0557
 2092W        W 6156   1.992   8.079  11.335  0.4140 -0.0483  0.0519
 2093W        W 6157   7.818  10.418   3.290  0.2901  0.4850  0.0357
 2094W        W 6158   3.386   8.245   7.467 -0.2058 -0.2112 -0.1615
 2095W        W 6159   6.533   7.826   8.841 -0.1986  0.0457  0.1162
 2096W        W 6160   9.606  10.175   9.547 -0.2297  0.4175 -0.1053
 2097W        W 6161   4.721   9.966   2.499 -0.0632  0.1926  0.2020
 2098W        W 6162   6.741   6.204   7.996 -0.1722  0.2284  0.0739
 2099W        W 6163   7.864   4.992  10.851  0.2020  0.2185 -0.1270
 2100W        W 6164   3.661   0.657   0.253  0.0269 -0.0232  0.0124
 2101W        W 6165  10.650   2.916   2.845  0.0968 -0.1773 -0.1505
 2102W        W 6166  10.482   0.545   9.168  0.0284 -0.0466 -0.1099
 2103W        W 6167   9.718   4.630   1.751  0.3349 -0.2595  0.1506
 2104W        W 6168   1.330   0.405   3.623 -0.2985 -0.0511 -0.1248
 2105W        W 6169  10.161  10.641   2.625 -0.0153  0.3336  0.3959
 2106W        W 6170   4.331   8.277   7.770  0.4177 -0.0123  0.1685
 2107W        W 6171   6.526   1.640  10.095 -0.1091  0.1193  0.0427
 2108W        W 6172   3.580   2.717   1.633  0.0301 -0.6215 -0.1640
 2109W        W 6173   8.699   9.842  10.141 -0.3625  0.1284  0.1166
 2110W        W 6174  10.618   5.697  10.168 -0.1193  0.3727 -0.2259
 2111W        W 6175   2.807   0.202   9.302  0.2974 -0.3430 -0.3426
 2112W        W 6176   5.352   4.896   8.721 -0.2083  0.0329  0.1589
 2113W        W 6177   4.771   6.089  11.388  0.0318  0.2648  0.2189
 2114W        W 6178   2.421   5.429   2.731 -0.2205 -0.0593  0.1152
 2115W        W 6179  10.019   4.257   0.107 -0.0103  0.2905 -0.1518
 2116W        W 6180   5.923   3.689   6.881 -0.1648  0.0068 -0.0871
 2117W        W 6181   1.060   5.427   3.643 -0.3204 -0.3397  0.1388
 2118W        W 6182   2.676   5.635   9.183 -0.0965 -0.2321 -0.0538
 2119W        W 6183   2.728   4.667   2.597  0.0776 -0.1705  0.2697
 2120W        W 6184   0.605   4.287   0.230  0.0919  0.1081  0.2076
 2121W        W 6185   8.058   1.525   9.605 -0.0927  0.2144  0.0211
 2122W        W 6186   7.190   5.246   0.684  0.1169 -0.1316  0.1172
 2123W        W 6187   2.554   1.555   2.709 -0.1306 -0.0295  0.1171
 2124W        W 6188   0.261   4.128   1.463  0.0116  0.2588 -0.1383
 2125W        W 6189   5.248  10.671  11.275 -0.3086  0.5040  0.0945
 2126W        W 6190   6.003   9.577   7.421 -0.0355  0.1874 -0.0960
 2127W        W 6191   5.936   9.521   0.713 -0.4681 -0.4430  0.1023
 2128W        W 6192  10.707   1.421   0.788  0.0167  0.0003 -0.1200
 2129W        W 6193   0.103   4.120   9.522 -0.1535 -0.1209  0.0638
 2130W        W 6194   5.001   2.133  10.800  0.2494 -0.1006 -0.1157
 2131W        W 6195   1.559  10.194   7.461  0.1051 -0.1856 -0.2144
 2132W        W 6196  10.453   9.904   9.060  0.0760 -0.2492 -0.0998
 2133W        W 6197   4.907   6.606   0.020 -0.3702 -0.0366 -0.2755
 2134W        W 6198   5.423   7.246   1.212  0.1717 -0.3080  0.1134
 2135W        W 6199   5.191   0.439   7.373 -0.0554 -0.0784 -0.1247
 2136W        W 6200   9.268   2.329   8.295 -0.1140 -0.0210 -0.1506
 2137W        W 6201   9.402   7.515   2.705  0.2249 -0.0364 -0.2753
 2138W        W 6202   4.904   4.807   9.467  0.1782  0.0211 -0.2683
 2139W        W 6203   5.049  10.288   7.039  0.2469  0.3066 -0.3161
 2140W        W 6204   9.285   8.347   1.323  0.0296 -0.0357  0.2537
 2141W        W 6205   9.804   9.365   3.059  0.1238  0.0577  0.1999
 2142W        W 6206   2.356   4.232  10.732  0.0169  0.2536  0.1174
 2143W        W 6207   4.729   9.808   7.899  0.1614  0.3022  0.1520
 2144W        W 6208   8.062   8.508   3.708  0.0271  0.1493  0.1533
 2145W        W 6209   2.179   1.946   8.778 -0.1867  0.0656 -0.3452
 2146W        W 6210   2.924   1.838   9.663 -0.1735 -0.1466 -0.1673
 2147W        W 6211   2.275   0.154   9.559 -0.1953 -0.0719  0.0314
 2148W        W 6212   8.691   0.639   2.100  0.0464 -0.3200  0.5116
 2149W        W 6213   3.122   9.541   9.606  0.2433 -0.2174  0.0750
 2150W        W 6214   5.663   2.279   3.065 -0.3044  0.0050 -0.4951
 2151W        W 6215   6.408  10.172   8.507 -0.0037  0.0809 -0.1840
 2152W        W 6216   8.087   5.050   8.067  0.0907  0.0774 -0.2133
 2153W        W 6217   1.603   0.463   7.699  0.3824  0.1917  0.2487
 2154W        W 6218   0.364  10.533   1.749 -0.0893 -0.0689  0.0323
 2155W        W 6219   9.118   8.081   9.495  0.0319  0.0318  0.0022
 2156W        W 6220   8.238   9.012   8.574  0.1265 -0.1533  0.0153
 2157W        W 6221   8.728   7.968  10.006 -0.2664  0.1772 -0.0280
 2158W        W 6222   7.528   1.261   0.100 -0.1599  0.0837 -0.2421
 2159W        W 6223   5.653   0.666   1.989 -0.1172  0.0960 -0.1721
 2160W        W 6224   7.568   8.068   7.886 -0.1388 -0.1602  0.0260
 2161W        W 6225   2.225   3.338  11.217 -0.4919  0.1215 -0.2844
 2162W        W 6226   0.253   6.495   2.910  0.1696 -0.0242  0.0034
 2163W        W 6227   8.879   4.882   2.001 -0.0524 -0.0320 -0.2777
 2164W        W 6228   1.741   1.599   1.603 -0.0183  0.0569 -0.1796
 2165W        W 6229   0.715   0.365   7.871 -0.2064  0.2811  0.1604
 2166W        W 6230   7.356   5.133   7.308 -0.3497  0.0238  0.4616
 2167W        W 6231   8.424   4.129   8.582 -0.1706  0.0069  0.1717
 2168W        W 6232   2.557   9.643   6.885  0.0926 -0.1017  0.0213
 2169W        W 6233  10.576   7.822   3.883 -0.1391 -0.0231 -0.3316
 2170W        W 6234   3.913   4.068   2.332  0.0237  0.2161 -0.1941
 2171W        W 6235   0.289   6.093  10.160  0.0426  0.0902 -0.1550
 2172W        W 6236   5.769   6.300   1.855 -0.2689 -0.0647  0.1312
 2173W        W 6237   5.093   6.058   8.614  0.1903  0.0968 -0.0289
 2174W        W 6238   0.975   5.920   2.272  0.0446 -0.2811  0.0230
 2175W        W 6239   3.660   6.658   9.049 -0.1380 -0.0200 -0.2187
 2176W        W 6240   0.917   5.249   1.543 -0.2286 -0.3211 -0.3829
 2177W        W 6241  10.199   6.874   0.841 -0.0790  0.4654 -0.1887
 2178W        W 6242   1.848   1.537   7.042  0.0170  0.2509 -0.1274
 2179W        W 6243   7.261   8.016   1.871 -0.2214 -0.0818 -0.2047
 2180W        W 6244   3.689   4.706   9.761  0.0621 -0.0110  0.0527
 2181W        W 6245   2.052   4.353  10.030 -0.1339  0.1049  0.2099
 2182W        W 6246   7.511   9.062   0.532  0.3028  0.3571 -0.0194
 2183W        W 6247   3.570   9.822   9.750  0.0102 -0.2635 -0.2858
 2184W        W 6248   7.544   0.012   9.520  0.0234 -0.0780 -0.0307
 2185W        W 6249   8.898   2.902   9.526  0.1626  0.0098 -0.0159
 2186W        W 6250   2.827   9.842   6.450 -0.2708 -0.1751  0.1146
 2187W        W 6251   3.281   3.656  10.697 -0.2063  0.2307  0.0954
 2188W        W 6252   7.853   9.418   8.546  0.1457  0.1913 -0.0886
 2189W        W 6253   8.634   1.783   1.432  0.3371  0.3915  0.3077
 2190W        W 6254   2.733   7.918   8.544  0.1981 -0.1923  0.0050
 2191W        W 6255   5.523   8.252   0.380 -0.0232 -0.0386  0.1609
 2192W        W 6256  10.310   9.163   9.369  0.1687  0.2880  0.1003
 2193W        W 6257   9.390   7.237   1.963  0.2369 -0.1157  0.0727
 2194W        W 6258   4.854  10.256   9.808  0.0853  0.1261 -0.0528
 2195W        W 6259   6.076   6.238   3.249 -0.1681 -0.0788  0.1787
 2196W        W 6260   4.650   1.568   1.921 -0.0562 -0.1616  0.0638
 2197W        W 6261   7.027   1.364   8.296  0.0550  0.0814  0.0779
 2198W        W 6262   7.170   0.532   1.570 -0.2207 -0.0884  0.2774
 2199W        W 6263   9.107   3.131   3.175 -0.0230  0.0304 -0.1030
 2200W        W 6264   8.172  10.528   7.387 -0.0977  0.0389 -0.4394
 2201W        W 6265   4.411   8.879   2.213 -0.0223 -0.1920  0.0345
 2202W        W 6266   3.537   9.405   3.493  0.1667  0.1361 -0.2224
 2203W        W 6267   4.431   6.203   2.427  0.2275  0.3419  0.0084
 2204W        W 6268   4.351   8.294   0.417  0.1221 -0.0909 -0.0151
 2205W        W 6269   9.860   0.431  10.622 -0.0103  0.0867 -0.1401
 2206W        W 6270   5.413   7.123   7.965 -0.2544 -0.1218 -0.1544
 2207W        W 6271   0.909   8.126   1.467 -0.0519 -0.0497  0.1175
 2208W        W 6272   4.807  10.278   8.481  0.2258 -0.1101  0.1439
 2209W        W 6273   6.817   1.910   7.134 -0.3028 -0.1306 -0.0841
 2210W        W 6274   5.255   7.944   2.853 -0.0253  0.1865  0.1539
 2211W        W 6275   2.928   8.873  10.346 -0.1527  0.0619 -0.1561
 2212W        W 6276   8.348   1.571   1.080 -0.1935  0.1586 -0.0937
 2213W        W 6277   4.219   5.446   9.506  0.2558 -0.2452  0.2666
 2214W        W 6278   0.930   3.496   4.069  0.1251  0.1861 -0.0730
 2215W        W 6279   5.312   5.987   2.952 -0.0466  0.1779 -0.1877
 2216W        W 6280   0.442   0.683   1.809 -0.2673  0.2570  0.1568
 2217W        W 6281   7.869   6.945  10.966 -0.0734 -0.0861  0.1240
 2218W        W 6282   3.855   8.219   9.750  0.1391  0.0553  0.3332
 2219W        W 6283   8.720   5.108   7.402 -0.2393  0.1786  0.0638
 2220W        W 6284   5.201   7.930  10.896  0.0913 -0.2359 -0.2797
 2221W        W 6285   7.757   0.311   2.359  0.0471 -0.4208 -0.0135
 2222W        W 6286   2.351   6.178   3.092  0.1217 -0.1956  0.2708
 2223W        W 6287   2.343   3.840   2.819 -0.1073  0.1116 -0.3383
 2224W        W 6288   6.225   4.583   1.488  0.1704 -0.1207 -0.0362
 2225W        W 6289   9.430   4.208   2.468 -0.2179 -0.0452 -0.1019
 2226W        W 6290   3.166   0.209   2.665  0.1615 -0.2468  0.1119
 2227W        W 6291   1.448   3.967   2.339  0.0159 -0.0110 -0.0639
 2228W        W 6292   1.243   4.079   1.513 -0.1095 -0.0557 -0.0392
 2229W        W 6293   0.939   6.325   2.615  0.1268 -0.5279 -0.0716
 2230W        W 6294  10.662   7.414   9.184  0.2465 -0.1167 -0.2341
 2231W        W 6295   3.278   2.073   1.089  0.0778 -0.2877  0.3340
 2232W        W 6296   8.927   8.168  10.965 -0.0299 -0.1425  0.2254
 2233W        W 6297   3.941   4.715  10.760 -0.0172 -0.0706 -0.1022
 2234W        W 6298   9.858   9.551   3.484 -0.5023 -0.0225 -0.2126
 2235W        W 6299   5.061   1.683   1.721 -0.0103 -0.4361 -0.2385
 2236W        W 6300   0.718   2.427  10.551  0.0563  0.0169 -0.0025
 2237W        W 6301   2.333   8.986   2.814 -0.0945  0.0296 -0.0360
 2238W        W 6302   4.612   2.622   8.544 -0.1226 -0.0030  0.1442
 2239W        W 6303   4.191   1.946   0.177 -0.0128  0.0151 -0.1685
 2240W        W 6304   7.994   7.541   2.467  0.0235  0.1316 -0.4372
 2241W        W 6305   6.069   9.720   8.467 -0.0464 -0.0897  0.0991
 2242W        W 6306   9.973   5.181   1.327  0.0131  0.2844  0.3628
 2243W        W 6307   3.737   0.171   2.582  0.0924  0.1660  0.0789
 2244W        W 6308   8.946   3.990  10.447  0.3040  0.1812  0.2223
 2245W        W 6309   4.786   6.784   0.472  0.1922  0.0502 -0.0653
 2246W        W 6310   4.882   4.595   7.806 -0.0204  0.2254 -0.0909
 2247W        W 6311   4.057   9.990   9.900 -0.3646  0.1694  0.0699
 2248W        W 6312   6.151   6.051   8.702 -0.0885 -0.1530  0.2475
 2249W        W 6313   6.619   3.666   9.537 -0.0326 -0.1375 -0.1898
 2250W        W 6314   4.814   6.096   2.095  0.1334  0.1200 -0.2532
 2251W        W 6315   3.195   0.577   8.146 -0.1809 -0.3667  0.4142
 2252W        W 6316  10.476   5.228   0.199 -0.2616 -0.2880  0.1006
 2253W        W 6317   0.832   8.345  10.774  0.4363 -0.1516  0.4383
 2254W        W 6318   0.377   8.429   2.733  0.1787  0.0325  0.2699
 2255W        W 6319   5.753   7.690   2.744 -0.1658  0.1798 -0.0490
 2256W        W 6320   0.065   1.383   7.446  0.1390 -0.0768  0.3035
 2257W        W 6321   9.422   1.953  11.315 -0.0943 -0.1505  0.3993
 2258W        W 6322   0.199  10.034   0.547 -0.1942  0.0198  0.0310
 2259W        W 6323   5.281   0.590   7.943  0.1284 -0.0185  0.0378
 2260W        W 6324   6.324   8.267  11.171 -0.0933 -0.3562  0.0265
 2261W        W 6325   0.585   0.545   1.316 -0.0926 -0.0078 -0.0094
 2262W        W 6326   2.888   9.949   8.150 -0.0294  0.1207  0.3006
 2263W        W 6327   3.401   6.577  10.044 -0.1857  0.1865 -0.2907
 2264W        W 6328   9.355   8.813   8.333  0.0899  0.4644 -0.1310
 2265W        W 6329   8.924   4.309   3.712 -0.0809  0.0896  0.0827
 2266W        W 6330   8.869   0.270  10.617 -0.2552  0.1712 -0.3697
 2267W        W 6331   4.557   1.776   9.390  0.1365 -0.1343 -0.1174
 2268W        W 6332   7.166   8.979   0.136 -0.2382  0.1714  0.1143
 2269W        W 6333   7.945   8.291   9.508 -0.0068  0.1505  0.1881
 2270W        W 6334   0.814  10.535   9.670 -0.0705  0.1896  0.0870
 2271W        W 6335   8.177   1.148   1.237  0.1853 -0.0097  0.3280
 2272W        W 6336   1.657   4.035  11.275 -0.2152  0.1269  0.0146
 2273W        W 6337   6.513   4.073   9.015  0.2583 -0.0382  0.2021
 2274W        W 6338   3.904   8.917   9.701 -0.3135 -0.1314 -0.0283
 2275W        W 6339   9.774   3.278   8.103  0.0607 -0.1691  0.1471
 2276W        W 6340   7.693   1.291   9.918 -0.1586 -0.0880 -0.1987
 2277W        W 6341   5.361   7.562   2.455  0.2223 -0.0743 -0.1388
 2278W        W 6342   4.302   1.049  11.084  0.2245 -0.0352 -0.2602
 2279W        W 6343   0.200   5.647  10.560 -0.1501 -0.1975  0.1298
 2280W        W 6344   0.613   9.639   1.443  0.3018 -0.1331 -0.1534
 2281W        W 6345   3.747   3.862   2.795  0.0888  0.1196 -0.1765
 2282W        W 6346   1.971   3.798   0.269  0.1018 -0.1047 -0.3453
 2283W        W 6347   3.169   2.946   9.041  0.3543  0.0319  0.3341
 2284W        W 6348   0.236   0.813   0.563  0.1825  0.0812 -0.1731
 2285W        W 6349   7.467   7.991   0.351 -0.0604 -0.1193 -0.0587
 2286W        W 6350   5.203   2.886   2.404  0.1309 -0.0373 -0.0766
 2287W        W 6351   0.776   9.146  10.935  0.1090 -0.0170  0.2898
 2288W        W 6352   4.755   0.894  10.996 -0.1791  0.1833  0.0187
 2289W        W 6353  10.453   8.422   0.887  0.2816 -0.1659  0.0542
 2290W        W 6354   9.200   6.191   2.808  0.1160  0.0642 -0.0788
 2291W        W 6355   8.776   0.655   2.960 -0.1446 -0.0489 -0.3357
 2292W        W 6356   9.500   8.067   7.096 -0.1172 -0.2817 -0.2758
 2293W        W 6357   1.110   1.264   7.614  0.0211 -0.1959  0.0728
 2294W        W 6358   8.763   5.296   9.785 -0.0309  0.0113 -0.3352
 2295W        W 6359   1.264   9.512   9.720  0.3185  0.2921 -0.4990
 2296W        W 6360   0.933   6.759  10.922  0.1187  0.0909  0.2445
 2297W        W 6361   6.538   7.626   7.991  0.0456 -0.2490 -0.2595
 2298W        W 6362   3.455   6.510   8.454 -0.0853 -0.1807 -0.3600
 2299W        W 6363   6.739   0.580   7.401  0.1950 -0.1800  0.1060
 2300W        W 6364   9.385   8.503   0.408 -0.1616 -0.4475 -0.0820
 2301W        W 6365   7.343   1.779   0.202 -0.1319  0.2484 -0.0168
 2302W        W 6366   7.863   1.605  10.335 -0.0139 -0.1888 -0.0601
 2303W        W 6367   0.753   4.708   9.453  0.0165 -0.1251  0.0233
 2304W        W 6368   7.828   6.553   0.210  0.0597  0.0747 -0.3025
 2305W        W 6369   4.299   0.195   6.961 -0.1350  0.0831 -0.0768
 2306W        W 6370   5.266   0.105   9.579  0.0721  0.0018  0.1061
 2307W        W 6371   2.508   8.164   1.744  0.0048 -0.2300  0.1360
 2308W        W 6372  10.652   1.498   9.849  0.1510  0.1564 -0.3017
 2309W        W 6373   6.907   7.053   1.662  0.0918 -0.3054 -0.1431
 2310W        W 6374   2.232   5.079   2.458  0.0402  0.1347  0.2195
 2311W        W 6375   2.076   2.762   9.945  0.4134  0.0771  0.0997
 2312W        W 6376   0.900   7.234  10.813 -0.0209 -0.0128 -0.1489
 2313W        W 6377   2.219   4.459   8.893 -0.1914 -0.2614 -0.0352
 2314W        W 6378   5.558   2.890  10.018  0.0601 -0.0319 -0.1859
 2315W        W 6379   2.452   0.795   9.427  0.2435 -0.1189 -0.0506
 2316W        W 6380   8.021   2.076   9.774  0.1379  0.1242  0.2612
 2317W        W 6381   6.156   7.295   8.428 -0.2747  0.0790  0.0461
 2318W        W 6382   6.009   5.453   1.690 -0.1425 -0.0019 -0.0587
 2319W        W 6383   5.312   3.695   9.927 -0.0500 -0.1887 -0.3269
 2320W        W 6384   9.228   0.553   7.540 -0.0530  0.1577 -0.3895
 2321W        W 6385   6.253   7.120  10.988 -0.1296 -0.2361 -0.2317
 2322W        W 6386   6.919   3.980   0.357  0.1513  0.0126 -0.0584
 2323W        W 6387   3.219  10.186   6.613  0.1349  0.0817 -0.2685
 2324W        W 6388   8.152   9.869   3.179 -0.3240  0.1588  0.2428
 2325W        W 6389   7.295   4.931   9.868  0.1334  0.3410 -0.1669
 2326W        W 6390   3.101   7.969   9.821 -0.2112  0.3447 -0.3702
 2327W        W 6391   3.394   1.159   7.649  0.1535 -0.1362  0.3539
 2328W        W 6392  10.470   3.244   8.522  0.1188 -0.0059 -0.0821
 2329W        W 6393   5.151   1.242   1.826 -0.0580 -0.2964 -0.0001
 2330W        W 6394   5.083   5.746   9.121  0.3802 -0.0492  0.2022
 2331W        W 6395   8.036   4.479  11.230  0.1504 -0.0539  0.0335
 2332W        W 6396   0.781   7.210   7.432 -0.0016 -0.1912  0.0602
 2333W        W 6397   1.340   9.558   0.176 -0.2308 -0.4820  0.1281
 2334W        W 6398   0.322   8.302   1.511  0.1610  0.0076  0.0276
 2335W        W 6399   7.333   9.287   7.549  0.0801 -0.1759 -0.0239
 2336W        W 6400  10.377  10.572   3.551 -0.1789 -0.0973 -0.2397
 2337W        W 6401   5.867   5.964   9.285  0.0449 -0.0376 -0.0627
 2338W        W 6402   8.794   2.155   9.434  0.0368  0.1777  0.1883
 2339W        W 6403   1.184   5.686   2.656 -0.1382  0.0549  0.3174
 2340W        W 6404   2.206   6.411   0.307 -0.1396  0.1942  0.2211
 2341W        W 6405   8.307   0.103   2.140  0.2056  0.2568  0.0203
 2342W        W 6406   3.935   1.032   9.817  0.1287  0.1864 -0.1128
 2343W        W 6407   2.272   5.118   8.690 -0.0620  0.0111 -0.1660
 2344W        W 6408   7.516   8.430   1.965 -0.2080 -0.3418  0.2511
 2345W        W 6409   3.178   5.009  11.116 -0.0555  0.4958 -0.3167
 2346W        W 6410   3.816   0.775   1.469  0.1337  0.2241 -0.1378
 2347W        W 6411   9.025   1.397   8.611 -0.0042 -0.1306 -0.0498
 2348W        W 6412   9.569   4.797   1.299  0.0851  0.1483 -0.1086
 2349W        W 6413  10.128   3.350   2.019  0.0409  0.2637  0.0207
 2350W        W 6414   3.749   3.528   2.361  0.1636 -0.2135  0.1727
 2351W        W 6415   1.488   6.444   4.157 -0.1583 -0.0014 -0.1186
 2352W        W 6416   3.344   0.253   3.468  0.2256 -0.1004  0.0479
 2353W        W 6417   5.676   4.501  10.482  0.1604  0.0193 -0.2247
 2354W        W 6418   8.404   6.561   9.525 -0.0358  0.0048 -0.2516
 2355W        W 6419   7.532   4.117   7.491 -0.1749  0.2564  0.0207
 2356W        W 6420   9.985   3.707   1.425  0.2531 -0.0250 -0.1844
 2357W        W 6421   8.267   3.058  10.207  0.0833  0.0329 -0.0977
 2358W        W 6422   1.218   4.994   2.345  0.0639  0.2138 -0.1032
 2359W        W 6423  10.391   0.251   0.126 -0.0842 -0.2264  0.0913
 2360W        W 6424   4.364   1.957   7.975 -0.2209 -0.1991  0.1332
 2361W        W 6425   0.893   7.718   0.213  0.2282  0.1819  0.2629
 2362W        W 6426   0.062   6.156   2.529 -0.1712 -0.1327  0.4216
 2363W        W 6427   4.453   5.126   9.154 -0.0912  0.1224  0.1251
 2364W        W 6428   9.889   9.034   9.894 -0.1225  0.1504 -0.1029
 2365W        W 6429   5.785   6.824   0.414 -0.1806  0.0921 -0.0463
 2366W        W 6430   9.375  10.274   7.715 -0.2032 -0.1315 -0.3473
 2367W        W 6431   4.623   9.229  10.325 -0.0688 -0.1806 -0.2905
 2368W        W 6432   6.300   4.311   1.983  0.0799 -0.1274  0.0383
 2369W        W 6433   8.742   4.357   1.902  0.0814 -0.1627  0.1022
 2370W        W 6434   5.979   4.249   9.857 -0.1492  0.1243  0.0839
 2371W        W 6435   6.393   0.726   6.567 -0.1438 -0.2716 -0.0199
 2372W        W 6436   6.914   2.994  11.274 -0.0379  0.3144 -0.1038
 2373W        W 6437   5.694   9.245   9.657  0.1501 -0.1744  0.0052
 2374W        W 6438   5.329   4.912   0.768  0.1113 -0.0415 -0.2373
 2375W        W 6439   7.281   1.265   2.084 -0.0733 -0.1881  0.1258
 2376W        W 6440   7.550  10.666   6.948 -0.0519 -0.0021 -0.1186
 2377W        W 6441   1.122   7.692   3.065 -0.1165 -0.0384  0.1313
 2378W        W 6442   6.413   9.925   7.902 -0.0119 -0.2258 -0.0201
 2379W        W 6443   8.494   4.334   7.508  0.1897 -0.1923 -0.0955
 2380W        W 6444   4.170   4.643   8.909 -0.1121 -0.3209  0.1255
 2381W        W 6445   1.474   0.758   3.246 -0.0848 -0.1171 -0.2696
 2382W        W 6446   8.277   6.353   0.176  0.1958 -0.1221 -0.0867
 2383W        W 6447   5.726   0.829   3.207  0.0527 -0.0472  0.1484
 2384W        W 6448   4.600   4.781   7.389 -0.3581 -0.0175  0.4136
 2385W        W 6449   1.664   6.365   3.301 -0.0139  0.0071 -0.2749
 2386W        W 6450   3.594   0.009   0.065 -0.0523 -0.3804  0.0619
 2387W        W 6451   0.479   7.987  10.656 -0.1233  0.1721 -0.0270
 2388W        W 6452   6.963  10.175  10.061 -0.4098  0.1356  0.2766
 2389W        W 6453   3.168   8.662   7.658  0.0317  0.2377 -0.2900
 2390W        W 6454   4.157   6.371   8.869 -0.0381  0.0821  0.3846
 2391W        W 6455   2.778   2.291   9.781 -0.0538 -0.1515  0.1558
 2392W        W 6456   5.844   4.995  10.456  0.0046  0.3530  0.0687
 2393W        W 6457   4.978   2.167   1.031 -0.2970  0.0050 -0.3837
 2394W        W 6458   5.700   4.953  10.929  0.0898  0.0496 -0.4041
 2395W        W 6459   5.881   3.561   2.909 -0.3547  0.2626  0.3430
 2396W        W 6460   1.850   1.068   1.552  0.1090 -0.2299  0.1255
 2397W        W 6461   8.748   1.646   0.168 -0.1654 -0.1383 -0.0798
 2398W        W 6462   2.666   3.502  10.100  0.0237 -0.0205  0.4968
 2399W        W 6463   4.724   4.332   0.530  0.1734  0.1646 -0.0475
 2400W        W 6464   7.004   6.588   0.910  0.0157 -0.0532 -0.2337
 2401W        W 6465   8.229   0.658   9.426  0.0268 -0.3411  0.0121
 2402W        W 6466   6.073   5.925   1.445  0.1378 -0.1780 -0.0232
 2403W        W 6467   3.033   4.297   2.769 -0.0920 -0.0570 -0.0037
 2404W        W 6468   6.983   6.057  11.095 -0.1315  0.1838  0.3546
 2405W        W 6469   0.885   7.191   1.810  0.2633  0.2627  0.3487
 2406W        W 6470   5.889   5.867   3.503  0.0100 -0.2195 -0.1055
 2407W        W 6471   9.524   9.086   7.148 -0.2122 -0.4284 -0.0121
 2408W        W 6472   6.409  10.359   0.656 -0.1272  0.2948  0.0331
 2409W        W 6473   8.423   8.276  10.261 -0.0035 -0.2064 -0.2828
 2410W        W 6474   4.363   9.329   8.908  0.1010  0.1238 -0.0011
 2411W        W 6475   7.584   5.021   7.940  0.0577 -0.0626 -0.2606
 2412W        W 6476   0.125   5.244   2.302  0.0643  0.0455 -0.3095
 2413W        W 6477   0.451   9.878   0.110 -0.0152  0.2126  0.3621
 2414W        W 6478   5.678   6.244   8.616 -0.0695 -0.0234 -0.1006
 2415W        W 6479   4.881   1.259   8.701  0.1061  0.0858  0.2456
 2416W        W 6480   0.593   9.482   9.170 -0.0320  0.1186  0.1290
 2417W        W 6481   2.656  10.228   9.915  0.0221 -0.1391 -0.0934
 2418W        W 6482   6.001   7.344   9.747 -0.3647 -0.0577 -0.1095
 2419W        W 6483   5.617   0.236   0.065  0.1132 -0.0232 -0.4270
 2420W        W 6484   9.169  10.222   8.563  0.1191 -0.0930 -0.2502
 2421W        W 6485   4.003   8.014   0.667  0.2768  0.1390 -0.3328
 2422W        W 6486   4.988   2.944   8.458  0.0784  0.0095 -0.2388
 2423W        W 6487   3.932  10.604   7.758  0.3184 -0.1153 -0.1984
 2424W        W 6488   0.684   3.305   1.570 -0.0265  0.1330  0.3349
 2425W        W 6489   0.517   6.061   2.680  0.0510  0.2279 -0.1467
 2426W        W 6490   3.674   8.627   2.912 -0.0873  0.4193  0.1587
 2427W        W 6491   3.641   7.260   2.117  0.4787 -0.0030 -0.1803
 2428W        W 6492   8.897   6.054   0.660 -0.0090  0.3998 -0.0688
 2429W        W 6493   3.099   8.969   2.146  0.2051  0.2227  0.0422
 2430W        W 6494   3.469   1.235  10.561  0.0137  0.4200 -0.1119
 2431W        W 6495   4.068   2.412   0.014  0.0080 -0.2205  0.2031
 2432W        W 6496   1.136   5.702   1.829  0.1524 -0.5190 -0.3435
 2433W        W 6497   6.137   2.111  10.224  0.0543 -0.0687 -0.1767
 2434W        W 6498   7.392   7.516  10.687 -0.0383 -0.1985  0.0816
 2435W        W 6499   6.800   1.141   2.293 -0.1076 -0.3156 -0.2701
 2436W        W 6500   5.791   1.679  11.122 -0.0707 -0.1215 -0.2327
 2437W        W 6501   5.679   8.329   7.603 -0.0352 -0.0067  0.2347
 2438W        W 6502   0.103   9.077   8.701  0.0015 -0.1372  0.0720
 2439W        W 6503   6.494  10.008   0.319 -0.1845 -0.0220  0.1290
 2440W        W 6504   5.977   6.547   1.470 -0.0135 -0.2675  0.4491
 2441W        W 6505   0.210   3.389  10.723  0.1796 -0.0440 -0.0369
 2442W        W 6506   7.531   0.760   2.263  0.1821  0.0634 -0.2139
 2443W        W 6507   0.643   4.307   0.731 -0.0193 -0.0480 -0.3884
 2444W        W 6508   9.477   2.172  10.770 -0.0799 -0.0254 -0.1739
 2445W        W 6509   0.947   4.671   3.730  0.2307 -0.0997  0.1524
 2446W        W 6510   7.913  10.276  11.193 -0.0299 -0.2328 -0.1407
 2447W        W 6511   7.951   9.383  10.830 -0.1142 -0.1897  0.0039
 2448W        W 6512   2.095   3.413   1.715  0.0139 -0.1690 -0.2096
 2449W        W 6513   6.863   7.711   1.728 -0.3887 -0.1077 -0.1081
 2450W        W 6514   7.350   0.598   2.718 -0.1040 -0.0590 -0.1250
 2451W        W 6515   3.108  10.202  10.945 -0.0964 -0.1448  0.1406
 2452W        W 6516   3.722   3.918   0.945 -0.2784  0.0275  0.0709
 2453W        W 6517   2.029   4.160   0.647  0.1447 -0.0322  0.1212
 2454W        W 6518   6.162   8.621  10.189  0.0886  0.1310 -0.2617
 2455W        W 6519   7.627   1.423   7.163  0.0605 -0.4137 -0.0161
 2456W        W 6520   3.892   4.286  10.076 -0.1275 -0.0681  0.3234
 2457W        W 6521   8.449   6.694   3.334 -0.1728  0.1054 -0.1174
 2458W        W 6522   7.852   4.788   0.155  0.0261 -0.2169 -0.1028
 2459W        W 6523   0.125   2.651  10.646  0.0133  0.1494  0.1681
 2460W        W 6524   6.318   8.607   0.195  0.0504 -0.0127 -0.3316
 2461W        W 6525   7.799   0.289  11.180  0.0338 -0.0543  0.3104
 2462W        W 6526   2.712   8.979   8.557 -0.1427  0.3002 -0.2558
 2463W        W 6527   6.874   9.874   0.721  0.0868  0.0823 -0.0921
 2464W        W 6528   6.630   2.528   1.237  0.0766 -0.0039 -0.2242
 2465W        W 6529   1.214   0.792  10.421 -0.2406  0.0976 -0.1879
 2466W        W 6530   1.582   1.708   9.854  0.1746 -0.2063 -0.1687
 2467W        W 6531   9.792   3.564   0.603  0.2380 -0.1786 -0.2395
 2468W        W 6532   8.252   8.534   0.144  0.1573  0.1307 -0.2613
 2469W        W 6533   3.885   8.806  10.580 -0.4444  0.0401 -0.0246
 2470W        W 6534   9.523   5.178   0.910  0.0863 -0.0420  0.0634
 2471W        W 6535   7.053   8.413   9.954 -0.0744 -0.1123 -0.3402
 2472W        W 6536   0.550   6.731   1.465  0.0382 -0.0299  0.0017
 2473W        W 6537   4.049   4.413   2.736  0.0187  0.4099 -0.0441
 2474W        W 6538   1.583   7.932   2.253 -0.1957  0.1775 -0.0444
 2475W        W 6539   2.163   0.978  11.266  0.0178 -0.1579 -0.0804
 2476W        W 6540   6.029   6.849   9.756  0.1295 -0.2388 -0.3872
 2477W        W 6541   8.464   3.449   8.848  0.2393  0.1593 -0.0299
 2478W        W 6542   3.127   6.665   8.852  0.0341  0.2249 -0.1681
 2479W        W 6543   9.487   5.410   1.346  0.0340  0.0346 -0.0476
 2480W        W 6544   1.454   7.512   9.168 -0.1214  0.1463  0.2123
 2481W        W 6545   7.538   6.743   8.012  0.0945 -0.0442 -0.1364
 2482W        W 6546   6.244   7.811   2.847  0.1800 -0.1676 -0.1860
 2483W        W 6547   4.007   3.506   9.692  0.2200 -0.0627  0.0999
 2484W        W 6548   4.815  10.103   7.511 -0.1528 -0.1029  0.0905
 2485W        W 6549   2.176   8.482  10.581 -0.0285 -0.0707 -0.0823
 2486W        W 6550   5.638   2.574  10.556  0.3838  0.1081 -0.3526
 2487W        W 6551   1.920   0.513   0.660 -0.1306  0.0134 -0.1791
 2488W        W 6552   7.183   2.119   0.651  0.0691 -0.4415 -0.2161
 2489W        W 6553  10.027   8.408   3.593 -0.1233 -0.0678  0.3375
 2490W        W 6554   4.236   9.733   2.501 -0.2095  0.0327  0.0610
 2491W        W 6555   3.793   2.161   0.460 -0.0739  0.2849  0.1599
 2492W        W 6556   3.496   6.144   2.789  0.0916  0.0150 -0.4070
 2493W        W 6557   9.149   1.988   9.802  0.0359  0.1924  0.1783
 2494W        W 6558   4.634   6.584   8.826  0.0983  0.1106  0.1840
 2495W        W 6559   0.338   7.950   2.561 -0.0884  0.1822 -0.0961
 2496W        W 6560  10.671   6.652   0.698 -0.1467 -0.0051 -0.2643
 2497W        W 6561   9.212   6.660   8.359  0.2700 -0.0847  0.1784
 2498W        W 6562   3.970  10.667   8.669 -0.0219  0.0879 -0.2757
 2499W        W 6563   9.275   7.154   9.073 -0.1225  0.2213  0.2326
 2500W        W 6564   8.980   8.924   9.724 -0.3693  0.0074 -0.0228
 2501W        W 6565   6.768   1.142   7.871 -0.0712  0.0290  0.0693
 2502W        W 6566   3.219   4.592   8.591  0.1787 -0.1277 -0.1584
 2503W        W 6567   9.813   2.397  11.130 -0.2103  0.1227  0.0187
 2504W        W 6568   5.184   3.603   8.966  0.0605  0.0091  0.1083
 2505W        W 6569   1.339   9.120   0.658  0.3431  0.2014  0.1189
 2506W        W 6570  10.038   3.238  10.645 -0.1665  0.1856  0.2091
 2507W        W 6571  10.227   0.812   8.265  0.1627  0.4584  0.2026
 2508W        W 6572   0.808   3.317   9.065 -0.2875  0.0044 -0.2068
 2509W        W 6573   8.511   2.089   0.969  0.1389  0.1627 -0.2013
 2510W        W 6574   1.751   9.026   9.730  0.0046  0.0569  0.0515
 2511W        W 6575  10.584   7.310   0.869 -0.0452  0.0774 -0.0406
 2512W        W 6576   6.397   9.351  10.954 -0.0060  0.0369 -0.1350
 2513W        W 6577   9.574   5.364   2.580  0.1612 -0.0372  0.4901
 2514W        W 6578   3.224   6.739   0.961 -0.2480 -0.2086 -0.0155
 2515W        W 6579   6.039   6.989   2.204  0.0070  0.0869 -0.0094
 2516W        W 6580   9.835   5.834   8.385 -0.0536 -0.3081 -0.0548
 2517W        W 6581   5.592   6.238   3.382 -0.1062  0.1714 -0.0784
 2518W        W 6582   5.495   8.054   2.452  0.0465  0.0836  0.1052
 2519W        W 6583   0.052   0.657   0.157  0.0986 -0.1292 -0.0835
 2520W        W 6584   7.051   5.121   0.242  0.2874  0.0046  0.1909
 2521W        W 6585   0.123   0.284   8.175 -0.0798  0.0206  0.1311
 2522W        W 6586   8.313   8.172   7.575  0.1209  0.0913  0.1762
 2523W        W 6587   5.666   6.286  10.467 -0.0541  0.3466  0.2476
 2524W        W 6588   7.218  10.692   3.274 -0.3798 -0.1781 -0.1569
 2525W        W 6589  10.503   4.091   0.331 -0.4269 -0.0077 -0.1420
 2526W        W 6590   3.101   0.797   9.996  0.0839  0.2582  0.1818
 2527W        W 6591   9.723   5.725   0.425  0.1342 -0.2257  0.1028
 2528W        W 6592   1.471   8.252   8.589 -0.0744  0.1585  0.0754
 2529W        W 6593   8.513   6.728   1.878  0.0861 -0.0542 -0.1857
 2530W        W 6594   8.111  10.206   2.311  0.1707  0.0532 -0.1779
 2531W        W 6595   5.599   1.362  10.001 -0.1710 -0.0294 -0.1771
 2532W        W 6596   4.710   2.536   0.160 -0.0651 -0.3226  0.2073
 2533W        W 6597  10.670   1.116   0.336 -0.0591 -0.0611 -0.3976
 2534W        W 6598   3.826   4.283   1.804 -0.1130 -0.1734  0.0434
 2535W        W 6599   2.076   6.662   2.606 -0.1702 -0.0354 -0.1162
 2536W        W 6600   3.168   8.979   9.505  0.0003 -0.1361  0.0407
 2537W        W 6601   4.317   5.577   7.570 -0.1342 -0.5859 -0.1243
 2538W        W 6602   8.932   6.660   1.316  0.2350 -0.2672  0.2815
 2539W        W 6603   9.845   2.186   7.089  0.3641  0.1510 -0.0360
 2540W        W 6604   0.390   0.684   9.529  0.0867 -0.1105 -0.0810
 2541W        W 6605   7.633   1.909   2.889  0.0078 -0.0424  0.4353
 2542W        W 6606   2.813   6.679  10.844 -0.0051 -0.3071  0.0560
 2543W        W 6607   9.808   9.589   8.385 -0.4399  0.0562 -0.0769
 2544W        W 6608  10.365   7.643   8.238  0.0933 -0.0490  0.1813
 2545W        W 6609   3.311   6.686   0.153 -0.1513 -0.1399 -0.1201
 2546W        W 6610  10.168   9.088   3.432 -0.1498  0.1286 -0.0698
 2547W        W 6611   4.044   3.353   1.771  0.2255 -0.2642  0.1444
 2548W        W 6612   8.922   1.721   9.223  0.1260  0.1528 -0.0742
 2549W        W 6613   9.974  10.487   2.051 -0.1075  0.0994 -0.2584
 2550W        W 6614   5.862  10.722   2.396  0.2886 -0.1176  0.1396
 2551W        W 6615   6.407   4.128   8.472 -0.0198 -0.2934 -0.4422
 2552W        W 6616   8.906   9.143   2.947 -0.0878  0.0237  0.3809
 2553W        W 6617   1.900   4.373  10.981  0.2413  0.0420  0.0321
 2554W        W 6618   1.783  10.531  11.192 -0.1319 -0.1517 -0.1991
 2555W        W 6619   7.983   3.494   9.320 -0.0599 -0.5499  0.0554
 2556W        W 6620   8.680   6.286   2.991 -0.0231  0.2190  0.0999
 2557W        W 6621   4.629   8.727   7.816  0.2479  0.0791  0.0224
 2558W        W 6622   0.529   0.206   9.592  0.0573 -0.1535  0.2201
 2559W        W 6623   1.433   2.179   2.138 -0.2547 -0.3419 -0.3870
 2560W        W 6624   8.338   3.865   9.587 -0.2502  0.4302  0.0080
 2561W        W 6625   1.479   9.394  10.156 -0.0266 -0.1224 -0.0811
 2562W        W 6626   4.715   3.556   0.864  0.0392 -0.5399 -0.4137
 2563W        W 6627   9.818   6.964   3.164 -0.0399  0.1470 -0.1620
 2564W        W 6628   3.569   3.065   1.986 -0.4772  0.0375  0.1644
 2565W        W 6629   9.432   6.610  10.313 -0.0816  0.0783 -0.0416
 2566W        W 6630   3.104   8.764  11.391  0.0671 -0.0777 -0.0762
 2567W        W 6631   6.156   4.512   3.230 -0.3342  0.1028  0.0760
 2568W        W 6632   4.861   9.015   9.749  0.0806  0.4559  0.0935
 2569W        W 6633   9.246   4.250   3.277 -0.1220  0.1910 -0.0693
 2570W        W 6634   0.185   1.806  11.383  0.0251 -0.0747  0.0279
 2571W        W 6635   2.288   7.013   1.912 -0.0451 -0.4694 -0.2756
 2572W        W 6636  10.489   3.565  10.695  0.2027 -0.2820  0.1571
 2573W        W 6637   8.950   7.680  10.877 -0.1363  0.0174  0.2310
 2574W        W 6638   9.046   7.486   1.699  0.2051 -0.1067 -0.0495
 2575W        W 6639   2.200   8.876   9.400 -0.1276  0.1275 -0.1148
 2576W        W 6640   7.538   2.849  10.568 -0.2466 -0.2089 -0.2215
 2577W        W 6641   7.566  10.610  11.246  0.1605  0.1122 -0.1226
 2578W        W 6642   8.339   3.266   7.980  0.2302 -0.1762  0.1394
 2579W        W 6643   3.013   2.047   3.747 -0.1854 -0.0111  0.0882
 2580W        W 6644   6.425   8.836   7.898 -0.1747 -0.2534  0.2838
 2581W        W 6645   6.474   0.052   3.163  0.2422  0.0410  0.0161
 2582W        W 6646   8.148   7.996   3.844  0.0612  0.0065 -0.1516
 2583W        W 6647   8.491   9.397   7.482  0.0995  0.1604 -0.0076
 2584W        W 6648   0.869   2.111   7.433 -0.1074  0.1039 -0.0787
 2585W        W 6649   2.209   8.952   1.771 -0.1194 -0.0758 -0.2149
 2586W        W 6650   6.715   9.300   9.807  0.0823  0.2060 -0.1130
 2587W        W 6651   2.137   7.985   8.517  0.0426 -0.1873  0.0355
 2588W        W 6652   2.433   6.923   1.380  0.0600 -0.1935 -0.2220
 2589W        W 6653   4.534   8.724   1.560 -0.0720  0.1098 -0.1251
 2590W        W 6654   4.477   3.775   9.344  0.3961  0.0870  0.0892
 2591W        W 6655  10.294   3.219   9.973  0.3302  0.0991  0.3966
 2592W        W 6656   7.714   8.251   0.643 -0.0121  0.0231 -0.1587
 2593W        W 6657   2.934  10.489   1.246 -0.1103 -0.1464 -0.1404
 2594W        W 6658   8.168   0.607   2.165 -0.0398 -0.0968 -0.1357
 2595W        W 6659   0.297   5.246   9.526 -0.6520  0.0053 -0.3530
 2596W        W 6660   4.487   2.845   1.294 -0.1178 -0.2749  0.0776
 2597W        W 6661   5.085   2.496   9.113  0.1557 -0.2668 -0.1720
 2598W        W 6662   6.657   7.282   0.504  0.2230  0.1060 -0.1769
 2599W        W 6663   5.487   8.355   9.330 -0.1656 -0.2309 -0.1309
 2600W        W 6664   4.312   5.831   1.988  0.0210  0.1516  0.0091
 2601W        W 6665   1.785   9.531   9.749  0.0600  0.0730 -0.0462
 2602W        W 6666   3.711   1.540   7.416 -0.1366  0.0617 -0.0901
 2603W        W 6667   4.632   9.253   7.951  0.2041 -0.2751  0.0320
 2604W        W 6668   9.577   3.435   3.193 -0.4843  0.0330 -0.3113
 2605W        W 6669   5.440   5.021  10.075 -0.2476  0.0355  0.1702
 2606W        W 6670   3.736   6.625   1.922  0.0623  0.0383 -0.1015
 2607W        W 6671   4.004   2.498   9.162  0.0617 -0.4727 -0.2209
 2608W        W 6672   5.282   0.996   2.266 -0.0252 -0.0970  0.0939
 2609W        W 6673   5.149   5.497   7.240  0.2395  0.2331  0.0748
 2610W        W 6674   4.552   3.291   0.014 -0.2690 -0.0557 -0.1435
 2611W        W 6675   5.448   2.351   0.924  0.0796  0.1404  0.4484
 2612W        W 6676   7.131   0.284   7.520  0.1368 -0.0859  0.1392
 2613W        W 6677   9.152   4.526  11.226  0.1176  0.0712 -0.3197
 2614W        W 6678   8.523   9.415   7.985  0.0479 -0.1211  0.1453
 2615W        W 6679   2.380  10.496   7.582  0.0507  0.1159  0.0045
 2616W        W 6680   7.791   8.354   0.109 -0.1841  0.3418  0.1415
 2617W        W 6681   9.257   9.134   1.777  0.3218 -0.1031  0.1393
 2618W        W 6682   0.011   7.339   3.842 -0.3663 -0.0833  0.2294
 2619W        W 6683   0.932   6.881   3.449  0.0200  0.1402 -0.2932
 2620W        W 6684   6.509   8.320   9.220 -0.1737  0.2615 -0.2755
 2621W        W 6685   1.581   0.152   3.230  0.0660  0.1920 -0.2693
 2622W        W 6686   4.989   2.574  10.495  0.0933 -0.0274  0.0926
 2623W        W 6687   3.131   2.277   2.388 -0.0614  0.2202  0.4274
 2624W        W 6688   8.493   8.330  10.747  0.0560  0.4335 -0.2167
 2625W        W 6689   1.386  10.019  11.382  0.1728  0.0787 -0.0094
 2626W        W 6690   8.271   9.609   8.866 -0.2140  0.2487  0.2518
 2627W        W 6691   4.940   9.551   9.113 -0.0966  0.0542 -0.1565
 2628W        W 6692   2.133   7.119   9.527 -0.2065  0.0026 -0.0880
 2629W        W 6693   6.923  10.167   7.843 -0.0089 -0.0451 -0.1167
 2630W        W 6694  10.104   0.885   2.645 -0.0324 -0.2147  0.2651
 2631W        W 6695   4.103   7.159   0.197  0.2599 -0.0299  0.0032
 2632W        W 6696   5.033   1.668   0.442  0.3312  0.0461 -0.1324
 2633W        W 6697   2.577   2.585   8.492  0.3473 -0.0778 -0.1467
 2634W        W 6698   5.832   3.355   8.491  0.1004  0.2920  0.1116
 2635W        W 6699  10.059   6.899   9.614  0.3060  0.2704  0.0852
 2636W        W 6700   5.170   6.935  11.153 -0.0348  0.1272 -0.1539
 2637W        W 6701   0.889   5.884   2.987  0.0810 -0.1400  0.1153
 2638W        W 6702   8.604   2.165   0.520  0.1513  0.1153  0.2371
 2639W        W 6703   8.160   3.546   7.214  0.1805 -0.0719  0.0550
 2640W        W 6704   2.527  10.162   9.320  0.0100 -0.0856  0.0176
 2641W        W 6705   3.870   2.922  11.316  0.1150  0.1377  0.0464
 2642W        W 6706   0.997   7.826   8.300  0.2089  0.0700  0.0922
 2643W        W 6707  10.419   9.026   8.898  0.2401  0.2597  0.1633
 2644W        W 6708   6.415   0.801   1.385  0.2221  0.0227  0.3055
 2645W        W 6709   5.893   2.563   8.056 -0.0641  0.0301  0.1046
 2646W        W 6710   9.101   6.715  10.745 -0.2439 -0.3351 -0.2689
 2647W        W 6711  10.297   0.161  10.523 -0.1915 -0.0915  0.0758
 2648W        W 6712   4.413   8.200   0.926  0.3611 -0.0895  0.0097
 2649W        W 6713   3.145   9.284   8.580 -0.0619 -0.1661  0.1163
 2650W        W 6714   9.862   2.854   7.912 -0.1951  0.1190 -0.2111
 2651W        W 6715   3.886   0.300   2.024 -0.2622 -0.0257 -0.1609
 2652W        W 6716   6.056   3.777   8.636  0.1998 -0.1803  0.0129
 2653W        W 6717   0.130   6.522   1.222 -0.0344  0.1260 -0.0508
 2654W        W 6718   6.163   3.690   0.084 -0.3205 -0.1754 -0.2382
 2655W        W 6719   6.322   1.367   1.049 -0.0138 -0.0323 -0.0157
 2656W        W 6720   7.786   5.530   1.449 -0.0766 -0.0224 -0.1209
 2657W        W 6721   5.855  10.657   8.177  0.0240  0.0702  0.0590
 2658W        W 6722   1.601   2.156   7.877  0.0739  0.4544  0.1165
 2659W        W 6723   2.444   6.781   2.308  0.1212  0.4090  0.2035
 2660W        W 6724   1.941   3.057   0.774 -0.0264  0.0894  0.1369
 2661W        W 6725   2.235   0.829   8.905  0.0483  0.1356 -0.0980
 2662W        W 6726   3.580   5.253  10.680  0.2876  0.0885 -0.0204
 2663W        W 6727  10.456   7.654   9.563  0.0985  0.0951  0.1207
 2664W        W 6728   8.000   2.049  10.512 -0.0811  0.2599 -0.1268
 2665W        W 6729   7.577   3.597   8.413  0.2493 -0.1731 -0.0597
 2666W        W 6730   1.012   8.569   3.699  0.1751 -0.1944 -0.3615
 2667W        W 6731   5.753   5.871  10.645 -0.2433 -0.2056  0.1975
 2668W        W 6732   2.362   4.469   8.426  0.6003  0.0135  0.1282
 2669W        W 6733  10.001   9.004  11.139 -0.0207 -0.3918  0.3019
 2670W        W 6734   1.347   6.996  10.995 -0.2587 -0.1261 -0.2945
 2671W        W 6735   1.855   2.596   9.423  0.1697  0.2172 -0.2456
 2672W        W 6736   5.794   7.123  10.832 -0.2889 -0.1367 -0.0711
 2673W        W 6737   7.368   9.812   9.283 -0.1277  0.1246  0.1099
 2674W        W 6738   4.221   3.860  10.926  0.3021 -0.5516  0.1112
 2675W        W 6739   8.452   7.572   9.955 -0.0644  0.2789  0.2360
 2676W        W 6740   3.891   4.252  10.948  0.3389 -0.0964 -0.1857
 2677W        W 6741   1.557   6.682   8.692  0.2830  0.1949 -0.2709
 2678W        W 6742   0.611   1.566   0.580 -0.0203  0.0696  0.0682
 2679W        W 6743   0.161   7.188   9.551 -0.2687 -0.3297 -0.0333
 2680W        W 6744   9.362   1.678   0.331 -0.1074  0.0715  0.1893
 2681W        W 6745  10.007   7.795   0.936  0.2249 -0.0635  0.0578
 2682W        W 6746   9.221   5.374   9.647  0.5350 -0.1070 -0.0066
 2683W        W 6747   5.378   4.866   7.849  0.0597  0.1780 -0.0740
 2684W        W 6748   5.502   3.958   8.024  0.1474 -0.0047 -0.0615
 2685W        W 6749  10.449   9.866  10.564 -0.0456  0.2107 -0.0296
 2686W        W 6750   8.853   3.717   0.713 -0.0886 -0.1206  0.3015
 2687W        W 6751   3.967   3.616   3.251 -0.5009 -0.2502  0.0342
 2688W        W 6752   1.470   5.681   3.759 -0.3541  0.1695  0.0572
 2689W        W 6753   3.308   7.044   3.407 -0.2943  0.2132 -0.0634
 2690W        W 6754   3.949   1.233  10.300 -0.0578 -0.2144 -0.1366
 2691W        W 6755   1.436   4.535   3.599 -0.2264  0.0469  0.2474
 2692W        W 6756   9.041   6.019   3.763  0.0078 -0.2756  0.1142
 2693W        W 6757   6.022   5.958  10.229 -0.0902  0.0944 -0.0105
 2694W        W 6758   4.217   4.269  10.608  0.4948  0.1832  0.1711
 2695W        W 6759   8.489   3.824  10.160  0.0637 -0.0623  0.2082
 2696W        W 6760   6.366   0.918   0.705  0.0359 -0.1169 -0.2973
 2697W        W 6761   3.222   3.057   1.445 -0.1972 -0.1934 -0.0450
 2698W        W 6762   6.356   2.467   9.921 -0.1893  0.2521  0.0425
 2699W        W 6763   9.955   3.135   7.499 -0.3443 -0.0444  0.0936
 2700W        W 6764   5.150   3.408   0.746 -0.0485  0.1183  0.0363
 2701W        W 6765   6.703   0.065  11.139  0.2762  0.0252 -0.0411
 2702W        W 6766   4.831   1.956   2.120 -0.0434 -0.1161 -0.0935
 2703W        W 6767   4.261   6.832   0.506  0.1438  0.0407 -0.1727
 2704W        W 6768  10.591   7.490   7.788  0.2391 -0.1451  0.0143
 2705W        W 6769   9.198   2.930   0.238 -0.2068  0.3593 -0.0280
 2706W        W 6770   9.738   4.140   2.004  0.0078  0.0542  0.1391
 2707W        W 6771   4.035   2.235   0.935 -0.1104  0.1659 -0.1731
 2708W        W 6772   4.860   2.708   1.951 -0.0780 -0.1831  0.0926
 2709W        W 6773   7.090   5.070   7.774  0.2875  0.0274  0.0869
 2710W        W 6774   2.289   8.780   0.442  0.2691 -0.0651  0.0563
 2711W        W 6775   8.714   5.076   3.329 -0.1987  0.1245 -0.2569
 2712W        W 6776   6.366   2.923   1.044  0.1926 -0.0790 -0.1762
 2713W        W 6777   4.453   7.385  11.237  0.0584 -0.3895 -0.1381
 2714W        W 6778   3.095  10.443   2.161 -0.0852 -0.2406  0.3009
 2715W        W 6779   1.894   0.970   7.655 -0.1932  0.1946 -0.1462
 2716W        W 6780   1.880   0.038   9.340  0.1273  0.2167 -0.1364
 2717W        W 6781   6.778   1.083   7.346  0.0320 -0.0488 -0.0121
 2718W        W 6782   8.599   1.797   7.873 -0.1212 -0.3497  0.1786
 2719W        W 6783   5.876   8.232   2.794 -0.2196  0.2404  0.0439
 2720W        W 6784  10.187   8.682   9.236 -0.2348  0.0705  0.1684
 2721W        W 6785   1.443   3.230   0.612  0.2179 -0.0759  0.1417
 2722W        W 6786   8.459   1.514  11.173 -0.0943 -0.2099  0.1461
 2723W        W 6787   6.490  10.328  10.835  0.2358 -0.1118 -0.3424
 2724W        W 6788   3.233   5.294   0.981 -0.1001 -0.2600 -0.0760
 2725W        W 6789   9.598   6.766   2.696 -0.1860  0.1659 -0.1601
 2726W        W 6790   9.341   5.677   8.156 -0.0598 -0.2532  0.1467
 2727W        W 6791   2.690   9.166   1.886  0.0764  0.3080 -0.3189
 2728W        W 6792   1.516   6.447   2.447  0.0650  0.0479  0.1142
 2729W        W 6793   5.223   1.115   9.822 -0.3756  0.0425  0.3380
 2730W        W 6794   9.075   8.391   9.869 -0.3245  0.2290  0.3900
 2731W        W 6795   4.559   9.726   9.408  0.2517 -0.2351  0.0641
 2732W        W 6796   2.876   4.547   0.852 -0.2384 -0.0351 -0.0983
 2733W        W 6797   3.551   6.058   0.592 -0.3212 -0.0823 -0.4137
 2734W        W 6798   0.613   2.751   8.405  0.1458 -0.1852  0.0113
 2735W        W 6799   2.150   7.421   1.539 -0.0757  0.1537  0.0187
 2736W        W 6800   8.341   1.244   8.036 -0.4044 -0.0560 -0.0254
 2737W        W 6801   8.496   0.023   9.976  0.1552  0.0358  0.0414
 2738W        W 6802   5.867   2.425  11.046  0.0592  0.0593  0.0065
 2739W        W 6803   3.566   9.210   2.991 -0.0829 -0.0023  0.0919
 2740W        W 6804   4.477  10.189   8.082 -0.3890 -0.0705 -0.1832
 2741W        W 6805   7.177   8.458  10.835  0.1574  0.0059 -0.0728
 2742W        W 6806  10.621   3.614   9.821  0.0074  0.1476 -0.3453
 2743W        W 6807   6.028   8.205   0.365 -0.1197  0.1546  0.2789
 2744W        W 6808   9.206   0.754   9.726 -0.3875 -0.0731  0.0198
 2745W        W 6809   4.400  10.348   9.954  0.0179  0.2297 -0.0792
 2746W        W 6810   5.663   7.852   7.523  0.0684 -0.1257  0.0546
 2747W        W 6811   8.195   3.547   1.610 -0.0468  0.1851  0.2067
 2748W        W 6812   5.871   5.053   8.062  0.1041  0.1906  0.1755
 2749W        W 6813   9.206   5.124   2.261  0.0200 -0.2331  0.3498
 2750W        W 6814   1.899   4.198   8.510 -0.3091 -0.2973  0.1155
 2751W        W 6815   6.341   6.097   9.128  0.1485  0.1091  0.1435
 2752W        W 6816   4.716   4.013   1.607  0.0022 -0.1142  0.0567
 2753W        W 6817   0.861  10.359   3.068 -0.2460 -0.1905 -0.2933
 2754W        W 6818   1.768   9.289   3.618  0.0682 -0.1535 -0.0681
 2755W        W 6819   8.368   4.972   1.931 -0.0915 -0.0623 -0.2065
 2756W        W 6820   4.005   5.575  10.746 -0.1500 -0.2950 -0.0333
 2757W        W 6821  10.052   2.786  10.317 -0.3009  0.2639 -0.2978
 2758W        W 6822   3.343   4.389   1.566  0.0650 -0.2270  0.0568
 2759W        W 6823   5.186   7.020   1.692 -0.1468  0.0940  0.2305
 2760W        W 6824   9.162   2.626   2.944 -0.2803  0.0140  0.0760
 2761W        W 6825   5.859   0.101   1.899 -0.2554 -0.1323 -0.0502
 2762W        W 6826   1.408   6.838   0.591  0.0568  0.2204 -0.0522
 2763W        W 6827   7.166   7.580   9.255 -0.1960 -0.0577 -0.0360
 2764W        W 6828   7.040  10.627   0.043 -0.0806 -0.0560 -0.0979
 2765W        W 6829  10.657   3.618   3.226 -0.0429  0.0179  0.0804
 2766W        W 6830   4.443   3.006   8.923 -0.1250  0.0938 -0.0288
 2767W        W 6831   5.992   5.452  10.273  0.1010  0.0545  0.1609
 2768W        W 6832   2.290   2.878   8.828 -0.2791 -0.0241 -0.0438
 2769W        W 6833   5.211   0.559   1.229  0.3229  0.1598 -0.1889
 2770W        W 6834   1.837   8.519   9.405  0.3783  0.2568 -0.3453
 2771W        W 6835  10.307   2.595   3.060  0.2565  0.0028  0.1241
 2772W        W 6836   8.875   0.068   9.114  0.0198 -0.0084  0.0296
 2773W        W 6837   3.794   2.707   7.496  0.3187 -0.2436 -0.1206
 2774W        W 6838  10.197   0.452   8.708  0.0587  0.1297 -0.3530
 2775W        W 6839   9.339   4.452   0.269 -0.0329 -0.3929 -0.0457
 2776W        W 6840   0.319   4.662   8.717  0.0796  0.4992  0.1196
 2777W        W 6841   6.821   1.557   1.417 -0.0751  0.1122 -0.2070
 2778W        W 6842   6.992   2.577   3.594  0.2148 -0.2348  0.0056
 2779W        W 6843   1.933   0.301   6.552  0.2971  0.3240  0.0747
 2780W        W 6844   5.661   8.901   3.733  0.2976  0.1288 -0.2193
 2781W        W 6845   7.874   9.989   0.287  0.1919 -0.0504 -0.0786
 2782W        W 6846   1.667   8.915   1.177  0.3195  0.0436  0.0191
 2783W        W 6847   2.243   7.653   0.089 -0.0692  0.0456  0.0389
 2784W        W 6848   2.706   5.247   8.861  0.2408  0.1372 -0.1168
 2785W        W 6849   8.102   7.286   9.080  0.0022 -0.1165 -0.0147
 2786W        W 6850   0.175   7.589  10.558  0.0474 -0.1761 -0.2659
 2787W        W 6851   4.160   2.664   2.125 -0.1349 -0.1086  0.1855
 2788W        W 6852   7.107   4.486   0.581 -0.0410  0.2178  0.0084
 2789W        W 6853   7.807   2.748   0.067 -0.0994  0.1103 -0.0276
 2790W        W 6854   0.238   0.192   1.472  0.0924  0.0610 -0.1762
 2791W        W 6855   5.591  10.675   8.670  0.2586 -0.1089 -0.1750
 2792W        W 6856  10.127   4.967   1.830  0.0477  0.0507 -0.4800
 2793W        W 6857   0.105   5.165  10.358 -0.0784  0.1211 -0.0348
 2794W        W 6858   1.333   1.024   0.885  0.0667  0.0585  0.1113
 2795W        W 6859   2.251   5.778   0.899 -0.0273 -0.1383 -0.1409
 2796W        W 6860   4.298   5.405   2.388  0.2331  0.1357  0.1696
 2797W        W 6861   0.411   4.587   3.668 -0.0035 -0.0169 -0.1717
 2798W        W 6862   7.767   6.555   9.693  0.2892 -0.1152 -0.0104
 2799W        W 6863   2.433   7.139   9.130 -0.3096 -0.0390 -0.2929
 2800W        W 6864   1.475   0.794   2.349 -0.0988  0.0531 -0.2362
 2801W        W 6865   0.121   8.372  10.636  0.0693 -0.1521  0.1054
 2802W        W 6866   7.251   2.263  10.193 -0.0360 -0.1774  0.1684
 2803W        W 6867   3.170   2.967   8.395  0.0667 -0.1622 -0.2115
 2804W        W 6868   7.055   0.341   2.375 -0.3405  0.1631  0.0532
 2805W        W 6869   6.805   4.995   2.343 -0.4792  0.0962  0.0204
 2806W        W 6870  10.409   4.602   0.986  0.0662 -0.0563  0.1769
 2807W        W 6871   5.476   2.089  11.098 -0.0943  0.0213  0.1781
 2808W        W 6872   1.891   8.128   9.717 -0.1135  0.0551 -0.0519
 2809W        W 6873   5.381   5.126   9.581 -0.1688 -0.2592 -0.1541
 2810W        W 6874   2.279   5.028   1.593 -0.1627 -0.4158 -0.4008
 2811W        W 6875  10.661   3.909   2.365  0.1405  0.0194 -0.0688
 2812W        W 6876  10.217   1.623   8.824  0.1308 -0.1107 -0.0768
 2813W        W 6877  10.505   8.190   2.997 -0.2938 -0.1384  0.0651
 2814W        W 6878   1.151   1.827   3.111  0.0684  0.2090 -0.3987
 2815W        W 6879   5.151   0.458  10.641  0.1878 -0.2276  0.0733
 2816W        W 6880   9.609   5.614   1.864 -0.0758 -0.2428 -0.0479
 2817W        W 6881  10.028   9.597   0.497 -0.0407  0.3738 -0.0265
 2818W        W 6882   6.247   7.330   0.847 -0.0274  0.1143 -0.0823
 2819W        W 6883   3.129   9.976   7.716 -0.0312  0.3800 -0.1876
 2820W        W 6884   0.254   7.283   7.472  0.0719  0.1259 -0.2013
 2821W        W 6885   9.263   1.121   1.141  0.1246  0.1850 -0.0669
 2822W        W 6886  10.379   2.948   1.850 -0.1232 -0.1567  0.0584
 2823W        W 6887   6.657   1.339   0.628  0.0363  0.0625  0.2442
 2824W        W 6888   1.153   0.130  10.980  0.4298 -0.4525  0.0609
 2825W        W 6889   1.796   6.648   0.845  0.1300 -0.0437 -0.2388
 2826W        W 6890  10.503   2.882   9.585 -0.0228 -0.0664  0.1380
 2827W        W 6891   0.596   9.718   0.609 -0.2580  0.0164  0.0769
 2828W        W 6892   6.939   8.344   1.674  0.1197 -0.0132 -0.2914
 2829W        W 6893   5.510   5.522  10.368 -0.0260  0.0574  0.0283
 2830W        W 6894   6.374   3.610   2.927 -0.3369  0.1529  0.0702
 2831W        W 6895   8.056   2.982   9.250  0.0189  0.2715  0.0388
 2832W        W 6896   6.982   6.376   2.995 -0.0519 -0.1091  0.0432
 2833W        W 6897   8.086   2.355   0.319  0.1179 -0.1476  0.1469
 2834W        W 6898   3.059   3.762   0.349 -0.0358  0.0719  0.1770
 2835W        W 6899   2.388   6.027   9.052  0.0860  0.1787  0.0827
 2836W        W 6900   4.782   6.026   3.785 -0.2857  0.2305  0.1713
 2837W        W 6901   4.423  10.500   0.573 -0.0076  0.0353 -0.1605
 2838W        W 6902   6.603   2.870  10.778 -0.3264  0.2003 -0.0873
 2839W        W 6903   0.430   1.530   9.654  0.2705 -0.0192 -0.2713
 2840W        W 6904   9.827  10.436   7.987  0.4152  0.0725 -0.1708
 2841W        W 6905   2.672  10.262   0.009  0.1598 -0.0812  0.1663
 2842W        W 6906   8.666   5.276   0.111  0.1510  0.0901 -0.0910
 2843W        W 6907   5.732   8.451   8.824  0.0694  0.0279 -0.1161
 2844W        W 6908   7.917   9.074   3.073 -0.2800 -0.1028 -0.1999
 2845W        W 6909   9.466   7.722   1.852  0.1165 -0.0900  0.1851
 2846W        W 6910  10.478   3.384   0.614  0.0710 -0.0476 -0.0441
 2847W        W 6911   4.894   8.325   0.404 -0.1184  0.0089 -0.6174
 2848W        W 6912   3.509   5.062   9.348 -0.0567  0.0114 -0.2787
 2849W        W 6913   1.999  10.440   1.777  0.1686  0.1043 -0.0765
 2850W        W 6914   0.624   4.459   9.883  0.1870 -0.0052  0.0804
 2851W        W 6915   2.080   0.222   7.454 -0.1654 -0.0107 -0.0697
 2852W        W 6916   3.451   9.770   1.551 -0.1662  0.0926  0.1232
 2853W        W 6917   2.733   9.271   9.322  0.1168 -0.3764  0.2838
 2854W        W 6918   6.198   8.563   2.469 -0.3321  0.2111 -0.1903
 2855W        W 6919   4.468   2.821  11.162  0.1829 -0.1596 -0.0744
 2856W        W 6920   4.867  10.695   8.250 -0.1905 -0.2044 -0.0955
 2857W        W 6921   5.178   4.410   0.766  0.3035 -0.0902 -0.2608
 2858W        W 6922   5.305  10.050   7.376 -0.0153  0.1360 -0.1010
 2859W        W 6923   7.239   3.512   3.075  0.2414  0.1578  0.1281
 2860W        W 6924   7.085   0.799   2.023 -0.2545 -0.0575 -0.2842
 2861W        W 6925   7.166   8.856   0.817  0.1493 -0.0519  0.0805
 2862W        W 6926   5.871   3.257   0.238  0.1858 -0.0116 -0.2316
 2863W        W 6927   4.974   7.386   8.417  0.3578  0.0848 -0.2896
 2864W        W 6928   2.293  10.327   8.836  0.0098  0.1438 -0.1538
 2865W        W 6929   0.502   3.436   9.503 -0.0001 -0.0602 -0.0869
 2866W        W 6930   4.551   4.326   8.949 -0.0458 -0.2019 -0.0809
 2867W        W 6931   6.359   5.046   8.374 -0.0238  0.2342  0.0801
 2868W        W 6932   7.546   2.984   0.485  0.2655  0.0719 -0.2075
 2869W        W 6933   9.323   0.364   2.290 -0.2523 -0.0323 -0.1288
 2870W        W 6934   2.149   6.549   1.800 -0.2497 -0.1411 -0.0729
 2871W        W 6935   0.760   7.518  10.435  0.0951  0.1557  0.0483
 2872W        W 6936   7.726   5.305   2.467  0.2505 -0.0754  0.1967
 2873W        W 6937   6.439   7.643   3.364 -0.1201 -0.0111  0.1175
 2874W        W 6938   2.569   9.108   6.860 -0.1493  0.1325 -0.1646
 2875W        W 6939   6.562   5.714   2.273 -0.0981  0.1191  0.4232
 2876W        W 6940   2.489   6.296   0.742  0.0040  0.2884  0.1822
 2877W        W 6941   0.317   3.958   0.489  0.0386 -0.1099 -0.0892
 2878W        W 6942   6.942   3.833  10.691 -0.0454 -0.1490 -0.3739
 2879W        W 6943   0.665   6.791   2.041 -0.0600 -0.0557  0.3564
 2880W        W 6944   1.196   4.421   0.553 -0.0595 -0.0007 -0.1899
 2881W        W 6945   8.718   9.917   3.105  0.1824 -0.0057  0.1384
 2882W        W 6946   9.681   4.268   0.612 -0.3841  0.4245  0.1481
 2883W        W 6947   8.642   6.696   9.931  0.2202  0.1201 -0.2972
 2884W        W 6948   8.301   3.206   0.097 -0.0296  0.0154  0.1850
 2885W        W 6949   9.113  10.558   2.857 -0.2977  0.0770 -0.1083
 2886W        W 6950   2.614   3.251   0.167 -0.1693  0.1241  0.0858
 2887W        W 6951   3.126   9.180   7.681  0.0326 -0.1955 -0.1392
 2888W        W 6952   1.827   8.743   2.685 -0.1462  0.0502 -0.0429
 2889W        W 6953   7.148   7.154   0.030 -0.1001 -0.3716 -0.1112
 2890W        W 6954   0.080   1.107   9.567 -0.3532  0.2388  0.0663
 2891W        W 6955   5.970   7.696   0.784  0.0749  0.0760  0.3226
 2892W        W 6956   1.965   6.870   0.359  0.4320  0.3104 -0.0814
 2893W        W 6957   4.466   8.379  10.295 -0.0212  0.0424  0.2603
 2894W        W 6958   9.815   5.166   3.503 -0.3256 -0.1483  0.2786
 2895W        W 6959   8.107   1.050   8.518 -0.0406  0.2551 -0.0901
 2896W        W 6960   9.747   6.940   7.402  0.0425  0.0072 -0.0116
 2897W        W 6961   1.009   2.218  10.161 -0.0007 -0.0592 -0.0099
 2898W        W 6962   7.577   0.728   9.966 -0.1288 -0.1098  0.4554
 2899W        W 6963   9.020   2.888  10.754  0.1644  0.1952 -0.2152
 2900W        W 6964   6.668   4.355   3.406 -0.0518 -0.1594 -0.1544
 2901W        W 6965   0.115   6.064   1.990 -0.0471  0.2180  0.1958
 2902W        W 6966   2.336   1.221   9.197 -0.2023 -0.0558 -0.1891
 2903W        W 6967   1.261   4.991   8.087 -0.1321  0.0283  0.0766
 2904W        W 6968   2.829   7.408   1.269  0.1673  0.2616  0.1664
 2905W        W 6969   4.947   3.470   8.500 -0.1033  0.0055 -0.0896
 2906W        W 6970   2.109   9.887   9.452 -0.0797  0.0454  0.1855
 2907W        W 6971   8.080   8.046   8.616  0.1365  0.0609  0.6295
 2908W        W 6972  10.547   0.038   1.674 -0.1597 -0.2405  0.1771
 2909W        W 6973   1.376   4.281   8.839 -0.1054 -0.2622 -0.0044
 2910W        W 6974   5.952   7.884   6.722 -0.2319 -0.0450  0.0721
 2911W        W 6975   9.212   2.447   9.295 -0.1120  0.1223 -0.1387
 2912W        W 6976   5.906   2.813   0.888 -0.2191 -0.0528  0.0233
 2913W        W 6977   9.436   2.430   0.077  0.2415 -0.0943  0.2053
 2914W        W 6978   8.555   4.356  11.169  0.1327 -0.0753  0.1289
 2915W        W 6979   8.808   0.241   2.376  0.2032 -0.2427 -0.1190
 2916W        W 6980   8.948   0.747   0.326 -0.1372  0.3206 -0.1523
 2917W        W 6981   1.015   1.830  11.139 -0.1612  0.1435  0.0273
 2918W        W 6982   2.585   8.048   9.369  0.1835 -0.4707 -0.0380
 2919W        W 6983  10.465   6.319   0.976  0.1693  0.0922  0.3228
 2920W        W 6984   3.475   3.499   1.659 -0.0069 -0.2860  0.3520
 2921W        W 6985   3.733   0.565   9.410 -0.0188  0.0763 -0.6248
 2922W        W 6986   6.028   4.933   0.352  0.0258 -0.2321  0.0878
 2923W        W 6987   9.165   2.163   8.856  0.2229  0.0865 -0.0563
 2924W        W 6988   7.189   1.196  11.170  0.0377 -0.0208 -0.1282
 2925W        W 6989   7.542   3.141   8.560  0.0173  0.0160 -0.2109
 2926W        W 6990   7.613   6.594  10.704 -0.1315  0.0414 -0.0965
 2927W        W 6991   4.643   1.048   0.082  0.0513  0.1687  0.0168
 2928W        W 6992   4.302   5.928   0.158  0.1074 -0.0837  0.0177
 2929W        W 6993   5.031   8.160  10.397  0.4293 -0.0792  0.1963
 2930W        W 6994   9.117   3.613   7.550 -0.0985 -0.2764  0.2269
 2931W        W 6995   1.211   5.641   8.641  0.1411  0.0204  0.0385
 2932W        W 6996   6.568   4.754   3.136 -0.0402  0.0523 -0.1195
 2933W        W 6997   1.156   8.126   0.220  0.2412 -0.1597 -0.1764
 2934W        W 6998   8.405   0.767   8.139 -0.0371 -0.0166  0.1062
 2935W        W 6999   1.095   1.875   9.235  0.0226 -0.1434 -0.2748
 2936W        W 7000  10.486   0.556   9.710 -0.3469 -0.0441 -0.1429
 2937W        W 7001  10.098   1.571   7.757 -0.1235 -0.0641  0.0123
 2938W        W 7002   5.436   5.371   8.828  0.0122  0.0301  0.0716
 2939W        W 7003   5.271   5.942  10.640 -0.0462  0.0318 -0.1695
 2940W        W 7004   2.594   2.894   1.735 -0.1500 -0.0021 -0.3173
 2941W        W 7005   8.133   1.286   9.177  0.2263 -0.1437 -0.2852
 2942W        W 7006   8.458   0.663   2.611 -0.1094 -0.2662 -0.3396
 2943W        W 7007   1.085   9.768   8.239 -0.0498  0.3441  0.2492
 2944W        W 7008   5.567   7.512   9.679  0.1224  0.2440  0.2424
 2945W        W 7009   8.668   1.183   0.306  0.0608  0.0879 -0.1149
 2946W        W 7010   5.369   4.411   7.989  0.0187  0.1414  0.1057
 2947W        W 7011   8.121   8.903   9.931 -0.0039  0.0027 -0.0526
 2948W        W 7012   7.925   1.374  11.291 -0.2674 -0.0167 -0.2324
 2949W        W 7013   5.269   9.507   8.770  0.2535 -0.0734  0.0934
 2950W        W 7014   2.839   8.404   3.006  0.0819  0.0551 -0.0323
 2951W        W 7015   6.506   6.696  10.239 -0.0446  0.0333 -0.0674
 2952W        W 7016   1.812   8.988   0.680 -0.1560  0.1119  0.1998
 2953W        W 7017   2.975   1.839   1.996  0.0368  0.1582  0.0236
 2954W        W 7018   1.594   6.488  11.233 -0.1048 -0.0790  0.0488
 2955W        W 7019   7.248   5.078   2.573  0.1090 -0.0386  0.0761
 2956W        W 7020   3.244   3.778   0.854  0.2791  0.1679  0.1309
 2957W        W 7021   0.957   3.972   4.146  0.4615  0.1638 -0.1587
 2958W        W 7022   4.234   9.694   1.281 -0.4751 -0.1062  0.2082
 2959W        W 7023   6.691   2.639   0.246  0.1851  0.0779 -0.0151
 2960W        W 7024   1.363   7.557  10.846 -0.0877  0.2586 -0.0905
 2961W        W 7025   7.456   1.742  10.155 -0.0710 -0.1006  0.1216
 2962W        W 7026   1.358   7.276   1.664  0.2957 -0.2031  0.0158
 2963W        W 7027   5.173   4.722   1.822  0.0931 -0.0162  0.3775
 2964W        W 7028  10.581   6.677   9.637  0.3057 -0.3369  0.1961
 2965W        W 7029   3.557   2.146  10.488 -0.1464  0.1381 -0.0509
 2966W        W 7030   7.594   7.485   8.808  0.2212 -0.0962 -0.1461
 2967W        W 7031   4.530   9.597   7.498  0.0019  0.1189  0.2830
 2968W        W 7032  10.412   0.871  11.352  0.3665 -0.1092  0.2835
 2969W        W 7033   4.695   3.683   2.689 -0.1851  0.0375  0.1836
 2970W        W 7034   9.353   4.508   7.614 -0.0052 -0.2007 -0.0332
 2971W        W 7035   4.847   6.785   9.711 -0.1126  0.3121  0.2436
 2972W        W 7036   8.067   4.972   0.617 -0.2390 -0.3670 -0.2066
 2973W        W 7037   1.517   0.366   9.183  0.0408 -0.0982  0.3249
 2974W        W 7038   8.029   1.648  10.932 -0.0095 -0.2764  0.2468
 2975W        W 7039   7.759   3.060   2.862  0.1353  0.3045  0.3946
 2976W        W 7040   5.654   5.039   9.114 -0.0527  0.2912 -0.1757
 2977W        W 7041   2.551   3.283   1.421  0.2028  0.0353  0.0546
 2978W        W 7042   6.110   5.489   1.053 -0.0994  0.1203  0.0324
 2979W        W 7043   2.260   5.528  11.217  0.0595  0.2031  0.0671
 2980W        W 7044   4.382   0.012  10.971  0.1470  0.0995 -0.0362
 2981W        W 7045   3.768   4.665   1.425 -0.0864  0.1394 -0.0956
 2982W        W 7046   8.238   9.265   9.246  0.3259 -0.3651 -0.0814
 2983W        W 7047   7.461   2.292   2.424 -0.0703  0.0434 -0.0853
 2984W        W 7048   9.335   4.135   9.250 -0.1492 -0.0443  0.0303
 2985W        W 7049   3.997   5.050   8.062  0.1072 -0.2000  0.2088
 2986W        W 7050   0.820   3.674   3.585 -0.2227  0.0692 -0.0718
 2987W        W 7051   2.549   9.124   7.879 -0.2451 -0.0802 -0.2525
 2988W        W 7052  10.041   3.834  10.651 -0.3853  0.0386  0.0398
 2989W        W 7053   3.422   1.293   8.648  0.1834  0.2198  0.1903
 2990W        W 7054   7.898   0.472  10.310 -0.0719  0.1440  0.1178
 2991W        W 7055   2.317   1.847   7.093 -0.2929 -0.1470  0.0364
 2992W        W 7056   5.207  10.456   2.081 -0.1611 -0.0684  0.0142
 2993W        W 7057   3.167   5.518  11.036 -0.4740  0.4793 -0.0250
 2994W        W 7058   3.311   7.334   1.649  0.4060 -0.1379 -0.2445
 2995W        W 7059  10.556   5.711   0.132  0.1486  0.0451 -0.2859
 2996W        W 7060   4.129   0.849   8.729  0.3311 -0.0869 -0.1039
 2997W        W 7061   2.270   9.807   9.929 -0.1124  0.2810  0.0539
 2998W        W 7062   9.570   6.889   9.505 -0.0107 -0.0272 -0.2095
 2999W        W 7063   1.308   5.835   3.310  0.0575 -0.0115  0.4047
 3000W        W 7064   9.539   0.745   0.453  0.0823 -0.0914 -0.0748
 3001W        W 7065   9.003   0.753   2.510  0.2375  0.2293 -0.2017
 3002W        W 7066   2.526   4.221   0.410  0.2884 -0.2379  0.0300
 3003W        W 7067   2.714   7.634  10.786  0.1586  0.0338  0.0797
 3004W        W 7068   7.762   4.874   7.067 -0.0407  0.1076  0.0026
 3005W        W 7069   9.094   7.871   8.619  0.4134 -0.1413 -0.0100
 3006W        W 7070   7.222   7.464   0.400  0.3650  0.0978 -0.2475
 3007W        W 7071   8.960   9.745   6.967  0.0667  0.0014  0.0171
 3008W        W 7072   1.394  10.196   1.201  0.1386  0.1564  0.2639
 3009W        W 7073   1.968   5.298   3.030 -0.2030  0.1676 -0.0917
 3010W        W 7074   3.517   0.309   0.632 -0.1315  0.1006  0.0911
 3011W        W 7075   4.006   2.831   2.592 -0.0469  0.0656  0.0004
 3012W        W 7076   1.414   1.154   8.757 -0.1714 -0.0087  0.0688
 3013W        W 7077   2.735   7.135  11.031  0.0849 -0.0072 -0.1167
 3014W        W 7078   5.621   5.990   2.278 -0.1654 -0.3785 -0.0972
 3015W        W 7079   4.835   9.100   8.914 -0.2215 -0.0503 -0.0870
 3016W        W 7080   4.056   8.620   0.700  0.0479 -0.2084 -0.0155
 3017W        W 7081   2.203   6.380   1.141  0.0547 -0.0952 -0.2755
 3018W        W 7082   5.083   7.018   0.777  0.4465 -0.1454  0.1239
 3019W        W 7083   6.935   7.990   1.306  0.0694 -0.3086 -0.2991
 3020W        W 7084   0.986   9.821   1.126  0.1252 -0.0340 -0.2653
 3021W        W 7085   1.127   0.373   0.312  0.1250  0.2268 -0.4772
 3022W        W 7086   9.052   2.069  10.323  0.1187 -0.1005 -0.1296
 3023W        W 7087   8.264   9.573   1.867  0.2642  0.1710  0.0484
 3024W        W 7088   3.575   0.206   7.511  0.6689  0.0289 -0.0112
 3025W        W 7089   8.183   1.957   8.674  0.0047 -0.1423 -0.0879
 3026W        W 7090   3.608   7.892   1.193 -0.0694  0.1601 -0.0003
 3027W        W 7091   2.302   7.249   1.063 -0.1404 -0.5501 -0.1515
 3028W        W 7092   9.773   8.196   1.628  0.1054 -0.0452  0.0317
 3029W        W 7093   2.462   6.310   2.592 -0.0966  0.1089  0.1675
 3030W        W 7094   7.999   9.674   2.294  0.0834 -0.1654  0.0492
 3031W        W 7095   9.690   6.136  11.256  0.0506 -0.4475  0.1846
 3032W        W 7096   7.898   1.829   9.257 -0.0545  0.0736 -0.2792
 3033W        W 7097   2.551   8.752  10.738  0.4966 -0.0478  0.1865
 3034W        W 7098   5.406   5.415   1.598 -0.0598 -0.0821 -0.3175
 3035W        W 7099   1.215   1.330  11.196 -0.2937 -0.0317  0.0715
 3036W        W 7100   1.632   5.963   0.488  0.0125  0.3622 -0.1059
 3037W        W 7101   2.232   7.640   0.699  0.0357 -0.3096  0.0730
 3038W        W 7102   1.014   2.256   1.798 -0.0482 -0.0184  0.0626
 3039W        W 7103   3.899   3.832   9.300 -0.3276  0.0869 -0.3886
 3040W        W 7104   5.382   3.228   8.640  0.1081  0.1141  0.2205
 3041W        W 7105   2.477   4.574   1.666 -0.1824  0.1623  0.0050
 3042W        W 7106   4.327   9.262   0.972 -0.0495 -0.1242  0.1100
 3043W        W 7107   4.236   7.357  10.222 -0.1827 -0.2511 -0.1333
 3044W        W 7108   6.474   7.291  10.567  0.0108  0.2023 -0.1073
 3045W        W 7109   0.312   7.017   2.805 -0.1509 -0.4482  0.1904
 3046W        W 7110   3.705   3.026   0.396 -0.3568 -0.3592  0.0542
 3047W        W 7111   1.663   5.849   1.545 -0.2459  0.0842 -0.2512
 3048W        W 7112   5.107   2.486   7.000  0.1972  0.0947  0.0252
 3049W        W 7113   2.483   3.748   0.219 -0.2806  0.5153 -0.3517
 3050W        W 7114   6.930  10.219   8.558 -0.1206 -0.4200  0.1851
 3051W        W 7115   8.431   4.323   9.777 -0.1255 -0.3151 -0.0478
 3052W        W 7116   2.112   2.306  10.323  0.0150 -0.0439  0.0759
 3053W        W 7117   9.779   6.206  10.400  0.1186  0.1578  0.0840
 3054W        W 7118   1.854   2.697   0.308  0.0954 -0.1852 -0.0562
 3055W        W 7119   3.484   6.108   9.803 -0.2258  0.0189  0.2354
 3056W        W 7120   2.917   5.343   0.543 -0.0931 -0.0072 -0.0892
 3057W        W 7121   5.769   4.104   2.268 -0.0431 -0.3818  0.0850
 3058W        W 7122   5.108   0.549   6.742 -0.0077  0.2851 -0.0707
 3059W        W 7123   6.235   6.345  11.184  0.0501 -0.0334  0.2331
 3060W        W 7124   0.231   0.967   1.380 -0.1041 -0.0448  0.3018
 3061W        W 7125   6.647   3.870   7.548 -0.0274  0.0125 -0.1630
 3062W        W 7126   1.153  10.330   0.300 -0.1628 -0.0946  0.0814
 3063W        W 7127   8.025   0.006  10.294 -0.2131  0.2215  0.1958
 3064W        W 7128   6.755   9.835   6.797 -0.1324  0.0684 -0.2961
 3065W        W 7129  10.732  10.203   0.951 -0.0760 -0.0612 -0.0801
 3066W        W 7130   8.400   3.386   2.143 -0.0001 -0.1175  0.1814
 3067W        W 7131   0.385   6.030  10.804 -0.0586 -0.5267 -0.2360
 3068W        W 7132   5.960  10.191  10.371  0.1020 -0.1856  0.1085
 3069W        W 7133   7.398   2.501   8.861 -0.2224 -0.1124 -0.0526
 3070W        W 7134   9.835   1.977   1.617 -0.0113  0.0471 -0.0078
 3071W        W 7135   9.918   9.172   1.442  0.0681  0.0223 -0.1785
 3072W        W 7136   8.576   7.744   1.167  0.1091  0.1045 -0.1083
 3073W        W 7137   7.416  10.307   2.986 -0.3142  0.0467  0.0826
 3074W        W 7138   9.594   2.082  10.276 -0.0438  0.2877  0.2004
 3075W        W 7139   2.657   7.298   4.018  0.0673 -0.2727 -0.0142
 3076W        W 7140   2.594   2.333   1.548 -0.0691 -0.0067 -0.0103
 3077W        W 7141   6.563   5.805  11.088  0.1247 -0.0636  0.1189
 3078W        W 7142   6.660   1.139   1.802  0.1948  0.0318 -0.3986
 3079W        W 7143   5.752  10.565   9.534  0.1716  0.1338 -0.1697
 3080W        W 7144   2.786   7.590   9.107  0.1294 -0.3367 -0.3196
 3081W        W 7145   4.261   2.618   7.378  0.0005 -0.0646  0.2508
 3082W        W 7146   7.716   6.075   2.072 -0.0301 -0.2805  0.1924
 3083W        W 7147   9.571   1.005  10.860  0.1436 -0.0586  0.3626
 3084W        W 7148  10.107   7.708   9.198  0.0093  0.0165 -0.1251
 3085W        W 7149   7.209   9.412   6.800 -0.2721 -0.1949 -0.3495
 3086W        W 7150   6.880   5.653   0.774  0.2533  0.0950 -0.1056
 3087W        W 7151   4.382   7.535   3.201  0.0593  0.2179  0.3377
 3088W        W 7152   2.551   1.631   9.009 -0.2528 -0.0835 -0.2658
 3089W        W 7153   2.821   9.720   0.785  0.0997 -0.1610 -0.1264
 3090W        W 7154  10.050   3.243   0.223 -0.1019  0.0233 -0.0477
 3091W        W 7155   6.881   2.795   8.111  0.1623 -0.0033  0.0142
 3092W        W 7156   1.876   5.832  11.033 -0.0111 -0.0197  0.0101
 3093W        W 7157   5.761   1.315  10.775  0.4189 -0.0951  0.1217
 3094W        W 7158   3.225  10.460   2.605  0.2075  0.1552 -0.0690
 3095W        W 7159  10.527   9.914   2.877  0.4897  0.0971 -0.1505
 3096W        W 7160   8.801   4.848  11.162 -0.0762 -0.0398 -0.0737
 3097W        W 7161   6.116   2.967   8.291  0.1716 -0.0635  0.1082
 3098W        W 7162   8.303   2.155   1.481  0.2048 -0.0881  0.0576
 3099W        W 7163   6.595   5.097  11.270 -0.0410 -0.1397 -0.2189
 3100W        W 7164   9.465   8.395   2.944  0.0740  0.3061  0.1518
 3101W        W 7165   4.868   2.560  11.008 -0.1127 -0.4612  0.1761
 3102W        W 7166   3.723   1.035   1.975  0.0075 -0.3210  0.1966
 3103W        W 7167   5.789   8.771   0.106 -0.2841  0.2389 -0.2903
 3104W        W 7168   1.412   8.854   8.773  0.1453 -0.1370 -0.1816
 3105W        W 7169   6.582   2.752   9.003  0.0608  0.3827  0.3058
 3106W        W 7170   1.972   2.385   1.473 -0.2704  0.1127 -0.0013
 3107W        W 7171   3.811   5.772   8.157  0.0511 -0.0682 -0.0850
 3108W        W 7172   6.196   3.457   8.153 -0.2271  0.0272  0.3093
 3109W        W 7173   7.312   0.694  10.428  0.0652  0.0708 -0.0891
 3110W        W 7174   1.015   7.060   0.282 -0.0299 -0.0263  0.0691
 3111W        W 7175   2.903   0.320   1.245  0.1038  0.0777  0.0458
 3112W        W 7176   8.363   6.642   0.822 -0.0804  0.0667 -0.0281
 3113W        W 7177   1.612   9.863   3.043  0.0765 -0.0157 -0.1680
 3114W        W 7178   4.837   0.102   2.207  0.1129  0.2120  0.1669
 3115W        W 7179   3.383   9.677  10.638 -0.1888  0.0916  0.1813
 3116W        W 7180   8.543   7.769   8.739  0.1442 -0.0714  0.0324
 3117W        W 7181   1.956   4.129   9.528 -0.2836  0.0225 -0.0966
 3118W        W 7182   9.688   9.791   7.276  0.3134  0.1471 -0.3596
 3119W        W 7183   4.541   1.147   2.966 -0.0719 -0.2407 -0.3091
 3120W        W 7184   7.618   8.986   7.773 -0.1750  0.0474 -0.4326
 3121W        W 7185   4.399   9.699  10.778  0.1589 -0.1922 -0.3177
 3122W        W 7186   8.904   6.784   9.469  0.1222  0.0131  0.0487
 3123W        W 7187   4.073   9.745   0.793 -0.3516  0.1247 -0.3757
 3124W        W 7188   2.457   6.755   9.601  0.1886 -0.2614  0.1867
 3125W        W 7189   7.617   5.701  10.410  0.1922 -0.1549  0.0688
 3126W        W 7190   0.387   8.483   2.226  0.0050  0.0254 -0.0449
 3127W        W 7191   3.609   6.590   0.621 -0.2182 -0.0223  0.2486
 3128W        W 7192   6.688   2.135  10.067 -0.0757 -0.1250  0.0820
 3129W        W 7193   6.813   7.987   8.261 -0.0250  0.1131  0.0093
 3130W        W 7194   9.844   4.938   8.591  0.2485 -0.0267 -0.1270
 3131W        W 7195   4.412   7.328   2.669 -0.0807  0.0167  0.3043
 3132W        W 7196   9.476   4.419  10.805 -0.0082 -0.0200 -0.1465
 3133W        W 7197   2.122   8.435   7.804 -0.1873  0.0028  0.0197
 3134W        W 7198   6.350   0.328   0.641 -0.2723  0.0059 -0.0172
 3135W        W 7199   8.115   4.006  11.135 -0.1695 -0.3446 -0.2941
 3136W        W 7200   6.684   4.260   0.701  0.1809 -0.2096 -0.6877
 3137W        W 7201  10.007   1.577   1.999  0.1160 -0.0991 -0.0590
 3138W        W 7202   2.559   9.313   9.817 -0.0823  0.3451 -0.0604
 3139W        W 7203   0.281   0.671   8.997  0.1917 -0.0361 -0.3780
 3140W        W 7204   1.955   3.062  10.448  0.0196 -0.1408 -0.2397
 3141W        W 7205   8.580   9.399   6.949 -0.2361  0.1829  0.2162
 3142W        W 7206   1.947   0.099   7.889  0.4254  0.1639 -0.2939
 3143W        W 7207   3.029  10.026   2.530 -0.0606  0.1954 -0.2435
 3144W        W 7208   9.465   0.920   7.212 -0.1223 -0.0220  0.1014
 3145W        W 7209   8.556   0.520   9.768 -0.1076  0.0107  0.1747
 3146W        W 7210   3.078   6.138   3.332 -0.3648  0.3079 -0.1710
 3147W        W 7211  10.017   2.919   1.406  0.2012  0.2627  0.0146
 3148W        W 7212   0.196  10.506   8.336 -0.0410 -0.0244 -0.1071
 3149W        W 7213   1.551   4.881   9.238 -0.1392  0.0872 -0.0219
 3150W        W 7214   6.116   6.300   1.074 -0.1803  0.0529  0.1215
 3151W        W 7215   6.753   8.550  11.282 -0.0040  0.0434 -0.1719
 3152W        W 7216   6.996  10.124   1.476 -0.0943  0.1273  0.2023
 3153W        W 7217  10.046   8.232   8.362 -0.5911  0.0431  0.2313
 3154W        W 7218   8.645   7.237   1.970  0.1794 -0.0322 -0.1758
 3155W        W 7219   4.112  10.091   0.446 -0.1211 -0.1707  0.6013
 3156W        W 7220   5.271   2.602   8.623  0.1711 -0.0552  0.0728
 3157W        W 7221   5.028  10.429   2.516 -0.2477 -0.1198 -0.1583
 3158W        W 7222   7.676   4.076  11.387 -0.0036  0.2416  0.0779
 3159W        W 7223   3.663   5.515   0.829 -0.1339 -0.1654  0.0125
 3160W        W 7224   5.567   5.441   2.115  0.0857 -0.0696  0.3105
 3161W        W 7225   1.526   3.572  11.105 -0.0736 -0.2164  0.2272
 3162W        W 7226   6.721   4.380   7.437 -0.1791 -0.0885 -0.2452
 3163W        W 7227   2.976   0.955   7.830  0.1854  0.1595 -0.0299
 3164W        W 7228   6.645   4.943   0.368  0.2953  0.0491 -0.1112
 3165W        W 7229   0.723   8.429   1.858  0.2761  0.0642  0.0057
 3166W        W 7230   8.552   4.892  10.144  0.1133  0.1083 -0.0438
 3167W        W 7231   8.374   2.837   7.741  0.2173 -0.0506  0.1033
 3168W        W 7232  10.676   9.592   7.141 -0.0204 -0.2346  0.2225
 3169W        W 7233   8.247   9.638   8.330 -0.3621  0.0096  0.1060
 3170W        W 7234  10.247   9.684  11.386 -0.2147 -0.3097 -0.0266
 3171W        W 7235   7.695   7.713   0.804  0.0207 -0.0167 -0.0728
 3172W        W 7236   9.803   2.928   2.022  0.1843  0.2641 -0.0585
 3173W        W 7237   6.963   5.691   9.181  0.0643  0.0923 -0.1656
 3174W        W 7238   6.788   5.775   3.670 -0.0518  0.1375  0.2612
 3175W        W 7239   6.277   5.287   0.170 -0.2602  0.0451 -0.0170
 3176W        W 7240   9.583   0.746   1.002  0.1879  0.0910  0.2234
 3177W        W 7241   5.837   0.232   7.246  0.0168  0.2448  0.0405
 3178W        W 7242   4.657   2.956   8.073  0.0979  0.0503 -0.1188
 3179W        W 7243   8.444   1.150   2.337  0.2304  0.3226 -0.1385
 3180W        W 7244   3.917   7.057   9.237 -0.0974  0.0648 -0.6080
 3181W        W 7245   4.345   5.777  10.338 -0.0311 -0.0047  0.1960
 3182W        W 7246   4.174   6.929   8.871 -0.1204 -0.0243  0.2235
 3183W        W 7247   5.091   3.147  10.853  0.0758 -0.0199 -0.2295
 3184W        W 7248   3.332  10.402   7.642  0.1430  0.0225  0.1604
 3185W        W 7249   4.494   5.000   9.672  0.2962  0.1223  0.1664
 3186W        W 7250   0.711   6.052   9.940 -0.2509 -0.2823  0.2882
 3187W        W 7251   5.463   0.417   8.830  0.1127 -0.2145 -0.0829
 3188W        W 7252   9.963   3.204   2.468 -0.0060 -0.1295  0.1510
 3189W        W 7253   4.973   2.675   0.879  0.0052 -0.1617 -0.1150
 3190W        W 7254   2.008   1.003   8.483 -0.2627  0.2149  0.0898
 3191W        W 7255  10.403   7.951   0.590 -0.2591  0.0015  0.1354
 3192W        W 7256  10.712   9.385   9.216 -0.0550 -0.1593 -0.1453
 3193W        W 7257   4.158   4.632  11.260 -0.0906  0.3398  0.1481
 3194W        W 7258   0.720   3.696  10.925 -0.4283  0.1235  0.1395
 3195W        W 7259   4.806   5.091  11.001 -0.0040 -0.1879  0.2067
 3196W        W 7260   1.031   1.359   2.874  0.1452 -0.0376  0.1110
 3197W        W 7261   6.127   8.800   9.576  0.0632  0.0963  0.2569
 3198W        W 7262   6.691   1.112   3.195 -0.2150 -0.2570  0.4083
 3199W        W 7263   8.566   5.720   0.885  0.2717  0.0526  0.0943
 3200W        W 7264   2.341   9.564   0.485  0.2953  0.0099 -0.1909
 3201W        W 7265   6.719   5.457   7.581  0.1561  0.1894  0.0232
 3202W        W 7266   2.353   0.088   2.469  0.0775 -0.1371  0.2930
 3203W        W 7267   6.686   0.327   6.732  0.2635 -0.2931 -0.1520
 3204W        W 7268   9.581   2.679   2.530 -0.1352  0.0575  0.3609
 3205W        W 7269   9.082   3.077   7.183 -0.1423 -0.1254  0.0059
 3206W        W 7270   0.112   3.707   0.134  0.2127  0.1175 -0.0600
 3207W        W 7271  10.082   0.370  11.098 -0.2939 -0.2202  0.1937
 3208W        W 7272   1.069   2.734  10.739 -0.1190  0.0242 -0.1401
 3209W        W 7273   3.604   8.198   1.967  0.1804  0.3991 -0.0677
 3210W        W 7274   3.034   8.926   0.460  0.0301  0.0639 -0.0138
 3211W        W 7275   6.462   2.118   2.000  0.1585  0.1327 -0.0753
 3212W        W 7276   7.939   1.527   6.803  0.1158  0.0507  0.0674
 3213W        W 7277   0.120   3.188   1.415 -0.0908  0.1902  0.4476
 3214W        W 7278   0.347   4.707   3.143  0.0471  0.1319 -0.2145
 3215W        W 7279   9.949   8.421   2.532  0.0341  0.0288  0.0305
 3216W        W 7280   0.085   5.956   8.169 -0.1442  0.2937  0.3808
 3217W        W 7281   5.867   1.098  10.321 -0.0436 -0.1623 -0.0457
 3218W        W 7282   2.554   4.871  11.223 -0.0545 -0.0439  0.0717
 3219W        W 7283   4.641   5.815   9.398  0.0810  0.1980 -0.0442
 3220W        W 7284   2.293   5.848   3.665  0.2061  0.1526 -0.0580
 3221W        W 7285   2.839   1.295   7.424 -0.1798  0.2601 -0.4034
 3222W        W 7286   5.976   3.181   7.732 -0.2039 -0.1294  0.0700
 3223W        W 7287   2.041   4.896   9.145 -0.0687  0.1427  0.1770
 3224W        W 7288   4.527   9.390   2.200  0.0168 -0.0604  0.0932
 3225W        W 7289   3.152   5.065   8.749 -0.1516  0.1899  0.0820
 3226W        W 7290  10.332   1.954  10.924 -0.1064 -0.1923 -0.0924
 3227W        W 7291   9.087   9.983   0.611  0.0570 -0.2709 -0.0563
 3228W        W 7292   9.203   3.102   1.913 -0.0263  0.0777 -0.2833
 3229W        W 7293   1.294   8.836   9.412 -0.2321  0.1400 -0.2379
 3230W        W 7294   3.723   5.195   1.578 -0.0644 -0.2377  0.2317
 3231W        W 7295   8.573   9.488   0.895  0.1121 -0.0771  0.1979
 3232W        W 7296   0.240   7.103  10.503 -0.1534 -0.1912  0.1389
 3233W        W 7297   3.970   7.311   8.622  0.1883  0.1040 -0.0928
 3234W        W 7298   3.657   3.562   8.074  0.0386 -0.1280  0.3589
 3235W        W 7299   6.137   6.219  10.702 -0.2400 -0.0201 -0.2261
 3236W        W 7300   5.156   0.850  11.286 -0.1796  0.2618 -0.0585
 3237W        W 7301   8.769   4.488   3.206 -0.1592 -0.0121  0.0177
 3238W        W 7302   6.738   0.009  10.585 -0.0187 -0.1072 -0.1929
 3239W        W 7303   1.836  10.515   9.882 -0.0673 -0.3806  0.0832
 3240W        W 7304   9.619   6.270   2.466  0.0284  0.1398  0.3802
 3241W        W 7305   4.686   9.277  10.851  0.0738  0.1854 -0.1995
 3242W        W 7306   7.140   3.717   7.412 -0.0896  0.0230 -0.1054
 3243W        W 7307   9.436   4.121  11.281 -0.1847 -0.0344  0.0982
 3244W        W 7308   4.007   9.082   7.255  0.0041 -0.3017  0.0783
 3245W        W 7309   4.270   3.909   8.892 -0.4508 -0.0442 -0.1022
 3246W        W 7310   5.343   6.494   3.016 -0.0079  0.0386 -0.3462
 3247W        W 7311   8.216   2.522   3.536 -0.1201  0.0788  0.2623
 3248W        W 7312   2.689   6.309   9.358  0.2793 -0.1761  0.1356
 3249W        W 7313   8.344   7.125  11.087 -0.0963  0.0401 -0.0121
 3250W        W 7314   8.427   6.688   1.321 -0.1246  0.5291 -0.0278
 3251W        W 7315   6.935  10.221  10.566  0.1679 -0.0194  0.0535
 3252W        W 7316   3.598   8.434   0.753 -0.0129 -0.0640  0.1529
 3253W        W 7317   8.889   7.338   9.339  0.2006  0.4356  0.0421
 3254W        W 7318   1.541   2.923   3.974 -0.0060  0.4447 -0.0813
 3255W        W 7319   9.266   4.769   0.814 -0.3292  0.1408  0.2192
 3256W        W 7320   6.389   6.129   3.614 -0.1178  0.1705 -0.2410
 3257W        W 7321   0.879   1.782   0.935  0.4249 -0.2314 -0.0498
 3258W        W 7322   8.677   1.095   8.387 -0.0101 -0.2860 -0.4898
 3259W        W 7323   3.736   1.828   2.352 -0.2822  0.2121 -0.1632
 3260W        W 7324   1.693   7.823   8.875  0.4964 -0.2152  0.4109
 3261W        W 7325   0.596   8.443   0.620 -0.1869 -0.2455 -0.2213
 3262W        W 7326   5.950   5.149   2.145 -0.0976  0.1652  0.1549
 3263W        W 7327   9.307   1.254   8.154  0.1913 -0.1200 -0.0084
 3264W        W 7328   9.584   7.501   0.988 -0.1096 -0.0630 -0.1306
 3265W        W 7329  10.665   4.492   2.139 -0.2479  0.1958  0.0580
 3266W        W 7330   0.455   7.856   1.361 -0.1436 -0.0330  0.0189
 3267W        W 7331   9.601   8.024   8.464  0.1862  0.4825  0.1592
 3268W        W 7332   4.090   6.855  10.171 -0.0988 -0.1089 -0.3557
 3269W        W 7333   7.084   3.398   9.303  0.2233 -0.5666 -0.1876
 3270W        W 7334   7.747   6.377   7.152 -0.2067  0.1186 -0.1784
 3271W        W 7335   1.280   2.569   7.695 -0.1680 -0.3238  0.0633
 3272W        W 7336   5.780   7.201   0.858  0.0289  0.2439 -0.1390
 3273W        W 7337   8.801   8.915   1.764  0.0801  0.2480  0.2420
 3274W        W 7338   1.543   4.161   0.889  0.2045 -0.1352  0.1563
 3275W        W 7339   8.104  10.175   0.761  0.0436  0.2501 -0.2414
 3276W        W 7340   3.172   7.404  11.236 -0.1088 -0.1059 -0.2879
 3277W        W 7341   3.957   5.925   2.918 -0.1121 -0.0025  0.2694
 3278W        W 7342   8.009   3.339  11.131  0.4406  0.2131 -0.1982
 3279W        W 7343   0.641   3.007   9.744 -0.2079 -0.0906  0.1391
 3280W        W 7344   2.937   6.499   2.426  0.5975 -0.1232 -0.0216
 3281W        W 7345   0.680  10.147   1.504 -0.4786 -0.0749  0.1069
 3282W        W 7346   8.689   5.827   7.740 -0.0313 -0.1567  0.3636
 3283W        W 7347   6.477  10.174   6.513  0.1830 -0.1034 -0.0629
 3284W        W 7348   3.219   5.963   1.987  0.1122 -0.0587 -0.2840
 3285W        W 7349   6.228   6.877   0.493 -0.2327  0.1345 -0.2865
 3286W        W 7350   5.534   7.288   0.464  0.1609  0.2409 -0.3734
 3287W        W 7351   2.272   4.737   0.309 -0.0732  0.0543 -0.0333
 3288W        W 7352   7.256   7.847  10.144 -0.0470 -0.3579 -0.3942
 3289W        W 7353   3.424   5.687   9.285 -0.1045  0.1032  0.2287
 3290W        W 7354   5.274   2.636   0.433  0.0260 -0.1053 -0.2601
 3291W        W 7355   1.395   5.042   3.670 -0.2848  0.0112  0.1614
 3292W        W 7356   0.111   4.251   0.013 -0.1769 -0.2564 -0.1165
 3293W        W 7357   0.744   8.169   9.149  0.2465  0.0658  0.0083
 3294W        W 7358   8.333   1.159   0.737 -0.1616  0.1075 -0.2473
 3295W        W 7359   6.599   2.517   2.285  0.0966  0.3447  0.2068
 3296W        W 7360   5.349   2.981   0.889  0.1205  0.0912 -0.0731
 3297W        W 7361   0.913   8.336   9.980  0.1585  0.0135 -0.3114
 3298W        W 7362   4.414   5.996   0.682  0.1947  0.0138 -0.0632
 3299W        W 7363   5.249   2.864   7.337  0.1777  0.0333  0.2886
 3300W        W 7364   6.375   2.962  10.303 -0.0147  0.1345  0.1755
 3301W        W 7365   2.914   9.082   1.037 -0.0626 -0.0526  0.1107
 3302W        W 7366   1.312   0.263   8.760 -0.0519  0.1326  0.1204
 3303W        W 7367  10.446   9.600   2.481 -0.0489 -0.1366 -0.3069
 3304W        W 7368   7.547   3.836   2.013 -0.1030 -0.3013 -0.0861
 3305W        W 7369   9.681   0.708   9.952  0.2762 -0.0200  0.0816
 3306W        W 7370   4.020   1.560   2.087 -0.2231  0.0408  0.3795
 3307W        W 7371   6.745   2.017   2.382  0.0779 -0.1452 -0.1490
 3308W        W 7372   6.855   2.010   8.402  0.0259  0.0447  0.1114
 3309W        W 7373   4.378   0.098  10.122 -0.1351  0.1057  0.0139
 3310W        W 7374   4.610   7.597   2.062 -0.4016 -0.3919  0.1188
 3311W        W 7375   6.568   1.851  10.547 -0.2525 -0.1393  0.0547
 3312W        W 7376   3.899   4.826   0.283  0.0631 -0.0023 -0.2169
 3313W        W 7377  10.560   5.420   3.038  0.4508  0.0817 -0.2407
 3314W        W 7378   7.338   8.269   9.211 -0.2092 -0.3019 -0.0317
 3315W        W 7379   6.908   5.651   1.354 -0.1160  0.1441  0.1606
 3316W        W 7380   7.604   5.738   2.686 -0.1852  0.0442  0.1210
 3317W        W 7381   5.283   2.977  10.444 -0.0439  0.2957  0.1541
 3318W        W 7382   6.782   8.041  11.081  0.1068  0.0194  0.1623
 3319W        W 7383   4.808   9.309   0.740  0.1537 -0.0839  0.1914
 3320W        W 7384   4.820   8.725   9.275  0.0450 -0.3056 -0.0910
 3321W        W 7385   1.729   7.618   1.744  0.2685  0.0224 -0.1907
 3322W        W 7386   6.705   2.001   9.131 -0.1712 -0.2590 -0.0578
 3323W        W 7387   0.092   2.287   0.971  0.0198  0.0814 -0.0277
 3324W        W 7388   9.997   4.194   3.232  0.0037 -0.1332 -0.0280
 3325W        W 7389   7.064   0.984  10.121 -0.3693 -0.0328  0.0994
 3326W        W 7390   3.544   9.008   1.577  0.0424 -0.0578 -0.1478
 3327W        W 7391   5.089   5.270   2.021  0.1381 -0.0670  0.0846
 3328W        W 7392  10.689  10.441   1.379  0.2665  0.2757  0.2032
 3329W        W 7393   3.277  10.333   8.145 -0.0315  0.2653 -0.2792
 3330W        W 7394   6.302   0.514   7.151  0.1553  0.3368 -0.1518
 3331W        W 7395   6.701   4.729  10.593 -0.0373  0.0178 -0.0642
 3332W        W 7396   9.230   6.505   1.688 -0.4171  0.1393  0.0406
 3333W        W 7397   6.547   9.360   1.500  0.1757 -0.2359 -0.0015
 3334W        W 7398  10.256   7.556  10.058 -0.0069  0.1791  0.0388
 3335W        W 7399   6.550   2.111   1.472  0.1078  0.1885  0.1107
 3336W        W 7400   5.842   5.308   9.488 -0.1222  0.1775 -0.0452
 3337W        W 7401   9.807   1.690   0.542  0.0784  0.0033  0.2304
 3338W        W 7402   2.112   2.805  10.978 -0.1039  0.0385  0.0148
 3339W        W 7403   0.167   1.660  10.806  0.2426 -0.0019 -0.1993
 3340W        W 7404   4.900   0.245   1.668 -0.1196 -0.0856 -0.1583
 3341W        W 7405   1.635   1.299   9.622  0.0176  0.1508  0.0670
 3342W        W 7406   2.283   0.323   2.041  0.0539  0.0193  0.2001
 3343W        W 7407   6.307   0.913   7.539 -0.4724 -0.1288 -0.2637
 3344W        W 7408   1.910   7.214   0.790  0.2603  0.0301 -0.1965
 3345W        W 7409   7.332   8.234  11.236  0.0056  0.2819 -0.0142
 3346W        W 7410   7.501   2.248   9.731 -0.3247 -0.0440 -0.1795
 3347W        W 7411   4.005   9.866   1.793  0.1916 -0.1762 -0.1449
 3348W        W 7412   1.273   3.663  10.163  0.0827 -0.2906 -0.1314
 3349W        W 7413   1.815   4.510  10.433  0.2107  0.0982  0.1159
 3350W        W 7414   2.006   1.853  11.040 -0.1272  0.4295  0.0171
 3351W        W 7415   8.367  10.248   3.382 -0.4207 -0.3827  0.0826
 3352W        W 7416   4.137   6.600   0.904  0.0138 -0.1266 -0.2572
 3353W        W 7417   6.922   9.394   8.702 -0.4096 -0.0119 -0.0859
 3354W        W 7418   9.928  10.354  11.092 -0.1859  0.0345  0.0932
 3355W        W 7419   7.629   7.817   1.634 -0.2521  0.1751 -0.1412
 3356W        W 7420   2.560   2.312   8.928  0.2706  0.3487  0.1501
 3357W        W 7421   6.985  10.036   3.180  0.0392 -0.0935  0.0385
 3358W        W 7422   7.347   9.106   1.231  0.1764 -0.0591 -0.1015
 3359W        W 7423   4.620   6.055   8.922  0.1142 -0.0346  0.1193
 3360W        W 7424   6.570   4.847   9.319 -0.1133  0.1419  0.0431
 3361W        W 7425   8.871   6.380   2.019  0.5225 -0.0338  0.1281
 3362W        W 7426   7.418  10.257   8.612  0.1542  0.1811 -0.1277
 3363W        W 7427   1.527   4.116   0.346 -0.1056  0.1811 -0.0863
 3364W        W 7428   1.738   9.267   1.634  0.0290 -0.0432 -0.1188
 3365W        W 7429   6.791   6.899   0.272  0.3774 -0.0748  0.0231
 3366W        W 7430   4.051   3.785  10.131  0.0428  0.1838  0.0879
 3367W        W 7431   8.415   9.388  11.029  0.2437  0.0137 -0.0834
 3368W        W 7432   9.118   8.573  11.229 -0.0436 -0.1235  0.0783
 3369W        W 7433   7.156   5.130   3.791 -0.2146  0.1059 -0.1640
 3370W        W 7434   9.925  10.116  10.616 -0.0206 -0.2625  0.0410
 3371W        W 7435   5.460   5.007   2.227 -0.1712  0.0276  0.3024
 3372W        W 7436   3.118   2.828   3.112 -0.0198 -0.2119  0.0821
 3373W        W 7437   1.553   0.816   0.445  0.3219 -0.2560 -0.1607
 3374W        W 7438   7.650  10.336   8.046  0.0838  0.2143 -0.2094
 3375W        W 7439   3.105   1.717   0.696  0.0362 -0.2791 -0.0857
 3376W        W 7440   5.865   3.252   9.058  0.0546  0.1193 -0.2184
 3377W        W 7441   9.043   9.589   1.557 -0.2442 -0.0697 -0.0033
 3378W        W 7442   1.171   5.262  11.329 -0.2387 -0.1471  0.1320
 3379W        W 7443   3.822  10.189   8.914 -0.0510  0.0704 -0.1948
 3380W        W 7444   4.162   2.878   1.672 -0.2571  0.0355 -0.1402
 3381W        W 7445   8.840   1.152   2.024  0.1133  0.1278  0.0030
 3382W        W 7446   7.688   6.976   8.910  0.2124  0.0723  0.0641
 3383W        W 7447   8.437   4.708   2.922 -0.3843 -0.2139 -0.0078
 3384W        W 7448   2.440  10.531   2.063  0.1093  0.3548  0.2637
 3385W        W 7449   7.140  10.695   9.274 -0.2278  0.1130  0.0881
 3386W        W 7450   3.348   5.348   2.052  0.0188  0.2818 -0.1919
 3387W        W 7451   1.239  10.472   7.817 -0.1610  0.0133  0.2283
 3388W        W 7452   8.452   4.214   8.032  0.1157 -0.1298 -0.1465
 3389W        W 7453   0.017   3.243   9.430  0.0699 -0.1815  0.4004
 3390W        W 7454   6.738   5.421   8.453  0.1454  0.1263  0.1618
 3391W        W 7455   5.659  10.534   0.494  0.0517  0.2258 -0.2641
 3392W        W 7456   5.563   0.122   7.757 -0.0447  0.1314  0.1590
 3393W        W 7457   5.322   8.607   8.528 -0.0992  0.0687 -0.2308
 3394W        W 7458   2.873   0.337   0.043 -0.0626  0.3820  0.0715
 3395W        W 7459   6.267   5.033   1.741  0.1362  0.0883  0.0775
 3396W        W 7460   7.618   9.279   2.439  0.2284 -0.1466  0.1688
 3397W        W 7461   2.821   4.407  10.347 -0.2400  0.1057  0.0943
 3398W        W 7462   8.242   4.443   1.857  0.0964 -0.0937  0.0707
 3399W        W 7463   2.534   6.379   2.066 -0.2126 -0.0615  0.1591
 3400W        W 7464   6.829   2.629   7.639  0.3638 -0.3800 -0.2544
 3401W        W 7465  10.146  10.055  10.191 -0.0347 -0.0290  0.2049
 3402W        W 7466   1.949   9.863   8.069  0.2331 -0.1485 -0.0944
 3403W        W 7467   5.223   0.584   2.588 -0.1528  0.1067  0.1432
 3404W        W 7468   8.954   0.447   9.352  0.2958 -0.3089 -0.0198
 3405W        W 7469   2.617   2.970  11.021 -0.1493  0.1651  0.1099
 3406W        W 7470  10.597   3.048  10.813  0.2633  0.0816  0.2766
 3407W        W 7471   0.214   1.890   8.927  0.0700  0.1051  0.0920
 3408W        W 7472   5.287   2.423   8.152 -0.0063 -0.0451 -0.0771
 3409W        W 7473   4.609   8.987   3.154  0.0096 -0.1090  0.2027
 3410W        W 7474   5.001   8.028   8.390 -0.2514 -0.0737 -0.2168
 3411W        W 7475   6.911   5.686   3.203 -0.1877 -0.0813  0.1627
 3412W        W 7476   9.119   5.920   1.801 -0.1925 -0.1331 -0.2989
 3413W        W 7477   5.928   0.011   9.086  0.0588  0.0001  0.1995
 3414W        W 7478   6.364   5.258   2.393  0.0939 -0.2525  0.0539
 3415W        W 7479   0.006   7.455  10.095  0.0666  0.0596 -0.0152
 3416W        W 7480   9.746   2.543   1.663 -0.0472 -0.0488  0.1374
 3417W        W 7481   4.170   5.440   2.895 -0.1603 -0.1874  0.1204
 3418W        W 7482  10.131   1.114   0.696  0.0503  0.3604 -0.1003
 3419W        W 7483   0.934   3.348   9.941  0.3625  0.1435 -0.3397
 3420W        W 7484   2.631   9.482  10.783 -0.0306 -0.2134  0.1553
 3421W        W 7485   6.546   1.237   8.903  0.0533  0.1464 -0.0727
 3422W        W 7486   2.794   4.912   9.539  0.1347 -0.2597 -0.0572
 3423W        W 7487   3.620   9.225  10.834  0.3019 -0.1201  0.0413
 3424W        W 7488   9.337   8.655   9.482  0.2573  0.3578 -0.2112
 3425W        W 7489   0.275   5.654   1.592  0.0368 -0.5364  0.0523
 3426W        W 7490   5.511   9.512   1.417 -0.1596  0.0478  0.2824
 3427W        W 7491   2.158   8.488   1.942  0.0789 -0.1525  0.2610
 3428W        W 7492   8.385   4.036   2.374 -0.1155 -0.2303 -0.1659
 3429W        W 7493   1.086   2.696   3.345  0.4019 -0.0608  0.0844
 3430W        W 7494   7.856  10.573   2.106  0.0061 -0.4348  0.1972
 3431W        W 7495   0.407   6.520   9.940  0.1303 -0.0974  0.0954
 3432W        W 7496   4.996   1.920   9.644 -0.0259  0.0495 -0.1386
 3433W        W 7497   7.147   3.680   1.663 -0.1181  0.6989 -0.1322
 3434W        W 7498   4.948   5.655   1.663 -0.1356 -0.0890 -0.1324
 3435W        W 7499   2.609   8.491  10.312 -0.0394 -0.0084  0.1642
 3436W        W 7500   0.924   9.234  10.005  0.1012 -0.2069  0.0733
 3437W        W 7501   5.232   1.642   7.515  0.2381 -0.3139 -0.3454
 3438W        W 7502   6.341  10.607   2.646 -0.3518  0.3629  0.1919
 3439W        W 7503   2.738   8.517   0.290  0.2255  0.1092  0.0367
 3440W        W 7504   1.731   3.242   0.103 -0.2237  0.2356  0.1372
 3441W        W 7505   7.587   5.134   9.104 -0.2169 -0.0450 -0.1759
 3442W        W 7506   0.767   8.218   2.458  0.1365 -0.3987  0.0237
 3443W        W 7507   2.850   6.877   1.943 -0.3504  0.0877  0.0124
 3444W        W 7508   1.221   7.261  10.463  0.0035  0.0296  0.2081
 3445W        W 7509   0.314   8.304   9.364 -0.3102  0.0782  0.1975
 3446W        W 7510   6.821   0.183   1.904 -0.1297  0.0618  0.0706
 3447W        W 7511   4.761   6.914   2.719  0.0520 -0.1258  0.0880
 3448W        W 7512   0.684   7.081   9.503  0.1074  0.1802  0.3772
 3449W        W 7513   5.147   3.813  10.452  0.2172  0.0131 -0.0944
 3450W        W 7514   8.006   0.143   9.281 -0.0009  0.2266  0.1721
 3451W        W 7515   0.976   0.753   2.572 -0.2349  0.0398  0.2146
 3452W        W 7516   9.789   1.386   9.152 -0.1317  0.4440  0.1022
 3453W        W 7517   0.972   1.319   1.141  0.1000  0.2502  0.4373
 3454W        W 7518   2.686   3.098   8.486 -0.0879 -0.1955 -0.0410
 3455W        W 7519   0.859   5.246   0.441 -0.0304  0.3447 -0.0695
 3456W        W 7520   8.136   6.565  10.786 -0.0885 -0.2145  0.0517
 3457W        W 7521   1.437   8.450   9.040 -0.0010  0.0791  0.1151
 3458W        W 7522   8.637   7.368  10.557 -0.2530  0.0709 -0.0438
 3459W        W 7523   6.507   2.495  10.383 -0.1356 -0.1641 -0.3646
 3460W        W 7524   4.218   7.916  11.136  0.0396 -0.0740  0.2110
 3461W        W 7525   5.905   5.898   7.638  0.0239 -0.1980 -0.1160
 3462W        W 7526   4.594   0.555   9.049 -0.3553 -0.1413  0.1825
 3463W        W 7527   7.039   9.801   9.708 -0.0746 -0.0790  0.0098
 3464W        W 7528   0.998   0.621   1.661 -0.2179 -0.0010 -0.0686
 3465W        W 7529   2.334   7.603   9.408  0.1616 -0.1258  0.2878
 3466W        W 7530   1.618  10.657  10.717  0.0654 -0.1028 -0.3067
 3467W        W 7531   8.388   5.324   1.139 -0.1434  0.1968  0.1163
 3468W        W 7532   3.420   4.327   1.037  0.1777  0.0917  0.2815
 3469W        W 7533   8.293   8.024   2.177  0.0654  0.0925  0.1922
 3470W        W 7534   2.347   4.788   1.218 -0.3512 -0.4179 -0.3194
 3471W        W 7535   6.461   5.339   0.671  0.0059  0.1309  0.0971
 3472W        W 7536   6.901   9.393   1.111 -0.0433  0.0849  0.1056
 3473W        W 7537   0.493   1.386   7.210 -0.1835 -0.0310 -0.3702
 3474W        W 7538   4.024   9.584   7.494  0.1769 -0.0066  0.1021
 3475W        W 7539   3.384   1.374  11.037 -0.1123  0.3397 -0.1316
 3476W        W 7540   4.659   4.165   7.971  0.1185 -0.0342  0.1504
 3477W        W 7541   2.813   2.995   0.600 -0.1140  0.0743 -0.1298
 3478W        W 7542   7.429   1.857   1.031 -0.0644  0.5174  0.2205
 3479W        W 7543   5.112   4.172   7.721 -0.0808  0.1748  0.3083
 3480W        W 7544   6.815   1.561   7.596 -0.3169  0.3799 -0.1108
 3481W        W 7545   3.640  10.534   2.157 -0.2604  0.3687 -0.1329
 3482W        W 7546   4.211  10.077  10.432  0.2234  0.0952  0.0972
 3483W        W 7547   0.517   1.604   2.436 -0.0051 -0.4851 -0.1878
 3484W        W 7548   8.635   4.651  10.687 -0.0737 -0.1245  0.0735
 3485W        W 7549   8.271   9.834   2.691 -0.1641 -0.1091 -0.2280
 3486W        W 7550   7.634   6.121   9.883 -0.1773 -0.0950  0.0186
 3487W        W 7551   7.396  10.678   7.777 -0.1534 -0.3199  0.2035
 3488W        W 7552   8.172   7.566   0.001 -0.4105  0.0782 -0.0025
 3489W        W 7553   4.837   8.845  11.007 -0.2455  0.1227  0.1537
 3490W        W 7554   0.888   7.569   9.168  0.1036  0.0502  0.1707
 3491W        W 7555   3.282   7.880   7.869 -0.1077  0.1832  0.1560
 3492W        W 7556  10.698   3.532   4.048 -0.1263  0.1744  0.1731
 3493W        W 7557   0.000   3.427  10.287  0.2906  0.0634 -0.0033
 3494W        W 7558   7.123   2.997  10.798  0.2779 -0.1554 -0.2023
 3495W        W 7559   5.473   1.826   0.925 -0.0857 -0.2009 -0.0266
 3496W        W 7560   3.078   4.892   0.560 -0.3248  0.1329  0.0736
 3497W        W 7561   0.436   9.225   1.762  0.2509  0.1520  0.2101
 3498W        W 7562   3.857   1.374   0.997 -0.0874 -0.0786  0.2891
 3499W        W 7563   8.007   7.943   0.342 -0.2911  0.0944  0.3146
 3500W        W 7564   6.786   3.544   0.638 -0.1664 -0.1164 -0.2192
 3501W        W 7565   9.101   8.502   0.850  0.2476  0.1841  0.0906
 3502W        W 7566   9.992   1.571   3.896 -0.0397 -0.0473 -0.1310
 3503W        W 7567   9.264   5.544   8.620  0.0505 -0.1373 -0.3647
 3504W        W 7568   5.411   7.428   2.986 -0.0435  0.0825  0.0051
 3505W        W 7569   1.729   8.418   2.191  0.1244  0.1991  0.2444
 3506W        W 7570   6.671   2.958   2.054  0.0168 -0.0971 -0.0414
 3507W        W 7571   4.222   0.092   0.878  0.0646 -0.0044  0.0645
 3508W        W 7572   6.189   4.640  10.259  0.0133  0.3515  0.0689
 3509W        W 7573   0.984   6.212   9.381 -0.2190 -0.0934  0.0649
 3510W        W 7574   2.753   5.061   1.013 -0.1451 -0.1889 -0.1497
 3511W        W 7575   3.034  10.616  11.277  0.3052  0.4470  0.0095
 3512W        W 7576   2.864   8.224   8.973  0.2079 -0.3106  0.1539
 3513W        W 7577   7.163   5.025  10.697  0.2314  0.2221 -0.1283
 3514W        W 7578   4.073   7.251   0.901  0.1358 -0.0381 -0.4511
 3515W        W 7579   1.582   1.834  11.400  0.0085 -0.0901 -0.2616
 3516W        W 7580   0.115   8.852  10.419  0.1414  0.2358 -0.0836
 3517W        W 7581   3.533   4.369   2.720 -0.2457 -0.2792  0.1461
 3518W        W 7582   3.803   2.039   8.193  0.0351 -0.0516  0.1803
 3519W        W 7583   9.546   5.677   9.793  0.0498  0.0204  0.0304
 3520W        W 7584   8.987   0.172   7.834  0.1677  0.0373 -0.2333
 3521W        W 7585  10.692   4.938   1.991  0.1145 -0.0188  0.3039
 3522W        W 7586   1.424   3.127   3.459  0.1540 -0.1080  0.0447
 3523W        W 7587   9.164   5.565   0.240  0.0242 -0.1912 -0.0651
 3524W        W 7588   6.841   7.246   7.775 -0.2514 -0.0142  0.1587
 3525W        W 7589   7.777   7.721   8.331  0.0341 -0.0601 -0.1006
 3526W        W 7590   9.667   7.783  11.264 -0.0828  0.1999 -0.0611
 3527W        W 7591   4.039   6.454   8.396  0.3148  0.1076 -0.0166
 3528W        W 7592   5.505   1.616   1.949 -0.0986  0.0206 -0.1028
 3529W        W 7593   0.088   0.219   9.268 -0.2453 -0.0140 -0.3941
 3530W        W 7594   1.526   9.318   9.378 -0.1748  0.0417  0.1709
 3531W        W 7595   6.972   0.512  10.781  0.0313 -0.0147 -0.3425
 3532W        W 7596   8.571   2.560   1.259 -0.0716  0.3247  0.2431
 3533W        W 7597  10.205   1.380   0.171 -0.0126  0.0924 -0.3015
 3534W        W 7598   2.634   8.598   1.247  0.1418 -0.0817  0.1410
 3535W        W 7599   8.737   9.215  10.055 -0.0075  0.0679 -0.2182
 3536W        W 7600   9.496  10.478  10.421 -0.0547 -0.0032  0.0760
 3537W        W 7601   5.154   8.858   1.546 -0.1998 -0.1185 -0.0971
 3538W        W 7602   3.370   9.143   2.552 -0.1106  0.3629 -0.3065
 3539W        W 7603   2.642   9.466   8.334 -0.0393  0.4119 -0.0834
 3540W        W 7604   2.650   1.252   1.365  0.3561  0.0136  0.0059
 3541W        W 7605   5.327   4.292   8.472 -0.0948 -0.2942  0.1091
 3542W        W 7606   3.277   2.015   2.851 -0.0271 -0.0513  0.0275
 3543W        W 7607   5.280   7.703   3.365 -0.2249 -0.2132 -0.1240
 3544W        W 7608   5.649  10.559  10.435 -0.3279  0.0111 -0.3960
 3545W        W 7609   6.864   7.686   2.928 -0.0911 -0.1158 -0.2014
 3546W        W 7610  10.031   9.452   7.960  0.1589 -0.0135  0.0006
 3547W        W 7611   1.960   7.721   1.222  0.2121 -0.0037 -0.2774
 3548W        W 7612   5.408   1.558   9.610 -0.0074  0.1889 -0.1633
 3549W        W 7613   9.253   1.802   8.399 -0.3032 -0.0583 -0.3333
 3550W        W 7614  10.341   7.930   1.233 -0.0966 -0.2431 -0.2460
 3551W        W 7615  10.574   8.553   2.435  0.3662  0.0142  0.0061
 3552W        W 7616   8.944   3.895   2.692 -0.0901 -0.2254 -0.1978
 3553W        W 7617  10.224   6.664   9.982  0.4160 -0.2719  0.6444
 3554W        W 7618   4.263  10.151   1.482 -0.0090  0.0265  0.0161
 3555W        W 7619   3.401   5.652  10.320  0.3297  0.0632  0.2545
 3556W        W 7620   8.305   4.235   9.273 -0.1735 -0.1336 -0.0988
 3557W        W 7621   9.976   0.375   9.722 -0.1595 -0.4208  0.5821
 3558W        W 7622   0.077  10.122   7.175  0.3351 -0.0866 -0.3336
 3559W        W 7623   7.313   0.071   1.006 -0.0424  0.3007  0.2787
 3560W        W 7624   8.713  10.307   9.941 -0.1974 -0.1527  0.0028
 3561W        W 7625   9.380   9.673   9.491  0.0709  0.0672 -0.0026
 3562W        W 7626   7.225   6.531   3.610 -0.0765  0.1585 -0.1380
 3563W        W 7627   1.125   2.174   1.275 -0.0531  0.2342  0.1589
 3564W        W 7628   1.830  10.126   2.685  0.0399 -0.0475  0.0172
 3565W        W 7629   7.934   3.087   1.455 -0.1960 -0.1616  0.1108
 3566W        W 7630   9.818   6.349   8.950  0.0697 -0.1477  0.2118
 3567W        W 7631   4.430   8.075   9.415 -0.1730 -0.2804 -0.0746
 3568W        W 7632   3.206  10.662   9.458 -0.0593  0.2997 -0.2794
 3569W        W 7633   0.119   0.184   2.042  0.1060 -0.2331 -0.4192
 3570W        W 7634   7.360   5.630   1.647 -0.2407 -0.0376 -0.0769
 3571W        W 7635   3.134   0.045   0.355  0.0112  0.2165  0.2971
 3572W        W 7636   4.947   3.538  11.125  0.1763  0.3709  0.0444
 3573W        W 7637   3.766   5.072   1.073  0.2129  0.0067  0.0820
 3574W        W 7638   9.726   5.757  10.877  0.0532 -0.1440  0.0656
 3575W        W 7639   1.033  10.285   9.097  0.0091 -0.0360 -0.0157
 3576W        W 7640  10.351   4.036   9.733  0.1587 -0.1476 -0.0010
 3577W        W 7641   7.936   8.456   9.987  0.0500 -0.1207  0.0388
 3578W        W 7642   6.705   4.879   3.611 -0.0998 -0.1187 -0.1649
 3579W        W 7643   5.720   0.299  10.482 -0.0176  0.1470 -0.0659
 3580W        W 7644   0.441   7.998   0.184  0.0486  0.1343 -0.2248
 3581W        W 7645   7.111   3.398  11.102 -0.0611 -0.1737  0.0515
 3582W        W 7646   7.074   8.182   2.808 -0.1910 -0.2989 -0.1283
 3583W        W 7647   0.120   3.690   9.201  0.3027 -0.0802 -0.1011
 3584W        W 7648   0.199   5.699   3.750 -0.1812  0.2418 -0.1255
 3585W        W 7649   7.156   1.833   8.021 -0.0108 -0.1052  0.2240
 3586W        W 7650   5.648   8.471  10.392 -0.3463 -0.1625  0.0793
 3587W        W 7651   7.746   9.913   8.845 -0.2463  0.0325  0.2697
 3588W        W 7652   3.523   3.908  10.166 -0.0609 -0.0162 -0.1268
 3589W        W 7653   4.147   0.890   2.208 -0.0791 -0.1013 -0.1098
 3590W        W 7654   5.933   9.647   8.010  0.0959  0.0192 -0.0339
 3591W        W 7655   9.726  10.714   9.398 -0.0096 -0.1619  0.0403
 3592W        W 7656   1.359   1.827  10.306 -0.1789  0.1448 -0.0954
 3593W        W 7657   5.708   9.190   0.445 -0.0658 -0.1021 -0.2035
 3594W        W 7658   2.683  10.476  10.916 -0.1422 -0.2756  0.0106
 3595W        W 7659   6.198   0.798   8.944 -0.1445 -0.2349 -0.1138
 3596W        W 7660   8.899   3.323   2.184  0.1184  0.1668 -0.2082
 3597W        W 7661   8.917   9.049   0.210  0.0114 -0.2565  0.3186
 3598W        W 7662   6.286   3.145   8.719  0.1645 -0.0693 -0.0586
 3599W        W 7663   4.616   6.032   7.889  0.0524 -0.4634  0.1322
 3600W        W 7664   7.464   6.944   1.220 -0.2133 -0.1863 -0.0365
 3601W        W 7665   7.106   2.698   0.570 -0.1741 -0.0532  0.1667
 3602W        W 7666   7.728   7.784   9.281 -0.0201 -0.0335  0.0347
 3603W        W 7667   3.591   6.757   7.530  0.0622  0.0698 -0.2230
 3604W        W 7668   4.069   3.318   0.165  0.0009  0.0459  0.2861
 3605W        W 7669   3.699   2.031  10.038 -0.1056  0.1351 -0.0029
 3606W        W 7670   4.333   8.354   8.981  0.1039  0.1615  0.4798
 3607W        W 7671   2.174   7.526  10.501 -0.0798 -0.0936 -0.0779
 3608W        W 7672   1.038  10.683   0.645 -0.0041  0.1098 -0.1797
 3609W        W 7673   1.318   8.052   1.040  0.2580  0.0320  0.2599
 3610W        W 7674   6.181   5.931   2.763 -0.2988 -0.1648 -0.0216
 3611W        W 7675   3.440   3.976   7.291 -0.2687  0.0952 -0.1376
 3612W        W 7676   3.392   2.477   7.248 -0.1012 -0.0959 -0.0848
 3613W        W 7677   2.596   1.787   1.565  0.0202  0.2059  0.1334
 3614W        W 7678   7.420   8.577   0.389 -0.0536  0.1095 -0.2200
 3615W        W 7679   2.462   0.106   8.122 -0.2040 -0.1996  0.0131
 3616W        W 7680   0.709   9.398   6.970 -0.1854  0.2949 -0.3773
 3617W        W 7681   4.817   9.391   6.649 -0.0782 -0.2683 -0.0567
 3618W        W 7682   8.087   5.709   9.097  0.2778 -0.0299 -0.0774
 3619W        W 7683   1.009  10.015  10.850 -0.2224 -0.0272  0.0760
 3620W        W 7684   0.303   6.373   1.650  0.1325  0.1106 -0.2078
 3621W        W 7685   7.980   0.586   6.587 -0.0178  0.0284 -0.2387
 3622W        W 7686   5.057   6.210   7.710 -0.0086 -0.0519  0.1040
 3623W        W 7687   8.735   2.442   8.512 -0.0941 -0.1277  0.2584
 3624W        W 7688   2.336   3.796   2.271  0.2348 -0.0583  0.2601
 3625W        W 7689  10.124   5.501   1.829 -0.0699 -0.0984 -0.1698
 3626W        W 7690   9.777   7.303   0.113  0.0534 -0.1390 -0.1463
 3627W        W 7691   4.394   8.250   1.421  0.0436 -0.0813 -0.0017
 3628W        W 7692   8.968  10.694   6.833  0.1244 -0.1511 -0.2881
 3629W        W 7693   6.598   7.510   8.477 -0.0428  0.0654 -0.2434
 3630W        W 7694   6.084   8.312   3.241 -0.0881  0.0113  0.2171
 3631W        W 7695   8.973  10.180   7.989  0.1135 -0.1809  0.0617
 3632W        W 7696   9.586   0.486   1.852 -0.2542 -0.2244  0.1857
 3633W        W 7697   3.359  10.155   3.017 -0.1637  0.0721  0.2483
 3634W        W 7698   4.434   3.222   2.679  0.1248  0.1133  0.2023
 3635W        W 7699   3.086   6.939   2.948  0.1976  0.5897 -0.2098
 3636W        W 7700   7.428   8.767   9.024  0.3076  0.1443 -0.1049
 3637W        W 7701   9.650   7.367   9.225 -0.3277 -0.0733  0.0575
 3638W        W 7702   5.140   1.650   8.661 -0.2284 -0.1101  0.0295
 3639W        W 7703   3.226   4.707   2.517  0.0206 -0.0663  0.1311
 3640W        W 7704   0.196   2.751   9.189 -0.0465 -0.0550 -0.4761
 3641W        W 7705   8.198   7.618  10.433  0.1984  0.0311 -0.0353
 3642W        W 7706   5.246   6.579   0.588 -0.2350  0.0379  0.2354
 3643W        W 7707   6.322   4.140  11.344  0.0908 -0.1471  0.2447
 3644W        W 7708   2.005   3.794   3.713 -0.0634  0.0433  0.2731
 3645W        W 7709   5.890   1.182   6.776 -0.1515 -0.0256  0.1757
 3646W        W 7710   4.470   1.186   8.985  0.0205  0.0023 -0.3493
 3647W        W 7711   7.492   6.668   3.189  0.0360 -0.2240  0.4173
 3648W        W 7712   6.923   5.746   1.891 -0.0868  0.3402 -0.0150
 3649W        W 7713   8.036   9.426   9.662  0.0900 -0.2378 -0.1875
 3650W        W 7714   9.052   5.315  11.167 -0.0890  0.0612 -0.3328
 3651W        W 7715  10.410   2.680   2.401  0.0321  0.0386 -0.2795
 3652W        W 7716   3.109   2.818   2.584  0.1775  0.0811  0.0374
 3653W        W 7717   1.736   2.542  10.609  0.2244 -0.0178  0.0835
 3654W        W 7718   0.213   1.877   3.505  0.0164  0.0765 -0.1206
 3655W        W 7719   6.920   8.151  10.462  0.0364 -0.3016  0.0194
 3656W        W 7720   4.742   0.463   9.522 -0.1158  0.0519  0.6322
 3657W        W 7721   0.762   0.919   8.126  0.5452 -0.2942  0.1430
 3658W        W 7722   6.228   8.704   8.977 -0.0278 -0.2175 -0.0173
 3659W        W 7723   5.510   9.656   3.738  0.0367 -0.1898  0.1371
 3660W        W 7724   9.710   9.826   7.809 -0.3489 -0.2003  0.0327
 3661W        W 7725   7.596   5.972   0.200  0.2596 -0.1581  0.1628
 3662W        W 7726   3.731   6.840   2.460 -0.0750  0.1853 -0.0558
 3663W        W 7727   3.830   3.872  10.596 -0.1217 -0.4258  0.0836
 3664W        W 7728   2.706  10.104   2.142  0.1537 -0.0671 -0.0984
 3665W        W 7729   4.784   9.472   8.568  0.0689 -0.3674  0.0296
 3666W        W 7730   8.089   4.415   1.340 -0.0881 -0.0083 -0.0240
 3667W        W 7731   5.246   7.689   9.286  0.1367  0.0375 -0.0080
 3668W        W 7732  10.538  10.386  10.056 -0.3240  0.3458  0.1846
 3669W        W 7733   2.976   7.785   1.720 -0.0763 -0.4151 -0.3528
 3670W        W 7734  10.519   5.028   2.736  0.1041 -0.1643 -0.2111
 3671W        W 7735   0.070   4.149   2.877  0.3722 -0.3787  0.2394
 3672W        W 7736   5.994   1.170   9.798 -0.0163  0.3192 -0.2670
 3673W        W 7737   8.797   7.933   2.003 -0.0905  0.6171  0.0589
 3674W        W 7738   3.714   4.219   9.623 -0.0012 -0.1159  0.0757
 3675W        W 7739   7.962   9.220   0.372 -0.0125 -0.1089 -0.1110
 3676W        W 7740   4.199   3.090   9.501  0.1318  0.3708 -0.0065
 3677W        W 7741  10.458   8.801   8.424 -0.0846  0.1487  0.3936
 3678W        W 7742   1.450   0.889   1.395 -0.1542  0.1398  0.3751
 3679W        W 7743   9.448   3.209   7.661 -0.1964 -0.0340  0.0539
 3680W        W 7744   8.289   8.561   2.697  0.1987 -0.0398 -0.3350
 3681W        W 7745   1.315   8.355  10.975 -0.0806  0.1406 -0.3276
 3682W        W 7746   8.009   0.395   8.140  0.3731  0.5868 -0.0264
 3683W        W 7747   4.941   4.595  10.855 -0.3311  0.1638  0.2298
 3684W        W 7748   2.382   7.190   0.475  0.4132 -0.0197 -0.0246
 3685W        W 7749   7.280   0.238  11.083 -0.0916 -0.4454  0.0441
 3686W        W 7750   6.643   6.190   0.016 -0.0272  0.1320  0.0375
 3687W        W 7751   9.311   3.579   9.230  0.2575  0.0298  0.1411
 3688W        W 7752   1.464   9.952   7.923  0.0084 -0.1828  0.2895
 3689W        W 7753   0.726   7.852   8.757 -0.1259 -0.1064  0.0469
 3690W        W 7754   7.434   8.542   7.876  0.2569  0.1021  0.0722
 3691W        W 7755   7.842   6.119   3.043  0.1279  0.0522 -0.2508
 3692W        W 7756   9.807   7.853   9.985  0.0476 -0.1117 -0.1198
 3693W        W 7757   5.775   6.581   9.378 -0.1069  0.1717 -0.0111
 3694W        W 7758   3.739  10.453   7.335 -0.0815 -0.1976 -0.0236
 3695W        W 7759   3.633   7.689   0.793 -0.0567  0.2099  0.2124
 3696W        W 7760   6.288   4.957   2.750  0.0474  0.2025  0.2040
 3697W        W 7761   5.193   9.760  11.006  0.0561  0.0010  0.1296
 3698W        W 7762   1.275   1.265   2.365  0.3145  0.1767 -0.2330
 3699W        W 7763  10.232   6.262   9.691  0.1716  0.1039  0.1669
 3700W        W 7764   6.920   6.984   2.442  0.1424 -0.3492  0.0681
 3701W        W 7765   3.892  10.159   3.212  0.2133  0.0824 -0.0077
 3702W        W 7766   2.017   1.615   1.058  0.0860 -0.2948 -0.0312
 3703W        W 7767   3.427   8.622   9.717 -0.0562 -0.4081  0.0607
 3704W        W 7768   9.349   6.521   7.867  0.3011 -0.1033  0.1043
 3705W        W 7769   5.020   2.193  10.168  0.0300  0.1215 -0.1886
 3706W        W 7770   7.740   8.073   1.152  0.3942  0.1693  0.1261
 3707W        W 7771   5.379   9.824   9.189 -0.0845  0.2740 -0.0344
 3708W        W 7772   1.448   5.442   0.346  0.2514  0.1342  0.0357
 3709W        W 7773   9.652   0.745   2.304  0.0875 -0.0337 -0.1794
 3710W        W 7774   0.724   2.013   2.166 -0.0068 -0.0257  0.2279
 3711W        W 7775   2.598   5.181  10.421  0.2202 -0.1828 -0.5964
 3712W        W 7776  10.290   6.177   1.444  0.0627 -0.0871 -0.0727
 3713W        W 7777   3.177   2.527   8.164  0.0972  0.1649 -0.2375
 3714W        W 7778   0.610   5.980   3.978  0.2304  0.3688 -0.1225
 3715W        W 7779   9.443   7.025  10.034  0.1525 -0.1367  0.0511
 3716W        W 7780   8.295   0.838   1.692  0.0077 -0.1680 -0.1221
 3717W        W 7781   8.718   9.366   1.885  0.2656  0.2843  0.1525
 3718W        W 7782   8.178   3.296   2.713 -0.4218  0.1580 -0.1742
 3719W        W 7783   6.280   2.042   9.741 -0.0265 -0.2613 -0.1991
 3720W        W 7784   9.756   3.549   2.732 -0.0542  0.0987  0.1371
 3721W        W 7785   1.730   5.689   9.555  0.0943  0.0271 -0.3414
 3722W        W 7786   0.127   0.910  10.420 -0.1380  0.1690 -0.1414
 3723W        W 7787  10.188   2.509   0.060  0.0700 -0.2969 -0.1450
 3724W        W 7788   7.977   1.008   0.270 -0.1437 -0.2818 -0.1312
 3725W        W 7789   2.621   1.385   1.900  0.2859  0.2979  0.1198
 3726W        W 7790   9.673   0.529   2.748  0.1059 -0.0512  0.0389
 3727W        W 7791   7.316   4.431   2.067  0.0617 -0.3674  0.1674
 3728W        W 7792   4.287   4.715  10.353  0.0161 -0.0923 -0.0103
 3729W        W 7793   9.628   9.514  10.026 -0.0269  0.1694 -0.0518
 3730W        W 7794   4.859   1.391   7.285 -0.0249 -0.1038 -0.3511
 3731W        W 7795   4.428   7.211   3.567 -0.1695  0.3380 -0.3297
 3732W        W 7796   9.855   7.978   2.173  0.1166 -0.1318 -0.0341
 3733W        W 7797   9.805   0.423   8.331 -0.0877  0.1766 -0.1099
 3734W        W 7798   7.177   6.801  10.435  0.1173  0.0502  0.1517
 3735W        W 7799   4.773   4.369  10.444  0.2521 -0.1113 -0.1223
 3736W        W 7800   7.379   1.154   2.538 -0.1523 -0.0016  0.0415
 3737W        W 7801   1.346   8.979   8.165 -0.1056  0.3298  0.3862
 3738W        W 7802   3.417   2.438   3.039  0.1423 -0.2858  0.0210
 3739W        W 7803   9.363   0.262   9.917  0.0262 -0.0399 -0.1379
 3740W        W 7804   8.920   7.153   0.401 -0.1776 -0.1281  0.2299
 3741W        W 7805   7.243   6.300   8.030  0.2584 -0.1438  0.0705
 3742W        W 7806   2.430   9.472   2.871 -0.1442  0.0038  0.0290
 3743W        W 7807   4.075   9.061  10.146  0.3226  0.0740 -0.1499
 3744W        W 7808   4.874   6.869   8.366 -0.0802 -0.0219 -0.1637
 3745W        W 7809   4.412   8.832  10.666  0.0636 -0.0267  0.0968
 3746W        W 7810  10.194   2.229   1.990 -0.1525 -0.3479  0.2655
 3747W        W 7811   1.493   0.788   8.410  0.1515  0.0011 -0.0530
 3748W        W 7812   3.609   8.361  10.646  0.0898 -0.0723 -0.0700
 3749W        W 7813   5.889   8.206   1.871  0.0226  0.1468  0.2443
 3750W        W 7814   6.515   0.392  10.067 -0.1953 -0.1029  0.1026
 3751W        W 7815   4.455   7.488   8.996  0.1711 -0.0288  0.0392
 3752W        W 7816   6.652   7.094   9.469 -0.0242  0.2922  0.2315
 3753W        W 7817   0.943   2.763  11.227 -0.2357  0.0832  0.1787
 3754W        W 7818  10.584   3.481   1.886 -0.2017  0.3886 -0.1553
 3755W        W 7819   4.793  10.269   2.987 -0.4611  0.0065 -0.4112
 3756W        W 7820   1.872   9.855  10.446 -0.2855 -0.3475  0.2281
 3757W        W 7821   5.675   1.222   2.828  0.2481 -0.1224  0.0879
 3758W        W 7822   8.719   8.138   0.779  0.0192 -0.1100  0.2783
 3759W        W 7823   3.289   6.792   2.218 -0.0078 -0.1465 -0.2375
 3760W        W 7824   6.103   3.605   1.476  0.2090 -0.1123 -0.0422
 3761W        W 7825   9.660   6.949   8.430  0.0963 -0.0270  0.0664
 3762W        W 7826   5.108   1.298   0.084 -0.1888  0.1593 -0.1488
 3763W        W 7827   3.952   9.830   8.280  0.1208 -0.1054 -0.1668
 3764W        W 7828   9.312   0.596  10.263  0.3251  0.2420 -0.5469
 3765W        W 7829   6.905   8.622  10.356 -0.0732  0.0553 -0.0224
 3766W        W 7830   8.495   6.104   9.084 -0.0922  0.1567 -0.1153
 3767W        W 7831   1.874   7.826  10.111  0.0142  0.1074  0.0305
 3768W        W 7832   1.924   5.638   0.147 -0.0406  0.3510 -0.0558
 3769W        W 7833   3.931  10.693  10.572 -0.2664 -0.4017  0.2832
 3770W        W 7834   7.116   2.752  10.317  0.0162 -0.2455  0.2612
 3771W        W 7835   7.660   8.370  10.808 -0.1493  0.0247 -0.3356
 3772W        W 7836   3.597   6.356  10.932  0.4084 -0.1783  0.1655
 3773W        W 7837   7.719   8.914  10.240 -0.1956  0.3897  0.3763
 3774W        W 7838   9.376   2.169   0.471 -0.0383 -0.2580  0.1729
 3775W        W 7839   7.259   9.443   2.035 -0.0353 -0.0211 -0.3497
 3776W        W 7840   4.607   0.244   7.446  0.0669  0.1282 -0.0292
 3777W        W 7841   6.091   1.319  11.165  0.0116 -0.0286 -0.1792
 3778W        W 7842   4.710   3.757  10.165 -0.0478  0.2610 -0.1426
 3779W        W 7843   7.649   7.879  11.068  0.2205 -0.2341 -0.4664
 3780W        W 7844   7.014   9.011   2.427  0.0565  0.0312 -0.1516
 3781W        W 7845   0.369   4.380   9.173 -0.0220 -0.1326  0.0707
 3782W        W 7846   5.128   4.217   3.375  0.0897 -0.3338  0.0532
 3783W        W 7847   6.216   7.468   8.947  0.0820  0.4138 -0.1743
 3784W        W 7848   2.071   7.963   9.301 -0.3479 -0.2060  0.1728
 3785W        W 7849  10.710   7.208   3.322 -0.3065  0.0085  0.2475
 3786W        W 7850   0.500   9.936   8.421 -0.1239 -0.0357 -0.0803
 3787W        W 7851   6.052   6.629   3.529 -0.0905  0.1904  0.1046
 3788W        W 7852   3.073   4.547   3.632  0.0198  0.0009 -0.1367
 3789W        W 7853   6.823   8.921  10.883  0.1425  0.0610 -0.0912
 3790W        W 7854   1.417   5.388   0.844 -0.2502  0.2790  0.1004
 3791W        W 7855   1.471   0.158   9.654 -0.2869 -0.2717 -0.1147
 3792W        W 7856   7.331   6.026   3.116  0.2816  0.1558 -0.0374
 3793W        W 7857   1.944   6.527  10.393  0.1631 -0.0798 -0.2693
 3794W        W 7858   4.091   1.624   7.752 -0.3293 -0.0133 -0.1876
 3795W        W 7859   6.595   1.285   0.116  0.3172  0.0053 -0.2387
 3796W        W 7860  10.134   3.681   3.219  0.0918  0.0326  0.2611
 3797W        W 7861   5.473   4.889   6.980  0.4669  0.0054  0.1379
 3798W        W 7862   5.037   9.102   2.216  0.1270 -0.1302 -0.0963
 3799W        W 7863   4.915  10.612  10.142  0.0219 -0.1300  0.0707
 3800W        W 7864   4.638   4.847   1.944 -0.2074  0.3152  0.1008
 3801W        W 7865   4.415   7.325   8.222  0.0691 -0.0242 -0.2049
 3802W        W 7866  10.252   8.148   4.213  0.1232 -0.3763 -0.1253
 3803W        W 7867   5.130   7.751   1.993  0.0990 -0.1983  0.2478
 3804W        W 7868   2.086   1.482   8.580  0.2305  0.0699  0.3710
 3805W        W 7869   9.095  10.588   7.415 -0.1632 -0.2685  0.0603
 3806W        W 7870   9.516   4.606  10.027 -0.0200 -0.0096  0.1483
 3807W        W 7871   4.382   3.972   7.256 -0.1361 -0.2980 -0.0745
 3808W        W 7872   5.137  10.533   7.462  0.0428 -0.0945  0.1392
 3809W        W 7873   4.827   7.474   1.644 -0.5443  0.0715 -0.1147
 3810W        W 7874   8.337   0.258   1.165  0.0634  0.1151 -0.2526
 3811W        W 7875   2.691   0.967   8.965 -0.1313 -0.2660  0.0936
 3812W        W 7876   3.606   3.654   8.589  0.0620 -0.1437  0.0920
 3813W        W 7877   7.343   7.177   7.687  0.2800 -0.2603  0.0665
 3814W        W 7878   0.972   8.826   0.441 -0.0464 -0.1768 -0.5569
 3815W        W 7879   9.335   9.294   2.723 -0.0868 -0.0761 -0.0406
 3816W        W 7880   7.062   3.471   1.203 -0.1276  0.2850 -0.0419
 3817W        W 7881   5.859   6.542   7.238  0.1197 -0.0842  0.3629
 3818W        W 7882   0.567   4.631  10.338 -0.1103 -0.0496  0.3153
 3819W        W 7883   5.811   5.161   0.810 -0.1138  0.3973  0.0917
 3820W        W 7884   7.690   7.217   8.046 -0.3081 -0.0370 -0.0685
 3821W        W 7885   7.963   2.567   2.278 -0.0813 -0.2648 -0.1486
 3822W        W 7886   6.978   3.832   8.974  0.2053 -0.2484 -0.1859
 3823W        W 7887   0.707   2.958   1.231  0.2701 -0.3249 -0.0209
 3824W        W 7888  10.363   3.610   0.187 -0.1193  0.2700 -0.2020
 3825W        W 7889   0.792   0.474  11.288  0.0956  0.0699 -0.0461
 3826W        W 7890   2.964  10.574   6.920  0.1656 -0.0487  0.4030
 3827W        W 7891   3.040   7.576   2.600 -0.1107 -0.3510 -0.0490
 3828W        W 7892   6.771   4.532   8.973 -0.1284  0.2249 -0.1137
 3829W        W 7893   6.454   3.834   6.748  0.2030  0.1177 -0.1283
 3830W        W 7894   9.043   9.176   8.210 -0.1116  0.1020  0.1080
 3831W        W 7895   5.805   1.550   1.152 -0.0948  0.2961  0.2938
 3832W        W 7896   0.281   8.800  11.149  0.1996  0.2017 -0.1863
 3833W        W 7897   0.508   6.190   9.521  0.0741  0.2117  0.2931
 3834W        W 7898   4.225   6.027   7.326 -0.0877 -0.2656  0.2485
 3835W        W 7899   9.586   2.490   7.981 -0.1214  0.0478  0.0037
 3836W        W 7900   4.150   6.895  11.053  0.0102 -0.1144 -0.0404
 3837W        W 7901   1.713   0.979  10.102 -0.1444  0.0029 -0.0030
 3838W        W 7902   0.846   1.292   0.146  0.0796 -0.0210 -0.0090
 3839W        W 7903   1.482   5.769  11.241  0.2758  0.2037  0.1450
 3840W        W 7904   8.678   6.175  10.102  0.0964  0.3369  0.0594
 3841W        W 7905   5.680   7.755   1.169  0.2494 -0.1473 -0.1482
 3842W        W 7906   3.489   5.670   1.661 -0.0748 -0.1464  0.0907
 3843W        W 7907   3.637   5.783   0.178 -0.1095 -0.1015 -0.1198
 3844W        W 7908   0.529   1.540  10.501 -0.3351  0.2054  0.2035
 3845W        W 7909   3.347   2.845  11.293 -0.0685 -0.1093 -0.0960
 3846W        W 7910   6.232  10.322   1.195  0.2351  0.1638  0.1713
 3847W        W 7911   8.734   6.535   9.078 -0.1007  0.1200  0.0673
 3848W        W 7912   8.405   8.566   7.982  0.0849 -0.3346  0.0760
 3849W        W 7913   2.117   6.793   9.944 -0.4290 -0.0231 -0.2366
 3850W        W 7914   8.240   2.201   2.044  0.0748  0.2476 -0.0207
 3851W        W 7915   3.007   8.898   1.533 -0.0216 -0.1317 -0.2062
 3852W        W 7916   8.963   2.479   0.427 -0.3314 -0.3964  0.0566
 3853W        W 7917  10.085   7.794   2.896 -0.3312  0.1325 -0.0360
 3854W        W 7918   9.788   3.154  10.046 -0.2053  0.0943  0.5166
 3855W        W 7919   1.954   5.948   3.326  0.0013  0.1722 -0.2095
 3856W        W 7920   2.796   2.837   1.261  0.3019 -0.1518 -0.0924
 3857W        W 7921   6.569   4.876   6.956 -0.1728 -0.0741 -0.0406
 3858W        W 7922   0.222   8.966   2.384 -0.1159 -0.1251  0.0576
 3859W        W 7923  10.244   7.226   9.243 -0.3828  0.2463  0.1453
 3860W        W 7924   1.638   0.789   9.624 -0.0380 -0.1728 -0.2163
 3861W        W 7925  10.730   7.922   1.662 -0.0517 -0.0110 -0.1442
 3862W        W 7926   9.947   3.819  11.290 -0.0456  0.1162 -0.0789
 3863W        W 7927   9.840   7.282   2.690  0.2739 -0.2951  0.1541
 3864W        W 7928   7.408   9.019   6.519  0.0709  0.1693  0.2769
 3865W        W 7929   8.003   8.031   2.621 -0.0616 -0.1134 -0.0341
 3866W        W 7930   5.234   0.310  10.201 -0.2203  0.1166  0.2797
 3867W        W 7931   0.906  10.350   1.072 -0.3084  0.0613 -0.2564
 3868W        W 7932  10.667   2.174   2.367  0.2654 -0.3739  0.0627
 3869W        W 7933   3.819   6.486  10.379  0.3628  0.0628 -0.2261
 3870W        W 7934  10.416   5.272   1.062  0.2020 -0.0064 -0.0765
 3871W        W 7935   8.108   9.717  10.479  0.0161 -0.1063  0.0335
 3872W        W 7936   4.122   9.183   0.544  0.0580 -0.3470  0.6658
 3873W        W 7937   6.687  10.649   8.621 -0.0666 -0.1168  0.0535
 3874W        W 7938   1.902   5.123   9.586 -0.2043 -0.1167 -0.2603
 3875W        W 7939   3.432   0.828  10.852 -0.0275 -0.0403 -0.1586
 3876W        W 7940   0.749  10.211   8.072 -0.1282 -0.2647 -0.0813
 3877W        W 7941  10.545   8.840   1.998  0.1202 -0.0944  0.1548
 3878W        W 7942   5.236  10.701  10.683 -0.3338 -0.4182  0.3279
 3879W        W 7943   5.964   9.315  10.658 -0.0282 -0.1403 -0.0219
 3880W        W 7944   8.938   4.780   2.575  0.1507 -0.0268 -0.0116
 3881W        W 7945   1.059   8.765   9.832 -0.0496 -0.1742  0.1296
 3882W        W 7946   4.081   7.223   9.744 -0.2295 -0.1631  0.2652
 3883W        W 7947   0.425   3.377   0.451  0.4188  0.0482 -0.0447
 3884W        W 7948   7.304   7.497   3.738  0.2829  0.2929  0.2497
 3885W        W 7949  10.393   1.281   2.618  0.1798  0.0062  0.1723
 3886W        W 7950   7.121   8.457   8.264 -0.3866 -0.3442  0.2217
 3887W        W 7951   5.173   6.153   1.690  0.0735  0.2196  0.0517
 3888W        W 7952   0.785   6.694   8.601  0.0138 -0.1451 -0.0921
 3889W        W 7953   8.283   4.643   8.319 -0.0302 -0.0863  0.2126
 3890W        W 7954   2.454   0.040  11.381 -0.1288 -0.0526  0.3156
 3891W        W 7955   1.917  10.313   1.239 -0.1540  0.1689 -0.2658
 3892W        W 7956   2.992   6.592   0.544  0.1720 -0.0026 -0.3172
 3893W        W 7957   9.897   9.160  10.466  0.0665 -0.1868 -0.4274
 3894W        W 7958   8.101   4.716  10.177 -0.1281 -0.0933 -0.1490
 3895W        W 7959   0.762   6.084   0.145  0.0090 -0.2520 -0.3353
 3896W        W 7960   0.088  10.117  11.349  0.0968 -0.2727 -0.1713
 3897W        W 7961   3.989   7.232  10.629  0.1262 -0.0907  0.1591
 3898W        W 7962   4.114   0.216   8.066  0.0508  0.0724 -0.0883
 3899W        W 7963   5.837   0.324   0.638  0.0758 -0.0663 -0.0514
 3900W        W 7964   5.353   1.064   9.273  0.4781 -0.3091  0.1368
 3901W        W 7965   6.424   1.709   1.756 -0.0392 -0.0377 -0.0403
 3902W        W 7966   8.261  10.066   1.741 -0.1336  0.3132 -0.1223
 3903W        W 7967   5.159   4.794   8.242 -0.1344 -0.0154  0.3020
 3904W        W 7968   3.314   7.031   9.255  0.0512 -0.1731 -0.2521
 3905W        W 7969   0.480   0.499   2.389  0.1439  0.0946  0.0154
 3906W        W 7970   0.114  10.470   2.249 -0.4206  0.1962  0.4822
 3907W        W 7971   7.808  10.235  10.432  0.0426 -0.1563  0.3968
 3908W        W 7972   6.330   2.137   0.471 -0.1734  0.0069 -0.2575
 3909W        W 7973   5.996   9.079   3.393 -0.1334  0.0588  0.2869
 3910W        W 7974   5.352   0.402  11.087  0.0109 -0.2774 -0.1865
 3911W        W 7975   4.193   5.921   9.808  0.1041  0.2536  0.2007
 3912W        W 7976   4.994   9.884   9.555 -0.1440  0.0720  0.1155
 3913W        W 7977   5.536   2.644   7.719  0.0301  0.2820  0.2178
 3914W        W 7978   7.759   1.023   9.419 -0.0306 -0.0645  0.2696
 3915W        W 7979   8.185   2.562  10.639  0.3051  0.1406  0.2055
 3916W        W 7980   5.618   0.794   9.646 -0.0810 -0.0014 -0.1191
 3917W        W 7981   0.837   8.554   7.545 -0.0418 -0.0733 -0.2241
 3918W        W 7982   8.737   8.414   9.441  0.2109 -0.1317  0.0769
 3919W        W 7983   0.589   9.213  10.444  0.2807 -0.1150  0.1694
 3920W        W 7984   2.420   8.398   7.266  0.1462  0.0713  0.3477
 3921W        W 7985  10.388   4.344  10.209  0.1667  0.2940 -0.1808
 3922W        W 7986   1.769   8.864   8.408  0.1758  0.0694 -0.0945
 3923W        W 7987   6.462   5.778   1.774  0.5251  0.0240 -0.1542
 3924W        W 7988  10.232   6.778   7.534 -0.0136 -0.0884 -0.0021
 3925W        W 7989   7.555   9.232   3.369  0.1709  0.0838  0.2089
 3926W        W 7990   1.724   9.904   0.920 -0.0717  0.0504 -0.2163
 3927W        W 7991   1.187   0.122   1.751 -0.1420 -0.2504 -0.1642
 3928W        W 7992   5.091  10.386   9.330  0.2620  0.3518 -0.0878
 3929W        W 7993   8.819   5.812   8.284  0.1692 -0.2513  0.5040
 3930W        W 7994   5.436   8.856  11.072 -0.0624  0.2200 -0.1243
 3931W        W 7995   2.382   4.544   0.744  0.0182 -0.4921  0.0536
 3932W        W 7996   5.427   0.099   2.565 -0.1331  0.0853  0.2265
 3933W        W 7997   7.434   3.794   9.244  0.3098 -0.1561 -0.2397
 3934W        W 7998   5.681   8.206   0.814 -0.2570 -0.2079  0.3453
 3935W        W 7999   7.131   5.986   7.663  0.1753 -0.2114  0.0205
 3936W        W 8000   5.611   3.793   1.543 -0.3871  0.0714 -0.0015
 3937W        W 8001   0.514  10.607   7.911  0.0370  0.2368 -0.0176
 3938W        W 8002   5.989   9.667   0.283 -0.1796  0.0321 -0.0505
 3939W        W 8003   5.169   8.622   2.452  0.0258  0.1775  0.1799
 3940W        W 8004   0.723   3.355   2.803  0.1883 -0.0887  0.1305
 3941W        W 8005   6.817   6.092   9.398 -0.0392  0.0901 -0.2512
 3942W        W 8006   0.815   0.017   1.373  0.2631  0.0834 -0.1836
 3943W        W 8007   6.909   3.605   2.161  0.0912  0.0292  0.2756
 3944W        W 8008   5.769   1.281   9.367 -0.1743  0.2108  0.1508
 3945W        W 8009   8.060   5.483  10.655  0.2434  0.1320  0.3359
 3946W        W 8010   2.995   8.433   7.154 -0.2341  0.0660 -0.0733
 3947W        W 8011   4.047   6.920   2.126 -0.1358 -0.1893 -0.0322
 3948W        W 8012   5.133   7.894   0.447 -0.1945 -0.0401  0.2948
 3949W        W 8013   1.999   0.512   9.302  0.3124 -0.3150  0.0730
 3950W        W 8014  10.538   5.718   2.292 -0.1190  0.2592  0.1463
 3951W        W 8015   4.758   5.121   2.337  0.0711 -0.4927 -0.1452
 3952W        W 8016   7.227   4.659   1.627  0.0817 -0.0186  0.1475
 3953W        W 8017   9.271   7.887   3.043  0.2000 -0.0255 -0.1657
 3954W        W 8018   1.675   7.688   8.369  0.3069 -0.1735 -0.2187
 3955W        W 8019   3.360   0.032   1.280  0.1482  0.0154 -0.1309
 3956W        W 8020   8.363  10.076   9.698  0.0195  0.0677  0.0742
 3957W        W 8021  10.674   5.058   9.839 -0.1125 -0.1375 -0.1447
 3958W        W 8022   8.665   8.756   2.543 -0.0786 -0.1733 -0.0479
 3959W        W 8023   8.184   5.127   3.210 -0.0215 -0.1307 -0.0321
 3960W        W 8024   8.983   7.350   3.768 -0.0859  0.2368 -0.1735
 3961W        W 8025   6.043   0.196   9.593  0.1159 -0.2832  0.2989
 3962W        W 8026   3.889   7.548   9.136  0.0288 -0.2737 -0.0105
 3963W        W 8027   7.186   5.524   8.751  0.1741 -0.0853 -0.2246
 3964W        W 8028   5.458   4.293   2.657 -0.4177  0.0711 -0.3537
 3965W        W 8029   3.496   7.407   3.080  0.0443 -0.0440 -0.4969
 3966W        W 8030   5.234   5.774   2.048  0.1191  0.2858 -0.1259
 3967W        W 8031   8.616   5.381   8.980  0.2789 -0.2324 -0.0800
 3968W        W 8032   8.447   0.222   0.308  0.0802  0.0016  0.2050
 3969W        W 8033   6.305   0.420   1.945  0.3687  0.0611 -0.2398
 3970W        W 8034   7.922   3.188   7.489 -0.0462  0.3115  0.0868
 3971W        W 8035   8.888   7.122  10.997  0.0859 -0.1697  0.0055
 3972W        W 8036   0.879   2.951   1.844 -0.0626 -0.1414 -0.3247
 3973W        W 8037   9.071  10.720   8.648 -0.2820 -0.1729 -0.2299
 3974W        W 8038   7.369   3.573  10.709  0.2382 -0.0035 -0.2640
 3975W        W 8039   7.549   5.648   0.747  0.0186 -0.1693 -0.2419
 3976W        W 8040   5.645  10.386   1.153  0.0826 -0.1585  0.1130
 3977W        W 8041   9.492   1.167   0.675  0.0684 -0.0152 -0.1441
 3978W        W 8042   4.588   2.849   2.361 -0.1082 -0.1378 -0.0977
 3979W        W 8043   4.223   0.596   0.996  0.4596  0.1100  0.1010
 3980W        W 8044   5.913   0.438   8.628  0.1430  0.1378 -0.3943
 3981W        W 8045   8.490   0.405   9.093 -0.1131  0.0567  0.0886
 3982W        W 8046   0.363   6.694   9.487  0.0127 -0.4085  0.2075
 3983W        W 8047   9.416   6.296   9.680  0.0067  0.0266  0.1205
 3984W        W 8048   4.894   1.439   3.157  0.1160  0.0033  0.2761
 3985W        W 8049   0.265   4.446   1.088 -0.0875 -0.0866 -0.1144
 3986W        W 8050   7.450   5.141   1.620  0.0341 -0.0493  0.2245
 3987W        W 8051   6.850   9.764  10.366 -0.3333 -0.2320  0.0147
 3988W        W 8052   4.893   6.449   2.614 -0.0561  0.0977  0.0253
 3989W        W 8053   3.725   6.811   9.631 -0.0280 -0.3022 -0.0677
 3990W        W 8054   5.828   6.642  11.011  0.0038 -0.0345  0.0366
 3991W        W 8055   4.282  10.351   0.000  0.2073  0.1399 -0.3403
 3992W        W 8056   4.456   3.617   1.799 -0.0741  0.1598 -0.0667
 3993W        W 8057   9.863  10.100   0.678 -0.2522  0.1369 -0.0157
 3994W        W 8058   5.371   8.039   7.887  0.1777 -0.0593  0.1790
 3995W        W 8059   2.120   7.788   2.951 -0.0800 -0.1097  0.1277
 3996W        W 8060   4.334   8.549  11.162  0.0058  0.0396 -0.1141
 3997W        W 8061   0.733   6.627   9.136  0.1292 -0.1431  0.0616
 3998W        W 8062   1.950   7.646   3.422 -0.1582  0.1928  0.3369
 3999W        W 8063   3.098   7.129  10.685 -0.2081 -0.1286  0.2482
 4000W        W 8064   4.817   7.433   0.819  0.0099  0.0518  0.0894
 4001W        W 8065   4.713   3.408   2.223  0.3844 -0.1349  0.1589
 4002W        W 8066   4.037   3.933   0.475 -0.0648  0.0164  0.0898
 4003W        W 8067   7.087   4.347   1.167  0.3913 -0.0069 -0.1507
 4004W        W 8068   7.964   1.950   2.408  0.1496  0.1688  0.1123
 4005W        W 8069   9.023   3.368   9.621  0.3302 -0.1392  0.0137
 4006W        W 8070   8.406   2.707   2.250 -0.0513  0.0533  0.0972
 4007W        W 8071   6.725   7.383   8.978  0.0110 -0.0817  0.3330
 4008W        W 8072   4.989   5.294   8.414 -0.1609  0.0192  0.0673
 4009W        W 8073   0.943   9.086  11.390 -0.2824  0.0534 -0.1129
 4010W        W 8074   3.797   7.087   1.576  0.0764  0.1361  0.2197
 4011W        W 8075  10.545   6.050   0.464 -0.2191 -0.0258 -0.0458
 4012W        W 8076   8.380   3.017  10.838 -0.2965 -0.3111 -0.0014
 4013W        W 8077   7.894   9.571   0.006  0.2468 -0.0966 -0.0228
 4014W        W 8078   5.431   6.095   9.619  0.0376  0.2995 -0.0847
 4015W        W 8079   4.777   4.497   8.360 -0.0986  0.2281  0.1857
 4016W        W 8080   2.937   5.048   2.240  0.0570  0.2803 -0.0616
 4017W        W 8081   7.965   2.488   1.732  0.0810 -0.1007 -0.0242
 4018W        W 8082   0.658  10.437   8.694 -0.0922  0.0850  0.2810
 4019W        W 8083   0.791   8.428   0.194 -0.0210  0.0114  0.0738
 4020W        W 8084   7.222   2.787   1.961 -0.3950  0.5982 -0.3289
 4021W        W 8085   5.498  10.266   8.883 -0.1613  0.3138  0.1484
 4022W        W 8086  10.039   6.572   1.365 -0.0961  0.0387 -0.1876
 4023W        W 8087   2.856  10.363  10.409  0.0332  0.0338 -0.3301
 4024W        W 8088   6.324   2.225   1.026 -0.1785  0.2941 -0.3526
 4025W        W 8089   3.172   5.714   0.703 -0.0293 -0.1790  0.0250
 4026W        W 8090   9.582   8.621   0.855  0.2252 -0.3133 -0.1486
 4027W        W 8091   3.007   6.252   9.895 -0.1679  0.1000  0.1461
 4028W        W 8092   5.844   9.046   1.023 -0.2011 -0.3192 -0.0552
 4029W        W 8093   9.446   7.846   1.339 -0.0540 -0.0385 -0.0313
 4030W        W 8094   9.905   1.728   1.188  0.0906  0.2668 -0.2836
 4031W        W 8095   9.127   9.637   9.924 -0.2197  0.0234  0.2156
 4032W        W 8096   1.076   9.461   1.760  0.0133  0.0964 -0.0087
 4033W        W 8097   6.595   0.081   0.286  0.0821  0.2712  0.0266
 4034W        W 8098   8.950   6.216  10.847 -0.1391 -0.1626  0.5283
 4035W        W 8099   4.555   0.902   2.502 -0.0730  0.1506  0.0147
 4036W        W 8100   1.614   8.630  10.603  0.0514  0.1295 -0.0670
 4037W        W 8101   4.399   6.426   2.918  0.0954  0.0468  0.1690
 4038W        W 8102   3.622   4.827   8.865 -0.0723 -0.1897 -0.2874
 4039W        W 8103   5.953   0.541   1.566  0.0458 -0.0955  0.0764
 4040W        W 8104   4.483   9.830   2.049  0.2018 -0.1087 -0.1432
 4041W        W 8105   9.568   8.003   8.991 -0.0116 -0.3888  0.0428
 4042W        W 8106   5.775   1.769  10.343  0.0557  0.2238 -0.1418
 4043W        W 8107  10.557   8.444  10.241 -0.1287 -0.0187  0.1986
 4044W        W 8108   7.729  10.397   9.939  0.0259  0.0347  0.3248
 4045W        W 8109   9.766   6.948   7.896 -0.1582  0.0215 -0.0417
 4046W        W 8110   1.555   3.777   8.815  0.2252 -0.1240 -0.0489
 4047W        W 8111   3.461   4.039   7.820  0.4410 -0.0282 -0.0330
 4048W        W 8112   3.945   5.611   3.339 -0.0371 -0.0430  0.3430
 4049W        W 8113   7.265   1.088   0.656  0.1643 -0.0056 -0.0620
 4050W        W 8114   9.738   9.263   6.721 -0.1229 -0.1795  0.0240
 4051W        W 8115   4.399   9.129   7.532  0.0835  0.1199  0.0698
 4052W        W 8116   5.734   3.839  10.181 -0.0854  0.1367 -0.1231
 4053W        W 8117   8.392   2.154   8.184  0.5238 -0.1391 -0.0584
 4054W        W 8118   8.037   8.550   3.169 -0.0912  0.2263 -0.2797
 4055W        W 8119   3.144  10.698   0.830  0.2638 -0.0562 -0.2694
 4056W        W 8120   2.514   5.768  10.736  0.0054  0.1592 -0.1614
 4057W        W 8121   1.926   2.285   3.396  0.3313 -0.1583  0.0108
 4058W        W 8122   0.917   4.606   1.003  0.0089 -0.0825 -0.0294
 4059W        W 8123  10.286   6.081   9.175  0.1042 -0.0447  0.0454
 4060W        W 8124   2.205   2.387   0.509  0.1260 -0.2256  0.2876
 4061W        W 8125   3.704   3.782  11.107  0.2339 -0.1252  0.1809
 4062W        W 8126   4.539   7.399  10.635  0.0377  0.2635 -0.1644
 4063W        W 8127   5.635   9.040   2.959 -0.2701  0.0037 -0.2673
 4064W        W 8128   2.467   6.350   8.625  0.2444 -0.1194  0.1942
 4065W        W 8129   7.057   1.139   8.822  0.2847 -0.1780 -0.1526
 4066W        W 8130   7.161   9.820   8.798  0.0113 -0.2373  0.1290
 4067W        W 8131   2.441   5.312   2.085 -0.2127  0.1184  0.2694
 4068W        W 8132   2.452   7.991   9.842  0.2769 -0.0149 -0.0212
 4069W        W 8133  10.461   3.110   1.018 -0.3126  0.1543 -0.1749
 4070W        W 8134   3.798   1.428  11.295  0.2852 -0.2887  0.3040
 4071W        W 8135   8.123   8.593   7.294  0.0123  0.1261 -0.0222
 4072W        W 8136   6.958   6.533   8.365 -0.3372  0.0182  0.0233
 4073W        W 8137   7.612   2.196   0.047  0.1519 -0.1913  0.1559
 4074W        W 8138   6.837  10.483   2.878 -0.0277 -0.2269 -0.2766
 4075W        W 8139   3.866   8.557   7.863  0.0186  0.1190  0.6594
 4076W        W 8140   8.526   3.645  11.174  0.4416  0.0343  0.2835
 4077W        W 8141   6.444   9.442   7.827  0.1214  0.2364 -0.0551
 4078W        W 8142   6.346   3.694  11.039 -0.0076  0.3225  0.1781
 4079W        W 8143   5.956   7.362   1.300  0.2043 -0.2301 -0.1134
 4080W        W 8144   0.740   7.449   0.605 -0.1790  0.1650 -0.1692
 4081W        W 8145   4.977   5.058   1.022  0.0743  0.1504 -0.0334
 4082W        W 8146   1.750   9.466   0.617 -0.0103 -0.2392  0.2486
 4083W        W 8147  10.018   2.773   7.032  0.2211  0.1427 -0.2828
 4084W        W 8148   4.266   7.823  10.054 -0.1084 -0.1418 -0.1215
 4085W        W 8149   2.524   1.507   9.572  0.1195 -0.1994 -0.1106
 4086W        W 8150   9.780   3.656  10.251  0.1012 -0.0332  0.0395
 4087W        W 8151   8.488   8.140   2.620 -0.1347  0.2440 -0.1281
 4088W        W 8152   9.466   7.007   0.341  0.1364  0.0195 -0.0478
 4089W        W 8153   8.369   0.656   8.638 -0.0186  0.1297  0.1159
 4090W        W 8154   7.728   1.620   3.289  0.0089 -0.1425 -0.0786
 4091W        W 8155   1.693   6.370   1.277  0.2746  0.0452 -0.1714
 4092W        W 8156   7.905   5.745   3.386 -0.2163  0.0290 -0.2044
 4093W        W 8157   8.143   5.838   1.856  0.1028 -0.0151 -0.1035
 4094W        W 8158   8.759   8.274   1.260  0.2278  0.1502 -0.0620
 4095W        W 8159  10.693   1.639   9.398  0.0135  0.1277  0.0266
 4096W        W 8160   3.336   8.303  11.103  0.0879  0.1793  0.0629
 4097W        W 8161   0.143  10.171  10.832 -0.2556 -0.0083  0.3050
 4098W        W 8162   5.086   1.108   7.721 -0.2768 -0.0717 -0.2040
 4099W        W 8163   1.588   1.762   0.488 -0.3006 -0.0563 -0.0005
 4100W        W 8164   2.871   4.756  10.819  0.1617 -0.0342 -0.0310
 4101W        W 8165   3.587   9.203   6.423  0.3627  0.2986  0.0273
 4102W        W 8166   0.064   6.190   9.684 -0.0845  0.0487 -0.1665
 4103W        W 8167   6.419   1.000  10.211 -0.1424 -0.1518  0.2234
 4104W        W 8168   9.250   9.784   7.754 -0.2704 -0.2134 -0.3788
 4105W        W 8169   1.109   3.127   9.472 -0.1989  0.0453 -0.1870
 4106W        W 8170   6.373   0.831   3.621 -0.1061  0.1659 -0.0100
 4107W        W 8171   0.017   7.745   2.167  0.1743  0.3299  0.0762
 4108W        W 8172   2.799   7.820   2.216  0.1166  0.0195 -0.2528
 4109W        W 8173   2.860   3.874   8.652 -0.0255 -0.2436  0.2661
 4110W        W 8174   2.059   9.969   0.493  0.2899  0.0913  0.1307
 4111W        W 8175   9.220   3.910   8.782 -0.2152  0.5082 -0.0958
 4112W        W 8176  10.203   0.538   2.945 -0.0200  0.0537 -0.0013
 4113W        W 8177   1.325   3.048  10.052  0.2406 -0.0316 -0.0372
 4114W        W 8178   7.162  10.558   8.192 -0.0001 -0.3712 -0.1398
 4115W        W 8179   3.322   8.361   8.688  0.0841 -0.1081  0.1742
 4116W        W 8180   9.058   7.442   3.227 -0.2975 -0.1027  0.2057
 4117W        W 8181   0.382   0.667  10.980 -0.0883  0.0529 -0.2134
 4118W        W 8182   9.729   2.779   0.246  0.2883  0.0886 -0.0485
 4119W        W 8183   0.109   9.637   0.858  0.0685 -0.0847 -0.4463
 4120W        W 8184   2.041   4.392   1.068  0.1551  0.1553  0.0155
 4121W        W 8185   6.083   6.838   1.034  0.1092 -0.5544 -0.3600
 4122W        W 8186   7.344   4.062  10.456 -0.2337 -0.2034 -0.1175
 4123W        W 8187  10.425   1.250   8.452 -0.2013  0.1513 -0.0925
 4124W        W 8188   4.976   6.180   9.342  0.0466 -0.3520  0.1749
 4125W        W 8189   6.531   2.210   0.037 -0.3891 -0.0904  0.0218
 4126W        W 8190   7.244   9.576  10.092  0.0863 -0.2352 -0.0641
 4127W        W 8191   9.423   1.142   9.954  0.0232 -0.0168 -0.0743
 4128W        W 8192   9.170   6.489   2.401  0.2393  0.3694 -0.1255
 4129W        W 8193  10.502   8.013   8.649  0.4306  0.5357 -0.0483
 4130W        W 8194   7.060   2.478   9.781 -0.1332 -0.1884 -0.0825
 4131W        W 8195   3.513   9.048  11.281  0.4883 -0.0329 -0.0120
 4132W        W 8196   6.104   1.496   8.167  0.0611  0.1904 -0.1121
 4133W        W 8197   0.925   5.196   9.625 -0.1585  0.3248 -0.0290
 4134W        W 8198   8.690  10.222   1.424  0.0950  0.2835 -0.0704
 4135W        W 8199   6.144   4.099  10.318  0.2340  0.1591  0.0802
 4136W        W 8200   5.656   2.818   2.573 -0.0447  0.4528  0.0984
 4137W        W 8201   7.975   0.583   7.692 -0.1658  0.1163 -0.1645
 4138W        W 8202   7.561   1.638   2.483 -0.0302  0.1666 -0.1486
 4139W        W 8203   9.365   3.492  10.052 -0.1246  0.0405  0.0166
 4140W        W 8204  10.646   3.985   1.849 -0.1768 -0.3626 -0.1089
 4141W        W 8205   0.803   4.806  11.358 -0.2645  0.2291 -0.0232
 4142W        W 8206   9.884   2.418  10.606 -0.1787 -0.2332 -0.1834
 4143W        W 8207   8.175   9.838  10.955  0.2925 -0.1433 -0.2290
 4144W        W 8208   0.804   8.675  11.146  0.3887 -0.0816  0.1310
 4145W        W 8209   0.797  10.723  11.390  0.0115  0.2788  0.0426
 4146W        W 8210   8.271   1.086   9.648 -0.1044  0.4513 -0.1210
 4147W        W 8211   8.173   0.469   3.001 -0.0012 -0.0865 -0.2131
 4148W        W 8212   9.195   8.655   7.856  0.2424 -0.0209  0.0545
 4149W        W 8213   0.998   4.092   8.527  0.2976 -0.1265  0.0328
 4150W        W 8214   8.030   9.320   1.409 -0.1506  0.0276  0.1396
 4151W        W 8215   9.886   1.015   3.105  0.0526 -0.0818 -0.1207
 4152W        W 8216   8.426   0.399  10.313  0.2020 -0.0536 -0.1687
 4153W        W 8217   9.746   8.925   9.438  0.1000 -0.5334  0.0532
 4154W        W 8218   7.300   2.684   6.758  0.0950 -0.0337 -0.2200
 4155W        W 8219   7.723   8.685   2.795 -0.3411  0.2879 -0.0261
 4156W        W 8220   3.514   3.770   9.678  0.2132  0.2256  0.1273
 4157W        W 8221  10.208   7.485   0.565 -0.1753 -0.0995 -0.1230
 4158W        W 8222   0.008   2.973   8.003  0.2346  0.1318 -0.0657
 4159W        W 8223   7.933   5.823   8.457  0.1719 -0.2916 -0.1083
 4160W        W 8224   2.129   1.797   3.590 -0.2356 -0.0513 -0.0651
 4161W        W 8225   8.764   4.174   9.390  0.0994 -0.2223 -0.4242
 4162W        W 8226   7.160   9.837  10.959 -0.0470  0.2227 -0.1658
 4163W        W 8227   2.274   8.057   2.248  0.0446  0.0634 -0.3709
 4164W        W 8228  10.200   1.635   0.841 -0.2471  0.0408  0.3425
 4165W        W 8229   8.780   3.783   8.577 -0.0280  0.1900 -0.1196
 4166W        W 8230   7.217   7.992   9.592  0.0677  0.0081 -0.1516
 4167W        W 8231   8.416   5.806   1.379 -0.0565  0.2124 -0.0801
 4168W        W 8232   7.842   7.486   7.344  0.2188 -0.0415  0.0860
 4169W        W 8233   0.365   0.016   7.048 -0.2301  0.0623 -0.0369
 4170W        W 8234   2.289   0.167   0.605 -0.0811 -0.0016  0.2949
 4171W        W 8235  10.105   5.542  11.188 -0.0448  0.2397 -0.2333
 4172W        W 8236   2.781   0.282  10.394 -0.0294 -0.0924  0.1490
 4173W        W 8237   9.914   0.493   0.719 -0.2300 -0.2980  0.0832
 4174W        W 8238   2.840   6.218   8.904  0.0739 -0.0497 -0.3095
 4175W        W 8239   1.010   8.883   8.492  0.0035 -0.0399  0.1672
 4176W        W 8240   4.663   5.007   8.063 -0.0226  0.1786  0.1200
 4177W        W 8241   6.738   7.608   0.017  0.1945  0.1225 -0.0937
 4178W        W 8242   6.880   7.053  10.034 -0.2563 -0.4969 -0.0123
 4179W        W 8243  10.657   4.098   0.815  0.0826 -0.2045 -0.2289
 4180W        W 8244   1.706   4.870  10.850  0.0510  0.2065 -0.1249
 4181W        W 8245   6.161   2.754  10.747  0.1451 -0.3171 -0.0248
 4182W        W 8246   4.273   6.706   1.737  0.2069  0.3365  0.0252
 4183W        W 8247   7.811   0.796  11.242 -0.2506  0.2087 -0.0582
 4184W        W 8248   2.195   8.774   8.774  0.0848  0.0358 -0.1622
 4185W        W 8249   9.060  10.486   0.470 -0.0526  0.0944  0.0904
 4186W        W 8250   3.216   1.770   2.433 -0.0164 -0.2160 -0.0563
 4187W        W 8251   1.996   4.182   2.997  0.0559 -0.1796 -0.2312
 4188W        W 8252   8.544   5.209   0.649 -0.1171  0.1915  0.2347
 4189W        W 8253   4.581   7.666   8.549  0.1229 -0.2505 -0.2993
 4190W        W 8254   7.553   4.743   0.691 -0.2145 -0.1386  0.0812
 4191W        W 8255   1.884   5.005   1.074 -0.1246 -0.2094  0.4493
 4192W        W 8256   1.077   4.134   0.919 -0.0531 -0.0095  0.4886
 4193W        W 8257   7.133   4.613   2.506  0.3260  0.2793 -0.1316
 4194W        W 8258   9.387   8.762   9.982 -0.2710  0.0568 -0.1949
 4195W        W 8259   4.271   2.812   0.209 -0.2137  0.0889 -0.1698
 4196W        W 8260   0.111   0.214   0.389 -0.0709  0.2624 -0.2057
 4197W        W 8261   3.242   2.791   0.420 -0.3231 -0.1968  0.0256
 4198W        W 8262   0.015   0.426   8.624 -0.2929  0.0406  0.0792
 4199W        W 8263   1.039   0.982   3.239 -0.3026  0.1017  0.1821
 4200W        W 8264   5.588   3.671   2.079 -0.1220 -0.0476  0.2916
 4201W        W 8265   9.423   8.386   2.476  0.3212  0.0743 -0.1941
 4202W        W 8266   8.905   0.417   8.256 -0.1218  0.3174 -0.3619
 4203W        W 8267   0.262   3.800   8.389  0.0180  0.0309 -0.1292
 4204W        W 8268  10.618   9.541   3.903  0.0342  0.2842  0.1407
 4205W        W 8269   3.890   6.423   3.075  0.1183  0.1875  0.1812
 4206W        W 8270   4.242   4.508   3.338  0.0003  0.3322  0.0502
 4207W        W 8271   1.596   3.514  10.454 -0.2764  0.2051 -0.0064
 4208W        W 8272   2.981   4.645   1.902  0.0706  0.1987 -0.0914
 4209W        W 8273   0.375   4.293   2.407 -0.1543  0.2997  0.1758
 4210W        W 8274   3.570   4.290  10.499  0.2428 -0.2335 -0.0606
 4211W        W 8275   9.975   8.361   1.130  0.2216  0.0874 -0.1586
 4212W        W 8276   7.390   2.226   3.445 -0.1825  0.2734  0.0075
 4213W        W 8277   5.716   9.891   7.625 -0.1458 -0.3061 -0.1565
 4214W        W 8278   6.008   2.722   7.488 -0.2931  0.0123  0.0013
 4215W        W 8279   3.038   3.365   8.099  0.1449  0.3276  0.0431
 4216W        W 8280   6.158   0.903   2.030 -0.0715  0.0633  0.0255
 4217W        W 8281   3.427   0.582   1.859 -0.1582 -0.0430 -0.0247
 4218W        W 8282   8.258   6.251   2.152 -0.2687  0.1385 -0.1405
 4219W        W 8283   8.625   9.521   2.733 -0.0252  0.2784  0.1973
 4220W        W 8284   2.468   4.190   1.278 -0.0446 -0.2216 -0.0500
 4221W        W 8285   6.155   1.481  10.507 -0.1053 -0.0582  0.0066
 4222W        W 8286  10.595   9.291   9.822  0.1326  0.0514 -0.2639
 4223W        W 8287   4.004   6.404   1.479 -0.2672  0.0952 -0.2353
 4224W        W 8288   9.082   6.578   0.832  0.4181  0.1258  0.2985
 4225W        W 8289  10.708   1.378   1.430 -0.1780 -0.2262 -0.1279
 4226W        W 8290  10.529   1.275   9.075  0.0950  0.1676 -0.0152
 4227W        W 8291  10.711   4.647   9.072  0.2114 -0.4239 -0.2764
 4228W        W 8292   8.076   8.800   4.182 -0.0328  0.0553  0.3119
 4229W        W 8293   3.259   3.250   0.657  0.1375  0.0420  0.3812
 4230W        W 8294   2.346   6.018  11.217 -0.1181 -0.3837 -0.1210
 4231W        W 8295   3.702   4.712  10.290 -0.1105 -0.1506 -0.2083
 4232W        W 8296   5.679   4.679   8.289 -0.1005 -0.0591  0.1462
 4233W        W 8297   5.563   6.176  11.053 -0.1047  0.0151 -0.1904
 4234W        W 8298  10.170   1.419   9.524  0.1586 -0.1115 -0.0751
 4235W        W 8299   1.339   2.610   0.563  0.0054 -0.0543  0.0643
 4236W        W 8300   4.056   2.171   2.216 -0.0936  0.3230 -0.0107
 4237W        W 8301   3.533   4.887   7.930  0.0930  0.0282 -0.1911
 4238W        W 8302   7.970   6.983   7.725  0.1826 -0.0968 -0.0909
 4239W        W 8303   0.658   5.599   2.648 -0.1920 -0.1059  0.0195
 4240W        W 8304   0.041  10.642  10.800  0.3860  0.0747  0.1253
 4241W        W 8305   2.099   2.443   8.810  0.1973  0.0990 -0.2721
 4242W        W 8306   9.910   5.116  11.104  0.3298  0.1929  0.1811
 4243W        W 8307   8.686   5.365   1.985 -0.0661 -0.1764  0.0860
 4244W        W 8308  10.658   9.862   7.692  0.2278  0.0852  0.1613
 4245W        W 8309   9.554   5.110   1.725 -0.1437  0.1322  0.0533
 4246W        W 8310   2.428   3.027   2.409  0.1933 -0.3224  0.1057
 4247W        W 8311   4.723   7.466  10.137  0.1924  0.2201 -0.2991
 4248W        W 8312   7.412   9.529   0.237  0.0774 -0.0932  0.0664
 4249W        W 8313   7.455   9.943  11.379 -0.0561 -0.2322  0.1376
 4250W        W 8314   8.609   8.956   8.205 -0.1367  0.0964 -0.4822
 4251W        W 8315   8.623   8.390  11.274 -0.3085 -0.1864 -0.3053
 4252W        W 8316   1.525   4.450   3.055 -0.0664  0.3472 -0.0666
 4253W        W 8317   4.095   3.808  11.396  0.0159  0.2564 -0.4625
 4254W        W 8318   0.952   1.178   0.606 -0.0328  0.2655 -0.3482
 4255W        W 8319   4.394   4.164  10.115  0.2073 -0.3897  0.0661
 4256W        W 8320   4.576   5.782   2.655 -0.3709  0.1525 -0.2684
 4257W        W 8321   1.658   6.223   9.401 -0.0811  0.0771  0.0682
 4258W        W 8322   9.279   1.223   9.313  0.1138  0.2432  0.1100
 4259W        W 8323   5.581   9.869   8.275 -0.2368 -0.0957  0.1903
 4260W        W 8324   9.372   4.630   2.168 -0.0950  0.1610 -0.0201
 4261W        W 8325   2.720   7.213   9.504 -0.1653  0.0160  0.0258
 4262W        W 8326   7.730   2.199   7.508 -0.0696 -0.0039  0.0627
 4263W        W 8327   1.921   6.771   3.124 -0.2817 -0.0656  0.2871
 4264W        W 8328   4.251   6.932   1.285 -0.1684  0.0381 -0.1844
 4265W        W 8329   6.658   5.776   8.802 -0.2888  0.0593 -0.2429
 4266W        W 8330   5.117   1.871   7.079  0.3642 -0.3165  0.0408
 4267W        W 8331   6.920   4.168   2.639 -0.1832 -0.2120 -0.4001
 4268W        W 8332   8.319   9.012   1.054 -0.0264 -0.1010 -0.1122
 4269W        W 8333   9.745   3.904   1.069  0.2541 -0.0795  0.0065
 4270W        W 8334   3.546   7.887   9.509  0.0424  0.1660 -0.0624
 4271W        W 8335   0.999   1.508   9.600 -0.1289 -0.2275 -0.0996
 4272W        W 8336   1.271   3.560   3.737 -0.0158  0.1189  0.3123
 4273W        W 8337   8.244   5.017  10.520 -0.1925 -0.0155 -0.0318
 4274W        W 8338   2.941   6.720   3.867 -0.1282 -0.0128 -0.0208
 4275W        W 8339   0.433   9.521   3.744  0.1782 -0.0901  0.0883
 4276W        W 8340   6.301   5.178   7.251 -0.3195  0.0934 -0.2207
 4277W        W 8341   0.092   8.920   8.121 -0.3760  0.2243 -0.1250
 4278W        W 8342   0.050   8.842   2.832 -0.0513  0.1812 -0.0243
 4279W        W 8343   1.306   3.154   8.908 -0.1044  0.0268 -0.0132
 4280W        W 8344   3.189   0.687  10.484  0.0029  0.3418  0.2158
 4281W        W 8345   0.974  10.534   2.074  0.0330 -0.0502 -0.1040
 4282W        W 8346   2.163   0.661   9.846 -0.2064 -0.1894 -0.0148
 4283W        W 8347  10.459   1.930   9.822 -0.3859 -0.0082 -0.1100
 4284W        W 8348   6.813   3.958   1.367 -0.0724  0.1576  0.0259
 4285W        W 8349   2.801   9.816   7.256  0.2575 -0.2144 -0.1881
 4286W        W 8350   8.053   4.420   3.105 -0.3477  0.0789  0.0926
 4287W        W 8351   0.769   4.456   3.303  0.0060 -0.2913 -0.4415
 4288W        W 8352   1.402   6.882   3.404  0.0143  0.0004  0.1393
 4289W        W 8353   2.028   2.386  11.375  0.2281 -0.0285 -0.0390
 4290W        W 8354   1.427   4.507   1.177 -0.3015  0.1411 -0.0453
 4291W        W 8355   5.313   5.244  11.291 -0.3403  0.0480  0.1383
 4292W        W 8356   2.737   7.122   0.796  0.1268 -0.1322  0.1651
 4293W        W 8357   8.961   3.361  10.798 -0.0695  0.3383 -0.1191
 4294W        W 8358   7.031   0.362  10.173 -0.3073 -0.3502  0.0971
 4295W        W 8359   1.773   1.466  10.366 -0.1774 -0.0612 -0.0220
 4296W        W 8360   2.827   5.256   0.055  0.1465 -0.1730  0.0879
 4297W        W 8361   9.021   8.304   7.377 -0.0427  0.3572  0.0948
 4298W        W 8362   6.885   2.881   9.493 -0.2324 -0.2399  0.2172
 4299W        W 8363   7.347  10.389  10.308 -0.1194  0.1151 -0.2114
 4300W        W 8364   8.614  10.679   7.630 -0.1399  0.2987 -0.0078
 4301W        W 8365   2.331   4.859   9.749  0.5572  0.0584  0.3103
 4302W        W 8366   9.124   4.816   3.040 -0.0375 -0.2154  0.2778
 4303W        W 8367   4.562   7.229   0.444  0.0191 -0.0714  0.0306
 4304W        W 8368   9.981  10.547  10.296  0.0570  0.0339 -0.0006
 4305W        W 8369   2.884   0.314   8.813 -0.2193  0.0336 -0.0193
 4306W        W 8370   2.345   8.477   9.165  0.1252  0.0508  0.2015
 4307W        W 8371  10.046   6.513   2.382  0.0976  0.1441 -0.2527
 4308W        W 8372   0.018   3.168   0.232 -0.0234 -0.0052 -0.5842
 4309W        W 8373   6.029   0.528  10.027 -0.1292  0.0274  0.1460
 4310W        W 8374   0.446   1.418   1.052 -0.2379 -0.0564 -0.1076
 4311W        W 8375   5.329   0.248   2.091  0.3487  0.0210  0.0433
 4312W        W 8376   8.676   0.189   2.859  0.3538 -0.3263  0.0891
 4313W        W 8377   8.368   8.985   0.507  0.1214  0.4075  0.0853
 4314W        W 8378   8.370   3.514  10.651  0.4242  0.1113  0.0227
 4315W        W 8379   7.553   1.903   8.826  0.0056 -0.3127  0.0958
 4316W        W 8380   0.138   2.853  11.152 -0.0216  0.0367 -0.1400
 4317W        W 8381   7.555  10.339   9.113  0.0963 -0.1226 -0.2335
 4318W        W 8382   4.408   3.485   7.501 -0.1131 -0.0120  0.2056
 4319W        W 8383   2.909   1.323   8.674 -0.2252  0.3262  0.1486
 4320W        W 8384   0.195  10.547   9.566 -0.0890 -0.1026 -0.0684
 4321W        W 8385   3.899   1.707   3.278  0.2759  0.0447  0.1800
 4322W        W 8386   4.629   8.084   2.021  0.3765  0.2768  0.0132
 4323W        W 8387   5.210   3.332   8.114 -0.2524 -0.1246  0.0538
 4324W        W 8388   4.718   0.413   8.122  0.0589  0.0438 -0.2722
 4325W        W 8389   3.870   6.029  11.137 -0.0187  0.1062 -0.0495
 4326W        W 8390   4.868   2.071   9.151 -0.1953  0.2339 -0.1845
 4327W        W 8391   0.392   8.725   1.773 -0.2406 -0.2927  0.0753
 4328W        W 8392   0.840   4.340   1.837 -0.1141  0.0793  0.1116
 4329W        W 8393   0.421   2.703   1.713  0.0234 -0.0178  0.0345
 4330W        W 8394   9.045   5.942   9.831 -0.0297  0.2210 -0.1277
 4331W        W 8395   8.312   2.391  10.194  0.0184 -0.3006 -0.0503
 4332W        W 8396   8.776  10.122   2.663 -0.0780 -0.0582  0.2029
 4333W        W 8397   9.166   7.301  10.582  0.0864  0.1269 -0.0994
 4334W        W 8398   5.295   9.205   6.919 -0.0583  0.0163  0.1854
 4335W        W 8399   8.401   6.211  11.065 -0.2387  0.1190  0.0929
 4336W        W 8400   1.194   7.293   2.732 -0.0919 -0.0481 -0.0718
 4337W        W 8401   6.491   5.249  10.148  0.1130 -0.2363  0.0214
 4338W        W 8402   4.995   0.053   1.211 -0.1211 -0.1535  0.1443
 4339W        W 8403   1.008   3.371   0.367  0.1698  0.1681  0.0627
 4340W        W 8404   9.144   1.241   0.185 -0.1750  0.1819  0.1834
 4341W        W 8405   5.028   9.280  11.304 -0.1451  0.0057 -0.3533
 4342W        W 8406   4.159   8.258   2.715  0.1622  0.0471 -0.0488
 4343W        W 8407   0.186   5.378   3.382  0.3363 -0.0336 -0.0654
 4344W        W 8408  10.176   5.035   3.127 -0.0835  0.2756  0.1017
 4345W        W 8409   3.408   8.746  10.418  0.0964  0.1451 -0.2802
 4346W        W 8410   6.926   5.014  10.278 -0.2741  0.0103 -0.2297
 4347W        W 8411   2.118   0.978   1.127 -0.1617  0.1563  0.1687
 4348W        W 8412   2.536   3.670   3.605 -0.3277  0.1123  0.0605
 4349W        W 8413   7.440  10.019   9.998  0.0007 -0.1443 -0.2627
 4350W        W 8414   5.115   6.408   3.595 -0.1619  0.2071 -0.0013
 4351W        W 8415   9.658  10.401   2.948 -0.2735  0.3388 -0.0384
 4352W        W 8416   1.973   3.985  10.437 -0.0332 -0.0425  0.0071
 4353W        W 8417   3.961   2.621   0.587  0.1447  0.1150 -0.0382
 4354W        W 8418   6.957   3.521   7.844 -0.0623  0.0063 -0.0663
 4355W        W 8419   4.674   2.735   9.294 -0.0189 -0.2629  0.0563
 4356W        W 8420   1.893   8.944   3.274  0.1557  0.3319 -0.0256
 4357W        W 8421   4.922   3.376  10.452  0.2794  0.1109 -0.0446
 4358W        W 8422   8.107   2.411   7.810  0.0412  0.3969 -0.3322
 4359W        W 8423  10.331   4.928   8.847 -0.0141  0.0615 -0.1208
 4360W        W 8424   5.119   6.465   8.871 -0.0184  0.0261  0.5211
 4361W        W 8425   3.675   9.949  10.290 -0.0750  0.0209  0.3752
 4362W        W 8426   2.819   6.800   9.227 -0.2103 -0.0197 -0.0486
 4363W        W 8427   1.390   4.625  10.203  0.0121  0.1964  0.1349
 4364W        W 8428   6.791   8.059   2.077 -0.1183  0.0502 -0.1675
 4365W        W 8429   6.527   3.307   2.572 -0.1695 -0.2120 -0.1090
 4366W        W 8430   3.194   0.412   9.627  0.0415  0.0803  0.4177
 4367W        W 8431   6.014   9.840   1.137 -0.2725 -0.1600 -0.1535
 4368W        W 8432   0.114   4.295   8.418 -0.2079 -0.1073 -0.1085
 4369W        W 8433   9.668   7.997   2.692 -0.2636 -0.0247  0.2676
 4370W        W 8434   3.579   4.527  11.183 -0.3599 -0.2144 -0.1271
 4371W        W 8435   8.484   8.179   1.723 -0.2408  0.2044  0.2570
 4372W        W 8436   4.549   9.098   8.429  0.0296 -0.0040 -0.1210
 4373W        W 8437   4.347   6.880   8.387  0.2073 -0.3111 -0.1771
 4374W        W 8438   1.336   1.321  10.118 -0.0361  0.0130  0.2071
 4375W        W 8439   6.918   7.392   2.127 -0.0338  0.3091 -0.0399
 4376W        W 8440   8.569   2.146  10.497 -0.0433 -0.0990  0.2994
 4377W        W 8441   4.187   0.936   0.278 -0.2761  0.0558  0.0118
 4378W        W 8442   6.425   7.785   0.561  0.0254  0.0729 -0.0247
 4379W        W 8443   9.419   9.205   9.666  0.1627  0.4042  0.2569
 4380W        W 8444   3.091   0.046  10.732  0.2461  0.2089 -0.0176
 4381W        W 8445   9.181   0.361   2.808 -0.0286  0.2607 -0.1064
 4382W        W 8446   9.984   0.054   7.324 -0.1032 -0.1786  0.2507
 4383W        W 8447   3.563   8.037   0.368 -0.1872 -0.2042 -0.1285
 4384W        W 8448   6.345   6.484   0.236 -0.1859  0.0461 -0.1743
 4385W        W 8449   9.924   5.854   1.568 -0.0395 -0.4252  0.1999
 4386W        W 8450   4.053   0.562  11.371  0.0607 -0.1890 -0.0113
 4387W        W 8451   4.945   4.067   9.870  0.0767  0.1327 -0.0229
 4388W        W 8452  10.678   5.963   8.908  0.2975  0.0829 -0.1569
 4389W        W 8453   8.145  10.592   8.359 -0.0702 -0.1360  0.1358
 4390W        W 8454   8.940   6.831   8.791  0.2119 -0.1411  0.2256
 4391W        W 8455   0.482   4.107   8.694 -0.2630 -0.1505 -0.1597
 4392W        W 8456   3.898   6.318   2.485  0.0901  0.5394 -0.3027
 4393W        W 8457   5.953   1.290   0.635 -0.0191  0.0703  0.1375
 4394W        W 8458   7.007   0.415   0.220  0.1049 -0.1425  0.0118
 4395W        W 8459   3.496   4.022   0.489 -0.1132  0.2992 -0.0163
 4396W        W 8460   6.110  10.547   7.267  0.0060  0.2450  0.5671
 4397W        W 8461   2.043   0.433  10.743  0.2022 -0.1184 -0.0016
 4398W        W 8462   4.997   9.602  10.580  0.0395  0.2471  0.0468
 4399W        W 8463   6.203   1.043   8.008 -0.0951  0.4134  0.0602
 4400W        W 8464   5.450   8.055   3.700  0.0461  0.3910  0.0308
 4401W        W 8465   1.806   7.581   9.565 -0.2312  0.0797  0.0642
 4402W        W 8466   0.408   3.076   8.884 -0.1162  0.1659 -0.2738
 4403W        W 8467   6.872   8.427   2.405  0.0452 -0.0839  0.4733
 4404W        W 8468   3.948   1.832   1.237  0.0721 -0.0438 -0.0444
 4405W        W 8469   0.414   3.383  11.200  0.1436 -0.2046 -0.1999
 4406W        W 8470   2.188   1.435   1.556 -0.0999 -0.1261  0.3560
 4407W        W 8471   8.911   9.173  11.100 -0.0119  0.0478  0.0092
 4408W        W 8472   2.658   6.220   0.143  0.0956 -0.4880  0.0085
 4409W        W 8473   8.489   2.973   8.904  0.1595  0.0069 -0.0204
 4410W        W 8474   5.657   8.940  10.619 -0.1993 -0.1015  0.0264
 4411W        W 8475   5.008   1.659   1.249  0.0849  0.1464  0.1501
 4412W        W 8476   3.489  10.414   0.473 -0.3617 -0.0388  0.1205
 4413W        W 8477   5.349   6.989   2.801 -0.0262 -0.2069  0.0290
 4414W        W 8478  10.359   1.750   1.538 -0.1284  0.0319  0.2105
 4415W        W 8479   4.483   3.333  10.922  0.2551  0.2274  0.3866
 4416W        W 8480   0.382   1.438   9.069 -0.3422  0.1491  0.1036
 4417W        W 8481   7.617   3.231   3.313  0.0994 -0.0199  0.0026
 4418W        W 8482  10.525   5.088   1.523 -0.2241 -0.0099 -0.0570
 4419W        W 8483   1.390   0.529   9.956  0.0180 -0.1480 -0.0549
 4420W        W 8484   1.141   0.301   7.633 -0.3927 -0.0833  0.0785
 4421W        W 8485   0.244   1.797   1.489 -0.0928 -0.1475  0.4038
 4422W        W 8486   5.739   1.812   1.561 -0.1378 -0.0052  0.2953
 4423W        W 8487   7.081   3.759   9.664  0.2405  0.1482  0.1771
 4424W        W 8488   3.737   1.481   6.868 -0.0489 -0.1325  0.0653
 4425W        W 8489   4.319   5.585   8.967 -0.7658  0.0128  0.1263
 4426W        W 8490   4.263   6.210  10.178  0.2200  0.1609  0.2859
 4427W        W 8491   3.250   7.031   0.508  0.0309  0.0184 -0.2148
 4428W        W 8492   4.264   4.380   7.579 -0.1783 -0.1115 -0.1539
 4429W        W 8493   6.160   4.562   9.286 -0.3366 -0.2624  0.1359
 4430W        W 8494   8.063   8.053   8.036 -0.3139  0.0415  0.1461
 4431W        W 8495   6.953   9.797   0.262  0.0809 -0.1007 -0.1806
 4432W        W 8496   9.028   2.565  11.221 -0.3694 -0.1070  0.2753
 4433W        W 8497   5.378   5.805   7.712  0.0858  0.0581  0.1070
 4434W        W 8498   1.602   2.916   8.054  0.0659  0.0093 -0.0439
 4435W        W 8499   6.756   6.677   9.707  0.0256  0.4219  0.0622
 4436W        W 8500   2.555   3.465   2.587 -0.2858 -0.0413  0.1825
 4437W        W 8501   8.823   0.473  11.356 -0.2631 -0.0873 -0.2504
 4438W        W 8502   9.412   6.522   1.222  0.0141 -0.0904 -0.2004
 4439W        W 8503   0.719   3.711   0.701  0.1759 -0.0067  0.0804
 4440W        W 8504   8.534   1.247   7.225  0.0674  0.1466 -0.1680
 4441W        W 8505   5.268   6.356   2.128 -0.3823  0.3191 -0.1057
 4442W        W 8506   8.785  10.697   1.336 -0.0531  0.0398  0.1084
 4443W        W 8507   9.641   1.276   0.206  0.1306 -0.0287 -0.1133
 4444W        W 8508   8.548   8.085   0.322 -0.2280  0.1976  0.1758
 4445W        W 8509   3.175   7.040  10.192 -0.0494  0.2196  0.2397
 4446W        W 8510   4.761   6.373   0.804 -0.3472  0.0376 -0.1735
 4447W        W 8511   5.953   6.427   2.316 -0.0215  0.1111  0.1767
 4448W        W 8512  10.147   3.394  11.162  0.0542  0.0092 -0.0924
 4449W        W 8513   9.721   1.431  10.212 -0.0328  0.2897 -0.0014
 4450W        W 8514   3.408   4.126   0.005  0.0770  0.0310 -0.1352
 4451W        W 8515   6.255   2.298   9.097 -0.6619  0.0355  0.0577
 4452W        W 8516   8.702   4.783   9.655  0.0844 -0.1191  0.1230
 4453W        W 8517   5.373   1.104   8.548  0.1625  0.2203 -0.1174
 4454W        W 8518   0.413   4.541  11.177 -0.0017  0.0392 -0.0270
 4455W        W 8519   0.095   2.479   2.760 -0.0007 -0.2544  0.1379
 4456W        W 8520   6.985   1.585  11.333  0.1316  0.0072 -0.0436
 4457W        W 8521   5.688   9.914   2.257  0.0709 -0.0647  0.0152
 4458W        W 8522   4.084   4.941   9.961 -0.2470 -0.0134  0.0589
 4459W        W 8523   5.227   2.415   6.535  0.0060  0.0743  0.0279
 4460W        W 8524   3.956  10.320   9.428 -0.2001 -0.1020 -0.0724
 4461W        W 8525   7.685   1.925   8.196  0.0447  0.3220 -0.2357
 4462W        W 8526   6.163   0.070  11.202  0.1520  0.2193  0.0706
 4463W        W 8527   2.438   8.352   8.650 -0.0612 -0.2525 -0.1105
 4464W        W 8528   6.310   1.744   9.188 -0.0405  0.0808 -0.4843
 4465W        W 8529   0.520   8.845   0.176 -0.1582  0.2310 -0.2587
 4466W        W 8530   2.598   4.977   0.531 -0.0564  0.2508 -0.0645
 4467W        W 8531   5.905   9.100  10.190  0.0865  0.0027  0.3513
 4468W        W 8532   2.754   7.306   1.729 -0.2094  0.1498 -0.1019
 4469W        W 8533   9.811   5.325   7.487 -0.1954 -0.0741  0.1704
 4470W        W 8534   7.321  10.240   9.555 -0.2401 -0.1427  0.1328
 4471W        W 8535   8.614   5.738   9.913  0.1600  0.0363 -0.0890
 4472W        W 8536   8.596   1.339   9.359 -0.2023 -0.1279  0.1803
 4473W        W 8537   4.380   2.553   2.669 -0.0722 -0.1419 -0.0018
 4474W        W 8538   9.567   9.194   8.513 -0.2845  0.3498 -0.1135
 4475W        W 8539   1.263   1.659   1.329  0.0121  0.1628 -0.3033
 4476W        W 8540   1.536  10.483   7.024  0.1229 -0.0694 -0.0492
 4477W        W 8541   9.827   2.449   1.164 -0.1921 -0.2088 -0.2601
 4478W        W 8542   5.568   3.218   3.221 -0.0334 -0.2795  0.2652
 4479W        W 8543   0.558   1.911  11.023  0.0263 -0.0030  0.1071
 4480W        W 8544   1.280   2.183   3.499  0.1867 -0.0560  0.1345
 4481W        W 8545   6.924   5.459   2.435 -0.1955  0.2601 -0.1632
 4482W        W 8546   9.997   3.289   8.821  0.0956 -0.1462  0.3325
 4483W        W 8547   8.507   1.171  10.790 -0.3108  0.3785  0.4062
 4484W        W 8548   2.950   8.854   8.069  0.1024 -0.1320  0.1091
 4485W        W 8549   3.566   8.477   1.403 -0.0596  0.0463 -0.0976
 4486W        W 8550   9.306   7.813   9.913 -0.0330 -0.0616 -0.2475
 4487W        W 8551   3.171   3.513  10.033 -0.1436  0.3343  0.1459
 4488W        W 8552   7.478   4.692   9.482  0.1457 -0.0727  0.2904
 4489W        W 8553  10.460   7.876  11.085  0.2268 -0.0705 -0.0987
 4490W        W 8554  10.615  10.382   2.725 -0.1167  0.0463 -0.1885
 4491W        W 8555   4.189   1.187   8.030  0.1490 -0.3260  0.3025
 4492W        W 8556  10.363   7.543   8.807  0.0076 -0.1250 -0.1661
 4493W        W 8557   3.975  10.053   7.845 -0.1212 -0.0081  0.3012
 4494W        W 8558   8.346   3.979   1.416 -0.0829 -0.0341  0.3297
 4495W        W 8559  10.588   6.789   3.092  0.1160  0.2604  0.1639
 4496W        W 8560   0.384  10.305   3.059  0.1335 -0.2596 -0.1627
 4497W        W 8561   2.564   5.986   1.652  0.0785  0.3046  0.0641
 4498W        W 8562  10.021   7.876   8.745  0.0957  0.0207 -0.0716
 4499W        W 8563   1.124   3.516   1.512  0.0853  0.1335 -0.0716
 4500W        W 8564   3.151   2.827   0.916 -0.1542  0.0410 -0.2230
 4501W        W 8565   2.432   1.490  11.008 -0.3779 -0.1834  0.4339
 4502W        W 8566   9.124   6.892  11.401 -0.1809  0.2181  0.0418
 4503W        W 8567   0.285   7.065   0.458  0.1657 -0.0912  0.0826
 4504W        W 8568   7.956   5.756   9.967  0.0579  0.3470  0.2510
 4505W        W 8569  10.363   8.107   2.307 -0.1255  0.2322  0.2359
 4506W        W 8570   5.129   2.336   0.019 -0.0605  0.4549  0.2144
 4507W        W 8571   6.483   2.391   8.089 -0.1821 -0.2311  0.1433
 4508W        W 8572   6.886   7.011   8.568 -0.1032 -0.0182  0.4420
 4509W        W 8573   7.521   1.718   9.634  0.0676 -0.1126  0.0691
 4510W        W 8574   2.547   1.969   9.333  0.0912 -0.0219  0.1077
 4511W        W 8575   8.024  10.100   1.296  0.1944  0.0946  0.2808
 4512W        W 8576   6.792   6.177   1.989  0.1934 -0.2020 -0.1533
 4513W        W 8577   8.341   5.451   9.428 -0.1835  0.1483 -0.1380
 4514W        W 8578   4.814   4.959  10.430 -0.2083  0.0322  0.0763
 4515W        W 8579   0.305   0.651   9.994  0.1130  0.0616  0.0024
 4516W        W 8580   0.057   5.101   0.720  0.2628  0.1461 -0.3040
 4517W        W 8581  10.405   9.258   1.653  0.3497 -0.1699 -0.1637
 4518W        W 8582  10.230   1.362   7.227  0.1852  0.4629  0.0478
 4519W        W 8583  10.214  10.294   3.009 -0.0996  0.0346 -0.0762
 4520W        W 8584   7.351   0.340   8.277  0.3248 -0.0200  0.1620
 4521W        W 8585   4.970   3.007  11.335  0.2608  0.1118 -0.2453
 4522W        W 8586   7.205  10.321   0.895  0.2947  0.0272 -0.0400
 4523W        W 8587   5.064   4.112  10.989 -0.1134 -0.4132 -0.2964
 4524W        W 8588   3.695   9.520   2.527 -0.0262 -0.3434  0.0993
 4525W        W 8589   5.450   8.337   9.947 -0.0422  0.0841  0.4337
 4526W        W 8590   1.498   4.136  10.344 -0.1087 -0.1712  0.0977
 4527W        W 8591   6.102  10.710   0.314 -0.0787  0.2060  0.0795
 4528W        W 8592   9.100   0.499   3.316 -0.2900  0.1666  0.2233
 4529W        W 8593   2.394   7.951   8.938 -0.1577 -0.2140 -0.2371
 4530W        W 8594   0.672   3.691   0.146  0.1091  0.1293  0.2289
 4531W        W 8595   4.746  10.660   0.066  0.2287  0.2179  0.0579
 4532W        W 8596   9.000   5.114   8.837  0.0922  0.3507  0.1691
 4533W        W 8597   4.267   5.620   0.983 -0.2161 -0.2433 -0.1366
 4534W        W 8598  10.565  10.115   9.600 -0.1827  0.0802  0.0664
 4535W        W 8599   6.120   7.111   9.286 -0.1497  0.0151 -0.1212
 4536W        W 8600   4.621   9.798   0.663  0.3064  0.1684  0.0356
 4537W        W 8601   3.340   5.244   2.635  0.1221  0.3914  0.0828
 4538W        W 8602   2.892   7.009   2.436  0.3029  0.0283  0.0761
 4539W        W 8603   3.275   5.212   7.548 -0.0611  0.0086  0.1192
 4540W        W 8604   2.433   1.831  10.638 -0.0989 -0.3022 -0.1688
 4541W        W 8605   3.644   9.099   2.147 -0.0289  0.1505  0.1443
 4542W        W 8606   7.338   5.709  11.257  0.1928  0.3173  0.1402
 4543W        W 8607  10.713   6.711   2.511  0.1758  0.0121 -0.2615
 4544W        W 8608   9.828   8.732   0.143  0.1211 -0.3480 -0.1758
 4545W        W 8609   4.658   0.769   0.534 -0.0241  0.1653 -0.4717
 4546W        W 8610   2.353   8.436   9.665 -0.0767  0.1354  0.0973
 4547W        W 8611   2.802   4.210   1.640 -0.0360 -0.0151 -0.0238
 4548W        W 8612  10.594   0.021   0.956 -0.2143 -0.1721 -0.1740
 4549W        W 8613   9.343   2.513   1.272  0.1532  0.0320  0.1391
 4550W        W 8614   2.205   8.599   3.041  0.0831 -0.0880  0.1859
 4551W        W 8615   8.166   5.541   2.706 -0.0728  0.1480  0.0911
 4552W        W 8616   6.959   3.331   9.875  0.0795 -0.0966 -0.0228
 4553W        W 8617   6.620   8.251   8.648 -0.3925 -0.1556  0.1618
 4554W        W 8618   7.638   0.242   2.915  0.2198  0.2691 -0.0447
 4555W        W 8619   4.465   6.814   0.056  0.0726  0.0106  0.0907
 4556W        W 8620   9.740   7.900   7.993  0.3673  0.2156  0.1329
 4557W        W 8621   5.940   5.105   1.333  0.1045 -0.1804 -0.1247
 4558W        W 8622   4.419   1.851   2.371  0.2614  0.0331  0.0517
 4559W        W 8623   7.986   1.514   2.738 -0.1082  0.1989  0.0212
 4560W        W 8624   4.207   0.638  10.019  0.0772 -0.1081 -0.2055
 4561W        W 8625   1.851   5.357   9.170 -0.1273  0.1691 -0.3971
 4562W        W 8626   7.295   7.041   2.157  0.2537 -0.1899  0.3462
 4563W        W 8627   2.875   9.052  10.928  0.1524 -0.0894 -0.0944
 4564W        W 8628   2.571   6.250  10.814  0.2758  0.3377  0.3179
 4565W        W 8629   7.757   4.315  10.388  0.2198 -0.0900  0.2372
 4566W        W 8630   5.559   8.515   1.620 -0.0865  0.1412 -0.0099
 4567W        W 8631   7.747   8.098  10.409  0.1462 -0.1730  0.1597
 4568W        W 8632  10.281   6.584   9.124 -0.0538 -0.3539  0.3095
 4569W        W 8633   9.076   1.218  10.832  0.1640  0.2707 -0.2601
 4570W        W 8634   4.604   8.478   2.420  0.3805  0.2198 -0.1042
 4571W        W 8635   3.642   7.145   9.991 -0.0022 -0.4229 -0.0153
 4572W        W 8636  10.582   7.671   2.803 -0.1490 -0.0028 -0.1312
 4573W        W 8637   7.389   0.831   9.005 -0.3053  0.1162 -0.1188
 4574W        W 8638   3.553   0.813   8.422  0.0210 -0.3942 -0.3056
 4575W        W 8639   5.270   3.695   7.637  0.3081 -0.1082  0.3976
 4576W        W 8640   0.844   0.945  11.142 -0.3285  0.0234  0.3982
 4577W        W 8641   4.747   5.694   0.320  0.1295 -0.0090  0.0557
 4578W        W 8642   9.591   3.369   9.615 -0.0862  0.1727 -0.0255
 4579W        W 8643   7.696   3.705   8.859  0.0550  0.0903 -0.1199
 4580W        W 8644   1.119   7.764   2.458 -0.2099 -0.2159  0.0951
 4581W        W 8645   8.768   5.865   3.299 -0.0130  0.0119 -0.1584
 4582W        W 8646   7.407   1.456  10.560 -0.3963  0.1673  0.2560
 4583W        W 8647   9.001   1.902   0.627  0.1126  0.0248 -0.3427
 4584W        W 8648   4.723   3.758  10.747  0.0990 -0.5368  0.1132
 4585W        W 8649  10.341   3.973   2.875  0.0596  0.3018 -0.1085
 4586W        W 8650   0.264   1.178   3.768  0.0392 -0.0271  0.0849
 4587W        W 8651   4.178  10.183   2.268 -0.2195 -0.1103 -0.0839
 4588W        W 8652   2.060   5.557   1.815  0.1683  0.0309 -0.0045
 4589W        W 8653   1.035   4.921   3.265 -0.0564  0.1264  0.1432
 4590W        W 8654   2.417   9.762   8.989  0.2153  0.0727 -0.1990
 4591W        W 8655   1.748   9.378   2.196  0.0772 -0.0989 -0.1643
 4592W        W 8656   6.754   0.081   7.781 -0.2968  0.0797  0.0136
 4593W        W 8657   5.004   1.893  11.240 -0.2512  0.3017  0.1572
 4594W        W 8658   4.548   8.898   0.608 -0.0421  0.0496 -0.2874
 4595W        W 8659   2.647   8.353   2.153 -0.0155 -0.0710  0.1688
 4596W        W 8660   5.373   5.488   9.899  0.2021 -0.1930  0.0430
 4597W        W 8661   5.306   9.255   1.804  0.2265  0.1429  0.3220
 4598W        W 8662   3.773   0.782  10.420 -0.0629 -0.1287 -0.0465
 4599W        W 8663   2.086   6.602  11.254  0.1097  0.2040  0.0154
 4600W        W 8664   4.133  10.677   9.667 -0.0952 -0.3196 -0.0845
 4601W        W 8665   4.671   5.749   8.525 -0.2196 -0.2962  0.0101
 4602W        W 8666   5.617   9.386   9.161  0.0636  0.1426 -0.0328
 4603W        W 8667   9.069   2.386   2.543  0.2061 -0.2478  0.2142
 4604W        W 8668   3.111   2.910   9.524  0.0496 -0.4361 -0.1111
 4605W        W 8669  10.111   8.636  10.488 -0.2143 -0.0866  0.2181
 4606W        W 8670   0.258   4.710   9.619  0.0491  0.1869  0.2525
 4607W        W 8671   9.706   8.496   2.104 -0.1977  0.1291  0.0290
 4608W        W 8672  10.176   7.481  11.030  0.2781 -0.1836  0.0757
 4609W        W 8673   2.030   8.204   3.260  0.2398  0.1163  0.1865
 4610W        W 8674  10.043   4.522   8.867  0.5193  0.2438 -0.1044
 4611W        W 8675   6.645   8.485  10.805  0.1614 -0.1714  0.0080
 4612W        W 8676   6.537   0.279   2.401  0.1221 -0.0434 -0.0153
 4613W        W 8677   4.684   8.397   7.413 -0.2183  0.0203  0.3212
 4614W        W 8678   4.829   4.380   1.987 -0.0688 -0.2638 -0.1201
 4615W        W 8679   2.385  10.720   9.096  0.2730 -0.0036 -0.0164
 4616W        W 8680   9.847  10.680  10.774  0.1380  0.1216  0.2053
 4617W        W 8681   4.320   8.722   1.068  0.0812 -0.0420  0.0941
 4618W        W 8682   4.008   1.035   2.670  0.2456 -0.3597 -0.2080
 4619W        W 8683   8.015   6.993   1.085  0.4368  0.1916  0.0407
 4620W        W 8684   0.235   2.672   2.283  0.1037  0.0408 -0.0579
 4621W        W 8685   6.341   2.357   3.606  0.0581 -0.1174 -0.2408
 4622W        W 8686   9.559   3.408   0.132  0.1463 -0.2676  0.2594
 4623W        W 8687   0.688   1.719   0.097  0.0513 -0.0394  0.0652
 4624W        W 8688   4.521  10.442   2.023 -0.0178  0.2861  0.2880
 4625W        W 8689   3.118   6.069   8.514 -0.0089 -0.2541 -0.0091
 4626W        W 8690   8.725   1.317   7.743  0.1486 -0.0398  0.0368
 4627W        W 8691   4.911  10.268   0.387  0.2665 -0.0692 -0.1003
 4628W        W 8692   7.157   4.794   9.098  0.0943 -0.4335  0.5570
 4629W        W 8693   3.917   1.362   0.385  0.2737  0.3483  0.2100
 4630W        W 8694   9.416   3.890   2.980 -0.3869 -0.3015 -0.0240
 4631W        W 8695   7.496   9.018   1.793  0.0934  0.0699 -0.2800
 4632W        W 8696  10.035   2.496   8.196 -0.3365  0.3418 -0.1149
 4633W        W 8697   3.438   0.583   2.827  0.4276 -0.0234 -0.2031
 4634W        W 8698   2.720   5.852   0.608 -0.1218 -0.0246 -0.1054
 4635W        W 8699   2.881  10.325   2.915  0.1839 -0.0777 -0.2167
 4636W        W 8700   9.933   5.420   2.988  0.1617  0.2097 -0.2030
 4637W        W 8701   5.437   6.565   1.515  0.0108 -0.3286  0.4070
 4638W        W 8702   0.868   2.567   1.437 -0.2603  0.0659 -0.1633
 4639W        W 8703   1.453   6.762   2.825  0.2829  0.0287  0.1298
 4640W        W 8704   6.038   2.582  10.313  0.2435  0.1986  0.2235
 4641W        W 8705   6.860   5.037   2.843  0.1665  0.0656 -0.1584
 4642W        W 8706   1.319   7.446   8.174  0.3258  0.2976  0.1214
 4643W        W 8707   9.172   0.083   0.842  0.1374  0.2989 -0.2166
 4644W        W 8708   4.625   7.875  10.469  0.0366 -0.0561 -0.2917
 4645W        W 8709   7.732   9.571   0.642  0.3707 -0.3522 -0.0198
 4646W        W 8710   4.154   1.752   8.849 -0.2551 -0.0495 -0.0092
 4647W        W 8711   7.144   7.079   9.550  0.1012  0.1507 -0.1071
 4648W        W 8712   4.729   8.685   0.056  0.0307 -0.1237  0.1634
 4649W        W 8713  10.715   0.550   7.339  0.1180 -0.1263  0.1714
 4650W        W 8714   4.503   9.108  11.281  0.0582 -0.2509 -0.0416
 4651W        W 8715  10.574   5.507   9.578  0.0271 -0.1088  0.1570
 4652W        W 8716   6.180   0.473   1.067  0.2725  0.2424 -0.2496
 4653W        W 8717  10.586   1.525   8.098 -0.0412 -0.0624  0.0355
 4654W        W 8718   3.564   2.674   8.825 -0.0514 -0.2631 -0.0559
 4655W        W 8719   8.227   1.038   2.817  0.0768  0.1189 -0.0334
 4656W        W 8720   0.771   5.394   3.114  0.0871  0.1608 -0.1082
 4657W        W 8721   4.711   8.197  11.363 -0.1115  0.0644  0.0248
 4658W        W 8722   6.748   1.323  10.447  0.1365  0.2060 -0.1900
 4659W        W 8723   6.017   5.860   2.012 -0.1366  0.2834  0.1920
 4660W        W 8724   5.516   2.138   7.240 -0.2038  0.1431 -0.3144
 4661W        W 8725   2.770   9.661   1.919 -0.0106  0.2375  0.0452
 4662W        W 8726   8.468   1.770   1.959  0.1773  0.3134 -0.1379
 4663W        W 8727   7.769   9.915   7.833  0.1539  0.2354  0.2505
 4664W        W 8728   7.625   1.188  10.957  0.0424 -0.0466  0.2617
 4665W        W 8729   7.831   1.490   1.046  0.2417  0.3236  0.1707
 4666W        W 8730   7.906   0.027   7.803  0.0304  0.2288  0.0642
 4667W        W 8731   4.250   1.463   7.247 -0.1389  0.0638 -0.4153
 4668W        W 8732   4.868   2.299   0.526  0.1874  0.0624 -0.0013
 4669W        W 8733   9.925   9.946   2.008  0.1270 -0.3469  0.0079
 4670W        W 8734   8.481  10.023   8.141  0.0620  0.0470  0.3010
 4671W        W 8735   8.788   4.242   8.948  0.1116  0.2027 -0.0062
 4672W        W 8736   5.028   3.951   0.450  0.0510  0.2033  0.0237
 4673W        W 8737   5.273   1.189  10.361  0.1560  0.1935  0.1335
 4674W        W 8738   0.542  10.197   2.057  0.1124  0.0871  0.1785
 4675W        W 8739   1.676   8.507   3.141  0.1441  0.2909 -0.0970
 4676W        W 8740   2.507   7.751   1.390 -0.0649 -0.1766  0.1759
 4677W        W 8741   2.690   0.859   1.067 -0.4380  0.2694 -0.0469
 4678W        W 8742   6.851   4.203  10.377 -0.2808 -0.1706  0.0320
 4679W        W 8743   6.387   7.011   8.851 -0.3512 -0.0796 -0.0702
 4680W        W 8744   7.628   4.749   2.588  0.2972  0.1776  0.0320
 4681W        W 8745   2.067   5.009  10.388 -0.2384  0.2207 -0.0597
 4682W        W 8746   7.617   0.277   7.404  0.0365 -0.1662  0.1035
 4683W        W 8747  10.303   4.784   2.336 -0.0098 -0.1678 -0.1389
 4684W        W 8748   6.636   6.098   2.920  0.1812  0.0699 -0.4485
 4685W        W 8749  10.342   9.392   2.927  0.3161  0.1159  0.0637
 4686W        W 8750   3.124   9.518   3.302  0.1079 -0.1760  0.1420
 4687W        W 8751   9.868   6.401   2.941 -0.6132  0.2932 -0.1335
 4688W        W 8752   4.912   5.877   0.852  0.1390 -0.2900  0.3351
 4689W        W 8753   5.435   8.815   2.039 -0.3427 -0.1827 -0.0361
 4690W        W 8754   2.732   8.850   7.313 -0.3203  0.1255 -0.2900
 4691W        W 8755   3.858   4.645   8.453  0.4705  0.1152 -0.0334
 4692W        W 8756   4.613   1.803   7.073 -0.1958  0.0876 -0.3824
 4693W        W 8757   8.603   7.839  10.529 -0.2065  0.0039  0.0319
 4694W        W 8758   5.991   5.556   0.502  0.0048  0.1700 -0.2467
 4695W        W 8759   0.371   8.125   3.680 -0.3326 -0.2856  0.1019
 4696W        W 8760   2.774   7.440   0.395  0.0282 -0.1072  0.3128
 4697W        W 8761   7.327   4.897   3.030 -0.1276  0.0067  0.1272
 4698W        W 8762   6.277   0.351   7.623 -0.1944  0.3585 -0.2075
 4699W        W 8763   4.680   3.139   1.730  0.2796  0.0683 -0.0222
 4700W        W 8764   4.670   2.936  10.631  0.0171  0.1938  0.1175
 4701W        W 8765  10.393   0.072   8.946 -0.2308  0.1717  0.0888
 4702W        W 8766   5.150   0.530   9.227  0.0088  0.0482  0.1986
 4703W        W 8767   5.241   4.051   2.209  0.2144 -0.0429 -0.0060
 4704W        W 8768   8.999   4.960   7.824 -0.0777 -0.0209  0.1647
 4705W        W 8769   8.450   3.034   1.462  0.0979 -0.1128  0.1357
 4706W        W 8770   9.873   1.242   2.307 -0.2523 -0.1205  0.2344
 4707W        W 8771   8.076   3.483   1.139  0.1818 -0.0163  0.2084
 4708W        W 8772   3.579   3.267   9.707 -0.1275  0.1056 -0.2130
 4709W        W 8773   0.463   8.289  11.111  0.1200  0.2576  0.0635
 4710W        W 8774   6.576   8.835   0.837  0.0335  0.0660 -0.2144
 4711W        W 8775   5.804   4.668   2.434 -0.1960  0.4068 -0.0360
 4712W        W 8776   0.972   8.019   2.021  0.4266  0.0461 -0.4238
 4713W        W 8777   6.471   8.197   7.974 -0.1109 -0.0793 -0.4457
 4714W        W 8778   0.429  10.597  10.514 -0.0287 -0.0354  0.0492
 4715W        W 8779   5.850   2.318   0.658 -0.2337 -0.0702 -0.0082
 4716W        W 8780   7.530   1.077   8.498 -0.0786  0.2840 -0.0718
 4717W        W 8781   0.034  10.528   7.849 -0.1800  0.0645  0.1531
 4718W        W 8782   3.018   5.335  10.100 -0.4326 -0.0372 -0.0779
 4719W        W 8783   7.857   0.917   8.116 -0.2610  0.1140 -0.1321
 4720W        W 8784   6.385   5.768   3.289 -0.0817  0.0138  0.0286
 4721W        W 8785   0.206   7.486   2.572  0.2735  0.3546  0.0683
 4722W        W 8786   3.576   4.788   0.681 -0.2582 -0.0730  0.2480
 4723W        W 8787   9.843   2.397   2.948  0.3427  0.0926  0.0305
 4724W        W 8788   8.404   2.896   9.677 -0.0906 -0.0510  0.1017
 4725W        W 8789  10.489   6.711   8.623  0.1995 -0.1631 -0.1153
 4726W        W 8790   0.550   0.265  10.136 -0.0429 -0.0521  0.0987
 4727W        W 8791   6.580   3.926   2.388 -0.4053  0.2269  0.3247
 4728W        W 8792   7.556   5.404  10.773 -0.2485 -0.3283  0.0154
 4729W        W 8793   6.944   0.517   1.137  0.0930 -0.1512 -0.1313
 4730W        W 8794   5.664   7.242   8.440  0.1762 -0.1886  0.0062
 4731W        W 8795   4.359   7.483   7.743 -0.0381 -0.3091 -0.3599
 4732W        W 8796   9.329   3.101  11.205  0.2752 -0.0504 -0.4239
 4733W        W 8797   3.834   2.792   3.842 -0.0673 -0.0541 -0.2698
 4734W        W 8798   1.528   9.684   1.930  0.1645  0.0142 -0.0356
 4735W        W 8799   0.693   2.245   0.063 -0.1462 -0.1449  0.1002
 4736W        W 8800   9.127   2.536   9.795 -0.2808  0.1490  0.2929
 4737W        W 8801   7.221   8.843   9.499  0.1408  0.3193 -0.0450
 4738W        W 8802   3.487   8.302  10.135 -0.3361 -0.0649 -0.0756
 4739W        W 8803   6.493   4.226   2.924  0.0208 -0.2004 -0.0525
 4740W        W 8804   7.776   1.103   8.891 -0.1113 -0.4365 -0.0757
 4741W        W 8805   4.529   6.278  10.609 -0.1180  0.1527  0.2872
 4742W        W 8806   6.054   7.559  10.659 -0.2642  0.2159 -0.1872
 4743W        W 8807   2.579   3.612   8.311  0.0260  0.0102 -0.0375
 4744W        W 8808   9.757   3.660   2.247 -0.0401  0.0800 -0.0473
 4745W        W 8809   2.118   2.306   9.820  0.2445  0.0412  0.1251
 4746W        W 8810   1.689   2.156   8.583 -0.3665  0.2049  0.0812
 4747W        W 8811   1.911   2.581   0.836 -0.1061 -0.1518  0.2228
 4748W        W 8812   6.631   3.376   1.082 -0.0416 -0.1907 -0.1702
 4749W        W 8813   7.700   9.803   8.317  0.0252  0.2077 -0.5962
 4750W        W 8814   6.967   3.141   7.517 -0.0038  0.1642 -0.2604
 4751W        W 8815   2.042   2.998   7.702  0.3312 -0.2130 -0.0335
 4752W        W 8816   2.863   3.439  10.569 -0.0687  0.0453 -0.1129
 4753W        W 8817   6.407   3.192   9.216 -0.0504  0.0798 -0.1064
 4754W        W 8818   6.785  10.401   9.614 -0.2271 -0.1162  0.1674
 4755W        W 8819   3.332   1.769   8.913 -0.2535 -0.3100 -0.1570
 4756W        W 8820   3.101   3.583   3.342 -0.0377 -0.2046  0.0942
 4757W        W 8821   3.009   2.300   0.670  0.5131 -0.4363 -0.2301
 4758W        W 8822   7.665   9.947   3.224  0.2165  0.1952 -0.1116
 4759W        W 8823   2.756   9.744   9.995  0.1777  0.0985  0.3517
 4760W        W 8824   4.866   4.073   8.635 -0.0929 -0.0905 -0.0597
 4761W        W 8825   7.604   4.373   6.915  0.0757 -0.0413 -0.0701
 4762W        W 8826   8.818   7.481   0.771  0.1475  0.1750  0.0182
 4763W        W 8827   5.902   8.685   7.230  0.0656 -0.1792  0.1506
 4764W        W 8828   0.526   2.839   2.712 -0.1622  0.2342 -0.3289
 4765W        W 8829   5.614   2.972   8.121  0.0333 -0.1481  0.0011
 4766W        W 8830   1.943   7.492   9.081 -0.2588  0.0807 -0.0842
 4767W        W 8831   4.402   0.371   8.558 -0.0901 -0.2238 -0.0921
 4768W        W 8832   3.414  10.644   8.936  0.0078  0.1432 -0.3277
 4769W        W 8833   4.748   2.773   7.415  0.0345 -0.2681  0.2129
 4770W        W 8834   1.790   1.190   2.526  0.0036 -0.0708  0.3176
 4771W        W 8835   9.770   4.733   0.413  0.0282  0.1884 -0.0728
 4772W        W 8836   8.434   7.244   2.565  0.0466 -0.0058 -0.3131
 4773W        W 8837   7.153   5.725  10.770 -0.4307  0.2029  0.2861
 4774W        W 8838   3.501   6.368   1.080  0.1186 -0.1017 -0.0397
 4775W        W 8839   3.027   9.813   9.216 -0.0664 -0.2108  0.0027
 4776W        W 8840   2.636   8.656   1.736 -0.2076  0.1595 -0.2016
 4777W        W 8841   4.969   9.251   7.566 -0.3620  0.1108  0.4068
 4778W        W 8842  10.112   3.575   8.361  0.0931  0.4033  0.0144
 4779W        W 8843   2.363   0.722   0.720 -0.4028  0.0027  0.0227
 4780W        W 8844   8.294   8.304   9.099 -0.2300  0.1612 -0.1666
 4781W        W 8845   4.018   7.849   8.737 -0.0698  0.0588 -0.1240
 4782W        W 8846   6.418   2.851   7.846  0.2028  0.0268  0.1596
 4783W        W 8847   0.722   4.309   2.791 -0.2718  0.1272  0.4507
 4784W        W 8848   7.055   4.709  11.120  0.4093  0.3283 -0.1507
 4785W        W 8849   0.868   8.332   8.698  0.1175  0.3064 -0.1426
 4786W        W 8850   1.589   9.330   3.121  0.1667 -0.1995 -0.0445
 4787W        W 8851   1.790   3.910   9.991 -0.1406  0.4487 -0.0919
 4788W        W 8852   4.399   5.470   0.517  0.0260  0.1045 -0.1309
 4789W        W 8853   0.192   1.830  10.118 -0.1146  0.1259  0.0035
 4790W        W 8854   7.094   1.060  10.716 -0.0432  0.0817 -0.0224
 4791W        W 8855   3.571   2.695   2.285  0.1591  0.0512 -0.0304
 4792W        W 8856   2.917   3.291   1.766 -0.1799  0.0594 -0.0397
 4793W        W 8857   5.526   0.651   8.359 -0.2168 -0.1097  0.0012
 4794W        W 8858   9.936   0.340   0.194 -0.1077  0.2397 -0.0182
 4795W        W 8859  10.575   8.457   1.438 -0.0925 -0.1535 -0.1786
 4796W        W 8860   5.648   9.702   9.834  0.0216  0.2663 -0.0794
 4797W        W 8861   6.266   8.300   6.666 -0.1632  0.0730  0.2841
 4798W        W 8862   6.655   3.449   0.140  0.0316  0.1812  0.0616
 4799W        W 8863   2.179   9.982   6.695 -0.2339  0.0083  0.1009
 4800W        W 8864   0.902   2.845   8.824 -0.0444 -0.1093 -0.0160
 4801W        W 8865   1.138   8.802   1.025 -0.0906 -0.0048 -0.1926
 4802W        W 8866   1.821   4.691   1.457 -0.1949  0.0354  0.2939
 4803W        W 8867   4.489   2.373   8.969  0.1835 -0.0339 -0.0025
 4804W        W 8868   6.688   9.118   8.197 -0.0344 -0.4952 -0.0141
 4805W        W 8869   0.569   6.299   2.260 -0.3363 -0.0367  0.0443
 4806W        W 8870   5.025   6.272  11.001 -0.0323  0.0023 -0.0938
 4807W        W 8871   5.481   4.261  10.093  0.3154 -0.1531 -0.3704
 4808W        W 8872   0.664   3.063   0.123  0.1364  0.0959 -0.1014
 4809W        W 8873   8.145   8.071  11.280 -0.0311  0.0556  0.1787
 4810W        W 8874   3.875   4.219   8.753  0.0476 -0.2335 -0.5094
 4811W        W 8875   2.120   1.134  10.771  0.1133  0.2819  0.0909
 4812W        W 8876   1.260   7.639   1.962 -0.3918 -0.0895  0.2713
 4813W        W 8877   9.835   0.773   7.928  0.0927 -0.1620  0.0620
 4814W        W 8878   0.780   9.878   2.491  0.0504  0.1137  0.0121
 4815W        W 8879   1.848   7.180  10.776  0.0040  0.0832  0.0094
 4816W        W 8880   6.004   9.285   8.749  0.0284  0.3467 -0.1982
 4817W        W 8881   9.743   9.897  11.127  0.2513  0.0915  0.0777
 4818W        W 8882   1.999   3.611  10.782 -0.2958  0.0174 -0.1735
 4819W        W 8883   5.669   2.553   7.135  0.1602 -0.1337  0.1891
 4820W        W 8884   2.963   6.333   2.888  0.1819 -0.0492  0.1582
 4821W        W 8885   4.302  10.221  10.904  0.1309 -0.2718 -0.2230
 4822W        W 8886   4.702  10.280   9.001 -0.2557  0.1189  0.0929
 4823W        W 8887   2.898   3.277   1.073  0.1144 -0.1298  0.3421
 4824W        W 8888   7.191   6.267   9.735  0.1276  0.1955  0.1111
 4825W        W 8889   8.126   9.006   7.652 -0.1129 -0.1592  0.2209
 4826W        W 8890   2.488   1.855   8.014  0.0432  0.2033  0.1844
 4827W        W 8891   8.657   5.334   2.898 -0.2573 -0.2379  0.3920
 4828W        W 8892  10.644   1.972   1.899  0.2867 -0.1842 -0.3983
 4829W        W 8893   7.005   5.031   8.626 -0.0239 -0.1451 -0.3340
 4830W        W 8894   1.910  10.046  11.328  0.3579 -0.1332 -0.0514
 4831W        W 8895   9.205   4.419   8.665  0.0500 -0.0800  0.2326
 4832W        W 8896   5.174   9.141  10.488  0.1813 -0.0594  0.1568
 4833W        W 8897   0.776   3.992   2.219  0.3188 -0.2119 -0.0187
 4834W        W 8898   4.096   6.598   9.287 -0.1894  0.0879 -0.2298
 4835W        W 8899   8.992   7.950   1.522  0.2067 -0.0884 -0.1774
 4836W        W 8900   5.070   7.724   6.874  0.2088 -0.1454  0.0431
 4837W        W 8901   4.984   5.841   9.786 -0.2116  0.1431  0.0009
 4838W        W 8902   7.199   0.465   8.724  0.0524  0.1392 -0.0329
 4839W        W 8903   6.612   2.294   2.851 -0.3263  0.2114 -0.1551
 4840W        W 8904   4.400   0.659   1.570 -0.1419  0.0142  0.1768
 4841W        W 8905   6.792   5.005   9.730  0.1444 -0.1371 -0.1139
 4842W        W 8906   1.642   4.080   3.465  0.0956  0.0416  0.3162
 4843W        W 8907   5.723   0.656   2.741  0.0656 -0.1586 -0.0369
 4844W        W 8908   7.247   5.578   0.312  0.1789  0.2945 -0.0322
 4845W        W 8909   9.052   3.335   2.685  0.1771  0.1330 -0.2481
 4846W        W 8910   5.707   3.545   7.966  0.3955  0.3692 -0.0449
 4847W        W 8911   8.319   0.850  10.456 -0.1498 -0.2197 -0.5348
 4848W        W 8912   0.562   4.937   3.991  0.2075  0.1844  0.0516
 4849W        W 8913   9.167   3.244   8.094 -0.0865  0.1675 -0.3068
 4850W        W 8914   4.256   4.051   3.090  0.0540  0.1294 -0.0631
 4851W        W 8915   9.382   0.539   8.031 -0.0557 -0.3079 -0.0482
 4852W        W 8916   5.569   5.210   0.335 -0.0594  0.0923  0.2310
 4853W        W 8917   1.966  10.713  10.349 -0.0873 -0.0738 -0.1382
 4854W        W 8918   8.082   1.672   1.606  0.2232 -0.2419 -0.1670
 4855W        W 8919   3.617   7.186  11.398  0.0653  0.0854  0.0434
 4856W        W 8920   6.319   7.807   2.070 -0.3635 -0.0167  0.1781
 4857W        W 8921   9.519   9.481   1.492 -0.0431 -0.0216 -0.2568
 4858W        W 8922   4.546   1.469   7.852 -0.0853 -0.4478  0.0517
 4859W        W 8923   5.380   0.147   8.228  0.0087 -0.3095  0.1190
 4860W        W 8924   3.830   8.381   8.854 -0.0843  0.4218  0.1875
 4861W        W 8925   5.492   5.179   8.302  0.1079  0.2895  0.1265
 4862W        W 8926   8.298   8.837   9.063 -0.2532  0.0420  0.2243
 4863W        W 8927   8.315  10.483   1.208 -0.2099  0.1394 -0.2543
 4864W        W 8928   1.816   8.833   7.903 -0.2329 -0.0629  0.0638
 4865W        W 8929   0.456   8.971   1.322 -0.1367 -0.3423  0.1620
 4866W        W 8930   1.656   3.244   8.562 -0.0548  0.0950 -0.0201
 4867W        W 8931   0.897   6.826   2.905  0.0272  0.0771 -0.1836
 4868W        W 8932   1.982   8.737   0.003 -0.0571  0.1047 -0.0415
 4869W        W 8933   6.630   5.580   2.771 -0.0418  0.0530 -0.0536
 4870W        W 8934   4.138   3.904   1.551  0.3506  0.0536  0.1523
 4871W        W 8935   9.698   2.370   8.610  0.3638  0.1981  0.2477
 4872W        W 8936   5.540   1.466   8.938 -0.0286  0.0753  0.0005
 4873W        W 8937   4.176   2.446   4.031 -0.4576  0.2400  0.0652
 4874W        W 8938   7.116   1.475   9.905  0.1274 -0.1134 -0.1105
 4875W        W 8939   1.608  10.549   8.379 -0.0817 -0.2018 -0.0335
 4876W        W 8940   5.195   9.060   9.287  0.0863 -0.0733  0.1937
 4877W        W 8941   4.681   9.657  11.207  0.3480  0.1496  0.2315
 4878W        W 8942   7.485   2.702   9.905  0.0183 -0.0364  0.3135
 4879W        W 8943   9.355  10.313   0.856 -0.1384 -0.0821 -0.0312
 4880W        W 8944   4.356   4.694   7.924 -0.1938  0.1492 -0.0022
 4881W        W 8945   9.154   8.386   9.086  0.0285 -0.3173 -0.1093
 4882W        W 8946   0.619   2.236   3.018 -0.0924 -0.0795 -0.0283
 4883W        W 8947   7.417   4.220   0.822 -0.3039  0.0116  0.0779
 4884W        W 8948   9.506   4.398   1.045 -0.0746  0.1261  0.3508
 4885W        W 8949   2.697   6.571   1.077  0.0612  0.3165  0.0184
 4886W        W 8950   6.340   6.036   9.591  0.0439  0.2239  0.0826
 4887W        W 8951   8.381   9.002   2.872 -0.0397  0.1103  0.1488
 4888W        W 8952   0.690   5.345  11.364 -0.0726 -0.1628 -0.2357
 4889W        W 8953   0.503   6.706   0.917  0.0025 -0.1868  0.0701
 4890W        W 8954  10.378   4.890   0.569 -0.1538 -0.0048 -0.2728
 4891W        W 8955  10.080   7.938   3.440 -0.1562  0.2970 -0.2521
 4892W        W 8956   2.683   7.569  11.301 -0.0939 -0.0358  0.1106
 4893W        W 8957   9.568   4.444   2.949  0.1429  0.1698 -0.1864
 4894W        W 8958   8.450   0.697   1.103  0.1783  0.0028  0.2293
 4895W        W 8959   0.262   9.479   3.230  0.4046 -0.2836  0.0973
 4896W        W 8960  10.166  10.179   9.332 -0.1115 -0.0496 -0.0768
 4897W        W 8961   2.437   7.189   7.859  0.1168 -0.1508 -0.2006
 4898W        W 8962  10.406  10.711   2.153 -0.0633  0.0880 -0.2436
 4899W        W 8963   4.546  10.592   7.814  0.0741 -0.3948  0.1563
 4900W        W 8964   6.342   9.451   1.082  0.1376  0.2515  0.1608
 4901W        W 8965   6.909   4.161   9.403  0.0399  0.0893  0.3636
 4902W        W 8966   4.458   4.662   9.321 -0.5770  0.1300  0.2088
 4903W        W 8967   1.611   7.620   2.767 -0.2384  0.2667  0.0885
 4904W        W 8968   4.206   3.172   0.965 -0.0415  0.0707 -0.0438
 4905W        W 8969   3.456   9.734   1.021  0.1230  0.2308 -0.0048
 4906W        W 8970   9.036   7.466   2.234  0.3182 -0.1141  0.1538
 4907W        W 8971   1.420   8.887  10.185  0.0689  0.1202 -0.2762
 4908W        W 8972   6.107   1.002  10.786 -0.3089  0.1857  0.1632
 4909W        W 8973   3.548   9.648   8.704  0.0740  0.2153  0.0230
 4910W        W 8974   8.213   8.929  10.813  0.1067  0.0631 -0.1419
 4911W        W 8975   0.113   5.422   4.184  0.1844 -0.2397 -0.1069
 4912W        W 8976   8.332   5.710   8.130 -0.0575  0.2129  0.2098
 4913W        W 8977   6.964   8.362   0.638  0.0222  0.1152 -0.0459
 4914W        W 8978   2.338   2.619   2.666  0.0471 -0.2269 -0.0524
 4915W        W 8979   3.504   7.739  11.360  0.2551  0.0312  0.1594
 4916W        W 8980   1.493   3.275   1.113  0.4452 -0.0767 -0.4193
 4917W        W 8981   9.488   2.835   8.288  0.1508 -0.3964 -0.0601
 4918W        W 8982   8.064   0.517   0.838  0.1506  0.0370  0.0875
 4919W        W 8983   3.378   2.822   9.949 -0.2709 -0.0856 -0.1157
 4920W        W 8984   8.564   6.286   3.685 -0.1223  0.1603 -0.1481
 4921W        W 8985   9.912   4.732   0.904 -0.1166  0.0975  0.1076
 4922W        W 8986  10.286   0.171   9.998  0.1438 -0.1068 -0.1272
 4923W        W 8987  10.228   9.328   2.106  0.1144  0.0923 -0.1133
 4924W        W 8988   3.286   9.565  10.202 -0.0529  0.2397 -0.0479
 4925W        W 8989   8.746   4.023   3.344  0.2584  0.1488 -0.0193
 4926W        W 8990   7.064   2.989   8.529 -0.0643  0.1700  0.1483
 4927W        W 8991   0.569   8.178   1.027 -0.0046 -0.0923  0.1661
 4928W        W 8992  10.511   1.415   1.939 -0.0162 -0.0053 -0.4975
 4929W        W 8993   4.261   0.921  10.589 -0.2975 -0.0517 -0.1079
 4930W        W 8994   7.556   0.531   1.071  0.1275 -0.0516  0.2122
 4931W        W 8995   2.968   4.146   1.147  0.0803  0.0857  0.1226
 4932W        W 8996   2.204   1.042   2.964 -0.2320  0.0775  0.4269
 4933W        W 8997   9.359   2.040   7.910  0.2358 -0.1341 -0.3078
 4934W        W 8998   9.749   1.706   2.459  0.1575 -0.1031  0.0767
 4935W        W 8999   9.714   6.672   0.794 -0.3892 -0.0203 -0.0455
 4936W        W 9000   5.620   6.149   1.382 -0.1758  0.2619 -0.1266
 4937W        W 9001   3.203   9.939   2.022 -0.1495 -0.1833  0.0619
 4938W        W 9002   3.129   5.833   2.906 -0.2510 -0.2325 -0.0093
 4939W        W 9003   8.902   4.165   8.262 -0.4487  0.2535  0.1860
 4940W        W 9004   2.462   4.092  10.243 -0.1140  0.0587  0.3265
 4941W        W 9005   2.745   0.715   7.452 -0.2264 -0.1703  0.0104
 4942W        W 9006   9.887   7.036   3.645  0.1231 -0.0563 -0.2477
 4943W        W 9007   0.075   7.150   8.743 -0.1159  0.1881 -0.0853
 4944W        W 9008   8.912   1.665   2.237 -0.0258  0.0293  0.0927
 4945W        W 9009   8.723   5.127   1.524  0.0893  0.0156 -0.0383
 4946W        W 9010   5.209   8.603   0.165  0.0388 -0.1735  0.1703
 4947W        W 9011   0.879   1.433  10.842 -0.0240 -0.1333 -0.1819
 4948W        W 9012   5.963   8.201   7.143 -0.3129 -0.0091 -0.0950
 4949W        W 9013   7.990   5.815   2.365  0.3813  0.0351 -0.1786
 4950W        W 9014   4.617  10.716   9.602  0.0716  0.0701 -0.2016
 4951W        W 9015   5.980   2.937  11.255 -0.1227 -0.1243 -0.1228
 4952W        W 9016   4.391   0.924   3.383  0.1505 -0.0526  0.3096
 4953W        W 9017   4.181   9.457  11.146 -0.1969 -0.3520  0.1226
 4954W        W 9018   0.129   8.776   0.529 -0.1139  0.1753  0.0935
 4955W        W 9019   6.948   1.953   1.705 -0.0057 -0.2228  0.0334
 4956W        W 9020   9.896   5.309  10.550  0.1970 -0.0289  0.0197
 4957W        W 9021   1.576   2.250  11.064 -0.0745  0.0203  0.0308
 4958W        W 9022   9.322   3.323   3.633  0.1585 -0.0014  0.1010
 4959W        W 9023   9.564   9.955   8.749 -0.1186  0.2096  0.0661
 4960W        W 9024   9.059   9.637  10.427 -0.0888 -0.0825  0.0752
 4961W        W 9025   4.793  10.171  11.243  0.1224  0.5758 -0.0640
 4962W        W 9026   0.683   9.159   2.247  0.1537 -0.0693 -0.1428
 4963W        W 9027   5.456   5.250   1.161  0.0776 -0.2423 -0.1597
 4964W        W 9028   9.791   9.435  11.384 -0.0730  0.0084 -0.1621
 4965W        W 9029   7.094   1.940   9.769 -0.2872  0.2729 -0.0321
 4966W        W 9030   2.382   0.866   8.081  0.0602 -0.1857 -0.1145
 4967W        W 9031   1.363   0.975   2.809 -0.1061  0.0353  0.1430
 4968W        W 9032   9.253   5.730   0.967  0.3455 -0.2763  0.1224
 4969W        W 9033   1.686   8.171   1.334  0.2383 -0.0381 -0.4183
 4970W        W 9034   8.800   8.270   8.709  0.3107  0.0607 -0.0807
 4971W        W 9035   2.805   4.308   8.896 -0.2120  0.0482 -0.1789
 4972W        W 9036   7.305   6.595   0.334 -0.1272 -0.1957 -0.1574
 4973W        W 9037   8.904   4.262   2.377  0.0556  0.0570 -0.3687
 4974W        W 9038   4.707   7.954   8.964 -0.0743 -0.0877  0.0407
 4975W        W 9039   8.810   8.493   8.278  0.1552 -0.3196 -0.1873
 4976W        W 9040   8.113   3.548  10.141  0.1215  0.0467 -0.1111
 4977W        W 9041   7.516   3.997  10.035 -0.1589  0.0982  0.1901
 4978W        W 9042   5.840   0.115   1.357  0.0503  0.1890 -0.0318
 4979W        W 9043   9.436   9.660   0.942 -0.0044 -0.1555  0.1327
 4980W        W 9044   5.641   9.001   1.541 -0.3993  0.0713  0.0234
 4981W        W 9045   8.969   3.980   1.595  0.0505 -0.1942 -0.4644
 4982W        W 9046   6.519   8.160   0.243 -0.0196 -0.0406 -0.3015
 4983W        W 9047   7.730   9.472  10.166 -0.1394 -0.1420 -0.0976
 4984W        W 9048   8.568   3.465   1.244  0.0746 -0.1691  0.0915
 4985W        W 9049   8.345   5.076   3.698 -0.3410  0.0545 -0.0827
 4986W        W 9050   7.987   0.462   0.305 -0.2383  0.3277  0.1507
 4987W        W 9051  10.507  10.161   8.219 -0.1458 -0.1281  0.2629
 4988W        W 9052   2.744   4.971  10.043  0.0279 -0.0502  0.0897
 4989W        W 9053   6.046   8.114  10.323  0.2349 -0.1089 -0.2109
 4990W        W 9054   1.798   4.452   9.150 -0.0838  0.0641  0.1154
 4991W        W 9055   4.889   6.794   9.183 -0.1081  0.0234  0.0282
 4992W        W 9056   0.364   4.265   1.911  0.0137  0.2176  0.0043
 4993W        W 9057   2.769   0.375   0.571  0.0365  0.1492 -0.2189
 4994W        W 9058  10.195   2.119   1.045 -0.0945 -0.1460  0.0609
 4995W        W 9059   5.660   4.145   0.787 -0.0197 -0.2714  0.2278
 4996W        W 9060   7.725   9.967   2.691 -0.3417 -0.0907 -0.2401
 4997W        W 9061   1.783   3.652   9.432  0.1635 -0.0097  0.1326
 4998W        W 9062   6.833   6.437   0.420  0.0121 -0.0747 -0.0347
 4999W        W 9063   7.936   0.290   1.745  0.1859  0.1775 -0.1873
 5000W        W 9064   9.230   9.178   9.225 -0.3869  0.0005  0.0203
 5001W        W 9065   4.559   4.879   1.461  0.2004 -0.3465  0.0411
 5002W        W 9066   6.348   1.915   7.340  0.1396 -0.1671  0.1855
 5003W        W 9067   5.321  10.185   1.556  0.4941  0.0419 -0.2746
 5004W        W 9068   6.396   9.445  10.431 -0.0325 -0.0528  0.0985
 5005W        W 9069   5.055   7.535   9.734 -0.0267 -0.0405 -0.0739
 5006W        W 9070   2.122   9.384   7.844 -0.3026  0.0295 -0.1208
 5007W        W 9071   5.711   8.012   9.622 -0.0994  0.1834 -0.0895
 5008W        W 9072   5.463   4.454   7.471  0.0706  0.0910  0.1794
 5009W        W 9073   4.923   6.539   1.741 -0.5098  0.1260 -0.1191
 5010W        W 9074   5.284   2.450   2.691  0.0278 -0.0491 -0.1774
 5011W        W 9075   4.011   2.397   1.749  0.1086  0.1288  0.0765
 5012W        W 9076   3.538   3.320  11.230  0.3542 -0.2000  0.2684
 5013W        W 9077  10.054  10.527   0.198 -0.1594  0.1957  0.2098
 5014W        W 9078  10.073   6.068   0.610  0.1123  0.0713  0.4356
 5015W        W 9079   9.016   5.319   1.100  0.2242  0.2801 -0.2934
 5016W        W 9080   2.189   0.994  10.310 -0.1734  0.3439  0.0012
 5017W        W 9081   1.587   5.943   0.986 -0.0793 -0.0590 -0.1475
 5018W        W 9082  10.235   3.882   8.960 -0.1316  0.1548 -0.3113
 5019W        W 9083   4.387   1.103   1.780  0.3265 -0.1587  0.1738
 5020W        W 9084   0.624   5.974   1.862 -0.0301  0.1385 -0.2414
 5021W        W 9085   4.623   6.171   9.760  0.2574 -0.5960  0.0353
 5022W        W 9086   2.844   4.062  10.899  0.2784 -0.2084  0.3349
 5023W        W 9087   5.864   4.226   8.465  0.1643  0.0393  0.1186
 5024W        W 9088   7.656   3.637  10.321  0.0578 -0.0568  0.2091
 5025W        W 9089   0.095   2.077   8.007  0.0242 -0.5166 -0.3747
 5026W        W 9090   8.053   5.987  10.798  0.0339 -0.0810  0.0484
 5027W        W 9091   0.868   6.621   9.678  0.1641  0.0045  0.1562
 5028W        W 9092   4.051   8.508   3.246  0.0531 -0.0027  0.1249
 5029W        W 9093   5.693   8.134   8.445 -0.3429  0.3894  0.1237
 5030W        W 9094   1.391   2.416   8.291 -0.0202 -0.0157 -0.0487
 5031W        W 9095   8.255   1.498   0.278 -0.0342 -0.2957  0.1802
 5032W        W 9096   2.308   1.205   2.315  0.2616 -0.0752  0.1101
 5033W        W 9097   1.166   1.796   2.299  0.0780  0.1733 -0.0083
 5034W        W 9098   9.134   5.235   2.775 -0.1969  0.1705 -0.0540
 5035W        W 9099   9.500   1.541  10.641 -0.1554  0.5199  0.0374
 5036W        W 9100   0.064   6.983   9.959 -0.2483 -0.1380  0.0707
 5037W        W 9101  10.175   2.647   9.245 -0.1051  0.1566 -0.1536
 5038W        W 9102   0.946   8.680   2.280 -0.1366  0.2666 -0.3316
 5039W        W 9103   9.399   8.791   8.902  0.1285  0.1227  0.1076
 5040W        W 9104   4.166   9.274  10.612  0.0023 -0.0922  0.3040
 5041W        W 9105   2.585   6.812   8.748  0.1931 -0.4001  0.1973
 5042W        W 9106   5.905  10.158   3.130  0.0159 -0.3128 -0.1511
 5043W        W 9107   0.181   8.574   8.488  0.2639 -0.0104  0.3508
 5044W        W 9108   8.024   7.346   9.589 -0.0087  0.1484  0.1206
 5045W        W 9109   6.618   6.331  10.871  0.0467  0.1160 -0.0804
 5046W        W 9110   3.014  10.601   3.290  0.0494 -0.0676 -0.0701
 5047W        W 9111   3.369   7.147   7.722 -0.2002  0.2475 -0.0200
 5048W        W 9112  10.006   0.764   1.915  0.1358  0.0508 -0.0358
 5049W        W 9113   6.590   9.059  11.362  0.1621  0.1363  0.1435
 5050W        W 9114   5.670   5.840   8.869  0.3699 -0.4772  0.0841
 5051W        W 9115   6.544   1.645   8.637  0.2993  0.0277 -0.1756
 5052W        W 9116   6.338  10.586   9.788  0.3245 -0.1792  0.1042
 5053W        W 9117   4.218   0.456   9.496 -0.1201 -0.2010  0.2997
 5054W        W 9118   4.198   3.409   9.064  0.1095 -0.1431  0.0641
 5055W        W 9119   1.381   2.531   1.520 -0.2876 -0.2191 -0.3179
 5056W        W 9120   6.206   8.564   1.582  0.1642 -0.0498  0.0918
 5057W        W 9121   6.100   2.189   1.576 -0.3577 -0.4299 -0.1052
 5058W        W 9122   9.454   3.186   8.794 -0.1628  0.1131  0.2501
 5059W        W 9123   4.327   1.632   1.087  0.2511  0.3404 -0.2799
 5060W        W 9124   7.034   2.304   8.031  0.0682 -0.3309 -0.4120
 5061W        W 9125   5.292   7.066   9.775  0.1848  0.0217  0.0788
 5062W        W 9126   5.504  10.334   2.500 -0.2636 -0.3750  0.3600
 5063W        W 9127   6.194   6.545   8.918  0.1375 -0.4237  0.2103
 5064W        W 9128   2.718   3.198   9.056 -0.1981 -0.0559 -0.1238
 5065W        W 9129   7.190  10.035   2.604  0.1873  0.0045 -0.0501
 5066W        W 9130   1.993   6.219   0.700  0.1672 -0.0960 -0.0116
 5067W        W 9131   3.903   0.431   8.504  0.0291 -0.0182 -0.2972
 5068W        W 9132  10.395   9.782   0.817  0.0901 -0.1868 -0.0583
 5069W        W 9133  10.528   2.375   9.520 -0.2197  0.2626  0.3251
 5070W        W 9134   4.051   1.917  10.535 -0.1178 -0.2165 -0.0808
 5071W        W 9135   3.508   4.463   2.184 -0.2760  0.0615 -0.2713
 5072W        W 9136   9.322   0.975   7.744 -0.0633 -0.1887 -0.2299
 5073W        W 9137   0.184   9.941   1.354 -0.1857 -0.2466  0.0195
 5074W        W 9138   6.902   2.971   1.235 -0.1374  0.0130 -0.1806
 5075W        W 9139   3.069   6.393  11.177  0.0391 -0.1103  0.1852
 5076W        W 9140   7.352   4.559  10.685  0.2469  0.3465  0.1226
 5077W        W 9141   5.085   3.048   1.461 -0.2128  0.2142  0.0240
 5078W        W 9142   3.662   1.581   7.892 -0.0616  0.3471  0.3593
 5079W        W 9143   5.285   1.763  10.062 -0.1739  0.1893 -0.0869
 5080W        W 9144   0.069   3.535   0.952 -0.1280 -0.3567 -0.1773
 5081W        W 9145   6.125  10.046   7.408  0.0740  0.1871  0.0879
 5082W        W 9146   1.465   5.342   3.278 -0.2079  0.2833 -0.0374
 5083W        W 9147   6.361   0.152   8.239 -0.0682  0.0009  0.0599
 5084W        W 9148   1.240   2.106   8.757  0.2792  0.4509 -0.3529
 5085W        W 9149   2.867   9.655   0.219  0.0011 -0.1749 -0.0637
 5086W        W 9150  10.632   1.660   0.383  0.0923  0.3224 -0.2904
 5087W        W 9151   3.785   0.628   7.503 -0.0548 -0.0841 -0.0311
 5088W        W 9152   3.557   2.872   2.845 -0.0088  0.0498 -0.0192
 5089W        W 9153   3.499   1.662   1.348 -0.0664 -0.1278  0.0074
 5090W        W 9154   7.096   5.267  11.108 -0.1200 -0.1169 -0.3627
 5091W        W 9155   4.279   0.965   9.431  0.0103  0.2411  0.0063
 5092W        W 9156   5.795   5.756   2.996  0.2235  0.3244  0.0923
 5093W        W 9157   0.419   0.876   2.728  0.0817 -0.1842  0.1837
 5094W        W 9158   5.857   2.364   6.694 -0.2178  0.0166  0.1820
 5095W        W 9159   5.713   6.171   2.751  0.0544 -0.0052 -0.1312
 5096W        W 9160   7.693   2.875   1.966 -0.1889 -0.0470  0.1614
 5097W        W 9161   8.131   4.489  10.697 -0.3097 -0.1134 -0.0446
 5098W        W 9162   4.099   9.811   9.142  0.0372  0.3967  0.0084
 5099W        W 9163   4.847   5.484   3.542  0.3455  0.2351  0.2053
 5100W        W 9164   1.907   1.451   0.121 -0.1280  0.0564  0.0060
 5101W        W 9165   8.685   3.037  11.245 -0.1706 -0.0190  0.2654
 5102W        W 9166   0.387   9.588   2.386 -0.0951  0.2303  0.0493
 5103W        W 9167   0.624   3.538   8.666  0.1498  0.0040 -0.2935
 5104W        W 9168   6.295   4.521   8.802  0.0028  0.1411  0.1771
 5105W        W 9169   3.020  10.232   0.380 -0.5145 -0.4178  0.0381
 5106W        W 9170   7.686   4.664   8.320  0.0078 -0.2679 -0.1185
 5107W        W 9171   1.983   7.391   8.123 -0.2162  0.0083 -0.0722
 5108W        W 9172   4.700   8.007   9.883 -0.1215 -0.0485 -0.1362
 5109W        W 9173   0.982   0.077   9.295 -0.2720 -0.0757  0.0060
 5110W        W 9174   2.580   0.587   1.514 -0.0936 -0.3399  0.0909
 5111W        W 9175   7.019   5.436   9.924 -0.0547  0.0125  0.2345
 5112W        W 9176   3.099   7.964   9.295  0.0779  0.1515  0.1370
 5113W        W 9177   7.198   9.349   3.832  0.0176  0.2021  0.5291
 5114W        W 9178   3.032   5.762   1.440  0.0562  0.1636  0.0233
 5115W        W 9179   9.843   6.075   2.004 -0.0111 -0.1468  0.0165
 5116W        W 9180   1.356   3.410   8.087  0.1262  0.0606 -0.1141
 5117W        W 9181   4.721   7.683   2.500  0.3152 -0.4008  0.0542
 5118W        W 9182   6.682   8.100   7.487  0.3816  0.0748 -0.1391
 5119W        W 9183   8.171   4.942   1.401 -0.2437  0.1630  0.1560
 5120W        W 9184   4.344   2.120   7.532 -0.0637 -0.0109  0.2983
 5121W        W 9185   2.454   4.254   2.037 -0.0737 -0.0557  0.0572
 5122W        W 9186   2.924   6.025   2.394  0.1769 -0.1061 -0.0588
 5123W        W 9187  10.676   1.961   8.521 -0.1815 -0.3884  0.0160
 5124W        W 9188   0.207   3.698   3.622 -0.1373  0.0555  0.0763
 5125W        W 9189   9.939   7.118  10.081 -0.1280  0.0158 -0.0309
 5126W        W 9190  10.067   9.809   3.097  0.1991 -0.1260  0.0410
 5127W        W 9191   7.243   5.865  10.127  0.0037  0.4047 -0.2601
 5128W        W 9192   4.465   5.156   0.927  0.1866  0.0771 -0.3323
 5129W        W 9193   3.466   7.820   1.654 -0.0197  0.2589  0.0906
 5130W        W 9194   0.548   9.947   1.048 -0.0321 -0.0008  0.3072
 5131W        W 9195  10.342   1.023  10.464 -0.0217  0.0430  0.2168
 5132W        W 9196   2.668   7.106   7.434 -0.0651  0.0428  0.0200
 5133W        W 9197   5.001  10.206   1.154  0.1628 -0.1181 -0.0470
 5134W        W 9198   1.331   5.451   9.967 -0.0808  0.0973  0.2871
 5135W        W 9199   2.402   9.036  10.336 -0.0138 -0.0579  0.0624
 5136W        W 9200   9.702   1.076   9.551 -0.0338  0.0756 -0.1091
 5137W        W 9201   3.507   6.209   1.584  0.0433  0.0407 -0.0066
 5138W        W 9202   9.454   0.410   9.493 -0.1057 -0.1358  0.1540
 5139W        W 9203   1.854   6.821   2.177 -0.2536  0.1735  0.2437
 5140W        W 9204   3.066   3.383   8.656  0.1729 -0.1310  0.1234
 5141W        W 9205   8.660   5.216  10.850  0.1507 -0.1622  0.3401
 5142W        W 9206  10.697  10.488   0.484  0.0160 -0.2906 -0.1686
 5143W        W 9207   5.401   4.820   2.733 -0.0263  0.0051  0.0489
 5144W        W 9208   5.811   4.655   1.031 -0.2572  0.1723 -0.2348
 5145W        W 9209   2.396   1.088   7.598 -0.2128  0.1677 -0.3445
 5146W        W 9210   7.336   7.544   3.092  0.0181  0.1773 -0.1453
 5147W        W 9211   7.079   1.646   0.727  0.4246 -0.0974 -0.0094
 5148W        W 9212   0.162   7.726   8.749  0.1035  0.2068  0.4018
 5149W        W 9213   7.448   6.374  10.299 -0.4271  0.2078  0.0769
 5150W        W 9214   1.902   0.649   8.070 -0.2454  0.3745  0.2799
 5151W        W 9215   4.700   1.907   0.170  0.2647 -0.1975  0.0467
 5152W        W 9216   6.605   8.905   2.652  0.1082 -0.0246  0.2026
 5153W        W 9217   0.204   9.945   9.190  0.1820 -0.1017  0.0625
 5154W        W 9218   9.515   8.379   8.126 -0.1743  0.1692 -0.5649
 5155W        W 9219  10.575   2.504   1.953 -0.0119 -0.2408  0.4361
 5156W        W 9220   8.381   9.429   3.167 -0.2060 -0.2555 -0.3561
 5157W        W 9221   5.089   1.319   8.206  0.0827  0.3155  0.2502
 5158W        W 9222   0.401   0.379   0.872  0.2527 -0.1395 -0.0584
 5159W        W 9223   4.337   6.715   3.342  0.1579 -0.1147  0.0250
 5160W        W 9224   5.698   0.768  10.650 -0.1219  0.0622  0.3786
 5161W        W 9225  10.442  10.327   7.528  0.1501  0.3741 -0.3479
 5162W        W 9226   5.196   7.265  10.178 -0.1776  0.1242 -0.0445
 5163W        W 9227   8.300   6.060   0.601 -0.0332  0.0880  0.1594
 5164W        W 9228   0.497   6.228   9.017  0.1907  0.1629 -0.1092
 5165W        W 9229  10.106   6.662   1.885 -0.3454  0.1163 -0.1982
 5166W        W 9230   0.463   2.036  10.513 -0.3838 -0.2233 -0.1548
 5167W        W 9231   0.241   1.974   2.683 -0.0425 -0.0808  0.0486
 5168W        W 9232  10.477   7.136  10.380 -0.0673  0.2750 -0.2818
 5169W        W 9233  10.549   2.789   1.384 -0.0785  0.0103 -0.1420
 5170W        W 9234   5.943   9.623   1.866 -0.1473 -0.0373 -0.0227
 5171W        W 9235   1.533  10.542   0.724 -0.4720 -0.1705 -0.1207
 5172W        W 9236   2.499   7.512   3.157  0.2410  0.2753  0.1773
 5173W        W 9237   9.154   4.473  10.341  0.1838 -0.2067 -0.0954
 5174W        W 9238   7.425   0.233   0.167  0.0553  0.0740  0.0638
 5175W        W 9239   8.127   0.358   3.504 -0.3025 -0.0977  0.0463
 5176W        W 9240   7.750   0.526   9.487  0.0552 -0.2010  0.3420
 5177W        W 9241   1.262  10.706   1.083  0.3463 -0.4338  0.1198
 5178W        W 9242   5.578   5.365   7.613  0.0953  0.0159  0.3280
 5179W        W 9243   5.744   9.771   8.785  0.2593  0.0861 -0.0053
 5180W        W 9244   8.144   6.900   9.799 -0.0455 -0.2325 -0.4487
 5181W        W 9245   2.464   2.770  10.593 -0.2779 -0.0043  0.1009
 5182W        W 9246   0.298   9.799   2.830 -0.0897 -0.0374  0.0783
 5183W        W 9247   1.606   1.320   1.186  0.0441  0.1139  0.2836
 5184W        W 9248   9.026   4.480   1.159  0.3201 -0.2430  0.1616
 5185W        W 9249   2.777   3.816   2.029  0.0140 -0.0590 -0.0516
 5186W        W 9250   8.817   9.205  10.614 -0.4801  0.2504  0.1720
 5187W        W 9251   7.333   3.090   1.461 -0.1137 -0.1982 -0.1052
 5188W        W 9252   9.893   4.124   9.379 -0.3077 -0.0599  0.1090
 5189W        W 9253   8.608   3.055   2.516  0.1633 -0.1635  0.4712
 5190W        W 9254   7.010   4.188   9.880  0.0161 -0.0827  0.0250
 5191W        W 9255   8.702   4.924   1.070  0.2348  0.1701  0.0128
 5192W        W 9256   5.649  10.427   7.442 -0.0596 -0.2447 -0.1196
 5193W        W 9257   3.685   8.174   2.424  0.1759 -0.1092 -0.3077
 5194W        W 9258   8.181  10.701  11.236 -0.1645  0.0265  0.1619
 5195W        W 9259   2.404   4.643  10.288  0.1330 -0.0256 -0.1001
 5196W        W 9260   5.951   4.677   1.936  0.3856  0.1104 -0.0038
 5197W        W 9261   4.466   0.403   2.011  0.0839 -0.3891  0.1769
 5198W        W 9262   0.666   0.657   3.102 -0.0752 -0.2753  0.0686
 5199W        W 9263   8.248   6.195   8.240  0.1627 -0.0222  0.3395
 5200W        W 9264   5.952   4.155   0.337  0.1269  0.3334 -0.0341
 5201W        W 9265  10.647   0.875   2.691 -0.0667 -0.0089  0.1490
 5202W        W 9266   0.739   5.558   8.588  0.1905 -0.1220  0.0843
 5203W        W 9267   8.707   5.735  11.329 -0.2646 -0.3196  0.0823
 5204W        W 9268   2.701  10.505   2.472 -0.0963  0.1224  0.0650
 5205W        W 9269   3.733   9.384  10.396 -0.1006 -0.3780  0.3752
 5206W        W 9270   7.521   9.043   8.313  0.0133 -0.2425 -0.3429
 5207W        W 9271   0.736   9.649   9.706 -0.0032 -0.1386  0.2445
 5208W        W 9272   0.623   5.165   3.524  0.1827 -0.2601 -0.1615
 5209W        W 9273   7.010   5.910   2.706 -0.2965  0.3339  0.0154
 5210W        W 9274   1.848   0.109   1.013 -0.2236  0.1551 -0.0961
 5211W        W 9275   0.592   2.561  10.038  0.0864  0.3251  0.0388
 5212W        W 9276   2.169   2.888   1.529  0.0202  0.1507 -0.2085
 5213W        W 9277   4.570   1.850   9.857  0.2611  0.2920 -0.1221
 5214W        W 9278  10.675   5.429   1.898  0.0088 -0.2443 -0.2346
 5215W        W 9279  10.602   2.894  10.262  0.1948 -0.1502 -0.4515
 5216W        W 9280   6.365   2.374   7.637  0.3697  0.0128 -0.0238
 5217W        W 9281   8.874  10.166   0.123  0.3064  0.3157  0.2946
 5218W        W 9282   2.983   2.728   7.233  0.0095  0.2869 -0.2133
 5219W        W 9283   9.338   4.018   7.805 -0.0892  0.1005 -0.2734
 5220W        W 9284   5.433   5.593   0.781  0.2512  0.0286  0.1270
 5221W        W 9285   5.388   9.469   2.261 -0.5641 -0.1656 -0.3426
 5222W        W 9286   5.993   9.704   9.374 -0.0815  0.2176 -0.0362
 5223W        W 9287  10.057   9.861   8.753  0.3668 -0.1930  0.1804
 5224W        W 9288   9.889   4.548   2.275  0.2994 -0.2282 -0.0815
 5225W        W 9289   8.381   9.262   2.239 -0.3124 -0.0422  0.2570
 5226W        W 9290   9.505   6.199   0.707  0.1226  0.1129 -0.0274
 5227W        W 9291   5.037   9.818   0.185  0.3642 -0.1837  0.2553
 5228W        W 9292   3.809   1.254   8.904  0.0923  0.0261 -0.2029
 5229W        W 9293   8.994   2.699   1.633 -0.2499 -0.0878 -0.0012
 5230W        W 9294   7.805   2.264   8.636  0.2060  0.0835 -0.1663
 5231W        W 9295  10.308   2.877   8.224  0.0437  0.0263  0.3886
 5232W        W 9296   8.530   0.209   8.613 -0.0209 -0.1944 -0.1575
 5233W        W 9297   1.245  10.671   2.853  0.0760  0.1250  0.0195
 5234W        W 9298   7.573   3.113   9.148 -0.1206  0.2806  0.1249
 5235W        W 9299   0.901   5.539   0.961 -0.0577  0.3854 -0.1233
 5236W        W 9300   6.726   7.853   9.351 -0.0998 -0.3155  0.3453
 5237W        W 9301   4.008   5.155   0.647 -0.0883  0.2629  0.1375
 5238W        W 9302   9.391   2.718   8.862 -0.0416 -0.0901  0.0474
 5239W        W 9303   1.551   2.220  10.139 -0.2966 -0.0049  0.1048
 5240W        W 9304   5.047   2.289   7.698 -0.0489 -0.0366  0.2779
 5241W        W 9305   6.345   6.618   9.384  0.0741 -0.0727  0.0877
 5242W        W 9306   1.835   5.152   2.043 -0.0610 -0.0008 -0.3162
 5243W        W 9307   9.151   7.901  11.367 -0.0373 -0.0152  0.1780
 5244W        W 9308   3.105   2.132  10.343 -0.0551 -0.1353  0.2228
 5245W        W 9309   6.204   9.257   2.264 -0.0671  0.0652  0.3172
 5246W        W 9310   0.926   1.892   2.692  0.3997 -0.0923  0.1932
 5247W        W 9311   9.102  10.338   3.901  0.0677 -0.0225  0.0248
 5248W        W 9312   8.153   7.164   2.170  0.3751  0.0057  0.0593
 5249W        W 9313   7.798   2.468   2.864  0.1145 -0.1561 -0.0416
 5250W        W 9314   6.138  10.113   1.977 -0.3638  0.2534 -0.1199
 5251W        W 9315   7.868   7.484  10.756  0.0257  0.0387  0.2211
 5252W        W 9316   8.232   5.322   9.979 -0.1327  0.2770 -0.0782
 5253W        W 9317   6.408   8.394   9.722  0.0162  0.0465 -0.0662
 5254W        W 9318   9.903   9.543   1.082 -0.0483 -0.1111  0.1913
 5255W        W 9319   7.287   5.241   9.494 -0.2809  0.0530  0.0638
 5256W        W 9320   5.999   9.348   1.486 -0.4202 -0.2639 -0.0858
 5257W        W 9321   3.791   3.435   0.762  0.3461 -0.0192  0.1655
 5258W        W 9322   1.504   4.278   9.837 -0.1618  0.2341 -0.0628
 5259W        W 9323   6.130   4.272   0.818  0.1131 -0.1696  0.0257
 5260W        W 9324   3.926   8.567  10.067  0.0692  0.2895  0.2358
 5261W        W 9325   0.676  10.254   0.589  0.1763  0.1990 -0.4719
 5262W        W 9326   6.184   7.902   9.794 -0.2047 -0.0021  0.1951
 5263W        W 9327   5.520   4.457   2.038 -0.0086 -0.1006 -0.1087
 5264W        W 9328   8.211   7.444   1.044  0.1920  0.1432 -0.1492
 5265W        W 9329   3.268   6.894  11.101 -0.2697 -0.0120 -0.0559
 5266W        W 9330   5.272   5.814   1.272  0.0695  0.0546 -0.1214
 5267W        W 9331   0.467   8.027   1.962 -0.1376  0.3835  0.2391
 5268W        W 9332   7.311   0.406   9.709  0.3481 -0.2197  0.0457
 5269W        W 9333   3.939   8.199   0.039 -0.0128  0.2381  0.0502
 5270W        W 9334   0.542   6.685   2.568  0.0230  0.0816 -0.0483
 5271W        W 9335   2.131   3.845   1.194  0.2723  0.2339 -0.0440
 5272W        W 9336   5.148  10.596   2.986  0.2606 -0.1791 -0.0493
 5273W        W 9337   4.857   8.585   1.966 -0.0847  0.0912  0.2872
 5274W        W 9338   1.850   6.121   0.051 -0.5069 -0.0442 -0.1031
 5275W        W 9339   0.043   0.681   2.257  0.1099  0.1901  0.0813
 5276W        W 9340   3.992   9.106   7.755  0.1822 -0.3924  0.0571
 5277W        W 9341   1.674   5.923   2.505  0.0865  0.2349  0.2784
 5278W        W 9342   0.406   2.575   1.229  0.2721  0.2253  0.1660
 5279W        W 9343   7.205   2.131  11.108  0.1603 -0.1865 -0.1253
 5280W        W 9344   5.801   6.443   0.668 -0.0029  0.0944 -0.0261
 5281W        W 9345   9.354  10.005  11.378  0.2939  0.2921 -0.2808
 5282W        W 9346   4.727   7.667   9.397  0.0555  0.2652 -0.5407
 5283W        W 9347  10.457   4.628   9.692  0.0169  0.3073 -0.1245
 5284W        W 9348   9.253   9.213  10.196  0.1609 -0.0433 -0.0328
 5285W        W 9349  10.294   6.745  10.713 -0.0197 -0.1433  0.1118
 5286W        W 9350   9.819   6.482   9.425  0.1152 -0.3056  0.1659
 5287W        W 9351   1.759   3.156   9.529 -0.2155 -0.1221 -0.0213
 5288W        W 9352   2.517   9.047   1.402  0.0312 -0.0365  0.3879
 5289W        W 9353   1.038   5.026  10.129  0.1194  0.1050 -0.1596
 5290W        W 9354   0.358   3.598   9.999  0.1259 -0.0594 -0.0101
 5291W        W 9355   6.927   7.570   0.855 -0.0308 -0.2942  0.2154
 5292W        W 9356   6.798   5.268   1.088  0.1997 -0.1021  0.3522
 5293W        W 9357   9.283   8.268   2.007  0.1591  0.0412 -0.0249
 5294W        W 9358  10.573   9.530   8.721  0.3848  0.1062 -0.2716
 5295W        W 9359   6.539   3.614   8.536  0.1672 -0.0264  0.2504
 5296W        W 9360   0.207   0.448   2.819 -0.1757 -0.0010 -0.2275
 5297W        W 9361   4.149   2.929   8.147 -0.0368 -0.1586  0.2931
 5298W        W 9362   1.823   4.776  10.039 -0.1512  0.0026  0.1524
 5299W        W 9363   9.404   7.336   9.646  0.0130  0.5496  0.2701
 5300W        W 9364   2.318   5.246  10.000 -0.0667 -0.3666 -0.1747
 5301W        W 9365   6.394   0.372   8.805 -0.1309  0.2736  0.2989
 5302W        W 9366   3.002   3.968   9.922  0.0057 -0.0307  0.0169
 5303W        W 9367   5.797   2.819   0.416  0.1420  0.0254 -0.0846
 5304W        W 9368   2.107  10.413   0.742 -0.1515 -0.2501  0.3268
 5305W        W 9369   4.491   3.549   9.831  0.1304 -0.0354 -0.2131
 5306W        W 9370  10.624   8.793   9.285 -0.0263 -0.0269  0.0575
 5307W        W 9371  10.300   9.726   8.271  0.2680  0.1369 -0.1903
 5308W        W 9372   2.074   6.019   8.608 -0.0439  0.0787  0.3105
 5309W        W 9373   3.184   0.022   7.309 -0.2203 -0.0477 -0.1185
 5310W        W 9374   0.475   5.810   1.026 -0.3338  0.1364 -0.2915
 5311W        W 9375   2.456   2.312   3.037  0.0626 -0.2238 -0.0787
 5312W        W 9376   1.764   5.360  11.201 -0.0603  0.1405 -0.1808
 5313W        W 9377   3.877  10.646   3.321 -0.1012 -0.0536 -0.3161
 5314W        W 9378   0.161  10.665   8.834  0.0864 -0.1825 -0.2517
 5315W        W 9379   7.415   3.784   2.696  0.0440 -0.3863  0.0888
 5316W        W 9380   6.325   4.796   2.251  0.1650 -0.0103  0.2843
 5317W        W 9381   7.477   5.435   7.735 -0.0741 -0.0154  0.0737
 5318W        W 9382   9.346   4.388   1.502  0.2656  0.2649 -0.0851
 5319W        W 9383   0.847   0.040   8.257  0.0136  0.1951  0.2752
 5320W        W 9384   4.099   1.843   9.596  0.3820 -0.1516 -0.0746
 5321W        W 9385   8.534   8.612   2.050  0.1514  0.1030  0.1289
 5322W        W 9386   7.793   5.288   0.957 -0.0479 -0.1098 -0.2834
 5323W        W 9387   7.318   7.343   1.607  0.0161 -0.0868  0.0752
 5324W        W 9388   0.651   9.451   2.770  0.1984 -0.1212  0.1557
 5325W        W 9389   5.442   9.291  10.884 -0.0976 -0.4569  0.1505
 5326W        W 9390   0.604   0.206  10.870 -0.0972  0.0626 -0.0713
 5327W        W 9391   8.350   7.617   8.244  0.3091 -0.2479  0.1581
 5328W        W 9392  10.525   4.091   3.393  0.1577  0.1244  0.0261
 5329W        W 9393   0.384   7.167   9.120  0.1212 -0.2315  0.2175
 5330W        W 9394   1.476   2.415   1.077  0.0692 -0.3685  0.0830
 5331W        W 9395   5.658   2.221  10.187  0.0004  0.0299 -0.1791
 5332W        W 9396   6.648   8.566   8.179  0.2687 -0.2294 -0.1343
 5333W        W 9397   6.648   5.318   1.972 -0.1601 -0.1235 -0.0878
 5334W        W 9398   8.170   5.345   2.216 -0.0868  0.0094 -0.1349
 5335W        W 9399   8.539   9.978   0.915  0.1779  0.0521 -0.0309
 5336W        W 9400   3.009   9.164   9.960 -0.0658 -0.0805  0.1221
 5337W        W 9401   0.750   5.063   8.079 -0.1729  0.1596 -0.0016
 5338W        W 9402   8.355  10.439   0.181  0.1030  0.2356  0.1240
 5339W        W 9403   3.948   8.121  10.333  0.0544 -0.1229 -0.0593
 5340W        W 9404   4.482   2.311   3.635 -0.3000 -0.1268 -0.0378
 5341W        W 9405   2.988   5.939   9.436 -0.1240  0.1397 -0.1606
 5342W        W 9406   3.980   4.242   1.253  0.1614  0.0870  0.0630
 5343W        W 9407   6.758   5.982   9.934  0.0618  0.0332  0.0874
 5344W        W 9408   1.598   8.448   0.935  0.2712  0.0322 -0.1150
 5345W        W 9409   7.687   8.381   8.276  0.3342 -0.3165  0.0095
 5346W        W 9410   3.756   5.421   2.468 -0.1033  0.0623 -0.0770
 5347W        W 9411   1.991  10.075   8.548  0.2861 -0.2945  0.1327
 5348W        W 9412   7.827   0.095   1.144  0.0177 -0.0904  0.0038
 5349W        W 9413   9.096   9.691   2.873  0.1637 -0.0080  0.2120
 5350W        W 9414   3.516   7.295   1.209  0.2259  0.4193  0.1539
 5351W        W 9415   0.616   0.949   0.975  0.0816  0.1714 -0.1122
 5352W        W 9416   8.839   1.531   8.179  0.1009 -0.0235  0.2194
 5353W        W 9417   2.949   6.831   7.850  0.1792 -0.0790  0.0881
 5354W        W 9418   4.011   9.088   8.600  0.1857  0.0776  0.0619
 5355W        W 9419   9.286   1.693   7.167  0.1372  0.2061  0.1732
 5356W        W 9420   1.752   2.756   8.583 -0.1417 -0.0768 -0.0866
 5357W        W 9421   0.327   3.268   8.338 -0.2279 -0.0936 -0.1025
 5358W        W 9422   3.149   6.300   8.032 -0.1528 -0.2677  0.0202
 5359W        W 9423   2.507   1.740   1.043 -0.1069 -0.3791 -0.0159
 5360W        W 9424   8.515   7.102   9.562 -0.1840  0.0486  0.3052
 5361W        W 9425   5.657   7.943   9.071 -0.0676 -0.1945 -0.1261
 5362W        W 9426   3.066   5.619   8.863  0.3259  0.1636 -0.2564
 5363W        W 9427   0.896  10.141  10.058 -0.0819 -0.2314 -0.1388
 5364W        W 9428   8.504   7.632   2.261  0.0556  0.2916  0.1110
 5365W        W 9429  10.505   9.607   3.306  0.0106  0.0230 -0.1166
 5366W        W 9430   9.435   1.599   2.032  0.1611 -0.0233 -0.1276
 5367W        W 9431   6.208   6.262   7.431  0.0901 -0.0656 -0.1944
 5368W        W 9432   8.965   8.810  10.306 -0.3640  0.0204 -0.1144
 5369W        W 9433   5.888   7.706  10.104  0.5999  0.1611  0.2109
 5370W        W 9434   9.654  10.335   1.681 -0.0852 -0.1034 -0.0616
 5371W        W 9435   6.390  10.210   3.071 -0.0442  0.2237  0.2224
 5372W        W 9436   7.312   9.456   0.829  0.0259 -0.0686 -0.0859
 5373W        W 9437   5.122   0.714   1.736  0.0011 -0.0157  0.3306
 5374W        W 9438   0.712   1.064   9.539  0.0043  0.0451 -0.2576
 5375W        W 9439   4.608   0.556   0.044  0.2595  0.1485  0.2821
 5376W        W 9440   8.916   1.051   8.958  0.0093  0.0816  0.0059
 5377W        W 9441   8.748   6.655   0.455  0.2829 -0.3211  0.0126
 5378W        W 9442   7.208   3.581   0.162 -0.1105 -0.0554  0.0965
 5379W        W 9443   3.848   8.007   7.880 -0.5620 -0.0468  0.1774
 5380W        W 9444   6.956   4.298  10.844  0.2339  0.0754 -0.1216
 5381W        W 9445  10.053   2.735   9.809  0.1704 -0.3423 -0.1675
 5382W        W 9446   2.823   9.445   8.883 -0.0561 -0.2601  0.0943
 5383W        W 9447   0.222   6.568   2.090 -0.1034  0.0955 -0.0509
 5384W        W 9448   1.215   3.309   1.953 -0.0142 -0.0047  0.0434
 5385W        W 9449   1.023   6.033   1.137 -0.0653 -0.0409 -0.1256
 5386W        W 9450   3.719   2.401   2.625 -0.0675  0.1163 -0.2673
 5387W        W 9451   2.238   5.666   9.399  0.4951  0.3190 -0.1598
 5388W        W 9452   0.683   2.335   9.549  0.2421  0.0486  0.2705
 5389W        W 9453   5.370   7.500   8.753  0.0659  0.0392  0.1047
 5390W        W 9454   7.483   5.081  11.298  0.1913  0.0678 -0.5311
 5391W        W 9455   3.716   3.389  10.688  0.1088  0.2194  0.0954
 5392W        W 9456   9.973   6.824   0.288  0.2207  0.1283  0.0939
 5393W        W 9457   5.858   5.168   2.607 -0.1370  0.1835  0.2228
 5394W        W 9458   8.478   4.125  10.738 -0.0533  0.2281  0.0514
 5395W        W 9459   6.194   4.532   8.309  0.0384 -0.0497 -0.2555
 5396W        W 9460   6.443   7.623  11.012 -0.0701 -0.0200  0.0185
 5397W        W 9461   8.173  10.688   0.702 -0.2836  0.0525  0.0854
 5398W        W 9462   1.697   8.264  10.270  0.2077 -0.0892 -0.0285
 5399W        W 9463   7.491   5.947   1.216  0.0016  0.1142 -0.2381
 5400W        W 9464   6.065   3.254   1.829  0.0716 -0.0105 -0.1037
 5401W        W 9465   1.672   0.922  10.554 -0.1177  0.2482 -0.1601
 5402W        W 9466   9.718   6.616   9.926  0.0080  0.1529  0.0967
 5403W        W 9467   8.647   5.410  10.337  0.2111  0.2590  0.3344
 5404W        W 9468   4.981   5.106   1.578  0.0230 -0.1885 -0.0884
 5405W        W 9469   1.671   1.965   1.255  0.2146 -0.0857 -0.6127
 5406W        W 9470   6.360   8.926  10.571 -0.0505  0.1577 -0.2234
 5407W        W 9471   4.895   7.501   7.402  0.1223  0.1210  0.1792
 5408W        W 9472   7.671  10.489   3.801 -0.2394  0.1077 -0.1006
 5409W        W 9473   7.541   7.130   0.375 -0.2512  0.3188  0.1615
 5410W        W 9474   5.326  10.265   8.405 -0.1273 -0.0634  0.0110
 5411W        W 9475   1.947  10.453   7.337  0.0211  0.1506 -0.0251
 5412W        W 9476   7.003   4.627   9.564  0.1094 -0.0467  0.0932
 5413W        W 9477   5.828   0.485  11.088  0.2618  0.0831  0.1795
 5414W        W 9478   3.928   3.569   1.273 -0.1884  0.0307  0.1211
 5415W        W 9479   2.114   7.022  10.389 -0.1521 -0.3559 -0.3991
 5416W        W 9480   1.397   0.866   9.185 -0.0801  0.0725 -0.1708
 5417W        W 9481   9.805   6.975   1.176 -0.0435  0.0386  0.2609
 5418W        W 9482   9.744  10.647   0.786 -0.2042 -0.0433  0.3524
 5419W        W 9483   6.760   8.726   0.373  0.3497 -0.2518  0.3352
 5420W        W 9484   1.035   0.209   9.832 -0.1010  0.1891 -0.0447
 5421W        W 9485   0.775   9.589  10.711 -0.1286  0.0115  0.1087
 5422W        W 9486   1.485   0.083  10.208  0.1763  0.1318 -0.2694
 5423W        W 9487   3.164   2.058   9.301  0.2809  0.0096 -0.1045
 5424W        W 9488   0.718   2.515   2.093  0.0263 -0.4683 -0.2398
 5425W        W 9489   8.511   8.680   1.434 -0.0313  0.0436  0.1960
 5426W        W 9490   1.253  10.122   2.837 -0.1182 -0.1795 -0.2914
 5427W        W 9491   8.299   5.799  10.366  0.1867  0.2701  0.0200
 5428W        W 9492   8.198   2.976   1.025  0.1599 -0.3477  0.0577
 5429W        W 9493   4.059   1.096   7.516 -0.1881 -0.1009 -0.2789
 5430W        W 9494   1.524   7.397   3.186 -0.0241  0.1451 -0.0428
 5431W        W 9495   9.044   0.414   1.732  0.1301  0.0604  0.2965
 5432W        W 9496   1.414   2.771   9.324  0.1451  0.1700  0.0151
 5433W        W 9497   7.282   1.330   7.604 -0.1035  0.2251  0.1230
 5434W        W 9498   3.273   7.056   8.356 -0.1727  0.3689  0.1327
 5435W        W 9499   2.713  10.222   0.881 -0.0307 -0.2496 -0.1710
 5436W        W 9500  10.402   1.469  10.733  0.4741 -0.2296 -0.1454
 5437W        W 9501   9.369   0.754   9.157  0.1911  0.1167 -0.3339
 5438W        W 9502   0.156   4.476   7.799 -0.1267  0.2485 -0.1414
 5439W        W 9503   8.005   3.983   2.778  0.1415  0.0280  0.4511
 5440W        W 9504   9.578   8.665  11.061 -0.0714 -0.0929  0.2189
 5441W        W 9505   6.351  10.652   2.027 -0.2112 -0.0920  0.1751
 5442W        W 9506   9.594   2.966  10.703  0.1176 -0.0659  0.0813
 5443W        W 9507   2.299   3.485   9.313 -0.1421 -0.1964  0.1618
 5444W        W 9508   2.235   2.217   7.451 -0.1304 -0.3108  0.3580
 5445W        W 9509   0.371   1.352   0.245  0.3099 -0.0644 -0.0429
 5446W        W 9510   8.106   1.479   2.151 -0.1984 -0.1624 -0.3281
 5447W        W 9511   5.842   5.135   8.629  0.0663 -0.0756 -0.1630
 5448W        W 9512   0.363   9.002   3.264  0.3386  0.0710  0.0409
 5449W        W 9513   8.706   6.691  11.127  0.0538 -0.2606  0.0732
 5450W        W 9514   8.201   7.293   1.608 -0.3503 -0.2349  0.1781
 5451W        W 9515   3.099  10.616   1.715  0.3546 -0.0919 -0.1076
 5452W        W 9516   9.698   3.694   8.687  0.1548  0.1870  0.1844
 5453W        W 9517   3.074   1.811  11.194 -0.1580 -0.0274  0.2027
 5454W        W 9518   7.422   3.123  11.395  0.2094  0.3931  0.1119
 5455W        W 9519   3.551   1.579   2.789  0.1037 -0.1598  0.0813
 5456W        W 9520   4.661   8.377  10.778 -0.2700  0.1330 -0.0508
 5457W        W 9521   5.917   5.462   9.032 -0.1505 -0.1279  0.0099
 5458W        W 9522   4.120   7.412   2.256  0.0949 -0.3155 -0.3117
 5459W        W 9523   7.627   9.982   0.943  0.2460 -0.3091  0.4113
 5460W        W 9524   0.348   3.179   1.941 -0.0212 -0.1067  0.1080
 5461W        W 9525   7.264   6.292   1.943 -0.2939 -0.0822  0.0702
 5462W        W 9526   5.553   3.475  10.421  0.0113  0.2013  0.0719
 5463W        W 9527   5.495   9.261   3.407 -0.1884 -0.0174 -0.2679
 5464W        W 9528   1.027   7.896  10.798  0.1075  0.0828 -0.0864
 5465W        W 9529   4.192   6.936   2.877 -0.0660  0.1518  0.3812
 5466W        W 9530   2.014   6.535   8.531 -0.1015 -0.1430 -0.1349
 5467W        W 9531   7.812   5.441  11.171  0.2576 -0.1196 -0.0679
 5468W        W 9532   5.321   8.184   1.253 -0.1652  0.4598  0.3902
 5469W        W 9533   2.348   2.878   0.520  0.0203 -0.0522  0.2452
 5470W        W 9534   0.957   3.699   9.530 -0.0329  0.0718  0.1102
 5471W        W 9535   6.052   3.395   9.471  0.0922  0.2565 -0.2413
 5472W        W 9536   9.384   6.205   2.065 -0.2494  0.3177  0.0472
 5473W        W 9537   4.481   6.229   1.702 -0.1308 -0.1297 -0.1837
 5474W        W 9538  10.165  10.078   1.154  0.0884 -0.3186 -0.0866
 5475W        W 9539   8.308   4.925  11.065 -0.0377 -0.1387  0.3963
 5476W        W 9540   1.251   5.791  10.755  0.0873  0.1056  0.0333
 5477W        W 9541   0.074   8.040   1.132  0.2209 -0.2004 -0.1550
 5478W        W 9542   4.795   8.476   8.803  0.1180  0.1953  0.1429
 5479W        W 9543   6.743   7.213  11.049 -0.0239 -0.0858 -0.1675
 5480W        W 9544   0.131   4.892   1.212  0.0850  0.0064 -0.0430
 5481W        W 9545   7.885   8.685   0.503  0.0242 -0.1976  0.2172
 5482W        W 9546   1.284   4.440   2.252 -0.0978  0.1138  0.5460
 5483W        W 9547   8.751   2.948   8.113 -0.1800 -0.3042 -0.0818
 5484W        W 9548   2.189   2.887   8.221  0.0202 -0.2051  0.2392
 5485W        W 9549   3.010   3.308   2.793  0.0245  0.0020  0.0740
 5486W        W 9550   6.909   8.235   6.734  0.0943  0.0399 -0.2085
 5487W        W 9551   4.452   4.336   1.266 -0.3061  0.0187 -0.2240
 5488W        W 9552   9.505   5.157  10.368 -0.0935  0.1750 -0.1031
 5489W        W 9553   2.547   9.877   1.400  0.0528 -0.0898  0.1140
 5490W        W 9554   5.612   4.978   1.733  0.1709 -0.1173 -0.0037
 5491W        W 9555  10.323   8.162  10.638  0.1809  0.0172  0.0367
 5492W        W 9556   6.986   1.622  10.820  0.1338 -0.2333  0.0124
 5493W        W 9557  10.334   1.988   8.058 -0.0008 -0.2334 -0.0385
 5494W        W 9558   9.124   2.924   2.388 -0.3055  0.0330  0.4811
 5495W        W 9559   7.256   5.866   2.281  0.1442 -0.0336  0.2768
 5496W        W 9560   6.437   8.429   2.843  0.0358 -0.1190 -0.2158
 5497W        W 9561   4.320   6.179   1.146  0.1353 -0.1198 -0.4120
 5498W        W 9562   3.582   7.379   9.520 -0.1788 -0.0850  0.1579
 5499W        W 9563   5.004   2.494   3.113 -0.0236  0.1740  0.0771
 5500W        W 9564   1.756   2.050   1.790 -0.4081 -0.5272 -0.2521
 5501W        W 9565   3.762   3.013  10.411 -0.1516  0.2537  0.1846
 5502W        W 9566   4.719   1.320   1.481  0.1608  0.0768 -0.1584
 5503W        W 9567  10.126   7.724   0.123  0.0278 -0.2643  0.2678
 5504W        W 9568   5.583   8.301  11.205  0.0332  0.1179 -0.2556
 5505W        W 9569   2.211   3.741   9.805 -0.0439  0.0689 -0.1409
 5506W        W 9570  10.662   0.833   3.633  0.0657 -0.1080 -0.0999
 5507W        W 9571   4.013   2.535   7.892  0.4051 -0.2099 -0.2300
 5508W        W 9572   2.452   1.937   9.879  0.1261 -0.0378  0.0592
 5509W        W 9573   9.386   0.200   9.018  0.1897 -0.2562  0.1124
 5510W        W 9574   5.417   3.599  10.879 -0.3241  0.1533 -0.0288
 5511W        W 9575   6.548   7.103   7.070  0.0356  0.2575 -0.0993
 5512W        W 9576   1.086  10.400   1.583  0.1183 -0.2391 -0.0888
 5513W        W 9577   6.235   3.608   9.031 -0.0112 -0.0567 -0.0100
 5514W        W 9578   8.150   6.767   2.520 -0.3865 -0.0006  0.1050
 5515W        W 9579  10.446   5.469   8.971 -0.0117 -0.1705  0.0928
 5516W        W 9580   2.144   5.863   2.709  0.1027 -0.1894  0.0932
 5517W        W 9581   5.597   5.846   1.756 -0.3486  0.3301  0.1020
 5518W        W 9582   0.048   6.393   9.211 -0.2945  0.2481  0.0020
 5519W        W 9583   1.417   3.515   9.731 -0.0807 -0.0511  0.4226
 5520W        W 9584   9.242   6.015   3.275 -0.1004  0.0387  0.5836
 5521W        W 9585   2.200   6.277   9.465 -0.1512 -0.0353  0.2194
 5522W        W 9586   5.008   3.795   8.076  0.1616 -0.2802  0.0160
 5523W        W 9587   7.602   4.538   9.936 -0.0120 -0.3310 -0.1579
 5524W        W 9588   3.849   7.585   0.352 -0.0809  0.0723 -0.1195
 5525W        W 9589   9.110   1.289   1.602  0.0140  0.0278 -0.1399
 5526W        W 9590   2.571  10.025   0.450  0.0686  0.0388 -0.4872
 5527W        W 9591   4.611   4.234   9.538 -0.2309 -0.0263 -0.0645
 5528W        W 9592   0.783   1.181   3.811  0.3563  0.1986  0.1331
 5529W        W 9593   0.469   4.829   0.829  0.0785  0.2235 -0.0626
 5530W        W 9594   1.162   3.380   2.536 -0.1078 -0.1417 -0.0744
 5531W        W 9595   6.839   2.457   1.679  0.1773 -0.2322  0.0340
 5532W        W 9596   5.093   4.692   2.323 -0.2378 -0.0256 -0.0878
 5533W        W 9597   7.199   0.839   7.567 -0.0660 -0.0367 -0.0505
 5534W        W 9598   7.329   9.162  11.103 -0.0121 -0.1014 -0.2411
 5535W        W 9599   8.529   3.036   3.478  0.0632  0.0952 -0.1829
 5536W        W 9600   2.371   2.467   9.459  0.2091  0.0794  0.0072
 5537W        W 9601   5.246   5.643   0.300 -0.2965 -0.0942  0.0274
 5538W        W 9602   9.693   6.349   1.620 -0.0015  0.1307 -0.1013
 5539W        W 9603   4.340   1.535  11.280  0.3436 -0.4229 -0.0377
 5540W        W 9604   2.656   0.644   8.514  0.0302 -0.1238  0.0134
 5541W        W 9605   2.310   6.651   9.126  0.0168 -0.0643 -0.0347
 5542W        W 9606   1.797   0.014   2.758  0.2110  0.1806 -0.1330
 5543W        W 9607   8.905   5.147   9.338 -0.0905 -0.2307  0.0748
 5544W        W 9608   9.846   8.786   3.166 -0.1393 -0.0475 -0.1581
 5545W        W 9609   7.181   6.057   8.844 -0.1483 -0.0884  0.1579
 5546W        W 9610   1.396   6.918   1.131  0.0544 -0.2603  0.1320
 5547W        W 9611   1.525   9.792   2.539 -0.1455  0.2100  0.0473
 5548W        W 9612   2.255   2.033   1.869  0.2453  0.0021  0.2801
 5549W        W 9613   4.211   2.778  10.222 -0.0973  0.2130 -0.0853
 5550W        W 9614   8.075   5.755   0.181  0.2441 -0.1124  0.0154
 5551W        W 9615  10.098   2.492   0.593 -0.2873 -0.1585 -0.0375
 5552W        W 9616   6.185   7.755   0.118 -0.2254  0.0004 -0.1285
 5553W        W 9617   4.983   9.623   2.085  0.0991 -0.1200 -0.0472
 5554W        W 9618   7.939   4.011   1.709 -0.0554 -0.0543  0.0984
 5555W        W 9619   7.913   3.257  10.537  0.3650  0.2376 -0.0333
 5556W        W 9620   4.955   8.564   1.155 -0.1464 -0.3332 -0.0152
 5557W        W 9621   7.200   7.134   9.014 -0.2521  0.2801  0.1273
 5558W        W 9622   7.821   9.998   9.547 -0.2186  0.2364  0.1841
 5559W        W 9623   5.318  10.635   1.614  0.0921  0.1014  0.1044
 5560W        W 9624   4.157   3.128   2.217  0.0866 -0.0391  0.2465
 5561W        W 9625   4.467   8.156   8.577 -0.0164  0.1531  0.2200
 5562W        W 9626   5.127   1.057   1.290  0.1164  0.0296 -0.2184
 5563W        W 9627   2.938   4.103   7.935 -0.2151  0.4671 -0.0842
 5564W        W 9628  10.321   2.313   1.489  0.3141 -0.2546 -0.0026
 5565W        W 9629   0.892  10.116  11.334 -0.1995 -0.3697 -0.4423
 5566W        W 9630   7.341   3.240   2.102 -0.0571 -0.2158 -0.2334
 5567W        W 9631   7.109   3.169   3.454 -0.1013  0.0732 -0.0783
 5568W        W 9632   6.854   0.829   0.700 -0.0070 -0.2678  0.0175
 5569W        W 9633   0.117   7.740   0.458  0.2179  0.0604 -0.0008
 5570W        W 9634   4.650   3.271   6.619  0.0119 -0.2130 -0.0212
 5571W        W 9635  10.080   4.691   8.177  0.0909  0.1808  0.0558
 5572W        W 9636   6.639   1.334   2.723 -0.1063  0.1364 -0.1205
 5573W        W 9637   0.682   9.703   1.994 -0.2227  0.1176 -0.0787
 5574W        W 9638   6.166   8.949   0.590 -0.4482  0.0784 -0.0958
 5575W        W 9639   9.669   6.749  11.312 -0.1180  0.0556  0.0641
 5576W        W 9640   7.556   4.857  10.345  0.0808 -0.0299  0.0377
 5577W        W 9641   4.317   6.645   2.490  0.0161  0.1800  0.0179
 5578W        W 9642   1.083   5.225   2.781  0.0402  0.0581 -0.2148
 5579W        W 9643   4.816   8.251   7.953  0.0755 -0.0507 -0.2702
 5580W        W 9644   7.063  10.567  10.931  0.0577 -0.0481  0.2525
 5581W        W 9645   1.747   0.709   8.806 -0.0430 -0.2337 -0.1435
 5582W        W 9646   3.211   8.815   8.465  0.0967 -0.0682  0.2865
 5583W        W 9647  10.151  10.093   7.876  0.2137 -0.0942  0.3042
 5584W        W 9648   1.450   9.611   8.895 -0.2052  0.1295 -0.3404
 5585W        W 9649   5.075   8.911   7.901  0.0407 -0.2167 -0.0022
 5586W        W 9650   2.741   3.933   0.786 -0.1039  0.2884  0.4558
 5587W        W 9651   3.094   6.426   1.869 -0.1175 -0.0928 -0.0541
 5588W        W 9652   4.932   3.527   9.578  0.2023  0.5623  0.3029
 5589W        W 9653   2.530   3.951   9.115 -0.1107  0.1664  0.0270
 5590W        W 9654   1.537   5.656  10.386 -0.3575 -0.3490 -0.4595
 5591W        W 9655   6.438  10.424   0.002 -0.1672 -0.0330  0.0058
 5592W        W 9656   7.603   3.353   1.124 -0.1044  0.1767  0.0923
 5593W        W 9657   6.016   7.825   1.595 -0.2791  0.0647  0.0059
 5594W        W 9658   8.555   5.101   8.208  0.0062  0.0965  0.0579
 5595W        W 9659   7.654   7.570   0.156 -0.3321  0.0168 -0.2327
 5596W        W 9660   5.080   4.321   9.374  0.2037  0.2907 -0.0641
 5597W        W 9661   1.349   8.033   9.889 -0.0594 -0.1289  0.3806
 5598W        W 9662  10.527   6.999   0.357  0.0833  0.0550  0.3934
 5599W        W 9663   6.503   4.284   9.623 -0.2543  0.1480  0.0165
 5600W        W 9664   1.171   9.463   2.318  0.1789 -0.1707 -0.0870
 5601W        W 9665   2.068   1.438   7.450  0.0467 -0.0498 -0.3363
 5602W        W 9666   0.536   7.153  10.064 -0.1046  0.0771  0.1374
 5603W        W 9667   3.317   9.277   1.214  0.2479 -0.1030 -0.2187
 5604W        W 9668   6.925  10.322   0.447  0.1951  0.1439  0.0923
 5605W        W 9669   5.872  10.186   9.856  0.1392 -0.0583  0.1777
 5606W        W 9670   9.538   3.127   0.632 -0.1901  0.2665 -0.1094
 5607W        W 9671   0.241   6.669   8.857  0.0932 -0.2652  0.0152
 5608W        W 9672   9.905   0.024   1.616 -0.0559  0.0057 -0.2771
 5609W        W 9673   7.684   9.798  10.861 -0.0412  0.1656  0.2550
 5610W        W 9674   0.544   2.114   1.115 -0.0199  0.0184  0.2935
 5611W        W 9675   7.336   7.694   1.208  0.1363 -0.1349  0.2034
 5612W        W 9676   4.597   2.496   7.816 -0.1537  0.0907  0.4771
 5613W        W 9677   1.228   8.385  10.437  0.2672  0.2357 -0.1121
 5614W        W 9678   1.780   7.177   3.584  0.0849  0.1082 -0.2804
 5615W        W 9679   8.725   3.339   8.395 -0.1065 -0.0162  0.0170
 5616W        W 9680   7.937   6.420   1.059 -0.2694  0.1526  0.0690
 5617W        W 9681   8.984   8.290   0.213 -0.0019  0.1945  0.1062
 5618W        W 9682   6.794   9.688   1.798  0.1698  0.1900  0.1018
 5619W        W 9683   3.770   6.882   8.352  0.3457  0.1584 -0.4567
 5620W        W 9684   5.740   8.726   0.630 -0.3432  0.0545 -0.2125
 5621W        W 9685   2.315   2.883   1.038 -0.0068 -0.1707  0.0340
 5622W        W 9686   2.242   3.860  11.155 -0.2488 -0.1666 -0.0418
 5623W        W 9687   7.581   4.641   8.898 -0.3233 -0.0879 -0.1843
 5624W        W 9688  10.249   9.207   0.160  0.0949 -0.1239 -0.0666
 5625W        W 9689   4.952   5.373   0.667  0.2571  0.0529 -0.0039
 5626W        W 9690   0.741   9.877   3.004  0.1201 -0.2605 -0.2781
 5627W        W 9691   0.713   3.594  10.421 -0.0552 -0.1382  0.0002
 5628W        W 9692   3.168   8.245   2.222  0.0510  0.0474  0.3699
 5629W        W 9693   3.219   0.108   7.899  0.0868 -0.1577 -0.3355
 5630W        W 9694   7.245   0.525   0.684 -0.1356 -0.0907  0.1912
 5631W        W 9695   1.906   1.028   9.213 -0.0223 -0.2803  0.0074
 5632W        W 9696   3.660   7.661   2.552 -0.1722 -0.0593  0.1438
 5633W        W 9697   0.089   2.335  11.315  0.1566  0.1548  0.2985
 5634W        W 9698   3.154   3.654  11.148 -0.1917 -0.2815 -0.3430
 5635W        W 9699   3.285   2.335   9.911  0.1075 -0.1519 -0.2545
 5636W        W 9700   7.663   5.225   0.404 -0.0062  0.2971 -0.1022
 5637W        W 9701   8.177  10.337   7.866  0.0815  0.1474  0.0944
 5638W        W 9702   9.507   2.161   2.550 -0.0491  0.0965 -0.2514
 5639W        W 9703   1.688   3.457   2.176 -0.0157 -0.0150  0.2932
 5640W        W 9704   0.172   0.349  10.654 -0.0908 -0.1084 -0.3541
 5641W        W 9705   6.789   3.973   1.879 -0.0684 -0.0195 -0.2849
 5642W        W 9706   3.324   0.337   9.144 -0.3880 -0.2552  0.0598
 5643W        W 9707  10.293   5.296   2.239 -0.0197  0.0532  0.3937
 5644W        W 9708   9.810   1.971   8.223 -0.2196 -0.1974  0.1644
 5645W        W 9709  10.516   8.312   8.218 -0.2189  0.2553 -0.2173
 5646W        W 9710   0.362   7.665   0.881  0.2757 -0.0660  0.2127
 5647W        W 9711   8.308   7.169   7.398 -0.2236 -0.0698 -0.0597
 5648W        W 9712   8.308   9.909   0.037 -0.2038 -0.0635  0.1447
 5649W        W 9713   6.549  10.728   0.986 -0.2217  0.2563 -0.1448
 5650W        W 9714  10.204   8.552   8.757 -0.3158 -0.0880  0.1566
 5651W        W 9715   5.620   2.798   6.653  0.1009 -0.0313 -0.0217
 5652W        W 9716   2.162   0.035  10.961 -0.1623 -0.2424 -0.2740
 5653W        W 9717   1.318   6.765   9.443  0.3172  0.2979 -0.0490
 5654W        W 9718   2.294   5.273   1.122 -0.0667 -0.2394 -0.0764
 5655W        W 9719   7.885   9.609   9.220  0.3168  0.0744 -0.1487
 5656W        W 9720   3.454   1.548   2.016 -0.1078  0.2827  0.0465
 5657W        W 9721   5.839  10.189   9.208  0.2051 -0.1772  0.0832
 5658W        W 9722   1.808   5.178   1.535 -0.2337  0.0314 -0.2001
 5659W        W 9723   7.316   7.951   8.354  0.3168  0.0747  0.1878
 5660W        W 9724   6.710   3.506   3.305 -0.3767 -0.0402  0.4335
 5661W        W 9725   2.307   6.089  10.357 -0.0326  0.2735  0.0184
 5662W        W 9726   6.254   6.722  10.693  0.0811  0.0584 -0.0490
 5663W        W 9727   0.649   8.023   9.672 -0.0746  0.1429 -0.2426
 5664W        W 9728   3.770   1.848   1.680 -0.1544 -0.0277 -0.0976
 5665W        W 9729   7.077   2.532   1.066 -0.3213 -0.0286 -0.2084
 5666W        W 9730   6.406   3.175  11.126  0.2030 -0.0997  0.0046
 5667W        W 9731   5.513  10.544   9.972  0.0254  0.2823  0.1764
 5668W        W 9732   3.392   7.460   0.391  0.1614  0.1022 -0.0502
 5669W        W 9733   5.904   1.472   3.216  0.0295  0.2234  0.1303
 5670W        W 9734   7.530   5.461   9.878 -0.1310  0.1420 -0.3509
 5671W        W 9735   1.523   9.078   0.175  0.0543  0.1120 -0.1135
 5672W        W 9736   7.932   6.316  10.373  0.5395  0.0424 -0.0581
 5673W        W 9737   0.091   5.666   2.672  0.1928  0.0263 -0.0369
 5674W        W 9738   9.066   8.767   7.220 -0.1637 -0.1705 -0.0082
 5675W        W 9739   7.565   3.175  10.946  0.0594 -0.0164 -0.4187
 5676W        W 9740   5.574   1.213  11.254  0.1917 -0.5523 -0.1709
 5677W        W 9741   4.263   6.074   6.837  0.2673 -0.1085  0.1405
 5678W        W 9742   6.866   0.270   8.362 -0.0334 -0.3131  0.0317
 5679W        W 9743   5.177   5.343   7.869 -0.2838  0.0444  0.2828
 5680W        W 9744   2.691   7.649   0.853 -0.0249  0.1733 -0.0495
 5681W        W 9745   3.857   7.623   9.869  0.2483 -0.2089 -0.0826
 5682W        W 9746  10.450   9.321   0.605  0.1086  0.0516 -0.4027
 5683W        W 9747   6.324   2.994   0.226 -0.5427 -0.1680 -0.0855
 5684W        W 9748  10.505   6.701  11.329 -0.2303  0.2670 -0.0805
 5685W        W 9749   0.885   1.894   8.331  0.0854 -0.0725 -0.2065
 5686W        W 9750   3.160   8.789   2.829 -0.1871 -0.0465 -0.0249
 5687W        W 9751   0.152  10.146  10.343 -0.1279  0.0435  0.1004
 5688W        W 9752   9.101   6.319   8.730 -0.2147  0.0220  0.4061
 5689W        W 9753   7.629   8.082   9.885  0.0546  0.0897 -0.0335
 5690W        W 9754   3.638   1.303   2.408  0.0091  0.1979 -0.0565
 5691W        W 9755   2.484   1.402   0.139 -0.2434 -0.4661  0.3629
 5692W        W 9756   8.738   5.149   3.985 -0.1592 -0.2488  0.0080
 5693W        W 9757  10.151   4.680   9.326  0.1620 -0.1592 -0.1563
 5694W        W 9758   1.816   1.962  10.570 -0.2600  0.0588  0.1561
 5695W        W 9759   6.296   7.845   7.633  0.2400  0.0785 -0.2080
 5696W        W 9760   1.851   3.376   8.946 -0.1813 -0.2409  0.0703
 5697W        W 9761   7.227   9.989   1.945  0.0330  0.1509  0.0466
 5698W        W 9762   1.505   4.912   3.028  0.1650 -0.1647  0.1229
 5699W        W 9763   5.985  10.664   0.881 -0.3278  0.0176  0.3281
 5700W        W 9764   3.329   0.917   9.556  0.0194 -0.0958 -0.0832
 5701W        W 9765   2.990   2.313   1.894  0.1242 -0.2334 -0.1211
 5702W        W 9766   2.581   6.754   0.326 -0.1108  0.1953 -0.0717
 5703W        W 9767   1.551  10.142  10.833 -0.1165 -0.0726  0.0246
 5704W        W 9768   1.909   0.253   9.847 -0.0428 -0.2689 -0.1861
 5705W        W 9769   4.523   9.832   9.876  0.2056 -0.0535  0.1176
 5706W        W 9770   5.453   3.336  11.303 -0.1259  0.1509  0.2628
 5707W        W 9771   3.462   1.148   1.569 -0.0272 -0.1944 -0.0010
 5708W        W 9772   4.481   2.071   8.546  0.1665 -0.0179  0.0188
 5709W        W 9773   7.886   3.274   0.676  0.0538 -0.1136  0.1766
 5710W        W 9774   7.210   4.518   8.625  0.0124 -0.2553 -0.1817
 5711W        W 9775   4.647   7.897   0.545  0.0815  0.0651  0.3605
 5712W        W 9776   6.769   1.097   1.182  0.1059 -0.0212 -0.3616
 5713W        W 9777   9.585  10.544   9.928 -0.0129 -0.0854  0.1467
 5714W        W 9778   2.518   2.493  11.217  0.0250 -0.2162  0.0952
 5715W        W 9779   4.033   3.379  11.102  0.2462 -0.0563 -0.0762
 5716W        W 9780   5.104   2.287   1.753  0.1422  0.0434 -0.1356
 5717W        W 9781   5.681   7.167   2.510 -0.2285 -0.0882 -0.0782
 5718W        W 9782   9.096   4.360   2.830 -0.0677  0.1864  0.0124
 5719W        W 9783   6.410   9.079  10.090  0.0163  0.3351 -0.0716
 5720W        W 9784   4.663   4.736  11.335 -0.1114 -0.1537 -0.1878
 5721W        W 9785   4.229   2.760   3.543 -0.1984 -0.3702 -0.1919
 5722W        W 9786   5.655   6.978   1.630 -0.3299 -0.0403 -0.0656
 5723W        W 9787   0.701   5.416  10.004  0.1453 -0.0338  0.1859
 5724W        W 9788   3.004   6.195   0.837 -0.1982 -0.1081 -0.3977
 5725W        W 9789   0.051   0.213   9.870  0.1607  0.0507  0.1354
 5726W        W 9790   4.773   5.836  10.758 -0.2189 -0.0211 -0.0089
 5727W        W 9791   4.933   2.534   1.351 -0.0307 -0.0693  0.0336
 5728W        W 9792   3.702  10.079   0.724  0.3474 -0.2529  0.1234
 5729W        W 9793  10.230   2.040   0.545  0.0615  0.0688  0.1306
 5730W        W 9794   7.341   9.885  10.447  0.1050  0.0230 -0.3013
 5731W        W 9795   9.587   9.118   1.077 -0.0117 -0.0880  0.0546
 5732W        W 9796   9.243  10.508   9.528 -0.0852  0.0095  0.0708
 5733W        W 9797   8.221   2.841   0.456 -0.0665  0.0767  0.0060
 5734W        W 9798   4.131   2.733   8.612  0.0899  0.1936  0.1222
 5735W        W 9799   0.371   7.222   1.004  0.2198 -0.1024  0.0360
 5736W        W 9800   4.278   4.209   8.453 -0.2528  0.1851  0.3426
 5737W        W 9801   7.675  10.435   7.452 -0.0856 -0.0169  0.1032
 5738W        W 9802   7.973   8.173   1.839 -0.4178 -0.1267 -0.0246
 5739W        W 9803  10.425   3.144   3.857 -0.0252 -0.0273 -0.1190
 5740W        W 9804   6.466   7.113   1.250 -0.0976 -0.1918  0.3036
 5741W        W 9805   5.245   8.715   9.645 -0.2938  0.0376 -0.1131
 5742W        W 9806   7.506   7.640   7.681  0.1399 -0.0314  0.1841
 5743W        W 9807   2.736   2.720   9.216 -0.0223 -0.4814  0.3352
 5744W        W 9808   7.719   2.093  10.925  0.0029  0.0772 -0.0725
 5745W        W 9809   9.603   7.358   1.499 -0.1257  0.0185  0.0973
 5746W        W 9810   7.575   0.283   9.052 -0.2041  0.3742  0.3394
 5747W        W 9811   5.402   2.950   9.087  0.0069 -0.0696 -0.0939
 5748W        W 9812  10.513   2.049   9.190 -0.0349 -0.2240  0.0393
 5749W        W 9813   2.653  10.050   7.667 -0.1848  0.0773  0.5359
 5750W        W 9814   8.494   0.889  10.041  0.1235 -0.3822 -0.2787
 5751W        W 9815   5.767  10.452  11.376  0.1859 -0.0282  0.0800
 5752W        W 9816   6.717   6.843  10.721 -0.1665  0.0493 -0.3960
 5753W        W 9817   5.822  10.106   0.785  0.0588  0.2387  0.0428
 5754W        W 9818   5.973   8.673   1.992  0.0398 -0.2254 -0.0037
 5755W        W 9819   6.941   0.745   9.662  0.0120  0.2943  0.0107
 5756W        W 9820   4.816  10.479   1.572  0.1208 -0.1163  0.0777
 5757W        W 9821   4.444   5.777   1.509  0.0517 -0.0394 -0.0821
 5758W        W 9822   9.563  10.547   8.505 -0.0045  0.0652 -0.1872
 5759W        W 9823   2.107   1.306   7.974 -0.0293  0.1083  0.1925
 5760W        W 9824   4.086  10.321   3.641  0.1698 -0.2252  0.2600
 5761W        W 9825   8.697   1.234   1.213 -0.1561  0.0669 -0.0170
 5762W        W 9826   1.978   8.089   0.880 -0.2035 -0.2972 -0.0782
 5763W        W 9827   8.793   0.871   1.512 -0.1115 -0.1112 -0.0406
 5764W        W 9828   9.028  10.111  10.962 -0.2408 -0.1143 -0.0119
 5765W        W 9829   4.284   3.044   7.672  0.0589 -0.0678  0.1733
 5766W        W 9830   0.448   1.379   1.639 -0.0733  0.0529 -0.1617
 5767W        W 9831  10.076   4.250   1.037 -0.1218  0.2664  0.1697
 5768W        W 9832   1.601   0.202   0.445 -0.2196  0.1047 -0.2832
 5769W        W 9833   3.096   4.483  11.181  0.1709  0.0543 -0.0242
 5770W        W 9834   7.504   6.781   0.749  0.2892 -0.4536 -0.0522
 5771W        W 9835   9.168   2.082   2.158 -0.1861 -0.1495  0.1012
 5772W        W 9836   7.241   9.022  10.133  0.0504 -0.0380  0.0965
 5773W        W 9837  10.713   0.049  10.321  0.1329  0.3578  0.0807
 5774W        W 9838   2.592   5.689   0.151 -0.0646  0.0035 -0.1262
 5775W        W 9839  10.594   5.507   8.105 -0.2329 -0.2657 -0.0436
 5776W        W 9840   7.603   0.802   7.336  0.0544 -0.0891  0.0869
 5777W        W 9841   6.100  10.206   2.515  0.1875 -0.3395 -0.2576
 5778W        W 9842   4.679   0.528   3.472 -0.1135 -0.3196 -0.3636
 5779W        W 9843   9.604   9.127  10.912 -0.0078  0.1028 -0.0429
 5780W        W 9844   8.128   9.172  10.319  0.5527  0.1359  0.0978
 5781W        W 9845   7.444   3.921   0.415  0.0461  0.0152 -0.0242
 5782W        W 9846   6.060   0.980   0.192 -0.3756  0.0586 -0.3001
 5783W        W 9847   5.929   2.748   1.846 -0.0985 -0.0847  0.1644
 5784W        W 9848   5.377   5.723   8.436 -0.0224 -0.1753 -0.0640
 5785W        W 9849   4.391   8.796   9.567  0.1352 -0.4189  0.1013
 5786W        W 9850   4.454   6.484   7.997 -0.2106  0.1082 -0.2850
 5787W        W 9851   2.663   1.666   8.422  0.0812  0.0362 -0.0743
 5788W        W 9852   5.260   8.537   0.669  0.4679  0.1385 -0.2582
 5789W        W 9853   2.452   3.255   8.024 -0.1180  0.1787  0.0868
 5790W        W 9854   3.909   6.403   9.852 -0.2140 -0.3490 -0.0549
 5791W        W 9855   6.202   2.092   2.503  0.2380  0.0900  0.0727
 5792W        W 9856   5.372   9.815   1.823  0.2023  0.0041 -0.2927
 5793W        W 9857   3.052   1.006   3.092  0.0625  0.1113  0.0551
 5794W        W 9858   6.575   4.347   1.173  0.1379  0.0103  0.0494
 5795W        W 9859   1.708   7.097   2.610 -0.0197  0.0061  0.1250
 5796W        W 9860   5.553   7.469  10.443 -0.1309 -0.1545 -0.0568
 5797W        W 9861   0.619   4.112  10.267  0.2996  0.3855 -0.0640
 5798W        W 9862   3.654   2.807   9.524  0.2616 -0.0353  0.0877
 5799W        W 9863   4.683   0.676  10.530 -0.1640 -0.4712  0.1164
 5800W        W 9864   5.735  10.576   2.960  0.2692 -0.3579 -0.0085
 5801W        W 9865   8.655   9.787  11.030  0.0034 -0.0493  0.1649
 5802W        W 9866   2.139   1.595   0.593 -0.0357 -0.0899 -0.0911
 5803W        W 9867   3.153   0.710   0.917  0.3518  0.0093 -0.0551
 5804W        W 9868   7.477   7.822   2.665  0.3093 -0.1762 -0.1583
 5805W        W 9869   4.294   4.518   1.659 -0.1219  0.2206 -0.3463
 5806W        W 9870   6.646   6.746   2.823 -0.0945 -0.1844 -0.0210
 5807W        W 9871   1.577   8.810  11.137 -0.1435  0.2322  0.3687
 5808W        W 9872   1.672   8.645   1.730 -0.1637  0.3733  0.1942
 5809W        W 9873   0.805   0.419   3.540  0.2699  0.0033  0.1509
 5810W        W 9874   3.455   3.773   9.117  0.2818  0.3892  0.0402
 5811W        W 9875   1.596  10.717   7.544 -0.3542  0.0170 -0.0080
 5812W        W 9876   0.343   6.562   0.460 -0.1221 -0.0116  0.0231
 5813W        W 9877   8.070   9.095  11.293 -0.0213  0.0650  0.0050
 5814W        W 9878   9.918   8.190   7.482  0.1014 -0.1430  0.1785
 5815W        W 9879   6.447   7.446   1.651  0.0568 -0.0505 -0.0561
 5816W        W 9880   5.463   1.989   8.866 -0.0592 -0.2126  0.1048
 5817W        W 9881   7.092   0.915   0.228  0.4509 -0.0042  0.0136
 5818W        W 9882   8.289   8.529   8.526  0.0071  0.0557 -0.1635
 5819W        W 9883   4.797   4.891   0.538  0.3305 -0.0860 -0.0710
 5820W        W 9884   7.721   0.228   0.646  0.3265 -0.2681  0.0287
 5821W        W 9885   6.911   0.735  11.192 -0.0043 -0.1711  0.0013
 5822W        W 9886   3.873   5.596   1.256 -0.3291  0.1955 -0.2339
 5823W        W 9887   5.409   4.483  11.052 -0.0292  0.1104 -0.1000
 5824W        W 9888   3.008   2.556   7.697  0.6070  0.0298 -0.0553
 5825W        W 9889   4.842   0.929   9.267  0.0997  0.1547 -0.1239
 5826W        W 9890   0.265   5.163   2.900 -0.2431 -0.2991  0.1858
 5827W        W 9891   6.818   2.084   7.579 -0.0157 -0.2976  0.0301
 5828W        W 9892   0.819  10.591  10.237 -0.2629  0.2021  0.2720
 5829W        W 9893   8.308   2.430   3.081 -0.0439  0.1542 -0.0197
 5830W        W 9894   5.563   6.030   0.473 -0.0907 -0.1816 -0.1224
 5831W        W 9895   8.576   5.066   2.420  0.0617 -0.0432 -0.1219
 5832W        W 9896   9.497   5.170   0.426  0.1633  0.3200 -0.2004
 5833W        W 9897   4.917   0.575   2.214 -0.2103  0.2036  0.0513
 5834W        W 9898   4.649   6.525  10.097 -0.0696 -0.0632  0.0644
 5835W        W 9899   4.965   6.398   8.226 -0.3211  0.0675 -0.0375
 5836W        W 9900   7.542   6.711   9.301  0.1487  0.1952  0.1456
 5837W        W 9901   0.357   5.676   3.023 -0.4278 -0.3088  0.0996
 5838W        W 9902   2.597   0.996   9.881  0.2410 -0.0543  0.0579
 5839W        W 9903   4.719  10.071  10.267  0.0236  0.1877  0.1828
 5840W        W 9904   6.598   0.520   9.315 -0.4286 -0.3213  0.2413
 5841W        W 9905   3.901  10.419  10.081 -0.1238  0.2361  0.0534
 5842W        W 9906   6.183   3.702   7.716 -0.0855  0.0882  0.1595
 5843W        W 9907  10.312   8.904   2.858 -0.1531  0.0796  0.4810
 5844W        W 9908   7.963   3.951   8.034  0.2375 -0.0964  0.0113
 5845W        W 9909   9.626   5.307   8.354  0.0810  0.0988  0.1098
 5846W        W 9910   3.497   5.125  10.176 -0.0725 -0.0472  0.3656
 5847W        W 9911   9.158   4.879  10.829  0.0205  0.0509 -0.2077
 5848W        W 9912   7.506   1.754   1.535  0.0824  0.0768 -0.0762
 5849W        W 9913  10.154   7.292   3.066 -0.0237 -0.0396 -0.2880
 5850W        W 9914   3.368   7.982  10.470 -0.3061  0.0790  0.3041
 5851W        W 9915   2.444   4.942   3.081  0.0517  0.0956  0.3565
 5852W        W 9916   7.693   5.938   8.892 -0.0769 -0.1511 -0.1366
 5853W        W 9917   1.119   6.476   2.101 -0.1430 -0.2008  0.3293
 5854W        W 9918   3.120   3.191  10.947 -0.1465 -0.2406 -0.1168
 5855W        W 9919   3.166   4.763  10.248  0.1154  0.1433  0.0558
 5856W        W 9920   1.558  10.210   8.760  0.2218  0.0208 -0.0303
 5857W        W 9921   2.263   2.027   2.636 -0.0963 -0.0523 -0.0873
 5858W        W 9922   5.088   3.038   9.564  0.2202 -0.0792 -0.2263
 5859W        W 9923   9.051  10.279   1.784  0.2187  0.2836  0.0578
 5860W        W 9924   4.858   8.733  10.422 -0.1123 -0.1202  0.0826
 5861W        W 9925   7.796   4.852   3.060  0.1290  0.1611  0.0293
 5862W        W 9926   4.669   3.629   8.850 -0.1376 -0.2774 -0.2369
 5863W        W 9927   1.162   8.834  10.800  0.0482 -0.1735 -0.0008
 5864W        W 9928   1.404   7.605   0.263  0.0380 -0.0785 -0.1469
 5865W        W 9929   2.253   5.143   0.092 -0.1629 -0.0255 -0.3085
 5866W        W 9930  10.615   1.812   1.103 -0.2954 -0.3169 -0.1489
 5867W        W 9931   9.518   5.118   8.853  0.0070  0.1343  0.3611
 5868W        W 9932   6.612   7.516   2.529  0.2954  0.0776  0.1068
 5869W        W 9933   0.230   3.844  10.508  0.0222  0.1138  0.2569
 5870W        W 9934   7.015  10.638   1.397 -0.3015 -0.1794 -0.0584
 5871W        W 9935   9.087   3.393   1.448  0.3352 -0.1403  0.0916
 5872W        W 9936   6.194  10.133   3.584 -0.0477 -0.0863 -0.0741
 5873W        W 9937   8.412   0.754   0.204  0.3242  0.4874 -0.3869
 5874W        W 9938   9.349   2.171   1.665 -0.0050 -0.0593 -0.0751
 5875W        W 9939   5.729   5.721   0.121 -0.2517  0.1367  0.0495
 5876W        W 9940   8.382   2.021  10.920  0.2170 -0.0195  0.0561
 5877W        W 9941   6.182   0.051  10.258 -0.3274  0.1439 -0.0115
 5878W        W 9942   7.908   0.623   9.002 -0.2013 -0.1205 -0.0496
 5879W        W 9943   0.142   5.289  11.317  0.0964 -0.0967 -0.1544
 5880W        W 9944   2.771   2.660   2.232 -0.1017  0.1526  0.2513
 5881W        W 9945   9.832   5.577   7.964  0.3027  0.0520 -0.0126
 5882W        W 9946   4.755   8.081   2.902  0.0794  0.2430  0.0409
 5883W        W 9947   0.577   0.632  10.464  0.0124 -0.3990  0.0556
 5884W        W 9948   9.563   7.486  10.850 -0.1294 -0.1736  0.0743
 5885W        W 9949   4.577   3.750   8.284  0.2709 -0.2305  0.1366
 5886W        W 9950   7.935   2.674   9.637  0.0741  0.2966 -0.0187
 5887W        W 9951  10.105   9.261   8.565 -0.4224 -0.2024  0.2919
 5888W        W 9952  10.385   7.191   9.787  0.2017  0.2207  0.0737
 5889W        W 9953   1.978   4.691   2.969 -0.0512 -0.0075  0.0035
 5890W        W 9954   6.093   7.500   2.392 -0.1085 -0.0104  0.0444
 5891W        W 9955   9.348   5.061   7.410 -0.1673 -0.0595 -0.2940
 5892W        W 9956  10.367  10.674   9.549  0.1874 -0.0903  0.0211
 5893W        W 9957   9.632   2.751   9.548 -0.1678  0.2248 -0.0252
 5894W        W 9958   5.696   9.985  11.219 -0.0375 -0.1828  0.0623
 5895W        W 9959   2.219   4.592   2.492  0.1216  0.0000 -0.0760
 5896W        W 9960  10.722   6.041   3.016 -0.0001  0.3057 -0.0215
 5897W        W 9961   8.020   6.794   9.311 -0.1644 -0.0131 -0.0042
 5898W        W 9962   7.515   4.917   2.112 -0.0912  0.1810  0.1766
 5899W        W 9963   4.126   4.985   1.827 -0.0465 -0.0975  0.0435
 5900W        W 9964   9.411   9.036   3.106 -0.2867 -0.1660 -0.2059
 5901W        W 9965   6.904   3.169   2.855 -0.1057  0.0338 -0.0365
 5902W        W 9966   9.640   6.519  10.815 -0.1461  0.2851  0.2691
 5903W        W 9967   8.989   7.156   9.798  0.1248 -0.2553 -0.0851
 5904W        W 9968   0.695   0.955   9.050  0.0150 -0.1458  0.1178
 5905W        W 9969  10.266   6.182  10.208 -0.0731  0.1394  0.2412
 5906W        W 9970   2.035   5.720   9.946 -0.0019 -0.0076  0.2202
 5907W        W 9971   3.230   8.927   7.253  0.1029  0.0962 -0.0285
 5908W        W 9972   2.639   6.516   1.585 -0.1162 -0.2732 -0.0130
 5909W        W 9973   0.708   4.876   2.848  0.0771  0.2893  0.0312
 5910W        W 9974   6.635   9.593   2.979 -0.2242 -0.2808 -0.1946
 5911W        W 9975   1.018   7.251   1.322  0.1272 -0.1866 -0.0544
 5912W        W 9976  10.685   6.517  10.124 -0.1352 -0.1886  0.2227
 5913W        W 9977   0.672   5.731  10.467  0.4665 -0.0773  0.1732
 5914W        W 9978   8.537   6.853   2.888  0.3028  0.1503 -0.2132
 5915W        W 9979   7.778   4.792   1.167 -0.1066 -0.0019 -0.2254
 5916W        W 9980  10.031   3.581   9.818 -0.0736 -0.1463 -0.0998
 5917W        W 9981   4.478   5.275   8.443  0.1272  0.1196  0.1654
 5918W        W 9982   7.793   5.018   9.837  0.0311  0.1322  0.0034
 5919W        W 9983   3.240  10.176   0.876 -0.0395  0.0324  0.0369
 5920W        W 9984   0.778   8.616   1.389 -0.0839  0.4128  0.0159
 5921W        W 9985   6.473  10.143  10.267 -0.1731 -0.0898 -0.2739
 5922W        W 9986   2.758   0.103   7.658  0.2557  0.0633 -0.0100
 5923W        W 9987   9.899   4.200  10.967  0.0498 -0.0363 -0.0397
 5924W        W 9988   1.411  10.709   0.030  0.1917 -0.1207 -0.1221
 5925W        W 9989   1.035   2.677   9.756  0.0334  0.1915 -0.1944
 5926W        W 9990   4.536  10.030   1.078 -0.0163 -0.2429  0.1013
 5927W        W 9991   9.292  10.155   2.600  0.2575 -0.0469 -0.1803
 5928W        W 9992   8.254   6.696   8.837 -0.2319  0.1542  0.0694
 5929W        W 9993   7.476   2.663  11.094 -0.1951 -0.0285  0.0391
 5930W        W 9994   0.167   7.042   1.478 -0.0831 -0.1162  0.0707
 5931W        W 9995   4.876   6.730  10.654  0.0753 -0.1486 -0.0034
 5932W        W 9996   5.524   9.839   0.452  0.2128 -0.2233  0.0460
 5933W        W 9997  10.634   7.508   0.093 -0.2915  0.1446  0.0615
 5934W        W 9998   5.333   3.452   1.195 -0.4279 -0.0816  0.1785
 5935W        W 9999   7.279   5.371   1.206 -0.0857 -0.2031  0.1076
 5936W        W10000   7.802   0.997   0.866  0.2084 -0.2528 -0.1046
 5937W        W10001   2.906   5.537   2.561  0.5346  0.0500 -0.0035
 5938W        W10002   6.845   8.508   3.150 -0.0448 -0.2118  0.1039
 5939W        W10003   3.987   4.638   2.194 -0.3423  0.1015 -0.2496
 5940W        W10004   8.621   8.621   9.967 -0.3966 -0.3330  0.3963
 5941W        W10005   2.850   4.330   8.376  0.0460  0.4607  0.1921
 5942W        W10006   8.216   7.098   8.151  0.4080  0.2819  0.1227
 5943W        W10007   4.459   7.406   1.227  0.0802  0.2673 -0.0534
 5944W        W10008   5.375   6.522   7.868 -0.1080 -0.0556  0.0313
 5945W        W10009   6.941   2.006   1.127 -0.0589  0.3252  0.0379
 5946W        W10010   7.365   3.106   9.648  0.1914  0.1886 -0.2899
 5947W        W10011   2.952   1.674   1.220  0.0378 -0.0716  0.0190
 5948W        W10012   5.471  10.184   7.928  0.1814  0.0312  0.0859
 5949W        W10013   5.297   4.771   1.265 -0.0238 -0.1294 -0.0019
 5950W        W10014   0.006   1.426  10.363 -0.1082  0.3038 -0.0467
 5951W        W10015   9.225   8.395   8.609 -0.1720  0.2203 -0.3774
 5952W        W10016   1.833   5.503   0.640 -0.0067 -0.0694 -0.1188
 5953W        W10017   0.824   3.776   1.166  0.0132  0.0209  0.0471
 5954W        W10018   9.991   4.078   8.337 -0.2921  0.0445  0.0604
 5955W        W10019   2.857   9.815  10.550 -0.3279 -0.1752 -0.1007
 5956W        W10020  10.439   4.228   1.408  0.0153  0.0696 -0.2812
 5957W        W10021   4.965   0.181   7.751 -0.0880  0.1702 -0.0284
 5958W        W10022   7.302   1.997   9.301 -0.0969  0.0027 -0.4067
 5959W        W10023   0.701   7.126  11.274  0.0411  0.0996 -0.1045
 5960W        W10024   5.136   9.321   1.149  0.0891 -0.0562 -0.0666
 5961W        W10025  10.166   4.679  10.997 -0.2452  0.0070 -0.0476
 5962W        W10026  10.513   1.521  11.234 -0.3450  0.2112 -0.0954
 5963W        W10027   1.778   0.275  11.148  0.1493  0.0303  0.0878
 5964W        W10028   1.050   2.336   2.399 -0.0477  0.2421 -0.0279
 5965W        W10029   3.092   4.706   9.055 -0.4033 -0.1859 -0.3986
 5966W        W10030   4.673   7.878  11.014 -0.0946 -0.2337  0.0798
 5967W        W10031  10.679   3.581   2.725 -0.2114  0.0969 -0.0668
 5968W        W10032   9.865   7.477   8.332 -0.1246  0.1684 -0.1856
 5969W        W10033   7.029   4.261   8.183 -0.1403 -0.2398  0.0037
 5970W        W10034   5.401   9.068   2.560 -0.1584  0.0588 -0.3302
 5971W        W10035  10.330   3.773   1.007 -0.2876  0.0186  0.1127
 5972W        W10036   0.333   2.111   0.351  0.0986  0.2375  0.1042
 5973W        W10037   7.213   7.385   2.622 -0.1191 -0.3203  0.0306
 5974W        W10038   7.045   7.836   2.412 -0.1894 -0.0928  0.1700
 5975W        W10039   3.434   2.186   8.630 -0.1858  0.0631  0.1123
 5976W        W10040   0.164   5.413   1.215  0.1782 -0.1081  0.0808
 5977W        W10041   9.128   7.459   1.158  0.2659 -0.0426 -0.1082
 5978W        W10042   7.717   7.029   2.432 -0.2106 -0.1652 -0.1574
 5979W        W10043   7.691   8.884  10.788 -0.0927  0.0103  0.0183
 5980W        W10044   8.009   4.758   2.159  0.1327  0.2925 -0.1801
 5981W        W10045  10.641   0.502   1.200 -0.2369  0.0115  0.2567
 5982W        W10046   1.901   8.431   0.497  0.3507 -0.1019  0.0283
 5983W        W10047   6.199   7.929   9.241  0.4564 -0.1286  0.2470
 5984W        W10048   5.997   3.316   2.357  0.0961 -0.2579  0.2428
 5985W        W10049   2.193   9.109   8.412 -0.1536  0.0338  0.2010
 5986W        W10050   8.059   2.545   1.249  0.1976 -0.2047 -0.0482
 5987W        W10051   1.410   6.115   2.059  0.1548  0.1933  0.0156
 5988W        W10052   1.462   7.548   9.973  0.0097 -0.0134  0.4256
 5989W        W10053   8.471  10.585   1.700 -0.3244  0.1119 -0.3630
 5990W        W10054   4.657   4.655   0.965 -0.0621 -0.0738 -0.0658
 5991W        W10055  10.080   6.728   8.209 -0.2248  0.1606  0.1810
 5992W        W10056   3.005   9.294   2.847  0.0115 -0.3363 -0.1211
 5993W        W10057   5.641   7.048  11.359 -0.1447  0.1125  0.1151
 5994W        W10058   1.683   2.111   9.619 -0.2368  0.0110  0.3414
 5995W        W10059   1.261   1.784   1.817 -0.3156 -0.2252 -0.1857
 5996W        W10060   3.071   8.779   8.991 -0.0078 -0.1789 -0.2431
 5997W        W10061   8.940   5.883   8.849  0.1531  0.0521  0.2050
 5998W        W10062   2.045   1.697   9.626  0.0829  0.2526 -0.2142
 5999W        W10063   4.091   2.577   9.681 -0.0928 -0.1296  0.0595
 6000W        W10064   2.822   7.120   8.281  0.0890 -0.0049  0.0385
 6001W        W10065   0.257   3.033   7.534 -0.1272  0.0402  0.4005
 6002W        W10066   1.060   5.413   2.213  0.2576 -0.1372 -0.2846
 6003W        W10067   1.888   1.986   2.259 -0.1827  0.1330  0.0028
 6004W        W10068   8.700   6.831   2.371 -0.0368 -0.1244 -0.0030
 6005W        W10069   5.577   6.595   9.879  0.0695 -0.1681  0.4218
 6006W        W10070   6.041   9.119   7.631  0.1980 -0.3994  0.1051
 6007W        W10071   2.657   0.429   9.850 -0.1610 -0.3678  0.0344
 6008W        W10072   5.723   7.320   7.563  0.0084  0.2967 -0.1480
 6009W        W10073   6.804   3.322   8.877 -0.0230  0.1575  0.3282
 6010W        W10074  10.585   2.469   8.272 -0.1130  0.2104  0.0226
 6011W        W10075   9.825   9.814   9.232  0.1103 -0.0870 -0.0846
 6012W        W10076   7.829   7.576   2.994 -0.1969 -0.1357 -0.0177
 6013W        W10077   1.563   9.938   0.431 -0.0039 -0.0330  0.0218
 6014W        W10078   6.420   0.827  11.180  0.1073  0.2252 -0.1237
 6015W        W10079   5.405   2.006  10.588 -0.0822 -0.2137  0.1864
 6016W        W10080   6.112   8.130   8.772  0.1402 -0.1098 -0.2735
 6017W        W10081   4.661   1.040   8.067 -0.2948  0.0590  0.1770
 6018W        W10082   1.375   3.492   9.205  0.1763 -0.0381 -0.0559
 6019W        W10083   3.408   6.723   7.979  0.0057  0.1422  0.2247
 6020W        W10084   6.028   7.571   7.273 -0.3526  0.0417  0.0487
 6021W        W10085   0.867   6.628   0.502  0.0666  0.0258  0.1571
 6022W        W10086   3.438   1.243  10.010  0.0971 -0.0472  0.1626
 6023W        W10087   2.236   8.931   0.950 -0.0621  0.2466  0.4304
 6024W        W10088   5.577   9.533   0.015 -0.2213  0.0053 -0.0155
 6025W        W10089   2.798   4.401   9.388  0.1766 -0.0163  0.3251
 6026W        W10090   8.645   6.291   2.546  0.1020 -0.1498 -0.1181
 6027W        W10091   5.859   1.273   7.716 -0.2045 -0.4780 -0.2202
 6028W        W10092   5.088   9.745   1.419 -0.3136 -0.1234 -0.0345
 6029W        W10093   7.369   0.691  11.273 -0.0295 -0.4571 -0.0189
 6030W        W10094   8.012   6.549   7.985  0.0365 -0.3387  0.0300
 6031W        W10095   4.804   1.268   0.487 -0.1686  0.0375 -0.1496
 6032W        W10096   6.096   8.605   1.024 -0.1241  0.0974 -0.1039
 6033W        W10097   2.309   8.444   0.854 -0.4447 -0.0521 -0.0267
 6034W        W10098   1.239   4.867   0.313 -0.1917  0.0146  0.1348
 6035W        W10099   9.323   5.992   9.239  0.3075  0.1399  0.2780
 6036W        W10100   1.886   8.968  10.340  0.0044  0.0965  0.0863
 6037W        W10101   8.167   2.408   0.790  0.2307  0.1910  0.1764
 6038W        W10102   9.190   3.617   1.888  0.0669  0.3257 -0.0690
 6039W        W10103   2.445   2.016  11.182  0.0174 -0.3034 -0.1249
 6040W        W10104   2.846  10.414   7.410 -0.0067  0.1007  0.0298
 6041W        W10105   5.711   7.716   2.100  0.3997  0.0709 -0.2592
 6042W        W10106   0.239  10.140   8.004  0.0316 -0.2816  0.0044
 6043W        W10107   4.936   3.025   0.487  0.1211 -0.1169 -0.2998
 6044W        W10108   8.945   0.446   8.790 -0.0446  0.1404  0.3092
 6045W        W10109   9.606   5.482   9.295  0.0016 -0.4568 -0.3350
 6046W        W10110   8.920   5.785   1.352  0.1709  0.1896 -0.0243
 6047W        W10111   3.067   7.159   8.802  0.2114 -0.1120 -0.1308
 6048W        W10112   6.318   3.198   6.748  0.1294 -0.0621 -0.0855
 6049W        W10113   2.300  10.066   1.849  0.0623  0.0090  0.0103
 6050W        W10114   1.701   5.611   8.698  0.1148 -0.0574 -0.2986
 6051W        W10115   3.548   5.836  10.772 -0.1276  0.0105  0.1084
 6052W        W10116   9.970   1.324  11.128  0.1192  0.4350  0.1590
 6053W        W10117  10.446   2.446  11.059  0.2567  0.0411  0.0376
 6054W        W10118   6.153   9.154   8.225  0.0738  0.1508 -0.0922
 6055W        W10119   4.716   2.035   1.491 -0.1480  0.0411  0.0902
 6056W        W10120   9.390   9.021   2.253 -0.0310  0.1308  0.1592
 6057W        W10121   3.665   2.945   0.877 -0.3096 -0.1897 -0.0254
 6058W        W10122   0.732   9.512   3.318  0.0428 -0.2051  0.0265
 6059W        W10123   8.030   1.936   1.011 -0.3523 -0.2122 -0.2026
 6060W        W10124   6.943   6.010   8.415 -0.0857 -0.0287 -0.0160
 6061W        W10125   7.101   6.073   1.554 -0.2003 -0.0568  0.0553
 6062W        W10126   7.735   2.898   8.033 -0.4146 -0.0056  0.0586
 6063W        W10127   5.628   4.786   0.010 -0.0807 -0.3178  0.0437
 6064W        W10128   1.567   6.620   1.740  0.0819 -0.1236  0.1008
 6065W        W10129   1.499  10.529   1.985 -0.0417 -0.0438 -0.0521
 6066W        W10130   7.689   9.087   9.758 -0.0526 -0.0071  0.0660
 6067W        W10131   2.713   5.493   9.724  0.1559  0.0096  0.0021
 6068W        W10132   7.203   2.517  10.721 -0.0306  0.3460 -0.1156
 6069W        W10133   3.397   7.604  10.023  0.4338  0.0913  0.1062
 6070W        W10134   2.762  10.094   8.881  0.0835  0.3415  0.0814
 6071W        W10135   0.878   2.912  10.296 -0.2238 -0.0698  0.2278
 6072W        W10136   2.234   9.379   9.472 -0.0918  0.2361  0.1399
 6073W        W10137   8.550   0.528   0.652  0.2693 -0.3236  0.2194
 6074W        W10138   9.072   4.647   9.197  0.3357 -0.1604  0.1353
 6075W        W10139   6.879   9.765   2.299 -0.0994  0.2596 -0.3053
 6076W        W10140   0.673   0.437   9.177 -0.4775 -0.1008 -0.1229
 6077W        W10141   6.924   8.395   9.486  0.0861  0.2423  0.0927
 6078W        W10142   4.232   7.259   1.762  0.1378 -0.0230  0.1181
 6079W        W10143   0.571   2.314   8.074 -0.0284 -0.0059 -0.0782
 6080W        W10144   7.058   2.172   0.166  0.0835  0.0406 -0.2471
 6081W        W10145   9.420   9.965  10.626 -0.1652  0.3038 -0.1107
 6082W        W10146   0.393   6.482  10.481 -0.0747  0.0037  0.1791
 6083W        W10147   8.257   4.089   0.925 -0.1366 -0.3927 -0.4613
 6084W        W10148   4.533   2.665   6.945  0.0634  0.0509  0.3508
 6085W        W10149  10.308  10.660  11.123  0.1108 -0.0398  0.4358
 6086W        W10150   8.544   2.084  11.363 -0.2078  0.0058  0.1183
 6087W        W10151   7.491   6.580   2.318 -0.0783  0.3616  0.3609
 6088W        W10152   6.330   9.877   1.558 -0.0952 -0.2627  0.1675
 6089W        W10153   0.251   7.675   3.580 -0.1082 -0.3505  0.0284
 6090W        W10154   9.822   3.591   9.218  0.0820 -0.3248  0.2986
 6091W        W10155  10.552   7.966   9.909  0.1033  0.0064 -0.1192
 6092W        W10156   4.369   9.471   1.736  0.0553  0.0678  0.1250
 6093W        W10157   3.027   8.499  10.041  0.2146  0.0440  0.0100
 6094W        W10158   7.729   9.523   2.918 -0.0706  0.0215  0.1227
 6095W        W10159   1.055  10.001   8.672 -0.2181 -0.0700  0.1018
 6096W        W10160   1.456   0.596   1.880  0.0498  0.1872  0.0755
 6097W        W10161   4.865   0.285  11.086  0.0968 -0.0323 -0.1153
 6098W        W10162  10.287   8.856   1.217  0.1281  0.2894  0.1096
 6099W        W10163   6.557   6.733  11.205 -0.1605 -0.0623 -0.1148
 6100W        W10164   5.202  10.266  10.430 -0.2391 -0.0018  0.1026
 6101W        W10165   1.469   4.788   0.795  0.3300 -0.2273  0.3436
 6102W        W10166  10.465   2.528   9.992 -0.1169 -0.1484  0.0116
 6103W        W10167   2.140   0.980   0.362  0.2438  0.0009  0.2975
 6104W        W10168   2.665   5.852   8.664 -0.0087  0.0621  0.2131
 6105W        W10169   6.681   2.300   9.517  0.0322 -0.0093 -0.0066
 6106W        W10170   6.700   4.529  10.008 -0.0911 -0.4096 -0.0210
 6107W        W10171   6.563   0.681   0.296 -0.0157  0.1508  0.1597
 6108W        W10172   7.216   6.592   8.851  0.3057 -0.2562 -0.1163
 6109W        W10173   7.882   6.648   8.437 -0.3197 -0.2016  0.2136
 6110W        W10174   5.610   8.623   1.127 -0.2134  0.2174  0.0300
 6111W        W10175   0.025   1.503   8.711  0.3441 -0.1114 -0.0411
 6112W        W10176   5.276   6.110   0.044  0.0390  0.1211 -0.1184
 6113W        W10177   5.500   9.903   1.064  0.0744  0.5403  0.0161
 6114W        W10178   3.491   1.613   0.278 -0.1582  0.0777 -0.3213
 6115W        W10179   5.557   6.705   8.948 -0.0229 -0.0400  0.4057
 6116W        W10180   6.894   7.875   0.430  0.1685 -0.1113  0.1336
 6117W        W10181   6.530   9.709   9.970 -0.0780  0.0467  0.1564
 6118W        W10182   5.273   2.882   2.950 -0.2348  0.3416 -0.0640
 6119W        W10183   8.049   7.129   2.820  0.1820 -0.4830  0.0087
 6120W        W10184   0.888   9.290   0.733  0.1700 -0.2073 -0.0956
 6121W        W10185  10.653   6.885   9.207 -0.1334  0.2859  0.0639
 6122W        W10186   6.582   1.803   0.839 -0.0588  0.0113 -0.2767
 6123W        W10187  10.354   8.608   3.249  0.2455 -0.0242 -0.2180
 6124W        W10188   6.983   7.067   1.132 -0.1276  0.3608  0.0353
 6125W        W10189   1.990   7.040   8.874 -0.1236 -0.0417  0.2127
 6126W        W10190   2.500   0.478   9.069 -0.0730 -0.0147  0.0162
 6127W        W10191   6.844   8.827   9.874  0.1344 -0.1320  0.2091
 6128W        W10192   2.008   1.579   9.156 -0.1601 -0.0257 -0.1158
 6129W        W10193   9.931   5.405   8.784  0.0829 -0.0139  0.0703
 6130W        W10194   0.576   6.303   1.204 -0.0999  0.2128  0.0770
 6131W        W10195   7.298   4.850   1.140 -0.0047 -0.0372  0.1741
 6132W        W10196   2.424   5.894   2.290 -0.4087 -0.1183  0.2519
 6133W        W10197   2.408   2.164   8.385  0.0853  0.3862  0.1726
 6134W        W10198   4.170   2.133   2.738 -0.2269 -0.1494  0.2243
 6135W        W10199   7.355   3.876   1.233 -0.1334  0.0789  0.0107
 6136W        W10200   0.684   9.343   0.283  0.2013  0.1009  0.0382
 6137W        W10201   5.073   8.153   3.321  0.2067  0.2307 -0.1154
 6138W        W10202   6.572   7.568   7.351 -0.1835  0.2055 -0.1851
 6139W        W10203   6.481   9.456   0.494  0.1615 -0.0760  0.1253
 6140W        W10204   4.939  10.087   1.928 -0.0636 -0.1742 -0.1061
 6141W        W10205   2.037   5.558   2.363 -0.0122 -0.0288 -0.0057
 6142W        W10206   1.973   9.458   1.123 -0.0760 -0.3267 -0.0394
 6143W        W10207   9.839   7.136   0.633 -0.0864 -0.0480 -0.2419
 6144W        W10208   5.922   1.878   2.046  0.0342  0.2995  0.0184
 6145W        W10209   7.027   7.708   7.836  0.1039  0.2171  0.0657
 6146W        W10210  10.463   0.609  10.693  0.0651  0.1543  0.0214
 6147W        W10211   9.873   4.397  10.433 -0.2674  0.3738  0.0426
 6148W        W10212   1.589   9.145  10.697  0.1269  0.0058  0.0640
 6149W        W10213   4.881   5.275   0.114 -0.0818 -0.2488 -0.0257
 6150W        W10214   2.033   2.147   9.231  0.2638 -0.0264 -0.2105
 6151W        W10215  10.020   3.379   0.991 -0.1186  0.0252 -0.2273
 6152W        W10216   1.914   8.361   8.810 -0.2196 -0.1472  0.0554
 6153W        W10217   4.940   1.414  11.002 -0.0434  0.0982 -0.0388
 6154W        W10218   3.558   3.526   0.292 -0.1567 -0.3741 -0.4220
 6155W        W10219   1.182   1.247   1.601  0.0849 -0.1567  0.4483
 6156W        W10220   8.512   7.124   8.609  0.1192 -0.0428  0.3793
 6157W        W10221   4.498   2.421   1.029  0.1689 -0.1971  0.1475
 6158W        W10222  10.612   2.387   0.530 -0.2412 -0.0228  0.0165
 6159W        W10223   6.344   1.944   7.901 -0.1441  0.2116 -0.0228
 6160W        W10224   4.595   1.899   0.745  0.0206 -0.1390  0.0853
 6161W        W10225   4.851   9.492   9.803  0.3718  0.1274 -0.1920
 6162W        W10226   2.970   1.003  10.807 -0.0624  0.0928  0.3496
 6163W        W10227  10.531   8.233   3.603  0.2060 -0.5060 -0.0372
 6164W        W10228   2.345   1.318   3.637  0.1187 -0.0973 -0.2461
 6165W        W10229   2.950   6.907   1.463  0.1926  0.1811  0.1744
 6166W        W10230   8.787   9.774   7.441  0.1153 -0.3452  0.0702
 6167W        W10231   5.756   3.371   9.936 -0.4428  0.3076  0.1041
 6168W        W10232   1.536   1.122   1.941  0.0652  0.1585 -0.0542
 6169W        W10233  10.694   9.576   0.280 -0.2970 -0.0791 -0.1935
 6170W        W10234   5.389   2.669   9.567 -0.1047 -0.0916 -0.0594
 6171W        W10235   8.062   3.564   8.409 -0.0479  0.1895 -0.0129
 6172W        W10236  10.224   3.665   2.486 -0.0328  0.0961  0.0123
 6173W        W10237   6.813  10.501   3.431 -0.0974  0.2401 -0.1154
 6174W        W10238   5.860   7.153   3.004 -0.1297 -0.1309 -0.0662
 6175W        W10239   1.123   3.871  11.141  0.1030 -0.3240  0.0497
 6176W        W10240   5.159   7.984   7.354  0.0757  0.1905  0.0793
 6177W        W10241   6.396   2.671   1.688 -0.1445 -0.0146 -0.0186
 6178W        W10242   0.459   4.584   1.525 -0.1107 -0.1019  0.2574
 6179W        W10243   3.679   3.432  10.164  0.1638 -0.1869  0.1607
 6180W        W10244   4.432   6.045  11.052 -0.1789  0.2563  0.0679
 6181W        W10245   4.456   5.205  10.112  0.1377 -0.0891  0.1909
 6182W        W10246   9.282   2.125   2.949  0.1968  0.0060  0.0537
 6183W        W10247  10.470   4.752  10.569  0.4355 -0.1428  0.0758
 6184W        W10248   9.960   4.478   9.762 -0.1233 -0.2895 -0.0646
 6185W        W10249   1.293   7.784   1.426 -0.0716  0.1817 -0.0510
 6186W        W10250   4.056   1.741   0.679  0.0613  0.1241  0.0693
 6187W        W10251   7.878   1.406   8.253 -0.1468  0.2239 -0.0556
 6188W        W10252  10.695   6.270   8.533  0.0346 -0.0627 -0.0053
 6189W        W10253   5.078   5.369  10.711  0.1375 -0.3901 -0.0657
 6190W        W10254   3.464   5.817   2.425  0.0765  0.2462 -0.4002
 6191W        W10255   1.946   6.940   1.228  0.0247  0.1069 -0.1141
 6192W        W10256   4.207   3.668   0.831 -0.3862 -0.1879 -0.0167
 6193W        W10257   7.982   7.103   0.018  0.1491  0.0494 -0.4506
 6194W        W10258   4.577   5.542   9.825  0.0736  0.2501  0.1490
 6195W        W10259  10.061   5.597   3.422 -0.0724 -0.1072  0.3345
 6196W        W10260  10.268   5.537   2.681 -0.3160 -0.1900  0.3369
 6197W        W10261   1.366   1.938   8.243  0.0730 -0.1544  0.1502
 6198W        W10262   1.037   4.673   1.531  0.0615 -0.2795 -0.0563
 6199W        W10263   0.401   9.382  11.266 -0.0560  0.0028  0.2956
 6200W        W10264   6.232   8.376   7.513  0.1216  0.0669 -0.1217
 6201W        W10265   6.358   5.249   9.628  0.4849  0.2319 -0.1708
 6202W        W10266   1.995   1.399   1.996 -0.1527 -0.1822 -0.1083
 6203W        W10267   6.345  10.062   9.529 -0.1202  0.1959 -0.1964
 6204W        W10268   5.425   5.663   2.572  0.1076  0.5633 -0.1565
 6205W        W10269   3.642   0.025   8.268 -0.0691 -0.1976  0.0497
 6206W        W10270   9.967   1.246   8.146  0.2456 -0.0464  0.2438
 6207W        W10271   9.445   1.639   0.892  0.1825  0.0225  0.3216
 6208W        W10272   5.906   7.038   8.006  0.1112  0.1703 -0.1037
 6209W        W10273   9.092   9.549   0.206  0.2017  0.0467 -0.0836
 6210W        W10274   0.823   9.128   9.464  0.4918  0.1028  0.2544
 6211W        W10275   6.203   8.673   3.599  0.1493  0.2425 -0.0528
 6212W        W10276   0.027   8.648   3.584  0.2721 -0.1151 -0.2927
 6213W        W10277   3.103   6.130  10.731  0.2136 -0.2991  0.4745
 6214W        W10278   1.000   5.259   9.092 -0.0277 -0.1159 -0.0739
 6215W        W10279   8.901   7.664   9.693 -0.1269  0.1121 -0.3397
 6216W        W10280   7.659   8.903   0.100 -0.0487  0.1616  0.0653
 6217W        W10281   3.624   8.982   6.986 -0.1047 -0.1127 -0.0371
 6218W        W10282   6.468  10.327   9.013  0.0643 -0.0874 -0.1523
 6219W        W10283   1.614   1.467   8.374  0.0080  0.4349  0.2718
 6220W        W10284   4.195   3.665   2.741  0.3962  0.1525  0.0454
 6221W        W10285   1.489   1.789  10.874 -0.0328  0.1785  0.0073
 6222W        W10286   2.771   5.053   1.710 -0.0729 -0.1901 -0.0061
 6223W        W10287   3.157   1.646  10.623  0.4759 -0.3413 -0.0772
 6224W        W10288   2.140   2.328  10.835 -0.1266  0.1363  0.0568
 6225W        W10289   8.580   5.738  10.774 -0.0894 -0.0646  0.0256
 6226W        W10290   7.862   5.374   9.502 -0.0723  0.0161 -0.0111
 6227W        W10291   1.485   7.062   0.113 -0.1103 -0.1412  0.1408
 6228W        W10292  10.173   1.046   7.695 -0.1155  0.1669 -0.0700
 6229W        W10293   7.444  10.369   0.253  0.0255 -0.1768 -0.0022
 6230W        W10294   2.166   5.110  10.962 -0.1443  0.0260 -0.0733
 6231W        W10295   4.371   2.312   0.514 -0.0689 -0.1981  0.3223
 6232W        W10296   8.365   6.246   7.736  0.1153  0.0495 -0.4434
 6233W        W10297   6.911   2.522  11.127  0.0006 -0.1434 -0.0456
 6234W        W10298   0.451   9.537  10.113  0.1309  0.0706 -0.3664
 6235W        W10299  10.036   4.579   2.813  0.3516 -0.0091  0.4966
 6236W        W10300   4.884   6.626   3.126 -0.0834  0.3033  0.1780
 6237W        W10301   8.146   5.216   0.170 -0.1369 -0.0518 -0.0189
 6238W        W10302   8.426   3.954   1.900  0.0978  0.2241  0.0072
 6239W        W10303   3.053  10.545   8.565 -0.0655  0.0240  0.2391
 6240W        W10304   5.992   4.139   1.285 -0.0735  0.0030  0.2508
 6241W        W10305   8.244   2.518   8.687  0.0286  0.0727  0.1305
 6242W        W10306   9.979   5.229   0.748  0.1399  0.0482  0.2335
 6243W        W10307   4.187   2.180  10.047 -0.1011 -0.2387 -0.1963
 6244W        W10308   4.983   7.469  10.967  0.0525  0.0816  0.0509
 6245W        W10309   2.871   2.837   0.048  0.2283 -0.0082 -0.0644
 6246W        W10310   3.369   4.117  10.930 -0.2480 -0.1632  0.0584
 6247W        W10311   7.310   2.870   7.782  0.0436 -0.2940 -0.0023
 6248W        W10312   2.630   8.804   9.888  0.1005  0.0126  0.0429
 6249W        W10313   7.219   7.334   8.132 -0.2462  0.1299  0.3212
 6250W        W10314   8.925   3.314   9.017 -0.1733  0.2265  0.0915
 6251W        W10315   6.383   3.877   1.012 -0.0739  0.2565  0.0162
 6252W        W10316  10.023   1.859  10.493  0.1215  0.2149  0.2690
 6253W        W10317   2.067   7.471   8.608 -0.1116 -0.0388  0.2175
 6254W        W10318   9.075   9.174   8.691  0.0189  0.0758 -0.0037
 6255W        W10319   5.371   2.030   9.356 -0.0663 -0.0141  0.0268
 6256W        W10320   0.916   6.153  10.664 -0.0372 -0.2071 -0.0972
 6257W        W10321   5.671  10.357   1.960 -0.2271 -0.0956  0.2294
 6258W        W10322   1.829   6.252   2.827 -0.2622 -0.0808 -0.0584
 6259W        W10323   4.454   3.245  10.246 -0.0119 -0.0086 -0.1176
 6260W        W10324   9.623  10.038  10.103  0.1627 -0.0032 -0.1545
 6261W        W10325  10.188   1.649   8.362  0.3766 -0.3528  0.0643
 6262W        W10326   1.566   9.831   9.420  0.1166 -0.1067  0.2546
 6263W        W10327   1.829   7.093   1.723  0.1768  0.3068  0.0005
 6264W        W10328   2.008   7.279   3.083 -0.0689  0.0692  0.4538
 6265W        W10329   8.022   6.862   0.531 -0.1954  0.1693  0.0527
 6266W        W10330   7.745   8.428   1.473  0.0148 -0.2525  0.1306
 6267W        W10331   5.816   8.706   8.459 -0.0558 -0.3101  0.1322
 6268W        W10332   1.162  10.563   8.699 -0.1208  0.0901  0.0364
 6269W        W10333   0.157   2.371  10.169 -0.2579 -0.1582  0.1976
 6270W        W10334   3.739   7.940  10.944  0.2197  0.0801 -0.1738
 6271W        W10335   9.491   0.201   0.485 -0.0702 -0.2334 -0.0435
 6272W        W10336   7.558   0.761   1.744  0.1179 -0.1620  0.0759
 6273W        W10337  10.664   8.433   8.997 -0.2096 -0.2248 -0.1658
 6274W        W10338   3.426   6.161  10.385 -0.0557 -0.3277  0.0638
 6275W        W10339   5.112   3.974   2.791 -0.0930 -0.4779  0.3532
 6276W        W10340   2.296   4.551   9.398  0.1767  0.0728  0.0088
 6277W        W10341   0.138   5.074   8.935  0.0487 -0.0280 -0.0318
 6278W        W10342   5.574   0.939   1.510  0.3534 -0.1245 -0.0989
 6279W        W10343   4.389   6.954   7.858  0.1788 -0.4472 -0.3850
 6280W        W10344   7.416  10.254  10.838 -0.2014 -0.0037 -0.0115
 6281W        W10345   0.332   1.220   8.227 -0.1557 -0.0975  0.0233
 6282W        W10346   9.499   1.991   9.281  0.0382  0.1139  0.0036
 6283W        W10347   2.933   3.771   2.535 -0.2145 -0.0901 -0.1419
 6284W        W10348   9.118   3.428   0.968 -0.1587  0.2036 -0.1206
 6285W        W10349   2.470   3.767  10.640  0.0989 -0.2503 -0.1191
 6286W        W10350   1.445   3.060   2.336 -0.2596  0.0719  0.1852
 6287W        W10351   0.135   4.166   3.775  0.3792 -0.0207 -0.0863
 6288W        W10352   1.953   0.886   2.082  0.0231 -0.0707 -0.2527
 6289W        W10353   2.529   3.309   2.008  0.1414  0.2283 -0.2361
 6290W        W10354   5.219   7.217   9.283 -0.1362 -0.0290 -0.1031
 6291W        W10355   6.500   9.558   0.026  0.3839 -0.3881  0.1353
 6292W        W10356   5.966   4.212   8.981  0.1238  0.1371 -0.0825
 6293W        W10357   7.797   2.746   8.807 -0.4344  0.0972 -0.2017
 6294W        W10358   8.825   3.477  10.355  0.2053  0.0400  0.0729
 6295W        W10359   4.032   9.929  11.253 -0.2230 -0.1700  0.2282
 6296W        W10360   3.046  10.186   9.591 -0.2514  0.1517  0.1529
 6297W        W10361  10.152   4.444   0.558  0.0767 -0.2153  0.2170
 6298W        W10362   4.376   7.025   9.331  0.0888  0.0394 -0.1220
 6299W        W10363   0.418   5.451   8.220  0.2543 -0.4626 -0.2006
 6300W        W10364   4.195   5.905   8.548  0.2249 -0.2958 -0.2439
 6301W        W10365   1.155   3.432  10.725  0.0526  0.0178  0.0981
 6302W        W10366   8.069   0.698   9.918 -0.0946  0.3541  0.3925
 6303W        W10367   3.181   9.529   2.333 -0.1296 -0.0767 -0.3074
 6304W        W10368   0.949   2.422   9.129 -0.1421  0.0152  0.3232
 6305W        W10369   3.759   5.747   9.642 -0.3229  0.1664 -0.0860
 6306W        W10370   1.567   3.864   8.315  0.1748  0.1052 -0.1299
 6307W        W10371   7.928  10.647   0.276 -0.3292 -0.2211 -0.0735
 6308W        W10372   5.653   0.421   9.289 -0.2290  0.0159  0.1728
 6309W        W10373   5.240   3.861   0.016  0.0768 -0.1140 -0.0314
 6310W        W10374   9.942   2.196   7.758 -0.0674  0.1284  0.0977
 6311W        W10375   4.697   0.753   1.108 -0.0623  0.3280  0.0282
 6312W        W10376   7.988   4.931   8.621  0.2146 -0.1870 -0.0490
 6313W        W10377   7.576   6.087  10.722  0.2472  0.2383  0.4909
 6314W        W10378   3.964   8.038   1.575  0.1178 -0.2052 -0.0304
 6315W        W10379   0.973   8.703   9.064  0.2117 -0.2332 -0.0532
 6316W        W10380   2.094  10.555   8.391  0.0560  0.4824  0.2966
 6317W        W10381   0.579   5.435   3.971  0.2470 -0.1755  0.0588
 6318W        W10382   7.788   5.433   3.056  0.0633  0.0597  0.1277
 6319W        W10383   8.632   2.419   7.644  0.2219  0.3646 -0.1633
 6320W        W10384   6.123   3.323   7.241  0.0677  0.2688  0.2591
 6321W        W10385   6.029   1.460   8.887 -0.0282 -0.1224 -0.2281
 6322W        W10386   4.465   9.782   8.399 -0.1957 -0.0003  0.0269
 6323W        W10387   4.536   9.445   0.323  0.0682 -0.0926  0.2385
 6324W        W10388   7.393   0.318   1.977 -0.0078 -0.0823  0.0182
 6325W        W10389   1.238  10.047   2.091  0.1521  0.0468  0.0557
 6326W        W10390   1.367   8.000   4.079 -0.1223 -0.1857  0.1077
 6327W        W10391   5.096   6.397   9.872 -0.1612  0.2547  0.0382
 6328W        W10392  10.502   8.403   0.418 -0.1303 -0.0191  0.6183
 6329W        W10393   7.547   3.126  10.111 -0.1515 -0.0864  0.1237
 6330W        W10394   4.189   0.737   8.218 -0.3543  0.3021 -0.0600
 6331W        W10395   3.151   2.300  11.341  0.0612  0.0585  0.3694
 6332W        W10396   1.925   7.886   0.379  0.3286 -0.3418 -0.0289
 6333W        W10397   9.971   5.161   0.224 -0.0020 -0.2679 -0.0325
 6334W        W10398   0.490   8.315  10.248  0.1657  0.0446 -0.1762
 6335W        W10399   9.433   0.036   1.955  0.0068 -0.1645 -0.1984
 6336W        W10400   4.762   7.268   3.991 -0.2335 -0.0040 -0.0670
 6337W        W10401   3.202   9.846  11.313 -0.3515  0.2074 -0.1074
 6338W        W10402   1.567   1.799   8.964 -0.0006  0.0365 -0.3848
 6339W        W10403  10.303   0.717   0.384  0.0698  0.2945  0.0176
 6340W        W10404   9.667   3.898   0.259  0.2799 -0.2631  0.1868
 6341W        W10405   4.344   7.731   0.177 -0.3502 -0.2181 -0.2237
 6342W        W10406   1.802   8.402  10.986 -0.1089 -0.0102  0.0388
 6343W        W10407   0.798   6.400   1.692 -0.0547  0.2493  0.1803
 6344W        W10408   9.936   9.712   2.605 -0.1101 -0.0359 -0.0563
 6345W        W10409   3.414   3.194   2.466  0.0797 -0.0446  0.0757
 6346W        W10410  10.089  10.381   9.810 -0.0912 -0.0618 -0.0056
 6347W        W10411   7.397   6.190   0.688  0.2214  0.0177 -0.1626
 6348W        W10412   2.272   6.986  10.895 -0.2468  0.0634  0.0109
 6349W        W10413   3.620   2.258   1.397  0.3958 -0.2879 -0.1060
 6350W        W10414   1.910   9.590   0.111  0.1282  0.0281  0.1930
 6351W        W10415   0.002   6.152   3.774  0.1311 -0.3745  0.0442
 6352W        W10416  10.536   7.193  10.872  0.1067 -0.1651 -0.1297
 6353W        W10417   0.305   2.774   3.223 -0.1840 -0.2722  0.1087
 6354W        W10418   6.386   5.605   9.189  0.0207 -0.1647  0.2135
 6355W        W10419   3.488   1.847   9.618 -0.4053 -0.1685 -0.1472
 6356W        W10420  10.123   3.935   0.596 -0.4087 -0.1975 -0.0961
 6357W        W10421   3.202   3.459   9.450  0.3257 -0.0837  0.1459
 6358W        W10422   9.123   3.841   0.214 -0.0291 -0.2310  0.0218
 6359W        W10423   2.344   0.509   0.233 -0.3814  0.0614 -0.2690
 6360W        W10424   4.284  10.224   8.617  0.0358  0.1586 -0.1266
 6361W        W10425   3.896   7.299   2.744  0.0535  0.2661  0.0751
 6362W        W10426   4.567   7.043   0.889  0.0538  0.0359 -0.1995
 6363W        W10427   3.552  10.605  10.865 -0.0856 -0.2341 -0.2171
 6364W        W10428   1.495   9.221   2.612  0.1026 -0.1431 -0.1134
 6365W        W10429   3.354   0.349   8.620  0.0199 -0.3216  0.0756
 6366W        W10430   8.993   2.131   1.329 -0.0037 -0.1590 -0.2140
 6367W        W10431   9.750   7.703   0.453  0.2017  0.1512 -0.1338
 6368W        W10432   2.312   6.777   0.785  0.0518 -0.1040 -0.2404
 6369W        W10433   1.322   8.008   7.976 -0.0430  0.0096  0.0726
 6370W        W10434   1.779   2.826   1.254  0.1543 -0.0075 -0.0236
 6371W        W10435   2.331   1.519  10.092  0.2049  0.3968  0.2188
 6372W        W10436   1.389   9.307   1.132 -0.1550  0.4146  0.0590
 6373W        W10437   6.925   5.715   8.007  0.2244  0.0314 -0.0109
 6374W        W10438   3.343   6.285   2.281 -0.2066  0.1392  0.0741
 6375W        W10439   7.496   2.336   1.913  0.0035  0.0227 -0.0649
 6376W        W10440   2.954   0.996   8.294  0.2303 -0.1800  0.0697
 6377W        W10441   4.274   4.913   2.626 -0.1118 -0.2448  0.1137
 6378W        W10442   0.045   4.653  10.146 -0.3046 -0.3692  0.0156
 6379W        W10443   5.182   4.099   1.717 -0.2404 -0.0339  0.0796
 6380W        W10444  10.341   6.848   2.235  0.2169  0.3033  0.2962
 6381W        W10445   8.747   2.601  10.347 -0.0901  0.1624 -0.0646
 6382W        W10446   3.884  10.375  11.176  0.0398  0.2014 -0.0578
 6383W        W10447  10.688   6.440  10.709  0.1431  0.1102  0.0376
 6384W        W10448   4.387   7.789   1.596  0.2520  0.0014  0.1138
 6385W        W10449   8.087   6.305   9.236 -0.1189 -0.0899 -0.0716
 6386W        W10450   4.176   7.770   2.630 -0.2139 -0.3802  0.2010
 6387W        W10451   9.525  10.345   0.340 -0.2221 -0.0896 -0.2032
 6388W        W10452   7.892   2.209   3.295  0.1416  0.2262 -0.1685
 6389W        W10453   8.492   1.820   9.648  0.0875 -0.0782 -0.1336
 6390W        W10454   2.520   4.526   3.484  0.2284 -0.0835  0.3706
 6391W        W10455   8.911   7.415   8.866 -0.0496 -0.3959  0.0384
 6392W        W10456   1.699   6.711  10.799 -0.0672  0.1964  0.0201
 6393W        W10457   6.949  10.364   1.962  0.3204 -0.0267  0.1826
 6394W        W10458   4.295   7.590   0.689  0.1705 -0.0322  0.1818
 6395W        W10459   1.580   1.575   2.175  0.0207 -0.0751 -0.1184
 6396W        W10460  10.375   2.890   0.399 -0.2867 -0.1744 -0.3271
 6397W        W10461   1.550   5.938   9.991 -0.4117  0.0672  0.2436
 6398W        W10462   5.993  10.332  10.927 -0.2533 -0.0977 -0.0740
 6399W        W10463   1.331   6.194   2.866  0.1733 -0.0741  0.0106
 6400W        W10464   6.535   8.720   2.148  0.0435  0.1282 -0.2373
 6401W        W10465   0.361   0.218  11.379  0.1439 -0.1364 -0.0205
 6402W        W10466   5.969   5.054   9.959 -0.0402  0.1173 -0.0491
 6403W        W10467   8.611  10.321   0.556 -0.3195  0.1351  0.1118
 6404W        W10468   3.269   8.150   0.906  0.0832 -0.1719  0.2260
 6405W        W10469   3.236   1.746  10.018  0.0143 -0.1453  0.1945
 6406W        W10470   5.648   8.066   3.250  0.2641 -0.0367  0.1671
 6407W        W10471   7.128   8.989   7.989  0.2155 -0.3101  0.2838
 6408W        W10472   0.912   1.420   8.993 -0.2470 -0.3214  0.0670
 6409W        W10473   4.295   8.815   9.033  0.3366  0.0769 -0.2779
 6410W        W10474   2.912   1.176   9.448  0.0886 -0.0275 -0.0781
 6411W        W10475   7.896   4.289   8.527 -0.1243  0.2044 -0.1891
 6412W        W10476   2.645   0.073   1.676  0.1230  0.0772  0.1491
 6413W        W10477   5.633   3.054  10.881 -0.1499 -0.2316 -0.1702
 6414W        W10478   0.176   9.823   1.840 -0.4402 -0.0015 -0.2545
 6415W        W10479   7.869   3.347   1.947  0.1374 -0.0288 -0.1827
 6416W        W10480   0.160   5.080  10.826 -0.0524  0.3964 -0.4511
 6417W        W10481   6.479   3.266   9.749 -0.0017  0.2105 -0.0588
 6418W        W10482   7.711   1.431   0.583 -0.1653 -0.1362  0.2141
 6419W        W10483   1.303   3.110  11.074  0.1397 -0.0361  0.1968
 6420W        W10484   2.436   3.841   1.617 -0.0797  0.4823  0.2474
 6421W        W10485   0.169   6.235   0.822 -0.0282  0.0531 -0.2210
 6422W        W10486   3.873   5.813   9.025 -0.0082  0.2882  0.4336
 6423W        W10487   4.985   8.593   3.048 -0.1973  0.1172  0.1553
 6424W        W10488   3.052   1.439   1.625  0.1244  0.1764  0.1028
 6425W        W10489  10.297   7.471   3.536 -0.0453 -0.0910 -0.0117
 6426W        W10490   1.915   5.893   9.110  0.1308 -0.1397 -0.2178
 6427W        W10491   3.858   0.841   0.703  0.1510 -0.1965  0.1061
 6428W        W10492   5.175   4.617  10.161 -0.0181 -0.1074  0.2006
 6429W        W10493   3.343   0.189   2.113 -0.0356 -0.1166  0.1233
 6430W        W10494   9.465   7.952  10.841 -0.0911 -0.0392 -0.4892
 6431W        W10495   7.249   8.044   0.858  0.2233  0.2636  0.3356
 6432W        W10496   2.590   7.326   8.735 -0.0739 -0.0659  0.1156
 6433W        W10497   8.837   0.438   1.205  0.1327  0.2401 -0.0463
 6434W        W10498   4.733   1.286   0.986  0.2105  0.1133 -0.1711
 6435W        W10499   9.308   5.712   2.801  0.0674  0.1075  0.1174
 6436W        W10500   2.568   0.029   0.953 -0.1023  0.3693  0.2530
 6437W        W10501   6.056   0.556   8.062  0.0874  0.3887  0.0303
 6438W        W10502   3.026   4.319   7.481 -0.1005  0.0574 -0.0687
 6439W        W10503   5.738   5.608   1.317  0.2446  0.3203 -0.0992
 6440W        W10504   7.795   3.903   9.647 -0.1212 -0.0101 -0.0717
 6441W        W10505   5.331   2.017   1.365 -0.2143 -0.1675  0.0577
 6442W        W10506   4.325   4.692   0.574 -0.1049 -0.0600  0.2659
 6443W        W10507   1.275   6.227   1.563  0.0537  0.1117 -0.2823
 6444W        W10508   0.092   1.072   1.858 -0.3010 -0.1513  0.2977
 6445W        W10509   3.696  10.550   0.935 -0.0460 -0.1844 -0.0638
 6446W        W10510   1.106   0.893   0.195  0.3246  0.0538 -0.0840
 6447W        W10511   4.183   7.724  10.681  0.2722  0.2392 -0.1138
 6448W        W10512   3.280   2.007   7.934  0.1808  0.1936  0.0668
 6449W        W10513   6.244   4.685   9.744  0.0600 -0.3384  0.2439
 6450W        W10514   4.730   3.938   0.004  0.2958  0.1698 -0.4994
 6451W        W10515   9.987   8.504   7.943 -0.5964 -0.2587  0.0667
 6452W        W10516   2.258   7.170   2.529 -0.0784 -0.0123 -0.3413
 6453W        W10517   6.077   6.778   7.642  0.2034 -0.0033  0.4656
 6454W        W10518   3.675   0.469   8.056 -0.1240 -0.2259 -0.2138
 6455W        W10519  10.456  10.131   0.285  0.3159  0.1295 -0.2062
 6456W        W10520   0.893   9.118   3.080  0.1899  0.1490  0.1729
 6457W        W10521   0.912   4.931   1.916 -0.1801 -0.0686 -0.3132
 6458W        W10522   2.972   0.398   1.805  0.0094 -0.2878  0.2978
 6459W        W10523   7.304   2.137   8.427 -0.0902 -0.0674  0.0207
 6460W        W10524   1.554   4.247   1.868  0.0824  0.1728 -0.1917
 6461W        W10525   9.243   1.602  10.174  0.0127 -0.4835 -0.0581
 6462W        W10526   7.194   8.807   7.518 -0.1000 -0.5007 -0.0546
 6463W        W10527   7.275   3.476   8.815  0.1330  0.1836  0.1774
 6464W        W10528   8.790   9.863   8.564 -0.2209  0.2154 -0.0555
 6465W        W10529   9.320   7.911   2.355  0.1708  0.1036 -0.1272
 6466W        W10530   3.310   8.803  10.916  0.3828  0.1325 -0.2728
 6467W        W10531   1.794   5.312  10.040  0.0796  0.2144 -0.1011
 6468W        W10532   7.894   6.688   2.071 -0.0993 -0.0444  0.2556
 6469W        W10533   1.215   2.365   0.125  0.1972  0.1163 -0.0328
 6470W        W10534   5.693   3.332   0.720  0.1167 -0.0406  0.0191
 6471W        W10535   0.068   3.200   3.529  0.0369 -0.0439 -0.0965
 6472W        W10536   9.091   9.421   0.698  0.2243 -0.0280  0.0732
 6473W        W10537   1.821   0.596   0.125 -0.2477  0.2438 -0.3533
 6474W        W10538   7.799   5.903   9.507 -0.1848  0.2628  0.0592
 6475W        W10539   0.995   3.429  11.270  0.0587 -0.0913  0.3787
 6476W        W10540   8.486   9.688   9.379  0.0683  0.1206 -0.3133
 6477W        W10541  10.037   5.947   3.811 -0.2651 -0.1613  0.1434
 6478W        W10542   0.179   8.215   0.587  0.1166  0.0746 -0.1640
 6479W        W10543   9.414   2.603  10.956 -0.2213  0.0144  0.3894
 6480W        W10544   0.599   9.672   8.023  0.0364  0.1967 -0.2826
 6481W        W10545   3.185   9.384  11.064 -0.2247 -0.1727 -0.1550
 6482W        W10546   5.929   8.064   7.940 -0.0109  0.1223 -0.1107
 6483W        W10547   3.791   7.722   2.023  0.2281 -0.0640  0.0916
 6484W        W10548   1.923   3.285   8.051 -0.2732 -0.0865  0.0345
 6485W        W10549   6.523   8.390   1.263  0.1429  0.2509 -0.0447
 6486W        W10550   5.111   9.431   8.110 -0.2996 -0.0573  0.0266
 6487W        W10551   7.286   9.504   8.395  0.2698  0.0513  0.0642
 6488W        W10552   8.256   2.030   7.517  0.1382  0.1227 -0.0385
 6489W        W10553   3.828   9.001   2.612  0.1114  0.1370  0.3557
 6490W        W10554   2.956   7.063   0.123  0.0722 -0.2433 -0.1260
 6491W        W10555   7.226   0.116  10.519 -0.3216  0.1581 -0.1428
 6492W        W10556   8.695   7.151   1.483  0.2604  0.3712  0.2694
 6493W        W10557   4.427   2.245   9.448  0.0631  0.1589 -0.1088
 6494W        W10558   2.158   8.885   9.923  0.2081  0.1673  0.0865
 6495W        W10559   7.765   7.402   1.283  0.0979 -0.0541  0.0016
 6496W        W10560   1.665   8.002  10.792  0.1217 -0.0659 -0.2314
 6497W        W10561   5.626   0.272   9.837 -0.2476 -0.3394 -0.1686
 6498W        W10562   0.648   4.990   1.236  0.1929  0.0878  0.1549
 6499W        W10563   1.880   5.485   3.500  0.0168 -0.3497 -0.1915
 6500W        W10564   6.367   6.823   8.395  0.1922 -0.0048 -0.0486
 6501W        W10565   5.667   3.582   7.354 -0.3275 -0.1550  0.1990
 6502W        W10566  10.419   6.302   2.173 -0.0610  0.1977  0.0945
 6503W        W10567   7.059   4.071   7.748  0.0484 -0.2356 -0.0339
 6504W        W10568   4.499   7.086   2.222  0.0156  0.0071  0.3094
 6505W        W10569   1.527   8.507   9.793 -0.0982  0.0355  0.1578
 6506W        W10570   9.665   7.556   2.313 -0.3946  0.3468  0.0843
 6507W        W10571   5.466   6.150   8.154  0.1343  0.0738  0.0067
 6508W        W10572   1.352   6.290  10.372 -0.0764 -0.0685 -0.0515
 6509W        W10573   0.594   9.046   8.764  0.2700 -0.0633 -0.1464
 6510W        W10574   9.181   4.338   9.688 -0.0159  0.3437  0.3379
 6511W        W10575   2.824   8.131   2.591 -0.1547  0.1740 -0.1211
 6512W        W10576   7.982   4.446   2.571  0.1234  0.1732  0.0535
 6513W        W10577   3.605   1.671  10.342 -0.2580  0.0728 -0.1903
 6514W        W10578   2.680   2.935   2.888 -0.2850  0.1486  0.0746
 6515W        W10579   3.234   4.937   9.795 -0.0471  0.0117  0.3406
 6516W        W10580   1.021   5.706   0.127 -0.4601  0.1827 -0.0114
 6517W        W10581   9.008   2.958   8.593  0.0517  0.1479 -0.3386
 6518W        W10582   8.262   9.751   7.730 -0.0009  0.0529 -0.2053
 6519W        W10583   7.348   8.187   1.438 -0.2474  0.1558  0.0015
 6520W        W10584   7.850   9.426   7.496 -0.0075  0.0707  0.0274
 6521W        W10585   0.038   9.081   0.127 -0.2311  0.1507 -0.1888
 6522W        W10586   6.358   3.389   0.539 -0.0071 -0.2708 -0.1360
 6523W        W10587   6.484   8.883   3.222  0.0473  0.2939  0.1160
 6524W        W10588   1.609  10.643   1.432  0.1670  0.2840 -0.1109
 6525W        W10589   5.190   8.035   9.672 -0.2880  0.0097 -0.1505
 6526W        W10590   2.356   9.487   1.664  0.0071 -0.2115 -0.0744
 6527W        W10591   0.813   8.046   7.919 -0.0637 -0.2640 -0.2103
 6528W        W10592   4.176   3.561   6.965  0.0976 -0.0974 -0.1696
 6529W        W10593   9.426  10.363  10.916  0.1196  0.0974  0.1362
 6530W        W10594   5.005   6.151   0.412 -0.2326  0.1367  0.1259
 6531W        W10595   9.266   0.525   3.829 -0.1724  0.1133 -0.0084
 6532W        W10596   2.669   8.575   7.696  0.0841 -0.1475  0.0903
 6533W        W10597   7.443   6.324   8.533 -0.2097 -0.1822 -0.1988
 6534W        W10598   2.794   1.967   0.149 -0.2936 -0.0767 -0.2042
 6535W        W10599   6.990   2.536   8.609 -0.0874 -0.2491 -0.0119
 6536W        W10600   4.778   1.849   7.556  0.1251  0.0615 -0.0677
 6537W        W10601   1.609   3.146   1.621 -0.0999 -0.1579  0.1122
 6538W        W10602   7.371  10.439   1.746 -0.2533 -0.1032 -0.1487
 6539W        W10603   8.687   8.014   9.194 -0.3759  0.0288  0.0368
 6540W        W10604   3.679   4.966  11.294 -0.1427 -0.0684 -0.0682
 6541W        W10605   9.988   9.110   0.695 -0.2665 -0.0205 -0.1003
 6542W        W10606   1.991   9.882   1.484 -0.1334  0.0131 -0.1754
 6543W        W10607   2.328   5.682   3.165  0.2041  0.0182 -0.1673
 6544W        W10608   8.205   6.693  11.229  0.0150 -0.1557  0.2573
 6545W        W10609  10.380   4.532   8.548 -0.1224 -0.1816  0.2774
 6546W        W10610  10.083   5.931   0.137 -0.2288  0.1252  0.0875
 6547W        W10611   4.449   4.550   2.387 -0.1606 -0.0485 -0.1321
 6548W        W10612   5.353   6.553  10.814 -0.2206 -0.0732  0.1966
 6549W        W10613  10.730   1.408   3.385  0.0751 -0.5863  0.0209
 6550W        W10614   3.306   9.397   0.207 -0.0152 -0.3674  0.0947
 6551W        W10615   8.156   7.934   0.867 -0.1857 -0.1584 -0.1019
 6552W        W10616   4.496   0.345   2.523  0.0637  0.1378  0.0403
 6553W        W10617   1.572   7.968   3.186 -0.0553 -0.0705 -0.2914
 6554W        W10618   8.784   1.927   8.567 -0.1704 -0.1666  0.1632
 6555W        W10619   7.004   1.763  10.352 -0.0689 -0.1090 -0.2942
 6556W        W10620   7.436   6.247   9.274  0.0778  0.0838  0.1684
 6557W        W10621   8.744  10.720   0.043 -0.2982  0.0152  0.0149
 6558W        W10622   0.339   7.138   2.223  0.2098 -0.1007  0.1200
 6559W        W10623   4.017   5.496   0.018 -0.0125  0.0684 -0.1636
 6560W        W10624   6.648   4.637   2.651 -0.1663 -0.0099  0.1844
 6561W        W10625   2.840   6.174   7.692 -0.2481  0.0256 -0.1019
 6562W        W10626   6.723   2.972   0.724  0.0622  0.1246 -0.1389
 6563W        W10627   1.770   2.507   2.302  0.1072  0.2450 -0.1882
 6564W        W10628   5.861   9.087  11.072 -0.2679 -0.2936  0.1508
 6565W        W10629   7.400   6.961   8.497 -0.1463  0.0783  0.0146
 6566W        W10630   0.364   7.307  10.932 -0.3487 -0.1649  0.1522
 6567W        W10631   5.358   1.626  10.915 -0.0708 -0.2461 -0.3539
 6568W        W10632   0.549   0.011   2.276  0.1331  0.1939  0.2552
 6569W        W10633   1.621   2.754  11.213  0.0633  0.2465 -0.2583
 6570W        W10634   6.120   6.901   2.697 -0.2151  0.2219  0.0714
 6571W        W10635   2.953   8.304   7.962 -0.3908  0.2570 -0.1616
 6572W        W10636   0.512   2.487  11.010  0.1128 -0.1676 -0.2254
 6573W        W10637   3.744   0.071   9.277  0.4158 -0.1461  0.0936
 6574W        W10638   5.598   3.081   2.142  0.1551  0.0338  0.4173
 6575W        W10639   0.557   3.946   9.760  0.0252 -0.3579 -0.1101
 6576W        W10640   6.027   6.040   8.125  0.0787  0.1189 -0.3271
 6577W        W10641   3.616  10.704   1.694  0.3351 -0.3597  0.1384
 6578W        W10642   5.791   3.702   1.074  0.0830  0.0917  0.0371
 6579W        W10643   4.572   7.096   3.128 -0.0136 -0.0295 -0.1623
 6580W        W10644   0.297   1.653   7.863 -0.3922 -0.1335  0.1411
 6581W        W10645   5.904   6.312   0.203 -0.2887  0.0372  0.1407
 6582W        W10646   1.895   4.973   3.452 -0.4371 -0.2608  0.0654
 6583W        W10647   8.448   6.942   0.174  0.0279 -0.2267 -0.2429
 6584W        W10648   5.508   8.996   8.163  0.0437 -0.1103  0.3330
 6585W        W10649   6.131   2.516   0.128  0.2046 -0.2757  0.0668
 6586W        W10650  10.347  10.329  10.542 -0.1368  0.3627 -0.2002
 6587W        W10651  10.246   1.480  10.206  0.0466  0.1077 -0.0090
 6588W        W10652   3.596  10.124  10.844 -0.3419  0.3213  0.3325
 6589W        W10653   8.532   1.404   8.882 -0.1828 -0.1152 -0.1483
 6590W        W10654   9.508   8.265  11.387  0.2360 -0.2087  0.1703
 6591W        W10655  10.121   2.788  10.861 -0.3221 -0.0888  0.0364
 6592W        W10656   4.046   1.239   3.105 -0.0015  0.1744 -0.3716
 6593W        W10657   3.399   5.251   0.209 -0.1325 -0.1897 -0.0888
 6594W        W10658   2.469   8.709   8.131  0.2629 -0.0044 -0.2740
 6595W        W10659   8.262   2.201   9.337 -0.5080 -0.1215 -0.3134
 6596W        W10660   7.917   2.845  11.020 -0.0802 -0.0245  0.2792
 6597W        W10661   4.283   4.210   2.045 -0.1196  0.3548  0.2597
 6598W        W10662   3.621   2.427  11.064  0.0017 -0.0245 -0.0849
 6599W        W10663  10.156   8.153  10.165 -0.2107  0.0865  0.1954
 6600W        W10664   4.000   6.406   7.508  0.0896  0.1614 -0.1822
 6601W        W10665   0.498   0.898   0.097 -0.1269  0.1843  0.0308
 6602W        W10666   2.251   7.469  10.996 -0.1018 -0.0415 -0.1140
 6603W        W10667   9.086  10.711  10.213 -0.1446 -0.1777 -0.0240
 6604W        W10668   4.493   8.750   7.082  0.3546  0.0360  0.2998
 6605W        W10669   1.191   6.258   9.842  0.1917  0.0570  0.0735
 6606W        W10670   8.731  10.424   8.793  0.3433  0.2908 -0.0888
 6607W        W10671   8.474   4.545   2.288 -0.2379  0.0897 -0.0826
 6608W        W10672   6.221   1.812  10.856  0.1173  0.2028 -0.3502
 6609W        W10673   1.161   1.338   8.179  0.0817  0.1385  0.0300
 6610W        W10674   1.998   3.967   8.996  0.4463  0.0888 -0.0790
 6611W        W10675   1.591   3.927  10.772  0.1555 -0.8163  0.1979
 6612W        W10676   1.625   7.384   1.304 -0.0194  0.0520 -0.0144
 6613W        W10677   1.757   0.279   8.438  0.0255  0.0550  0.1006
 6614W        W10678   5.535   7.989  10.510 -0.2591 -0.0221 -0.1345
 6615W        W10679   1.777   0.519  10.254  0.3111 -0.1514 -0.3318
 6616W        W10680   6.665   5.170   7.967  0.0499 -0.0803 -0.1554
 6617W        W10681   0.579  10.582   9.162  0.0534 -0.3298  0.5828
 6618W        W10682   3.076   7.834   0.520  0.1628 -0.0876 -0.1464
 6619W        W10683   6.832   7.571  10.202 -0.3228 -0.2488  0.1440
 6620W        W10684  10.504   6.860   1.243 -0.0200 -0.0500 -0.4794
 6621W        W10685  10.235   0.805   1.094  0.0509 -0.1646  0.1414
 6622W        W10686   0.591   1.083   2.066  0.1024  0.0188 -0.1749
 6623W        W10687   9.493   5.827   2.356 -0.2385 -0.0984  0.1049
 6624W        W10688   3.139   8.597   1.171  0.2494  0.1126  0.2554
 6625W        W10689   9.097  10.047   9.061  0.2907 -0.2424  0.0806
 6626W        W10690   2.310   9.173   0.153  0.1169 -0.0967 -0.0540
 6627W        W10691   2.197   8.500   2.504  0.1387 -0.0849  0.3108
 6628W        W10692   7.915   1.138   2.441  0.0705  0.0479  0.2247
 6629W        W10693   5.219   8.443   7.589 -0.2839  0.0059  0.0000
 6630W        W10694   8.331   8.810   6.740  0.2415  0.0751 -0.4404
 6631W        W10695   2.581   7.619   7.553 -0.1171 -0.0206  0.2451
 6632W        W10696   8.609  10.010   9.008  0.1282  0.0270 -0.2008
 6633W        W10697   6.473   1.602   2.312 -0.2956 -0.4559 -0.0486
 6634W        W10698   0.288   7.984   3.144  0.1768  0.0172 -0.3780
 6635W        W10699   8.289   3.638   0.718  0.1622 -0.1141  0.1170
 6636W        W10700   2.588   2.593   0.796  0.0290 -0.0236  0.0876
 6637W        W10701   2.500  10.705  10.017 -0.3959  0.4704  0.3562
 6638W        W10702   6.606   0.838  10.666  0.2673 -0.0206  0.3950
 6639W        W10703   1.268   8.452   1.369 -0.0719 -0.0976 -0.0606
 6640W        W10704   7.567   9.628   9.718 -0.3186 -0.0815  0.0978
 6641W        W10705   1.842   6.045  10.402 -0.0673 -0.1262 -0.2289
 6642W        W10706   8.206   5.366   8.497  0.1280  0.2478  0.0711
 6643W        W10707   1.935  10.665   2.276  0.0069 -0.0400  0.2672
 6644W        W10708   9.565   3.497   1.217 -0.2937  0.0914  0.3620
 6645W        W10709   2.064   4.706   1.938 -0.3315 -0.0159 -0.2674
 6646W        W10710  10.724   1.075   7.861  0.0750  0.0856  0.3528
 6647W        W10711   0.104   2.810   8.508  0.1410  0.0016 -0.0813
 6648W        W10712   0.227   5.470   0.422  0.1232  0.2472 -0.2142
 6649W        W10713   8.247   1.805  10.092  0.0087 -0.0468  0.1691
 6650W        W10714   6.737   1.804   0.281 -0.0017 -0.1735 -0.0165
 6651W        W10715   3.999   9.141   0.064  0.1224  0.0675 -0.1621
 6652W        W10716   5.855   5.409  10.795  0.2229 -0.2126 -0.0616
 6653W        W10717   0.648   9.997   9.015  0.0981  0.2502  0.1619
 6654W        W10718   6.460   9.536   9.470  0.0575 -0.3378 -0.1560
 6655W        W10719   5.266   6.736  10.193  0.2549  0.3594  0.1786
 6656W        W10720   4.855   5.340   9.451  0.1510  0.0740 -0.0698
 6657W        W10721   3.096   8.341  10.662 -0.1759 -0.1380  0.0133
 6658W        W10722   1.191   3.815   1.962 -0.2456 -0.0219  0.1017
 6659W        W10723   2.836  10.459   7.943 -0.3510 -0.3979  0.1326
 6660W        W10724  10.352   4.097  10.988 -0.3762  0.2659 -0.1035
 6661W        W10725   4.168   6.339   2.038  0.2899 -0.1732 -0.3251
 6662W        W10726  10.051   2.241   9.560 -0.0498  0.0382 -0.0692
 6663W        W10727   4.509   9.376   3.406  0.0536 -0.1271  0.0162
 6664W        W10728   7.308   3.245   8.112 -0.0736 -0.1804 -0.0151
 6665W        W10729   8.766  10.562   8.268 -0.0304 -0.0876  0.0146
 6666W        W10730   3.100   8.466   1.765 -0.0949 -0.0355  0.0661
 6667W        W10731   7.520   2.631   1.438 -0.0198 -0.0987  0.0669
 6668W        W10732   4.084   2.134  10.948  0.3613 -0.1678 -0.1142
 6669W        W10733   7.347   0.979   8.017 -0.1302 -0.0147 -0.1870
 6670W        W10734   1.413   2.662   2.607  0.2890  0.0115 -0.0433
 6671W        W10735   6.311   9.699   7.045  0.0303  0.1081 -0.0704
 6672W        W10736   2.345   0.972   1.708  0.0208 -0.3374  0.0531
 6673W        W10737   7.534   6.790   7.441  0.0698 -0.0927 -0.0246
 6674W        W10738   1.222   2.886   0.968 -0.3606 -0.3977 -0.0101
 6675W        W10739   2.549   6.497  10.010 -0.2981 -0.1094  0.1566
 6676W        W10740   4.791   6.075   2.971  0.2853 -0.4366  0.3535
 6677W        W10741   0.408   2.955  10.346  0.0580  0.1840  0.0979
 6678W        W10742   9.284   5.789  11.093  0.3222 -0.0487 -0.0665
 6679W        W10743   3.329   7.533   9.180  0.3905  0.4092  0.2066
 6680W        W10744   6.440   0.413  10.891  0.1768 -0.1556 -0.0192
 6681W        W10745   1.689  10.312  10.314 -0.0453  0.0906  0.2641
 6682W        W10746   4.209   0.102   2.868  0.4272  0.0376  0.6826
 6683W        W10747   2.503   7.993  11.221  0.3794  0.0033  0.0319
 6684W        W10748   5.185   7.016   3.902 -0.0252 -0.3895  0.0109
 6685W        W10749   3.013  10.655   9.945  0.1565  0.1507  0.2647
 6686W        W10750   1.926   3.964   2.586  0.0883 -0.2014  0.2577
 6687W        W10751   0.367   6.836   3.235 -0.0444  0.0821 -0.1845
 6688W        W10752   4.999   5.697  11.209 -0.0888  0.0231 -0.2155
 6689W        W10753   4.861   4.158   1.019  0.1986 -0.0377  0.2522
 6690W        W10754   7.630   7.976   8.826 -0.1533 -0.3443  0.0077
 6691W        W10755   8.557  10.193   7.645 -0.1178  0.0009 -0.0942
 6692W        W10756   7.535  10.024   1.501  0.1115  0.1889  0.1723
 6693W        W10757   4.257   1.032   1.320  0.1853  0.0648  0.2006
 6694W        W10758   0.120   1.379   2.879  0.0672  0.2285 -0.0173
 6695W        W10759   5.904   0.953   7.226 -0.0198 -0.3051  0.1060
 6696W        W10760   1.428   4.411  10.796  0.2131 -0.0277 -0.1296
 6697W        W10761   1.119  10.669   3.353 -0.0327  0.3610  0.0263
 6698W        W10762   6.119   0.587  10.494  0.0857  0.0942 -0.0462
 6699W        W10763   3.941   7.512  11.250 -0.1617 -0.0768 -0.1053
 6700W        W10764   4.829   4.798   2.705  0.0104 -0.0228  0.3483
 6701W        W10765   4.886   4.311   2.529 -0.0190  0.0631 -0.2020
 6702W        W10766   8.867   8.810   9.176 -0.0277 -0.2123 -0.0513
 6703W        W10767   0.773   8.191   3.073 -0.1372 -0.2088 -0.0449
 6704W        W10768   8.180   1.956   0.535  0.1092  0.2089 -0.2571
 6705W        W10769   2.153   7.426   9.938  0.0033  0.2719 -0.3802
 6706W        W10770   9.328   4.519   8.138  0.0661 -0.0989  0.1224
 6707W        W10771   5.278   1.448   2.790  0.0205 -0.2084  0.0637
 6708W        W10772   0.462   4.805   1.989  0.1911  0.3097 -0.1013
 6709W        W10773   2.860   9.235   0.003  0.1389  0.3562 -0.0829
 6710W        W10774   2.045   0.553   1.539 -0.2020 -0.4044  0.0617
 6711W        W10775   9.080   7.924   1.013 -0.0470  0.1333 -0.1678
 6712W        W10776   9.401   3.459  10.563 -0.0977  0.0332 -0.4162
 6713W        W10777   1.262   6.769  10.493  0.1261  0.1039  0.1234
 6714W        W10778   0.665   7.634   2.218 -0.0579 -0.1745  0.0602
 6715W        W10779   6.145   2.793   2.356 -0.2498  0.3222  0.4190
 6716W        W10780  10.441   9.770   1.482 -0.1674  0.1908  0.1595
 6717W        W10781   3.813   3.779   1.914  0.2481  0.0863 -0.0402
 6718W        W10782   8.048   3.916  10.479  0.0999 -0.0002 -0.1321
 6719W        W10783   3.910   1.165   8.436 -0.2390  0.1958 -0.1942
 6720W        W10784   6.208   1.771   1.287 -0.1894 -0.1492  0.0464
 6721W        W10785   8.837   5.743   9.412  0.0025 -0.1492 -0.0005
 6722W        W10786   7.603   4.643   7.534 -0.2065 -0.0747 -0.0990
 6723W        W10787   9.854   6.864   9.137  0.2836 -0.0370  0.0962
 6724W        W10788   9.916   1.355   1.560 -0.0010  0.2525 -0.2173
 6725W        W10789   2.511   7.723   2.654 -0.3611  0.3534 -0.3332
 6726W        W10790   9.956   7.761   1.445  0.2204  0.0615  0.0173
 6727W        W10791   0.759   4.694   0.477  0.1094 -0.1013  0.1100
 6728W        W10792   0.529   0.613   8.490  0.0382  0.4150 -0.0876
 6729W        W10793   4.744   2.040   3.250  0.2722 -0.0755 -0.2083
 6730W        W10794   2.284   3.770   0.642  0.1077  0.1658 -0.0476
 6731W        W10795   2.132   0.071   1.423  0.1775  0.1389  0.1597
 6732W        W10796   4.779   2.264   7.287  0.0705 -0.1262  0.1154
 6733W        W10797   3.583   2.934  10.891 -0.6148 -0.0195  0.1619
 6734W        W10798   0.182   1.137   2.359 -0.2385 -0.1939 -0.1609
 6735W        W10799   8.826   7.395   7.391  0.0526  0.2656 -0.3239
 6736W        W10800   8.664   0.039   0.725 -0.0309  0.0665  0.3451
 6737W        W10801   2.604   5.664  10.181  0.4227 -0.3599  0.0481
 6738W        W10802   4.484   9.898   0.191 -0.2854 -0.0446  0.2309
 6739W        W10803   3.379   3.903   1.350  0.3011  0.2785  0.0887
 6740W        W10804   4.029   3.121   9.963  0.2217  0.0384 -0.2273
 6741W        W10805   3.750   1.155   9.391 -0.3226  0.0836 -0.0621
 6742W        W10806   1.909   9.212  11.195 -0.3156 -0.1246 -0.1488
 6743W        W10807   8.081   5.007   2.650 -0.0383 -0.0651  0.1363
 6744W        W10808   8.817   8.984   0.849 -0.1851 -0.2880 -0.2848
 6745W        W10809   7.395   5.802   8.336 -0.0105  0.2455  0.0470
 6746W        W10810   6.844   1.560   1.985 -0.0520 -0.1572  0.2743
 6747W        W10811   0.404   7.524   0.109 -0.2798 -0.0464 -0.2302
 6748W        W10812   4.979   0.296   8.590 -0.2539 -0.1880 -0.0063
 6749W        W10813   1.054   0.958   2.004 -0.1698 -0.1108 -0.0508
 6750W        W10814   9.592   8.795  10.491 -0.0282  0.1890 -0.1991
 6751W        W10815   9.946   7.237   8.834  0.0753 -0.5221 -0.2274
 6752W        W10816   5.052   5.841   8.077 -0.2560  0.2105  0.1522
 6753W        W10817   6.709   3.342  10.770 -0.2346  0.0713 -0.1559
 6754W        W10818   5.701   5.610   8.023  0.2005  0.4210  0.2525
 6755W        W10819   1.420   3.784   1.180 -0.2776  0.3015 -0.1874
 6756W        W10820   2.685   2.434   0.317  0.1957  0.0512  0.2393
 6757W        W10821   5.895  10.278   8.576 -0.0220 -0.0431 -0.2115
 6758W        W10822   1.511   6.227  10.852 -0.1462  0.1695 -0.0038
 6759W        W10823   9.686   8.841   2.664  0.1374 -0.0701 -0.1616
 6760W        W10824   5.520   8.542   8.031 -0.0327  0.1845 -0.2308
 6761W        W10825   3.947   8.284   1.098 -0.1265  0.1086 -0.0591
 6762W        W10826   1.670   7.614   0.811  0.0790  0.1655 -0.1177
 6763W        W10827   7.074   6.033   0.166  0.0631 -0.0466  0.0761
 6764W        W10828   9.654   1.860   3.037  0.4006  0.0472 -0.0644
 6765W        W10829   1.080   5.795   9.688  0.1980 -0.1357  0.0922
 6766W        W10830   2.308   7.977  10.366  0.0716  0.5003  0.0512
 6767W        W10831   1.269   9.612   0.769  0.0687 -0.1618  0.0836
 6768W        W10832   7.231   0.044   0.544  0.0568 -0.2796  0.3291
 6769W        W10833   3.685   1.732  10.837 -0.1884  0.3649  0.3753
 6770W        W10834   6.069   1.383   1.561 -0.2974  0.0562 -0.0471
 6771W        W10835   1.319   1.261   6.952  0.1190  0.0565  0.1565
 6772W        W10836   2.689   3.851   9.534 -0.0636  0.2221  0.1383
 6773W        W10837   9.144   5.482   9.108 -0.0575  0.0142 -0.2586
 6774W        W10838   3.303   7.856   3.060 -0.2945 -0.1057  0.0418
 6775W        W10839   0.277   8.488   3.234 -0.2692 -0.2749 -0.1164
 6776W        W10840  10.028   8.094   9.576 -0.0701  0.4779  0.0688
 6777W        W10841   4.051   9.599   0.313 -0.4591 -0.2648  0.1435
 6778W        W10842   5.023   1.587   9.258  0.1481  0.1399  0.3284
 6779W        W10843   6.944   6.413   2.452  0.1728 -0.2324  0.0022
 6780W        W10844   5.891   1.450   0.179  0.0921  0.0786 -0.2645
 6781W        W10845   1.023   5.162   8.514  0.2388 -0.3113  0.2881
 6782W        W10846   0.915   0.285   0.958  0.0194 -0.1664 -0.3488
 6783W        W10847   8.431   4.955   9.249 -0.3005 -0.0951  0.2717
 6784W        W10848   4.509   2.528   1.692  0.1425 -0.2283  0.1314
 6785W        W10849   6.942   8.515   8.920  0.1675 -0.1352 -0.3587
 6786W        W10850   9.233   4.173   1.951  0.1990  0.0109 -0.0189
 6787W        W10851   6.909   3.632   2.681 -0.1355  0.2425 -0.0983
 6788W        W10852   2.310   5.258   3.516  0.0788  0.1408 -0.1817
 6789W        W10853   9.445   4.092  10.166 -0.2074 -0.0761 -0.0269
 6790W        W10854   1.968   4.283   2.205  0.1771  0.3076 -0.0442
 6791W        W10855   2.240   7.063   8.385 -0.4008  0.1439  0.1294
 6792W        W10856   9.560   5.690  10.358  0.2838 -0.1692 -0.0114
 6793W        W10857   4.577   6.458   9.388 -0.2449  0.3862 -0.0362
 6794W        W10858   9.987   4.994   9.673  0.1030 -0.2662 -0.0985
 6795W        W10859   7.446   1.563   8.462 -0.0254  0.0136  0.2083
 6796W        W10860   5.424  10.706   9.139 -0.0764  0.0318  0.4080
 6797W        W10861   5.062   1.538   2.191  0.1069 -0.3829 -0.1436
 6798W        W10862   0.672   4.909   8.997 -0.1091 -0.0447 -0.2317
 6799W        W10863   4.865   7.700   8.019 -0.4309 -0.1807 -0.1078
 6800W        W10864   4.747   4.914   8.668 -0.1581 -0.0685 -0.1819
 6801W        W10865   7.988   8.740   1.891  0.0441  0.2620  0.2975
 6802W        W10866   6.937  10.117   7.322  0.1485  0.0887  0.0942
 6803W        W10867   8.070   7.761   1.400 -0.1759 -0.1202 -0.0764
 6804W        W10868  10.486   3.165   2.419  0.3127  0.0969  0.1435
 6805W        W10869   2.897   1.358  11.174  0.2708  0.1539  0.0512
 6806W        W10870   1.116   9.926   1.625 -0.2300 -0.3071  0.0155
 6807W        W10871   9.536   3.079   2.831  0.1215 -0.0803 -0.4049
 6808W        W10872   3.974   0.657  10.901  0.4875 -0.1782  0.0740
 6809W        W10873  10.379   5.913   1.845 -0.1666  0.2639 -0.0344
 6810W        W10874   5.971   5.603   2.459 -0.1665  0.1665 -0.1795
 6811W        W10875   1.742   7.533  11.308  0.1033  0.0656 -0.1775
 6812W        W10876   9.006   1.432   9.679  0.0646  0.2849  0.0782
 6813W        W10877   7.880   4.437   0.856 -0.0348 -0.2925  0.0325
 6814W        W10878   3.834   4.351   0.649 -0.3242 -0.0786  0.1608
 6815W        W10879   0.397   4.973   0.356 -0.2628  0.3321  0.4539
 6816W        W10880   5.026   2.367   2.273 -0.1000 -0.1351  0.0905
 6817W        W10881   6.620   3.906   8.026 -0.0617 -0.0633  0.0555
 6818W        W10882   0.720   2.975   0.736  0.0155  0.2704 -0.0580
 6819W        W10883  10.601   0.472   0.707 -0.0246  0.1732 -0.0428
 6820W        W10884   7.035   3.157   0.365  0.0499  0.1908  0.2031
 6821W        W10885   4.129  10.411   7.020 -0.1992  0.0153  0.0076
 6822W        W10886   7.920   3.138   9.790 -0.0440 -0.2061  0.0380
 6823W        W10887   2.462   7.693   1.911 -0.0020  0.1478 -0.4002
 6824W        W10888   5.590   1.665   7.081  0.0474 -0.1593 -0.0415
 6825W        W10889   9.577   2.634   0.812  0.0330 -0.2679  0.0564
 6826W        W10890   2.687   8.699   0.756 -0.1044 -0.0282  0.1115
 6827W        W10891   6.470   5.399   1.448 -0.1155 -0.2392  0.0832
 6828W        W10892   0.502   9.440   1.009 -0.0220 -0.1409  0.2028
 6829W        W10893   2.234   2.930   9.361  0.3491 -0.1400 -0.0692
 6830W        W10894   4.632   1.785  10.876 -0.0119  0.0741 -0.1622
 6831W        W10895   2.916   6.566  10.327 -0.0389  0.0284 -0.3287
 6832W        W10896   8.008   9.498   3.593  0.2276 -0.2592  0.1801
 6833W        W10897   9.268   6.563   0.332 -0.2803  0.1747  0.0023
 6834W        W10898   3.753   8.799   3.860 -0.0676 -0.0779 -0.0735
 6835W        W10899   8.294  10.148   8.624  0.0866  0.0904 -0.3550
 6836W        W10900   5.532   9.435   0.889 -0.3053 -0.0955 -0.3482
 6837W        W10901   7.615   9.581   1.251  0.0447 -0.4092 -0.4189
 6838W        W10902   5.422   1.077   0.396  0.1389 -0.2437 -0.0855
 6839W        W10903   8.480   8.843  10.397 -0.0262  0.1354  0.0364
 6840W        W10904   4.038   9.380   2.230 -0.0719 -0.3427  0.1934
 6841W        W10905   3.389   5.855   1.115 -0.2655  0.1913  0.1522
 6842W        W10906   3.879   5.504   8.571 -0.2794  0.0481 -0.0517
 6843W        W10907   4.248   8.035   3.177 -0.1204 -0.1997  0.0976
 6844W        W10908   2.686   1.605   0.516  0.2039 -0.0628  0.0041
 6845W        W10909   3.260  10.141   8.890  0.1756 -0.1271  0.0661
 6846W        W10910   4.502   2.358   2.253 -0.0889 -0.2470  0.0979
 6847W        W10911   0.284   2.287   9.204 -0.1371  0.2198 -0.0376
 6848W        W10912   8.394   8.252   9.774  0.2506 -0.1169  0.2004
 6849W        W10913   9.919   8.876   3.830 -0.1221  0.2805 -0.2954
 6850W        W10914   4.854   7.198   7.923 -0.2053 -0.1005  0.1063
 6851W        W10915   8.620   6.228   8.644  0.0048 -0.2054  0.0691
 6852W        W10916   8.954   0.099   9.712 -0.1138  0.1118  0.1931
 6853W        W10917   1.267   7.302   0.761 -0.0122 -0.2646  0.0820
 6854W        W10918   1.057   0.612   9.479  0.2015  0.2099  0.1988
 6855W        W10919   7.809   4.700   1.691  0.0754 -0.1732  0.1216
 6856W        W10920   4.652  10.504   7.256  0.0398  0.1426 -0.0038
 6857W        W10921   1.062   7.282   2.253  0.1103 -0.3581  0.1713
 6858W        W10922  10.273   5.616   0.604 -0.2177 -0.1677  0.0976
 6859W        W10923   2.892   3.169   2.284  0.2022  0.1793  0.0153
 6860W        W10924   8.240   6.117   3.314  0.3222  0.1239 -0.0969
 6861W        W10925   2.999   1.578   9.176  0.4128 -0.0323 -0.2482
 6862W        W10926   3.935  10.381   8.222 -0.1311  0.1509  0.2557
 6863W        W10927   9.340   7.733   3.604 -0.0839 -0.0358 -0.0324
 6864W        W10928   2.376   1.683   2.260  0.2061 -0.2068 -0.1120
 6865W        W10929   9.332   0.445   0.060  0.0687  0.4316 -0.1021
 6866W        W10930  10.618   3.771   1.432  0.2515 -0.3518 -0.2702
 6867W        W10931   9.309   3.739   2.370  0.0209  0.1837 -0.0230
 6868W        W10932   6.952   4.538   3.008 -0.0355  0.0700 -0.1008
 6869W        W10933   6.355   8.338   1.958 -0.1270  0.4814  0.1971
 6870W        W10934   9.187  10.109   3.086  0.0361  0.1871  0.2042
 6871W        W10935   3.388   0.565   1.338 -0.0536 -0.2267  0.0891
 6872W        W10936   6.362   7.276   2.893 -0.0358  0.0735 -0.0799
 6873W        W10937   9.453   3.019   1.095  0.0464 -0.1402  0.0349
 6874W        W10938   7.117   0.516   9.255 -0.1562  0.0171  0.1592
 6875W        W10939   8.720   1.331  10.326 -0.0340  0.2042 -0.1776
 6876W        W10940   0.309   4.135   3.328  0.0266 -0.3832 -0.0367
 6877W        W10941   0.676   3.866   1.698  0.2335 -0.0698  0.2764
 6878W        W10942   2.035   9.357  10.684 -0.1634 -0.2001  0.4067
 6879W        W10943   9.631   5.483   0.012  0.4021 -0.2084 -0.0826
 6880W        W10944   3.070   9.499   8.077  0.2488  0.1411  0.1369
 6881W        W10945   5.555  10.038  10.175  0.2007  0.1118  0.0972
 6882W        W10946   7.115   1.152   1.623 -0.2444 -0.1744 -0.2463
 6883W        W10947   4.431   9.263   2.730 -0.0381 -0.2002  0.2494
 6884W        W10948   0.721   7.788   3.370  0.0940 -0.1004 -0.0381
 6885W        W10949   1.131   4.889  10.683 -0.0112 -0.4095  0.1834
 6886W        W10950   6.280   1.982   8.445  0.1494  0.0718 -0.1803
 6887W        W10951   3.099   7.330   2.093  0.3299 -0.5581  0.0251
 6888W        W10952  10.379   4.295   8.063  0.1703  0.0266 -0.0117
 6889W        W10953   7.566   4.173   2.442  0.3274 -0.3173  0.1327
 6890W        W10954   6.147   3.394   1.012  0.2878 -0.1868 -0.2778
 6891W        W10955   4.429   6.915   3.942  0.4286 -0.1435 -0.0190
 6892W        W10956   7.684   5.585   2.094 -0.0345  0.4522  0.2870
 6893W        W10957  10.076   1.715   2.807 -0.3806  0.4839  0.0875
 6894W        W10958   2.112   7.978  10.797 -0.3689 -0.0632 -0.0141
 6895W        W10959   5.486   6.695   0.990  0.0508 -0.0011  0.0019
 6896W        W10960   3.308   4.345   3.220  0.2462  0.1470  0.0927
 6897W        W10961   2.307   8.351   0.171  0.0178  0.1281  0.0624
 6898W        W10962   3.011   1.183  10.305 -0.3507  0.0950  0.0782
 6899W        W10963   0.878  10.522  10.786  0.0891  0.1096  0.0891
 6900W        W10964   0.382   4.673   8.197 -0.0415  0.1179 -0.0105
 6901W        W10965   2.068   6.214   9.949  0.0480  0.0320  0.1567
 6902W        W10966  10.517   1.917  10.427  0.1790 -0.2854 -0.1255
 6903W        W10967   8.986   2.028   7.537 -0.1626 -0.3171  0.2060
 6904W        W10968   8.836  10.392   0.965 -0.2082  0.1496  0.0023
 6905W        W10969   4.121  10.706   2.320  0.0572 -0.1577 -0.1224
 6906W        W10970   2.542   1.320  10.506  0.0964 -0.0624 -0.1557
 6907W        W10971   7.105   4.010   2.231  0.0358 -0.3627  0.2516
 6908W        W10972  10.162   7.313   1.107 -0.2253  0.2103 -0.1308
 6909W        W10973   2.324   8.457  11.059  0.0164 -0.0522 -0.1510
 6910W        W10974   6.265   6.233   1.772  0.1932 -0.1845 -0.1590
 6911W        W10975   0.184   4.419   0.471  0.2341 -0.0342  0.1391
 6912W        W10976   3.314   0.323  10.175  0.4364  0.1406  0.0051
 6913W        W10977   7.007   3.738   8.448  0.2035  0.0716 -0.0191
 6914W        W10978   7.286   5.802   9.604  0.0887  0.1309  0.1328
 6915W        W10979   1.048   0.596   8.959  0.0394  0.0671  0.0070
 6916W        W10980  10.417   3.857  10.270  0.3481  0.0205  0.0675
 6917W        W10981   7.685   3.599   1.561 -0.0993  0.2262  0.3356
 6918W        W10982   3.612   8.670   1.920 -0.0956  0.0972  0.0118
 6919W        W10983   8.428   5.288   7.780  0.0276 -0.0312  0.0930
 6920W        W10984   0.825   6.404  10.224  0.1995  0.0260  0.0224
 6921W        W10985   0.249   9.632   9.621  0.0067 -0.1346 -0.0283
 6922W        W10986   7.979   7.146   8.558 -0.3171  0.1380  0.1586
 6923W        W10987   0.516   7.373   1.440  0.0847 -0.0413  0.4529
 6924W        W10988   1.386   0.483   0.802 -0.1304  0.1755  0.0136
 6925W        W10989  10.660   3.411  11.152 -0.0653 -0.4334 -0.3790
 6926W        W10990   2.738   8.899   3.034 -0.0323  0.3043 -0.3351
 6927W        W10991   6.418   4.472   0.280  0.1003  0.0513 -0.0894
 6928W        W10992   1.138   7.780   0.674 -0.0986  0.1906  0.2123
 6929W        W10993   3.909   2.970   9.009 -0.1766 -0.0880  0.0167
 6930W        W10994   9.316   6.109   0.172 -0.3813  0.1525 -0.2889
 6931W        W10995   2.260  10.308  11.123 -0.2297 -0.0637 -0.0707
 6932W        W10996   3.121  10.044  10.094 -0.2193 -0.3710  0.0842
 6933W        W10997   7.853   9.091   8.942 -0.1928 -0.0497 -0.0773
 6934W        W10998   7.175   3.695  10.148  0.3942 -0.0421  0.3399
 6935W        W10999   4.294   6.718   9.739 -0.3035  0.2037  0.0807
 6936W        W11000   8.782   3.004  10.036 -0.1114  0.2850 -0.1222
 6937W        W11001   7.520   8.592   9.779 -0.4398  0.2810 -0.0460
 6938W        W11002   3.034   8.086   0.018  0.0058  0.0738 -0.3215
 6939W        W11003   0.450  10.436  11.059 -0.3920 -0.1600 -0.0219
 6940W        W11004   6.255   9.880  10.636  0.0150 -0.1396  0.0438
 6941W        W11005  10.628   9.122   3.294 -0.0912 -0.0627 -0.1798
 6942W        W11006   8.554   1.402   9.886 -0.2017 -0.4921 -0.2679
 6943W        W11007   8.792   6.933   8.258 -0.0715  0.3005  0.1051
 6944W        W11008   7.396   4.203   9.585  0.0134 -0.0858  0.2603
 6945W        W11009   5.082   9.042   8.497  0.1217 -0.3891 -0.0822
 6946W        W11010   4.096   0.295   7.436  0.1444  0.0368  0.2821
 6947W        W11011  10.516   9.113   2.472  0.2733  0.1873  0.0420
 6948W        W11012   8.480   0.712   7.210 -0.0357 -0.3612 -0.0125
 6949W        W11013   0.194   9.239  10.795 -0.1036  0.4129 -0.1476
 6950W        W11014   0.810   6.186   0.710  0.2142 -0.3825  0.1553
 6951W        W11015   1.686   9.348   8.186  0.3377 -0.1024 -0.0391
 6952W        W11016   8.510   6.213  10.571  0.4338  0.1520 -0.1876
 6953W        W11017   0.148   9.491   7.892 -0.0631  0.0191 -0.1726
 6954W        W11018   9.267   8.447  10.690  0.2052  0.2930  0.0784
 6955W        W11019   9.866   1.727   0.007  0.0343  0.1482 -0.0282
 6956W        W11020   6.396   6.167   2.343  0.4169  0.1283  0.0217
 6957W        W11021   0.409  10.696   2.737 -0.2543  0.0389  0.1008
 6958W        W11022   5.594   6.849   7.602 -0.0078  0.2946 -0.3107
 6959W        W11023   9.857   8.596  10.109  0.0888  0.1038  0.0827
 6960W        W11024   4.802   8.489   9.718 -0.3744  0.0308 -0.2928
 6961W        W11025   6.792   0.956   9.275  0.0138 -0.2782 -0.0693
 6962W        W11026   4.210   3.459   8.066 -0.0922 -0.0612  0.1336
 6963W        W11027   8.924   3.872   9.796 -0.0562 -0.2132 -0.1344
 6964W        W11028   0.920   6.246   8.712  0.0488 -0.0309 -0.3954
 6965W        W11029   7.865  10.366   8.720  0.1677  0.0234 -0.1636
 6966W        W11030   8.293   8.636   9.529  0.1105 -0.1657  0.2914
 6967W        W11031   0.262   9.696  10.570 -0.2894  0.0721 -0.0099
 6968W        W11032   9.626   2.603  10.153  0.2240 -0.0873  0.2782
 6969W        W11033   5.686   2.060   2.505  0.2139  0.0097 -0.0502
 6970W        W11034   8.950   1.048  10.006  0.0397 -0.0337  0.2493
 6971W        W11035   7.180   7.710  11.198 -0.4274  0.1225  0.0423
 6972W        W11036  10.368   2.809   8.758 -0.2532  0.1883 -0.1874
 6973W        W11037   0.005   6.040   1.307 -0.1093 -0.0778 -0.0081
 6974W        W11038   8.745   3.102   0.314  0.1350 -0.2439  0.0134
 6975W        W11039  10.720   0.576   1.722 -0.1004 -0.1897  0.0744
 6976W        W11040   7.164   5.312   2.042  0.0962 -0.1337  0.2079
 6977W        W11041   2.030   0.321   8.861 -0.0493 -0.0319  0.1645
 6978W        W11042  10.564   1.787   7.596 -0.0571 -0.0286 -0.2117
 6979W        W11043   9.520   9.797   2.288 -0.0668  0.1765  0.0526
 6980W        W11044   1.047   0.459   8.388  0.0173  0.0302  0.3553
 6981W        W11045   7.973   0.602   1.385 -0.0383 -0.0946 -0.1750
 6982W        W11046   9.451   6.708   8.832 -0.2762 -0.0703 -0.2230
 6983W        W11047   1.234   6.158   0.289 -0.2208  0.2513 -0.2913
 6984W        W11048  10.681  10.585  11.379  0.0207 -0.2845 -0.0435
 6985W        W11049   1.275   1.546   0.794 -0.2446  0.1683 -0.0547
 6986W        W11050   9.560   2.744   3.227 -0.0646  0.0563 -0.0729
 6987W        W11051   6.091   3.786   2.501  0.0038  0.0082  0.0849
 6988W        W11052   1.631   6.457   0.363 -0.0803  0.1406  0.0123
 6989W        W11053   3.276   7.940   7.089 -0.1151  0.0342  0.3192
 6990W        W11054   7.591   8.528   7.374 -0.2201  0.2023 -0.2029
 6991W        W11055  10.249   5.872   1.049 -0.1265  0.0030 -0.0472
 6992W        W11056   9.815   1.247   1.082  0.2901  0.3425  0.0468
 6993W        W11057   7.241  10.693   8.720  0.2484 -0.3889 -0.1912
 6994W        W11058   6.858   2.206  10.643 -0.2814  0.0617  0.1293
 6995W        W11059   5.391   6.208   0.962  0.2666  0.1703  0.3207
 6996W        W11060   7.953   7.339   0.558 -0.1512 -0.0374  0.1093
 6997W        W11061   4.423   2.498  10.819  0.0518 -0.1404  0.1463
 6998W        W11062   2.255   0.428   1.074  0.1935  0.1815 -0.1946
 6999W        W11063   0.651   5.707   0.479 -0.1581 -0.1311  0.0861
 7000W        W11064   8.904   7.682   0.316  0.0006 -0.2590  0.1947
 7001W        W11065   8.391   1.802   9.152  0.5976  0.0510 -0.0361
 7002W        W11066   4.650   7.103   8.742  0.0199 -0.1089  0.0511
 7003W        W11067  10.334  10.280   8.714 -0.0409 -0.1303  0.0903
 7004W        W11068   7.731   6.691   2.772 -0.0157  0.0541  0.0359
 7005W        W11069  10.713   5.739   0.857 -0.1406  0.2430  0.1919
 7006W        W11070   0.028   9.959   2.319 -0.2586 -0.0250 -0.2422
 7007W        W11071   0.929   3.781   2.774 -0.0431 -0.0058 -0.2225
 7008W        W11072   2.802   6.091  10.341  0.3472  0.1106 -0.1900
 7009W        W11073   4.492   2.603   3.150 -0.0031 -0.3600 -0.2962
 7010W        W11074   9.487   1.631   9.745 -0.0560 -0.1540 -0.0635
 7011W        W11075   5.433   9.480   2.834  0.0146  0.2106  0.4498
 7012W        W11076   0.513   4.236  10.774 -0.0396  0.0464 -0.1654
 7013W        W11077   5.648  10.520   6.959  0.1209  0.2852  0.2175
 7014W        W11078  10.663   1.823   3.088 -0.1699 -0.0026  0.1238
 7015W        W11079   6.938   1.445   9.234  0.0724  0.0762  0.0321
 7016W        W11080   2.249   9.272   2.256  0.0220 -0.1712  0.0936
 7017W        W11081   3.867   3.227   7.330  0.0216 -0.0080  0.0356
 7018W        W11082   3.345  10.270   1.385  0.0543 -0.0082  0.1215
 7019W        W11083   5.916   9.507   2.597  0.1572  0.3869  0.0397
 7020W        W11084  10.229  10.282   1.594 -0.3532 -0.1863 -0.2476
 7021W        W11085  10.339   2.035   0.074  0.2777  0.1497  0.2685
 7022W        W11086   1.398   5.253   1.832 -0.0099  0.5902  0.0210
 7023W        W11087   9.406   6.992  10.999  0.1561  0.4979 -0.2070
 7024W        W11088   3.070   2.570   8.717 -0.0401 -0.1277 -0.1210
 7025W        W11089   4.236   5.291   1.388 -0.3180  0.1444  0.0106
 7026W        W11090  10.317   0.979   9.560 -0.0464 -0.0744  0.1423
 7027W        W11091   2.127   3.311   0.416  0.3285  0.3307  0.1090
 7028W        W11092   0.148   2.051   9.613  0.3549  0.1724  0.1347
 7029W        W11093   1.103   5.847  10.248 -0.0685 -0.2937  0.2315
 7030W        W11094   5.326   2.770   1.785  0.1421 -0.1467  0.0654
 7031W        W11095   9.010   5.986   2.330 -0.4982 -0.0683 -0.0341
 7032W        W11096   4.144   8.340  10.727 -0.1822 -0.0436 -0.1164
 7033W        W11097   4.731   4.651   9.972 -0.4360 -0.0029  0.0940
 7034W        W11098   6.293   7.900   8.334 -0.2967  0.4274  0.0983
 7035W        W11099   4.260   8.659   8.573 -0.2116  0.0502  0.3599
 7036W        W11100   6.020   2.343   2.118  0.0326  0.0603  0.2574
 7037W        W11101   4.986   8.248   9.250 -0.1204 -0.3144 -0.1585
 7038W        W11102   1.320   2.665   2.072 -0.1626  0.3935  0.2838
 7039W        W11103   8.922   5.622   7.273 -0.0520 -0.0070  0.2378
 7040W        W11104   5.659   2.514   9.097  0.3047  0.5736 -0.0638
 7041W        W11105   4.962   5.157   9.941 -0.2153 -0.1003 -0.2131
 7042W        W11106   1.828   1.223   0.714 -0.1623 -0.0305  0.0130
 7043W        W11107   8.700   8.847   8.656 -0.0479  0.0945  0.3532
 7044W        W11108   9.478   5.269  10.916 -0.0197 -0.2787 -0.0708
 7045W        W11109   8.158   5.535   0.613  0.1718  0.3942  0.0080
 7046W        W11110  10.605   0.530  10.222  0.1701 -0.0404 -0.1358
 7047W        W11111   6.721   5.276  10.785 -0.1202 -0.1570 -0.0447
 7048W        W11112   3.866   7.196   7.733 -0.0443  0.0933 -0.0734
 7049W        W11113   1.203   1.633   8.650 -0.1276  0.2494 -0.2888
 7050W        W11114   1.232  10.391  11.102  0.0717 -0.0285  0.5859
 7051W        W11115   2.671   9.239   0.505 -0.1247 -0.1211 -0.0252
 7052W        W11116   5.903   4.145   1.770  0.1265  0.3613  0.0424
 7053W        W11117   3.897   1.357   1.518 -0.1408  0.0755 -0.2361
 7054W        W11118   1.998  10.339  10.665 -0.1047  0.0585 -0.0645
 7055W        W11119   5.370   4.208   1.262 -0.1379 -0.1626  0.0433
 7056W        W11120   8.726   8.741  10.842  0.1365 -0.3544  0.3307
 7057W        W11121   0.190   2.995   0.835 -0.0118  0.1394  0.4512
 7058W        W11122   9.940   1.509   3.201  0.0377 -0.0529 -0.1120
 7059W        W11123   7.131   3.278  10.397 -0.0375  0.0228  0.2640
 7060W        W11124   3.699   6.858  10.843 -0.0425  0.0377  0.1605
 7061W        W11125   6.905   9.243   0.477 -0.1199  0.2299  0.0465
 7062W        W11126   9.165   7.158   8.003  0.2017  0.0624  0.2776
 7063W        W11127   0.427   9.932   7.615 -0.0418  0.1976 -0.0648
 7064W        W11128   7.540   2.482   0.522  0.2621  0.1341 -0.4240
 7065W        W11129   9.171   3.922   1.131 -0.0581  0.5383  0.1903
 7066W        W11130   9.007   2.091   0.128 -0.0326  0.1051 -0.1517
 7067W        W11131   2.005   4.789  11.297  0.2909  0.0331  0.6226
 7068W        W11132   3.567   0.363  10.685  0.2729  0.1142 -0.1391
 7069W        W11133   0.897   9.263   8.192 -0.1803 -0.0842 -0.0186
 7070W        W11134   0.206   8.554   1.066 -0.1974 -0.2765 -0.0254
 7071W        W11135   3.669   9.525   7.945 -0.0493  0.1391 -0.0855
 7072W        W11136   6.693   8.087   0.899  0.4441  0.4606  0.1933
 7073W        W11137   5.396   2.085   2.092 -0.1383 -0.0052 -0.0761
 7074W        W11138   8.872   4.688   8.428 -0.1688 -0.1881  0.2500
 7075W        W11139   8.741   3.703   9.234 -0.0824 -0.1722  0.0320
 7076W        W11140   6.665   2.379   7.122  0.2218 -0.1372 -0.1394
 7077W        W11141   5.906   8.207   1.336  0.1950 -0.0513  0.1401
 7078W        W11142   5.815   1.771   9.247 -0.0812 -0.0633 -0.0570
 7079W        W11143   9.625   3.387   1.781 -0.2358  0.4209 -0.0508
 7080W        W11144   1.627   7.066   9.642  0.3898  0.1417 -0.0842
 7081W        W11145   9.860   2.210   0.241  0.2998  0.0172 -0.1033
 7082W        W11146   6.439   7.989  10.711 -0.3064 -0.3677 -0.1312
 7083W        W11147   6.856   9.756   8.310  0.1422 -0.3047 -0.0978
 7084W        W11148   9.411   0.920   2.848 -0.1680 -0.1776  0.3308
 7085W        W11149   2.858   4.672   1.339  0.4466  0.0657  0.0014
 7086W        W11150   7.004   9.390  10.778 -0.0981  0.0997 -0.0568
 7087W        W11151   6.813   9.188   7.622  0.2132 -0.1480 -0.2604
 7088W        W11152   7.657   1.242   1.476  0.0026 -0.2552  0.0248
 7089W        W11153   1.965   8.068   7.490 -0.2652 -0.1392 -0.0241
 7090W        W11154   9.992   4.817  10.154 -0.2058 -0.0428 -0.1788
 7091W        W11155   1.323   8.143   2.792 -0.0525 -0.3006 -0.1618
 7092W        W11156   2.361   3.998   8.625  0.2145 -0.0303  0.0715
 7093W        W11157   4.349   3.071   7.148  0.1207  0.0942 -0.1115
 7094W        W11158   0.957   0.968   8.548  0.1847  0.1861  0.3363
 7095W        W11159   9.626   9.106   3.566  0.0536  0.0387  0.0057
 7096W        W11160   8.374   3.743   7.625 -0.2324  0.2732  0.0243
 7097W        W11161   5.683   6.762  10.461 -0.1887  0.1146 -0.0639
 7098W        W11162   7.031   9.191   1.656 -0.2585  0.1863  0.1402
 7099W        W11163   4.581  10.675   8.735 -0.1335 -0.0650  0.2133
 7100W        W11164   0.798   7.280   3.068 -0.0818  0.0962 -0.0163
 7101W        W11165   0.384   7.674   9.197  0.2200 -0.1397  0.2103
 7102W        W11166   4.454  10.252   9.421  0.1353 -0.1429  0.2112
 7103W        W11167   9.589   3.971  10.619  0.2338 -0.1079  0.0116
 7104W        W11168   1.445   1.635   2.716  0.1158  0.2480 -0.0545
 7105W        W11169   2.212   0.525   8.396  0.2675  0.1898  0.0592
 7106W        W11170   5.631   4.085  10.850 -0.0051  0.3018  0.0201
 7107W        W11171   9.652   7.385   7.839  0.3147  0.0550 -0.0951
 7108W        W11172  10.556   4.467   2.602 -0.0773  0.0396  0.0239
 7109W        W11173   5.757   2.830   8.659  0.1654  0.0738  0.0805
 7110W        W11174   0.699   1.870   8.829 -0.0430 -0.0771  0.2349
 7111W        W11175   2.314   0.513   7.734 -0.1156 -0.0357 -0.2016
 7112W        W11176   5.011   8.140   0.868  0.0060 -0.2576 -0.2030
 7113W        W11177   7.173   9.525   2.680  0.0464  0.0937 -0.2193
 7114W        W11178   3.007   0.701   9.173 -0.1321 -0.0530 -0.1198
 7115W        W11179   6.320   6.421   7.930 -0.3333  0.0375 -0.2837
 7116W        W11180   9.792   8.957   1.897  0.0075 -0.0461  0.1353
 7117W        W11181  10.287   7.956   1.826  0.1425  0.0596 -0.1551
 7118W        W11182   5.631   6.678   2.562  0.2315 -0.4568  0.2055
 7119W        W11183   4.636   0.221   0.473  0.0695  0.0355 -0.1107
 7120W        W11184   9.184   7.712   9.187  0.0363  0.2095  0.2458
 7121W        W11185   2.380   5.469   0.578 -0.0285  0.0727  0.1309
 7122W        W11186   2.218  10.384   0.199  0.2426  0.1165 -0.0796
 7123W        W11187   8.829  10.702   1.953  0.2866 -0.0510  0.0810
 7124W        W11188  10.324   1.009   2.151 -0.1923 -0.0043 -0.5321
 7125W        W11189   5.339   4.817  10.612  0.1690  0.0968  0.1536
 7126W        W11190   6.759   0.737   8.787  0.1552 -0.0530 -0.1371
 7127W        W11191   7.901   3.007   3.629  0.0580 -0.3212  0.4072
 7128W        W11192   4.448   4.696  10.826  0.1462 -0.0905 -0.2215
 7129W        W11193   9.559   4.570   9.485  0.0231  0.0922 -0.0600
 7130W        W11194   7.708   0.934   6.816 -0.1990  0.2994  0.2793
 7131W        W11195   7.594   7.086  10.435 -0.2037  0.4698 -0.0105
 7132W        W11196   9.353   7.053   0.842 -0.1292  0.1600 -0.2647
 7133W        W11197   1.702   7.463  10.417 -0.0696  0.0998  0.1017
 7134W        W11198   0.158   6.801   3.726  0.0423  0.0967 -0.0858
 7135W        W11199   8.462   9.751   1.359 -0.1227 -0.0588 -0.2042
 7136W        W11200   9.298   9.936   3.735 -0.0695  0.0248 -0.1989
 7137W        W11201   4.656   6.639   2.165 -0.2796  0.0228 -0.1232
 7138W        W11202   5.480   7.972   1.680  0.0167  0.2944  0.1081
 7139W        W11203   1.089   5.375  10.457  0.0461 -0.2385 -0.0927
 7140W        W11204   6.196   4.356   2.472  0.3152  0.2670  0.1404
 7141W        W11205   3.026   9.867   1.236 -0.1671 -0.0553  0.1816
 7142W        W11206   9.691   2.149   2.064 -0.1967  0.1668 -0.1849
 7143W        W11207   7.012   2.481   2.560  0.1301 -0.1316  0.1361
 7144W        W11208  10.325   7.204   8.474 -0.2800  0.0518 -0.2855
 7145W        W11209   8.353   4.219   3.668  0.0559 -0.1269 -0.0778
 7146W        W11210   0.019   0.827   8.293  0.1388  0.0037 -0.1876
 7147W        W11211   3.050   0.621   2.227  0.0971  0.0288  0.2500
 7148W        W11212   3.276   9.812   0.501 -0.0956 -0.0894  0.0192
 7149W        W11213   9.167   8.052   8.150  0.7241  0.1113 -0.2260
 7150W        W11214   7.106   2.985   9.012  0.1249 -0.4255 -0.1662
 7151W        W11215   4.645   4.260   3.435  0.0887 -0.0479  0.0812
 7152W        W11216   3.158   9.389   0.724 -0.2504  0.0090 -0.2422
 7153W        W11217   3.390   8.942   0.822 -0.1006 -0.1446 -0.0040
 7154W        W11218   4.275   1.403  10.675 -0.2822 -0.1939  0.0258
 7155W        W11219   7.000   8.977   9.083 -0.1027 -0.2178  0.1488
 7156W        W11220   5.334   2.257   9.805  0.0343 -0.2353  0.2952
 7157W        W11221   1.123   6.720  11.376 -0.1837  0.0460 -0.0218
 7158W        W11222   3.337   4.062   8.718  0.3020 -0.3533  0.2395
 7159W        W11223   7.916   0.750  10.763 -0.0163  0.0687 -0.1144
 7160W        W11224   3.854   0.321  10.279  0.2279  0.2476  0.0596
 7161W        W11225   5.624   7.608  10.892  0.2819 -0.2319 -0.2659
 7162W        W11226   5.855   6.355   7.794 -0.5974  0.2824  0.0888
 7163W        W11227   4.074   1.611   8.292 -0.0213 -0.2208 -0.1562
 7164W        W11228   9.961   4.088  10.061 -0.1395 -0.2843 -0.0220
 7165W        W11229   3.990   8.566   9.340  0.2714 -0.5169  0.1957
 7166W        W11230   3.091   2.479   1.399 -0.1589  0.0051  0.2310
 7167W        W11231   4.825   5.410   8.888  0.1444  0.1167  0.0384
 7168W        W11232   2.237   3.242   2.905 -0.0430  0.2717  0.0223
 7169W        W11233   8.862   6.267   9.477 -0.0359  0.0132  0.1015
 7170W        W11234   0.521   4.947   9.933 -0.0821 -0.1642 -0.4553
 7171W        W11235   9.275  10.570   1.462  0.2700  0.3289  0.2811
 7172W        W11236  10.183   8.439   1.918 -0.3659  0.1339 -0.0657
 7173W        W11237   6.775   4.386   2.171  0.0776  0.1260  0.2493
 7174W        W11238   8.597   4.291  10.265 -0.0957  0.0594  0.3542
 7175W        W11239   4.396   1.459   0.341  0.2082 -0.0299  0.2431
 7176W        W11240   1.566   6.974   9.096  0.2599 -0.1496  0.1076
 7177W        W11241   1.145   7.803   9.511  0.2687 -0.0532 -0.1617
 7178W        W11242   7.817   8.383   9.007 -0.1532  0.1529  0.3020
 7179W        W11243   2.591   2.234  10.236 -0.0945 -0.3152 -0.1094
 7180W        W11244   1.566   2.833   3.061 -0.1324  0.1706  0.3457
 7181W        W11245   3.165   7.547  10.481  0.1626 -0.0365 -0.0684
 7182W        W11246   7.899   1.050   1.929  0.1205 -0.0645  0.2194
 7183W        W11247   3.970   5.918   1.589  0.0994 -0.1794  0.2484
 7184W        W11248   2.821   8.542   9.441 -0.0018  0.1331  0.0771
 7185W        W11249   5.992   8.501  10.728  0.1076  0.1377 -0.1125
 7186W        W11250   6.147   3.938   9.453 -0.0850 -0.1402  0.2652
 7187W        W11251   3.678   6.054   8.537  0.2813 -0.0190  0.3754
 7188W        W11252   4.485   6.392   0.354 -0.0752  0.2002  0.2590
 7189W        W11253   6.197   6.427   2.765 -0.4051 -0.0575  0.0564
 7190W        W11254   5.072   6.568   1.149  0.3307  0.1136  0.3328
 7191W        W11255   9.581   9.310   0.450  0.3400  0.0803 -0.0470
 7192W        W11256   9.085   5.477  10.681 -0.0441 -0.0118  0.1540
 7193W        W11257   9.986   9.880   9.689 -0.0588  0.1426 -0.1465
 7194W        W11258   5.860   2.472   9.794  0.2440  0.0361  0.0789
 7195W        W11259  10.054   0.809  10.913  0.1731  0.1466 -0.0986
 7196W        W11260   6.799   5.234   9.228 -0.2101 -0.0587 -0.2723
 7197W        W11261   0.877   5.266  10.904  0.1853 -0.1471  0.0863
 7198W        W11262   7.689   2.019   0.557 -0.2561 -0.1832 -0.0326
 7199W        W11263   5.062   0.826   8.285 -0.2035 -0.0808 -0.0680
 7200W        W11264   0.488   9.109   7.809 -0.0832  0.0827 -0.3357
 7201W        W11265   2.350   9.144  10.974 -0.0208 -0.2507 -0.0978
 7202W        W11266   5.381   1.922   8.312  0.0926 -0.1911 -0.0078
 7203W        W11267   1.559   5.366   2.603  0.0119 -0.0134  0.3972
 7204W        W11268   1.627   8.363   0.062  0.1164 -0.0547 -0.0475
 7205W        W11269   7.314   7.987  10.739 -0.2951  0.0691 -0.1644
 7206W        W11270   7.533   9.763   2.286  0.2026 -0.0426 -0.0986
 7207W        W11271   9.234   3.070  10.307 -0.0425 -0.2025 -0.2310
 7208W        W11272   0.804   4.247   1.320  0.2018 -0.1462 -0.2510
 7209W        W11273  10.551   6.510   1.668  0.2934 -0.2261  0.0057
 7210W        W11274   1.732   1.378  11.055  0.1799 -0.1988  0.1900
 7211W        W11275   6.194   3.621   9.998 -0.2857  0.2123  0.2665
 7212W        W11276   3.489   8.630   2.434  0.1045 -0.1521  0.0598
 7213W        W11277   7.564   5.834   7.436  0.0210  0.2748  0.1579
 7214W        W11278  10.292   8.115   7.845 -0.1070 -0.1430 -0.3797
 7215W        W11279   3.371   4.350   9.991 -0.0938  0.0532 -0.0444
 7216W        W11280   9.262   7.026   2.407 -0.0260 -0.1021  0.1196
 7217W        W11281   3.706   1.748   8.607  0.2182 -0.0679 -0.2258
 7218W        W11282  10.156   9.496  10.004 -0.0424 -0.0140  0.2173
 7219W        W11283   4.281   1.411   9.784  0.2437 -0.0431 -0.0176
 7220W        W11284   9.837   8.264  10.578 -0.1563 -0.4053 -0.2822
 7221W        W11285   5.075   7.410   0.427  0.1148 -0.0408  0.0447
 7222W        W11286  10.181   6.852   2.773 -0.0814  0.1167 -0.1212
 7223W        W11287  10.639   1.017  10.016  0.0581 -0.0716 -0.3168
 7224W        W11288   8.454   0.748   3.321  0.0811  0.0432  0.2678
 7225W        W11289   3.664   3.029   8.334  0.1019 -0.0091 -0.0038
 7226W        W11290  10.246   4.728   0.081  0.1774 -0.1521 -0.0493
 7227W        W11291  10.128   7.083   1.633 -0.1361  0.0356  0.0759
 7228W        W11292  10.346   0.350   8.216 -0.3051 -0.0130  0.0287
 7229W        W11293   2.424   7.148   0.008  0.0096  0.1756 -0.0805
 7230W        W11294   2.702   2.650   3.320  0.2611 -0.0701 -0.1066
 7231W        W11295   7.324  10.586   2.204  0.0495  0.0968  0.1801
 7232W        W11296   6.700   0.647   1.771  0.2124 -0.0787  0.3422
 7233W        W11297   0.467   8.610   8.939 -0.0447  0.0416 -0.0191
 7234W        W11298   3.200   1.237   1.121  0.0676  0.1116  0.0857
 7235W        W11299   3.214   1.964   1.556  0.0487 -0.3105 -0.1363
 7236W        W11300   5.091   7.095   3.175  0.1380 -0.0494 -0.2758
 7237W        W11301   7.107   2.093   8.831  0.3237 -0.2026 -0.4451
 7238W        W11302   2.891   1.374   2.304  0.0532 -0.0456 -0.1462
 7239W        W11303   9.457   6.453   3.236 -0.1606 -0.0562 -0.2102
 7240W        W11304   2.121   9.597   8.548  0.0295 -0.0392  0.2622
 7241W        W11305   8.625   5.687   0.428 -0.1113 -0.1061  0.3203
 7242W        W11306   8.837   0.750  10.463 -0.0781 -0.2005  0.1026
 7243W        W11307   7.815   3.363   8.011  0.2389  0.1616 -0.0456
 7244W        W11308   5.105   9.951   8.811 -0.1862 -0.1251  0.0878
 7245W        W11309   2.261   4.694  10.733  0.2458  0.1358 -0.1697
 7246W        W11310   9.002   5.232   0.612 -0.2841  0.1324 -0.1181
 7247W        W11311   3.757   2.253   9.527 -0.0660  0.1040 -0.2017
 7248W        W11312   6.519   4.980   8.833  0.0244 -0.3635 -0.0831
 7249W        W11313   8.557   2.240   8.934 -0.1243 -0.0469  0.1631
 7250W        W11314   3.928   5.273   9.093 -0.0360 -0.1852  0.3533
 7251W        W11315   0.557   0.040   0.498  0.1461  0.0352  0.0105
 7252W        W11316   9.454   0.319   1.435  0.1171  0.4268 -0.0376
 7253W        W11317   8.720   1.790  10.089  0.1983 -0.0479 -0.1805
 7254W        W11318   2.143   8.400  10.118 -0.2383 -0.0721 -0.0129
 7255W        W11319   6.398   3.925   0.518  0.0282  0.2292 -0.0266
 7256W        W11320   4.935   7.455   8.930 -0.0740 -0.3975 -0.0416
 7257W        W11321   7.455   2.640   8.384  0.4836 -0.0183  0.2352
 7258W        W11322   5.049   0.906   0.796  0.1022  0.0544 -0.0547
 7259W        W11323   6.090   5.352   7.675 -0.0686 -0.2054 -0.3141
 7260W        W11324   6.305   8.809  11.045  0.1019  0.2826  0.0627
 7261W        W11325   0.435   2.540   0.643 -0.3619  0.0992  0.2279
 7262W        W11326   0.525  10.178   9.449  0.1525  0.1866  0.0881
 7263W        W11327   4.424   7.968   8.096  0.4510  0.5851 -0.2613
 7264W        W11328   2.035   8.514   8.335  0.0353  0.0830  0.2064
 7265W        W11329   9.875   7.439   1.884  0.0887  0.0381 -0.1503
 7266W        W11330   5.439   6.198   9.150  0.2255  0.1261  0.3620
 7267W        W11331   7.353   8.031   7.452  0.0760 -0.1527 -0.0294
 7268W        W11332   9.277   8.967   0.666 -0.0672 -0.1276 -0.0756
 7269W        W11333   3.937   0.177  11.037  0.0407 -0.0012  0.0948
 7270W        W11334   7.717   3.395   0.237 -0.1572  0.2663 -0.2744
 7271W        W11335  10.730   4.147   8.892 -0.1330 -0.0068 -0.1357
 7272W        W11336   9.900  10.544   3.357 -0.0944 -0.1690  0.0598
 7273W        W11337   8.530   3.408   9.847  0.0250  0.0561 -0.0268
 7274W        W11338   2.215   5.558   8.825  0.2086 -0.4979  0.2524
 7275W        W11339   6.318   0.131   1.517 -0.0092  0.0039  0.1411
 7276W        W11340   3.257   3.901   2.956 -0.0372  0.1311  0.0074
 7277W        W11341   4.381  10.703   1.616 -0.2984  0.0021  0.2984
 7278W        W11342  10.453   4.246   9.267  0.1013  0.0923 -0.1824
 7279W        W11343   4.800   3.810   7.604 -0.0124  0.0959 -0.1082
 7280W        W11344   7.216   8.713   2.840 -0.1605 -0.0390 -0.1382
 7281W        W11345   3.805   0.961  11.268 -0.1157  0.0480 -0.2937
 7282W        W11346   9.081   3.719   8.109 -0.1474 -0.0753  0.0995
 7283W        W11347  10.427   5.417  10.712 -0.0874 -0.0951  0.0322
 7284W        W11348   0.012   7.976  10.364  0.0054  0.0603 -0.0686
 7285W        W11349   4.751   0.190  10.497 -0.0308 -0.2421 -0.2783
 7286W        W11350   1.945   7.048  11.291 -0.0755 -0.0321 -0.1254
 7287W        W11351   6.958   5.218   1.594  0.2332 -0.2130 -0.0461
 7288W        W11352   8.505   8.721   3.291 -0.2381  0.2562  0.0670
 7289W        W11353   5.764   1.011   2.386  0.1821 -0.0985  0.0649
 7290W        W11354   6.920   6.443  10.148 -0.0986 -0.0208  0.1185
 7291W        W11355   7.190   9.877   1.100  0.0702 -0.2119  0.1456
 7292W        W11356   5.437   6.547  11.369  0.2491 -0.5886  0.0770
 7293W        W11357   6.848   8.942   7.169 -0.2324  0.4526  0.0078
 7294W        W11358   9.194   8.937  10.795  0.0586  0.1301 -0.3340
 7295W        W11359   2.395   9.747   0.022 -0.0420 -0.2355 -0.2590
 7296W        W11360   7.022   0.830   8.350  0.4077  0.0500  0.1837
 7297W        W11361   1.071   8.402   0.778 -0.1861  0.5133  0.1017
 7298W        W11362   8.914   8.436   1.704  0.0350  0.2091 -0.1855
 7299W        W11363   6.494   3.099   1.497 -0.3420 -0.2085  0.1258
 7300W        W11364   1.983   2.013   0.726 -0.0836  0.0459  0.0925
 7301W        W11365   4.312   2.424   8.222  0.2414  0.0110  0.0142
 7302W        W11366   5.217   9.794   7.817  0.0364  0.2248 -0.0733
 7303W        W11367   5.462   0.076   0.918  0.1917 -0.1658  0.1188
 7304W        W11368   9.259   2.998   9.849 -0.2399  0.1481  0.0927
 7305W        W11369   6.023   6.520  10.235  0.2941  0.2477  0.1701
 7306W        W11370   7.469   9.356  10.607  0.0377 -0.1472 -0.0175
 7307W        W11371   4.540   1.643  10.352 -0.0847 -0.1209  0.1587
 7308W        W11372   9.905   0.243   2.106 -0.2475  0.0002  0.2225
 7309W        W11373   6.240   4.262   7.605 -0.1864 -0.2596  0.5048
 7310W        W11374   4.028   5.112  10.490 -0.1676 -0.1666 -0.0618
 7311W        W11375   9.835   0.129   8.819 -0.0489 -0.0647 -0.5147
 7312W        W11376   2.021   4.438   3.465  0.4173  0.2797  0.2445
 7313ION    NA+11377   8.597   9.743   2.300  0.0987 -0.0769  0.1434
 7314ION    NA+11378   0.241   6.319  11.289  0.0524  0.1421  0.1620
 7315ION    NA+11379   5.129   9.863   2.843  0.3054 -0.0573 -0.1408
 7316ION    NA+11380   4.656   9.854   1.583  0.0129  0.0015 -0.0633
 7317ION    NA+11381   0.130   3.464   8.738  0.0925  0.1074 -0.2163
 7318ION    NA+11382   6.521   7.129   2.093  0.1797 -0.2369 -0.2048
 7319ION    NA+11383   0.301   3.700   2.078  0.3756 -0.1576 -0.1249
 7320ION    NA+11384   7.342   1.777   6.835 -0.3211  0.0066 -0.0936
 7321ION    NA+11385   0.686   7.228   2.537 -0.0431  0.0284 -0.0091
 7322ION    NA+11386   1.119   9.985   9.652  0.0627  0.0374  0.0098
 7323ION    NA+11387   9.453  10.266   2.131 -0.1995  0.1793  0.0404
 7324ION    NA+11388   7.725   7.745   3.498 -0.0045 -0.0133 -0.1655
 7325ION    NA+11389   7.118   3.521   6.889 -0.1421  0.0310  0.1335
 7326ION    NA+11390   8.241   0.462  11.229  0.2254  0.0032  0.1237
 7327ION    NA+11391  10.632   8.023   0.115 -0.0123  0.2809 -0.3296
 7328ION    NA+11392   5.993  10.470   1.593 -0.3541 -0.3081 -0.3597
 7329ION    NA+11393   3.308   9.284   9.087  0.1842  0.2004 -0.1789
 7330ION    NA+11394   6.555   4.387   7.967 -0.0526  0.0159 -0.2011
 7331ION    NA+11395   8.611   7.908  11.254 -0.2064 -0.2002  0.3174
 7332ION    NA+11396   8.554  10.609  10.483 -0.2506  0.0040 -0.1995
 7333ION    NA+11397   3.560  10.176   8.521 -0.0538  0.0615  0.1478
 7334ION    NA+11398   6.820   2.703   3.068  0.1745 -0.2735 -0.1980
 7335ION    NA+11399   2.534   2.376   7.957  0.1940  0.3042 -0.0147
 7336ION    NA+11400   7.298   9.996   8.125  0.1631  0.0793  0.1865
 7337ION    NA+11401   1.904  10.290   9.147 -0.0888 -0.0465 -0.1974
 7338ION    NA+11402   2.110   9.324  10.100  0.0885 -0.0056 -0.3358
 7339ION    NA+11403   1.047   5.744   4.064 -0.4694 -0.0952  0.0741
 7340ION    NA+11404   8.903   4.436   7.835  0.0318 -0.0166 -0.1457
 7341ION    NA+11405   4.633   3.260   9.305 -0.0491 -0.0056  0.1598
 7342ION    NA+11406   4.822  10.573  10.904  0.0545 -0.0725 -0.0329
 7343ION    NA+11407   2.922   3.049   9.978  0.2088 -0.3649 -0.2841
 7344ION    NA+11408   7.347   4.776   0.230 -0.1307  0.1344 -0.0037
 7345ION    NA+11409   3.540   3.853   3.364 -0.1699 -0.0086 -0.1558
 7346ION    NA+11410   9.158   0.207  11.085 -0.1546  0.3859  0.2117
 7347ION    NA+11411   9.764   5.952   3.266 -0.1009 -0.1829  0.1414
 7348ION    NA+11412  10.371   8.702   0.023 -0.1504 -0.1473 -0.0031
 7349ION    NA+11413   4.013   3.256   8.605  0.2921 -0.2043  0.2837
 7350ION    NA+11414   4.238   9.107   1.425  0.0904 -0.0455 -0.0998
 7351ION    NA+11415   0.533   0.481   7.311 -0.1294  0.0497  0.1838
 7352ION    NA+11416   3.740   8.896   3.361  0.0099 -0.1234  0.2344
 7353ION    NA+11417   9.865   2.542   7.455  0.2149 -0.0116  0.2603
 7354ION    NA+11418   4.492   3.853   1.183  0.1243 -0.0283 -0.1402
 7355ION    NA+11419   1.057   4.641   9.810 -0.1235  0.3645  0.0059
 7356ION    NA+11420   5.225   8.078   0.003  0.1677 -0.1615  0.0688
 7357ION    NA+11421   2.100   0.007   3.255 -0.1083  0.3367  0.2286
 7358ION    NA+11422   7.057   6.736   7.790 -0.2881  0.2624  0.1334
 7359ION    NA+11423   4.021   8.967  11.019 -0.0666 -0.0854  0.1146
 7360ION    NA+11424   1.221   8.636   0.037  0.1206 -0.1973 -0.2349
 7361ION    NA+11425   2.792   5.806   8.087 -0.0381 -0.0826 -0.1501
 7362ION    NA+11426  10.350   1.732   3.507 -0.0469  0.0810  0.2860
 7363ION    NA+11427   3.217   2.533   9.258 -0.0062  0.3034  0.0307
 7364ION    NA+11428   6.967   7.525   3.424  0.1429  0.1232  0.0526
 7365ION    NA+11429   6.670   9.796  10.944 -0.0086  0.0699 -0.0722
 7366ION    NA+11430   3.491   5.386   8.846 -0.2644 -0.0305 -0.2937
 7367ION    NA+11431   1.241   5.958   8.240  0.1779 -0.0755  0.0927
 7368ION    NA+11432   7.112   6.498  10.875 -0.2288 -0.0017 -0.0377
 7369ION    NA+11433   7.704   7.992   2.217  0.0874  0.1394 -0.0031
 7370ION    NA+11434   9.605   3.914   3.429 -0.3392 -0.2118 -0.0134
 7371ION    NA+11435   9.728   8.427   9.222 -0.2774  0.0572 -0.3716
 7372ION    NA+11436   1.275   9.338   8.462  0.0058 -0.1209  0.1130
 7373ION    NA+11437   9.819   2.994   9.160  0.1298 -0.0010 -0.0688
 7374ION    NA+11438   5.098   7.655  10.480 -0.1619  0.3599 -0.1575
 7375ION    NA+11439   5.812   2.927   9.443  0.1617  0.1497  0.1170
 7376ION    NA+11440   4.008   6.310   0.484  0.1663 -0.0917 -0.2863
 7377ION    NA+11441   1.915   3.837   1.958 -0.2257 -0.0046  0.1922
 7378ION    NA+11442   0.244   0.229   7.663 -0.1883 -0.0040 -0.0107
 7379ION    NA+11443   3.550   7.976   8.990  0.1810  0.1948  0.2780
 7380ION    NA+11444   2.741   2.211  10.798 -0.1403  0.0366 -0.1799
 7381ION    NA+11445   6.076   1.936   3.105 -0.0428  0.0101 -0.0292
 7382ION    NA+11446   5.719   1.939   9.801  0.1756  0.2088 -0.0155
 7383ION    NA+11447   2.270   8.178   1.313  0.1153  0.1507 -0.1995
 7384ION    NA+11448   8.794   1.439   2.683 -0.2095  0.0214 -0.1199
 7385ION    NA+11449   3.961   9.508   9.842 -0.0128  0.2451 -0.1325
 7386ION    NA+11450   3.991   8.673   6.927  0.0238  0.0250 -0.1320
 7387ION    NA+11451   1.000   2.324  11.048  0.1319  0.1689 -0.0150
 7388ION    NA+11452   3.025  10.081   3.354 -0.0882 -0.1605  0.2338
 7389ION    NA+11453   4.268   1.645   1.636  0.0170  0.2403  0.1695
 7390ION    CL-11454   1.744   9.282   8.709  0.2600  0.1212 -0.0483
 7391ION    CL-11455   1.583   1.116   7.985  0.0509  0.2135  0.0597
 7392ION    CL-11456   5.417  10.145   9.679 -0.2820  0.0468  0.0596
 7393ION    CL-11457   5.193   9.991   2.355 -0.0085 -0.2783  0.1777
 7394ION    CL-11458   0.372   1.771   8.360 -0.4929 -0.0126  0.0817
 7395ION    CL-11459   4.430   9.224   9.844 -0.2375 -0.2798 -0.2072
 7396ION    CL-11460   4.078   9.003   1.890 -0.2312 -0.0053  0.4211
 7397ION    CL-11461   8.927   9.216   2.445 -0.2414 -0.1314  0.1838
 7398ION    CL-11462   8.814   7.548   8.278  0.0055 -0.1464  0.0855
 7399ION    CL-11463   6.275   4.842   7.914  0.0745  0.0449  0.0485
 7400ION    CL-11464   1.632   7.247   8.609  0.1037 -0.1027 -0.4864
 7401ION    CL-11465   3.632   0.649   2.331  0.3013  0.4508  0.1157
 7402ION    CL-11466   3.983   5.810   0.573  0.1468 -0.1852 -0.0789
 7403ION    CL-11467   2.580   2.801   9.736 -0.3759  0.0136  0.2966
 7404ION    CL-11468   1.023   4.194   9.990  0.1236  0.1352  0.2003
 7405ION    CL-11469   2.116   3.630   3.251 -0.3071  0.1249  0.0469
 7406ION    CL-11470   8.127  10.316   2.845  0.0122 -0.0245 -0.0251
 7407ION    CL-11471   1.326  10.392   9.886 -0.2914 -0.2255  0.2367
 7408ION    CL-11472   3.854   8.811   1.146 -0.1899 -0.0914  0.4419
 7409ION    CL-11473   7.363  10.097   7.625  0.0975  0.1274  0.0849
 7410ION    CL-11474   2.099   4.262   1.652 -0.0751  0.5039  0.1260
 7411ION    CL-11475   3.204   9.196  10.545 -0.0014  0.1572 -0.2713
 7412ION    CL-11476   9.325   4.931   8.375  0.0211  0.1876 -0.0271
 7413ION    CL-11477   1.804  10.036   9.852  0.0079 -0.0284 -0.2004
 7414ION    CL-11478   0.677   6.367   3.125  0.0435 -0.2151 -0.0039
 7415ION    CL-11479   8.698   9.243   1.408 -0.1362 -0.1020 -0.3765
 7416ION    CL-11480   7.512   7.485   2.208 -0.2536  0.0938 -0.2256
 7417ION    CL-11481   9.846   0.768   0.031 -0.0874 -0.1080  0.0489
 7418ION    CL-11482   8.207   9.745   0.530 -0.1032  0.0743 -0.1304
 7419ION    CL-11483  10.442   3.271   9.046  0.0485  0.0431 -0.1765
 7420ION    CL-11484   7.018   2.286   2.099  0.0376  0.0467  0.1653
 7421ION    CL-11485   8.628   0.118  10.988  0.3585 -0.0625 -0.0492
 7422ION    CL-11486   8.634   2.153   2.341 -0.1309  0.3702 -0.1124
 7423ION    CL-11487   7.994   5.830   1.014 -0.1585  0.1313 -0.1326
 7424ION    CL-11488   2.083   8.679   1.384  0.0823 -0.0490 -0.0692
 7425ION    CL-11489   0.743   7.697   2.715 -0.0424 -0.2830 -0.1432
 7426ION    CL-11490   1.283   2.257  10.622 -0.0410 -0.3611 -0.0558
 7427ION    CL-11491   3.544  10.053   2.419  0.0960  0.0974 -0.0096
 7428ION    CL-11492   9.143   3.398   0.422 -0.0831  0.0357  0.0029
 7429ION    CL-11493   9.316   1.251   2.328 -0.1282 -0.1449 -0.3626
 7430ION    CL-11494   4.672   9.463   1.347 -0.1987  0.0536 -0.1075
 7431ION    CL-11495   3.594   9.992   7.518 -0.1573 -0.2900 -0.1514
 7432ION    CL-11496   0.498   2.534   8.874 -0.0476  0.1132  0.1804
 7433ION    CL-11497   6.785  10.108  11.263 -0.3226  0.0709 -0.2075
 7434ION    CL-11498   4.099   3.739   8.445 -0.0493  0.2129  0.0927
 7435ION    CL-11499   9.489   2.943   1.573  0.3705 -0.0142 -0.3111
 7436ION    CL-11500   6.183   6.975   1.645  0.0677 -0.0977 -0.2442
 7437ION    CL-11501   3.051   9.812   8.623  0.2412  0.4720  0.1821
 7438ION    CL-11502   0.243   7.771  11.128  0.2822 -0.1549 -0.0999
 7439ION    CL-11503  10.135   8.499  11.045  0.0029  0.3135  0.2031
 7440ION    CL-11504   6.064   2.899   9.867 -0.0402  0.1229  0.2660
 7441ION    CL-11505   2.111   3.406   2.409 -0.2144 -0.2872 -0.4290
 7442ION    CL-11506   3.838   9.957   2.786  0.0122 -0.1820 -0.1457
 7443ION    CL-11507   9.010  10.028   2.200 -0.0152 -0.1780  0.2020
 7444ION    CL-11508   3.728   8.017   8.379  0.0453 -0.1431 -0.3805
 7445ION    CL-11509   9.559   8.247   9.709  0.0039  0.0935  0.3044
 7446ION    CL-11510   3.510   9.722   9.225  0.2604  0.1176 -0.1325
 7447ION    CL-11511   3.579   8.834   9.284  0.2988 -0.2472 -0.0628
 7448ION    CL-11512   0.418   9.291   8.327  0.1000 -0.2498 -0.2637
 7449ION    CL-11513   0.478   5.345   0.806  0.0066  0.1603  0.0264
 7450ION    CL-11514   0.894   9.252   1.339 -0.3840 -0.0244 -0.0814
 7451ION    CL-11515   5.636   1.792   2.914 -0.1651 -0.0547 -0.0065
 7452ION    CL-11516   4.303  10.184   2.779 -0.0985  0.0701 -0.1560
 7453ION    CL-11517   3.763   6.022   2.083 -0.1508  0.1465  0.1995
 7454ION    CL-11518   7.543   4.541  11.210  0.2070  0.1140  0.0074
 7455ION    CL-11519   1.351   1.378   0.329 -0.0551  0.1766  0.0759
 7456ION    CL-11520   0.673   5.696   3.481  0.0813  0.2420  0.2436
 7457ION    CL-11521   6.943   9.178   2.915  0.2321  0.3384 -0.2414
 7458ION    CL-11522   0.358   6.751  10.972  0.0236 -0.0986  0.2752
 7459ION    CL-11523   6.538  10.334   1.574 -0.4468 -0.1798  0.2060
 7460ION    CL-11524   7.529   1.494   7.968 -0.1136  0.2458  0.1836
 7461ION    CL-11525   0.729   3.476   2.071 -0.2960  0.0375  0.2769
 7462ION    CL-11526   5.492   5.352   2.985 -0.1444  0.3873  0.2586
 7463ION    CL-11527   9.762   2.383   9.149  0.0255 -0.1240  0.0550
 7464ION    CL-11528   3.557   5.144   8.390 -0.4185 -0.1803  0.0892
 7465ION    CL-11529   9.802  10.169   2.472 -0.0710  0.1561 -0.1168
 7466ION    CL-11530   2.906   2.948  10.497  0.0914  0.1042  0.1296
  10.73230  10.73230  11.40452
